Title
42773
    1SAPS     N    1   1.242   5.140   6.651  0.3254 -0.3015 -0.2168
    1SAPS   HN1    2   1.253   5.114   6.551  3.1732 -1.5995  0.3331
    1SAPS   HN2    3   1.156   5.093   6.685  0.1547 -1.2591 -1.8563
    1SAPS   HN3    4   1.239   5.244   6.648 -1.8949 -0.3071  0.2902
    1SAPS   C12    5   1.366   5.086   6.721  0.1393  0.2764  0.2414
    1SAPS  H12A    6   1.350   5.100   6.827 -0.2612  0.3195  0.1737
    1SAPS   C13    7   1.382   4.934   6.691 -0.4468 -0.8655 -0.0554
    1SAPS  O13A    8   1.285   4.870   6.655  0.3002  0.8301 -0.0948
    1SAPS  O13B    9   1.481   4.873   6.746  0.2361 -0.7656  0.5601
    1SAPS   C11   10   1.489   5.161   6.670 -0.1814  0.1030  0.4770
    1SAPS  H11A   11   1.494   5.148   6.560  0.0326 -2.7200  0.7597
    1SAPS  H11B   12   1.581   5.109   6.703 -1.0511 -1.0534  1.1573
    1SAPS     P   13   1.619   5.373   6.759  0.1219 -0.4866 -0.3799
    1SAPS   O13   14   1.583   5.394   6.904 -0.4300 -0.7936  0.0308
    1SAPS   O14   15   1.737   5.290   6.729 -0.3682 -0.3405  0.5991
    1SAPS   O12   16   1.487   5.305   6.706  0.1328  1.2100  0.1066
    1SAPS   O11   17   1.631   5.516   6.685  0.4964 -0.0754  0.0140
    1SAPS    C1   18   1.570   5.521   6.555 -0.0262 -0.5582  0.1966
    1SAPS    HA   19   1.471   5.471   6.551 -1.1694  1.4797  1.1886
    1SAPS    HB   20   1.549   5.628   6.531  1.7219  0.1615  1.6755
    1SAPS    C2   21   1.660   5.457   6.442  0.8827 -0.4200  0.1212
    1SAPS    HS   22   1.689   5.351   6.456 -1.0730 -0.8966  0.9313
    1SAPS   O21   23   1.780   5.535   6.437  0.0578  0.7871 -1.2646
    1SAPS   C21   24   1.896   5.468   6.399 -0.4291 -0.3780  0.6327
    1SAPS   O22   25   1.898   5.349   6.374  0.2459 -0.0624 -0.7178
    1SAPS   C22   26   2.016   5.562   6.384  0.5065  0.3848 -0.3436
    1SAPS   H2R   27   1.980   5.660   6.421 -0.2470 -0.7369  2.1462
    1SAPS   H2S   28   2.088   5.524   6.460  1.1435  0.5376 -0.8621
    1SAPS    C3   29   1.588   5.462   6.302 -0.4398  0.2688 -0.2759
    1SAPS    HX   30   1.588   5.568   6.270 -1.8790  0.1148 -0.8714
    1SAPS    HY   31   1.484   5.437   6.331 -0.0678 -0.2747  0.6426
    1SAPS   O31   32   1.649   5.374   6.209 -0.1404  0.4648  0.2030
    1SAPS   C31   33   1.597   5.253   6.207 -0.1045  0.2829 -0.1394
    1SAPS   O32   34   1.492   5.225   6.259  0.3993  0.3553  0.0547
    1SAPS   C32   35   1.682   5.162   6.117 -0.3863 -0.1668  0.3301
    1SAPS   H2X   36   1.659   5.058   6.147 -0.5270 -0.3165 -0.2946
    1SAPS   H2Y   37   1.788   5.194   6.126 -0.1653 -0.7153 -0.2779
    1SAPS   C23   38   2.079   5.560   6.245  0.8881 -0.3277  0.6129
    1SAPS   H3R   39   1.993   5.553   6.175  1.6884  1.7954 -0.6679
    1SAPS   H3S   40   2.139   5.467   6.243  0.7345 -0.4194 -1.0384
    1SAPS   C24   41   2.162   5.681   6.204 -0.1687  0.0941 -0.3263
    1SAPS   H4R   42   2.110   5.778   6.185  0.8498  0.8258  0.4911
    1SAPS   H4S   43   2.209   5.645   6.110  0.2936 -1.0161  0.3058
    1SAPS   C25   44   2.276   5.710   6.298 -0.3529 -0.2467  0.9376
    1SAPS   H5R   45   2.253   5.778   6.382 -0.3033  0.4435  0.4008
    1SAPS   C26   46   2.406   5.666   6.291 -0.3705 -0.4788  0.0816
    1SAPS   H6R   47   2.478   5.694   6.370 -0.2378 -0.6476  0.0203
    1SAPS   C27   48   2.450   5.545   6.217 -0.3055 -0.5088  0.1569
    1SAPS   H7R   49   2.393   5.525   6.124  2.2277  2.0284 -2.1366
    1SAPS   H7S   50   2.424   5.456   6.278  1.8168 -1.1235  0.2413
    1SAPS   C28   51   2.593   5.529   6.176 -1.3648 -0.1252  0.2638
    1SAPS   H8R   52   2.673   5.546   6.250  1.3673 -2.1764 -1.9916
    1SAPS   C29   53   2.644   5.489   6.054  0.1047 -0.6576 -1.2440
    1SAPS   H9R   54   2.751   5.471   6.035  0.1617 -0.5877 -0.9796
    1SAPS  C210   55   2.563   5.460   5.925  0.4060 -0.8600 -0.4298
    1SAPS  H10R   56   2.629   5.483   5.838 -1.4983 -1.5589 -2.1370
    1SAPS  H10S   57   2.490   5.542   5.906  2.4805  0.3203 -4.7259
    1SAPS  C211   58   2.511   5.323   5.903 -0.2862 -0.8002 -0.8404
    1SAPS  H11R   59   2.417   5.307   5.959 -0.0604 -0.2156 -0.2868
    1SAPS  C212   60   2.536   5.242   5.796  0.4161  0.1458 -0.5414
    1SAPS  H12R   61   2.487   5.143   5.796 -0.1655  0.3994  0.8273
    1SAPS  C213   62   2.645   5.260   5.700 -0.3191 -0.5754  0.4610
    1SAPS  H13R   63   2.688   5.157   5.695 -1.6784 -1.3242  2.6445
    1SAPS  H13S   64   2.732   5.320   5.733 -1.2331  0.1613  1.5956
    1SAPS  C214   65   2.600   5.308   5.563  0.7527  0.7331 -0.4890
    1SAPS  H14R   66   2.538   5.399   5.565  0.3667  0.4653  0.1378
    1SAPS  C215   67   2.662   5.279   5.448 -0.4888  0.1802  0.2173
    1SAPS  H15R   68   2.621   5.319   5.354 -1.5623 -0.7340  0.2826
    1SAPS  C216   69   2.768   5.175   5.423 -0.8191  0.2673 -1.0747
    1SAPS  H16R   70   2.792   5.118   5.515  0.9565  2.2474 -0.2367
    1SAPS  H16S   71   2.863   5.227   5.398 -0.0537 -0.6141 -0.0979
    1SAPS  C217   72   2.744   5.084   5.306 -0.0890  0.5388 -0.2412
    1SAPS  H17R   73   2.724   5.153   5.221  0.3365 -0.1180 -0.8938
    1SAPS  H17S   74   2.656   5.018   5.326  1.5522 -2.1014 -1.2321
    1SAPS  C218   75   2.869   4.996   5.276 -0.0496 -0.2538 -0.8963
    1SAPS  H18R   76   2.880   4.931   5.365  2.9218  2.1585  0.7096
    1SAPS  H18S   77   2.968   5.047   5.279  0.4896 -1.2718  1.5099
    1SAPS  C219   78   2.863   4.922   5.142 -0.2838  0.4309  0.1185
    1SAPS  H19R   79   2.856   4.983   5.049 -1.0159 -0.5430 -0.4969
    1SAPS  H19S   80   2.765   4.869   5.147 -1.9930  3.3205 -0.0510
    1SAPS  C220   81   2.989   4.828   5.126 -0.2155  0.8551 -0.2536
    1SAPS  H20R   82   2.974   4.751   5.048  1.0267 -0.1235  0.4363
    1SAPS  H20S   83   3.001   4.769   5.219  5.1570 -0.2663 -1.2961
    1SAPS  H20T   84   3.086   4.880   5.112  0.3968  0.0862  0.9375
    1SAPS   C33   85   1.616   5.171   5.980 -0.2703  0.2442  0.0840
    1SAPS   H3X   86   1.597   5.277   5.957  0.5100  0.1618 -1.0169
    1SAPS   H3Y   87   1.521   5.114   5.978  0.1364 -0.4533  0.1815
    1SAPS   C34   88   1.716   5.126   5.865  0.1647 -0.5175  0.1205
    1SAPS   H4X   89   1.723   5.016   5.852  2.1171 -0.5006  0.6983
    1SAPS   H4Y   90   1.817   5.155   5.901  0.1477 -0.7330  0.3419
    1SAPS   C35   91   1.694   5.199   5.729 -0.4306  0.0080  0.6237
    1SAPS   H5X   92   1.703   5.305   5.760 -1.5889 -0.1134  1.4443
    1SAPS   H5Y   93   1.586   5.189   5.701 -0.1318 -1.1220 -0.2241
    1SAPS   C36   94   1.787   5.157   5.606  0.5006  0.0944 -0.2072
    1SAPS   H6X   95   1.796   5.046   5.604  0.0294  0.0329  0.7614
    1SAPS   H6Y   96   1.887   5.193   5.636  0.5258  1.0402 -1.3586
    1SAPS   C37   97   1.746   5.214   5.467 -0.3825 -0.2717  0.3701
    1SAPS   H7X   98   1.736   5.324   5.461  0.1587 -0.1342  1.7792
    1SAPS   H7Y   99   1.647   5.168   5.447 -0.2500  0.3291 -1.9278
    1SAPS   C38  100   1.836   5.158   5.355 -0.1997  0.5468 -0.8686
    1SAPS   H8X  101   1.838   5.049   5.377 -2.1200  0.9383  1.7391
    1SAPS   H8Y  102   1.940   5.193   5.372 -0.2936  0.4490 -0.0500
    1SAPS   C39  103   1.794   5.183   5.210  0.1624 -0.4977  0.5014
    1SAPS   H9X  104   1.781   5.293   5.198 -1.4567 -0.7571 -0.3937
    1SAPS   H9Y  105   1.691   5.145   5.191  0.2944 -1.4481  1.5811
    1SAPS  C310  106   1.881   5.124   5.097  0.2377  0.4553 -0.4018
    1SAPS  H10X  107   1.894   5.016   5.116 -1.4595  0.5980  2.0613
    1SAPS  H10Y  108   1.978   5.179   5.103  0.2877  0.2683  0.6696
    1SAPS  C311  109   1.803   5.148   4.966  0.1967 -0.2888  0.2352
    1SAPS  H11X  110   1.764   5.252   4.957 -0.1074 -0.5278 -1.8833
    1SAPS  H11Y  111   1.713   5.085   4.983  0.2886 -0.3268  0.5856
    1SAPS  C312  112   1.877   5.106   4.836  0.7252  0.2686  0.0485
    1SAPS  H12X  113   1.892   4.996   4.834 -1.5102 -0.1460  2.0634
    1SAPS  H12Y  114   1.976   5.157   4.832 -0.2429  2.3639  1.1069
    1SAPS  C313  115   1.798   5.128   4.703  0.5068  0.4693  0.0322
    1SAPS  H13X  116   1.782   5.237   4.709 -0.6770  0.3576 -0.6479
    1SAPS  H13Y  117   1.699   5.077   4.696 -0.4219  2.3673 -1.9759
    1SAPS  C314  118   1.878   5.094   4.579  0.3139  0.3113 -0.3797
    1SAPS  H14X  119   1.892   4.984   4.581  4.1967  0.6641  1.4699
    1SAPS  H14Y  120   1.983   5.130   4.593  0.4220  0.3771 -1.2872
    1SAPS  C315  121   1.813   5.131   4.450 -0.4182 -0.1439  0.8610
    1SAPS  H15X  122   1.787   5.236   4.424 -0.0490 -0.6205 -1.6003
    1SAPS  H15Y  123   1.716   5.077   4.436 -1.5491  1.8167  0.7096
    1SAPS  C316  124   1.898   5.087   4.328 -0.4163  0.6765 -0.2786
    1SAPS  H16X  125   1.925   4.979   4.334  0.0034  0.7761 -0.3111
    1SAPS  H16Y  126   1.995   5.142   4.335 -1.2295  2.0159  0.9883
    1SAPS  C317  127   1.840   5.119   4.190  0.0230 -0.2624 -0.1915
    1SAPS  H17X  128   1.863   5.226   4.175  0.7648  0.0164  2.4523
    1SAPS  H17Y  129   1.734   5.087   4.194 -0.2566  0.4254 -1.6056
    1SAPS  C318  130   1.914   5.044   4.086 -0.0261  0.3088  0.5280
    1SAPS  H18X  131   1.899   4.934   4.087  0.5478  0.2287  1.6720
    1SAPS  H18Y  132   2.023   5.063   4.095 -0.0063  1.0786 -0.9724
    1SAPS  H18Z  133   1.900   5.087   3.984  0.1508 -0.8302  0.0099
    2SAPS     N  134   6.478   1.084   6.640 -0.2901  0.0698 -0.6356
    2SAPS   HN1  135   6.400   1.152   6.637  0.5338  1.0888  0.2710
    2SAPS   HN2  136   6.445   0.985   6.646 -3.1407  0.9394 -0.6671
    2SAPS   HN3  137   6.534   1.114   6.723 -2.6819  0.2771  1.0057
    2SAPS   C12  138   6.565   1.074   6.523  0.0467 -0.4740  0.3690
    2SAPS  H12A  139   6.509   1.067   6.430  0.4677 -1.5314  0.1789
    2SAPS   C13  140   6.658   1.203   6.496 -0.4173 -0.4026 -0.6839
    2SAPS  O13A  141   6.649   1.297   6.581  0.4927 -0.2559 -0.6292
    2SAPS  O13B  142   6.753   1.197   6.418 -0.2821  0.0307 -0.1002
    2SAPS   C11  143   6.635   0.937   6.522 -0.3768  0.5354 -0.7961
    2SAPS  H11A  144   6.689   0.909   6.429  0.3690  1.8588 -0.7937
    2SAPS  H11B  145   6.556   0.859   6.528 -0.3084  0.4940 -0.3845
    2SAPS     P  146   6.761   0.781   6.695 -0.3006 -0.1200  0.1572
    2SAPS   O13  147   6.903   0.796   6.727 -0.2228 -0.8015  0.3224
    2SAPS   O14  148   6.667   0.741   6.803 -0.5211 -0.2510  0.1671
    2SAPS   O12  149   6.714   0.927   6.642 -0.0165  0.0606  0.9082
    2SAPS   O11  150   6.730   0.682   6.574 -0.2916  0.2224 -0.2659
    2SAPS    C1  151   6.845   0.594   6.535  0.8423  0.5422 -0.2622
    2SAPS    HA  152   6.904   0.560   6.623 -2.8944 -1.0426  1.8734
    2SAPS    HB  153   6.810   0.504   6.480  2.9422  0.6046 -1.8498
    2SAPS    C2  154   6.942   0.664   6.435 -0.0377  0.1882 -0.1903
    2SAPS    HS  155   6.994   0.747   6.489 -0.3136  0.3816 -0.2181
    2SAPS   O21  156   6.866   0.724   6.323 -0.1561  0.1420 -0.1474
    2SAPS   C21  157   6.931   0.820   6.260 -0.1205 -0.4823 -0.5600
    2SAPS   O22  158   7.024   0.884   6.298 -0.5037 -0.4328 -0.0019
    2SAPS   C22  159   6.869   0.822   6.113  0.8391  0.2831 -0.5021
    2SAPS   H2R  160   6.944   0.874   6.050 -1.2000  1.8571 -1.7243
    2SAPS   H2S  161   6.855   0.715   6.086  1.0076  0.3533 -0.8690
    2SAPS    C3  162   7.053   0.577   6.368 -0.5541 -0.8647 -0.8841
    2SAPS    HX  163   7.108   0.538   6.457 -1.2685  3.3336  1.6696
    2SAPS    HY  164   7.118   0.636   6.300 -1.0013 -1.0033 -1.4355
    2SAPS   O31  165   7.000   0.478   6.283 -0.2837  0.1752 -0.2248
    2SAPS   C31  166   7.087   0.376   6.266  0.9624 -0.7457  0.3774
    2SAPS   O32  167   7.207   0.382   6.287  0.2282 -0.7404 -0.2744
    2SAPS   C32  168   7.020   0.249   6.214  0.4926  0.8013  0.0615
    2SAPS   H2X  169   6.948   0.225   6.295  2.1776  3.2314  2.4629
    2SAPS   H2Y  170   7.097   0.169   6.210 -2.5766 -2.4040 -0.8404
    2SAPS   C23  171   6.737   0.893   6.111  0.8568 -0.0385 -0.3317
    2SAPS   H3R  172   6.745   0.994   6.158  0.0027 -0.0816 -0.0607
    2SAPS   H3S  173   6.661   0.837   6.170  1.5147 -0.6064 -0.0141
    2SAPS   C24  174   6.673   0.902   5.971 -0.0815  0.6636  0.1172
    2SAPS   H4R  175   6.576   0.954   5.978 -1.0692 -1.1341  0.3960
    2SAPS   H4S  176   6.677   0.802   5.923  1.1671 -0.4834  2.3916
    2SAPS   C25  177   6.763   0.987   5.882  0.3479 -0.0552 -0.4776
    2SAPS   H5R  178   6.846   1.032   5.939 -0.5894  0.0805  0.8099
    2SAPS   C26  179   6.756   1.007   5.749 -0.4096  0.5386 -1.1832
    2SAPS   H6R  180   6.830   1.075   5.706  1.1747 -1.0414 -1.0799
    2SAPS   C27  181   6.655   0.932   5.656 -0.6020  0.3437 -0.9450
    2SAPS   H7R  182   6.575   0.899   5.726  0.0904 -0.0307 -0.3101
    2SAPS   H7S  183   6.699   0.839   5.614 -1.0617 -1.2277  1.7947
    2SAPS   C28  184   6.607   1.020   5.542  0.4165 -0.1440 -0.7571
    2SAPS   H8R  185   6.561   1.116   5.571 -0.5200 -0.3360 -1.5692
    2SAPS   C29  186   6.607   0.978   5.415  0.3578  0.3138 -0.1701
    2SAPS   H9R  187   6.574   1.046   5.335  0.7364  1.0138  0.2490
    2SAPS  C210  188   6.658   0.846   5.354  0.0103  0.1814 -0.0481
    2SAPS  H10R  189   6.700   0.772   5.425  3.3126  0.1184 -1.8356
    2SAPS  H10S  190   6.736   0.859   5.276 -0.0240  0.2135 -0.0770
    2SAPS  C211  191   6.535   0.780   5.296  0.0635 -0.0907  0.4074
    2SAPS  H11R  192   6.445   0.776   5.360 -1.0383 -0.7390 -1.1037
    2SAPS  C212  193   6.529   0.731   5.167  0.2271  0.1136 -0.4218
    2SAPS  H12R  194   6.434   0.698   5.121  0.5268 -0.6466 -0.5098
    2SAPS  C213  195   6.630   0.747   5.059 -0.1766  0.1061  0.0416
    2SAPS  H13R  196   6.729   0.717   5.100 -0.7975  0.2521  1.7611
    2SAPS  H13S  197   6.639   0.853   5.028 -3.2675 -0.1641 -2.1369
    2SAPS  C214  198   6.594   0.664   4.946 -0.1583  0.4114 -0.2549
    2SAPS  H14R  199   6.582   0.556   4.964 -0.5397  0.5863  0.5961
    2SAPS  C215  200   6.580   0.696   4.816  0.5032 -0.4821  0.0286
    2SAPS  H15R  201   6.544   0.616   4.751  0.1575 -3.9237  4.0183
    2SAPS  C216  202   6.589   0.828   4.747  0.2348  0.5313  0.3365
    2SAPS  H16R  203   6.675   0.821   4.678  1.0381  0.2292  1.3468
    2SAPS  H16S  204   6.600   0.916   4.814 -3.2511  0.9129  0.6179
    2SAPS  C217  205   6.479   0.862   4.642  0.2981 -0.3199  0.0312
    2SAPS  H17R  206   6.403   0.905   4.710  1.4103  2.7211 -0.4785
    2SAPS  H17S  207   6.435   0.785   4.575 -0.7977  2.0820 -2.1742
    2SAPS  C218  208   6.512   0.990   4.566 -0.4149  0.6393 -0.5638
    2SAPS  H18R  209   6.576   0.955   4.482 -0.2272 -2.3338  0.6888
    2SAPS  H18S  210   6.568   1.060   4.632 -0.2658 -0.6024  0.6728
    2SAPS  C219  211   6.394   1.058   4.509 -0.0852  0.6595 -0.2477
    2SAPS  H19R  212   6.313   1.074   4.583  0.3253 -0.5694  0.4955
    2SAPS  H19S  213   6.354   0.986   4.434  1.5570 -1.4554  0.7823
    2SAPS  C220  214   6.399   1.196   4.436 -0.5746 -0.3244 -0.0868
    2SAPS  H20R  215   6.447   1.274   4.499 -0.6476 -0.7680  0.5370
    2SAPS  H20S  216   6.297   1.231   4.411  0.8604  3.0456 -1.7807
    2SAPS  H20T  217   6.463   1.190   4.346 -1.7078 -2.4676 -0.8154
    2SAPS   C33  218   6.944   0.268   6.080  0.6934  0.3314 -0.4737
    2SAPS   H3X  219   6.884   0.361   6.078  2.6663  1.6848  0.2896
    2SAPS   H3Y  220   6.876   0.181   6.065  0.2882  0.7496 -1.0862
    2SAPS   C34  221   7.036   0.273   5.959 -0.2338  0.0018  0.3915
    2SAPS   H4X  222   7.097   0.180   5.960 -0.1139  0.0495 -0.9213
    2SAPS   H4Y  223   7.112   0.354   5.968  2.0677 -1.9686 -0.1958
    2SAPS   C35  224   6.968   0.297   5.827  0.6354 -0.0634 -0.3119
    2SAPS   H5X  225   6.941   0.400   5.797  0.8332 -0.0812 -0.5547
    2SAPS   H5Y  226   6.876   0.234   5.829  0.8144 -0.3246 -0.1913
    2SAPS   C36  227   7.060   0.240   5.712  0.4212 -0.3905 -0.3253
    2SAPS   H6X  228   7.105   0.139   5.724  2.8196  0.2460 -2.9867
    2SAPS   H6Y  229   7.149   0.306   5.702 -0.5541  0.6974 -2.5464
    2SAPS   C37  230   6.984   0.244   5.586 -0.6272 -0.2960  0.2236
    2SAPS   H7X  231   6.947   0.347   5.564 -0.3514  0.1987  1.9467
    2SAPS   H7Y  232   6.897   0.175   5.585  0.5379 -1.8993  2.1696
    2SAPS   C38  233   7.076   0.218   5.465 -0.1193 -0.2379 -0.4734
    2SAPS   H8X  234   7.105   0.112   5.479  1.4253  0.1269 -0.7037
    2SAPS   H8Y  235   7.160   0.290   5.473 -0.8606  0.4933  0.9848
    2SAPS   C39  236   7.007   0.238   5.328 -0.3121 -0.4777  0.2787
    2SAPS   H9X  237   7.011   0.342   5.291 -0.1741 -0.1325  1.2258
    2SAPS   H9Y  238   6.897   0.236   5.347 -0.2640  1.5216  0.9386
    2SAPS  C310  239   7.048   0.145   5.214  0.2838  0.0143  0.1084
    2SAPS  H10X  240   7.006   0.048   5.248 -0.5585  0.5988  0.8070
    2SAPS  H10Y  241   7.158   0.133   5.206  0.5085  0.7036  1.7147
    2SAPS  C311  242   6.986   0.179   5.075  0.0654 -0.0157 -0.4928
    2SAPS  H11X  243   7.000   0.287   5.056 -0.9501  0.3355  0.6789
    2SAPS  H11Y  244   6.877   0.166   5.088 -0.2738  2.1702 -0.7937
    2SAPS  C312  245   7.035   0.085   4.968 -0.3711 -0.1863  0.3353
    2SAPS  H12X  246   6.985  -0.013   4.988 -0.7197 -0.1128 -0.1583
    2SAPS  H12Y  247   7.145   0.069   4.967  0.1734  2.7843 -2.1755
    2SAPS  C313  248   6.988   0.128   4.826 -0.4011 -0.0683 -0.4726
    2SAPS  H13X  249   7.065   0.194   4.781 -1.2947 -0.1415 -2.2269
    2SAPS  H13Y  250   6.886   0.172   4.834 -1.4045 -2.4708  1.0747
    2SAPS  C314  251   6.970   0.011   4.731 -0.2988  0.2912 -0.1104
    2SAPS  H14X  252   6.933   0.035   4.629 -2.1287  0.5937  0.5845
    2SAPS  H14Y  253   6.897  -0.067   4.762  0.2141  0.3643  1.3533
    2SAPS  C315  254   7.096  -0.079   4.715 -0.4197  0.3956  0.3974
    2SAPS  H15X  255   7.104  -0.168   4.781 -1.5176  0.2713  0.3849
    2SAPS  H15Y  256   7.189  -0.018   4.719 -0.3001  0.2304  0.1577
    2SAPS  C316  257   7.103  -0.146   4.568  0.1217  0.0273  0.1283
    2SAPS  H16X  258   7.123  -0.060   4.500  0.5169  1.7987  2.3712
    2SAPS  H16Y  259   7.011  -0.199   4.535 -0.0897  0.1063  0.5859
    2SAPS  C317  260   7.218  -0.236   4.552  0.1692 -0.7514  0.4878
    2SAPS  H17X  261   7.195  -0.321   4.620  0.9703  0.4051  2.2701
    2SAPS  H17Y  262   7.313  -0.183   4.574 -0.2135 -1.0755  3.1935
    2SAPS  C318  263   7.228  -0.280   4.407  0.5276 -0.5683  0.3845
    2SAPS  H18X  264   7.323  -0.336   4.396  1.3749  0.9894 -0.6587
    2SAPS  H18Y  265   7.252  -0.196   4.339  1.4658 -0.9546  0.2331
    2SAPS  H18Z  266   7.140  -0.342   4.379  0.5815 -0.7601  0.6359
    3SAPS     N  267   1.264   6.456   7.290  0.1278 -0.4440  0.7208
    3SAPS   HN1  268   1.228   6.462   7.387  0.9553  0.3038  0.9962
    3SAPS   HN2  269   1.322   6.535   7.256 -1.1142  0.0930 -0.2308
    3SAPS   HN3  270   1.180   6.466   7.229 -0.6214 -0.3309  1.7354
    3SAPS   C12  271   1.326   6.323   7.268  0.3801 -0.0845  0.2099
    3SAPS  H12A  272   1.419   6.320   7.323 -0.9804  1.0319  2.7639
    3SAPS   C13  273   1.236   6.208   7.324  0.7394  0.0980  0.6422
    3SAPS  O13A  274   1.129   6.233   7.377 -0.0489 -0.4675 -0.5515
    3SAPS  O13B  275   1.290   6.095   7.322 -0.0305 -0.3821  0.2888
    3SAPS   C11  276   1.344   6.288   7.116 -0.1220  0.5259  0.6191
    3SAPS  H11A  277   1.240   6.285   7.076 -0.8440  0.1843  2.4203
    3SAPS  H11B  278   1.378   6.183   7.103 -0.4754  0.5784 -0.9033
    3SAPS     P  279   1.572   6.399   7.019  0.5168  0.0276 -0.0294
    3SAPS   O13  280   1.606   6.539   7.000  0.1195 -0.3406  0.3518
    3SAPS   O14  281   1.637   6.321   7.129 -0.5468 -0.2125 -0.3657
    3SAPS   O12  282   1.417   6.388   7.039  0.0643  0.0056 -0.4102
    3SAPS   O11  283   1.601   6.327   6.881  0.9176 -0.4913 -0.2068
    3SAPS    C1  284   1.568   6.188   6.857 -0.5983  0.7427 -0.2605
    3SAPS    HA  285   1.659   6.126   6.868 -1.9970 -1.7360 -1.6152
    3SAPS    HB  286   1.486   6.150   6.921 -0.3519 -0.5475 -0.6770
    3SAPS    C2  287   1.509   6.163   6.716 -0.2704 -0.3364 -0.1153
    3SAPS    HS  288   1.474   6.059   6.700 -1.6265  0.4632 -3.2249
    3SAPS   O21  289   1.596   6.188   6.608  0.2987 -0.3495  0.7123
    3SAPS   C21  290   1.695   6.098   6.603 -0.9050  0.6499  0.4752
    3SAPS   O22  291   1.703   5.995   6.667  0.6800 -0.8189  0.2627
    3SAPS   C22  292   1.778   6.138   6.474  0.6626 -0.3237 -0.7023
    3SAPS   H2R  293   1.812   6.242   6.491 -1.8366  0.3520  0.5576
    3SAPS   H2S  294   1.876   6.085   6.465  1.3839  0.4675  1.6856
    3SAPS    C3  295   1.376   6.246   6.700 -0.4170 -0.7730 -0.1047
    3SAPS    HX  296   1.400   6.351   6.728  1.8382 -1.5213  0.9675
    3SAPS    HY  297   1.304   6.205   6.775 -0.0610  1.8925  1.8361
    3SAPS   O31  298   1.325   6.249   6.566 -0.0702  0.3854  0.6711
    3SAPS   C31  299   1.259   6.139   6.530 -0.4241  0.9669 -1.0992
    3SAPS   O32  300   1.218   6.061   6.614 -0.0040  0.6483  0.3510
    3SAPS   C32  301   1.223   6.145   6.378  0.2248  0.0844 -0.2622
    3SAPS   H2X  302   1.130   6.204   6.371 -0.8945 -1.7833 -1.9514
    3SAPS   H2Y  303   1.196   6.041   6.350 -2.1551  0.0158  1.9106
    3SAPS   C23  304   1.695   6.129   6.349 -0.4439  0.6995  1.1246
    3SAPS   H3R  305   1.764   6.153   6.265  0.4175  1.2676  1.9758
    3SAPS   H3S  306   1.616   6.206   6.339  2.0074  3.0686 -2.3730
    3SAPS   C24  307   1.643   5.988   6.318  0.2202  0.0353  0.3265
    3SAPS   H4R  308   1.592   5.990   6.219  0.8213 -2.8802 -0.1412
    3SAPS   H4S  309   1.568   5.967   6.396  1.3912 -2.0534  0.9805
    3SAPS   C25  310   1.732   5.866   6.320  0.4443  0.0158  0.1310
    3SAPS   H5R  311   1.777   5.856   6.420  1.7752  1.4560 -0.2845
    3SAPS   C26  312   1.760   5.785   6.217  1.1872 -0.5738  0.5956
    3SAPS   H6R  313   1.821   5.697   6.243  2.3785 -0.0862 -0.4056
    3SAPS   C27  314   1.722   5.787   6.069  0.1711 -0.5006 -1.2221
    3SAPS   H7R  315   1.784   5.864   6.019 -0.1804 -0.5682 -1.7737
    3SAPS   H7S  316   1.619   5.827   6.054  1.2918  2.2762 -2.0565
    3SAPS   C28  317   1.738   5.661   5.992 -0.1633 -0.2180  0.2602
    3SAPS   H8R  318   1.772   5.569   6.042  1.5873 -0.7615 -1.7743
    3SAPS   C29  319   1.683   5.654   5.865  0.5143  0.2219  0.7515
    3SAPS   H9R  320   1.675   5.557   5.815  2.1885  0.5800 -0.3047
    3SAPS  C210  321   1.625   5.767   5.788  0.4474  0.4134  0.3714
    3SAPS  H10R  322   1.694   5.805   5.709 -1.1231 -1.4847 -2.0475
    3SAPS  H10S  323   1.615   5.856   5.854  0.8939  0.4029  0.4591
    3SAPS  C211  324   1.487   5.748   5.725 -0.0852 -0.1146  0.4863
    3SAPS  H11R  325   1.415   5.823   5.759 -2.2337 -1.1825 -1.4420
    3SAPS  C212  326   1.456   5.680   5.609 -0.1344 -0.0427 -0.0008
    3SAPS  H12R  327   1.353   5.684   5.570 -0.3283 -0.9769  0.3799
    3SAPS  C213  328   1.553   5.585   5.538  0.4119 -0.6002 -0.1267
    3SAPS  H13R  329   1.568   5.494   5.599 -1.8075 -0.4467  0.7514
    3SAPS  H13S  330   1.651   5.634   5.515  0.7143 -1.0716  0.1567
    3SAPS  C214  331   1.507   5.529   5.409  0.0399  0.0693  0.5514
    3SAPS  H14R  332   1.436   5.446   5.404 -1.8397  1.6426 -0.3067
    3SAPS  C215  333   1.536   5.583   5.290  0.2412  0.2511  0.3352
    3SAPS  H15R  334   1.490   5.545   5.197 -0.0975  2.2269 -0.3656
    3SAPS  C216  335   1.629   5.696   5.261 -0.2853 -0.8894  0.4370
    3SAPS  H16R  336   1.723   5.665   5.313  0.5328  1.1340  0.2646
    3SAPS  H16S  337   1.604   5.797   5.300 -0.9475 -0.5998 -0.7043
    3SAPS  C217  338   1.663   5.727   5.119 -1.0388  0.0418  0.0447
    3SAPS  H17R  339   1.688   5.636   5.060  0.0092 -0.5559  1.3457
    3SAPS  H17S  340   1.757   5.786   5.114  0.0674 -1.4597  1.7022
    3SAPS  C218  341   1.562   5.816   5.047 -0.1271 -0.2458  0.1481
    3SAPS  H18R  342   1.531   5.911   5.096  0.6811  0.6369 -1.0207
    3SAPS  H18S  343   1.470   5.754   5.038 -0.2858 -0.1414  0.9838
    3SAPS  C219  344   1.622   5.858   4.911  0.0816 -0.7938 -0.5457
    3SAPS  H19R  345   1.541   5.915   4.860  0.9698 -0.2839 -1.4049
    3SAPS  H19S  346   1.709   5.922   4.932 -0.3478 -0.9198  1.9187
    3SAPS  C220  347   1.667   5.736   4.826  0.3352  0.1168 -0.5621
    3SAPS  H20R  348   1.765   5.690   4.850 -0.1995 -0.4151  0.7213
    3SAPS  H20S  349   1.670   5.772   4.721  1.4543 -2.6200 -1.5538
    3SAPS  H20T  350   1.601   5.646   4.834  2.4319 -1.5185 -0.7418
    3SAPS   C33  351   1.314   6.205   6.269  0.4513  0.2271 -0.3017
    3SAPS   H3X  352   1.397   6.133   6.259 -1.2376 -1.6337 -1.6020
    3SAPS   H3Y  353   1.352   6.306   6.298 -0.8082 -0.0586  2.7112
    3SAPS   C34  354   1.236   6.212   6.138  0.3965 -0.3186  0.5866
    3SAPS   H4X  355   1.151   6.279   6.161  1.2757  0.4501  1.7581
    3SAPS   H4Y  356   1.197   6.113   6.106  1.6347  0.2878 -3.2892
    3SAPS   C35  357   1.318   6.273   6.021  0.0957 -0.0072  0.0835
    3SAPS   H5X  358   1.252   6.253   5.934 -0.4536 -3.7838  1.1758
    3SAPS   H5Y  359   1.329   6.383   6.033 -0.2117  0.0017  0.2824
    3SAPS   C36  360   1.458   6.209   5.992 -0.3044 -0.0206  0.2166
    3SAPS   H6X  361   1.451   6.100   6.011 -0.2209  0.0830  0.8694
    3SAPS   H6Y  362   1.542   6.258   6.044 -0.1566  0.1116 -0.1453
    3SAPS   C37  363   1.514   6.205   5.847  0.3864 -0.4639 -0.5175
    3SAPS   H7X  364   1.600   6.135   5.841  0.8993 -0.1076  1.6995
    3SAPS   H7Y  365   1.541   6.307   5.811 -0.1799 -0.3125 -0.5179
    3SAPS   C38  366   1.406   6.153   5.753 -0.3805 -0.0260  1.0205
    3SAPS   H8X  367   1.319   6.221   5.739 -0.0914  0.1552 -0.0193
    3SAPS   H8Y  368   1.363   6.060   5.795  0.9471 -1.3386 -0.4090
    3SAPS   C39  369   1.472   6.134   5.613  0.2233 -0.1219 -0.3334
    3SAPS   H9X  370   1.542   6.048   5.610 -0.8689 -1.0179 -2.3035
    3SAPS   H9Y  371   1.521   6.232   5.595  1.0492 -0.1941  1.3170
    3SAPS  C310  372   1.373   6.094   5.501  0.7955  0.2906 -0.7851
    3SAPS  H10X  373   1.300   6.022   5.544  0.8737  0.9271  0.4511
    3SAPS  H10Y  374   1.424   6.033   5.424  0.2683 -0.3071 -0.6752
    3SAPS  C311  375   1.280   6.200   5.435  0.1643  0.2933 -0.4547
    3SAPS  H11X  376   1.210   6.246   5.508 -0.3164  1.4511 -1.6173
    3SAPS  H11Y  377   1.209   6.149   5.366 -4.0941  2.1607  2.0883
    3SAPS  C312  378   1.352   6.313   5.362 -0.3783  0.8276 -0.0553
    3SAPS  H12X  379   1.420   6.360   5.437  1.0191 -2.6702  1.1153
    3SAPS  H12Y  380   1.279   6.384   5.319 -0.8771  0.1203 -0.4078
    3SAPS  C313  381   1.429   6.256   5.240  0.0419  0.1260 -0.6705
    3SAPS  H13X  382   1.361   6.181   5.195  0.9515 -1.6391  0.7336
    3SAPS  H13Y  383   1.518   6.204   5.282 -0.3448 -0.2684 -0.3335
    3SAPS  C314  384   1.477   6.362   5.144 -0.1937 -0.7792 -0.5254
    3SAPS  H14X  385   1.553   6.420   5.200 -1.1544 -1.2261  1.3001
    3SAPS  H14Y  386   1.395   6.430   5.114  0.4888  0.1855 -0.2263
    3SAPS  C315  387   1.541   6.309   5.017  0.1791  0.4534 -0.6664
    3SAPS  H15X  388   1.473   6.236   4.969 -2.1280  2.7359 -1.1367
    3SAPS  H15Y  389   1.633   6.265   5.062  0.7295  1.3678 -0.8558
    3SAPS  C316  390   1.579   6.430   4.922  0.3470 -0.4340  0.2444
    3SAPS  H16X  391   1.619   6.515   4.980 -3.5323  1.9632 -0.1951
    3SAPS  H16Y  392   1.478   6.464   4.891  0.6256 -0.1180 -0.3308
    3SAPS  C317  393   1.668   6.387   4.803  0.6281 -0.5481 -0.4339
    3SAPS  H17X  394   1.605   6.319   4.743  1.0728 -1.8605  0.5477
    3SAPS  H17Y  395   1.756   6.335   4.846  0.9956 -0.5555 -1.1796
    3SAPS  C318  396   1.725   6.507   4.718 -0.6481  0.2243  0.2118
    3SAPS  H18X  397   1.645   6.533   4.647 -2.0203  1.5017  2.1117
    3SAPS  H18Y  398   1.817   6.471   4.667 -0.6624  0.9814 -0.3707
    3SAPS  H18Z  399   1.752   6.590   4.787  1.0860 -0.4058  0.3582
    4SAPS     N  400   0.530   2.464   6.513  0.6581 -0.2413  0.6439
    4SAPS   HN1  401   0.593   2.524   6.570 -0.5869  2.6213 -0.8261
    4SAPS   HN2  402   0.576   2.373   6.490  0.4541  0.1525 -1.5171
    4SAPS   HN3  403   0.527   2.522   6.427 -0.7271 -1.5300 -0.2128
    4SAPS   C12  404   0.398   2.457   6.583  0.7479  0.0173 -0.6874
    4SAPS  H12A  405   0.417   2.420   6.683 -0.8684 -1.9374 -1.0218
    4SAPS   C13  406   0.318   2.590   6.605 -0.3032  0.1859 -0.0257
    4SAPS  O13A  407   0.374   2.699   6.575  0.1735 -0.2370 -0.3045
    4SAPS  O13B  408   0.209   2.587   6.655 -0.2615 -0.0682 -0.2744
    4SAPS   C11  409   0.311   2.357   6.508  0.2430 -0.5737 -0.3284
    4SAPS  H11A  410   0.301   2.385   6.401 -0.6866  2.4201  0.4687
    4SAPS  H11B  411   0.215   2.335   6.559  1.4115 -1.8793  1.4459
    4SAPS     P  412   0.314   2.099   6.489 -0.1503  0.0765  0.4334
    4SAPS   O13  413   0.384   2.003   6.576  0.0732  0.3853 -0.1676
    4SAPS   O14  414   0.166   2.106   6.504  0.1871 -0.0722  0.1169
    4SAPS   O12  415   0.383   2.241   6.513 -0.6634  0.2251  0.1397
    4SAPS   O11  416   0.349   2.067   6.340 -0.1651  0.5053 -0.6191
    4SAPS    C1  417   0.483   2.098   6.301 -0.1191 -0.5744  0.0743
    4SAPS    HA  418   0.485   2.204   6.270  0.2860 -1.1623 -2.0894
    4SAPS    HB  419   0.554   2.081   6.385 -1.5989 -0.9017  1.3003
    4SAPS    C2  420   0.524   2.023   6.170 -1.0467  0.6069  0.0534
    4SAPS    HS  421   0.618   2.069   6.131 -0.7975  0.2838  0.2632
    4SAPS   O21  422   0.426   2.030   6.071  0.0844 -0.2331  0.7214
    4SAPS   C21  423   0.413   2.149   6.004  0.2004 -0.1641 -0.6825
    4SAPS   O22  424   0.482   2.247   6.027 -0.0064 -0.3768 -0.0604
    4SAPS   C22  425   0.313   2.134   5.891 -0.2250 -0.0316  0.2212
    4SAPS   H2R  426   0.214   2.150   5.939  1.4280 -1.4935  4.6344
    4SAPS   H2S  427   0.322   2.205   5.806 -0.6074 -0.1743  0.0562
    4SAPS    C3  428   0.539   1.867   6.204  0.5436  0.7841 -0.2731
    4SAPS    HX  429   0.451   1.838   6.265  3.7643 -0.6844  4.2355
    4SAPS    HY  430   0.617   1.873   6.283  1.3359  0.4823 -1.0130
    4SAPS   O31  431   0.582   1.781   6.098  0.4648 -0.0853 -0.1553
    4SAPS   C31  432   0.484   1.716   6.037 -0.6161  0.4048  0.2412
    4SAPS   O32  433   0.366   1.725   6.067 -0.3885  0.0147  0.3013
    4SAPS   C32  434   0.537   1.628   5.927  0.5528 -0.0515  0.1421
    4SAPS   H2X  435   0.587   1.543   5.980  1.2696  0.3983  0.2017
    4SAPS   H2Y  436   0.615   1.678   5.866 -0.1742  0.0398 -0.7451
    4SAPS   C23  437   0.309   1.991   5.830  0.2005  0.5552 -0.9293
    4SAPS   H3R  438   0.291   1.920   5.914  1.8724  0.4569 -0.6211
    4SAPS   H3S  439   0.407   1.980   5.778  0.8091  1.0479  0.0781
    4SAPS   C24  440   0.198   1.957   5.715 -0.2099 -0.1944 -0.4802
    4SAPS   H4R  441   0.099   1.977   5.761 -0.3253  0.4879 -1.0184
    4SAPS   H4S  442   0.213   1.848   5.697  2.9709  0.2755 -1.1299
    4SAPS   C25  443   0.207   2.034   5.586  0.2789  0.4174 -0.2106
    4SAPS   H5R  444   0.149   2.127   5.588 -0.6333 -0.0719 -1.7233
    4SAPS   C26  445   0.270   2.000   5.470 -0.6713  0.9893 -0.6740
    4SAPS   H6R  446   0.281   2.072   5.388  1.3930  1.8476  0.2907
    4SAPS   C27  447   0.353   1.876   5.442  0.4917  0.2664 -0.0163
    4SAPS   H7R  448   0.405   1.854   5.538  2.4517 -0.0987 -1.0993
    4SAPS   H7S  449   0.448   1.912   5.396  0.8367 -0.6055 -0.0107
    4SAPS   C28  450   0.289   1.757   5.372 -0.1404 -0.2034 -1.0881
    4SAPS   H8R  451   0.225   1.694   5.435 -1.1286  1.1942 -0.6218
    4SAPS   C29  452   0.256   1.761   5.245 -0.4119 -0.2661  0.3604
    4SAPS   H9R  453   0.199   1.676   5.204 -1.4861  0.3945  0.4370
    4SAPS  C210  454   0.318   1.856   5.139  0.2675  0.2540 -0.7294
    4SAPS  H10R  455   0.390   1.806   5.070  0.8144  0.4104 -0.2880
    4SAPS  H10S  456   0.393   1.924   5.186  1.1449 -1.8152  1.0538
    4SAPS  C211  457   0.208   1.925   5.058 -0.7735  0.1795  0.0399
    4SAPS  H11R  458   0.172   2.018   5.104  0.8016  0.3955  0.8983
    4SAPS  C212  459   0.169   1.900   4.933 -0.2707 -0.2715  0.4094
    4SAPS  H12R  460   0.079   1.955   4.902  0.7113 -0.0189 -2.2954
    4SAPS  C213  461   0.223   1.786   4.855  0.0028 -0.3019 -0.2578
    4SAPS  H13R  462   0.212   1.695   4.918  2.3440  2.1764  4.1445
    4SAPS  H13S  463   0.332   1.788   4.833  0.1354 -1.5832  0.2186
    4SAPS  C214  464   0.150   1.771   4.720 -0.1487 -0.2757 -0.7822
    4SAPS  H14R  465   0.164   1.854   4.649 -0.1392 -1.2854 -1.9975
    4SAPS  C215  466   0.092   1.660   4.673 -0.7940 -0.6330  0.0168
    4SAPS  H15R  467   0.077   1.656   4.564  0.6717  2.2746 -0.3901
    4SAPS  C216  468   0.062   1.537   4.748 -0.5783 -0.0288 -0.2092
    4SAPS  H16R  469  -0.045   1.515   4.731 -0.5041  0.0965 -0.8761
    4SAPS  H16S  470   0.082   1.545   4.857  1.4005  1.9327 -0.6298
    4SAPS  C217  471   0.160   1.424   4.702  0.0936  0.1699 -0.0268
    4SAPS  H17R  472   0.157   1.400   4.594 -0.0754 -1.4703  0.3108
    4SAPS  H17S  473   0.130   1.323   4.736  0.1793  0.2368  0.2516
    4SAPS  C218  474   0.313   1.446   4.744  0.1964  0.2914  0.1527
    4SAPS  H18R  475   0.317   1.445   4.855 -0.2648  1.6840  0.2078
    4SAPS  H18S  476   0.336   1.551   4.716 -1.4446  0.3285 -1.2144
    4SAPS  C219  477   0.405   1.351   4.681  0.0753  0.4888  0.1619
    4SAPS  H19R  478   0.425   1.387   4.578 -0.0142  0.8937  0.2841
    4SAPS  H19S  479   0.363   1.250   4.659  1.3797  0.1942 -1.1298
    4SAPS  C220  480   0.536   1.349   4.759  0.2842  0.3867  0.1936
    4SAPS  H20R  481   0.556   1.451   4.798 -0.3090  1.0669 -1.2320
    4SAPS  H20S  482   0.625   1.324   4.697 -0.1743 -2.5799  0.5725
    4SAPS  H20T  483   0.526   1.282   4.847  3.3592  0.4037  0.6878
    4SAPS   C33  484   0.422   1.582   5.836  0.4715 -0.1190  0.2361
    4SAPS   H3X  485   0.369   1.666   5.787 -0.8974  1.1696  3.5970
    4SAPS   H3Y  486   0.343   1.543   5.904 -0.4124  0.4163 -0.4594
    4SAPS   C34  487   0.451   1.470   5.737 -0.1825  0.2271  0.5603
    4SAPS   H4X  488   0.353   1.423   5.712 -0.3284  0.8562 -0.0995
    4SAPS   H4Y  489   0.522   1.396   5.779  1.1180  1.7042  1.0631
    4SAPS   C35  490   0.516   1.525   5.610 -0.2622 -0.7458  0.7131
    4SAPS   H5X  491   0.606   1.576   5.649 -1.5948 -0.1776  3.3068
    4SAPS   H5Y  492   0.449   1.598   5.559  0.1287 -1.0890 -0.3206
    4SAPS   C36  493   0.555   1.416   5.510 -0.2017 -0.6668 -0.4052
    4SAPS   H6X  494   0.461   1.363   5.482  0.1285 -1.0440 -0.8211
    4SAPS   H6Y  495   0.633   1.352   5.556  0.8964  0.6318 -0.3747
    4SAPS   C37  496   0.606   1.475   5.377 -0.2764 -0.0487 -0.2422
    4SAPS   H7X  497   0.693   1.541   5.395 -0.3459  1.2431 -3.8626
    4SAPS   H7Y  498   0.533   1.545   5.332  0.3063  1.4236  1.0285
    4SAPS   C38  499   0.651   1.365   5.273  0.8549 -0.2235 -0.1971
    4SAPS   H8X  500   0.572   1.344   5.198 -0.3033  0.7529  0.7106
    4SAPS   H8Y  501   0.673   1.270   5.327  2.9517  0.8561  0.9902
    4SAPS   C39  502   0.782   1.394   5.210  0.1976  0.1369  0.7609
    4SAPS   H9X  503   0.863   1.404   5.285  1.0974 -0.5807 -0.0782
    4SAPS   H9Y  504   0.761   1.489   5.156 -0.3776 -0.0786  0.5919
    4SAPS  C310  505   0.832   1.286   5.111  0.6945 -0.6994  0.4389
    4SAPS  H10X  506   0.750   1.299   5.037 -1.0570  0.8013  2.5175
    4SAPS  H10Y  507   0.833   1.187   5.159  0.8862 -0.7293  0.3760
    4SAPS  C311  508   0.963   1.321   5.052 -0.1317  0.5741  0.0493
    4SAPS  H11X  509   1.000   1.231   4.999  2.7888  0.5377  1.9714
    4SAPS  H11Y  510   1.020   1.333   5.146  1.0199  0.3917 -0.6047
    4SAPS  C312  511   0.984   1.444   4.965  0.3019 -0.5987  0.4341
    4SAPS  H12X  512   0.991   1.527   5.038 -2.4706  0.1686 -0.0407
    4SAPS  H12Y  513   0.891   1.463   4.906 -0.0842 -0.5282  1.0519
    4SAPS  C313  514   1.105   1.419   4.874  0.5953 -0.2447  0.0988
    4SAPS  H13X  515   1.064   1.344   4.804 -1.2997 -0.5155  1.4501
    4SAPS  H13Y  516   1.197   1.392   4.931  0.0638  2.5729  2.5787
    4SAPS  C314  517   1.143   1.554   4.795  0.7277  0.3222  0.3880
    4SAPS  H14X  518   1.141   1.648   4.854 -2.3952  1.2572 -0.9833
    4SAPS  H14Y  519   1.058   1.577   4.727 -0.8290 -1.1474  1.7639
    4SAPS  C315  520   1.270   1.548   4.708 -0.0431  0.2977 -0.7010
    4SAPS  H15X  521   1.264   1.472   4.626 -1.8645 -1.7398  1.1918
    4SAPS  H15Y  522   1.359   1.528   4.771  1.5643  1.4862 -2.4721
    4SAPS  C316  523   1.294   1.686   4.642  0.5423 -0.5620  0.5235
    4SAPS  H16X  524   1.311   1.763   4.720  1.3073 -2.8023  2.7105
    4SAPS  H16Y  525   1.213   1.708   4.570  0.4308  0.2173  0.8756
    4SAPS  C317  526   1.430   1.692   4.582  0.7000  0.1482  0.5275
    4SAPS  H17X  527   1.513   1.656   4.646  2.9284  3.0489 -0.4806
    4SAPS  H17Y  528   1.456   1.797   4.554 -0.4771 -0.0370 -1.3841
    4SAPS  C318  529   1.433   1.611   4.452 -0.0599 -0.2019  0.0156
    4SAPS  H18X  530   1.534   1.619   4.405 -0.5991 -0.4111 -1.2387
    4SAPS  H18Y  531   1.371   1.655   4.371 -1.7895 -0.6522  1.0622
    4SAPS  H18Z  532   1.389   1.509   4.455 -0.1136 -0.1991 -0.5512
    5SAPS     N  533   1.024   4.162   7.064 -0.7027 -0.1680  0.2795
    5SAPS   HN1  534   0.930   4.198   7.089 -1.2364  0.0036 -1.8457
    5SAPS   HN2  535   1.006   4.065   7.030 -1.6065 -0.2820  1.0481
    5SAPS   HN3  536   1.067   4.157   7.159  0.0449  0.9277  0.0160
    5SAPS   C12  537   1.109   4.239   6.975 -0.0202 -0.0959  0.2856
    5SAPS  H12A  538   1.053   4.242   6.883 -0.7037  1.0312  0.7096
    5SAPS   C13  539   1.147   4.381   7.019 -0.2771 -0.2370  0.7103
    5SAPS  O13A  540   1.126   4.429   7.129  0.5044 -0.1689 -0.7053
    5SAPS  O13B  541   1.199   4.451   6.922 -0.4434  0.4859 -0.0827
    5SAPS   C11  542   1.237   4.162   6.939 -0.8079  0.2812 -0.2738
    5SAPS  H11A  543   1.299   4.139   7.029 -0.8506 -2.3548 -0.8253
    5SAPS  H11B  544   1.298   4.216   6.864 -0.6946 -2.0158 -1.9648
    5SAPS     P  545   1.309   3.936   6.836  0.0159 -0.1048  0.2198
    5SAPS   O13  546   1.430   3.948   6.916 -0.5645 -0.6094 -0.1406
    5SAPS   O14  547   1.264   3.800   6.815 -0.1513  0.6873  0.1429
    5SAPS   O12  548   1.192   4.039   6.886  0.0084  0.4180 -0.1516
    5SAPS   O11  549   1.324   4.001   6.694  0.0950 -0.2977  0.5714
    5SAPS    C1  550   1.214   4.033   6.605 -0.5463  0.6479  0.3205
    5SAPS    HA  551   1.173   3.942   6.557  0.3030 -0.1611  1.0969
    5SAPS    HB  552   1.131   4.080   6.664 -0.3709  0.6270  0.5840
    5SAPS    C2  553   1.253   4.134   6.496 -1.5645 -1.2416  1.2484
    5SAPS    HS  554   1.163   4.194   6.472 -1.8144 -0.6659  3.4454
    5SAPS   O21  555   1.292   4.061   6.374 -0.2606 -0.2863 -0.3527
    5SAPS   C21  556   1.202   4.011   6.304  0.5748  0.4796  0.3294
    5SAPS   O22  557   1.083   4.034   6.323  0.0523  0.3101 -0.4960
    5SAPS   C22  558   1.262   3.919   6.197 -0.0504 -0.6248 -0.1171
    5SAPS   H2R  559   1.340   3.850   6.238  1.4163 -0.2904 -2.1998
    5SAPS   H2S  560   1.177   3.859   6.160 -0.7412 -0.1991  0.7542
    5SAPS    C3  561   1.364   4.239   6.545  0.2815 -0.0683  0.2918
    5SAPS    HX  562   1.449   4.178   6.582 -0.0518 -0.2023  0.8439
    5SAPS    HY  563   1.327   4.291   6.636 -3.8310 -0.6825 -0.8422
    5SAPS   O31  564   1.395   4.337   6.440  0.4567 -0.0433 -0.2215
    5SAPS   C31  565   1.499   4.313   6.362  0.7993  0.6476  0.0904
    5SAPS   O32  566   1.560   4.203   6.360  0.0851 -0.7378 -0.0808
    5SAPS   C32  567   1.527   4.434   6.270  0.2127 -0.4040 -0.0386
    5SAPS   H2X  568   1.637   4.449   6.277  0.0247  2.3384 -1.6196
    5SAPS   H2Y  569   1.485   4.527   6.314  2.5929 -0.9122  3.8216
    5SAPS   C23  570   1.338   3.996   6.080  0.5611  0.1997 -1.2380
    5SAPS   H3R  571   1.423   4.052   6.123 -0.9921  1.3885  0.4371
    5SAPS   H3S  572   1.269   4.064   6.024  0.9364  0.6678 -1.1338
    5SAPS   C24  573   1.386   3.893   5.976  0.5213 -0.2019  0.5378
    5SAPS   H4R  574   1.323   3.801   5.982  0.8497 -0.3263  2.9436
    5SAPS   H4S  575   1.489   3.865   6.007  0.9263 -0.4441 -0.9511
    5SAPS   C25  576   1.384   3.934   5.830 -0.2713  0.1010  0.5086
    5SAPS   H5R  577   1.471   4.000   5.813  0.5873 -1.0377  0.3860
    5SAPS   C26  578   1.300   3.891   5.732 -0.1915  0.4556  0.0140
    5SAPS   H6R  579   1.318   3.934   5.632  1.5724  0.1948  0.1891
    5SAPS   C27  580   1.193   3.788   5.732 -0.1405 -0.0487 -0.1141
    5SAPS   H7R  581   1.155   3.765   5.834 -0.2756 -0.1489 -0.1867
    5SAPS   H7S  582   1.229   3.695   5.682 -0.1901  0.5293 -1.2658
    5SAPS   C28  583   1.086   3.830   5.633 -0.8361 -0.3229  0.5870
    5SAPS   H8R  584   1.076   3.767   5.543  0.1314 -0.4060  0.5318
    5SAPS   C29  585   1.003   3.937   5.647 -0.0324 -0.0179 -0.0210
    5SAPS   H9R  586   0.929   3.948   5.566  0.7523 -0.3369 -0.7890
    5SAPS  C210  587   1.006   4.043   5.759  0.3969 -0.1516  0.1320
    5SAPS  H10R  588   1.039   4.139   5.713 -0.6391  0.4530  0.6097
    5SAPS  H10S  589   1.082   4.014   5.835  1.4150  2.3405  0.1756
    5SAPS  C211  590   0.883   4.061   5.836  0.4254 -0.0771  0.1299
    5SAPS  H11R  591   0.892   4.067   5.946  0.9325  1.7819  0.0328
    5SAPS  C212  592   0.752   4.069   5.795 -0.7341 -0.7977 -1.1878
    5SAPS  H12R  593   0.673   4.095   5.866 -3.1825 -2.1236 -3.2305
    5SAPS  C213  594   0.705   4.079   5.650 -0.1506 -0.3026  0.5280
    5SAPS  H13R  595   0.783   4.122   5.583 -1.3619 -0.4323 -1.0441
    5SAPS  H13S  596   0.611   4.137   5.645 -0.1951 -0.2324  1.9702
    5SAPS  C214  597   0.670   3.940   5.605  0.8452 -0.1527 -0.2843
    5SAPS  H14R  598   0.692   3.854   5.670  1.5394 -0.3717 -0.8037
    5SAPS  C215  599   0.623   3.909   5.484  0.7887  0.1903 -0.3544
    5SAPS  H15R  600   0.583   3.809   5.464  1.3652  0.0186 -0.6914
    5SAPS  C216  601   0.604   4.005   5.373  0.0335 -0.3385 -0.2159
    5SAPS  H16R  602   0.595   4.107   5.416  0.0489 -0.8715  1.0883
    5SAPS  H16S  603   0.507   3.981   5.324 -0.1467 -1.5222  0.6725
    5SAPS  C217  604   0.702   4.008   5.253  0.5913  0.5047  0.0067
    5SAPS  H17R  605   0.668   4.093   5.191  0.6815 -1.1263 -2.4256
    5SAPS  H17S  606   0.677   3.914   5.198  2.6309 -0.3322  0.4122
    5SAPS  C218  607   0.855   4.013   5.281  0.1861  0.2233 -0.2892
    5SAPS  H18R  608   0.897   3.926   5.336  2.0033  1.5989  0.6429
    5SAPS  H18S  609   0.882   4.093   5.354  0.1129 -0.2269  0.2441
    5SAPS  C219  610   0.932   4.033   5.152  0.2815 -0.3407 -0.2021
    5SAPS  H19R  611   0.908   4.136   5.117 -1.7497 -0.5033  0.5940
    5SAPS  H19S  612   0.881   3.960   5.085 -1.4894 -1.0058  1.7772
    5SAPS  C220  613   1.085   4.026   5.153 -0.1156  0.3967 -0.3368
    5SAPS  H20R  614   1.128   3.927   5.178  0.8734  1.1256  1.0108
    5SAPS  H20S  615   1.140   4.108   5.204  0.8522  0.7756 -1.8818
    5SAPS  H20T  616   1.114   4.056   5.049  2.0704 -0.5170 -0.0547
    5SAPS   C33  617   1.479   4.413   6.124 -0.3028 -0.2806  0.4493
    5SAPS   H3X  618   1.464   4.514   6.079 -2.8416 -0.1955  1.3704
    5SAPS   H3Y  619   1.387   4.353   6.139  0.3134 -0.8512  2.3607
    5SAPS   C34  620   1.574   4.339   6.030  0.6497 -0.5340 -0.1839
    5SAPS   H4X  621   1.606   4.238   6.064 -1.3930 -1.1817 -0.0633
    5SAPS   H4Y  622   1.665   4.403   6.023  0.2074 -0.0689 -2.2610
    5SAPS   C35  623   1.519   4.322   5.885  0.0359 -0.0038  0.4492
    5SAPS   H5X  624   1.497   4.425   5.850  0.2901 -0.4596 -1.1151
    5SAPS   H5Y  625   1.425   4.263   5.881  0.5853 -0.8250 -2.3194
    5SAPS   C36  626   1.608   4.257   5.778 -0.4730  0.4265  0.1619
    5SAPS   H6X  627   1.627   4.150   5.802  0.4294  0.4473 -0.4210
    5SAPS   H6Y  628   1.706   4.310   5.779  0.1339 -0.3766 -3.2104
    5SAPS   C37  629   1.550   4.269   5.635  0.0609  0.4256 -0.2442
    5SAPS   H7X  630   1.517   4.372   5.611 -1.2210  0.3975  1.2616
    5SAPS   H7Y  631   1.457   4.209   5.635  1.5951 -2.1356 -0.7943
    5SAPS   C38  632   1.652   4.202   5.534  0.6281  0.4161  0.4512
    5SAPS   H8X  633   1.691   4.103   5.568 -2.6254 -1.8499 -1.7972
    5SAPS   H8Y  634   1.746   4.260   5.518  0.5676  0.7867  1.4094
    5SAPS   C39  635   1.583   4.168   5.398 -0.3732  0.0172 -0.1460
    5SAPS   H9X  636   1.474   4.147   5.400 -0.3509 -0.0839  0.9878
    5SAPS   H9Y  637   1.634   4.080   5.354 -1.9137 -2.7333  3.0802
    5SAPS  C310  638   1.591   4.288   5.308  0.0363  0.4469  0.2579
    5SAPS  H10X  639   1.693   4.332   5.312  1.4458 -2.3297 -1.6189
    5SAPS  H10Y  640   1.538   4.371   5.359 -0.7046  0.0192  0.1899
    5SAPS  C311  641   1.574   4.262   5.160 -0.0630  0.5446  0.5574
    5SAPS  H11X  642   1.633   4.171   5.135 -1.4760 -0.5068  0.8651
    5SAPS  H11Y  643   1.613   4.344   5.097  0.1865  0.6571  0.8602
    5SAPS  C312  644   1.427   4.229   5.117  0.3869 -0.3332 -0.1619
    5SAPS  H12X  645   1.364   4.314   5.151  1.5460 -0.4183  2.4438
    5SAPS  H12Y  646   1.403   4.142   5.181 -0.2728  0.6844  1.0238
    5SAPS  C313  647   1.407   4.210   4.968  0.0996 -0.2384 -0.2058
    5SAPS  H13X  648   1.298   4.223   4.957  0.0386 -0.2147  0.3816
    5SAPS  H13Y  649   1.457   4.118   4.931  1.8686  0.4249  0.4028
    5SAPS  C314  650   1.478   4.317   4.886  0.6981 -0.1913  0.7401
    5SAPS  H14X  651   1.588   4.302   4.880  0.5135 -2.2173  1.5239
    5SAPS  H14Y  652   1.464   4.415   4.935  0.8460  0.7997 -1.1065
    5SAPS  C315  653   1.426   4.327   4.735 -0.1001  0.5567 -0.1377
    5SAPS  H15X  654   1.448   4.428   4.693 -0.3988 -0.1931 -2.2252
    5SAPS  H15Y  655   1.315   4.321   4.745 -0.1063 -0.6900 -0.7613
    5SAPS  C316  656   1.472   4.206   4.646  0.1097 -0.0393 -0.4475
    5SAPS  H16X  657   1.426   4.111   4.681 -2.6077  1.1329 -0.6073
    5SAPS  H16Y  658   1.582   4.195   4.657 -0.0461 -1.5945 -0.2025
    5SAPS  C317  659   1.440   4.209   4.496  0.6087 -1.0107  0.5406
    5SAPS  H17X  660   1.494   4.293   4.446 -1.1599 -1.5383 -2.5734
    5SAPS  H17Y  661   1.333   4.233   4.479  0.1683 -1.4283  2.5096
    5SAPS  C318  662   1.475   4.079   4.419 -0.2660  0.1039 -0.7271
    5SAPS  H18X  663   1.421   3.995   4.467  1.2017  0.5911  1.9683
    5SAPS  H18Y  664   1.583   4.055   4.428 -1.2627 -4.8010  2.2634
    5SAPS  H18Z  665   1.444   4.086   4.313  1.3003  0.5727 -1.1779
    6SAPS     N  666   5.082   6.230   6.734  0.1225  0.0974  0.6236
    6SAPS   HN1  667   5.093   6.252   6.633 -1.6434 -0.6704  0.2327
    6SAPS   HN2  668   4.981   6.228   6.760  0.1216 -1.6598  0.5641
    6SAPS   HN3  669   5.120   6.313   6.785 -1.0327  2.2553 -1.8004
    6SAPS   C12  670   5.143   6.111   6.789 -0.1445 -0.1778  0.2492
    6SAPS  H12A  671   5.248   6.137   6.792 -0.5349  1.4652  2.4415
    6SAPS   C13  672   5.095   6.098   6.943 -0.2485 -0.6488  0.2628
    6SAPS  O13A  673   5.015   6.183   7.002 -0.6563 -0.6070  1.0112
    6SAPS  O13B  674   5.170   6.025   7.012 -0.1611 -0.7018 -0.0804
    6SAPS   C11  675   5.110   5.971   6.713 -1.1390  0.2888 -0.2582
    6SAPS  H11A  676   5.000   5.972   6.697 -1.1992  0.3086  0.1507
    6SAPS  H11B  677   5.141   5.886   6.778 -1.0812 -0.9947 -1.9123
    6SAPS     P  678   5.242   5.843   6.530  0.4096 -0.4009  0.0019
    6SAPS   O13  679   5.379   5.836   6.589 -0.2615 -0.1011  0.7021
    6SAPS   O14  680   5.151   5.729   6.555  0.1921  0.4248 -0.3521
    6SAPS   O12  681   5.174   5.974   6.584 -0.6876  0.1283  0.0762
    6SAPS   O11  682   5.262   5.873   6.377  0.1344  0.4782 -0.3012
    6SAPS    C1  683   5.348   5.988   6.346 -0.1442 -1.0955 -0.0078
    6SAPS    HA  684   5.309   6.082   6.389 -0.0906 -0.7069 -0.7874
    6SAPS    HB  685   5.449   5.968   6.389 -1.2416  1.5003  4.3609
    6SAPS    C2  686   5.370   5.999   6.193 -0.3718  0.0447 -0.0224
    6SAPS    HS  687   5.269   6.007   6.147  0.4561  0.0411 -1.9129
    6SAPS   O21  688   5.439   5.869   6.153 -0.2778 -0.4534 -0.2039
    6SAPS   C21  689   5.410   5.837   6.022 -0.1618 -0.1363 -0.8019
    6SAPS   O22  690   5.335   5.894   5.953 -0.2185 -0.3888 -0.2217
    6SAPS   C22  691   5.478   5.701   5.996  0.0164 -0.1475 -0.0850
    6SAPS   H2R  692   5.527   5.706   5.896  0.4445 -1.8400  0.0077
    6SAPS   H2S  693   5.557   5.682   6.071 -1.0219  0.7597  1.2922
    6SAPS    C3  694   5.453   6.129   6.154 -0.2339  0.2751 -0.7577
    6SAPS    HX  695   5.555   6.100   6.188 -0.4149 -0.9824 -1.2161
    6SAPS    HY  696   5.412   6.207   6.222 -0.3663 -0.8041  0.4588
    6SAPS   O31  697   5.461   6.159   6.017  0.1269 -0.5269  0.4166
    6SAPS   C31  698   5.355   6.195   5.956  0.2896 -0.0999 -0.3373
    6SAPS   O32  699   5.242   6.212   6.008  0.1592  0.5218  0.2491
    6SAPS   C32  700   5.387   6.225   5.811 -0.7626 -0.2486 -0.4311
    6SAPS   H2X  701   5.489   6.186   5.789  0.0312 -0.4349  3.0225
    6SAPS   H2Y  702   5.376   6.335   5.800  0.1668 -0.2462 -1.6672
    6SAPS   C23  703   5.383   5.585   5.982 -0.0209  0.3304 -0.5965
    6SAPS   H3R  704   5.287   5.601   6.036 -0.1183  0.3042 -0.7601
    6SAPS   H3S  705   5.424   5.502   6.043  0.3550  3.2859  3.6191
    6SAPS   C24  706   5.350   5.543   5.841  0.3442 -0.5582 -0.5132
    6SAPS   H4R  707   5.294   5.447   5.840 -0.0205 -0.3561  0.0436
    6SAPS   H4S  708   5.449   5.522   5.796 -0.7298 -1.9121 -2.4033
    6SAPS   C25  709   5.276   5.653   5.766 -1.2634 -0.6068  1.0038
    6SAPS   H5R  710   5.188   5.691   5.820  0.7663  1.1942  3.3071
    6SAPS   C26  711   5.318   5.712   5.649 -0.0556  0.5758 -0.5373
    6SAPS   H6R  712   5.259   5.795   5.609 -3.9276 -1.7065 -0.0539
    6SAPS   C27  713   5.455   5.684   5.588 -0.0985  0.8479 -0.0132
    6SAPS   H7R  714   5.446   5.577   5.560  1.5868  0.6305  0.2047
    6SAPS   H7S  715   5.537   5.701   5.661  0.9367 -1.1501 -0.6328
    6SAPS   C28  716   5.499   5.769   5.472  0.3256  0.2104  0.7623
    6SAPS   H8R  717   5.570   5.852   5.485 -0.3531  0.9090  0.1164
    6SAPS   C29  718   5.459   5.749   5.343 -0.8998 -0.1340 -0.0723
    6SAPS   H9R  719   5.487   5.813   5.258  0.5767 -1.4919 -0.6505
    6SAPS  C210  720   5.365   5.636   5.293  0.2738 -0.7196 -0.3389
    6SAPS  H10R  721   5.295   5.687   5.224  0.9745  0.0698 -0.4942
    6SAPS  H10S  722   5.306   5.593   5.377  1.2879  0.0446  0.8117
    6SAPS  C211  723   5.444   5.529   5.224  0.3644  0.2505  1.3167
    6SAPS  H11R  724   5.533   5.488   5.275  1.0959  0.4106  0.2179
    6SAPS  C212  725   5.442   5.505   5.086 -0.7652 -0.6439 -0.7332
    6SAPS  H12R  726   5.526   5.443   5.051  2.3434  3.2142 -0.7068
    6SAPS  C213  727   5.340   5.540   4.981 -0.3097 -0.6241  0.1117
    6SAPS  H13R  728   5.328   5.650   4.978 -0.8432 -0.5745  2.3781
    6SAPS  H13S  729   5.238   5.504   5.008 -0.2267 -2.2544 -1.4889
    6SAPS  C214  730   5.369   5.491   4.838  0.6546  0.3918  0.6545
    6SAPS  H14R  731   5.423   5.395   4.825  0.7953  0.8543 -4.2140
    6SAPS  C215  732   5.328   5.557   4.730 -0.2252 -0.1853 -0.2435
    6SAPS  H15R  733   5.349   5.521   4.628 -0.8154 -0.1795 -0.3706
    6SAPS  C216  734   5.247   5.688   4.739 -0.7076  0.4105  0.1798
    6SAPS  H16R  735   5.305   5.779   4.766 -0.1963  0.3005 -0.5115
    6SAPS  H16S  736   5.163   5.688   4.811 -1.6860  0.4431 -0.9281
    6SAPS  C217  737   5.176   5.717   4.608 -0.1222  0.5619 -0.2597
    6SAPS  H17R  738   5.110   5.802   4.637 -0.2157 -0.7142  3.9319
    6SAPS  H17S  739   5.118   5.632   4.566  0.2645 -0.7534  1.7063
    6SAPS  C218  740   5.269   5.766   4.499 -1.0094 -0.2682 -0.1895
    6SAPS  H18R  741   5.345   5.685   4.494 -1.4325 -0.6112 -1.3123
    6SAPS  H18S  742   5.333   5.851   4.528  0.6429 -0.9456 -1.7158
    6SAPS  C219  743   5.197   5.783   4.366 -0.5408 -0.4275 -0.1767
    6SAPS  H19R  744   5.245   5.875   4.327  0.0662 -1.1358 -1.1339
    6SAPS  H19S  745   5.089   5.802   4.385 -0.1740  1.4526  0.2050
    6SAPS  C220  746   5.216   5.665   4.271  0.2527  0.6014  0.3200
    6SAPS  H20R  747   5.161   5.685   4.176  1.3424  4.5941  0.3453
    6SAPS  H20S  748   5.196   5.568   4.322 -1.1029  1.2220  1.0043
    6SAPS  H20T  749   5.322   5.650   4.241 -0.2042 -0.3718 -0.8916
    6SAPS   C33  750   5.294   6.149   5.718  0.1339  0.2545 -0.6884
    6SAPS   H3X  751   5.184   6.159   5.726  0.1216 -0.3311 -0.1150
    6SAPS   H3Y  752   5.309   6.040   5.735  2.1721  0.2551 -2.0009
    6SAPS   C34  753   5.323   6.165   5.566  0.3182  0.1827 -0.5914
    6SAPS   H4X  754   5.423   6.127   5.535  0.5391 -0.0190  0.3498
    6SAPS   H4Y  755   5.319   6.270   5.529  1.5106  0.2202 -0.6645
    6SAPS   C35  756   5.222   6.085   5.478 -0.2957 -0.2102 -0.1935
    6SAPS   H5X  757   5.121   6.117   5.510 -0.5085 -2.2857  1.4353
    6SAPS   H5Y  758   5.235   5.975   5.492 -1.8675 -0.5368 -1.0849
    6SAPS   C36  759   5.238   6.129   5.331 -0.1737  0.5161 -0.0336
    6SAPS   H6X  760   5.343   6.138   5.295 -0.6208  1.5570 -1.1172
    6SAPS   H6Y  761   5.198   6.232   5.322  1.1446  0.8751 -2.5913
    6SAPS   C37  762   5.166   6.034   5.238 -0.0313 -0.1474 -0.4835
    6SAPS   H7X  763   5.078   5.998   5.296 -0.1297  0.5289 -0.1970
    6SAPS   H7Y  764   5.232   5.945   5.238  1.1409  0.6958  0.4698
    6SAPS   C38  765   5.144   6.083   5.091 -0.2851  0.3016 -0.1960
    6SAPS   H8X  766   5.139   6.193   5.082  1.1253  0.2238 -3.4864
    6SAPS   H8Y  767   5.043   6.047   5.062  0.8195 -2.5525 -0.8832
    6SAPS   C39  768   5.262   6.038   5.007  0.1617  0.2287  0.4250
    6SAPS   H9X  769   5.251   5.932   4.976  1.8524 -0.0845  0.7938
    6SAPS   H9Y  770   5.356   6.045   5.066  0.2993 -1.1372  0.4027
    6SAPS  C310  771   5.286   6.124   4.884 -0.1423  0.1024  0.6028
    6SAPS  H10X  772   5.372   6.085   4.825 -0.1396  0.3425  0.4483
    6SAPS  H10Y  773   5.308   6.230   4.910  3.6913 -0.8724  2.0934
    6SAPS  C311  774   5.169   6.129   4.788  0.5135  0.4683 -0.4606
    6SAPS  H11X  775   5.085   6.176   4.842 -0.9997 -2.1253 -0.3589
    6SAPS  H11Y  776   5.151   6.025   4.753  2.0297  0.6905 -2.0631
    6SAPS  C312  777   5.209   6.208   4.663  0.0866  0.0737  0.2304
    6SAPS  H12X  778   5.303   6.171   4.617 -0.2788 -0.4402 -0.1236
    6SAPS  H12Y  779   5.226   6.314   4.690  2.6803  0.0499 -1.0241
    6SAPS  C313  780   5.103   6.209   4.554 -0.9251 -0.8806  0.4987
    6SAPS  H13X  781   5.010   6.247   4.601 -0.2441  1.1630  0.2775
    6SAPS  H13Y  782   5.080   6.103   4.527  1.2020 -1.4151  0.6395
    6SAPS  C314  783   5.140   6.296   4.429  0.3628  0.8629 -0.7190
    6SAPS  H14X  784   5.222   6.253   4.367  0.6612 -0.8438  0.7796
    6SAPS  H14Y  785   5.163   6.399   4.462 -4.9517  2.2169 -0.3750
    6SAPS  C315  786   5.005   6.332   4.366  0.0856 -0.3115 -0.2898
    6SAPS  H15X  787   4.939   6.380   4.442  1.4068  0.4548  0.4008
    6SAPS  H15Y  788   4.957   6.242   4.321 -0.8314  1.7087 -3.7777
    6SAPS  C316  789   5.011   6.439   4.264 -0.2272  0.0837  0.2359
    6SAPS  H16X  790   5.078   6.414   4.179 -1.5805  0.4633 -0.9798
    6SAPS  H16Y  791   5.061   6.529   4.305 -0.2083 -0.8964  2.4939
    6SAPS  C317  792   4.880   6.489   4.192  0.6369  1.0626 -0.0442
    6SAPS  H17X  793   4.835   6.397   4.148 -0.9229 -0.3140  3.9625
    6SAPS  H17Y  794   4.913   6.561   4.114  1.0831  0.4551 -0.4303
    6SAPS  C318  795   4.781   6.557   4.288 -0.5745  0.0819  0.3704
    6SAPS  H18X  796   4.753   6.491   4.373  0.7633 -1.9223 -0.6895
    6SAPS  H18Y  797   4.694   6.600   4.234 -1.0991  0.2375  1.3124
    6SAPS  H18Z  798   4.831   6.644   4.335 -1.4932  1.4280 -1.0321
    7SAPS     N  799   6.255   6.581   6.672 -0.4539 -0.6336 -0.6115
    7SAPS   HN1  800   6.292   6.488   6.641 -0.1863 -0.7987  0.1860
    7SAPS   HN2  801   6.152   6.573   6.664 -0.4139 -0.9141 -0.8573
    7SAPS   HN3  802   6.295   6.659   6.617 -0.8273 -1.0775 -1.5385
    7SAPS   C12  803   6.281   6.597   6.817  0.0383 -0.4261  0.1112
    7SAPS  H12A  804   6.219   6.677   6.854 -1.3696 -1.4926  0.1565
    7SAPS   C13  805   6.250   6.475   6.911 -0.2732  0.3169  0.0223
    7SAPS  O13A  806   6.254   6.359   6.872 -0.0104  0.2083  0.6354
    7SAPS  O13B  807   6.263   6.502   7.035 -0.0709 -0.2171  0.3907
    7SAPS   C11  808   6.433   6.638   6.835  0.6544  0.3118 -0.4143
    7SAPS  H11A  809   6.494   6.552   6.799 -0.5990 -0.5780 -0.4742
    7SAPS  H11B  810   6.439   6.660   6.944  0.2158 -0.3245 -0.2568
    7SAPS     P  811   6.621   6.799   6.752  0.0383 -0.0383  0.1003
    7SAPS   O13  812   6.638   6.937   6.800  0.0487  0.3350  0.0538
    7SAPS   O14  813   6.698   6.693   6.827  0.5436 -0.6883 -0.4897
    7SAPS   O12  814   6.467   6.757   6.758  0.3553 -0.7100 -0.1019
    7SAPS   O11  815   6.660   6.779   6.609  0.0253  0.3007  0.2521
    7SAPS    C1  816   6.593   6.853   6.507 -0.2379 -0.2974  0.8194
    7SAPS    HA  817   6.483   6.836   6.506 -0.3477  0.3952  0.7044
    7SAPS    HB  818   6.617   6.961   6.516  0.2032 -0.3042 -0.1363
    7SAPS    C2  819   6.651   6.812   6.365  0.5473  0.2891 -0.3246
    7SAPS    HS  820   6.603   6.882   6.293 -0.8182 -1.4401 -1.1703
    7SAPS   O21  821   6.599   6.681   6.320  0.0501 -0.6538  0.4418
    7SAPS   C21  822   6.601   6.663   6.185 -0.1666  0.3140  0.4893
    7SAPS   O22  823   6.616   6.743   6.095 -0.2414 -0.8681  0.4431
    7SAPS   C22  824   6.574   6.511   6.173 -0.3665 -0.6359 -0.4808
    7SAPS   H2R  825   6.655   6.469   6.237 -0.0575  2.6383  1.5510
    7SAPS   H2S  826   6.474   6.488   6.215 -0.0348 -0.6665  0.3122
    7SAPS    C3  827   6.807   6.815   6.366 -0.5938  0.3332  0.6165
    7SAPS    HX  828   6.857   6.734   6.423 -1.7192 -0.2305  0.8313
    7SAPS    HY  829   6.846   6.907   6.413 -0.8117  0.3271  0.8140
    7SAPS   O31  830   6.859   6.826   6.240 -0.6748 -0.3353  0.0201
    7SAPS   C31  831   6.913   6.717   6.182 -0.0723 -0.1835 -0.0998
    7SAPS   O32  832   6.920   6.608   6.230  0.3573 -0.2082 -0.4759
    7SAPS   C32  833   6.976   6.760   6.046  0.0841 -0.1123  0.0598
    7SAPS   H2X  834   7.023   6.861   6.051  0.6458 -0.3611 -0.1050
    7SAPS   H2Y  835   6.897   6.764   5.968 -0.3202  2.8719  0.4885
    7SAPS   C23  836   6.577   6.468   6.023 -0.1583  0.1187  0.4742
    7SAPS   H3R  837   6.652   6.515   5.956  0.2570 -2.1773 -0.8069
    7SAPS   H3S  838   6.485   6.498   5.968 -0.0125  0.0442  0.1882
    7SAPS   C24  839   6.590   6.312   5.996 -0.6259 -0.5461  0.1166
    7SAPS   H4R  840   6.692   6.281   6.027 -1.2917 -1.8823  1.0892
    7SAPS   H4S  841   6.581   6.298   5.886 -1.0655 -0.4463  0.1379
    7SAPS   C25  842   6.489   6.230   6.072  0.3456 -0.1315 -0.3115
    7SAPS   H5R  843   6.518   6.200   6.174 -1.0048  2.0905  0.8126
    7SAPS   C26  844   6.370   6.192   6.022 -0.6498  0.3540  0.8889
    7SAPS   H6R  845   6.307   6.122   6.078 -0.8272  0.6678  1.0891
    7SAPS   C27  846   6.319   6.232   5.879  0.5521  0.1919 -0.0158
    7SAPS   H7R  847   6.348   6.338   5.865 -0.3278  0.3297 -0.9014
    7SAPS   H7S  848   6.208   6.232   5.884  0.5612  1.2284  0.4502
    7SAPS   C28  849   6.380   6.147   5.766  0.1837  0.0834 -0.1719
    7SAPS   H8R  850   6.467   6.082   5.781  2.9403  2.2968 -4.4840
    7SAPS   C29  851   6.342   6.163   5.640  0.4905  0.3050  0.2559
    7SAPS   H9R  852   6.390   6.104   5.560 -0.8832  0.8396 -1.0086
    7SAPS  C210  853   6.228   6.248   5.594 -0.4772 -0.1674 -0.6487
    7SAPS  H10R  854   6.136   6.239   5.656 -0.3204  1.5818 -0.1177
    7SAPS  H10S  855   6.207   6.204   5.494 -0.4987  0.9458 -1.1524
    7SAPS  C211  856   6.265   6.397   5.585 -0.5539  0.1440 -0.4227
    7SAPS  H11R  857   6.368   6.415   5.619 -0.1786  2.1343 -2.4243
    7SAPS  C212  858   6.204   6.493   5.517 -0.5159 -0.0167  1.3012
    7SAPS  H12R  859   6.252   6.589   5.539 -0.1430 -0.1550  1.0926
    7SAPS  C213  860   6.076   6.493   5.429 -0.9245 -0.2914 -0.0803
    7SAPS  H13R  861   6.015   6.584   5.446 -3.1968 -2.0112  1.5871
    7SAPS  H13S  862   6.016   6.403   5.455 -1.1750 -0.9336 -2.6235
    7SAPS  C214  863   6.121   6.485   5.281  0.0547  0.4122 -0.1300
    7SAPS  H14R  864   6.202   6.415   5.255 -1.0864 -1.9098  2.1077
    7SAPS  C215  865   6.047   6.542   5.179 -0.1067  0.8142 -0.2458
    7SAPS  H15R  866   6.079   6.519   5.076  1.1939 -0.7644  0.4458
    7SAPS  C216  867   5.915   6.615   5.173  0.1272 -0.6494 -0.1441
    7SAPS  H16R  868   5.929   6.701   5.104  0.2134 -2.0253 -1.8959
    7SAPS  H16S  869   5.892   6.667   5.269 -0.4961  0.4203 -0.8604
    7SAPS  C217  870   5.795   6.533   5.129  0.0484  0.4737 -0.1826
    7SAPS  H17R  871   5.797   6.506   5.021 -0.7658  0.9271 -0.3198
    7SAPS  H17S  872   5.706   6.599   5.134 -0.0690  0.6634 -2.9959
    7SAPS  C218  873   5.772   6.405   5.214 -0.5320  0.0052  0.3397
    7SAPS  H18R  874   5.773   6.437   5.321 -0.5405 -0.5410  0.5040
    7SAPS  H18S  875   5.842   6.322   5.193  0.5237  0.5629  1.4998
    7SAPS  C219  876   5.621   6.364   5.205  0.2308  0.3358  0.5702
    7SAPS  H19R  877   5.568   6.462   5.215  0.1506  0.2918  0.5776
    7SAPS  H19S  878   5.595   6.301   5.292  0.3697 -1.2592 -0.4997
    7SAPS  C220  879   5.584   6.289   5.069  0.3478  0.1056 -0.9797
    7SAPS  H20R  880   5.624   6.185   5.063  1.9517  0.6138  0.1962
    7SAPS  H20S  881   5.619   6.345   4.979 -0.0567 -0.1258 -1.2846
    7SAPS  H20T  882   5.475   6.269   5.074  0.6489 -1.4687  2.4084
    7SAPS   C33  883   7.087   6.669   5.985 -0.3301  0.4686  0.1505
    7SAPS   H3X  884   7.039   6.574   5.953  0.3970 -0.0533  0.5952
    7SAPS   H3Y  885   7.158   6.642   6.066 -0.7207  0.9242  0.6522
    7SAPS   C34  886   7.149   6.734   5.866  0.1452 -0.2319  0.0286
    7SAPS   H4X  887   7.182   6.838   5.885  0.9487  0.3007 -3.5004
    7SAPS   H4Y  888   7.067   6.731   5.792 -0.0164  1.4440  0.1225
    7SAPS   C35  889   7.274   6.659   5.825  0.4780 -0.0304 -1.1044
    7SAPS   H5X  890   7.245   6.560   5.782  0.0298 -0.1012 -0.6483
    7SAPS   H5Y  891   7.345   6.643   5.908 -0.9934 -1.8479 -0.1044
    7SAPS   C36  892   7.351   6.735   5.716  0.0756  0.4695 -0.7927
    7SAPS   H6X  893   7.451   6.688   5.726 -0.4419 -1.0216 -2.1600
    7SAPS   H6Y  894   7.352   6.843   5.745  0.6832 -0.1112  1.5179
    7SAPS   C37  895   7.302   6.714   5.577  0.1846 -0.3538  0.2232
    7SAPS   H7X  896   7.193   6.728   5.559  0.2643 -0.0703 -0.0539
    7SAPS   H7Y  897   7.320   6.606   5.559  1.0382 -0.0780 -0.6543
    7SAPS   C38  898   7.385   6.783   5.471  0.2810  0.2485 -0.1995
    7SAPS   H8X  899   7.493   6.784   5.499  0.0681 -0.8862  0.7051
    7SAPS   H8Y  900   7.357   6.890   5.480 -0.0146 -0.0138  3.5550
    7SAPS   C39  901   7.361   6.708   5.341 -0.0765  0.9636  0.1493
    7SAPS   H9X  902   7.251   6.700   5.323 -0.3037 -1.1811  1.9604
    7SAPS   H9Y  903   7.400   6.604   5.344  0.5691  1.2183  1.0352
    7SAPS  C310  904   7.422   6.785   5.220 -0.7417  0.5554 -0.1088
    7SAPS  H10X  905   7.533   6.787   5.232 -0.9131  0.8290  1.7855
    7SAPS  H10Y  906   7.391   6.891   5.207  0.1382  0.7366 -0.8708
    7SAPS  C311  907   7.389   6.710   5.089 -0.1239 -0.1660  0.3683
    7SAPS  H11X  908   7.287   6.667   5.098 -0.4565  0.7030  0.9368
    7SAPS  H11Y  909   7.462   6.627   5.078 -0.6801 -0.8111  1.4235
    7SAPS  C312  910   7.395   6.808   4.971  0.1362 -0.8609 -0.6711
    7SAPS  H12X  911   7.475   6.883   4.987  0.9324 -1.4539 -1.7790
    7SAPS  H12Y  912   7.305   6.874   4.975  0.0454 -1.0471  0.9566
    7SAPS  C313  913   7.409   6.740   4.837  0.1581 -0.0417  0.2270
    7SAPS  H13X  914   7.398   6.818   4.759  2.6488  1.0134  0.8514
    7SAPS  H13Y  915   7.330   6.663   4.819  0.4645 -0.7961  1.9777
    7SAPS  C314  916   7.555   6.678   4.821 -0.4762  0.0375 -0.1320
    7SAPS  H14X  917   7.580   6.610   4.905  1.5291  1.6732  0.6850
    7SAPS  H14Y  918   7.630   6.759   4.827  1.0012 -1.0033 -2.6457
    7SAPS  C315  919   7.556   6.598   4.693  0.5909 -0.6288 -0.0352
    7SAPS  H15X  920   7.537   6.665   4.607  0.4937  0.3659  0.7488
    7SAPS  H15Y  921   7.480   6.518   4.708  0.1130 -0.0704  0.5356
    7SAPS  C316  922   7.691   6.525   4.672 -0.6970  0.1119  0.5230
    7SAPS  H16X  923   7.700   6.435   4.737 -0.0855 -0.0894  0.1651
    7SAPS  H16Y  924   7.777   6.589   4.698 -0.6084  0.2088  0.0024
    7SAPS  C317  925   7.705   6.477   4.521  0.2745  0.6866 -0.5378
    7SAPS  H17X  926   7.808   6.445   4.496 -0.2445 -1.1253 -0.4995
    7SAPS  H17Y  927   7.690   6.567   4.457  0.3380  0.4415 -0.9031
    7SAPS  C318  928   7.602   6.371   4.483  0.8121 -0.7013  0.1930
    7SAPS  H18X  929   7.591   6.295   4.564 -0.9802 -0.5627  0.1306
    7SAPS  H18Y  930   7.628   6.319   4.389 -0.7764 -0.0553 -0.6431
    7SAPS  H18Z  931   7.501   6.418   4.475  1.1082  0.4883  2.5915
    8SAPS     N  932   6.096   2.555   6.597 -0.4622 -0.4378 -0.5022
    8SAPS   HN1  933   6.019   2.611   6.638  0.8209  1.5187 -0.6337
    8SAPS   HN2  934   6.120   2.603   6.508  1.8119  1.4232  0.9795
    8SAPS   HN3  935   6.055   2.462   6.577 -0.0089 -0.6025 -0.6823
    8SAPS   C12  936   6.212   2.551   6.686  0.1951  0.4002 -0.9264
    8SAPS  H12A  937   6.248   2.653   6.696  1.2887 -0.1054  0.9784
    8SAPS   C13  938   6.198   2.505   6.833  0.2938  0.5118  0.1855
    8SAPS  O13A  939   6.090   2.452   6.867 -0.2639  0.1484 -0.4522
    8SAPS  O13B  940   6.292   2.504   6.918 -0.3774  0.1109 -0.1820
    8SAPS   C11  941   6.318   2.461   6.618  0.3777  0.9093 -0.5318
    8SAPS  H11A  942   6.410   2.471   6.680 -0.8131 -1.9640  1.9814
    8SAPS  H11B  943   6.337   2.498   6.515 -0.0693 -0.9640 -1.3334
    8SAPS     P  944   6.356   2.228   6.526  0.2757  0.2427 -0.2249
    8SAPS   O13  945   6.498   2.241   6.561  0.3364 -0.1958  0.1700
    8SAPS   O14  946   6.297   2.097   6.545  0.2918  0.6572  0.7052
    8SAPS   O12  947   6.270   2.329   6.610 -0.0408 -0.4293  0.1659
    8SAPS   O11  948   6.321   2.285   6.383  0.0973  0.1576 -0.3659
    8SAPS    C1  949   6.204   2.260   6.311  0.4910  0.1535  0.8199
    8SAPS    HA  950   6.118   2.237   6.378 -0.9237 -0.7538 -1.1945
    8SAPS    HB  951   6.165   2.345   6.250 -1.8352 -1.8541 -0.6665
    8SAPS    C2  952   6.213   2.134   6.222  0.1448 -0.5407 -0.3578
    8SAPS    HS  953   6.256   2.052   6.283  2.0659  0.6892  0.0265
    8SAPS   O21  954   6.306   2.164   6.121 -0.0409  0.2254 -0.2780
    8SAPS   C21  955   6.369   2.061   6.055  0.1212 -0.7854  0.3420
    8SAPS   O22  956   6.354   1.942   6.082 -0.2470 -0.5084 -0.0632
    8SAPS   C22  957   6.459   2.117   5.948  0.8945  0.7329 -0.3406
    8SAPS   H2R  958   6.388   2.163   5.876  0.1077 -0.2667 -0.2215
    8SAPS   H2S  959   6.526   2.197   5.984  0.3952  0.9806  0.0606
    8SAPS    C3  960   6.083   2.090   6.153 -0.1777 -0.0113  0.3365
    8SAPS    HX  961   6.017   2.051   6.233 -1.4549  1.6771  0.1742
    8SAPS    HY  962   6.097   2.007   6.080  0.6453 -0.5367  1.0668
    8SAPS   O31  963   6.020   2.207   6.100  0.4172 -1.0429  0.0555
    8SAPS   C31  964   6.040   2.222   5.968 -0.0311 -0.9702  0.0317
    8SAPS   O32  965   6.095   2.149   5.895  0.0528 -0.4519  0.8824
    8SAPS   C32  966   5.970   2.356   5.928  0.2514 -0.7634  0.9160
    8SAPS   H2X  967   6.030   2.440   5.971  1.6324 -1.1229 -0.2270
    8SAPS   H2Y  968   5.871   2.350   5.978 -0.6264 -0.2988 -0.7018
    8SAPS   C23  969   6.543   2.012   5.868  0.0314 -0.2855 -0.2249
    8SAPS   H3R  970   6.477   1.926   5.845 -0.0772  0.0128 -1.0829
    8SAPS   H3S  971   6.632   1.971   5.920 -1.7410 -3.0084  0.8625
    8SAPS   C24  972   6.575   2.079   5.727  0.0591  0.3781  0.5546
    8SAPS   H4R  973   6.577   2.187   5.754 -1.0983  0.4411  0.4548
    8SAPS   H4S  974   6.492   2.072   5.653 -0.9679  3.3619  1.2553
    8SAPS   C25  975   6.710   2.028   5.682  0.3843  0.2180 -0.0581
    8SAPS   H5R  976   6.798   2.059   5.741 -1.5138  0.9339  2.5442
    8SAPS   C26  977   6.724   1.946   5.572  0.0327 -0.2746  0.7423
    8SAPS   H6R  978   6.821   1.894   5.567  0.2254  0.1844 -1.3324
    8SAPS   C27  979   6.620   1.870   5.483  0.2208  0.2833  0.2835
    8SAPS   H7R  980   6.517   1.862   5.523 -0.3725 -0.6386 -1.3073
    8SAPS   H7S  981   6.643   1.761   5.481 -1.4209 -0.0912  0.2591
    8SAPS   C28  982   6.604   1.944   5.350  0.2417  0.5034  0.4659
    8SAPS   H8R  983   6.556   2.043   5.349 -1.0302 -0.1002  0.5113
    8SAPS   C29  984   6.637   1.881   5.229  0.6030 -0.3243 -0.0385
    8SAPS   H9R  985   6.648   1.943   5.139 -0.1770 -0.4942 -0.2554
    8SAPS  C210  986   6.702   1.751   5.223  0.0929 -0.1294 -0.0857
    8SAPS  H10R  987   6.620   1.675   5.220  0.8791 -1.0836  1.4144
    8SAPS  H10S  988   6.771   1.729   5.307 -0.6631 -1.8767  0.1332
    8SAPS  C211  989   6.779   1.739   5.092 -0.1199 -0.4965  1.0451
    8SAPS  H11R  990   6.889   1.748   5.099  0.0231 -0.3994 -0.6888
    8SAPS  C212  991   6.726   1.727   4.967 -0.3288 -0.2198  0.2349
    8SAPS  H12R  992   6.806   1.721   4.891 -1.7977 -1.8799 -1.2527
    8SAPS  C213  993   6.591   1.701   4.915 -0.0195  0.0514  0.3797
    8SAPS  H13R  994   6.574   1.770   4.830 -1.7597  0.2814  0.8729
    8SAPS  H13S  995   6.522   1.739   4.993  0.0386 -0.3368  0.6228
    8SAPS  C214  996   6.569   1.547   4.893  0.0143  0.5457 -0.7661
    8SAPS  H14R  997   6.625   1.478   4.957 -1.6675  0.2471  0.4589
    8SAPS  C215  998   6.481   1.488   4.808 -0.7692  0.5709  0.2049
    8SAPS  H15R  999   6.469   1.379   4.809 -4.0110  0.8043  1.1607
    8SAPS  C216 1000   6.402   1.563   4.706 -0.0689 -0.1188  0.6765
    8SAPS  H16R 1001   6.411   1.509   4.609  3.3752 -0.7529  1.2093
    8SAPS  H16S 1002   6.433   1.668   4.687 -1.4011  0.5387  1.9566
    8SAPS  C217 1003   6.257   1.563   4.739  0.2923  0.3513  0.3408
    8SAPS  H17R 1004   6.201   1.605   4.653 -2.6299 -0.1431  1.8493
    8SAPS  H17S 1005   6.242   1.634   4.823 -0.2243  2.3391 -1.3395
    8SAPS  C218 1006   6.205   1.419   4.759  0.0540 -0.0361 -0.3186
    8SAPS  H18R 1007   6.234   1.375   4.857  3.2943 -2.2588 -2.0797
    8SAPS  H18S 1008   6.241   1.354   4.677 -0.7364 -0.1889 -0.5529
    8SAPS  C219 1009   6.049   1.417   4.754  0.0523 -0.6496  0.8492
    8SAPS  H19R 1010   6.008   1.459   4.848 -1.0210 -0.8104  0.4639
    8SAPS  H19S 1011   6.012   1.314   4.768 -0.5938 -0.5251  0.1591
    8SAPS  C220 1012   5.978   1.493   4.642 -0.6040 -0.1823  0.1476
    8SAPS  H20R 1013   5.996   1.603   4.638 -0.0020 -0.2366  1.0745
    8SAPS  H20S 1014   5.868   1.483   4.631 -0.8698  3.7634 -4.3794
    8SAPS  H20T 1015   6.019   1.461   4.543  0.2973  0.9459  0.1316
    8SAPS   C33 1016   5.964   2.380   5.778 -1.1840  0.2337 -0.0461
    8SAPS   H3X 1017   5.919   2.291   5.729  0.4859 -1.3166  1.1113
    8SAPS   H3Y 1018   6.063   2.408   5.736 -0.4160 -1.9346  0.2288
    8SAPS   C34 1019   5.871   2.505   5.765 -0.1610 -0.3513  0.1108
    8SAPS   H4X 1020   5.944   2.583   5.795 -0.8348  0.4367 -0.2704
    8SAPS   H4Y 1021   5.792   2.487   5.842  2.5576 -4.2916  2.3585
    8SAPS   C35 1022   5.815   2.532   5.626  0.4761 -0.0033 -0.7444
    8SAPS   H5X 1023   5.760   2.626   5.646  1.2217  0.6484 -1.6679
    8SAPS   H5Y 1024   5.745   2.455   5.588  1.1859 -1.0815  0.0635
    8SAPS   C36 1025   5.922   2.540   5.521 -0.4351  0.1980 -0.3033
    8SAPS   H6X 1026   5.980   2.445   5.524 -1.0975 -0.2004  0.5027
    8SAPS   H6Y 1027   5.980   2.626   5.559 -0.5562 -0.1622  0.7460
    8SAPS   C37 1028   5.869   2.570   5.382  0.2655  0.2939 -0.2795
    8SAPS   H7X 1029   5.803   2.658   5.397  0.2696  0.0234  1.5135
    8SAPS   H7Y 1030   5.800   2.493   5.341  0.5019  0.1096 -0.3381
    8SAPS   C38 1031   5.980   2.604   5.281 -0.7028  0.5605  0.4817
    8SAPS   H8X 1032   5.945   2.596   5.176  0.7885  1.3167 -0.1075
    8SAPS   H8Y 1033   6.058   2.528   5.301 -0.1578  1.4456  1.8245
    8SAPS   C39 1034   6.038   2.744   5.301  0.3348  0.5138  0.3855
    8SAPS   H9X 1035   6.077   2.749   5.405  2.7462 -0.0147 -0.4399
    8SAPS   H9Y 1036   5.950   2.809   5.280 -1.0262 -2.0625 -2.5639
    8SAPS  C310 1037   6.153   2.793   5.218 -0.1116 -0.4354 -1.0260
    8SAPS  H10X 1038   6.242   2.726   5.225  0.8096  0.3380 -3.8108
    8SAPS  H10Y 1039   6.189   2.895   5.242 -0.3651 -0.6148  0.1801
    8SAPS  C311 1040   6.115   2.799   5.074 -0.1830 -0.2103  0.0137
    8SAPS  H11X 1041   6.037   2.877   5.056  0.7714  0.0017 -3.9886
    8SAPS  H11Y 1042   6.086   2.694   5.050  0.3110 -0.1588 -0.8326
    8SAPS  C312 1043   6.225   2.835   4.974 -0.3425  0.2182 -0.1902
    8SAPS  H12X 1044   6.309   2.768   5.001  0.5081  1.0533 -0.7335
    8SAPS  H12Y 1045   6.254   2.939   5.001 -0.9699  0.1112  0.9536
    8SAPS  C313 1046   6.182   2.827   4.827 -0.2419  0.4880  0.4843
    8SAPS  H13X 1047   6.144   2.724   4.811 -1.9230  1.0633  0.5701
    8SAPS  H13Y 1048   6.269   2.849   4.762  0.2963 -1.3155  0.5547
    8SAPS  C314 1049   6.058   2.910   4.798  0.5070 -0.3985  0.6402
    8SAPS  H14X 1050   6.062   3.012   4.841 -1.5688  0.5697 -1.2757
    8SAPS  H14Y 1051   5.964   2.861   4.831  0.4579 -0.9936 -0.3522
    8SAPS  C315 1052   6.031   2.909   4.645 -0.5943  0.4330  0.4896
    8SAPS  H15X 1053   6.008   2.806   4.612  1.8004  0.4712 -1.5545
    8SAPS  H15Y 1054   6.131   2.931   4.602  1.3072  2.0192  5.0909
    8SAPS  C316 1055   5.927   3.012   4.603 -0.2065  0.4208 -0.2521
    8SAPS  H16X 1056   5.971   3.113   4.590 -0.7243  0.4239 -2.3015
    8SAPS  H16Y 1057   5.847   3.016   4.681 -1.8657 -0.4117 -1.8405
    8SAPS  C317 1058   5.849   2.972   4.477 -0.2268  0.4346  0.3305
    8SAPS  H17X 1059   5.799   2.877   4.506 -2.7757  0.9662 -1.9552
    8SAPS  H17Y 1060   5.931   2.947   4.407  0.4706 -0.4047  1.4092
    8SAPS  C318 1061   5.748   3.072   4.421  0.0100  0.4261  0.6502
    8SAPS  H18X 1062   5.797   3.159   4.372 -0.2338  0.0428 -0.3151
    8SAPS  H18Y 1063   5.678   3.110   4.498 -0.3956 -0.3159  0.6609
    8SAPS  H18Z 1064   5.692   3.023   4.338 -0.1441 -0.8157  1.4607
    9SAPS     N 1065   6.135   6.120   6.852  0.4390  0.3120  0.1342
    9SAPS   HN1 1066   6.188   6.058   6.917  0.0548 -0.1925 -0.0279
    9SAPS   HN2 1067   6.169   6.115   6.754 -3.4187  1.7365 -1.5004
    9SAPS   HN3 1068   6.161   6.217   6.878 -0.3433  0.5145  0.2059
    9SAPS   C12 1069   5.988   6.103   6.852  0.2300 -0.0149 -0.2651
    9SAPS  H12A 1070   5.954   6.000   6.848 -1.3289  0.2921  2.7548
    9SAPS   C13 1071   5.923   6.143   6.983  0.9225 -0.1504  0.4276
    9SAPS  O13A 1072   5.990   6.192   7.083  0.4988  0.3022  0.2661
    9SAPS  O13B 1073   5.793   6.143   6.994  0.3915 -0.3916  0.2221
    9SAPS   C11 1074   5.936   6.192   6.734  0.0609  0.3681 -0.2657
    9SAPS  H11A 1075   5.834   6.161   6.704  0.5529  0.3959 -2.0248
    9SAPS  H11B 1076   5.996   6.161   6.647 -0.5168 -1.4417 -0.0639
    9SAPS     P 1077   5.867   6.436   6.656 -0.0827  0.3398 -0.2316
    9SAPS   O13 1078   5.720   6.450   6.686  0.5337 -0.1750  0.0577
    9SAPS   O14 1079   5.963   6.553   6.648  0.5501 -0.1298  0.3135
    9SAPS   O12 1080   5.933   6.333   6.759 -0.8393  0.5122 -0.1770
    9SAPS   O11 1081   5.874   6.354   6.519 -0.5725  0.3570  0.1154
    9SAPS    C1 1082   6.007   6.349   6.457  0.2817 -0.4251  0.1063
    9SAPS    HA 1083   6.091   6.385   6.520  2.4368 -1.2277 -2.1281
    9SAPS    HB 1084   6.035   6.245   6.429 -0.9071  0.0147 -3.1599
    9SAPS    C2 1085   6.009   6.422   6.321 -0.7834 -0.1721 -0.1463
    9SAPS    HS 1086   5.983   6.527   6.345 -0.7314 -0.0354 -0.6805
    9SAPS   O21 1087   5.906   6.365   6.238  0.1330  0.1181  0.1013
    9SAPS   C21 1088   5.842   6.449   6.159  0.2599 -0.1117 -0.3403
    9SAPS   O22 1089   5.848   6.572   6.162  0.4782 -0.0250  0.6116
    9SAPS   C22 1090   5.760   6.369   6.060  0.1541  0.1281 -0.7058
    9SAPS   H2R 1091   5.826   6.292   6.015  2.0276  0.0146  1.9980
    9SAPS   H2S 1092   5.676   6.316   6.109 -2.0479  2.2378 -2.0011
    9SAPS    C3 1093   6.142   6.405   6.245  0.6129  0.0565  0.1553
    9SAPS    HX 1094   6.154   6.296   6.224  1.5583  0.3244 -0.7743
    9SAPS    HY 1095   6.228   6.432   6.310 -1.0924 -1.6191  3.3866
    9SAPS   O31 1096   6.140   6.486   6.126 -1.1420 -0.3083 -0.2585
    9SAPS   C31 1097   6.214   6.602   6.132  0.1808  0.7314 -0.2885
    9SAPS   O32 1098   6.258   6.650   6.233 -0.2999 -0.1807 -0.3756
    9SAPS   C32 1099   6.247   6.648   5.986 -0.6189  0.0832 -0.0420
    9SAPS   H2X 1100   6.260   6.548   5.940 -0.4473 -0.0087  0.2020
    9SAPS   H2Y 1101   6.345   6.700   5.991  1.2979 -3.2547  0.0290
    9SAPS   C23 1102   5.688   6.455   5.956 -0.3379 -0.0135  1.1854
    9SAPS   H3R 1103   5.625   6.529   6.011 -3.1591 -1.2490 -0.1777
    9SAPS   H3S 1104   5.618   6.387   5.904 -0.2452 -0.1695  1.2647
    9SAPS   C24 1105   5.786   6.520   5.855 -0.3446  0.2873 -0.0024
    9SAPS   H4R 1106   5.892   6.512   5.889 -0.1686  0.1758 -0.5670
    9SAPS   H4S 1107   5.769   6.630   5.856  0.3111  0.3965 -0.2721
    9SAPS   C25 1108   5.779   6.469   5.708  0.3118  0.3840 -0.8520
    9SAPS   H5R 1109   5.859   6.398   5.684  0.2731 -0.5349  1.4757
    9SAPS   C26 1110   5.692   6.497   5.610  0.0928 -0.4967  0.0743
    9SAPS   H6R 1111   5.712   6.454   5.511 -2.8828 -2.7303  0.3055
    9SAPS   C27 1112   5.569   6.588   5.623  0.2574 -0.0856 -0.3566
    9SAPS   H7R 1113   5.602   6.690   5.652  2.1478 -0.6567 -0.3787
    9SAPS   H7S 1114   5.509   6.548   5.708  1.0133 -0.6080 -0.0620
    9SAPS   C28 1115   5.493   6.605   5.499 -0.0327 -0.1043 -0.0831
    9SAPS   H8R 1116   5.430   6.521   5.466 -0.9445  0.1981  0.8433
    9SAPS   C29 1117   5.482   6.707   5.416  0.0962 -0.1355  0.0209
    9SAPS   H9R 1118   5.417   6.703   5.327  2.4022  0.9638 -1.8282
    9SAPS  C210 1119   5.544   6.848   5.431  0.4539 -0.3999  1.1666
    9SAPS  H10R 1120   5.646   6.842   5.474  0.6188 -0.2939  0.7931
    9SAPS  H10S 1121   5.476   6.917   5.485  0.0155 -0.1090  0.2533
    9SAPS  C211 1122   5.571   6.896   5.290  0.0128  0.0737 -0.4356
    9SAPS  H11R 1123   5.676   6.896   5.255 -0.1589  0.6367 -0.9850
    9SAPS  C212 1124   5.474   6.972   5.220 -0.1456 -0.1773 -0.6114
    9SAPS  H12R 1125   5.506   7.020   5.127 -1.6019  1.0618 -0.5280
    9SAPS  C213 1126   5.334   6.996   5.265 -0.5408  0.2465 -0.8001
    9SAPS  H13R 1127   5.330   7.039   5.367 -0.9116 -2.1359  0.2417
    9SAPS  H13S 1128   5.288   6.896   5.279 -2.5372  1.5409  4.0402
    9SAPS  C214 1129   5.255   7.084   5.171  0.9798 -0.1977  0.6132
    9SAPS  H14R 1130   5.227   7.181   5.214  2.8623 -0.0913  1.6596
    9SAPS  C215 1131   5.208   7.052   5.048 -0.7153  0.2403 -0.1291
    9SAPS  H15R 1132   5.142   7.124   4.998 -0.5942  0.5315  0.1281
    9SAPS  C216 1133   5.237   6.925   4.970 -0.3561 -0.1659  0.3925
    9SAPS  H16R 1134   5.144   6.877   4.933  0.7365 -0.7022 -1.8685
    9SAPS  H16S 1135   5.285   6.855   5.042 -1.4675 -0.1001  1.2274
    9SAPS  C217 1136   5.327   6.941   4.847  0.8591  0.0920  0.1315
    9SAPS  H17R 1137   5.421   6.997   4.866  2.6602 -3.2498  1.9849
    9SAPS  H17S 1138   5.264   6.989   4.769  0.3650 -1.8591 -0.7111
    9SAPS  C218 1139   5.380   6.802   4.791 -0.4841 -0.4496  0.0075
    9SAPS  H18R 1140   5.421   6.827   4.690 -0.0804 -0.6633  0.1172
    9SAPS  H18S 1141   5.301   6.724   4.793  0.7821 -1.7661  0.6055
    9SAPS  C219 1142   5.510   6.741   4.860  0.0686 -0.5261 -0.2528
    9SAPS  H19R 1143   5.492   6.721   4.968  4.2779 -0.1182  0.6777
    9SAPS  H19S 1144   5.583   6.824   4.850 -3.5077  2.6428 -2.5236
    9SAPS  C220 1145   5.566   6.608   4.795 -0.3280 -0.7695  0.0221
    9SAPS  H20R 1146   5.574   6.606   4.685 -2.1263 -1.6563 -0.1332
    9SAPS  H20S 1147   5.489   6.532   4.823 -1.7598  1.4933  2.7695
    9SAPS  H20T 1148   5.662   6.587   4.846 -0.3808  0.7514  0.8087
    9SAPS   C33 1149   6.135   6.733   5.930  0.1617  0.0413  0.2823
    9SAPS   H3X 1150   6.126   6.824   5.994  0.5312 -0.3947  0.9651
    9SAPS   H3Y 1151   6.040   6.675   5.943  1.6375 -3.0272 -1.5522
    9SAPS   C34 1152   6.153   6.777   5.792 -0.0301  0.2052  0.4750
    9SAPS   H4X 1153   6.183   6.678   5.752 -3.0482 -0.8321  0.5005
    9SAPS   H4Y 1154   6.219   6.864   5.773 -1.1050  0.5626 -2.0797
    9SAPS   C35 1155   6.026   6.822   5.703  0.0701  0.6035  0.1775
    9SAPS   H5X 1156   5.982   6.899   5.769 -1.8409 -1.1107  1.0442
    9SAPS   H5Y 1157   5.956   6.736   5.700  3.1522 -2.0710 -1.4070
    9SAPS   C36 1158   6.050   6.883   5.566 -0.1288 -0.2392  0.5466
    9SAPS   H6X 1159   6.082   6.802   5.496 -2.8877 -0.4287 -0.5952
    9SAPS   H6Y 1160   6.131   6.958   5.578 -0.2394  0.0767 -0.5099
    9SAPS   C37 1161   5.929   6.948   5.491 -0.0853  0.2782  0.4691
    9SAPS   H7X 1162   5.879   7.008   5.571 -0.1151  0.5967  0.2149
    9SAPS   H7Y 1163   5.862   6.864   5.461  1.3131 -1.4568  1.9907
    9SAPS   C38 1164   5.974   7.038   5.373 -1.0011 -0.4774  1.1440
    9SAPS   H8X 1165   6.072   7.074   5.412  0.0126 -0.5928 -1.1514
    9SAPS   H8Y 1166   5.919   7.133   5.363  0.7820  0.4013 -1.1630
    9SAPS   C39 1167   5.991   6.957   5.240  0.6262  0.4903  0.1530
    9SAPS   H9X 1168   5.894   6.907   5.219  1.7346 -2.2742  1.1626
    9SAPS   H9Y 1169   6.057   6.869   5.255 -0.0047  0.3092  2.1506
    9SAPS  C310 1170   6.034   7.030   5.106 -0.4597 -0.2414 -0.5088
    9SAPS  H10X 1171   6.134   7.075   5.123 -0.1556 -0.0284 -2.5829
    9SAPS  H10Y 1172   5.966   7.118   5.104  3.0927  2.7687 -0.4137
    9SAPS  C311 1173   6.040   6.934   4.987 -0.0883 -0.3040 -0.4331
    9SAPS  H11X 1174   5.940   6.887   4.977 -0.4334  0.1712  0.6073
    9SAPS  H11Y 1175   6.114   6.856   5.017  0.2218  0.4448  0.8231
    9SAPS  C312 1176   6.080   6.996   4.856  0.1499 -0.2061 -0.0674
    9SAPS  H12X 1177   6.184   7.033   4.870 -0.4273  1.2467  0.6251
    9SAPS  H12Y 1178   6.029   7.090   4.827 -0.1174  0.2581  1.7472
    9SAPS  C313 1179   6.066   6.901   4.734  0.0601  0.3362  0.5127
    9SAPS  H13X 1180   6.095   6.958   4.642  0.7482  0.7128  0.9558
    9SAPS  H13Y 1181   5.966   6.854   4.726  0.0612  0.5936 -1.6750
    9SAPS  C314 1182   6.161   6.782   4.753 -0.2003 -0.3688  0.8221
    9SAPS  H14X 1183   6.169   6.741   4.856 -1.5468  0.2074  1.1824
    9SAPS  H14Y 1184   6.261   6.824   4.731 -0.9340  1.7885  1.3919
    9SAPS  C315 1185   6.123   6.653   4.667 -0.7155 -0.5355 -0.8151
    9SAPS  H15X 1186   6.205   6.579   4.680 -0.6416 -0.2115  0.7569
    9SAPS  H15Y 1187   6.120   6.685   4.561 -1.7397  2.4056  0.0232
    9SAPS  C316 1188   5.986   6.594   4.715  0.1436  0.5750  0.0873
    9SAPS  H16X 1189   5.902   6.659   4.685  0.9508  0.3179 -3.0698
    9SAPS  H16Y 1190   5.997   6.602   4.826  2.4693 -1.3056  0.0900
    9SAPS  C317 1191   5.961   6.454   4.659  0.2691 -0.3550 -0.2488
    9SAPS  H17X 1192   6.043   6.386   4.689  3.3386  2.3943 -1.8088
    9SAPS  H17Y 1193   5.969   6.450   4.548  0.7272 -2.2126 -0.1863
    9SAPS  C318 1194   5.826   6.386   4.696 -0.3098  0.1758 -0.2298
    9SAPS  H18X 1195   5.813   6.291   4.640  1.8445  0.2892 -1.0110
    9SAPS  H18Y 1196   5.750   6.454   4.654  1.2002  1.2256 -1.3597
    9SAPS  H18Z 1197   5.832   6.376   4.807  0.7877  1.3127 -0.1641
   10SAPS     N 1198   0.654   6.616   6.963  0.9299 -0.4711  0.7190
   10SAPS   HN1 1199   0.574   6.612   7.031 -0.5856 -0.9213 -1.0169
   10SAPS   HN2 1200   0.732   6.558   7.000  0.6693 -0.3201  1.5492
   10SAPS   HN3 1201   0.689   6.713   6.951  3.5254 -1.6617 -3.1867
   10SAPS   C12 1202   0.612   6.557   6.828  0.7027  0.4419 -0.0982
   10SAPS  H12A 1203   0.579   6.456   6.851  2.1428  0.1240  0.7419
   10SAPS   C13 1204   0.502   6.636   6.751  0.1738 -0.1799  0.6104
   10SAPS  O13A 1205   0.450   6.577   6.649  0.1691  0.1389 -0.2328
   10SAPS  O13B 1206   0.449   6.739   6.795  0.4394  0.2540  0.8697
   10SAPS   C11 1207   0.739   6.551   6.737  0.1860 -0.2915 -0.1470
   10SAPS  H11A 1208   0.762   6.657   6.712  1.1207 -0.6611 -0.8763
   10SAPS  H11B 1209   0.695   6.503   6.647 -3.0241 -0.0796  1.1389
   10SAPS     P 1210   0.882   6.349   6.789  0.1190  0.1555 -0.3267
   10SAPS   O13 1211   1.006   6.321   6.859 -0.2329 -0.6178  0.8753
   10SAPS   O14 1212   0.758   6.264   6.813 -0.8036  0.7363 -0.1070
   10SAPS   O12 1213   0.849   6.493   6.806 -0.1812 -0.4925  0.2106
   10SAPS   O11 1214   0.902   6.339   6.635  0.8639  0.0722  0.1645
   10SAPS    C1 1215   0.989   6.434   6.573  0.2524  0.3110 -0.0285
   10SAPS    HA 1216   1.042   6.500   6.646  0.3531 -1.4962  1.6312
   10SAPS    HB 1217   1.073   6.371   6.536  1.3892  1.6137  0.2204
   10SAPS    C2 1218   0.930   6.519   6.458 -0.2180 -0.9307 -0.1635
   10SAPS    HS 1219   0.855   6.588   6.503  0.4219  1.2775 -2.2881
   10SAPS   O21 1220   0.873   6.429   6.362  0.2961 -0.8405 -0.1055
   10SAPS   C21 1221   0.757   6.461   6.308 -0.1270  0.4267  0.0605
   10SAPS   O22 1222   0.686   6.548   6.348  0.6344 -0.5769  0.4847
   10SAPS   C22 1223   0.726   6.365   6.195 -0.1393 -0.1819  0.1290
   10SAPS   H2R 1224   0.710   6.264   6.238  2.5405 -0.1824  1.3538
   10SAPS   H2S 1225   0.633   6.401   6.146 -0.4210 -0.0987  0.7078
   10SAPS    C3 1226   1.048   6.597   6.388  0.4254 -0.1225  0.0293
   10SAPS    HX 1227   1.116   6.519   6.346 -2.1429 -1.4994 -1.9042
   10SAPS    HY 1228   1.105   6.643   6.471 -0.7201 -0.1425  0.8498
   10SAPS   O31 1229   1.003   6.683   6.284  1.0549 -0.2048  0.2879
   10SAPS   C31 1230   0.947   6.799   6.325  0.2420 -0.4672 -0.1495
   10SAPS   O32 1231   0.942   6.837   6.442  0.3620 -0.7270  0.1581
   10SAPS   C32 1232   0.883   6.879   6.205  0.0279 -0.3027  0.2353
   10SAPS   H2X 1233   0.955   6.899   6.122 -1.2208 -2.1547 -1.3831
   10SAPS   H2Y 1234   0.850   6.980   6.238 -0.8408 -0.1252 -1.0751
   10SAPS   C23 1235   0.847   6.366   6.094 -0.4358 -0.2136  0.0807
   10SAPS   H3R 1236   0.939   6.334   6.146  0.2598 -1.3130 -1.7276
   10SAPS   H3S 1237   0.867   6.471   6.063 -2.0928  0.9634  2.6691
   10SAPS   C24 1238   0.816   6.275   5.976 -0.3047 -0.0784  0.3236
   10SAPS   H4R 1239   0.713   6.294   5.938  0.3405  0.3823 -1.2813
   10SAPS   H4S 1240   0.820   6.168   6.003 -1.9222 -0.4977 -0.9242
   10SAPS   C25 1241   0.925   6.306   5.866 -0.5031 -0.1502  0.1507
   10SAPS   H5R 1242   1.030   6.305   5.897  0.1641 -1.7500 -1.9361
   10SAPS   C26 1243   0.893   6.352   5.741 -0.5460  0.5631 -0.7449
   10SAPS   H6R 1244   0.972   6.364   5.666 -0.8328  0.5173 -1.0563
   10SAPS   C27 1245   0.750   6.373   5.695 -0.2244  0.4097 -0.0682
   10SAPS   H7R 1246   0.688   6.423   5.772 -1.2247 -0.6540 -0.1478
   10SAPS   H7S 1247   0.692   6.282   5.668 -0.7795  1.0221 -0.9813
   10SAPS   C28 1248   0.745   6.459   5.570 -0.8520 -0.8440  0.6068
   10SAPS   H8R 1249   0.722   6.565   5.591 -0.4105 -1.0051  2.0669
   10SAPS   C29 1250   0.786   6.432   5.445  0.1906  0.6527 -0.2204
   10SAPS   H9R 1251   0.769   6.506   5.366  0.0140  0.9212  0.0625
   10SAPS  C210 1252   0.825   6.295   5.392  0.4421 -0.1431 -0.2999
   10SAPS  H10R 1253   0.793   6.218   5.465  1.0926  1.8697  2.2652
   10SAPS  H10S 1254   0.936   6.297   5.402  0.5890  0.5186 -1.7326
   10SAPS  C211 1255   0.789   6.244   5.261  0.6725  0.5036  0.8522
   10SAPS  H11R 1256   0.716   6.163   5.263  1.2427 -0.0376  0.2901
   10SAPS  C212 1257   0.848   6.268   5.146 -0.1343  0.1669  0.7284
   10SAPS  H12R 1258   0.816   6.219   5.054 -0.0304  1.9940 -0.3273
   10SAPS  C213 1259   0.959   6.365   5.112 -0.2507 -0.3473  0.3885
   10SAPS  H13R 1260   0.982   6.427   5.201 -0.2922  0.8316 -0.4018
   10SAPS  H13S 1261   0.926   6.436   5.034  1.7482  1.4372  1.0760
   10SAPS  C214 1262   1.091   6.304   5.069 -0.3043 -0.1323 -0.3231
   10SAPS  H14R 1263   1.168   6.296   5.147 -1.4564  0.7852  0.9400
   10SAPS  C215 1264   1.125   6.259   4.943  0.3264  0.8047  0.0692
   10SAPS  H15R 1265   1.219   6.204   4.930  0.4714  0.7780  1.1448
   10SAPS  C216 1266   1.052   6.277   4.812  0.3408  0.2573 -0.6642
   10SAPS  H16R 1267   1.116   6.338   4.745 -0.0315 -0.5599 -1.7986
   10SAPS  H16S 1268   0.960   6.334   4.839  0.5810  0.3992 -0.1530
   10SAPS  C217 1269   1.027   6.138   4.741  0.5988  0.0463 -0.1057
   10SAPS  H17R 1270   0.946   6.150   4.666  1.8923 -0.8643 -1.7055
   10SAPS  H17S 1271   1.000   6.053   4.806 -0.3537 -1.2920 -2.1498
   10SAPS  C218 1272   1.151   6.106   4.654 -0.7325  0.0174  0.2477
   10SAPS  H18R 1273   1.225   6.068   4.728  0.2791 -1.1958 -1.3017
   10SAPS  H18S 1274   1.186   6.198   4.602 -1.1635 -0.3084 -0.6472
   10SAPS  C219 1275   1.126   5.997   4.543  0.0883 -0.1557  0.3489
   10SAPS  H19R 1276   1.059   6.045   4.470 -0.5175  0.8416  1.5159
   10SAPS  H19S 1277   1.057   5.925   4.593 -0.6083  1.3724  1.6591
   10SAPS  C220 1278   1.254   5.945   4.481 -0.8708  0.1861  0.4346
   10SAPS  H20R 1279   1.316   5.890   4.554  0.2173  0.0271 -0.5866
   10SAPS  H20S 1280   1.311   6.029   4.435 -4.0736  3.2127  1.4862
   10SAPS  H20T 1281   1.228   5.880   4.395  0.3785  0.1210  0.0877
   10SAPS   C33 1282   0.767   6.805   6.134 -0.1469 -0.3839 -0.3792
   10SAPS   H3X 1283   0.690   6.780   6.210 -0.1922  2.8400  0.7775
   10SAPS   H3Y 1284   0.797   6.705   6.096  0.7150  0.4171 -1.9278
   10SAPS   C34 1285   0.704   6.886   6.016  0.5137  0.0223 -0.4627
   10SAPS   H4X 1286   0.671   6.982   6.062 -0.8469  0.6293 -2.5494
   10SAPS   H4Y 1287   0.610   6.839   5.980 -0.9082  0.5533  2.2517
   10SAPS   C35 1288   0.790   6.928   5.896 -0.4738 -0.3150 -0.6521
   10SAPS   H5X 1289   0.875   6.991   5.929 -1.2592  1.0867 -1.2509
   10SAPS   H5Y 1290   0.732   6.989   5.823 -0.1492  1.1850  0.3014
   10SAPS   C36 1291   0.849   6.808   5.813  1.0480 -0.2588 -1.2462
   10SAPS   H6X 1292   0.760   6.745   5.792  0.2006 -0.2270  1.7230
   10SAPS   H6Y 1293   0.903   6.745   5.887  0.2954 -2.6704 -2.6451
   10SAPS   C37 1294   0.935   6.852   5.698 -0.2060  0.0447  0.7278
   10SAPS   H7X 1295   1.014   6.776   5.684  0.3323  0.4899  1.3082
   10SAPS   H7Y 1296   0.983   6.952   5.711  0.6458 -0.4623  1.5817
   10SAPS   C38 1297   0.861   6.850   5.563  0.0928 -0.2378  0.3843
   10SAPS   H8X 1298   0.768   6.909   5.581 -0.1275 -0.7841  1.1037
   10SAPS   H8Y 1299   0.836   6.749   5.522 -2.1453  0.2159  0.5129
   10SAPS   C39 1300   0.952   6.891   5.450  0.1662 -0.1789 -0.4531
   10SAPS   H9X 1301   1.037   6.821   5.456  0.0216 -0.4082 -1.0344
   10SAPS   H9Y 1302   0.981   6.998   5.454  2.0457 -0.5286 -2.5403
   10SAPS  C310 1303   0.886   6.863   5.309 -0.0430  0.0424  0.0124
   10SAPS  H10X 1304   0.788   6.915   5.306  0.9575  2.3569  3.0453
   10SAPS  H10Y 1305   0.864   6.755   5.294 -0.1286  0.1149 -0.4090
   10SAPS  C311 1306   0.971   6.912   5.191 -0.1866  0.0371  0.1012
   10SAPS  H11X 1307   1.079   6.896   5.212 -0.9282 -1.9407  2.9926
   10SAPS  H11Y 1308   0.950   7.021   5.184 -0.7373 -0.1104 -0.8189
   10SAPS  C312 1309   0.933   6.837   5.061 -0.3710  0.1110  0.3896
   10SAPS  H12X 1310   0.826   6.850   5.035 -0.4664 -2.6642 -0.8673
   10SAPS  H12Y 1311   0.949   6.728   5.073  0.7323 -0.0007 -1.7159
   10SAPS  C313 1312   1.005   6.866   4.932  0.6862  0.5661  0.3907
   10SAPS  H13X 1313   1.003   6.977   4.919 -0.2239  0.4878 -0.2220
   10SAPS  H13Y 1314   0.964   6.819   4.841  0.3201  1.6509 -0.0223
   10SAPS  C314 1315   1.149   6.812   4.936  0.2343 -0.4432 -0.0090
   10SAPS  H14X 1316   1.135   6.701   4.941  0.0045 -0.3618  2.5770
   10SAPS  H14Y 1317   1.202   6.838   5.030 -0.9351 -0.2594  0.6265
   10SAPS  C315 1318   1.239   6.865   4.826 -0.2365  0.0430  0.0758
   10SAPS  H15X 1319   1.327   6.921   4.865  1.2203 -0.2268 -2.5325
   10SAPS  H15Y 1320   1.184   6.934   4.758 -0.3715  0.1068  0.2485
   10SAPS  C316 1321   1.305   6.745   4.747  0.7304  0.4861  0.4432
   10SAPS  H16X 1322   1.226   6.681   4.702  0.9305  0.5616 -0.0205
   10SAPS  H16Y 1323   1.379   6.685   4.805  1.2939  0.7520  0.0062
   10SAPS  C317 1324   1.384   6.783   4.622 -0.6730  0.3056 -0.6654
   10SAPS  H17X 1325   1.446   6.702   4.579 -0.0371  0.4501 -0.0368
   10SAPS  H17Y 1326   1.457   6.859   4.658 -1.0062  0.3593 -0.0841
   10SAPS  C318 1327   1.303   6.840   4.505 -0.4478  0.4218 -0.5730
   10SAPS  H18X 1328   1.249   6.758   4.453 -2.1273  1.4624 -0.5409
   10SAPS  H18Y 1329   1.373   6.896   4.439  2.7834 -0.0228  2.2236
   10SAPS  H18Z 1330   1.228   6.899   4.562 -0.3504 -1.1500  1.2808
   11SAPS     N 1331   5.948   2.639   1.852 -0.3535  0.4731 -0.5849
   11SAPS   HN1 1332   5.955   2.678   1.756 -0.7465 -2.1761 -1.7906
   11SAPS   HN2 1333   5.858   2.672   1.893 -1.2946 -2.7733  0.2660
   11SAPS   HN3 1334   6.034   2.655   1.908  0.5498 -2.2918 -1.0499
   11SAPS   C12 1335   5.907   2.494   1.849  0.0176  0.2482  0.1957
   11SAPS  H12A 1336   5.816   2.483   1.792  0.1285 -1.4672  0.3165
   11SAPS   C13 1337   6.007   2.401   1.779 -0.5044 -0.0275  0.5401
   11SAPS  O13A 1338   6.116   2.450   1.727  0.4669  0.1335  0.4075
   11SAPS  O13B 1339   5.981   2.281   1.760  0.1595  0.3251 -0.2990
   11SAPS   C11 1340   5.880   2.448   1.999  0.1946  0.5468  0.6749
   11SAPS  H11A 1341   5.968   2.477   2.060 -1.2076  0.0954  3.0283
   11SAPS  H11B 1342   5.857   2.339   1.996  0.0127  0.5917  0.4407
   11SAPS     P 1343   5.686   2.481   2.171  0.1538  0.0402 -0.1975
   11SAPS   O13 1344   5.776   2.497   2.285 -0.3403  0.3261 -0.0877
   11SAPS   O14 1345   5.555   2.551   2.188  0.1046 -0.4138 -0.1007
   11SAPS   O12 1346   5.768   2.523   2.043 -0.5498  0.2763  0.1984
   11SAPS   O11 1347   5.650   2.325   2.141  0.3405 -0.4152 -0.1426
   11SAPS    C1 1348   5.735   2.224   2.186 -1.1859 -0.7521  0.2297
   11SAPS    HA 1349   5.742   2.150   2.103  3.1623 -2.3495  1.7216
   11SAPS    HB 1350   5.838   2.259   2.209 -0.3287 -2.4082 -0.8840
   11SAPS    C2 1351   5.680   2.161   2.310  0.4272  0.4325  0.6268
   11SAPS    HS 1352   5.585   2.111   2.284 -0.0180 -0.3581  3.4262
   11SAPS   O21 1353   5.659   2.252   2.416  0.4965  0.5884 -0.3386
   11SAPS   C21 1354   5.620   2.205   2.532  0.6335 -0.3976 -0.5426
   11SAPS   O22 1355   5.560   2.098   2.550  0.3292 -0.7937 -0.4327
   11SAPS   C22 1356   5.667   2.293   2.645  0.5552  0.5261 -0.4948
   11SAPS   H2R 1357   5.763   2.344   2.622  0.0996  1.5951 -0.0887
   11SAPS   H2S 1358   5.593   2.375   2.656 -0.5101 -0.5718  0.9593
   11SAPS    C3 1359   5.761   2.034   2.343 -0.1652  0.6628 -0.0517
   11SAPS    HX 1360   5.785   1.973   2.254  1.1106  0.7210  0.2347
   11SAPS    HY 1361   5.698   1.960   2.398  0.4948  0.8549  0.9911
   11SAPS   O31 1362   5.879   2.061   2.419 -0.3736 -0.1661 -0.0313
   11SAPS   C31 1363   5.997   2.071   2.356  0.2606  0.6233  0.4664
   11SAPS   O32 1364   6.001   2.075   2.234  0.4522 -0.7152  0.2112
   11SAPS   C32 1365   6.112   2.069   2.456  0.3766 -0.6889 -0.2341
   11SAPS   H2X 1366   6.194   2.026   2.395  0.3607 -1.2125  0.1098
   11SAPS   H2Y 1367   6.088   1.992   2.532  0.3980 -0.7028 -0.2414
   11SAPS   C23 1368   5.677   2.232   2.787  0.0584  1.0398 -0.1558
   11SAPS   H3R 1369   5.777   2.188   2.807 -0.1380  1.8945  3.3710
   11SAPS   H3S 1370   5.603   2.149   2.792  0.7692  0.4430  0.5383
   11SAPS   C24 1371   5.635   2.329   2.902 -0.4995 -0.3339  0.6993
   11SAPS   H4R 1372   5.524   2.330   2.899 -0.4982  0.7747  0.6140
   11SAPS   H4S 1373   5.666   2.433   2.876 -0.1897 -0.4076  0.7692
   11SAPS   C25 1374   5.684   2.288   3.034 -0.4299 -0.5549 -0.1073
   11SAPS   H5R 1375   5.636   2.195   3.068 -3.3662  0.3529 -1.3879
   11SAPS   C26 1376   5.774   2.353   3.110  0.7891  0.9706 -0.3424
   11SAPS   H6R 1377   5.809   2.302   3.200  1.0920  0.8197 -0.5449
   11SAPS   C27 1378   5.842   2.484   3.077  0.3461  0.7506 -0.5895
   11SAPS   H7R 1379   5.846   2.496   2.967  0.9304  1.5074 -0.4980
   11SAPS   H7S 1380   5.950   2.472   3.101  0.6793  0.8400 -1.9526
   11SAPS   C28 1381   5.772   2.596   3.156  0.2636 -0.4767  0.5901
   11SAPS   H8R 1382   5.683   2.644   3.112  0.3426  3.5173  4.1727
   11SAPS   C29 1383   5.805   2.641   3.277 -1.1350 -0.2010  0.0851
   11SAPS   H9R 1384   5.746   2.723   3.321 -1.3707 -0.5686  0.4649
   11SAPS  C210 1385   5.928   2.614   3.358 -0.0549  0.0568 -0.3338
   11SAPS  H10R 1386   5.949   2.704   3.421  1.6769  0.5724 -1.5784
   11SAPS  H10S 1387   6.009   2.596   3.285 -1.4642 -0.5305 -1.8211
   11SAPS  C211 1388   5.934   2.494   3.452  0.2471  0.1844 -0.8925
   11SAPS  H11R 1389   5.982   2.403   3.414 -0.7971  0.4251 -2.9102
   11SAPS  C212 1390   5.887   2.499   3.580  0.6169 -0.4213 -0.7108
   11SAPS  H12R 1391   5.880   2.408   3.641  1.1115  0.8283  1.2804
   11SAPS  C213 1392   5.812   2.614   3.641  0.3114  0.1486  0.2958
   11SAPS  H13R 1393   5.737   2.568   3.709 -0.0448 -0.7650 -0.7088
   11SAPS  H13S 1394   5.762   2.668   3.558  0.9079 -0.6442 -0.5958
   11SAPS  C214 1395   5.894   2.712   3.717 -0.3647  0.9208  0.2264
   11SAPS  H14R 1396   5.987   2.733   3.662  0.5619 -1.8079  0.5676
   11SAPS  C215 1397   5.872   2.780   3.837 -0.0856 -0.0590 -0.1904
   11SAPS  H15R 1398   5.950   2.844   3.880  0.3117 -0.6121 -0.0754
   11SAPS  C216 1399   5.752   2.769   3.923  0.4411 -0.5560  0.2308
   11SAPS  H16R 1400   5.679   2.710   3.864  0.8294 -1.7240  0.8857
   11SAPS  H16S 1401   5.713   2.870   3.946  1.8909 -0.0552  0.5681
   11SAPS  C217 1402   5.764   2.680   4.054 -0.3175 -0.4752  0.6007
   11SAPS  H17R 1403   5.803   2.580   4.026  1.3657  0.3594 -0.1406
   11SAPS  H17S 1404   5.662   2.667   4.096  0.4176 -1.6857  2.1336
   11SAPS  C218 1405   5.862   2.728   4.163 -0.1801 -0.1500  0.5062
   11SAPS  H18R 1406   5.815   2.712   4.262 -0.1396 -1.9863  0.2548
   11SAPS  H18S 1407   5.885   2.836   4.145  0.2989 -0.1517  1.0867
   11SAPS  C219 1408   5.995   2.650   4.150  0.0850  0.0702 -0.6042
   11SAPS  H19R 1409   6.024   2.646   4.043  1.8753  0.3949 -0.1672
   11SAPS  H19S 1410   5.983   2.543   4.177  0.3367  0.7562  2.6418
   11SAPS  C220 1411   6.108   2.709   4.223  0.3608 -0.2949  0.2555
   11SAPS  H20R 1412   6.076   2.728   4.328  0.1287 -2.6814  0.6569
   11SAPS  H20S 1413   6.135   2.810   4.186  2.0839 -0.8833 -0.1718
   11SAPS  H20T 1414   6.193   2.638   4.221 -0.2441 -1.1785 -4.2251
   11SAPS   C33 1415   6.157   2.202   2.517  0.3735  0.2132 -0.0938
   11SAPS   H3X 1416   6.124   2.282   2.448 -1.7320  0.1014  0.7395
   11SAPS   H3Y 1417   6.268   2.209   2.527  0.1955 -0.0629  2.5689
   11SAPS   C34 1418   6.092   2.225   2.651  0.4498  0.9017  0.5906
   11SAPS   H4X 1419   6.170   2.204   2.728  0.8643  0.8096  0.1491
   11SAPS   H4Y 1420   5.992   2.178   2.655 -0.3524  2.4433 -0.3334
   11SAPS   C35 1421   6.068   2.377   2.669  0.3172 -0.3234  0.1247
   11SAPS   H5X 1422   6.001   2.386   2.757  0.8778 -1.5219  0.6990
   11SAPS   H5Y 1423   6.015   2.421   2.582  0.3727  1.4037  0.9292
   11SAPS   C36 1424   6.198   2.466   2.687  0.5745 -0.4655  0.0325
   11SAPS   H6X 1425   6.264   2.421   2.611 -1.3455 -1.7149 -0.9676
   11SAPS   H6Y 1426   6.246   2.450   2.786 -0.9633 -0.8543  0.7451
   11SAPS   C37 1427   6.180   2.618   2.662  0.2147 -1.0006  0.2439
   11SAPS   H7X 1428   6.151   2.631   2.556 -2.1819 -1.8619  0.7321
   11SAPS   H7Y 1429   6.284   2.656   2.667  0.5733 -1.8377 -0.6724
   11SAPS   C38 1430   6.083   2.698   2.751  0.0793  0.0847 -0.2231
   11SAPS   H8X 1431   5.985   2.663   2.713 -0.1365  1.5243 -1.0711
   11SAPS   H8Y 1432   6.088   2.807   2.729 -2.3973  0.7290  1.8514
   11SAPS   C39 1433   6.104   2.688   2.904 -0.4952  0.0883  0.5870
   11SAPS   H9X 1434   6.214   2.694   2.918 -0.2796 -1.1718 -0.3230
   11SAPS   H9Y 1435   6.072   2.591   2.948 -1.8046  0.2839  0.0915
   11SAPS  C310 1436   6.034   2.790   2.992  0.1937  0.5865 -0.6749
   11SAPS  H10X 1437   6.036   2.759   3.099  1.3297 -0.1093 -0.8806
   11SAPS  H10Y 1438   5.927   2.805   2.967 -0.0209 -2.3677 -1.9126
   11SAPS  C311 1439   6.110   2.927   2.987  0.5520  0.7286  0.1152
   11SAPS  H11X 1440   6.113   2.962   2.881 -1.0884 -1.9795 -0.9404
   11SAPS  H11Y 1441   6.211   2.917   3.031  1.3095  1.4954 -1.3967
   11SAPS  C312 1442   6.048   3.036   3.072 -0.6550 -0.1913  0.4804
   11SAPS  H12X 1443   5.951   3.076   3.036 -1.7456 -3.1140 -0.1006
   11SAPS  H12Y 1444   6.108   3.129   3.056 -1.1350  0.3363  1.6227
   11SAPS  C313 1445   6.042   3.010   3.219 -0.2960 -0.6228 -0.5339
   11SAPS  H13X 1446   6.138   2.967   3.255 -1.5065 -0.5404  3.2812
   11SAPS  H13Y 1447   5.970   2.932   3.253 -0.6094 -0.1205 -0.0348
   11SAPS  C314 1448   6.010   3.139   3.289 -0.7622  0.0570  1.0625
   11SAPS  H14X 1449   5.909   3.176   3.259 -1.1610 -2.3359 -0.8086
   11SAPS  H14Y 1450   6.088   3.214   3.262  0.0424 -1.0197  0.3301
   11SAPS  C315 1451   6.015   3.139   3.447 -0.0863 -0.2886  0.0444
   11SAPS  H15X 1452   5.914   3.183   3.464  0.0210  0.0115 -0.0843
   11SAPS  H15Y 1453   6.087   3.213   3.488 -1.1038  0.4211  0.5997
   11SAPS  C316 1454   6.042   3.010   3.515  0.2726  0.1515  0.3196
   11SAPS  H16X 1455   6.142   2.971   3.486 -0.4783 -0.0022 -2.3343
   11SAPS  H16Y 1456   5.969   2.934   3.481  1.1234 -1.2384  1.4764
   11SAPS  C317 1457   6.051   3.013   3.669 -0.7014 -0.2869 -0.1608
   11SAPS  H17X 1458   6.094   2.913   3.690  0.2257 -0.1822 -1.3950
   11SAPS  H17Y 1459   5.947   3.018   3.707 -0.7743 -0.3649 -0.3458
   11SAPS  C318 1460   6.138   3.125   3.732 -0.3614  0.5910 -0.5266
   11SAPS  H18X 1461   6.162   3.093   3.836 -1.5177  3.1723  0.6173
   11SAPS  H18Y 1462   6.079   3.218   3.743 -0.3361  0.5225  0.2201
   11SAPS  H18Z 1463   6.240   3.137   3.689 -0.0323 -2.2287 -0.7293
   12SAPS     N 1464   4.309   1.851   2.356 -0.3434  0.0645 -0.3405
   12SAPS   HN1 1465   4.342   1.859   2.454  1.9372 -1.5309 -0.8900
   12SAPS   HN2 1466   4.350   1.930   2.303  0.6915 -1.1704 -1.4574
   12SAPS   HN3 1467   4.205   1.849   2.350 -0.4409 -2.3467  0.8730
   12SAPS   C12 1468   4.360   1.720   2.316 -0.2773 -0.3324 -0.0425
   12SAPS  H12A 1469   4.316   1.654   2.389  0.7604 -0.1144  0.7991
   12SAPS   C13 1470   4.330   1.678   2.163  0.0757 -0.0169 -0.4695
   12SAPS  O13A 1471   4.267   1.754   2.086 -0.5776  0.0935 -0.4214
   12SAPS  O13B 1472   4.371   1.559   2.131  0.3038  0.1353  0.5539
   12SAPS   C11 1473   4.509   1.724   2.337  0.2914 -0.1178 -0.3085
   12SAPS  H11A 1474   4.560   1.798   2.271 -0.5168 -0.6085 -1.5147
   12SAPS  H11B 1475   4.557   1.629   2.307  0.8475 -0.0377  0.3057
   12SAPS     P 1476   4.697   1.720   2.517  0.4975 -0.2342 -0.3359
   12SAPS   O13 1477   4.801   1.789   2.434  0.4845  0.3712 -0.3120
   12SAPS   O14 1478   4.710   1.732   2.664  0.5837  0.5302  0.2089
   12SAPS   O12 1479   4.545   1.758   2.471  0.2529  0.0752 -0.2507
   12SAPS   O11 1480   4.701   1.563   2.486 -0.0494  0.7246  0.0028
   12SAPS    C1 1481   4.647   1.473   2.582 -0.4064 -0.0935  0.0031
   12SAPS    HA 1482   4.599   1.530   2.665  2.3385  1.1279  0.8761
   12SAPS    HB 1483   4.567   1.409   2.539  0.3837  0.1644 -1.9161
   12SAPS    C2 1484   4.755   1.371   2.640 -0.6060  0.9914 -0.7430
   12SAPS    HS 1485   4.696   1.295   2.695  0.6449  0.1656 -0.5091
   12SAPS   O21 1486   4.857   1.444   2.711 -0.6403  0.6348  0.1165
   12SAPS   C21 1487   4.827   1.480   2.834 -0.3249  0.3420 -0.4817
   12SAPS   O22 1488   4.722   1.455   2.889  0.2760 -0.0391  0.0413
   12SAPS   C22 1489   4.937   1.555   2.903 -0.5676 -0.2343  0.1133
   12SAPS   H2R 1490   5.039   1.513   2.886  0.3582  2.5865 -2.1512
   12SAPS   H2S 1491   4.937   1.660   2.868 -0.0609 -0.3535 -0.2574
   12SAPS    C3 1492   4.818   1.287   2.519  0.4003  0.2366  0.2958
   12SAPS    HX 1493   4.881   1.357   2.460 -1.5545  2.6175  0.8708
   12SAPS    HY 1494   4.727   1.259   2.463  1.1702 -0.6629 -0.5385
   12SAPS   O31 1495   4.884   1.164   2.565  0.2982  0.1876 -0.2149
   12SAPS   C31 1496   5.016   1.166   2.581 -0.3350 -0.1652 -0.2399
   12SAPS   O32 1497   5.092   1.255   2.548 -0.3436 -0.0254  0.3259
   12SAPS   C32 1498   5.057   1.034   2.656 -0.0782 -0.5357 -0.3035
   12SAPS   H2X 1499   5.093   0.974   2.570  2.1280 -0.5992  0.5832
   12SAPS   H2Y 1500   4.967   0.977   2.686  0.2480 -0.3328  1.1553
   12SAPS   C23 1501   4.920   1.555   3.058 -0.1484  0.2532  0.2578
   12SAPS   H3R 1502   4.918   1.449   3.092 -2.0038  0.3674  0.6160
   12SAPS   H3S 1503   4.818   1.597   3.073 -0.7442 -0.8342 -0.6163
   12SAPS   C24 1504   5.020   1.637   3.139  0.4251  0.5654  0.6764
   12SAPS   H4R 1505   4.970   1.641   3.238 -2.2416 -0.1028 -0.5586
   12SAPS   H4S 1506   5.027   1.737   3.091 -3.1339 -0.1232 -1.6799
   12SAPS   C25 1507   5.152   1.566   3.140  0.0551 -0.7505 -0.3973
   12SAPS   H5R 1508   5.206   1.566   3.044 -0.4729  0.1477 -0.7106
   12SAPS   C26 1509   5.209   1.497   3.241  0.6885 -0.1365  0.7343
   12SAPS   H6R 1510   5.306   1.447   3.225  0.0039 -0.8808 -1.4148
   12SAPS   C27 1511   5.144   1.457   3.375 -0.3511  0.5433  0.1733
   12SAPS   H7R 1512   5.169   1.349   3.388  2.6205  1.1089 -0.1519
   12SAPS   H7S 1513   5.033   1.464   3.374 -0.3459  1.4741  2.1793
   12SAPS   C28 1514   5.188   1.540   3.493 -0.4597 -0.6159  0.2879
   12SAPS   H8R 1515   5.252   1.629   3.482 -0.2808 -0.4705  2.1934
   12SAPS   C29 1516   5.152   1.501   3.617 -0.8674  0.6099  0.6880
   12SAPS   H9R 1517   5.188   1.557   3.705  0.3378  2.4332 -0.9083
   12SAPS  C210 1518   5.077   1.372   3.642  0.5712  0.0430 -0.0060
   12SAPS  H10R 1519   5.137   1.281   3.618  1.1843  0.1015  1.2043
   12SAPS  H10S 1520   4.990   1.343   3.580  1.4768 -1.8395 -0.4599
   12SAPS  C211 1521   5.027   1.373   3.785 -0.1201  0.3907  0.5343
   12SAPS  H11R 1522   4.922   1.406   3.790 -0.0782  0.7777 -0.8171
   12SAPS  C212 1523   5.101   1.365   3.902 -0.0300 -0.4314 -0.3516
   12SAPS  H12R 1524   5.041   1.372   3.994  0.6176  1.0675 -0.0040
   12SAPS  C213 1525   5.243   1.322   3.918  0.0987 -0.2132  0.2506
   12SAPS  H13R 1526   5.289   1.416   3.956 -2.4035  0.4803  1.7945
   12SAPS  H13S 1527   5.294   1.296   3.823  0.0565  2.4652 -0.5622
   12SAPS  C214 1528   5.287   1.218   4.021 -0.0557  1.0812  0.5331
   12SAPS  H14R 1529   5.323   1.125   3.975 -1.8100 -0.3228  1.8816
   12SAPS  C215 1530   5.273   1.215   4.154  0.8062  0.0519 -0.0051
   12SAPS  H15R 1531   5.324   1.146   4.222 -2.2529  0.5974  3.1244
   12SAPS  C216 1532   5.220   1.338   4.227 -0.3281  0.4237  0.1940
   12SAPS  H16R 1533   5.189   1.424   4.165  3.0519 -0.3057 -2.9036
   12SAPS  H16S 1534   5.298   1.385   4.290 -3.2247  2.9632  2.1278
   12SAPS  C217 1535   5.115   1.312   4.338 -0.1282  0.0558 -0.4630
   12SAPS  H17R 1536   5.149   1.227   4.400 -0.1772  0.4351  0.0988
   12SAPS  H17S 1537   5.021   1.277   4.290 -0.7384  0.8921  0.0728
   12SAPS  C218 1538   5.085   1.442   4.427  0.2080  1.0611  0.0666
   12SAPS  H18R 1539   5.086   1.529   4.359  1.0121  2.5367  1.8771
   12SAPS  H18S 1540   5.173   1.463   4.490  2.1882 -1.7981 -1.5124
   12SAPS  C219 1541   4.954   1.427   4.510  0.1423 -0.6566 -0.3535
   12SAPS  H19R 1542   4.873   1.399   4.438 -0.9872 -0.9783  0.9998
   12SAPS  H19S 1543   4.942   1.526   4.557  0.9756 -1.3093  1.3001
   12SAPS  C220 1544   4.968   1.324   4.615  0.5543  0.1253  0.2725
   12SAPS  H20R 1545   4.988   1.221   4.579  1.4416 -0.3914  2.0993
   12SAPS  H20S 1546   4.874   1.319   4.674  0.6922  0.1026  0.4927
   12SAPS  H20T 1547   5.054   1.348   4.681  1.4605  0.4913 -1.0086
   12SAPS   C33 1548   5.146   1.049   2.775 -1.1012  0.6375 -0.0984
   12SAPS   H3X 1549   5.226   1.125   2.761 -0.1781  0.3540  2.9636
   12SAPS   H3Y 1550   5.186   0.946   2.786 -2.5146  0.0922  0.0481
   12SAPS   C34 1551   5.066   1.091   2.899  0.5341  0.0211 -0.3525
   12SAPS   H4X 1552   4.969   1.039   2.900 -0.7962  2.2222  3.0326
   12SAPS   H4Y 1553   5.043   1.198   2.880  1.1482  0.0476 -1.0489
   12SAPS   C35 1554   5.141   1.064   3.029  0.1716  0.3614 -0.5155
   12SAPS   H5X 1555   5.236   1.119   3.050 -0.6642  1.4057  0.6296
   12SAPS   H5Y 1556   5.157   0.955   3.016 -0.2148  0.5218 -2.8996
   12SAPS   C36 1557   5.039   1.082   3.146 -0.1312  0.2703  0.0126
   12SAPS   H6X 1558   4.956   1.012   3.123 -0.1123  0.2005  0.1546
   12SAPS   H6Y 1559   4.996   1.184   3.150  0.4799  0.5395 -0.1822
   12SAPS   C37 1560   5.095   1.044   3.284 -0.3198 -0.3070  0.2681
   12SAPS   H7X 1561   5.196   1.088   3.302  1.0895 -2.6322 -1.3142
   12SAPS   H7Y 1562   5.128   0.938   3.280 -0.1541 -0.2295 -0.6045
   12SAPS   C38 1563   5.000   1.092   3.395 -0.2395 -0.5629 -0.2524
   12SAPS   H8X 1564   4.895   1.077   3.362 -0.3113 -0.0215 -0.2897
   12SAPS   H8Y 1565   5.013   1.201   3.411  1.9985 -0.6487 -1.2523
   12SAPS   C39 1566   5.035   1.033   3.531  0.2674 -0.4181 -0.7565
   12SAPS   H9X 1567   5.127   1.085   3.567  0.6279 -0.8137 -1.0919
   12SAPS   H9Y 1568   5.057   0.923   3.529  1.0802 -0.3287  1.0377
   12SAPS  C310 1569   4.932   1.053   3.639  0.8450 -1.0353  0.1704
   12SAPS  H10X 1570   4.838   0.999   3.615 -0.2685  1.0847 -0.4545
   12SAPS  H10Y 1571   4.912   1.162   3.641 -2.2806 -1.5132 -0.3858
   12SAPS  C311 1572   4.986   1.003   3.770  0.3824  0.0135 -0.1760
   12SAPS  H11X 1573   5.065   1.064   3.819  1.3331 -2.0045  0.8872
   12SAPS  H11Y 1574   5.021   0.899   3.756  0.0505 -0.8164  3.7701
   12SAPS  C312 1575   4.881   0.994   3.890  0.5349  0.9255  0.0125
   12SAPS  H12X 1576   4.805   0.916   3.867  0.9878  0.7278 -0.8371
   12SAPS  H12Y 1577   4.829   1.089   3.917  0.4257  1.1228 -0.8805
   12SAPS  C313 1578   4.964   0.970   4.015  0.2273 -0.2985 -0.4196
   12SAPS  H13X 1579   5.028   1.059   4.031  1.7464 -0.8897 -2.7866
   12SAPS  H13Y 1580   5.032   0.882   4.011 -1.4219 -1.5665 -1.8269
   12SAPS  C314 1581   4.886   0.942   4.144 -0.3330  0.2968 -0.1129
   12SAPS  H14X 1582   4.841   0.841   4.139  0.2414  0.0811 -1.6134
   12SAPS  H14Y 1583   4.801   1.012   4.159 -2.0491 -0.8424 -3.4395
   12SAPS  C315 1584   4.976   0.940   4.271  0.6665  0.3423 -0.2856
   12SAPS  H15X 1585   5.007   1.040   4.307  1.8391 -0.2756  0.4897
   12SAPS  H15Y 1586   5.064   0.878   4.244  0.3564 -0.2555  0.0450
   12SAPS  C316 1587   4.909   0.859   4.385 -0.1394 -0.4607  0.3707
   12SAPS  H16X 1588   4.903   0.749   4.372 -0.2889 -0.6448  1.7741
   12SAPS  H16Y 1589   4.803   0.890   4.397  0.1783  1.6000 -1.5218
   12SAPS  C317 1590   4.983   0.886   4.520 -0.2658  0.4398  0.1482
   12SAPS  H17X 1591   4.987   0.997   4.533 -2.3848  1.1866 -4.0317
   12SAPS  H17Y 1592   5.086   0.845   4.521 -0.8664 -1.1413 -0.3684
   12SAPS  C318 1593   4.902   0.828   4.645 -0.3770 -0.2574 -0.2736
   12SAPS  H18X 1594   4.801   0.874   4.650 -0.1232  0.7922 -2.9345
   12SAPS  H18Y 1595   4.965   0.836   4.735  1.4173  0.2378 -1.5260
   12SAPS  H18Z 1596   4.886   0.719   4.629 -2.2930 -0.2865  1.4222
   13SAPS     N 1597   2.816   6.810   2.053 -0.0283  0.5855  0.3943
   13SAPS   HN1 1598   2.822   6.715   2.095 -2.4369  1.0957  2.0773
   13SAPS   HN2 1599   2.882   6.871   2.105 -0.0207 -1.3547  2.8295
   13SAPS   HN3 1600   2.719   6.843   2.068  0.3175  0.8439  2.2843
   13SAPS   C12 1601   2.851   6.798   1.905 -0.0788 -0.3147 -0.9868
   13SAPS  H12A 1602   2.784   6.719   1.872 -0.8374  0.3775 -1.1489
   13SAPS   C13 1603   2.832   6.928   1.825  0.3984  0.2010  1.1429
   13SAPS  O13A 1604   2.799   7.034   1.882  0.1478  0.0289  0.1854
   13SAPS  O13B 1605   2.841   6.929   1.697  0.0798 -0.3774 -0.4118
   13SAPS   C11 1606   3.000   6.754   1.897  0.1272 -0.5022  0.0750
   13SAPS  H11A 1607   3.071   6.834   1.927 -0.4225  0.9547 -2.2125
   13SAPS  H11B 1608   3.010   6.734   1.788  0.9835  0.8861 -0.1306
   13SAPS     P 1609   3.158   6.613   2.037 -0.1230  0.4246  0.2263
   13SAPS   O13 1610   3.171   6.484   2.104  0.2564  0.1316 -0.0933
   13SAPS   O14 1611   3.272   6.650   1.949  0.4913  0.0760 -0.6683
   13SAPS   O12 1612   3.025   6.621   1.953  0.5100  0.3767  0.2049
   13SAPS   O11 1613   3.120   6.721   2.142  0.2224  0.4812 -0.4016
   13SAPS    C1 1614   3.216   6.819   2.187  0.0633  0.2896 -0.0041
   13SAPS    HA 1615   3.244   6.887   2.104  1.1865 -0.6854 -0.4497
   13SAPS    HB 1616   3.164   6.873   2.269  1.4923  0.4800  0.7932
   13SAPS    C2 1617   3.351   6.765   2.242  0.0698 -0.8221  0.1601
   13SAPS    HS 1618   3.413   6.718   2.162  1.9128 -1.3465  1.8246
   13SAPS   O21 1619   3.330   6.670   2.347 -0.6310  0.4989  0.2280
   13SAPS   C21 1620   3.440   6.624   2.409 -0.0576 -0.0081 -0.0956
   13SAPS   O22 1621   3.553   6.625   2.366 -0.3298 -0.3892  0.8810
   13SAPS   C22 1622   3.393   6.541   2.531 -0.1815 -0.1961 -0.2699
   13SAPS   H2R 1623   3.292   6.563   2.570  0.6051 -0.4179  2.0680
   13SAPS   H2S 1624   3.406   6.440   2.487  2.0834 -1.5880  3.0874
   13SAPS    C3 1625   3.448   6.892   2.286  0.7396  0.2668 -0.4162
   13SAPS    HX 1626   3.454   6.955   2.194 -3.1408  0.0440 -0.9832
   13SAPS    HY 1627   3.549   6.852   2.311 -0.8080 -3.3938  0.5320
   13SAPS   O31 1628   3.407   6.962   2.406 -0.2771 -0.2190 -0.0579
   13SAPS   C31 1629   3.309   7.055   2.396  0.7537 -0.5406  0.7215
   13SAPS   O32 1630   3.283   7.113   2.296 -0.2043  0.0625  0.2087
   13SAPS   C32 1631   3.231   7.054   2.524  0.2693 -0.1892 -0.5992
   13SAPS   H2X 1632   3.141   7.117   2.509  1.4320  1.6025 -0.3853
   13SAPS   H2Y 1633   3.294   7.108   2.598 -0.9254 -0.0250  0.3351
   13SAPS   C23 1634   3.490   6.568   2.650  0.6330  0.0041 -0.3027
   13SAPS   H3R 1635   3.505   6.678   2.654 -1.2706  0.2850  1.9528
   13SAPS   H3S 1636   3.589   6.522   2.633  0.7204 -0.2909  0.9049
   13SAPS   C24 1637   3.426   6.510   2.781 -0.5755 -0.0484  0.0784
   13SAPS   H4R 1638   3.501   6.473   2.854 -0.2578  0.8844  0.2319
   13SAPS   H4S 1639   3.377   6.412   2.760 -0.0490  0.0518 -1.8205
   13SAPS   C25 1640   3.328   6.601   2.849 -0.0602  0.6141 -0.5070
   13SAPS   H5R 1641   3.233   6.619   2.796 -1.1968 -1.6031  0.6493
   13SAPS   C26 1642   3.343   6.667   2.964  0.5827 -0.1304  0.8520
   13SAPS   H6R 1643   3.259   6.726   3.003  0.0783 -0.7980  0.7976
   13SAPS   C27 1644   3.460   6.661   3.062 -0.4185  0.3691  0.1090
   13SAPS   H7R 1645   3.514   6.564   3.051  0.5206  0.8815  0.0651
   13SAPS   H7S 1646   3.421   6.662   3.166 -0.4767  1.8648  0.0929
   13SAPS   C28 1647   3.573   6.760   3.047 -1.2368 -0.1212  0.3337
   13SAPS   H8R 1648   3.598   6.784   2.943  3.1924 -2.4515  0.6316
   13SAPS   C29 1649   3.629   6.832   3.145 -0.5770 -0.3603  0.0761
   13SAPS   H9R 1650   3.718   6.888   3.112 -0.4855 -0.4633  0.1479
   13SAPS  C210 1651   3.603   6.818   3.294  0.1906 -0.3075 -0.3550
   13SAPS  H10R 1652   3.669   6.736   3.329  0.3055  0.3597  1.0543
   13SAPS  H10S 1653   3.496   6.798   3.316  0.6307 -1.1578  1.1016
   13SAPS  C211 1654   3.634   6.947   3.363  0.3936 -0.8137 -0.1936
   13SAPS  H11R 1655   3.576   7.032   3.324  1.2903 -0.0324  0.1689
   13SAPS  C212 1656   3.722   6.981   3.457 -1.0264 -0.2570  0.0389
   13SAPS  H12R 1657   3.741   7.085   3.486  2.3703 -0.3829 -1.2415
   13SAPS  C213 1658   3.830   6.895   3.521  0.2245 -0.6458  0.5754
   13SAPS  H13R 1659   3.837   6.793   3.477  0.5260  0.2397 -1.5850
   13SAPS  H13S 1660   3.810   6.873   3.628  2.6672  0.6407  1.3812
   13SAPS  C214 1661   3.972   6.945   3.500  1.0100  0.0252 -0.5492
   13SAPS  H14R 1662   4.011   6.933   3.397 -1.0498 -1.7008 -1.1985
   13SAPS  C215 1663   4.056   6.979   3.596  0.0024 -0.5588 -0.0850
   13SAPS  H15R 1664   4.160   7.009   3.576  0.2237 -0.9760  0.4264
   13SAPS  C216 1665   4.026   7.001   3.742  0.3950  0.5372 -0.3414
   13SAPS  H16R 1666   4.117   7.005   3.805 -0.5580  0.8246  1.0541
   13SAPS  H16S 1667   3.975   6.909   3.777  1.6639 -0.7261 -1.6613
   13SAPS  C217 1668   3.951   7.132   3.773  0.0014 -0.1334 -0.2874
   13SAPS  H17R 1669   3.866   7.152   3.705 -1.1243 -3.6460 -0.0809
   13SAPS  H17S 1670   4.015   7.219   3.744  0.2576 -0.7996 -1.7961
   13SAPS  C218 1671   3.888   7.144   3.913 -0.0111 -0.4122 -0.2148
   13SAPS  H18R 1672   3.920   7.239   3.962  1.2365 -0.5167 -0.7717
   13SAPS  H18S 1673   3.935   7.060   3.969 -0.4765 -1.8535 -1.8902
   13SAPS  C219 1674   3.734   7.147   3.904  0.4222  0.3315  0.3071
   13SAPS  H19R 1675   3.700   7.057   3.849 -1.4795  1.2080 -0.0664
   13SAPS  H19S 1676   3.691   7.231   3.844  0.9445  0.7047  0.4492
   13SAPS  C220 1677   3.669   7.135   4.046 -0.7400 -0.1484  0.1506
   13SAPS  H20R 1678   3.680   7.031   4.084  0.9294 -0.0419  0.0193
   13SAPS  H20S 1679   3.559   7.153   4.041 -0.9431 -1.2331  0.5200
   13SAPS  H20T 1680   3.715   7.209   4.115 -2.1616  1.0777 -0.1525
   13SAPS   C33 1681   3.207   6.913   2.575  0.6863  0.0569 -0.8565
   13SAPS   H3X 1682   3.302   6.863   2.601  0.7998  0.1877 -1.0195
   13SAPS   H3Y 1683   3.150   6.860   2.494 -2.0407  0.4778  0.6654
   13SAPS   C34 1684   3.125   6.918   2.704  0.9369  0.0679  0.0118
   13SAPS   H4X 1685   3.101   6.814   2.734 -0.5714 -0.3889 -2.4015
   13SAPS   H4Y 1686   3.036   6.984   2.689  0.3789 -0.4787  0.8442
   13SAPS   C35 1687   3.203   6.979   2.825  0.0605 -0.5480  0.4228
   13SAPS   H5X 1688   3.235   7.083   2.801  0.9499 -0.4271  1.9793
   13SAPS   H5Y 1689   3.299   6.924   2.831  0.6901  0.5182  0.5011
   13SAPS   C36 1690   3.139   6.984   2.963  0.3522 -0.0850  0.2596
   13SAPS   H6X 1691   3.099   6.883   2.981 -1.7127  0.6959  0.3358
   13SAPS   H6Y 1692   3.051   7.053   2.961  1.5688  1.5301 -1.2323
   13SAPS   C37 1693   3.227   7.028   3.075  0.1851  0.4956 -0.9886
   13SAPS   H7X 1694   3.280   7.120   3.044  0.2795  1.6220  2.1473
   13SAPS   H7Y 1695   3.307   6.953   3.090  0.0090  0.4125 -0.4441
   13SAPS   C38 1696   3.148   7.042   3.203 -0.8480 -0.3592  0.9127
   13SAPS   H8X 1697   3.072   6.962   3.209 -2.5286  1.0122 -0.8343
   13SAPS   H8Y 1698   3.102   7.143   3.207 -2.3176 -0.9504 -0.2841
   13SAPS   C39 1699   3.235   7.014   3.326 -0.9383 -0.3776  0.0092
   13SAPS   H9X 1700   3.322   7.083   3.324 -0.5704 -0.8478 -0.1736
   13SAPS   H9Y 1701   3.273   6.913   3.300 -0.6705  0.3463 -2.6395
   13SAPS  C310 1702   3.151   7.019   3.452  0.5926  0.6455  0.5343
   13SAPS  H10X 1703   3.077   6.936   3.454 -1.0981  2.0230 -1.2478
   13SAPS  H10Y 1704   3.100   7.118   3.452  1.4609  1.1072  1.5866
   13SAPS  C311 1705   3.234   7.014   3.581  0.1779  0.2558  0.4893
   13SAPS  H11X 1706   3.301   7.102   3.575  0.2927  0.2710  1.6673
   13SAPS  H11Y 1707   3.294   6.921   3.579  0.4129  0.4154 -1.6121
   13SAPS  C312 1708   3.148   7.039   3.701 -0.6270 -0.7386  0.3148
   13SAPS  H12X 1709   3.087   6.946   3.710  1.6257 -2.4546 -1.0546
   13SAPS  H12Y 1710   3.066   7.113   3.691  0.3153  0.1691 -0.9575
   13SAPS  C313 1711   3.238   7.067   3.823 -0.0159 -0.0751 -0.7969
   13SAPS  H13X 1712   3.284   7.167   3.807 -1.5533  0.7114 -0.5757
   13SAPS  H13Y 1713   3.315   6.989   3.834  0.1428  0.1161 -0.5456
   13SAPS  C314 1714   3.158   7.082   3.958  0.4977  0.1638 -0.4544
   13SAPS  H14X 1715   3.083   7.001   3.955 -0.0337  0.6473 -0.3107
   13SAPS  H14Y 1716   3.117   7.184   3.972 -0.1875  0.1580 -2.2678
   13SAPS  C315 1717   3.247   7.064   4.076  0.6356  0.9593 -0.0423
   13SAPS  H15X 1718   3.335   7.132   4.071  1.3995 -0.0743 -1.3669
   13SAPS  H15Y 1719   3.282   6.959   4.066 -1.0329  0.4643 -1.0931
   13SAPS  C316 1720   3.180   7.089   4.215 -0.4728  0.3046  0.1321
   13SAPS  H16X 1721   3.085   7.032   4.224  0.6646 -1.8151 -0.3931
   13SAPS  H16Y 1722   3.174   7.198   4.230  0.4880  0.2983  0.5947
   13SAPS  C317 1723   3.271   7.046   4.336 -0.9064 -0.2275  0.3280
   13SAPS  H17X 1724   3.264   6.936   4.334 -2.2959 -0.1470 -0.2635
   13SAPS  H17Y 1725   3.233   7.073   4.437 -2.9673 -2.1548  0.1472
   13SAPS  C318 1726   3.423   7.079   4.319  0.0629 -0.2660 -0.0683
   13SAPS  H18X 1727   3.463   7.063   4.217  2.3681  1.4951  0.4722
   13SAPS  H18Y 1728   3.479   7.012   4.390 -1.8538 -2.9041 -0.9002
   13SAPS  H18Z 1729   3.436   7.185   4.351 -0.1246 -0.2142 -0.1661
   14SAPS     N 1730   2.019   3.333   1.973 -0.1598  0.3432  0.2351
   14SAPS   HN1 1731   2.008   3.306   1.873 -0.1288 -3.7953  1.1647
   14SAPS   HN2 1732   2.105   3.388   1.995 -1.0229  1.5028  0.8301
   14SAPS   HN3 1733   2.017   3.246   2.029  0.5149  1.5521  2.2828
   14SAPS   C12 1734   1.891   3.410   2.019 -0.0853 -0.2362 -1.0539
   14SAPS  H12A 1735   1.905   3.510   1.981  5.1939 -0.9021 -1.5921
   14SAPS   C13 1736   1.756   3.364   1.970 -0.4247  0.3699  0.4517
   14SAPS  O13A 1737   1.744   3.283   1.876  0.3459  0.3220 -0.1422
   14SAPS  O13B 1738   1.660   3.444   1.988  0.0682 -0.4172  0.1971
   14SAPS   C11 1739   1.890   3.405   2.176  0.3000 -0.4834  0.2170
   14SAPS  H11A 1740   1.802   3.464   2.207 -0.9127 -1.9240 -0.3570
   14SAPS  H11B 1741   1.980   3.458   2.214  0.9826 -2.7712  2.0063
   14SAPS     P 1742   1.755   3.216   2.304  0.3251  0.1639  0.0536
   14SAPS   O13 1743   1.631   3.292   2.266 -0.1577  0.1043 -0.5929
   14SAPS   O14 1744   1.757   3.075   2.286  0.5304  0.4141 -0.0355
   14SAPS   O12 1745   1.880   3.280   2.233  0.1394  0.0723 -0.0479
   14SAPS   O11 1746   1.781   3.249   2.457 -0.1317 -0.2109  0.2275
   14SAPS    C1 1747   1.752   3.380   2.510  0.0016  0.2802 -0.4529
   14SAPS    HA 1748   1.825   3.460   2.485  0.4718  0.0871  0.2513
   14SAPS    HB 1749   1.652   3.415   2.477 -1.6533 -3.7587 -0.3052
   14SAPS    C2 1750   1.744   3.376   2.671  0.5466  0.6027  0.5467
   14SAPS    HS 1751   1.687   3.464   2.708 -1.8138 -0.6781  0.1604
   14SAPS   O21 1752   1.877   3.364   2.735  0.2644  0.5595  0.1112
   14SAPS   C21 1753   1.949   3.476   2.723  0.0958  1.2504  0.0942
   14SAPS   O22 1754   1.916   3.581   2.679 -0.1558  0.0011  0.1422
   14SAPS   C22 1755   2.088   3.458   2.779  0.7485  0.7048 -0.1902
   14SAPS   H2R 1756   2.095   3.356   2.822 -3.7134 -0.0198 -0.7523
   14SAPS   H2S 1757   2.161   3.470   2.695 -0.0977  0.0025 -1.0507
   14SAPS    C3 1758   1.668   3.249   2.724 -0.0275  0.4894 -0.0811
   14SAPS    HX 1759   1.688   3.163   2.657 -1.3034 -2.2070  2.7650
   14SAPS    HY 1760   1.562   3.275   2.705 -0.1336 -0.9822 -1.7948
   14SAPS   O31 1761   1.710   3.205   2.857 -0.1941  0.0272  0.0550
   14SAPS   C31 1762   1.628   3.132   2.934  0.4781  0.2509  0.2576
   14SAPS   O32 1763   1.518   3.098   2.910 -0.0973  0.2267  0.1287
   14SAPS   C32 1764   1.701   3.095   3.062 -0.1044 -0.0525 -0.0782
   14SAPS   H2X 1765   1.717   3.187   3.121  2.5620 -1.5646  1.7729
   14SAPS   H2Y 1766   1.802   3.051   3.047 -0.7290 -0.9206 -2.2951
   14SAPS   C23 1767   2.134   3.565   2.883  0.2749  0.3808  0.0694
   14SAPS   H3R 1768   2.065   3.569   2.970  2.2448 -0.1721  1.7191
   14SAPS   H3S 1769   2.141   3.664   2.832 -3.4650  1.0615  0.5243
   14SAPS   C24 1770   2.269   3.519   2.933  0.1914  0.0528 -0.4527
   14SAPS   H4R 1771   2.337   3.491   2.849 -0.4169  0.6262 -1.1496
   14SAPS   H4S 1772   2.268   3.422   2.987  0.7494  0.8825  1.1331
   14SAPS   C25 1773   2.320   3.627   3.025 -0.6271  0.0855 -0.0592
   14SAPS   H5R 1774   2.356   3.711   2.964  0.3820  0.0693  0.4900
   14SAPS   C26 1775   2.325   3.627   3.162 -0.5983 -0.0917  0.5176
   14SAPS   H6R 1776   2.384   3.695   3.224 -1.8597 -0.9003  2.7358
   14SAPS   C27 1777   2.251   3.536   3.252 -0.1438 -0.5660  0.0785
   14SAPS   H7R 1778   2.158   3.497   3.205 -0.5421 -0.5903  0.8751
   14SAPS   H7S 1779   2.226   3.596   3.342 -0.1944  0.9834 -0.9152
   14SAPS   C28 1780   2.343   3.420   3.295  0.2636 -0.2009  1.4511
   14SAPS   H8R 1781   2.448   3.432   3.265 -0.3596 -0.5129 -1.0975
   14SAPS   C29 1782   2.317   3.321   3.384  0.7411 -0.0754 -0.6187
   14SAPS   H9R 1783   2.389   3.239   3.376  1.4651  0.6070 -1.3552
   14SAPS  C210 1784   2.185   3.302   3.462 -0.4615  0.7904  0.5641
   14SAPS  H10R 1785   2.192   3.204   3.516  0.4869  0.2541 -0.4913
   14SAPS  H10S 1786   2.101   3.303   3.390  0.8708  0.2131 -1.0423
   14SAPS  C211 1787   2.176   3.407   3.561  0.4522  0.2954 -0.2415
   14SAPS  H11R 1788   2.143   3.504   3.522 -1.7402  0.4795  1.8356
   14SAPS  C212 1789   2.197   3.406   3.698  0.2371 -0.6589 -0.0548
   14SAPS  H12R 1790   2.198   3.504   3.748  2.9223 -0.1027 -1.0562
   14SAPS  C213 1791   2.251   3.290   3.784 -0.2196 -0.2992 -0.1591
   14SAPS  H13R 1792   2.236   3.196   3.727 -0.1245 -1.0868  1.0847
   14SAPS  H13S 1793   2.188   3.274   3.875 -0.5734  1.2541 -0.1002
   14SAPS  C214 1794   2.396   3.291   3.825  0.4513  0.0396  0.7205
   14SAPS  H14R 1795   2.461   3.292   3.736 -2.5249  0.4457 -1.5906
   14SAPS  C215 1796   2.442   3.299   3.953  0.0198  0.3191  0.3139
   14SAPS  H15R 1797   2.550   3.298   3.975  0.4268 -0.6147 -1.4582
   14SAPS  C216 1798   2.360   3.300   4.081  0.0948  0.2909 -0.2468
   14SAPS  H16R 1799   2.415   3.241   4.158  2.8861  0.3948 -1.9913
   14SAPS  H16S 1800   2.262   3.252   4.061  1.5643 -2.9874 -0.3575
   14SAPS  C217 1801   2.331   3.437   4.143 -0.0631 -0.1721  0.0224
   14SAPS  H17R 1802   2.279   3.420   4.239  0.3057  2.2220  0.7014
   14SAPS  H17S 1803   2.272   3.500   4.073 -0.3879 -0.8387 -0.3207
   14SAPS  C218 1804   2.462   3.518   4.194 -0.1512  0.5901  0.2072
   14SAPS  H18R 1805   2.523   3.542   4.104 -2.5149  0.6071 -1.4585
   14SAPS  H18S 1806   2.504   3.439   4.260 -1.3477 -0.0866  0.1780
   14SAPS  C219 1807   2.430   3.639   4.274  0.0132 -0.0509  0.5444
   14SAPS  H19R 1808   2.377   3.611   4.368  1.5630 -1.2775  1.0874
   14SAPS  H19S 1809   2.368   3.705   4.209 -0.9882  0.6705  2.1532
   14SAPS  C220 1810   2.557   3.716   4.300  0.2804  0.7454  0.2203
   14SAPS  H20R 1811   2.537   3.822   4.325 -1.4919  0.7317 -0.9716
   14SAPS  H20S 1812   2.606   3.722   4.200  0.7311  0.9833  0.4528
   14SAPS  H20T 1813   2.619   3.658   4.372  0.3737 -0.5983 -0.9042
   14SAPS   C33 1814   1.625   2.985   3.151 -0.5390 -0.8914  0.0326
   14SAPS   H3X 1815   1.659   2.889   3.107  2.3094  0.5647 -1.2297
   14SAPS   H3Y 1816   1.515   2.996   3.140 -0.5981 -1.8530 -0.4429
   14SAPS   C34 1817   1.651   2.993   3.298  0.0543 -0.7147  0.2131
   14SAPS   H4X 1818   1.599   3.082   3.339 -0.5746 -0.5768 -0.8571
   14SAPS   H4Y 1819   1.758   3.007   3.325 -0.4268  1.6870  1.0683
   14SAPS   C35 1820   1.599   2.865   3.377 -0.2649 -0.7541  0.2130
   14SAPS   H5X 1821   1.644   2.775   3.330  0.4826 -0.2066 -0.1396
   14SAPS   H5Y 1822   1.489   2.870   3.362 -0.8665 -0.4789  3.7432
   14SAPS   C36 1823   1.626   2.885   3.528 -0.1785 -1.1325 -0.3230
   14SAPS   H6X 1824   1.548   2.944   3.579 -0.5491 -1.0290 -1.0034
   14SAPS   H6Y 1825   1.715   2.950   3.545 -1.3491  0.5159 -0.3181
   14SAPS   C37 1826   1.631   2.747   3.593 -0.0668 -0.4405 -0.1581
   14SAPS   H7X 1827   1.708   2.689   3.539 -0.1633  0.2619 -1.0876
   14SAPS   H7Y 1828   1.526   2.711   3.587 -0.4321  0.1384  1.8832
   14SAPS   C38 1829   1.676   2.746   3.737 -0.0227 -0.4781 -0.7530
   14SAPS   H8X 1830   1.617   2.812   3.805  0.6711 -1.3712  0.7694
   14SAPS   H8Y 1831   1.785   2.768   3.743 -0.0482 -0.6686  0.9930
   14SAPS   C39 1832   1.670   2.607   3.801  0.0675  0.0686  0.6208
   14SAPS   H9X 1833   1.563   2.578   3.788  0.3631 -0.0370 -2.1923
   14SAPS   H9Y 1834   1.694   2.620   3.908  1.1159 -0.1007  0.4115
   14SAPS  C310 1835   1.758   2.504   3.740 -0.4955 -0.0649  0.2086
   14SAPS  H10X 1836   1.858   2.549   3.719  0.6377 -2.4317  0.1336
   14SAPS  H10Y 1837   1.722   2.474   3.639  0.1454  1.5619 -0.5325
   14SAPS  C311 1838   1.771   2.376   3.829 -0.6215 -0.6167 -0.4308
   14SAPS  H11X 1839   1.795   2.405   3.934  3.3876 -1.7734 -0.8595
   14SAPS  H11Y 1840   1.856   2.307   3.809  0.8642  0.0870  2.7615
   14SAPS  C312 1841   1.650   2.290   3.833  0.4577  0.2880 -0.0675
   14SAPS  H12X 1842   1.641   2.249   3.730  1.5126 -1.6141  0.5452
   14SAPS  H12Y 1843   1.560   2.355   3.844  0.7197  0.7501 -0.6225
   14SAPS  C313 1844   1.656   2.168   3.928  0.0461 -0.1564 -0.4358
   14SAPS  H13X 1845   1.744   2.103   3.913 -0.2301 -1.0647  1.5937
   14SAPS  H13Y 1846   1.563   2.107   3.918 -0.7015  1.1183 -1.7591
   14SAPS  C314 1847   1.658   2.219   4.067  0.7050 -0.3494 -0.3982
   14SAPS  H14X 1848   1.562   2.272   4.080 -0.9589 -3.1063 -0.6782
   14SAPS  H14Y 1849   1.742   2.288   4.089  1.6422 -1.3495 -0.7237
   14SAPS  C315 1850   1.648   2.114   4.181 -0.0544  0.0763 -0.1613
   14SAPS  H15X 1851   1.737   2.047   4.178 -0.3351 -0.2791 -1.0299
   14SAPS  H15Y 1852   1.556   2.055   4.164 -2.4376  2.7021  2.5965
   14SAPS  C316 1853   1.649   2.175   4.323 -0.2899 -0.2508 -0.4231
   14SAPS  H16X 1854   1.570   2.251   4.340 -1.0907 -0.6843 -2.0224
   14SAPS  H16Y 1855   1.745   2.231   4.336 -0.9732  1.2404 -1.5284
   14SAPS  C317 1856   1.650   2.070   4.437 -0.4020 -0.4046 -0.3343
   14SAPS  H17X 1857   1.753   2.056   4.475 -0.6087 -0.5285  0.1935
   14SAPS  H17Y 1858   1.625   1.968   4.401  0.6942 -0.3659 -1.2591
   14SAPS  C318 1859   1.543   2.099   4.545  0.4480 -0.0404  0.3212
   14SAPS  H18X 1860   1.538   2.205   4.575 -1.6546  0.0587 -0.2024
   14SAPS  H18Y 1861   1.545   2.041   4.640  0.0084  2.8555  2.2304
   14SAPS  H18Z 1862   1.452   2.070   4.488  0.7192 -1.8266  0.7253
   15SAPS     N 1863   6.805   3.355   2.332 -0.1629  0.1538 -0.1418
   15SAPS   HN1 1864   6.858   3.443   2.318 -0.7863  0.3182 -1.6911
   15SAPS   HN2 1865   6.733   3.368   2.407 -0.6051 -0.9505 -0.3489
   15SAPS   HN3 1866   6.879   3.287   2.357 -0.5974 -0.1616  0.3240
   15SAPS   C12 1867   6.742   3.300   2.209 -0.3018  1.0999  0.5871
   15SAPS  H12A 1868   6.668   3.372   2.180 -1.2310  0.4323  1.2272
   15SAPS   C13 1869   6.844   3.290   2.089 -0.3258  0.0846 -0.1751
   15SAPS  O13A 1870   6.962   3.334   2.118  0.3143 -0.0080  0.2274
   15SAPS  O13B 1871   6.800   3.296   1.974  0.2986  0.2730  0.5781
   15SAPS   C11 1872   6.672   3.166   2.233 -0.5323  0.3998  0.6048
   15SAPS  H11A 1873   6.624   3.125   2.141 -0.1419  0.3814  0.4064
   15SAPS  H11B 1874   6.595   3.167   2.312 -0.8522 -0.4465  0.3244
   15SAPS     P 1875   6.753   2.934   2.330  0.2389 -0.0395  0.4791
   15SAPS   O13 1876   6.686   2.857   2.223 -0.3298  0.1640  0.4880
   15SAPS   O14 1877   6.889   2.884   2.371 -0.2670  0.2458 -0.7277
   15SAPS   O12 1878   6.769   3.078   2.274  0.2498  0.1424  0.0733
   15SAPS   O11 1879   6.660   2.946   2.461  0.2397  0.1062  0.1936
   15SAPS    C1 1880   6.706   3.042   2.565 -0.2513  0.1412 -0.1701
   15SAPS    HA 1881   6.790   3.104   2.524 -0.7561 -0.4430 -2.2220
   15SAPS    HB 1882   6.624   3.115   2.582 -2.0219 -1.6011 -0.9648
   15SAPS    C2 1883   6.765   2.973   2.686 -0.2732 -0.2810 -0.2269
   15SAPS    HS 1884   6.803   2.876   2.646  0.9215 -0.8476  2.1305
   15SAPS   O21 1885   6.656   2.960   2.780 -0.3728 -0.1362  0.1128
   15SAPS   C21 1886   6.638   2.843   2.835 -0.1197 -0.1985 -0.1609
   15SAPS   O22 1887   6.717   2.752   2.828  0.0423 -0.2586  0.1789
   15SAPS   C22 1888   6.500   2.845   2.904  0.4152  0.5329 -0.4462
   15SAPS   H2R 1889   6.444   2.941   2.905  1.2103  1.0108  1.0892
   15SAPS   H2S 1890   6.444   2.777   2.836 -1.4306  0.9406  0.5870
   15SAPS    C3 1891   6.885   3.050   2.749  0.2432 -0.6010  0.5642
   15SAPS    HX 1892   6.851   3.155   2.763  1.9513  0.4521 -2.2992
   15SAPS    HY 1893   6.958   3.047   2.665 -0.9063 -2.1076 -0.4446
   15SAPS   O31 1894   6.931   2.990   2.874 -0.5663 -0.3119 -0.2555
   15SAPS   C31 1895   7.011   2.891   2.851 -0.8060  0.5781 -0.2728
   15SAPS   O32 1896   7.044   2.849   2.741  0.0874  0.4048  0.3877
   15SAPS   C32 1897   7.043   2.816   2.978 -0.0670 -0.0349 -0.2636
   15SAPS   H2X 1898   7.108   2.733   2.943  1.4168  1.5492 -1.4079
   15SAPS   H2Y 1899   6.954   2.780   3.034  0.7990 -0.1389  1.0934
   15SAPS   C23 1900   6.498   2.768   3.039 -1.1028  0.6433  0.7911
   15SAPS   H3R 1901   6.569   2.685   3.019 -0.7380  1.4184 -1.4635
   15SAPS   H3S 1902   6.404   2.713   3.059  0.4814 -1.8215  2.0744
   15SAPS   C24 1903   6.526   2.851   3.167  0.5963  0.0626  0.8587
   15SAPS   H4R 1904   6.441   2.921   3.180  0.8667  0.7561 -0.8141
   15SAPS   H4S 1905   6.611   2.919   3.145  0.4310 -0.2256 -0.7656
   15SAPS   C25 1906   6.569   2.768   3.282 -0.1366 -0.6401 -0.3740
   15SAPS   H5R 1907   6.674   2.736   3.270  0.5439 -0.1216  3.0933
   15SAPS   C26 1908   6.505   2.732   3.395  0.1490 -0.1538 -0.2108
   15SAPS   H6R 1909   6.557   2.662   3.462  1.4143  1.1966  0.2566
   15SAPS   C27 1910   6.363   2.780   3.430 -0.1022  0.3026 -0.0442
   15SAPS   H7R 1911   6.313   2.811   3.335 -0.5006  0.4801  0.2208
   15SAPS   H7S 1912   6.364   2.874   3.489 -4.0204 -1.9273  4.2068
   15SAPS   C28 1913   6.283   2.678   3.515  0.4328 -0.4511  0.3928
   15SAPS   H8R 1914   6.228   2.603   3.456 -2.4716  1.5404  0.3654
   15SAPS   C29 1915   6.282   2.674   3.647 -0.5595  0.1020  0.2928
   15SAPS   H9R 1916   6.215   2.601   3.693 -0.1174  0.7064  1.9632
   15SAPS  C210 1917   6.354   2.766   3.742  0.1607  0.6971 -0.3050
   15SAPS  H10R 1918   6.306   2.752   3.841  2.2060  0.3644  0.6880
   15SAPS  H10S 1919   6.316   2.867   3.716 -2.1477  0.3486  1.4613
   15SAPS  C211 1920   6.509   2.758   3.768  0.1162 -0.2505 -0.3244
   15SAPS  H11R 1921   6.576   2.769   3.682  2.1717 -0.7559  1.1306
   15SAPS  C212 1922   6.559   2.749   3.894 -0.3880 -0.9115 -0.1499
   15SAPS  H12R 1923   6.669   2.746   3.907 -0.1713  2.0485 -0.5669
   15SAPS  C213 1924   6.487   2.744   4.029  0.4596  0.3662 -0.1443
   15SAPS  H13R 1925   6.533   2.665   4.093 -0.7489  1.5392  2.3210
   15SAPS  H13S 1926   6.380   2.716   4.022 -0.5245  3.8417 -0.8808
   15SAPS  C214 1927   6.506   2.876   4.099 -0.4286 -0.2675  0.6238
   15SAPS  H14R 1928   6.514   2.963   4.033 -1.4385 -2.3522 -2.4557
   15SAPS  C215 1929   6.493   2.900   4.231 -0.3004 -0.3794 -0.5912
   15SAPS  H15R 1930   6.506   3.001   4.272 -0.3050  0.6436 -2.9506
   15SAPS  C216 1931   6.464   2.792   4.336 -0.4396 -0.5521 -0.4324
   15SAPS  H16R 1932   6.386   2.716   4.311 -0.6954  0.0717 -1.6035
   15SAPS  H16S 1933   6.434   2.846   4.428  3.6762  0.1081  0.7359
   15SAPS  C217 1934   6.598   2.721   4.372  0.6228  0.5181 -0.3584
   15SAPS  H17R 1935   6.688   2.777   4.405  1.0837  1.0756 -2.4212
   15SAPS  H17S 1936   6.628   2.673   4.276 -0.5815  2.6551 -1.8800
   15SAPS  C218 1937   6.563   2.612   4.472  0.3156 -0.1358 -0.3153
   15SAPS  H18R 1938   6.656   2.554   4.490  0.0597  0.2415  2.7350
   15SAPS  H18S 1939   6.484   2.549   4.428  0.4251 -0.7267  0.3230
   15SAPS  C219 1940   6.502   2.667   4.602  0.7405  0.5114  0.4358
   15SAPS  H19R 1941   6.404   2.715   4.584 -0.8081 -2.4463  0.3506
   15SAPS  H19S 1942   6.569   2.743   4.647  2.2502 -0.9488  0.7583
   15SAPS  C220 1943   6.493   2.544   4.704 -0.4189 -0.9848 -0.1600
   15SAPS  H20R 1944   6.590   2.490   4.715 -0.9936 -1.8368  0.8396
   15SAPS  H20S 1945   6.413   2.474   4.674 -2.5161  0.8623  0.8244
   15SAPS  H20T 1946   6.466   2.594   4.799 -1.9274 -0.7619 -0.6904
   15SAPS   C33 1947   7.113   2.910   3.085  0.2211 -0.1522  0.3654
   15SAPS   H3X 1948   7.045   2.992   3.119  0.9251  0.9681 -0.8125
   15SAPS   H3Y 1949   7.188   2.976   3.036  0.3353 -0.2769  0.3736
   15SAPS   C34 1950   7.175   2.835   3.203 -0.0894 -0.3737  0.4122
   15SAPS   H4X 1951   7.253   2.766   3.165 -0.0167  0.4865 -1.0793
   15SAPS   H4Y 1952   7.103   2.761   3.244 -1.9008  1.9546  1.6604
   15SAPS   C35 1953   7.243   2.931   3.301 -0.0335 -0.2482  0.9127
   15SAPS   H5X 1954   7.174   2.990   3.365 -0.8362  0.9260 -0.9484
   15SAPS   H5Y 1955   7.294   3.004   3.235 -0.9044 -1.4418 -1.2121
   15SAPS   C36 1956   7.350   2.871   3.394 -0.5390  0.2095  0.1351
   15SAPS   H6X 1957   7.422   2.939   3.444  0.0150 -1.2950  1.4652
   15SAPS   H6Y 1958   7.410   2.794   3.341 -0.6656 -0.3479  0.7772
   15SAPS   C37 1959   7.282   2.793   3.511 -0.3383 -0.6662  0.5745
   15SAPS   H7X 1960   7.241   2.690   3.496 -1.8111 -0.3327  1.9864
   15SAPS   H7Y 1961   7.195   2.854   3.543 -0.5390 -0.8141  0.3203
   15SAPS   C38 1962   7.382   2.789   3.633  0.5816  0.2608  0.2179
   15SAPS   H8X 1963   7.423   2.891   3.645  2.0535 -0.0664 -1.5194
   15SAPS   H8Y 1964   7.461   2.716   3.602 -0.6315 -1.2894  0.6260
   15SAPS   C39 1965   7.316   2.748   3.759 -0.1423  0.5552 -0.2968
   15SAPS   H9X 1966   7.248   2.663   3.736 -1.9676  2.0571 -0.6964
   15SAPS   H9Y 1967   7.246   2.830   3.787  0.2403  0.8817 -0.2981
   15SAPS  C310 1968   7.407   2.734   3.877  0.1983  0.4483 -0.4268
   15SAPS  H10X 1969   7.465   2.829   3.879  1.0469 -0.0631  1.4406
   15SAPS  H10Y 1970   7.480   2.652   3.861 -0.0446 -0.3069  1.9903
   15SAPS  C311 1971   7.335   2.720   4.013  0.4896 -0.5764  0.2527
   15SAPS  H11X 1972   7.267   2.632   4.006 -1.1345  0.7617 -2.9641
   15SAPS  H11Y 1973   7.265   2.804   4.030 -2.5147 -2.9827  0.7303
   15SAPS  C312 1974   7.435   2.693   4.128  0.7049 -0.6407 -0.1121
   15SAPS  H12X 1975   7.514   2.772   4.135 -0.3697  0.2808  2.7682
   15SAPS  H12Y 1976   7.476   2.591   4.116 -1.2918 -1.7045  1.4619
   15SAPS  C313 1977   7.378   2.695   4.268 -0.3490 -1.0102 -0.8912
   15SAPS  H13X 1978   7.298   2.619   4.278 -0.6296 -0.4899  1.3337
   15SAPS  H13Y 1979   7.324   2.791   4.289 -0.9841 -1.6925  0.7804
   15SAPS  C314 1980   7.470   2.658   4.387 -0.0597  0.3052 -0.0772
   15SAPS  H14X 1981   7.511   2.555   4.388 -0.1979  0.2428 -0.5947
   15SAPS  H14Y 1982   7.410   2.653   4.480 -1.2784 -2.2893 -0.9075
   15SAPS  C315 1983   7.598   2.747   4.393  0.2648  0.6485 -0.7204
   15SAPS  H15X 1984   7.566   2.853   4.384  0.0028  0.5691 -0.7324
   15SAPS  H15Y 1985   7.667   2.726   4.309 -1.0998  0.3360 -1.8166
   15SAPS  C316 1986   7.663   2.721   4.528  0.1051  0.1111  0.0037
   15SAPS  H16X 1987   7.695   2.615   4.531  0.2681  0.1547 -0.1380
   15SAPS  H16Y 1988   7.587   2.739   4.606  2.4759  0.5624  2.3378
   15SAPS  C317 1989   7.789   2.809   4.551  0.0091  0.1282 -0.1147
   15SAPS  H17X 1990   7.830   2.784   4.651 -0.1559  1.2605  0.2537
   15SAPS  H17Y 1991   7.750   2.913   4.549 -0.4006 -0.0302 -0.4852
   15SAPS  C318 1992   7.892   2.803   4.443 -0.2159  1.1018  0.2370
   15SAPS  H18X 1993   7.848   2.828   4.344 -0.8415  0.4395  0.3400
   15SAPS  H18Y 1994   7.948   2.708   4.430 -0.2120  0.6688  2.7844
   15SAPS  H18Z 1995   7.971   2.880   4.459  0.2989  0.2395  2.2410
   16SAPS     N 1996   0.187   3.009   2.242 -0.0566  0.0515  0.2219
   16SAPS   HN1 1997   0.152   3.081   2.175  0.8887  0.9835  0.6880
   16SAPS   HN2 1998   0.224   2.927   2.189  0.4937  1.4130 -1.6380
   16SAPS   HN3 1999   0.106   2.982   2.300 -0.4258 -0.2665 -0.4321
   16SAPS   C12 2000   0.281   3.084   2.332  0.0566 -0.6336  0.0383
   16SAPS  H12A 2001   0.343   3.145   2.268  0.3863 -0.5447  0.4392
   16SAPS   C13 2002   0.224   3.181   2.433 -0.6207  0.6139 -1.0062
   16SAPS  O13A 2003   0.099   3.199   2.453  0.0231  0.2407  0.0118
   16SAPS  O13B 2004   0.307   3.248   2.502 -0.1323 -0.5903  0.4003
   16SAPS   C11 2005   0.375   2.974   2.392  0.2575  0.1046 -0.1088
   16SAPS  H11A 2006   0.311   2.915   2.462  1.7498  0.2025  1.4326
   16SAPS  H11B 2007   0.446   3.027   2.459  0.4235  0.0586 -0.2468
   16SAPS     P 2008   0.528   2.772   2.320  0.2158 -0.2847 -0.1863
   16SAPS   O13 2009   0.439   2.656   2.323 -0.4308 -0.1601 -0.6672
   16SAPS   O14 2010   0.634   2.770   2.219 -0.9306 -0.3606  0.4292
   16SAPS   O12 2011   0.444   2.907   2.284 -0.1204 -0.3334 -0.2648
   16SAPS   O11 2012   0.574   2.803   2.459  0.2302 -0.2557  0.1394
   16SAPS    C1 2013   0.521   2.736   2.570 -0.3946  0.2936 -0.1958
   16SAPS    HA 2014   0.423   2.690   2.543 -0.7204  1.5866 -1.3776
   16SAPS    HB 2015   0.593   2.656   2.596 -0.6492 -0.1708 -0.9000
   16SAPS    C2 2016   0.494   2.830   2.688 -0.1518  0.3074  0.0095
   16SAPS    HS 2017   0.407   2.893   2.659 -0.2822  0.4655  0.7088
   16SAPS   O21 2018   0.612   2.913   2.696  0.1045  0.1021  0.3951
   16SAPS   C21 2019   0.607   3.029   2.765 -0.1302  0.6942 -0.4485
   16SAPS   O22 2020   0.507   3.082   2.812 -0.0233  0.1822  0.3103
   16SAPS   C22 2021   0.748   3.079   2.784 -0.3955  0.3661  0.2666
   16SAPS   H2R 2022   0.815   3.006   2.834  0.2640  0.3021 -0.6625
   16SAPS   H2S 2023   0.791   3.086   2.681  0.8561  0.2540  0.7592
   16SAPS    C3 2024   0.458   2.752   2.815  0.0697 -0.4389 -0.0319
   16SAPS    HX 2025   0.355   2.714   2.800 -1.4680  2.6026  1.6735
   16SAPS    HY 2026   0.440   2.832   2.891 -0.9536 -0.1123 -0.5974
   16SAPS   O31 2027   0.559   2.659   2.854  0.2741 -0.1157  0.2032
   16SAPS   C31 2028   0.645   2.704   2.939  0.0175 -0.4730 -0.5008
   16SAPS   O32 2029   0.638   2.809   3.002  0.4810  0.3112  0.3356
   16SAPS   C32 2030   0.741   2.590   2.967 -0.1844  0.0470 -0.3287
   16SAPS   H2X 2031   0.752   2.532   2.873 -3.0506 -1.8126  0.3417
   16SAPS   H2Y 2032   0.687   2.531   3.044 -0.2357 -0.9645 -1.1222
   16SAPS   C23 2033   0.765   3.207   2.873  0.2781 -0.5890  0.2436
   16SAPS   H3R 2034   0.707   3.284   2.817 -0.2363 -2.1082 -1.4035
   16SAPS   H3S 2035   0.869   3.244   2.868  0.1986 -0.4621 -0.8485
   16SAPS   C24 2036   0.707   3.190   3.012 -0.5694 -0.2101 -0.0133
   16SAPS   H4R 2037   0.598   3.173   3.008 -0.4129 -1.8459  1.5303
   16SAPS   H4S 2038   0.714   3.288   3.066 -3.4463  0.6441 -1.0011
   16SAPS   C25 2039   0.778   3.085   3.087 -0.5049 -0.5962  0.4199
   16SAPS   H5R 2040   0.779   2.980   3.053  0.2212 -0.3018 -0.4910
   16SAPS   C26 2041   0.851   3.117   3.201  0.0165  0.1724  0.2637
   16SAPS   H6R 2042   0.896   3.027   3.245 -2.9016 -1.5297 -0.0218
   16SAPS   C27 2043   0.866   3.247   3.273  0.2182  0.6328  0.8037
   16SAPS   H7R 2044   0.910   3.225   3.373  1.5117 -0.5005  0.0334
   16SAPS   H7S 2045   0.761   3.282   3.278  0.2618  0.6446  2.0860
   16SAPS   C28 2046   0.950   3.353   3.190 -0.1515 -0.2456  0.0261
   16SAPS   H8R 2047   0.905   3.438   3.137  2.7649  1.8255  0.6111
   16SAPS   C29 2048   1.076   3.372   3.189 -1.0957  0.5646  0.0844
   16SAPS   H9R 2049   1.119   3.455   3.131 -0.4715  0.2060  0.0272
   16SAPS  C210 2050   1.187   3.308   3.278  0.4576  1.0816  0.3165
   16SAPS  H10R 2051   1.230   3.221   3.224  1.4383  1.7030  0.0698
   16SAPS  H10S 2052   1.152   3.274   3.378 -0.5797  0.4116 -0.2639
   16SAPS  C211 2053   1.302   3.401   3.310  0.0127  0.0289  0.1568
   16SAPS  H11R 2054   1.351   3.447   3.223 -0.2808 -0.0550 -0.0517
   16SAPS  C212 2055   1.354   3.423   3.434 -0.4308  0.2173  0.1419
   16SAPS  H12R 2056   1.445   3.485   3.430 -0.1513 -0.1853  0.1582
   16SAPS  C213 2057   1.311   3.367   3.570 -0.5077 -0.0769 -0.3879
   16SAPS  H13R 2058   1.201   3.366   3.584 -0.3287  0.6830  1.3177
   16SAPS  H13S 2059   1.360   3.435   3.642 -1.5258  0.1291  0.1339
   16SAPS  C214 2060   1.351   3.229   3.598 -0.4397  0.3770  0.2179
   16SAPS  H14R 2061   1.356   3.167   3.506  0.7398  1.7746 -0.7089
   16SAPS  C215 2062   1.375   3.175   3.720 -0.4493  0.4043  0.7835
   16SAPS  H15R 2063   1.396   3.067   3.721 -0.4496  0.3956  0.2872
   16SAPS  C216 2064   1.381   3.249   3.850 -0.2601  0.7683  0.4923
   16SAPS  H16R 2065   1.346   3.355   3.840 -0.2594  0.7034 -0.2839
   16SAPS  H16S 2066   1.485   3.245   3.889  0.9492  0.9076 -2.4598
   16SAPS  C217 2067   1.281   3.196   3.955  0.1563 -0.7937 -0.3221
   16SAPS  H17R 2068   1.178   3.179   3.917 -0.0953  1.9809 -1.1216
   16SAPS  H17S 2069   1.275   3.283   4.025  3.1271  0.8241 -1.8670
   16SAPS  C218 2070   1.338   3.066   4.020  0.3637  0.4118  0.4503
   16SAPS  H18R 2071   1.446   3.050   3.999 -0.3861 -0.4218 -3.4648
   16SAPS  H18S 2072   1.299   2.976   3.967 -1.6838  2.2739 -1.3997
   16SAPS  C219 2073   1.321   3.065   4.167  0.2554  0.0320 -0.2863
   16SAPS  H19R 2074   1.347   3.167   4.203 -0.7660  0.8543 -1.7600
   16SAPS  H19S 2075   1.393   2.990   4.205  0.7747 -1.2335 -3.4181
   16SAPS  C220 2076   1.179   3.046   4.215 -0.2739 -0.8331 -0.1951
   16SAPS  H20R 2077   1.159   3.090   4.315 -1.6516  1.0606 -1.2299
   16SAPS  H20S 2078   1.146   2.941   4.225 -0.2680 -0.6927  1.7933
   16SAPS  H20T 2079   1.109   3.092   4.142  2.0733  0.1316 -1.9798
   16SAPS   C33 2080   0.875   2.643   3.024 -1.0118 -0.3685 -0.3621
   16SAPS   H3X 2081   0.855   2.733   3.086 -0.1424  0.6506 -1.5219
   16SAPS   H3Y 2082   0.935   2.677   2.937  0.7722  1.2839  1.4205
   16SAPS   C34 2083   0.971   2.557   3.108  0.1579 -0.8823  0.5745
   16SAPS   H4X 2084   1.054   2.623   3.141 -1.3787  1.8863 -0.7784
   16SAPS   H4Y 2085   1.016   2.474   3.049  0.6735 -1.9947  2.4258
   16SAPS   C35 2086   0.909   2.490   3.231  0.0374 -0.2197  0.2550
   16SAPS   H5X 2087   0.981   2.414   3.267 -0.6644 -1.1379 -0.2123
   16SAPS   H5Y 2088   0.823   2.428   3.195  1.8010 -1.8417 -1.4434
   16SAPS   C36 2089   0.861   2.581   3.349 -0.7191 -0.0510 -0.6820
   16SAPS   H6X 2090   0.805   2.669   3.309  0.8764  1.9186  1.1511
   16SAPS   H6Y 2091   0.954   2.617   3.398 -1.5885 -0.2533  1.2068
   16SAPS   C37 2092   0.764   2.523   3.451 -0.4882  0.5087  0.4538
   16SAPS   H7X 2093   0.686   2.467   3.393  1.1043 -0.1529 -1.1447
   16SAPS   H7Y 2094   0.700   2.606   3.488 -1.1883  0.3626 -0.3727
   16SAPS   C38 2095   0.819   2.442   3.569  0.3530  0.1510 -1.1352
   16SAPS   H8X 2096   0.910   2.494   3.608  2.2163 -0.3415 -4.4577
   16SAPS   H8Y 2097   0.848   2.340   3.536 -1.0471 -0.4193 -0.6884
   16SAPS   C39 2098   0.706   2.429   3.676 -0.1480  0.3483 -0.4177
   16SAPS   H9X 2099   0.620   2.375   3.632 -1.2332  1.2831  0.4965
   16SAPS   H9Y 2100   0.682   2.534   3.706  2.0853  1.2951 -1.7040
   16SAPS  C310 2101   0.736   2.333   3.787 -0.2409  0.2848 -0.6394
   16SAPS  H10X 2102   0.817   2.376   3.849 -0.3929  0.2387 -0.4110
   16SAPS  H10Y 2103   0.782   2.237   3.754  0.5412 -0.4454  2.3160
   16SAPS  C311 2104   0.609   2.293   3.871  0.6011  0.1450  0.1147
   16SAPS  H11X 2105   0.540   2.250   3.796  0.4433 -1.8844  1.3441
   16SAPS  H11Y 2106   0.558   2.374   3.927  0.5613 -1.3577  2.4049
   16SAPS  C312 2107   0.634   2.185   3.983 -0.1739 -0.0064  0.2891
   16SAPS  H12X 2108   0.682   2.104   3.923  1.2137 -0.3483  1.7883
   16SAPS  H12Y 2109   0.537   2.152   4.027 -0.2807  1.7466  1.4539
   16SAPS  C313 2110   0.723   2.231   4.097  0.4346  0.0632 -0.4393
   16SAPS  H13X 2111   0.685   2.305   4.170 -0.2980 -2.0548  1.4429
   16SAPS  H13Y 2112   0.811   2.289   4.060  0.4264  1.5424  1.6393
   16SAPS  C314 2113   0.766   2.115   4.192  0.5984 -0.3435  0.0490
   16SAPS  H14X 2114   0.850   2.052   4.155  0.6157 -1.3008  1.6449
   16SAPS  H14Y 2115   0.677   2.050   4.183  0.3315  0.0539 -0.2240
   16SAPS  C315 2116   0.801   2.154   4.335 -0.0594 -0.2441 -0.0660
   16SAPS  H15X 2117   0.816   2.076   4.413  1.9984  2.2553  2.2355
   16SAPS  H15Y 2118   0.706   2.199   4.374  0.6684 -0.3593  1.9698
   16SAPS  C316 2119   0.905   2.258   4.353 -0.2455  0.0546  0.3933
   16SAPS  H16X 2120   0.892   2.338   4.277 -0.0223 -1.0048 -0.7928
   16SAPS  H16Y 2121   1.004   2.212   4.333  0.0449  0.1908  1.4306
   16SAPS  C317 2122   0.900   2.334   4.493  0.2335 -0.3000  0.2747
   16SAPS  H17X 2123   0.899   2.255   4.571  1.3779 -0.5895  0.0021
   16SAPS  H17Y 2124   0.807   2.394   4.505  1.7669  2.0773  1.1985
   16SAPS  C318 2125   1.022   2.429   4.519  0.3635  0.3336 -0.2308
   16SAPS  H18X 2126   1.036   2.503   4.438 -1.3596  1.3392  0.3258
   16SAPS  H18Y 2127   1.115   2.369   4.526  0.2512  0.0661 -1.0247
   16SAPS  H18Z 2128   1.020   2.488   4.613  1.0387  1.9542 -1.1881
   17SAPS     N 2129   5.211   5.523   2.229  0.2781 -0.6184  0.2989
   17SAPS   HN1 2130   5.278   5.603   2.231 -1.3126  0.7389  1.6626
   17SAPS   HN2 2131   5.131   5.552   2.168  0.0010  4.0740  2.4473
   17SAPS   HN3 2132   5.181   5.510   2.327 -0.7496  0.2794  0.1163
   17SAPS   C12 2133   5.277   5.397   2.183  0.0257  0.1026  0.0277
   17SAPS  H12A 2134   5.304   5.413   2.080 -0.9871 -1.2378 -0.4775
   17SAPS   C13 2135   5.408   5.363   2.265 -1.0013 -0.1268 -0.4297
   17SAPS  O13A 2136   5.443   5.436   2.361 -0.5808  0.0368 -0.3714
   17SAPS  O13B 2137   5.479   5.269   2.218 -0.2947 -0.0817 -0.3523
   17SAPS   C11 2138   5.167   5.284   2.203 -0.0686 -0.5198 -0.2678
   17SAPS  H11A 2139   5.139   5.269   2.310 -0.0411 -1.8579 -0.4327
   17SAPS  H11B 2140   5.225   5.195   2.174  1.1358  0.3224 -0.5160
   17SAPS     P 2141   4.923   5.224   2.149  0.1438 -0.1187 -0.3286
   17SAPS   O13 2142   4.816   5.272   2.049 -0.5799  0.1490 -0.4881
   17SAPS   O14 2143   4.963   5.077   2.149 -0.5938  0.3921 -0.4029
   17SAPS   O12 2144   5.049   5.314   2.126 -0.0576 -0.2079  0.1250
   17SAPS   O11 2145   4.877   5.254   2.298 -0.1617  0.4815 -0.6547
   17SAPS    C1 2146   4.832   5.394   2.327 -0.4796 -0.0229  0.7334
   17SAPS    HA 2147   4.923   5.454   2.350 -1.9428  2.7150 -0.1684
   17SAPS    HB 2148   4.779   5.448   2.246 -0.5303  0.5093  1.1118
   17SAPS    C2 2149   4.731   5.396   2.439  0.5643 -0.0555  0.4834
   17SAPS    HS 2150   4.738   5.485   2.504 -1.9591 -0.1853  1.0450
   17SAPS   O21 2151   4.745   5.283   2.524  0.1737 -0.2959 -0.2056
   17SAPS   C21 2152   4.865   5.264   2.576 -0.3060  0.1987  1.1997
   17SAPS   O22 2153   4.949   5.351   2.593 -0.4072 -0.2687 -0.3748
   17SAPS   C22 2154   4.867   5.124   2.631  0.6302 -0.6339 -0.3226
   17SAPS   H2R 2155   4.802   5.130   2.721 -0.7545 -1.0663 -1.2625
   17SAPS   H2S 2156   4.824   5.066   2.547  1.9163  0.9938 -2.1994
   17SAPS    C3 2157   4.580   5.413   2.382  0.7398  0.1549 -0.5741
   17SAPS    HX 2158   4.549   5.334   2.310 -1.3927 -0.4331  0.8949
   17SAPS    HY 2159   4.571   5.511   2.330 -2.3911  1.2338  1.6972
   17SAPS   O31 2160   4.491   5.420   2.495  0.0705 -0.4801 -0.2214
   17SAPS   C31 2161   4.373   5.382   2.474 -0.2704 -0.0415  0.4747
   17SAPS   O32 2162   4.325   5.357   2.366  0.5211 -0.5263  0.4238
   17SAPS   C32 2163   4.291   5.396   2.606 -0.3887 -0.6263  0.1646
   17SAPS   H2X 2164   4.185   5.421   2.584 -0.2942 -1.0865 -0.8938
   17SAPS   H2Y 2165   4.328   5.488   2.656 -1.0967 -1.6446  2.7684
   17SAPS   C23 2166   5.005   5.068   2.661 -0.1229 -0.3512 -0.4532
   17SAPS   H3R 2167   5.079   5.126   2.601 -0.7049  1.2383  0.3042
   17SAPS   H3S 2168   5.001   4.961   2.632 -2.9047 -0.8928  1.5454
   17SAPS   C24 2169   5.046   5.099   2.809 -0.7130  0.8630 -0.4591
   17SAPS   H4R 2170   4.974   5.037   2.865  0.2573 -2.6118 -2.7717
   17SAPS   H4S 2171   5.024   5.205   2.834  0.1475  0.4817  2.2822
   17SAPS   C25 2172   5.195   5.076   2.828  0.1261  0.1085  0.2274
   17SAPS   H5R 2173   5.233   4.987   2.776 -2.5511 -1.8062  1.3083
   17SAPS   C26 2174   5.275   5.146   2.910 -0.7224 -0.4759  0.4809
   17SAPS   H6R 2175   5.379   5.112   2.900 -0.5091  0.2952  0.0174
   17SAPS   C27 2176   5.262   5.264   3.000  0.7249  0.3277 -0.2911
   17SAPS   H7R 2177   5.156   5.284   3.027  0.9770  1.4628 -0.0884
   17SAPS   H7S 2178   5.277   5.357   2.942 -0.9476  1.3430  0.8097
   17SAPS   C28 2179   5.347   5.252   3.124  0.1981 -0.4530 -0.7755
   17SAPS   H8R 2180   5.440   5.199   3.102  1.1133  1.0404 -0.6233
   17SAPS   C29 2181   5.327   5.295   3.249  0.6307 -0.5177 -0.6055
   17SAPS   H9R 2182   5.389   5.265   3.334 -1.2042  0.5158  1.2095
   17SAPS  C210 2183   5.199   5.366   3.296  0.5407  0.2523 -0.1069
   17SAPS  H10R 2184   5.206   5.404   3.401 -3.7111 -0.0106  0.4318
   17SAPS  H10S 2185   5.123   5.285   3.294  0.7733  0.0292  0.0572
   17SAPS  C211 2186   5.150   5.484   3.214  0.5191  0.6615 -0.0726
   17SAPS  H11R 2187   5.176   5.495   3.108  3.5783  2.4993  0.7223
   17SAPS  C212 2188   5.073   5.588   3.261  0.0319  0.0503  0.6603
   17SAPS  H12R 2189   5.056   5.668   3.187  1.5934 -0.3441 -0.1625
   17SAPS  C213 2190   5.013   5.603   3.397 -0.2766  0.1148 -0.4423
   17SAPS  H13R 2191   5.065   5.687   3.446  2.4568 -2.2332  0.9637
   17SAPS  H13S 2192   5.033   5.509   3.453 -2.2155  1.0370  1.9799
   17SAPS  C214 2193   4.867   5.613   3.390 -0.1191 -0.3745 -1.0939
   17SAPS  H14R 2194   4.819   5.525   3.345 -0.0225 -0.9331 -0.1392
   17SAPS  C215 2195   4.790   5.717   3.434 -0.4216  0.4942  0.1786
   17SAPS  H15R 2196   4.685   5.716   3.402 -0.6054 -0.8686  0.7350
   17SAPS  C216 2197   4.834   5.845   3.500 -0.8171 -0.1667  0.1676
   17SAPS  H16R 2198   4.820   5.925   3.424  2.0281 -0.9393 -1.3051
   17SAPS  H16S 2199   4.942   5.840   3.526 -0.6956 -1.5658 -0.5301
   17SAPS  C217 2200   4.764   5.899   3.628 -0.5375  0.0462  0.8001
   17SAPS  H17R 2201   4.818   5.986   3.669 -0.6910  0.5639 -0.0712
   17SAPS  H17S 2202   4.764   5.818   3.704  0.5186 -0.3619  0.3835
   17SAPS  C218 2203   4.620   5.946   3.606 -0.4131 -0.1417  0.6859
   17SAPS  H18R 2204   4.563   5.866   3.555 -1.4068 -1.3350  3.4526
   17SAPS  H18S 2205   4.624   6.040   3.547  1.9694 -1.4014 -1.3275
   17SAPS  C219 2206   4.547   5.983   3.734 -0.5869  0.3467 -0.5655
   17SAPS  H19R 2207   4.595   6.075   3.773  0.3065  1.7569 -4.5085
   17SAPS  H19S 2208   4.564   5.897   3.803 -0.1807 -2.0026 -3.3916
   17SAPS  C220 2209   4.398   6.011   3.710 -0.0708  0.0370 -0.6990
   17SAPS  H20R 2210   4.377   6.120   3.703 -0.5735  0.0916  1.1046
   17SAPS  H20S 2211   4.341   5.959   3.790  0.0995 -0.0375 -0.6236
   17SAPS  H20T 2212   4.370   5.975   3.609 -0.8451  2.1908 -1.3052
   17SAPS   C33 2213   4.317   5.293   2.705  0.1141  0.0909 -0.1628
   17SAPS   H3X 2214   4.273   5.194   2.678 -0.7149 -0.0585  1.6056
   17SAPS   H3Y 2215   4.247   5.318   2.788  0.5258  3.3939 -0.6848
   17SAPS   C34 2216   4.466   5.269   2.759  1.0615 -0.3379 -0.4694
   17SAPS   H4X 2217   4.542   5.252   2.679  0.0597 -3.7591 -0.8373
   17SAPS   H4Y 2218   4.485   5.173   2.811 -1.5205 -0.0707  1.1361
   17SAPS   C35 2219   4.515   5.381   2.847 -0.1649  0.7888 -0.6533
   17SAPS   H5X 2220   4.441   5.389   2.929 -0.2594 -2.1049 -0.3503
   17SAPS   H5Y 2221   4.517   5.475   2.788  1.5744  1.7265  0.7827
   17SAPS   C36 2222   4.663   5.360   2.893  0.3824 -0.4166 -0.4186
   17SAPS   H6X 2223   4.722   5.380   2.801 -0.0529  2.5522 -0.1477
   17SAPS   H6Y 2224   4.684   5.254   2.921 -1.0487 -0.8692 -0.9762
   17SAPS   C37 2225   4.713   5.452   3.005  0.0675  0.5846  0.3883
   17SAPS   H7X 2226   4.823   5.441   3.009  0.0103 -0.4291 -0.4755
   17SAPS   H7Y 2227   4.671   5.427   3.104  0.2169 -0.0516  0.2913
   17SAPS   C38 2228   4.668   5.597   2.971 -0.6568 -0.0234 -0.7612
   17SAPS   H8X 2229   4.558   5.589   2.957 -0.7093  0.8276 -0.9078
   17SAPS   H8Y 2230   4.717   5.630   2.877 -0.7255  0.6204 -0.5758
   17SAPS   C39 2231   4.701   5.697   3.086  0.3574  0.4223  0.9293
   17SAPS   H9X 2232   4.810   5.699   3.110  0.2074  0.0084  1.6554
   17SAPS   H9Y 2233   4.649   5.673   3.181  0.7291 -0.5339  0.8983
   17SAPS  C310 2234   4.657   5.839   3.044  0.2317  0.1958 -0.0527
   17SAPS  H10X 2235   4.553   5.844   3.006  0.6503  3.5443 -1.1594
   17SAPS  H10Y 2236   4.721   5.868   2.957 -0.6723  0.2884 -0.6928
   17SAPS  C311 2237   4.674   5.940   3.161 -0.0724  0.3422  1.0434
   17SAPS  H11X 2238   4.780   5.947   3.194  0.6060 -1.4486 -0.5652
   17SAPS  H11Y 2239   4.617   5.892   3.243 -2.5217  3.0912  1.1069
   17SAPS  C312 2240   4.608   6.073   3.124 -0.4284 -0.2906 -0.3707
   17SAPS  H12X 2241   4.501   6.048   3.106  0.0529 -2.0919 -0.9610
   17SAPS  H12Y 2242   4.647   6.109   3.027 -0.3251 -0.4767 -0.4005
   17SAPS  C313 2243   4.627   6.182   3.236  0.1455 -0.6486 -0.0982
   17SAPS  H13X 2244   4.726   6.230   3.217 -0.6836  1.1457 -0.1225
   17SAPS  H13Y 2245   4.636   6.125   3.331 -0.6824 -2.8914 -1.2990
   17SAPS  C314 2246   4.522   6.293   3.225  0.3962  0.5808 -0.8630
   17SAPS  H14X 2247   4.540   6.350   3.131  1.4581  0.5598 -0.6757
   17SAPS  H14Y 2248   4.542   6.369   3.304  4.4576 -1.6297  0.5164
   17SAPS  C315 2249   4.380   6.241   3.244 -0.8321 -0.1070  0.4781
   17SAPS  H15X 2250   4.348   6.189   3.151 -1.4691  2.0027 -0.5401
   17SAPS  H15Y 2251   4.317   6.333   3.249 -1.0349 -0.0522 -1.8986
   17SAPS  C316 2252   4.359   6.144   3.361 -0.2383 -0.0485 -0.0512
   17SAPS  H16X 2253   4.403   6.190   3.453  3.6500 -1.0268 -1.2421
   17SAPS  H16Y 2254   4.413   6.050   3.338  0.6697  0.4666 -0.0879
   17SAPS  C317 2255   4.209   6.109   3.367 -0.6684  0.6336  0.5061
   17SAPS  H17X 2256   4.148   6.199   3.390  0.4382  1.3448  0.7328
   17SAPS  H17Y 2257   4.189   6.038   3.450  0.5882 -0.5256 -0.1546
   17SAPS  C318 2258   4.152   6.056   3.242 -0.3134  0.7132  0.2778
   17SAPS  H18X 2259   4.214   5.975   3.197 -0.6318  0.1655  0.7973
   17SAPS  H18Y 2260   4.121   6.133   3.169 -1.2857  1.4018  1.3891
   17SAPS  H18Z 2261   4.062   5.996   3.269 -0.7531  1.9982  1.7964
   18SAPS     N 2262   1.801   6.170   1.782  0.1999 -0.1745  0.2636
   18SAPS   HN1 2263   1.814   6.146   1.681  2.3941  1.1846  0.1541
   18SAPS   HN2 2264   1.804   6.274   1.791 -0.1332  0.2400 -2.9992
   18SAPS   HN3 2265   1.886   6.139   1.833 -0.0954  0.5084  1.2043
   18SAPS   C12 2266   1.688   6.097   1.848 -0.0646 -0.2310 -0.0693
   18SAPS  H12A 2267   1.600   6.125   1.791 -1.8603 -1.9372  1.6758
   18SAPS   C13 2268   1.702   5.949   1.834 -0.7644  0.0886  0.1162
   18SAPS  O13A 2269   1.811   5.894   1.783  0.1796 -0.0625 -0.5467
   18SAPS  O13B 2270   1.609   5.874   1.885 -0.2104 -0.0222 -0.0516
   18SAPS   C11 2271   1.665   6.140   1.994  1.2089 -0.2857  0.8025
   18SAPS  H11A 2272   1.753   6.132   2.061  0.3496 -0.8108  1.9031
   18SAPS  H11B 2273   1.591   6.070   2.039 -0.8103  0.2939 -1.3606
   18SAPS     P 2274   1.529   6.323   2.134  0.4873 -0.3865  0.1379
   18SAPS   O13 2275   1.626   6.418   2.198 -0.2321 -0.0958  0.2061
   18SAPS   O14 2276   1.394   6.371   2.107  0.1490  0.4395 -0.4910
   18SAPS   O12 2277   1.598   6.270   1.999  0.7026 -0.4500  0.0477
   18SAPS   O11 2278   1.521   6.196   2.219 -0.5574 -0.4950 -0.0388
   18SAPS    C1 2279   1.406   6.115   2.222 -0.1579 -0.1594 -0.0911
   18SAPS    HA 2280   1.315   6.178   2.222  0.5806  1.0207 -1.9943
   18SAPS    HB 2281   1.410   6.052   2.130 -0.4726 -0.2684 -0.0287
   18SAPS    C2 2282   1.409   6.017   2.337  0.9877  0.4830  0.3845
   18SAPS    HS 2283   1.330   5.941   2.318  0.3731  1.1681  0.1407
   18SAPS   O21 2284   1.379   6.086   2.462  0.0679  0.8164 -0.1774
   18SAPS   C21 2285   1.278   6.039   2.541 -0.7532  0.0025 -0.1016
   18SAPS   O22 2286   1.203   5.953   2.504  0.0617  0.6253 -0.4425
   18SAPS   C22 2287   1.271   6.115   2.668  0.3773 -0.1896  0.1078
   18SAPS   H2R 2288   1.359   6.183   2.673  1.7821 -1.9178 -0.1699
   18SAPS   H2S 2289   1.182   6.181   2.665  1.2680  1.0179 -1.3729
   18SAPS    C3 2290   1.544   5.935   2.348 -0.2650  0.4397 -0.3001
   18SAPS    HX 2291   1.613   5.983   2.420  0.6541  1.9761 -2.1168
   18SAPS    HY 2292   1.591   5.950   2.248  2.0405 -0.4237  0.5725
   18SAPS   O31 2293   1.518   5.798   2.383 -0.2464 -0.3172  0.0573
   18SAPS   C31 2294   1.584   5.705   2.313  0.3044  0.4046  0.3514
   18SAPS   O32 2295   1.678   5.712   2.245 -0.8107 -0.0825 -0.4091
   18SAPS   C32 2296   1.536   5.569   2.363  0.6682 -0.2075  0.2996
   18SAPS   H2X 2297   1.590   5.497   2.298  2.3883  2.3491 -1.3284
   18SAPS   H2Y 2298   1.426   5.560   2.353  0.8741 -0.2957 -3.1395
   18SAPS   C23 2299   1.278   6.032   2.799  0.7443  0.3319  0.8713
   18SAPS   H3R 2300   1.374   5.978   2.785 -0.2087 -1.0031 -1.1005
   18SAPS   H3S 2301   1.196   5.959   2.780  0.8251  0.5857 -0.5673
   18SAPS   C24 2302   1.268   6.114   2.929  1.0592  0.8395  0.0629
   18SAPS   H4R 2303   1.269   6.047   3.017 -0.6220  1.0588  0.2778
   18SAPS   H4S 2304   1.164   6.152   2.924  1.1348  0.9524 -2.7552
   18SAPS   C25 2305   1.378   6.218   2.938 -0.2535 -0.9407  1.0775
   18SAPS   H5R 2306   1.479   6.183   2.914 -0.5126 -1.0045  0.0465
   18SAPS   C26 2307   1.358   6.350   2.948 -0.4034 -0.0718 -1.1881
   18SAPS   H6R 2308   1.443   6.419   2.942  0.6245 -1.0638  0.9821
   18SAPS   C27 2309   1.217   6.410   2.981  0.2631  1.0043  0.3225
   18SAPS   H7R 2310   1.190   6.389   3.087  0.5432 -0.5770  0.0930
   18SAPS   H7S 2311   1.132   6.368   2.925  0.5160  0.4703  0.3358
   18SAPS   C28 2312   1.220   6.566   2.962 -0.9484  0.3549 -0.1106
   18SAPS   H8R 2313   1.153   6.606   2.885  0.5036 -1.2269 -2.3204
   18SAPS   C29 2314   1.287   6.655   3.039  0.1468  1.2050  0.3290
   18SAPS   H9R 2315   1.299   6.759   3.003  1.3131  0.0575 -2.9456
   18SAPS  C210 2316   1.365   6.625   3.167  0.3135  0.3686  0.3892
   18SAPS  H10R 2317   1.447   6.696   3.188  1.3845 -1.6351  3.9421
   18SAPS  H10S 2318   1.419   6.528   3.160 -2.7179 -1.3490 -1.2341
   18SAPS  C211 2319   1.263   6.617   3.281 -0.1137 -0.6537 -0.2555
   18SAPS  H11R 2320   1.168   6.580   3.239  0.9001 -4.0140  0.0641
   18SAPS  C212 2321   1.275   6.645   3.407 -0.0772 -0.8077  0.1955
   18SAPS  H12R 2322   1.183   6.623   3.464 -0.2167 -1.0725 -0.1314
   18SAPS  C213 2323   1.408   6.667   3.479 -0.5426  0.5447 -0.1675
   18SAPS  H13R 2324   1.490   6.703   3.413 -0.5753  0.8839 -0.0281
   18SAPS  H13S 2325   1.450   6.570   3.515 -0.9721  0.5261  0.3040
   18SAPS  C214 2326   1.406   6.760   3.599  0.2558 -0.3110 -0.2571
   18SAPS  H14R 2327   1.483   6.722   3.667 -0.3719  0.9187  1.1903
   18SAPS  C215 2328   1.328   6.866   3.629 -0.0336 -0.0512 -0.1673
   18SAPS  H15R 2329   1.325   6.914   3.728  0.4458  0.1831 -0.2645
   18SAPS  C216 2330   1.217   6.924   3.542 -0.6846 -0.0469 -0.0476
   18SAPS  H16R 2331   1.241   6.897   3.437  0.3121 -2.3589  0.7236
   18SAPS  H16S 2332   1.203   7.035   3.546  0.3871  0.0905  0.2350
   18SAPS  C217 2333   1.082   6.871   3.589 -0.4313  0.2242 -0.0680
   18SAPS  H17R 2334   1.056   6.898   3.694 -0.2440  0.7006 -0.1417
   18SAPS  H17S 2335   1.089   6.761   3.583 -0.2091  0.3013 -1.8917
   18SAPS  C218 2336   0.974   6.926   3.500 -0.4019 -0.4805 -0.3859
   18SAPS  H18R 2337   0.990   6.901   3.393  0.4678  1.0769 -0.6581
   18SAPS  H18S 2338   0.982   7.036   3.484  0.5303 -0.6652 -1.2687
   18SAPS  C219 2339   0.834   6.878   3.541  0.2481  0.5438  0.9431
   18SAPS  H19R 2340   0.819   6.917   3.644 -0.9049  0.5974  0.7693
   18SAPS  H19S 2341   0.832   6.768   3.556 -2.4361  0.2759 -0.7325
   18SAPS  C220 2342   0.725   6.897   3.446  0.6732  0.0065 -0.1833
   18SAPS  H20R 2343   0.758   6.858   3.348  1.7018 -2.0439  0.9045
   18SAPS  H20S 2344   0.678   6.998   3.447  1.7379  0.5116  0.2203
   18SAPS  H20T 2345   0.643   6.827   3.475 -0.9359  0.5758 -2.9782
   18SAPS   C33 2346   1.577   5.542   2.512 -0.2646 -0.4314 -0.1282
   18SAPS   H3X 2347   1.681   5.568   2.542  0.0404 -0.8500 -0.7991
   18SAPS   H3Y 2348   1.574   5.433   2.533 -0.7610 -0.0955  1.7501
   18SAPS   C34 2349   1.482   5.614   2.615  0.0915 -0.7348  0.5702
   18SAPS   H4X 2350   1.383   5.573   2.585  0.2282 -1.8403  1.5443
   18SAPS   H4Y 2351   1.474   5.723   2.597 -2.1348 -0.9759 -0.2177
   18SAPS   C35 2352   1.506   5.586   2.767  0.0636 -0.0348 -0.4977
   18SAPS   H5X 2353   1.612   5.607   2.794 -0.2008 -2.8149  3.5562
   18SAPS   H5Y 2354   1.493   5.479   2.792  1.2206 -0.1102 -0.1154
   18SAPS   C36 2355   1.409   5.659   2.866 -0.0288  0.0232  0.4645
   18SAPS   H6X 2356   1.301   5.635   2.855 -0.2815  1.9221 -2.5267
   18SAPS   H6Y 2357   1.415   5.766   2.835 -3.2210 -0.0051 -0.6757
   18SAPS   C37 2358   1.444   5.650   3.016  0.1599 -0.0226  0.2035
   18SAPS   H7X 2359   1.550   5.650   3.050  0.3971  1.3077 -0.4920
   18SAPS   H7Y 2360   1.376   5.573   3.058 -1.6481  0.8630 -1.0142
   18SAPS   C38 2361   1.396   5.774   3.094 -0.0658 -0.5474 -0.0868
   18SAPS   H8X 2362   1.289   5.796   3.073  0.2942  0.1118 -1.3588
   18SAPS   H8Y 2363   1.461   5.855   3.055  0.1999  1.1673  3.5248
   18SAPS   C39 2364   1.411   5.777   3.250 -0.8412  0.3115  0.2425
   18SAPS   H9X 2365   1.339   5.849   3.294  1.5933  3.1330 -0.0675
   18SAPS   H9Y 2366   1.520   5.794   3.265 -0.1320 -2.2378 -1.3618
   18SAPS  C310 2367   1.371   5.647   3.320 -0.0798  0.1170 -0.1429
   18SAPS  H10X 2368   1.427   5.557   3.290  2.7523  1.4391  0.8827
   18SAPS  H10Y 2369   1.262   5.646   3.295 -0.4483  2.4841  0.9818
   18SAPS  C311 2370   1.398   5.672   3.474  0.3356 -0.5912 -0.9111
   18SAPS  H11X 2371   1.405   5.783   3.479 -2.1324 -0.3825 -0.8905
   18SAPS  H11Y 2372   1.495   5.629   3.506  0.8730 -0.4191 -2.2453
   18SAPS  C312 2373   1.291   5.618   3.572 -0.0087  0.8180  0.8586
   18SAPS  H12X 2374   1.283   5.507   3.574  1.7522  0.6755  1.2661
   18SAPS  H12Y 2375   1.197   5.664   3.535 -1.1983 -1.4073  0.9354
   18SAPS  C313 2376   1.322   5.673   3.710  0.0365 -0.1009  0.5804
   18SAPS  H13X 2377   1.323   5.783   3.704  0.7853 -0.0543  1.3495
   18SAPS  H13Y 2378   1.426   5.646   3.739  0.0529  2.0034  2.7770
   18SAPS  C314 2379   1.229   5.617   3.819  0.0040  0.4410 -0.5923
   18SAPS  H14X 2380   1.239   5.509   3.844 -2.4349  0.9128  3.1832
   18SAPS  H14Y 2381   1.124   5.629   3.787 -1.0441  0.7357  2.5492
   18SAPS  C315 2382   1.236   5.698   3.947 -0.0690 -0.0398  0.4103
   18SAPS  H15X 2383   1.215   5.804   3.922  2.4390  0.6614  0.9478
   18SAPS  H15Y 2384   1.329   5.695   4.008 -0.0075  0.2433  0.3334
   18SAPS  C316 2385   1.129   5.666   4.054  0.3190 -0.5343 -0.2032
   18SAPS  H16X 2386   1.135   5.565   4.099  0.0678 -0.4552  0.0083
   18SAPS  H16Y 2387   1.028   5.674   4.008  0.5132  0.8399 -0.4561
   18SAPS  C317 2388   1.126   5.766   4.170  0.0711 -0.0664  0.6586
   18SAPS  H17X 2389   1.089   5.858   4.120  0.7946 -0.8083 -1.3688
   18SAPS  H17Y 2390   1.226   5.778   4.216 -0.4331  0.8327  1.5561
   18SAPS  C318 2391   1.023   5.724   4.280  0.3726  0.9722  0.4334
   18SAPS  H18X 2392   0.989   5.808   4.345 -1.6257  0.6681 -0.1455
   18SAPS  H18Y 2393   1.065   5.644   4.344  0.2204 -0.6781 -1.4434
   18SAPS  H18Z 2394   0.932   5.680   4.233  1.2510 -0.7721  0.3085
   19SAPS     N 2395   0.429   5.653   1.788 -0.5213  0.0606 -0.6984
   19SAPS   HN1 2396   0.354   5.639   1.859  1.5374  2.1613  2.1388
   19SAPS   HN2 2397   0.406   5.605   1.699 -1.5688  1.6378 -1.3313
   19SAPS   HN3 2398   0.513   5.612   1.833 -2.2216 -0.2227  2.5652
   19SAPS   C12 2399   0.459   5.798   1.760  0.0320  1.0397  0.4862
   19SAPS  H12A 2400   0.465   5.844   1.857  0.5144  0.7594  0.5920
   19SAPS   C13 2401   0.593   5.801   1.692 -0.2594 -0.7615  0.4428
   19SAPS  O13A 2402   0.659   5.696   1.665 -0.0737  0.0842  0.1165
   19SAPS  O13B 2403   0.626   5.911   1.636  0.2998  1.1178 -0.7500
   19SAPS   C11 2404   0.342   5.856   1.668  0.8696  0.3623 -0.3643
   19SAPS  H11A 2405   0.340   5.799   1.572 -1.0652  0.7110 -0.5740
   19SAPS  H11B 2406   0.358   5.965   1.656 -1.4763  0.8596  0.4746
   19SAPS     P 2407   0.084   5.915   1.719 -0.3214  0.3516 -0.2818
   19SAPS   O13 2408   0.110   6.039   1.643  0.1905 -0.5792 -0.7744
   19SAPS   O14 2409  -0.021   5.823   1.668  0.3846  1.3233 -0.2973
   19SAPS   O12 2410   0.218   5.832   1.732 -0.2621  0.5107 -0.7209
   19SAPS   O11 2411   0.050   5.959   1.868  0.3556 -0.6490  0.5829
   19SAPS    C1 2412   0.149   6.036   1.937  0.5844 -0.0217  0.2306
   19SAPS    HA 2413   0.242   6.046   1.877 -0.3413  0.5276 -1.1530
   19SAPS    HB 2414   0.109   6.140   1.944 -0.8423 -0.4612 -1.0224
   19SAPS    C2 2415   0.195   5.982   2.073  0.9886 -0.3959  0.0213
   19SAPS    HS 2416   0.220   5.874   2.066  1.0691 -0.4402  0.9128
   19SAPS   O21 2417   0.097   6.007   2.174  0.0905 -0.2955 -0.3368
   19SAPS   C21 2418   0.101   5.929   2.284 -0.5755 -0.2381  1.1771
   19SAPS   O22 2419   0.164   5.826   2.289 -1.0573 -0.0895  0.4570
   19SAPS   C22 2420  -0.006   5.974   2.377 -0.2685 -0.1097 -0.2705
   19SAPS   H2R 2421   0.029   6.058   2.440  1.3021 -0.5919 -0.4651
   19SAPS   H2S 2422  -0.085   6.015   2.310  1.1950  2.0993 -0.7457
   19SAPS    C3 2423   0.331   6.045   2.108 -0.3747  0.4177 -0.5298
   19SAPS    HX 2424   0.318   6.155   2.122 -3.2372 -0.0206  1.0655
   19SAPS    HY 2425   0.402   6.031   2.024  0.0202 -0.0224 -0.1238
   19SAPS   O31 2426   0.389   5.992   2.230 -0.0083 -0.1766  0.0747
   19SAPS   C31 2427   0.455   5.870   2.218  0.2322  0.3412  0.0922
   19SAPS   O32 2428   0.441   5.802   2.117 -0.0249  0.5786  0.9574
   19SAPS   C32 2429   0.543   5.851   2.348 -0.5985  0.1983 -0.0529
   19SAPS   H2X 2430   0.491   5.857   2.446  0.3770  0.3083  0.4703
   19SAPS   H2Y 2431   0.590   5.951   2.361 -0.7478  0.2662 -0.0262
   19SAPS   C23 2432  -0.077   5.860   2.467 -0.3177 -0.1874 -0.1864
   19SAPS   H3R 2433  -0.007   5.820   2.543 -0.4379 -0.3644 -0.1682
   19SAPS   H3S 2434  -0.096   5.775   2.398  1.2914 -1.2889  0.6699
   19SAPS   C24 2435  -0.216   5.910   2.526 -0.3920  0.2867  0.0365
   19SAPS   H4R 2436  -0.285   5.827   2.551 -1.7519  2.2407  3.3222
   19SAPS   H4S 2437  -0.265   5.952   2.436  1.5844  1.6972 -0.4640
   19SAPS   C25 2438  -0.194   6.018   2.631  0.1567 -0.0381 -0.1132
   19SAPS   H5R 2439  -0.220   6.118   2.591 -0.8460 -1.5134 -3.5015
   19SAPS   C26 2440  -0.178   6.010   2.764  0.0553  0.1253  0.8596
   19SAPS   H6R 2441  -0.184   6.105   2.820  0.2905  0.0449  1.0219
   19SAPS   C27 2442  -0.164   5.884   2.848  0.1059 -0.9022 -0.0969
   19SAPS   H7R 2443  -0.177   5.790   2.790  2.5530 -0.4369 -1.5245
   19SAPS   H7S 2444  -0.242   5.880   2.927  0.7279 -2.0003  0.5033
   19SAPS   C28 2445  -0.031   5.870   2.931  0.7625  0.0269 -0.3568
   19SAPS   H8R 2446   0.045   5.820   2.870 -1.7503 -1.4350 -2.5505
   19SAPS   C29 2447  -0.007   5.923   3.051 -0.2771 -0.5894  0.4758
   19SAPS   H9R 2448   0.089   5.894   3.095  0.2370  1.7718  1.0951
   19SAPS  C210 2449  -0.097   6.006   3.144 -0.1588  0.1767 -0.5480
   19SAPS  H10R 2450  -0.130   5.942   3.229  3.1482 -0.2591  0.5188
   19SAPS  H10S 2451  -0.190   6.036   3.090 -0.7739 -0.8678 -0.0928
   19SAPS  C211 2452  -0.039   6.132   3.208 -0.6044  0.0462 -0.8420
   19SAPS  H11R 2453  -0.080   6.227   3.172  1.5781  0.5893 -2.0455
   19SAPS  C212 2454   0.037   6.127   3.325  0.0564  0.0996 -0.7529
   19SAPS  H12R 2455   0.083   6.221   3.359  1.8756 -1.1392  0.3840
   19SAPS  C213 2456   0.082   6.002   3.396  0.2896  0.5752 -0.6975
   19SAPS  H13R 2457   0.137   5.934   3.327  3.1924  3.3978 -1.4001
   19SAPS  H13S 2458  -0.011   5.953   3.433 -0.6643  2.3509 -0.6390
   19SAPS  C214 2459   0.180   6.036   3.509  0.0367  1.0977 -0.4147
   19SAPS  H14R 2460   0.285   6.026   3.479  0.7370  2.1726  1.4502
   19SAPS  C215 2461   0.150   6.064   3.637 -0.1913  0.1365 -0.7208
   19SAPS  H15R 2462   0.234   6.071   3.708 -0.6008 -0.5169 -0.1552
   19SAPS  C216 2463   0.014   6.067   3.698  0.2229 -1.3455 -0.1704
   19SAPS  H16R 2464  -0.012   5.971   3.747 -0.7628 -0.9573  0.1011
   19SAPS  H16S 2465  -0.062   6.083   3.619  1.1235  0.2701 -0.7538
   19SAPS  C217 2466  -0.010   6.169   3.813  0.7610  0.3093  0.0926
   19SAPS  H17R 2467   0.009   6.266   3.762 -1.7392  0.9613  0.2635
   19SAPS  H17S 2468   0.054   6.152   3.902 -2.0842  2.9906  2.9141
   19SAPS  C218 2469  -0.155   6.171   3.869  0.2290 -0.3988 -0.0634
   19SAPS  H18R 2470  -0.187   6.065   3.884 -3.4529  0.7374  1.3472
   19SAPS  H18S 2471  -0.232   6.211   3.799 -0.4952  0.1689  1.0479
   19SAPS  C219 2472  -0.164   6.248   4.002 -0.0890 -0.0456  0.5545
   19SAPS  H19R 2473  -0.170   6.356   3.975 -0.7314 -0.2837 -0.3084
   19SAPS  H19S 2474  -0.074   6.250   4.067  0.2201  0.3837  0.1168
   19SAPS  C220 2475  -0.277   6.208   4.087  0.9230  0.2271 -0.2715
   19SAPS  H20R 2476  -0.260   6.273   4.176  0.3999  1.4973 -1.0789
   19SAPS  H20S 2477  -0.267   6.105   4.127 -0.1543 -0.1403 -0.9113
   19SAPS  H20T 2478  -0.379   6.225   4.045  0.3692  0.2983  1.0436
   19SAPS   C33 2479   0.637   5.727   2.332  0.2147  0.4659 -0.3547
   19SAPS   H3X 2480   0.716   5.753   2.259  0.8572  1.2535  0.5901
   19SAPS   H3Y 2481   0.585   5.635   2.298 -1.0571  1.0021  0.0699
   19SAPS   C34 2482   0.706   5.694   2.469 -0.7781  0.1307  1.1316
   19SAPS   H4X 2483   0.769   5.780   2.501 -0.6449 -0.5052  2.6520
   19SAPS   H4Y 2484   0.773   5.609   2.445 -0.8187 -0.0369  1.6067
   19SAPS   C35 2485   0.615   5.653   2.593 -0.8085  0.2051  1.0117
   19SAPS   H5X 2486   0.584   5.547   2.580  1.0845 -0.1446 -1.3780
   19SAPS   H5Y 2487   0.524   5.717   2.598 -0.5658  0.7425 -0.7792
   19SAPS   C36 2488   0.673   5.667   2.730 -0.2652 -0.4343  0.0212
   19SAPS   H6X 2489   0.613   5.625   2.813  2.3487 -1.5999  1.4511
   19SAPS   H6Y 2490   0.693   5.775   2.748 -0.6738 -0.3915  0.2391
   19SAPS   C37 2491   0.816   5.614   2.729 -0.8577  0.6850 -1.0940
   19SAPS   H7X 2492   0.884   5.658   2.653  0.8659 -1.2716 -0.7915
   19SAPS   H7Y 2493   0.820   5.506   2.702 -0.7137  0.3262  0.3115
   19SAPS   C38 2494   0.890   5.648   2.869  0.4649 -0.7210  1.0899
   19SAPS   H8X 2495   0.845   5.743   2.905 -0.7635 -0.9115  0.1352
   19SAPS   H8Y 2496   0.997   5.664   2.844  0.3823  0.0142  1.1744
   19SAPS   C39 2497   0.870   5.539   2.964  0.8854  0.7226 -0.9106
   19SAPS   H9X 2498   0.905   5.441   2.925 -0.2477 -0.8689  1.8170
   19SAPS   H9Y 2499   0.761   5.522   2.976  1.0461  1.2057  2.1549
   19SAPS  C310 2500   0.925   5.571   3.102  0.1021 -0.3325  0.4820
   19SAPS  H10X 2501   0.909   5.677   3.132  3.3452  1.1921 -2.4780
   19SAPS  H10Y 2502   1.036   5.569   3.089  0.0721  3.2527 -1.4285
   19SAPS  C311 2503   0.866   5.481   3.210 -0.2633  0.5788  0.2105
   19SAPS  H11X 2504   0.895   5.375   3.196 -0.3389  0.3127  1.8642
   19SAPS  H11Y 2505   0.756   5.480   3.230 -0.0914 -1.2883  1.3184
   19SAPS  C312 2506   0.936   5.497   3.348 -0.2666 -0.1399  0.3628
   19SAPS  H12X 2507   0.944   5.607   3.363  2.0422 -0.3870  1.3086
   19SAPS  H12Y 2508   1.038   5.457   3.331  0.0244  0.6229  0.2939
   19SAPS  C313 2509   0.866   5.441   3.462  0.1626 -0.0397 -0.3900
   19SAPS  H13X 2510   0.858   5.330   3.451 -0.5693 -0.0926  0.5889
   19SAPS  H13Y 2511   0.762   5.475   3.481  0.2360  0.0535 -0.1612
   19SAPS  C314 2512   0.948   5.458   3.591  0.1245 -0.4595  0.2425
   19SAPS  H14X 2513   0.984   5.561   3.610  0.9565 -0.7520  0.3296
   19SAPS  H14Y 2514   1.039   5.394   3.587 -0.8949 -1.9735  0.1687
   19SAPS  C315 2515   0.867   5.422   3.712 -0.9933 -0.0505 -0.6763
   19SAPS  H15X 2516   0.817   5.323   3.704  0.0666 -0.6394 -0.2272
   19SAPS  H15Y 2517   0.788   5.499   3.725 -1.2715 -0.5115  0.4859
   19SAPS  C316 2518   0.952   5.426   3.837  0.2515 -0.1133 -0.9636
   19SAPS  H16X 2519   0.961   5.535   3.857 -1.4083 -0.3589  1.5663
   19SAPS  H16Y 2520   1.052   5.378   3.826  0.4514 -0.0602  0.4042
   19SAPS  C317 2521   0.880   5.359   3.964 -0.0362  0.4024  0.6528
   19SAPS  H17X 2522   0.948   5.341   4.050 -0.9835 -0.9989  1.1420
   19SAPS  H17Y 2523   0.869   5.250   3.945  2.7400 -0.3610  2.8204
   19SAPS  C318 2524   0.756   5.431   3.996 -0.1264 -0.1239  0.5963
   19SAPS  H18X 2525   0.698   5.379   4.075 -2.2117  2.8764  1.2345
   19SAPS  H18Y 2526   0.670   5.429   3.926  1.3135 -0.4041 -1.2185
   19SAPS  H18Z 2527   0.770   5.534   4.035  1.6973 -0.2974  0.4955
   20SAPS     N 2528   6.138   6.488   1.989 -0.4216  0.1466  0.1156
   20SAPS   HN1 2529   6.132   6.519   1.890 -0.0413 -3.2359 -1.0767
   20SAPS   HN2 2530   6.060   6.533   2.041 -0.4456  2.0208 -1.3961
   20SAPS   HN3 2531   6.227   6.508   2.039  0.7376 -0.5385 -1.5584
   20SAPS   C12 2532   6.122   6.340   2.004  0.9241  0.0409  0.5252
   20SAPS  H12A 2533   6.040   6.307   1.942  0.6682  1.6099 -0.0216
   20SAPS   C13 2534   6.233   6.252   1.948 -0.1029 -0.3169  0.0219
   20SAPS  O13A 2535   6.315   6.309   1.864  0.2222  0.0885  0.6906
   20SAPS  O13B 2536   6.237   6.129   1.972 -0.1866 -0.0576 -0.0289
   20SAPS   C11 2537   6.116   6.305   2.152  0.2434 -0.5144  0.1099
   20SAPS  H11A 2538   6.216   6.331   2.194  0.4800 -0.0793 -0.6881
   20SAPS  H11B 2539   6.094   6.199   2.177 -0.2683 -0.7222 -1.1200
   20SAPS     P 2540   5.904   6.330   2.323  0.1197  0.5967  0.4053
   20SAPS   O13 2541   5.824   6.451   2.365 -0.2180 -0.3153  0.3824
   20SAPS   O14 2542   5.821   6.221   2.257 -0.0067 -0.5374 -0.6427
   20SAPS   O12 2543   6.020   6.388   2.222  1.2240 -0.1777 -0.0421
   20SAPS   O11 2544   5.978   6.265   2.446 -0.5190  0.1970  0.1264
   20SAPS    C1 2545   6.101   6.337   2.496  0.0959  0.0012  0.0817
   20SAPS    HA 2546   6.186   6.299   2.436 -2.2278 -2.3044 -2.0187
   20SAPS    HB 2547   6.102   6.448   2.484 -1.5337 -0.0884 -1.2167
   20SAPS    C2 2548   6.111   6.310   2.647  0.1004  0.1379 -0.4623
   20SAPS    HS 2549   6.202   6.367   2.676 -0.1621  1.8434 -2.7036
   20SAPS   O21 2550   6.125   6.163   2.684  0.0328 -0.1813 -0.6682
   20SAPS   C21 2551   6.235   6.100   2.657  0.0899  0.4091 -0.4096
   20SAPS   O22 2552   6.337   6.147   2.608  0.5389  0.2857  0.4625
   20SAPS   C22 2553   6.232   5.960   2.711  0.0528  0.2999  0.1280
   20SAPS   H2R 2554   6.160   5.966   2.796  1.5072 -0.6669  1.4915
   20SAPS   H2S 2555   6.211   5.893   2.625 -1.6990  0.9650  0.0054
   20SAPS    C3 2556   5.984   6.362   2.715 -0.6703  0.0595 -0.3547
   20SAPS    HX 2557   5.903   6.288   2.697  0.8844 -1.9440  0.4349
   20SAPS    HY 2558   5.948   6.458   2.673 -4.4648 -0.9915  0.0779
   20SAPS   O31 2559   6.014   6.377   2.853  0.0876  0.3903 -0.2595
   20SAPS   C31 2560   5.947   6.299   2.939 -0.1566  0.1859  0.2373
   20SAPS   O32 2561   5.845   6.236   2.920 -0.0882  0.0772 -0.3714
   20SAPS   C32 2562   6.017   6.316   3.078  0.3751  0.4799  0.1490
   20SAPS   H2X 2563   6.027   6.427   3.080 -0.8438  0.6463 -1.2497
   20SAPS   H2Y 2564   6.118   6.273   3.060 -0.1643 -0.7210 -0.0729
   20SAPS   C23 2565   6.361   5.900   2.773  0.3045  0.2775  0.0410
   20SAPS   H3R 2566   6.451   5.939   2.721  0.2364  0.5796  0.1469
   20SAPS   H3S 2567   6.360   5.793   2.744 -0.8385  1.0855 -3.2557
   20SAPS   C24 2568   6.366   5.925   2.925 -0.6204  0.9462 -0.0050
   20SAPS   H4R 2569   6.440   5.850   2.960 -1.5134  0.8038  1.6586
   20SAPS   H4S 2570   6.274   5.901   2.982  0.9678  1.6902  3.0373
   20SAPS   C25 2571   6.409   6.060   2.957 -0.5800 -0.7637 -0.1859
   20SAPS   H5R 2572   6.438   6.124   2.873 -0.6149 -1.4785 -0.7488
   20SAPS   C26 2573   6.400   6.126   3.075  0.3353  0.1663 -0.0414
   20SAPS   H6R 2574   6.440   6.228   3.083 -2.2432  1.1500  1.9908
   20SAPS   C27 2575   6.357   6.061   3.207 -0.5291 -0.1173  0.4368
   20SAPS   H7R 2576   6.294   5.969   3.203 -1.9210  0.7231  2.0829
   20SAPS   H7S 2577   6.294   6.134   3.262 -0.2159  1.2050 -0.8988
   20SAPS   C28 2578   6.475   6.027   3.297  0.6568  0.5493  0.4739
   20SAPS   H8R 2579   6.542   5.954   3.250 -0.1321  0.3934 -0.4541
   20SAPS   C29 2580   6.508   6.076   3.417 -0.8605  0.2231 -0.3524
   20SAPS   H9R 2581   6.601   6.037   3.461  0.2913 -0.7509 -3.3924
   20SAPS  C210 2582   6.442   6.187   3.500 -0.0226 -0.5641  0.2863
   20SAPS  H10R 2583   6.430   6.278   3.438  2.0550  0.6121  1.4998
   20SAPS  H10S 2584   6.518   6.224   3.572  1.1558 -0.3272 -1.0442
   20SAPS  C211 2585   6.317   6.147   3.577 -0.2656 -0.4890 -0.4867
   20SAPS  H11R 2586   6.225   6.148   3.517  0.2778 -0.3768 -1.3364
   20SAPS  C212 2587   6.309   6.095   3.702  0.4824 -0.1133  0.1023
   20SAPS  H12R 2588   6.204   6.086   3.736  0.0083 -0.1978 -1.2983
   20SAPS  C213 2589   6.418   6.078   3.799  0.0050 -0.5552 -0.3916
   20SAPS  H13R 2590   6.421   6.169   3.863 -1.5623  0.8274 -2.1787
   20SAPS  H13S 2591   6.521   6.077   3.756  1.5767  2.4351  2.7344
   20SAPS  C214 2592   6.404   5.951   3.874  0.3398  0.3189 -0.3364
   20SAPS  H14R 2593   6.363   5.964   3.976  1.0543  0.5729 -0.0741
   20SAPS  C215 2594   6.444   5.827   3.837  1.1636  0.6356  0.9687
   20SAPS  H15R 2595   6.412   5.745   3.903 -0.3894  0.2854 -0.1598
   20SAPS  C216 2596   6.476   5.782   3.693 -0.7503 -0.1904 -0.3820
   20SAPS  H16R 2597   6.574   5.731   3.702 -0.9508 -0.3124  1.4693
   20SAPS  H16S 2598   6.495   5.876   3.637  0.8376  0.3119  0.9030
   20SAPS  C217 2599   6.378   5.680   3.631 -0.5469 -0.6795 -0.2323
   20SAPS  H17R 2600   6.278   5.728   3.641 -0.0575 -0.0021  1.7633
   20SAPS  H17S 2601   6.382   5.580   3.681  0.5235 -0.3174  0.4403
   20SAPS  C218 2602   6.411   5.649   3.486 -0.1707 -0.4237  0.4920
   20SAPS  H18R 2603   6.485   5.566   3.488  0.9582  0.5487  2.5514
   20SAPS  H18S 2604   6.472   5.734   3.449 -2.1320  0.8868  0.1164
   20SAPS  C219 2605   6.300   5.598   3.396 -0.2561  1.0874 -0.6134
   20SAPS  H19R 2606   6.210   5.662   3.408 -0.3508  0.5920  1.6870
   20SAPS  H19S 2607   6.269   5.502   3.443 -0.4441  1.6348  0.3923
   20SAPS  C220 2608   6.329   5.575   3.249  0.0480  0.8485 -0.2104
   20SAPS  H20R 2609   6.388   5.482   3.240 -0.8976  0.0772  1.2202
   20SAPS  H20S 2610   6.382   5.661   3.203  0.8704  0.1103 -0.6707
   20SAPS  H20T 2611   6.229   5.565   3.200 -0.7681 -1.6953  1.7285
   20SAPS   C33 2612   5.956   6.247   3.198 -0.3259  0.1392  0.3121
   20SAPS   H3X 2613   6.024   6.166   3.231 -1.3266 -0.8399  0.0502
   20SAPS   H3Y 2614   5.861   6.191   3.182 -0.2321 -0.5965  2.1145
   20SAPS   C34 2615   5.949   6.339   3.314 -0.0181  0.6391 -0.0902
   20SAPS   H4X 2616   5.875   6.416   3.284  0.4035  0.6211 -1.2297
   20SAPS   H4Y 2617   6.049   6.380   3.341  0.1468  0.1369  0.0625
   20SAPS   C35 2618   5.879   6.271   3.433 -0.4742  1.1521 -0.4749
   20SAPS   H5X 2619   5.905   6.163   3.438 -2.4070  0.6942  1.5457
   20SAPS   H5Y 2620   5.772   6.269   3.402 -0.2132  1.7625 -1.4924
   20SAPS   C36 2621   5.893   6.348   3.566  0.3288 -0.1711  0.2324
   20SAPS   H6X 2622   5.842   6.444   3.546  1.1370 -0.0823 -1.6311
   20SAPS   H6Y 2623   6.002   6.363   3.584  0.1539  2.7729 -0.5657
   20SAPS   C37 2624   5.821   6.268   3.672 -0.4827 -0.4560  0.5958
   20SAPS   H7X 2625   5.899   6.213   3.729 -0.0728  1.2744  1.7812
   20SAPS   H7Y 2626   5.753   6.194   3.624  1.4079 -1.0305 -1.3072
   20SAPS   C38 2627   5.753   6.359   3.774  0.7225  0.2693  0.4067
   20SAPS   H8X 2628   5.652   6.387   3.737  0.1130 -1.5081  0.6162
   20SAPS   H8Y 2629   5.805   6.457   3.777 -1.6740  1.7536 -1.9408
   20SAPS   C39 2630   5.745   6.307   3.922 -0.1648 -0.0910  0.4097
   20SAPS   H9X 2631   5.742   6.393   3.992 -0.9172 -1.9886  2.8788
   20SAPS   H9Y 2632   5.836   6.249   3.948  1.2149  1.7053 -0.1891
   20SAPS  C310 2633   5.627   6.212   3.934  0.4527  0.0827 -0.2310
   20SAPS  H10X 2634   5.632   6.118   3.876 -0.1085 -0.0084 -0.1403
   20SAPS  H10Y 2635   5.543   6.263   3.882  0.5306  1.8374  1.2605
   20SAPS  C311 2636   5.573   6.190   4.076 -0.5287 -0.8016 -0.3746
   20SAPS  H11X 2637   5.526   6.286   4.104 -1.5091 -0.9141 -1.5671
   20SAPS  H11Y 2638   5.662   6.165   4.138 -0.6248 -0.3127 -0.0360
   20SAPS  C312 2639   5.458   6.085   4.088 -0.1336  0.9027  0.6856
   20SAPS  H12X 2640   5.457   6.050   4.193 -1.7039 -3.0320 -0.4670
   20SAPS  H12Y 2641   5.487   6.001   4.022  0.8802  1.1797  0.7526
   20SAPS  C313 2642   5.321   6.150   4.052 -0.3559  0.0278 -0.2704
   20SAPS  H13X 2643   5.318   6.169   3.942  0.5399 -2.9128 -0.8742
   20SAPS  H13Y 2644   5.315   6.247   4.107  0.5657  0.4621 -0.9071
   20SAPS  C314 2645   5.213   6.057   4.108 -0.5970 -0.3332 -0.4433
   20SAPS  H14X 2646   5.207   6.083   4.216  1.8891  1.3931 -0.6329
   20SAPS  H14Y 2647   5.232   5.952   4.076  0.1220  0.0025 -1.1574
   20SAPS  C315 2648   5.074   6.077   4.047 -0.2650 -0.6261  0.0845
   20SAPS  H15X 2649   5.093   6.071   3.938 -1.5931  0.7535 -0.2530
   20SAPS  H15Y 2650   5.045   6.182   4.069 -0.0146 -0.6271  0.4258
   20SAPS  C316 2651   4.974   5.970   4.096  0.6697  0.3911  0.4644
   20SAPS  H16X 2652   4.978   5.954   4.206 -0.7678  1.5336  0.7173
   20SAPS  H16Y 2653   5.012   5.872   4.059 -0.6689 -1.4234  3.5003
   20SAPS  C317 2654   4.832   5.992   4.045  0.1106  0.3069  0.5033
   20SAPS  H17X 2655   4.826   5.976   3.935  1.0682  0.0028  0.4846
   20SAPS  H17Y 2656   4.800   6.096   4.063 -3.2226 -0.4719 -0.2907
   20SAPS  C318 2657   4.731   5.888   4.103  0.5622  0.0435  0.6796
   20SAPS  H18X 2658   4.625   5.895   4.069  0.1077 -1.1966  1.7667
   20SAPS  H18Y 2659   4.720   5.888   4.213  2.1612  1.3698  0.8837
   20SAPS  H18Z 2660   4.770   5.785   4.087  1.1591  0.0454  2.0387
   21CHL1    C3 2661   6.281   5.139   6.370 -0.1533 -0.1132  0.7809
   21CHL1    H3 2662   6.385   5.132   6.331 -0.7231  0.9841 -1.0675
   21CHL1    O3 2663   6.278   5.163   6.512  0.5597 -0.2592  0.0441
   21CHL1   H3' 2664   6.304   5.255   6.516 -1.3839  0.3455 -0.0105
   21CHL1    C4 2665   6.217   5.261   6.294  0.4453 -0.5520 -0.4162
   21CHL1   H4A 2666   6.118   5.292   6.333  1.3882  1.9335  0.2164
   21CHL1   H4B 2667   6.280   5.349   6.320 -1.0157  0.4308 -0.0599
   21CHL1    C5 2668   6.196   5.242   6.145  0.3423  0.2788 -0.2956
   21CHL1    C6 2669   6.241   5.332   6.057 -0.3157 -0.4172  0.2122
   21CHL1    H6 2670   6.280   5.427   6.097 -2.3202  1.3923 -1.9015
   21CHL1    C7 2671   6.223   5.323   5.909  0.6753 -0.2322  0.2336
   21CHL1   H7A 2672   6.180   5.412   5.859  0.0114 -0.4619  0.3810
   21CHL1   H7B 2673   6.322   5.302   5.863  0.6654 -0.7876  0.4564
   21CHL1    C8 2674   6.140   5.199   5.858 -0.7309 -0.6411  0.2450
   21CHL1    H8 2675   6.032   5.226   5.853 -0.7155 -0.3126  1.4607
   21CHL1   C14 2676   6.186   5.170   5.717  0.6523  0.2545  0.7566
   21CHL1   H14 2677   6.286   5.125   5.729  0.5376 -0.5198 -0.8433
   21CHL1   C15 2678   6.198   5.278   5.604 -0.4720  0.1083 -0.7075
   21CHL1  H15A 2679   6.104   5.337   5.609 -1.5256 -1.3404 -2.1818
   21CHL1  H15B 2680   6.283   5.341   5.636 -1.8690  1.0339  1.3606
   21CHL1   C16 2681   6.205   5.199   5.471  0.1008  0.0852 -0.0753
   21CHL1  H16A 2682   6.137   5.245   5.397  2.1336  1.0068 -1.4863
   21CHL1  H16B 2683   6.302   5.192   5.417  0.0560  0.4924 -0.2142
   21CHL1   C17 2684   6.181   5.052   5.512 -0.1768 -0.7411 -0.2508
   21CHL1   H17 2685   6.278   5.003   5.536  0.1787 -0.0669 -0.3000
   21CHL1   C13 2686   6.108   5.054   5.653  0.4278  0.3594  1.0410
   21CHL1   C18 2687   5.962   5.095   5.629  0.2556  0.2128 -0.7011
   21CHL1  H18A 2688   5.913   5.136   5.720  0.8214  1.7725 -1.0721
   21CHL1  H18B 2689   5.961   5.171   5.547  0.1264 -1.1121 -1.9695
   21CHL1  H18C 2690   5.913   5.002   5.594  1.4192 -0.6876 -0.0094
   21CHL1   C12 2691   6.124   4.925   5.740  0.6898  0.2364 -0.8794
   21CHL1  H12A 2692   6.066   4.839   5.700 -0.1866 -0.0043  0.8437
   21CHL1  H12B 2693   6.231   4.894   5.736  1.0096  1.2081 -0.3104
   21CHL1   C11 2694   6.076   4.961   5.889  0.0022  0.0575  0.0852
   21CHL1  H11A 2695   5.968   4.987   5.885  0.3944  1.6107 -1.4044
   21CHL1  H11B 2696   6.089   4.869   5.951  0.2243  0.0906  0.0864
   21CHL1    C9 2697   6.155   5.079   5.948 -0.5482 -0.3021  0.0389
   21CHL1    H9 2698   6.260   5.044   5.945  0.2911  1.8391  1.7796
   21CHL1   C10 2699   6.129   5.110   6.097 -0.3313  0.1375 -0.9661
   21CHL1   C19 2700   5.980   5.115   6.109  0.2115  0.3528  0.6811
   21CHL1  H19A 2701   5.941   5.187   6.035 -1.3103 -1.1918 -0.0819
   21CHL1  H19B 2702   5.925   5.018   6.102  0.0267  0.5792 -1.4714
   21CHL1  H19C 2703   5.950   5.146   6.212 -2.1292 -2.5706  1.0112
   21CHL1    C1 2704   6.185   4.988   6.186 -0.0014  0.9252  0.1800
   21CHL1   H1A 2705   6.122   4.900   6.159 -0.1831  1.8182 -2.6804
   21CHL1   H1B 2706   6.286   4.965   6.148 -0.4114 -0.3737 -0.1570
   21CHL1    C2 2707   6.202   5.014   6.336  0.0992  0.0940 -0.7423
   21CHL1   H2A 2708   6.262   4.928   6.373 -0.0032  0.1021 -0.5542
   21CHL1   H2B 2709   6.105   5.016   6.391  1.4577  0.8999  1.7377
   21CHL1   C20 2710   6.122   4.965   5.394 -0.1353  1.1126 -0.1344
   21CHL1   H20 2711   6.011   4.975   5.393 -0.3415 -0.6671 -1.1488
   21CHL1   C21 2712   6.160   4.813   5.424  0.2284  0.2170 -0.1092
   21CHL1  H21A 2713   6.270   4.803   5.435 -0.0234 -2.6695  0.6442
   21CHL1  H21B 2714   6.121   4.745   5.345  2.8233 -1.3486 -0.1335
   21CHL1  H21C 2715   6.118   4.776   5.520 -0.5066  0.1326 -0.4547
   21CHL1   C22 2716   6.179   5.008   5.254 -0.2568  0.5816  0.5403
   21CHL1  H22A 2717   6.130   5.106   5.237  0.0947  0.5612 -0.6749
   21CHL1  H22B 2718   6.289   5.022   5.260 -0.4895  3.2809 -0.5080
   21CHL1   C23 2719   6.136   4.920   5.141  0.2878  0.0349 -0.4613
   21CHL1  H23A 2720   6.176   4.817   5.151  0.2784  0.0982  0.2736
   21CHL1  H23B 2721   6.025   4.907   5.136  0.2019 -0.0858  1.1838
   21CHL1   C24 2722   6.179   4.979   5.001  0.1288 -0.2446 -0.4951
   21CHL1  H24A 2723   6.139   5.082   4.999 -2.1817 -1.0984 -1.0666
   21CHL1  H24B 2724   6.286   4.996   4.977 -0.5244 -0.2988 -4.0590
   21CHL1   C25 2725   6.112   4.895   4.889 -0.2604 -0.5026 -0.1834
   21CHL1   H25 2726   6.004   4.897   4.912 -0.4873  1.4622 -1.2094
   21CHL1   C26 2727   6.154   4.951   4.754 -0.0440 -0.0474  1.0898
   21CHL1  H26A 2728   6.127   5.059   4.749  1.7393  0.5058  2.2560
   21CHL1  H26B 2729   6.264   4.947   4.736 -0.2278 -0.7875  0.0495
   21CHL1  H26C 2730   6.108   4.893   4.671  0.0015 -0.3212  1.2565
   21CHL1   C27 2731   6.160   4.749   4.897 -0.0415  0.1738  0.2947
   21CHL1  H27A 2732   6.271   4.748   4.890 -0.0694  1.5987 -0.7438
   21CHL1  H27B 2733   6.133   4.704   4.995  1.6652  3.0457  2.2283
   21CHL1  H27C 2734   6.129   4.675   4.820 -1.7994  1.0015  0.1552
   22CHL1    C3 2735   2.742   1.864   5.916 -0.3782  0.2887 -0.7112
   22CHL1    H3 2736   2.837   1.814   5.945 -1.4194 -0.0966  2.4347
   22CHL1    O3 2737   2.690   1.919   6.032  0.6888  0.2730 -0.7763
   22CHL1   H3' 2738   2.614   1.972   6.007 -1.4277 -2.2337 -0.1214
   22CHL1    C4 2739   2.766   1.973   5.813 -0.0511 -0.0888  1.0498
   22CHL1   H4A 2740   2.668   2.027   5.807 -0.3919 -0.6014  1.8306
   22CHL1   H4B 2741   2.835   2.054   5.846  0.7966 -0.4251  0.1337
   22CHL1    C5 2742   2.822   1.909   5.683  0.9518 -0.0086 -0.1219
   22CHL1    C6 2743   2.945   1.922   5.630 -0.1504  0.3995 -0.2413
   22CHL1    H6 2744   3.027   1.980   5.674 -0.4071 -0.9205  2.1187
   22CHL1    C7 2745   2.982   1.875   5.486  0.7211 -0.7888  0.0789
   22CHL1   H7A 2746   3.028   1.969   5.449  1.3357 -0.1680  2.2902
   22CHL1   H7B 2747   3.056   1.792   5.482 -0.4188 -1.8841  0.7997
   22CHL1    C8 2748   2.849   1.837   5.404 -0.6932 -0.1729 -0.5240
   22CHL1    H8 2749   2.788   1.929   5.391 -0.9713 -0.3209 -0.2669
   22CHL1   C14 2750   2.887   1.766   5.278  0.0538  0.3625 -0.1710
   22CHL1   H14 2751   2.948   1.675   5.293 -0.0544  0.1207 -1.1538
   22CHL1   C15 2752   2.975   1.850   5.178 -0.8829 -0.5028 -0.1783
   22CHL1  H15A 2753   2.942   1.956   5.175  0.5378  0.2449  3.9013
   22CHL1  H15B 2754   3.082   1.851   5.208 -0.7131  1.4791 -0.7185
   22CHL1   C16 2755   2.953   1.785   5.044  0.0934 -0.2352 -0.4181
   22CHL1  H16A 2756   2.917   1.855   4.965 -0.8697 -2.2619 -1.8677
   22CHL1  H16B 2757   3.046   1.734   5.010  0.2517 -0.0102 -0.3208
   22CHL1   C17 2758   2.838   1.683   5.055  0.2155  0.2534  0.5688
   22CHL1   H17 2759   2.890   1.587   5.074 -0.9615 -0.8721 -1.4776
   22CHL1   C13 2760   2.772   1.723   5.189  0.2707 -0.2670  0.1010
   22CHL1   C18 2761   2.670   1.839   5.169 -0.1831  0.2328  0.5633
   22CHL1  H18A 2762   2.621   1.860   5.267  1.1410 -1.6207  1.6759
   22CHL1  H18B 2763   2.717   1.929   5.124 -1.4368  0.8114  0.3664
   22CHL1  H18C 2764   2.588   1.815   5.097  1.0914  1.2839 -1.3245
   22CHL1   C12 2765   2.709   1.609   5.269 -0.2527 -0.5556 -0.1886
   22CHL1  H12A 2766   2.613   1.587   5.218 -0.1054  0.2719 -0.8407
   22CHL1  H12B 2767   2.782   1.526   5.283  1.1865  0.6997 -0.0364
   22CHL1   C11 2768   2.668   1.651   5.412  0.6974  0.2351  0.4667
   22CHL1  H11A 2769   2.569   1.696   5.390 -0.0093 -2.1974 -1.8224
   22CHL1  H11B 2770   2.653   1.553   5.461 -1.5874 -0.8172 -2.0893
   22CHL1    C9 2771   2.766   1.741   5.493 -0.4263 -0.2969 -0.4911
   22CHL1    H9 2772   2.842   1.676   5.541  0.7515  0.7041 -0.9475
   22CHL1   C10 2773   2.709   1.823   5.617  0.1475  0.1459 -0.5161
   22CHL1   C19 2774   2.588   1.910   5.577 -0.8075 -0.3887  0.0581
   22CHL1  H19A 2775   2.513   1.848   5.523  0.1930  1.0796 -3.2875
   22CHL1  H19B 2776   2.539   1.939   5.672  0.7508  1.0291  0.4634
   22CHL1  H19C 2777   2.621   2.002   5.525 -0.4663 -1.0139 -0.8605
   22CHL1    C1 2778   2.662   1.720   5.728 -0.7393 -0.0246  0.2364
   22CHL1   H1A 2779   2.566   1.673   5.697 -0.8058  1.6218 -2.3182
   22CHL1   H1B 2780   2.739   1.640   5.733 -0.0545  0.1773 -3.7220
   22CHL1    C2 2781   2.638   1.775   5.864  0.2711  0.3329 -0.3891
   22CHL1   H2A 2782   2.625   1.693   5.938 -0.1300 -0.3672 -1.2078
   22CHL1   H2B 2783   2.542   1.829   5.873  0.3620  0.2802  1.2553
   22CHL1   C20 2784   2.762   1.650   4.926 -0.2791 -0.1126 -0.0433
   22CHL1   H20 2785   2.709   1.740   4.887 -1.5018 -0.4953  0.6646
   22CHL1   C21 2786   2.663   1.533   4.942 -0.2045  0.1571  0.2846
   22CHL1  H21A 2787   2.606   1.514   4.848 -2.1294 -0.4436  1.5047
   22CHL1  H21B 2788   2.583   1.566   5.011 -1.3848  3.6955 -2.4673
   22CHL1  H21C 2789   2.716   1.447   4.988  0.2334  0.4093  0.2592
   22CHL1   C22 2790   2.858   1.624   4.800 -0.1877  0.1357  0.0791
   22CHL1  H22A 2791   2.792   1.611   4.711  1.0552 -0.5581 -0.7724
   22CHL1  H22B 2792   2.911   1.720   4.780 -0.8878  0.5165  0.0272
   22CHL1   C23 2793   2.960   1.515   4.821 -0.0750  0.5745  0.8003
   22CHL1  H23A 2794   3.036   1.551   4.894  1.1712  0.5608 -0.4562
   22CHL1  H23B 2795   2.909   1.420   4.850  1.3228 -0.3502  0.3645
   22CHL1   C24 2796   3.030   1.484   4.686  0.2125  0.6805 -0.4547
   22CHL1  H24A 2797   2.957   1.429   4.623 -1.9309  1.4908  1.1866
   22CHL1  H24B 2798   3.060   1.579   4.637  0.5577  0.8682  0.1158
   22CHL1   C25 2799   3.152   1.392   4.685 -1.0096 -0.9201 -0.6046
   22CHL1   H25 2800   3.127   1.289   4.721  0.2986 -0.4434  1.8668
   22CHL1   C26 2801   3.219   1.384   4.541  0.4562  0.1464  0.2935
   22CHL1  H26A 2802   3.145   1.351   4.465  1.3772  0.5443 -0.7888
   22CHL1  H26B 2803   3.279   1.474   4.519  2.2608 -1.4104 -1.4981
   22CHL1  H26C 2804   3.286   1.295   4.542  0.6718  0.3075  1.2433
   22CHL1   C27 2805   3.265   1.436   4.783  0.0509  0.7251 -0.2443
   22CHL1  H27A 2806   3.312   1.533   4.755 -1.3780  1.5563  0.1302
   22CHL1  H27B 2807   3.234   1.448   4.889  1.0143  1.1951 -0.0059
   22CHL1  H27C 2808   3.338   1.352   4.782 -0.3824  0.2686  1.8821
   23CHL1    C3 2809   5.259   4.185   5.950  0.1659 -0.7108 -0.0343
   23CHL1    H3 2810   5.254   4.296   5.940 -0.8992 -0.7959 -0.5373
   23CHL1    O3 2811   5.254   4.168   6.090 -0.5605 -0.1206 -0.0914
   23CHL1   H3' 2812   5.171   4.126   6.112 -0.0408 -0.5181  1.1801
   23CHL1    C4 2813   5.127   4.132   5.886 -0.0869 -1.0679  0.2887
   23CHL1   H4A 2814   5.133   4.022   5.897 -0.9385 -1.1539 -0.0364
   23CHL1   H4B 2815   5.039   4.174   5.940  0.5740  0.1199  0.4811
   23CHL1    C5 2816   5.129   4.161   5.739 -0.0331 -0.1859  1.0599
   23CHL1    C6 2817   5.019   4.222   5.689 -0.1202 -0.0785 -0.3372
   23CHL1    H6 2818   4.935   4.257   5.751  0.3968 -2.9666  2.2312
   23CHL1    C7 2819   5.012   4.234   5.541 -0.0739 -0.0565 -0.7962
   23CHL1   H7A 2820   4.915   4.187   5.513  1.0770 -1.9972 -1.6652
   23CHL1   H7B 2821   5.003   4.340   5.508 -2.0963 -0.0267 -0.3071
   23CHL1    C8 2822   5.121   4.158   5.453 -0.0661  0.0861 -0.6145
   23CHL1    H8 2823   5.081   4.054   5.458 -1.0996  0.5036  0.6142
   23CHL1   C14 2824   5.114   4.213   5.313 -1.0035  0.2263 -0.3357
   23CHL1   H14 2825   5.139   4.319   5.333  1.4473 -0.2299 -0.6531
   23CHL1   C15 2826   4.990   4.241   5.234 -0.0603  0.0159 -0.4471
   23CHL1  H15A 2827   4.900   4.179   5.256 -1.1328  2.3114  2.3710
   23CHL1  H15B 2828   4.961   4.345   5.262 -0.2314 -0.3926  0.9665
   23CHL1   C16 2829   5.037   4.257   5.086 -0.2145 -0.2986 -0.2233
   23CHL1  H16A 2830   5.008   4.164   5.033  2.0217 -0.5367 -1.1857
   23CHL1  H16B 2831   5.012   4.350   5.031 -1.2756  0.0071  0.7519
   23CHL1   C17 2832   5.198   4.262   5.097 -0.3310  0.4189  0.1866
   23CHL1   H17 2833   5.218   4.367   5.129 -0.0437 -0.2723  2.4978
   23CHL1   C13 2834   5.228   4.170   5.221  0.0863  0.3187  0.4437
   23CHL1   C18 2835   5.198   4.019   5.192 -0.5733 -0.9839  0.3976
   23CHL1  H18A 2836   5.093   4.001   5.163 -1.2753  2.9672 -0.0308
   23CHL1  H18B 2837   5.255   3.978   5.106  0.5882 -0.4449  0.8865
   23CHL1  H18C 2838   5.223   3.966   5.287  0.4965  0.1367  0.7564
   23CHL1   C12 2839   5.364   4.200   5.288 -0.2861 -0.4206  0.0808
   23CHL1  H12A 2840   5.448   4.158   5.229 -0.6729 -0.9738 -0.0878
   23CHL1  H12B 2841   5.381   4.309   5.295  0.7401 -0.5855  0.3539
   23CHL1   C11 2842   5.375   4.133   5.428  0.0033 -0.5549 -0.2735
   23CHL1  H11A 2843   5.378   4.023   5.414 -0.4908 -0.6576  0.3417
   23CHL1  H11B 2844   5.474   4.167   5.465 -1.1355  0.8269  1.7602
   23CHL1    C9 2845   5.256   4.173   5.522  0.6784  0.4216 -0.3121
   23CHL1    H9 2846   5.267   4.284   5.523  0.8699  0.4034 -0.1626
   23CHL1   C10 2847   5.251   4.113   5.657 -0.4647 -0.4149 -0.6333
   23CHL1   C19 2848   5.262   3.958   5.648  0.6001 -0.3944 -0.6459
   23CHL1  H19A 2849   5.171   3.919   5.599  0.8242 -2.3000  0.3741
   23CHL1  H19B 2850   5.360   3.929   5.605  0.5710  1.7022 -2.3225
   23CHL1  H19C 2851   5.265   3.917   5.751 -0.5195  1.1114  0.0224
   23CHL1    C1 2852   5.382   4.160   5.736  0.1744 -0.4026  0.9481
   23CHL1   H1A 2853   5.469   4.106   5.693 -0.0081  0.3483 -0.4079
   23CHL1   H1B 2854   5.404   4.267   5.717  0.8215 -0.6610  0.1985
   23CHL1    C2 2855   5.379   4.128   5.886 -0.2002 -0.5183  0.4064
   23CHL1   H2A 2856   5.475   4.155   5.933 -0.2703  0.1901  0.1512
   23CHL1   H2B 2857   5.378   4.017   5.898 -1.7603 -0.7299 -1.1999
   23CHL1   C20 2858   5.274   4.232   4.961 -0.1135  0.0540 -0.4075
   23CHL1   H20 2859   5.313   4.129   4.947 -1.6536 -0.6959  0.5250
   23CHL1   C21 2860   5.404   4.321   4.956 -0.5169 -0.2255 -0.3184
   23CHL1  H21A 2861   5.462   4.313   4.861  1.8259  0.3521  0.9821
   23CHL1  H21B 2862   5.475   4.279   5.031 -0.9725 -1.5322 -0.5904
   23CHL1  H21C 2863   5.390   4.429   4.973  0.5472 -0.0026 -0.7316
   23CHL1   C22 2864   5.187   4.254   4.837  0.1449  0.2780  0.7871
   23CHL1  H22A 2865   5.103   4.181   4.832 -1.6052  2.2510  0.0032
   23CHL1  H22B 2866   5.122   4.344   4.833 -2.2252 -1.3452  0.8257
   23CHL1   C23 2867   5.263   4.238   4.704 -0.4629 -0.5185 -0.2649
   23CHL1  H23A 2868   5.344   4.314   4.698  1.6821 -2.5368  1.4713
   23CHL1  H23B 2869   5.306   4.136   4.695 -0.9462 -0.7262 -0.2216
   23CHL1   C24 2870   5.167   4.260   4.587  0.1741  0.5411  0.2303
   23CHL1  H24A 2871   5.098   4.173   4.585 -1.4116  1.7543 -1.0825
   23CHL1  H24B 2872   5.113   4.352   4.618  1.3447  0.7178  1.8693
   23CHL1   C25 2873   5.229   4.276   4.455  0.5942  0.3318 -0.7992
   23CHL1   H25 2874   5.300   4.360   4.440  1.8892 -0.1241  1.9860
   23CHL1   C26 2875   5.318   4.149   4.432 -0.3411 -0.2417  0.4429
   23CHL1  H26A 2876   5.324   4.143   4.322 -0.0215  1.4607  0.3360
   23CHL1  H26B 2877   5.417   4.173   4.476 -0.3571  0.1490  0.2746
   23CHL1  H26C 2878   5.269   4.063   4.482  3.3724 -1.2809  2.6659
   23CHL1   C27 2879   5.115   4.310   4.361  0.4502 -0.2056  0.8290
   23CHL1  H27A 2880   5.098   4.418   4.378  0.6022 -0.2864  1.5549
   23CHL1  H27B 2881   5.148   4.302   4.255  0.9996 -1.8381  1.0867
   23CHL1  H27C 2882   5.023   4.251   4.380 -2.3254  3.9238  1.5366
   24CHL1    C3 2883   3.120   6.237   6.090 -0.3291 -0.2797 -0.4690
   24CHL1    H3 2884   3.154   6.132   6.103  0.6405 -0.4147 -3.3875
   24CHL1    O3 2885   3.114   6.315   6.213  0.0154 -0.4653 -0.2430
   24CHL1   H3' 2886   3.180   6.272   6.268 -0.6311 -1.3813 -0.1560
   24CHL1    C4 2887   3.228   6.302   6.008  0.0066 -0.1761  0.9489
   24CHL1   H4A 2888   3.209   6.409   5.986 -0.4281 -0.5455 -0.6207
   24CHL1   H4B 2889   3.325   6.285   6.059 -0.1819 -0.6818  1.1410
   24CHL1    C5 2890   3.227   6.255   5.867  0.3604  0.5840  0.2880
   24CHL1    C6 2891   3.333   6.202   5.817  0.4974 -0.2925  0.3818
   24CHL1    H6 2892   3.424   6.197   5.879 -1.2841 -1.6734  3.0564
   24CHL1    C7 2893   3.336   6.147   5.676 -0.1185 -0.1200  0.2815
   24CHL1   H7A 2894   3.428   6.182   5.625 -1.5939 -1.9213 -4.1447
   24CHL1   H7B 2895   3.333   6.036   5.671  0.3833 -0.1077 -0.5059
   24CHL1    C8 2896   3.223   6.206   5.585  0.4266 -0.1031 -0.4368
   24CHL1    H8 2897   3.252   6.312   5.571  0.8695 -0.0098  0.9862
   24CHL1   C14 2898   3.219   6.142   5.451 -0.3117  0.4071  0.2987
   24CHL1   H14 2899   3.230   6.033   5.469 -2.1164  0.1067 -0.2170
   24CHL1   C15 2900   3.341   6.178   5.364  0.5575  0.6127  0.2466
   24CHL1  H15A 2901   3.368   6.284   5.387 -1.3411  1.5266 -1.4032
   24CHL1  H15B 2902   3.432   6.116   5.379  1.2154  2.2837  4.9035
   24CHL1   C16 2903   3.287   6.154   5.218 -1.3996  0.2131  0.0742
   24CHL1  H16A 2904   3.302   6.247   5.160 -0.1947 -0.4307 -0.6880
   24CHL1  H16B 2905   3.357   6.093   5.158 -0.9862  1.1640 -0.4311
   24CHL1   C17 2906   3.136   6.106   5.232  0.3986  0.5155  0.0800
   24CHL1   H17 2907   3.154   5.997   5.245 -0.5681  0.4939  1.5404
   24CHL1   C13 2908   3.098   6.174   5.363 -0.2422 -0.3203  0.8553
   24CHL1   C18 2909   3.095   6.325   5.343  0.7489 -0.7602  0.2314
   24CHL1  H18A 2910   3.004   6.358   5.288 -0.5487  2.1039  3.6853
   24CHL1  H18B 2911   3.094   6.380   5.440  0.0980  0.8701 -0.6779
   24CHL1  H18C 2912   3.179   6.361   5.281 -0.4919 -1.3786 -1.9173
   24CHL1   C12 2913   2.971   6.118   5.431  0.0359 -0.3813 -0.0845
   24CHL1  H12A 2914   2.887   6.139   5.360  0.9868  2.5864 -0.4823
   24CHL1  H12B 2915   2.969   6.011   5.459 -1.8542 -0.2513  0.4307
   24CHL1   C11 2916   2.961   6.197   5.563  0.5385 -0.5636  0.8773
   24CHL1  H11A 2917   2.937   6.303   5.537 -1.0477 -1.6851 -3.0075
   24CHL1  H11B 2918   2.873   6.158   5.617 -0.9065  0.3935 -0.6665
   24CHL1    C9 2919   3.093   6.186   5.660  0.2455  0.2693  0.4098
   24CHL1    H9 2920   3.094   6.079   5.690  0.9326  0.5550  1.4411
   24CHL1   C10 2921   3.087   6.256   5.796 -0.2446 -0.3111  0.6093
   24CHL1   C19 2922   3.052   6.403   5.766 -0.2869 -0.0016 -0.3012
   24CHL1  H19A 2923   2.948   6.421   5.729 -0.0235  1.2018 -0.4820
   24CHL1  H19B 2924   3.070   6.475   5.849  0.3758 -0.8632  0.3253
   24CHL1  H19C 2925   3.117   6.445   5.686  0.5905  2.8055  1.7383
   24CHL1    C1 2926   2.983   6.187   5.880 -0.2526 -0.0941 -0.6659
   24CHL1   H1A 2927   2.882   6.221   5.848 -1.1617 -1.8485  0.1814
   24CHL1   H1B 2928   2.980   6.077   5.871  0.9643 -0.1652 -0.4383
   24CHL1    C2 2929   2.983   6.231   6.029  0.4635  0.0484 -0.0010
   24CHL1   H2A 2930   2.910   6.170   6.087  2.2889 -3.6729 -1.2934
   24CHL1   H2B 2931   2.944   6.335   6.026  1.2008  0.4874  2.8625
   24CHL1   C20 2932   3.038   6.112   5.111 -0.3644 -0.4633 -0.1110
   24CHL1   H20 2933   2.957   6.183   5.138 -0.2598 -0.2218 -0.4244
   24CHL1   C21 2934   2.967   5.980   5.113 -0.2404 -0.0482  0.2083
   24CHL1  H21A 2935   3.040   5.897   5.100 -1.1386 -0.7475 -0.4333
   24CHL1  H21B 2936   2.894   5.968   5.031 -1.5993 -2.2471  1.6555
   24CHL1  H21C 2937   2.912   5.970   5.209  1.1902  0.5073  1.1264
   24CHL1   C22 2938   3.101   6.162   4.979 -0.2304  0.0303 -0.9195
   24CHL1  H22A 2939   3.174   6.244   5.000  0.8043 -1.1640  0.3668
   24CHL1  H22B 2940   3.164   6.081   4.937  0.3659 -0.0380  0.0733
   24CHL1   C23 2941   2.998   6.197   4.872  0.0883 -1.0631  0.0313
   24CHL1  H23A 2942   2.927   6.113   4.858  0.4332 -1.1090 -1.6723
   24CHL1  H23B 2943   2.941   6.284   4.913  1.4759 -0.7276  1.3508
   24CHL1   C24 2944   3.056   6.228   4.737  0.1706 -0.8934 -0.4314
   24CHL1  H24A 2945   3.128   6.313   4.745 -1.6074  0.7893 -1.2857
   24CHL1  H24B 2946   3.108   6.136   4.702  1.0552 -0.4278 -0.3810
   24CHL1   C25 2947   2.954   6.273   4.630 -0.4743  0.3646  0.1886
   24CHL1   H25 2948   2.863   6.210   4.638 -0.5220 -0.1068 -3.0323
   24CHL1   C26 2949   2.908   6.418   4.652 -0.2531  0.1631  0.2869
   24CHL1  H26A 2950   2.879   6.422   4.759 -0.0615  0.0759  0.3430
   24CHL1  H26B 2951   2.994   6.487   4.640 -0.5289  0.2021 -1.8238
   24CHL1  H26C 2952   2.821   6.461   4.598 -0.2011  0.6114  0.5581
   24CHL1   C27 2953   3.016   6.245   4.492  0.1174 -0.3239 -0.0842
   24CHL1  H27A 2954   3.097   6.319   4.474 -0.4791  0.7753  1.5429
   24CHL1  H27B 2955   3.061   6.144   4.480  0.0966 -0.1395 -2.0874
   24CHL1  H27C 2956   2.948   6.262   4.406  2.0714  1.5472 -1.3593
   25CHL1    C3 2957   1.983   6.571   6.203  0.2270  0.0773  0.8733
   25CHL1    H3 2958   1.970   6.461   6.195  1.4867 -0.2115  2.3578
   25CHL1    O3 2959   2.009   6.593   6.337  0.1479 -0.1928 -0.3071
   25CHL1   H3' 2960   2.076   6.662   6.339  0.2638 -0.3091  0.3554
   25CHL1    C4 2961   2.110   6.619   6.131  0.6036  0.2487  0.4765
   25CHL1   H4A 2962   2.116   6.729   6.147 -0.6817  0.5743 -1.0072
   25CHL1   H4B 2963   2.208   6.582   6.169  1.4781  1.3003 -0.6552
   25CHL1    C5 2964   2.094   6.603   5.987 -0.3358  0.2603 -0.1823
   25CHL1    C6 2965   2.189   6.524   5.934 -0.2958  0.4860 -0.4630
   25CHL1    H6 2966   2.274   6.488   5.994  1.1545  0.0954 -2.6206
   25CHL1    C7 2967   2.201   6.511   5.787 -0.3552 -0.2277 -0.6647
   25CHL1   H7A 2968   2.302   6.554   5.777 -0.3166  0.5082  1.9666
   25CHL1   H7B 2969   2.187   6.408   5.746  3.3739 -1.1004 -0.0925
   25CHL1    C8 2970   2.111   6.604   5.708 -0.0042 -0.4414 -0.8460
   25CHL1    H8 2971   2.158   6.705   5.709  0.3286 -0.5919 -0.8589
   25CHL1   C14 2972   2.100   6.550   5.568 -0.0481 -0.0107 -0.2403
   25CHL1   H14 2973   2.034   6.461   5.575 -0.9856  0.7661  1.9443
   25CHL1   C15 2974   2.229   6.503   5.496 -0.8023 -0.7481  0.1626
   25CHL1  H15A 2975   2.309   6.580   5.495 -0.8798 -0.6665 -0.2763
   25CHL1  H15B 2976   2.254   6.406   5.543  1.8570 -0.6316 -0.8235
   25CHL1   C16 2977   2.178   6.487   5.348  0.5920  0.0889 -0.2384
   25CHL1  H16A 2978   2.244   6.525   5.268 -0.0601  1.0859 -0.3267
   25CHL1  H16B 2979   2.166   6.378   5.333  0.3997 -0.0780  0.9779
   25CHL1   C17 2980   2.033   6.553   5.344 -0.4548 -0.3840  0.4545
   25CHL1   H17 2981   1.956   6.473   5.342 -1.6849  0.7676 -1.6597
   25CHL1   C13 2982   2.021   6.638   5.476  0.5392 -0.5471  0.3771
   25CHL1   C18 2983   2.092   6.768   5.451 -0.1343  0.2415 -0.0607
   25CHL1  H18A 2984   2.047   6.836   5.375 -2.0238  0.2258  0.9779
   25CHL1  H18B 2985   2.102   6.818   5.550 -0.1801 -0.7258  0.4366
   25CHL1  H18C 2986   2.194   6.762   5.408 -0.4639 -0.2835 -0.8062
   25CHL1   C12 2987   1.878   6.660   5.530  0.0274 -0.2524 -0.3230
   25CHL1  H12A 2988   1.819   6.733   5.471 -1.0894 -2.0324 -1.5228
   25CHL1  H12B 2989   1.822   6.565   5.517 -0.1358 -0.0957 -0.7868
   25CHL1   C11 2990   1.874   6.707   5.674 -0.0438 -0.6922 -0.0504
   25CHL1  H11A 2991   1.900   6.815   5.669 -0.1272 -0.7245 -1.6471
   25CHL1  H11B 2992   1.772   6.719   5.717  0.4143 -0.2064  0.9470
   25CHL1    C9 2993   1.970   6.624   5.774  0.2763  0.2985  0.3395
   25CHL1    H9 2994   1.924   6.523   5.772 -0.6365  0.6692  1.7372
   25CHL1   C10 2995   1.975   6.665   5.927  0.4154  0.4814  0.4948
   25CHL1   C19 2996   1.983   6.819   5.916  0.1947  0.9732 -0.6635
   25CHL1  H19A 2997   2.063   6.842   5.842  1.7697 -1.0383  0.3209
   25CHL1  H19B 2998   1.888   6.859   5.874 -0.7908 -0.9124 -0.3537
   25CHL1  H19C 2999   2.007   6.874   6.010  3.1279 -0.3793 -0.5068
   25CHL1    C1 3000   1.843   6.615   6.000 -0.2957 -0.0483  0.4236
   25CHL1   H1A 3001   1.760   6.669   5.950 -0.5514 -1.8033 -1.1558
   25CHL1   H1B 3002   1.833   6.506   5.978  1.7289  0.1013 -1.6498
   25CHL1    C2 3003   1.849   6.632   6.152 -0.3081 -0.6614 -0.1642
   25CHL1   H2A 3004   1.758   6.588   6.197 -0.6232  0.4358  0.3210
   25CHL1   H2B 3005   1.859   6.741   6.174  3.2247 -1.0992  1.0570
   25CHL1   C20 3006   2.012   6.627   5.207  0.1021 -0.6277 -0.0566
   25CHL1   H20 3007   2.080   6.715   5.207 -3.1012  2.0679 -0.8436
   25CHL1   C21 3008   1.872   6.693   5.186  0.1418  0.0298  0.2345
   25CHL1  H21A 3009   1.847   6.759   5.271 -1.5330  1.2442 -1.1115
   25CHL1  H21B 3010   1.796   6.611   5.182  0.3057 -0.1798  1.3257
   25CHL1  H21C 3011   1.862   6.752   5.092 -0.8256 -0.7114 -0.1524
   25CHL1   C22 3012   2.042   6.528   5.084  0.2745  0.0702  0.0232
   25CHL1  H22A 3013   2.133   6.467   5.100 -0.4778 -1.0639  0.1047
   25CHL1  H22B 3014   1.955   6.460   5.070  1.5008 -1.2851 -1.2933
   25CHL1   C23 3015   2.064   6.610   4.960  0.0543 -0.3178 -0.3619
   25CHL1  H23A 3016   1.972   6.658   4.919 -0.6659 -0.1748  1.3276
   25CHL1  H23B 3017   2.129   6.695   4.989 -0.1970 -0.9033  2.1083
   25CHL1   C24 3018   2.125   6.531   4.841  0.1265  0.2643 -0.0071
   25CHL1  H24A 3019   2.228   6.496   4.865  0.5406  1.5084  0.0788
   25CHL1  H24B 3020   2.073   6.434   4.822  3.4920 -1.6914 -0.1930
   25CHL1   C25 3021   2.136   6.614   4.707 -0.6719  0.0298 -0.5577
   25CHL1   H25 3022   2.032   6.643   4.679 -0.2347  2.5772  0.1831
   25CHL1   C26 3023   2.213   6.744   4.716 -0.3935  0.3701 -0.1743
   25CHL1  H26A 3024   2.320   6.724   4.735 -0.6396  0.3081  1.3046
   25CHL1  H26B 3025   2.197   6.808   4.626 -0.1466 -0.8081 -1.0833
   25CHL1  H26C 3026   2.180   6.806   4.802 -1.5557 -1.7442  0.9765
   25CHL1   C27 3027   2.186   6.528   4.587 -0.1205 -0.0462  0.0541
   25CHL1  H27A 3028   2.192   6.597   4.500  1.1247 -1.8729 -1.3676
   25CHL1  H27B 3029   2.279   6.475   4.614 -0.2093 -0.3767 -0.2801
   25CHL1  H27C 3030   2.116   6.452   4.546  0.4606 -1.2304  1.1967
   26CHL1    C3 3031   3.754   1.395   6.079 -0.0609 -0.6542  0.6254
   26CHL1    H3 3032   3.821   1.482   6.064 -1.7225  0.9126  1.9221
   26CHL1    O3 3033   3.735   1.374   6.217  0.0903 -0.4544  0.4286
   26CHL1   H3' 3034   3.729   1.278   6.219  1.7883 -0.7306 -2.5755
   26CHL1    C4 3035   3.625   1.434   6.010 -0.1865 -0.4695  0.9777
   26CHL1   H4A 3036   3.545   1.363   6.040 -0.2374 -1.1931 -0.7630
   26CHL1   H4B 3037   3.610   1.538   6.046 -0.0259 -0.8983  2.3652
   26CHL1    C5 3038   3.652   1.427   5.860  0.4660 -0.2130 -0.3428
   26CHL1    C6 3039   3.625   1.537   5.783 -0.1109 -0.3338 -0.3163
   26CHL1    H6 3040   3.583   1.625   5.832  3.0475  0.1652  1.7874
   26CHL1    C7 3041   3.642   1.540   5.638  0.3927 -0.1700 -0.1244
   26CHL1   H7A 3042   3.570   1.611   5.592 -0.0972  0.3775  1.4330
   26CHL1   H7B 3043   3.736   1.591   5.608 -0.7715  1.7548 -0.6750
   26CHL1    C8 3044   3.642   1.400   5.568  0.7215 -0.2266  0.2962
   26CHL1    H8 3045   3.547   1.346   5.584  0.5574 -0.6053 -1.6880
   26CHL1   C14 3046   3.663   1.409   5.421 -0.4426 -0.7995  1.0108
   26CHL1   H14 3047   3.761   1.459   5.411  1.9005 -4.9712  0.6950
   26CHL1   C15 3048   3.570   1.482   5.326  0.8888  0.2468  0.5309
   26CHL1  H15A 3049   3.468   1.448   5.351  0.0431  1.5522 -0.9859
   26CHL1  H15B 3050   3.578   1.593   5.322  1.5286  0.1846 -0.6370
   26CHL1   C16 3051   3.613   1.432   5.189 -0.5901  0.4257  0.3059
   26CHL1  H16A 3052   3.519   1.410   5.134 -0.2146 -2.9042  0.8145
   26CHL1  H16B 3053   3.650   1.521   5.133 -1.0553  1.1858  1.1814
   26CHL1   C17 3054   3.708   1.315   5.212  0.0157 -0.9369  0.2669
   26CHL1   H17 3055   3.814   1.346   5.220  0.1693 -1.0263 -1.1732
   26CHL1   C13 3056   3.679   1.268   5.351 -0.5580 -0.4775 -0.0879
   26CHL1   C18 3057   3.540   1.191   5.354  0.3098 -0.6941  0.0165
   26CHL1  H18A 3058   3.514   1.175   5.460  2.3880  0.4768  0.7452
   26CHL1  H18B 3059   3.456   1.246   5.306  1.1881 -0.8721 -1.8456
   26CHL1  H18C 3060   3.541   1.088   5.312 -1.2118  0.3869 -2.9868
   26CHL1   C12 3061   3.790   1.193   5.419  0.2101 -0.6083  0.0249
   26CHL1  H12A 3062   3.802   1.090   5.379 -2.6520 -0.5043 -1.3309
   26CHL1  H12B 3063   3.888   1.244   5.407 -0.9866  1.2441 -3.0937
   26CHL1   C11 3064   3.767   1.178   5.571  0.5639 -0.0527 -0.2477
   26CHL1  H11A 3065   3.688   1.102   5.584 -1.7495  2.1079 -0.9109
   26CHL1  H11B 3066   3.857   1.143   5.626  0.3878  0.9160  0.6940
   26CHL1    C9 3067   3.737   1.310   5.643 -0.0032  0.6290 -0.7097
   26CHL1    H9 3068   3.833   1.365   5.644  1.8163 -2.3528 -0.2027
   26CHL1   C10 3069   3.707   1.297   5.801 -0.2092 -0.7063  0.3478
   26CHL1   C19 3070   3.601   1.187   5.815 -0.1935  0.0871 -0.5965
   26CHL1  H19A 3071   3.648   1.086   5.810  1.9596  1.0253 -0.5359
   26CHL1  H19B 3072   3.562   1.194   5.919 -1.3636  1.7603 -1.0966
   26CHL1  H19C 3073   3.519   1.190   5.740  0.0098  3.6097 -0.8551
   26CHL1    C1 3074   3.843   1.272   5.872  0.2392  0.0120  0.1220
   26CHL1   H1A 3075   3.869   1.168   5.844  0.1655 -0.5398  1.9646
   26CHL1   H1B 3076   3.919   1.350   5.847 -1.8147  2.6258  1.5447
   26CHL1    C2 3077   3.819   1.270   6.022  0.0205  0.9667  0.6259
   26CHL1   H2A 3078   3.911   1.251   6.081  0.4455  0.3575 -0.2214
   26CHL1   H2B 3079   3.751   1.183   6.038  1.0883 -0.1803 -0.8795
   26CHL1   C20 3080   3.708   1.220   5.088  1.0214 -0.3594 -0.1558
   26CHL1   H20 3081   3.601   1.193   5.075  0.8611 -0.5169  1.3636
   26CHL1   C21 3082   3.782   1.083   5.108 -0.2181 -0.3906  0.6804
   26CHL1  H21A 3083   3.891   1.087   5.127 -0.1826 -2.8813  1.3486
   26CHL1  H21B 3084   3.767   1.023   5.016 -0.7303  1.3763 -0.4305
   26CHL1  H21C 3085   3.712   1.036   5.181 -0.5187 -1.1213 -0.0623
   26CHL1   C22 3086   3.755   1.291   4.959  0.7961 -0.0630 -0.1057
   26CHL1  H22A 3087   3.765   1.214   4.880  0.0309 -1.8335  1.4391
   26CHL1  H22B 3088   3.685   1.369   4.922  0.7431  0.0489  0.2245
   26CHL1   C23 3089   3.886   1.364   4.963 -0.4392 -0.8735  0.3798
   26CHL1  H23A 3090   3.884   1.459   5.019 -1.1581 -0.0151 -1.0395
   26CHL1  H23B 3091   3.961   1.307   5.022  2.0465  1.3401 -0.4440
   26CHL1   C24 3092   3.944   1.389   4.822  0.2192 -0.5239  0.0813
   26CHL1  H24A 3093   3.975   1.293   4.777 -0.0247 -0.5452 -0.0409
   26CHL1  H24B 3094   3.860   1.440   4.770  0.1257 -0.4520  0.3006
   26CHL1   C25 3095   4.074   1.475   4.836  0.8867  1.0024 -0.0832
   26CHL1   H25 3096   4.039   1.564   4.893 -4.4219 -1.0074  0.3635
   26CHL1   C26 3097   4.188   1.408   4.922  0.6779 -0.1825  0.0961
   26CHL1  H26A 3098   4.153   1.397   5.027  1.0504 -2.5224  0.0109
   26CHL1  H26B 3099   4.219   1.310   4.880  0.5619 -0.2644  0.2000
   26CHL1  H26C 3100   4.277   1.472   4.905  0.4241 -0.3400 -2.0603
   26CHL1   C27 3101   4.120   1.507   4.698 -0.0025 -0.0559  0.8510
   26CHL1  H27A 3102   4.039   1.553   4.637 -0.8244 -0.6419  1.4682
   26CHL1  H27B 3103   4.214   1.565   4.710  0.0972 -0.2949  1.2326
   26CHL1  H27C 3104   4.141   1.418   4.635  0.6095  1.0865 -0.6109
   27CHL1    C3 3105   1.647   3.389   5.778 -0.3768  0.1894  0.2187
   27CHL1    H3 3106   1.734   3.453   5.752 -2.5710  3.0475 -0.6309
   27CHL1    O3 3107   1.651   3.362   5.913  0.1460  0.0234  0.7014
   27CHL1   H3' 3108   1.648   3.443   5.964 -0.8158  0.2263  0.3392
   27CHL1    C4 3109   1.526   3.473   5.752 -0.1032 -0.3850  0.1977
   27CHL1   H4A 3110   1.435   3.442   5.808 -0.5971 -0.1539 -0.4651
   27CHL1   H4B 3111   1.547   3.569   5.804 -3.7392  1.8714 -2.0463
   27CHL1    C5 3112   1.498   3.506   5.606  0.4247 -0.1435 -0.8230
   27CHL1    C6 3113   1.498   3.629   5.556 -1.0890  0.2620 -0.7855
   27CHL1    H6 3114   1.521   3.708   5.628 -0.8459 -0.9128  0.4807
   27CHL1    C7 3115   1.471   3.664   5.414 -0.8719  0.4386 -0.3702
   27CHL1   H7A 3116   1.403   3.752   5.411  0.7813  1.8943  2.0340
   27CHL1   H7B 3117   1.569   3.678   5.364 -0.7282 -1.2818 -0.6179
   27CHL1    C8 3118   1.409   3.542   5.331  0.3601 -0.7713 -0.0888
   27CHL1    H8 3119   1.300   3.537   5.352  0.0066 -2.0379 -1.9932
   27CHL1   C14 3120   1.425   3.562   5.183 -0.2117  0.6105 -0.2048
   27CHL1   H14 3121   1.533   3.544   5.165 -0.2945 -2.1300  1.4096
   27CHL1   C15 3122   1.382   3.697   5.124 -0.2646 -0.2683 -0.2742
   27CHL1  H15A 3123   1.285   3.717   5.175 -0.3688 -1.0375 -0.1532
   27CHL1  H15B 3124   1.450   3.780   5.157  1.2999 -1.6865  0.2450
   27CHL1   C16 3125   1.372   3.674   4.968 -0.5237 -0.2149  0.4196
   27CHL1  H16A 3126   1.272   3.707   4.932 -0.1932  2.4925  1.6784
   27CHL1  H16B 3127   1.444   3.740   4.913 -1.9833  0.0900 -1.1978
   27CHL1   C17 3128   1.396   3.524   4.947  0.1445 -0.0795 -0.2759
   27CHL1   H17 3129   1.501   3.500   4.921  0.5674  1.5752 -0.1995
   27CHL1   C13 3130   1.361   3.456   5.090  0.3832  0.0171 -0.0473
   27CHL1   C18 3131   1.205   3.459   5.103 -0.0793  0.2512  0.0846
   27CHL1  H18A 3132   1.159   3.556   5.073  0.4400  0.2970 -0.5727
   27CHL1  H18B 3133   1.157   3.378   5.044  1.4884  0.3390 -1.3723
   27CHL1  H18C 3134   1.173   3.454   5.209 -2.8295  1.4417 -0.5965
   27CHL1   C12 3135   1.431   3.320   5.126  0.2382  0.1229 -0.6572
   27CHL1  H12A 3136   1.374   3.244   5.068  2.4995 -1.9462 -0.3024
   27CHL1  H12B 3137   1.534   3.319   5.084  0.2414 -0.0936 -0.6433
   27CHL1   C11 3138   1.437   3.289   5.281  0.3737  0.3659 -0.1543
   27CHL1  H11A 3139   1.334   3.267   5.316  0.3399  0.8905  0.0754
   27CHL1  H11B 3140   1.506   3.204   5.302  0.3717 -0.0504 -1.7119
   27CHL1    C9 3141   1.481   3.412   5.371  0.9729  0.5821 -0.3042
   27CHL1    H9 3142   1.586   3.423   5.337  0.2420  0.3936 -2.7842
   27CHL1   C10 3143   1.483   3.378   5.524 -0.3042 -0.3207 -0.8134
   27CHL1   C19 3144   1.349   3.316   5.577  0.3454 -0.1215  0.2802
   27CHL1  H19A 3145   1.362   3.281   5.681  1.5692  0.3178  0.2887
   27CHL1  H19B 3146   1.264   3.387   5.576 -0.2886 -0.7978 -2.0262
   27CHL1  H19C 3147   1.316   3.231   5.513 -0.9080  0.6220 -0.1066
   27CHL1    C1 3148   1.607   3.284   5.548 -0.7150  0.0870 -0.2919
   27CHL1   H1A 3149   1.578   3.196   5.487 -2.7189  0.0698  0.6081
   27CHL1   H1B 3150   1.703   3.323   5.507  0.6369 -1.2233  1.4826
   27CHL1    C2 3151   1.638   3.261   5.699  0.2684  0.0522  0.4329
   27CHL1   H2A 3152   1.731   3.203   5.712 -0.1148 -0.2280  2.1012
   27CHL1   H2B 3153   1.560   3.200   5.748 -1.7360 -0.0920 -2.6423
   27CHL1   C20 3154   1.320   3.481   4.819 -0.1106  0.4687 -0.0068
   27CHL1   H20 3155   1.213   3.507   4.833 -0.0233  0.3041  1.0426
   27CHL1   C21 3156   1.335   3.329   4.804  0.5758  0.3617 -0.3282
   27CHL1  H21A 3157   1.308   3.293   4.703  0.4635  0.5981 -0.3838
   27CHL1  H21B 3158   1.269   3.263   4.864  0.5202 -0.2458 -1.0424
   27CHL1  H21C 3159   1.443   3.305   4.814  0.4540 -0.0900 -0.0840
   27CHL1   C22 3160   1.372   3.558   4.701 -0.1283 -0.5016  0.5644
   27CHL1  H22A 3161   1.349   3.666   4.710 -0.8725 -0.6298  0.3059
   27CHL1  H22B 3162   1.481   3.543   4.690 -0.0985  0.2751 -0.3928
   27CHL1   C23 3163   1.318   3.527   4.562 -0.5140  0.2227 -0.4477
   27CHL1  H23A 3164   1.349   3.427   4.525  2.5569  0.5190  0.9583
   27CHL1  H23B 3165   1.208   3.536   4.566 -0.4717  0.6181 -0.0391
   27CHL1   C24 3166   1.386   3.621   4.454 -0.3647 -0.6908 -0.4820
   27CHL1  H24A 3167   1.395   3.719   4.505 -1.7559 -0.9968  0.3962
   27CHL1  H24B 3168   1.483   3.574   4.425 -1.1096 -3.0627  0.6063
   27CHL1   C25 3169   1.302   3.627   4.327 -0.2193 -1.3728 -0.7161
   27CHL1   H25 3170   1.201   3.665   4.354  0.8233  0.2467  1.1534
   27CHL1   C26 3171   1.354   3.734   4.231  0.3701 -0.0432  0.3501
   27CHL1  H26A 3172   1.310   3.716   4.131  0.3704 -1.0037  0.5094
   27CHL1  H26B 3173   1.321   3.837   4.257  0.8555  0.3433 -0.5543
   27CHL1  H26C 3174   1.464   3.736   4.217  0.3029 -0.5517 -0.2912
   27CHL1   C27 3175   1.283   3.495   4.258 -0.9994  0.1888  0.3324
   27CHL1  H27A 3176   1.250   3.411   4.323 -0.2846  0.4580  1.0502
   27CHL1  H27B 3177   1.380   3.469   4.210 -1.5587 -2.2414  0.3875
   27CHL1  H27C 3178   1.206   3.493   4.178 -0.6728  1.6160 -0.0439
   28CHL1    C3 3179   3.810   3.121   5.653 -0.0254  0.6166  0.5239
   28CHL1    H3 3180   3.795   3.224   5.613 -1.1652  0.1544 -0.3252
   28CHL1    O3 3181   3.791   3.110   5.791  0.1862 -0.3669  0.4157
   28CHL1   H3' 3182   3.764   3.020   5.809  1.7791 -1.1380 -0.8025
   28CHL1    C4 3183   3.694   3.041   5.593 -0.1587  1.1342  0.3495
   28CHL1   H4A 3184   3.690   2.938   5.635 -1.6327  0.7546 -0.6139
   28CHL1   H4B 3185   3.604   3.102   5.617 -1.5985  0.5121 -2.8278
   28CHL1    C5 3186   3.698   3.012   5.448 -0.4944  0.1181  1.0774
   28CHL1    C6 3187   3.598   3.033   5.364  0.0858 -0.3972 -0.7904
   28CHL1    H6 3188   3.504   3.072   5.405 -0.1109 -2.6092  1.1166
   28CHL1    C7 3189   3.599   3.009   5.217 -0.5651  0.4893  0.0224
   28CHL1   H7A 3190   3.513   2.946   5.186 -0.4023  1.4382 -2.5720
   28CHL1   H7B 3191   3.591   3.104   5.160  1.1262  0.7786  0.2239
   28CHL1    C8 3192   3.719   2.932   5.170 -0.6911 -0.5417  0.0364
   28CHL1    H8 3193   3.691   2.825   5.183  0.2996 -0.6343  1.5919
   28CHL1   C14 3194   3.745   2.944   5.023  0.0151  0.2486  0.3387
   28CHL1   H14 3195   3.784   3.048   5.016 -1.5490  0.8866  0.7278
   28CHL1   C15 3196   3.630   2.952   4.919 -0.1716  0.4588 -0.1123
   28CHL1  H15A 3197   3.552   2.882   4.957  0.2499  1.8248  3.7564
   28CHL1  H15B 3198   3.584   3.053   4.921  0.6702  0.8789 -1.1219
   28CHL1   C16 3199   3.698   2.918   4.780 -0.6838  0.0864 -0.2347
   28CHL1  H16A 3200   3.642   2.834   4.734 -0.6087  0.3825 -0.8647
   28CHL1  H16B 3201   3.708   3.004   4.712 -0.6882 -1.2039 -1.9263
   28CHL1   C17 3202   3.851   2.894   4.813  0.4615  0.4741 -0.3143
   28CHL1   H17 3203   3.909   2.988   4.797  1.5726 -0.6175 -3.3014
   28CHL1   C13 3204   3.851   2.851   4.960 -0.1659 -0.0743  0.1585
   28CHL1   C18 3205   3.816   2.700   4.974 -0.0008 -0.7299 -0.0331
   28CHL1  H18A 3206   3.904   2.648   4.930  1.2057  0.1991  1.2025
   28CHL1  H18B 3207   3.819   2.661   5.078  0.4007  0.2460  0.3359
   28CHL1  H18C 3208   3.719   2.686   4.921  0.3796  2.4711 -1.8259
   28CHL1   C12 3209   3.985   2.893   5.028 -0.1635 -0.2193 -0.8587
   28CHL1  H12A 3210   4.066   2.821   5.006  0.8707  0.4999  0.4913
   28CHL1  H12B 3211   4.012   2.996   4.997 -0.1646  0.6155  1.6812
   28CHL1   C11 3212   3.969   2.884   5.184 -0.4630  0.9477  0.5510
   28CHL1  H11A 3213   3.964   2.776   5.209 -2.5758  1.1964  1.4434
   28CHL1  H11B 3214   4.067   2.911   5.230  0.8321  1.5250 -2.3465
   28CHL1    C9 3215   3.850   2.966   5.240 -0.3531  0.0849 -0.5878
   28CHL1    H9 3216   3.875   3.072   5.215  1.8211 -0.5667 -1.4490
   28CHL1   C10 3217   3.838   2.954   5.396  0.2095 -1.4276 -0.4902
   28CHL1   C19 3218   3.837   2.802   5.424  0.2532  0.3761  0.4527
   28CHL1  H19A 3219   3.756   2.757   5.364 -0.5474 -0.0096  1.7662
   28CHL1  H19B 3220   3.938   2.758   5.409 -0.9375 -2.7607  0.9204
   28CHL1  H19C 3221   3.814   2.794   5.533  1.0015  4.0800  1.0392
   28CHL1    C1 3222   3.960   3.034   5.462 -0.2003 -0.1331  0.6027
   28CHL1   H1A 3223   4.050   2.973   5.442 -0.1432  0.2433 -0.3339
   28CHL1   H1B 3224   3.974   3.128   5.405  0.7233 -0.9017 -0.4842
   28CHL1    C2 3225   3.944   3.057   5.613  0.6969 -0.2128  0.3968
   28CHL1   H2A 3226   4.020   3.125   5.656 -0.2429  2.0071 -1.2683
   28CHL1   H2B 3227   3.943   2.963   5.672 -0.9630  0.0591  0.8496
   28CHL1   C20 3228   3.912   2.795   4.711 -0.7285 -0.3812 -0.1124
   28CHL1   H20 3229   3.868   2.695   4.732  1.4830 -1.7781 -1.7183
   28CHL1   C21 3230   4.064   2.772   4.734 -0.5091  0.1228  0.9241
   28CHL1  H21A 3231   4.097   2.694   4.661  0.8233 -0.8016  2.4489
   28CHL1  H21B 3232   4.092   2.722   4.830 -1.1664 -0.3029  0.9031
   28CHL1  H21C 3233   4.119   2.868   4.730 -2.8339  1.4834 -0.6469
   28CHL1   C22 3234   3.883   2.822   4.555 -0.0260  0.3811 -0.5040
   28CHL1  H22A 3235   3.940   2.743   4.500  0.8050  0.5263  0.1384
   28CHL1  H22B 3236   3.776   2.814   4.523  0.2428 -1.4256 -1.0700
   28CHL1   C23 3237   3.943   2.961   4.510  0.3627  0.3932 -0.0801
   28CHL1  H23A 3238   3.924   3.037   4.588 -1.2125  0.6778 -0.6999
   28CHL1  H23B 3239   4.053   2.945   4.508  0.6739  1.7773  2.2145
   28CHL1   C24 3240   3.902   2.995   4.367 -0.4224  0.5152  0.0363
   28CHL1  H24A 3241   3.912   2.911   4.295 -1.7359  1.1397 -0.9164
   28CHL1  H24B 3242   3.796   3.025   4.356 -1.3183 -2.4385 -0.1928
   28CHL1   C25 3243   3.993   3.106   4.304  0.4808  0.3728 -0.1821
   28CHL1   H25 3244   4.096   3.065   4.310 -0.3088 -1.6394  0.8770
   28CHL1   C26 3245   3.959   3.122   4.158  0.0152  0.0788 -0.0738
   28CHL1  H26A 3246   3.869   3.186   4.141  0.7302  0.9761 -0.5751
   28CHL1  H26B 3247   4.032   3.197   4.121  0.9747 -0.3709  0.8512
   28CHL1  H26C 3248   3.951   3.026   4.103 -0.1001  1.1672 -2.0771
   28CHL1   C27 3249   3.987   3.235   4.381 -0.5349  0.4460 -1.0250
   28CHL1  H27A 3250   4.025   3.319   4.320  1.4182  0.9306  0.7487
   28CHL1  H27B 3251   3.880   3.249   4.410 -0.7023 -1.2753 -0.7016
   28CHL1  H27C 3252   4.054   3.225   4.469 -1.5563  1.4752 -0.0821
   29CHL1    C3 3253   0.073   4.117   6.004 -0.2300  0.4333  0.6710
   29CHL1    H3 3254   0.056   4.016   5.961 -0.4669  0.8744 -0.2839
   29CHL1    O3 3255   0.083   4.106   6.144 -0.3469 -0.0569 -0.2911
   29CHL1   H3' 3256   0.157   4.048   6.161  0.6970  1.0207 -0.9595
   29CHL1    C4 3257   0.200   4.166   5.944  0.6335 -0.5799 -0.7183
   29CHL1   H4A 3258   0.215   4.267   5.988 -2.0441 -0.6431  0.5144
   29CHL1   H4B 3259   0.280   4.095   5.975  1.2313  1.1480  2.1053
   29CHL1    C5 3260   0.182   4.181   5.790  0.7140  0.5257  0.1695
   29CHL1    C6 3261   0.251   4.096   5.705  0.4199  0.1268  0.4926
   29CHL1    H6 3262   0.321   4.017   5.737  1.0941  1.2941  2.0225
   29CHL1    C7 3263   0.231   4.106   5.555  0.2852 -0.4621 -0.0340
   29CHL1   H7A 3264   0.324   4.089   5.496  2.3849  2.2791  2.2316
   29CHL1   H7B 3265   0.161   4.025   5.526  0.0193 -0.1142 -0.3716
   29CHL1    C8 3266   0.170   4.238   5.505 -0.3793  0.6397 -0.2290
   29CHL1    H8 3267   0.253   4.311   5.507  2.1793 -2.0353 -0.7787
   29CHL1   C14 3268   0.110   4.211   5.363  0.3256 -0.1580  0.4977
   29CHL1   H14 3269   0.026   4.139   5.370  0.7221 -0.5577  1.3536
   29CHL1   C15 3270   0.205   4.159   5.248  0.0679  0.3635 -0.0836
   29CHL1  H15A 3271   0.310   4.189   5.267 -0.1706  0.5304  1.0863
   29CHL1  H15B 3272   0.212   4.048   5.250  0.0516  0.3221 -1.4244
   29CHL1   C16 3273   0.148   4.210   5.116  0.1206 -0.1194 -0.5569
   29CHL1  H16A 3274   0.221   4.274   5.063 -0.9263  0.9552 -0.7316
   29CHL1  H16B 3275   0.110   4.126   5.054 -1.1597  1.0176 -1.3637
   29CHL1   C17 3276   0.022   4.292   5.160  0.0494  0.1556 -0.2241
   29CHL1   H17 3277  -0.055   4.212   5.157  0.5428 -0.3896  0.9670
   29CHL1   C13 3278   0.044   4.339   5.302  0.3404  0.0594  0.7471
   29CHL1   C18 3279   0.141   4.455   5.292  0.0241  0.2585  0.4692
   29CHL1  H18A 3280   0.077   4.545   5.281  0.1129  0.1258 -1.3525
   29CHL1  H18B 3281   0.204   4.464   5.383  0.1688  1.0072  0.3034
   29CHL1  H18C 3282   0.205   4.446   5.202 -0.5407 -0.2411  0.1137
   29CHL1   C12 3283  -0.076   4.372   5.391  0.3398  0.5462  0.2869
   29CHL1  H12A 3284  -0.121   4.469   5.361  1.7388  1.0960 -0.1032
   29CHL1  H12B 3285  -0.157   4.298   5.406  2.7905 -2.1575  1.1102
   29CHL1   C11 3286  -0.029   4.398   5.536  0.2801  0.6884  0.2743
   29CHL1  H11A 3287   0.042   4.484   5.533  1.6027 -0.4051 -0.9102
   29CHL1  H11B 3288  -0.114   4.426   5.602 -0.8832 -0.3480 -0.7377
   29CHL1    C9 3289   0.051   4.269   5.593  0.3323  0.1808  0.4866
   29CHL1    H9 3290  -0.020   4.184   5.585  0.8686 -0.3156  0.9048
   29CHL1   C10 3291   0.080   4.284   5.750 -0.8069 -0.1086  0.0697
   29CHL1   C19 3292   0.127   4.427   5.778  0.3209 -0.0416  0.4307
   29CHL1  H19A 3293   0.193   4.460   5.695  2.2701 -0.8035  1.6231
   29CHL1  H19B 3294   0.033   4.487   5.778  0.1876 -0.2290 -0.8033
   29CHL1  H19C 3295   0.167   4.451   5.879 -1.7920  0.4781  1.1960
   29CHL1    C1 3296  -0.050   4.248   5.821 -0.1163 -0.2772  0.1832
   29CHL1   H1A 3297  -0.133   4.314   5.788  1.6731  1.0643 -1.8803
   29CHL1   H1B 3298  -0.071   4.149   5.775 -1.0274  0.6908 -1.5610
   29CHL1    C2 3299  -0.041   4.210   5.977 -0.6788  0.3539  0.1893
   29CHL1   H2A 3300  -0.140   4.162   5.992 -1.5190  1.3093 -1.9368
   29CHL1   H2B 3301  -0.021   4.309   6.023  3.1061 -0.6707  1.0771
   29CHL1   C20 3302  -0.034   4.395   5.060 -0.7718  0.1399  0.1481
   29CHL1   H20 3303   0.008   4.495   5.085  1.7170 -1.2411  2.0122
   29CHL1   C21 3304  -0.191   4.393   5.064 -0.7408 -0.3642 -0.7458
   29CHL1  H21A 3305  -0.222   4.406   5.170  2.7252  0.1053  0.3316
   29CHL1  H21B 3306  -0.226   4.291   5.037 -0.9443 -0.6487  0.5043
   29CHL1  H21C 3307  -0.229   4.469   4.993 -1.2537  0.6034  0.5248
   29CHL1   C22 3308   0.004   4.346   4.914  0.1143  0.1553  0.0239
   29CHL1  H22A 3309   0.115   4.354   4.907  0.5536 -3.2399  1.1797
   29CHL1  H22B 3310  -0.019   4.238   4.903  0.2241  0.1966 -0.6863
   29CHL1   C23 3311  -0.059   4.419   4.792  0.0659  0.4188 -0.5861
   29CHL1  H23A 3312  -0.170   4.417   4.802  0.0926 -0.6664 -0.3927
   29CHL1  H23B 3313  -0.025   4.524   4.793 -2.1009  1.1877  1.7418
   29CHL1   C24 3314  -0.020   4.362   4.652 -0.3198  0.0801 -0.1555
   29CHL1  H24A 3315   0.090   4.359   4.637 -0.1020  0.0463  1.2829
   29CHL1  H24B 3316  -0.052   4.256   4.651  3.6386 -1.2873 -0.5576
   29CHL1   C25 3317  -0.077   4.445   4.533  0.8704  0.0369 -0.8678
   29CHL1   H25 3318  -0.136   4.528   4.578  2.2228  0.5949 -0.0418
   29CHL1   C26 3319   0.016   4.502   4.429 -0.2240  0.2938  0.2631
   29CHL1  H26A 3320  -0.039   4.562   4.354  2.0557  1.3966 -0.6146
   29CHL1  H26B 3321   0.095   4.570   4.469 -0.0348 -0.1034  0.5787
   29CHL1  H26C 3322   0.071   4.423   4.374  0.0105  0.4852  0.2195
   29CHL1   C27 3323  -0.185   4.365   4.460 -0.8722 -0.8614  0.1253
   29CHL1  H27A 3324  -0.263   4.324   4.528 -1.5818 -1.6209 -1.1094
   29CHL1  H27B 3325  -0.228   4.443   4.394  2.6944  1.2482  0.0424
   29CHL1  H27C 3326  -0.144   4.280   4.400 -0.2960  0.7343 -1.8709
   30CHL1    C3 3327   6.654   5.326   6.083 -0.4791 -0.2537  0.0176
   30CHL1    H3 3328   6.545   5.346   6.084 -0.6446 -0.9903 -1.0292
   30CHL1    O3 3329   6.680   5.290   6.218 -0.4699 -0.1775 -0.5257
   30CHL1   H3' 3330   6.775   5.283   6.235 -0.2810  1.0593 -0.9882
   30CHL1    C4 3331   6.680   5.201   5.998  0.2101 -0.5382  0.7429
   30CHL1   H4A 3332   6.781   5.162   6.020  1.2674  1.9860  0.6545
   30CHL1   H4B 3333   6.611   5.122   6.035  1.9921 -3.1280 -1.1629
   30CHL1    C5 3334   6.656   5.232   5.849  0.1898  0.0673 -0.8541
   30CHL1    C6 3335   6.589   5.140   5.775 -0.1873 -0.8223 -0.6179
   30CHL1    H6 3336   6.544   5.052   5.823 -0.6560  0.2052  0.9132
   30CHL1    C7 3337   6.575   5.149   5.626  0.8650 -0.0531 -0.2551
   30CHL1   H7A 3338   6.596   5.053   5.576  2.5029 -1.1797  2.3573
   30CHL1   H7B 3339   6.471   5.171   5.594  1.1505 -0.3653 -1.4356
   30CHL1    C8 3340   6.670   5.251   5.558 -0.0032  0.0481  0.4563
   30CHL1    H8 3341   6.771   5.207   5.547 -0.6611 -1.5023  0.3476
   30CHL1   C14 3342   6.627   5.283   5.415  0.3552  0.2253 -0.1777
   30CHL1   H14 3343   6.529   5.332   5.435  0.2078 -0.1652  0.0682
   30CHL1   C15 3344   6.609   5.163   5.315  0.3608 -0.8729 -0.1866
   30CHL1  H15A 3345   6.694   5.093   5.330 -0.6469 -2.0829  0.0023
   30CHL1  H15B 3346   6.519   5.102   5.338  0.2709  0.1906  2.7082
   30CHL1   C16 3347   6.608   5.235   5.181  0.3323  0.2397  0.4266
   30CHL1  H16A 3348   6.676   5.197   5.101 -0.1251  1.5223 -0.6113
   30CHL1  H16B 3349   6.507   5.239   5.135 -0.2829 -1.0754  1.5914
   30CHL1   C17 3350   6.658   5.385   5.205  0.1523 -0.0826  0.6321
   30CHL1   H17 3351   6.566   5.446   5.223  0.7906  0.0933  3.8605
   30CHL1   C13 3352   6.714   5.383   5.354 -0.3324 -0.3171  0.3098
   30CHL1   C18 3353   6.860   5.332   5.337  0.3542 -0.4063  0.0314
   30CHL1  H18A 3354   6.858   5.231   5.291 -0.5276  0.4287 -1.8745
   30CHL1  H18B 3355   6.927   5.398   5.278  1.5097  0.1413  1.8935
   30CHL1  H18C 3356   6.918   5.318   5.430  0.6076 -2.4257 -0.3842
   30CHL1   C12 3357   6.721   5.513   5.437  0.2496  0.4085  0.6362
   30CHL1  H12A 3358   6.776   5.599   5.394  0.9346 -0.0005  0.6714
   30CHL1  H12B 3359   6.611   5.528   5.441 -0.2666 -2.0258 -1.5504
   30CHL1   C11 3360   6.749   5.507   5.590 -0.3470 -0.5463 -0.1717
   30CHL1  H11A 3361   6.855   5.530   5.614 -0.5688 -1.6660  2.1891
   30CHL1  H11B 3362   6.696   5.599   5.625 -1.8923 -0.8937 -1.4998
   30CHL1    C9 3363   6.683   5.381   5.645 -0.3587 -0.0592 -1.1710
   30CHL1    H9 3364   6.576   5.411   5.647 -0.1677  0.5786  0.1388
   30CHL1   C10 3365   6.729   5.351   5.792  0.5783 -0.1104  0.1377
   30CHL1   C19 3366   6.882   5.317   5.801 -0.7308 -0.0316  0.2706
   30CHL1  H19A 3367   6.926   5.300   5.902 -1.1749 -1.0583  0.3030
   30CHL1  H19B 3368   6.893   5.222   5.745  0.3634 -0.0929  0.5704
   30CHL1  H19C 3369   6.936   5.402   5.754 -1.9681  0.1263 -0.9258
   30CHL1    C1 3370   6.700   5.472   5.884  0.3772  0.0441  0.3715
   30CHL1   H1A 3371   6.747   5.564   5.843  0.6493  0.4160  1.4937
   30CHL1   H1B 3372   6.590   5.484   5.877  0.3896  1.2327  1.7417
   30CHL1    C2 3373   6.730   5.447   6.030 -0.0759  0.6455  0.6747
   30CHL1   H2A 3374   6.701   5.541   6.083 -0.4851  1.3767 -0.7894
   30CHL1   H2B 3375   6.837   5.420   6.039 -0.5718 -1.4314  0.8948
   30CHL1   C20 3376   6.739   5.461   5.101 -0.1244 -0.1614 -0.7932
   30CHL1   H20 3377   6.845   5.426   5.108 -0.6979 -1.6135  1.7938
   30CHL1   C21 3378   6.728   5.613   5.129 -0.3029 -0.7721  0.1769
   30CHL1  H21A 3379   6.646   5.635   5.200 -2.5751 -1.2965 -2.1315
   30CHL1  H21B 3380   6.696   5.675   5.043 -1.0372  1.2778  1.8423
   30CHL1  H21C 3381   6.825   5.657   5.163  0.0584 -1.5816  0.2454
   30CHL1   C22 3382   6.711   5.428   4.947  0.2303  0.3479 -0.4555
   30CHL1  H22A 3383   6.732   5.320   4.929  1.1570  0.6795 -1.5078
   30CHL1  H22B 3384   6.603   5.451   4.931  0.3799  0.5155 -1.3213
   30CHL1   C23 3385   6.788   5.504   4.841 -0.8113  0.8851  0.5624
   30CHL1  H23A 3386   6.728   5.595   4.818  0.1098  1.2320 -0.5377
   30CHL1  H23B 3387   6.885   5.544   4.876 -0.2993 -1.0550  1.5058
   30CHL1   C24 3388   6.809   5.413   4.717  0.4466 -0.3525  0.2421
   30CHL1  H24A 3389   6.880   5.340   4.763  0.0416 -0.6715  0.3681
   30CHL1  H24B 3390   6.711   5.377   4.678  0.4626  1.1446 -1.2947
   30CHL1   C25 3391   6.888   5.486   4.608  0.5696 -0.0502 -0.1892
   30CHL1   H25 3392   6.979   5.519   4.662  1.4844 -0.7903 -1.2193
   30CHL1   C26 3393   6.927   5.390   4.499  0.7278  0.0431 -0.1414
   30CHL1  H26A 3394   6.990   5.314   4.551  1.1683  0.1087 -0.5795
   30CHL1  H26B 3395   6.836   5.345   4.453 -0.4027  1.9013  0.1895
   30CHL1  H26C 3396   6.980   5.456   4.427 -0.2286  0.7588 -0.2134
   30CHL1   C27 3397   6.813   5.607   4.552  0.2069 -0.2647 -0.7215
   30CHL1  H27A 3398   6.716   5.573   4.511 -0.6846 -0.8745  1.7319
   30CHL1  H27B 3399   6.792   5.681   4.633 -0.2379 -2.7076  1.5244
   30CHL1  H27C 3400   6.868   5.662   4.473 -0.3812  1.0323 -0.2606
   31CHL1    C3 3401   5.016   4.999   5.861 -0.5573  0.9103 -0.2063
   31CHL1    H3 3402   5.003   4.891   5.836 -3.9435  0.6796  1.9580
   31CHL1    O3 3403   5.033   5.007   6.001 -0.3467 -0.5224 -0.0394
   31CHL1   H3' 3404   4.970   4.943   6.036 -1.0931 -0.0807 -0.5523
   31CHL1    C4 3405   5.141   5.061   5.797 -0.3602  0.2529  0.2762
   31CHL1   H4A 3406   5.150   5.168   5.824 -0.6851 -0.0677  1.7226
   31CHL1   H4B 3407   5.231   5.008   5.835 -1.4903 -1.0398  1.2640
   31CHL1    C5 3408   5.132   5.063   5.651  0.0490  0.7715  0.5932
   31CHL1    C6 3409   5.222   5.000   5.577  0.0582  0.5315  1.0829
   31CHL1    H6 3410   5.299   4.938   5.625 -0.1235  1.1617  2.2185
   31CHL1    C7 3411   5.242   5.018   5.430  1.0625 -0.1413 -0.5772
   31CHL1   H7A 3412   5.347   5.041   5.404  0.3065  0.1231 -3.8192
   31CHL1   H7B 3413   5.232   4.921   5.376 -0.8955 -0.7723  0.7851
   31CHL1    C8 3414   5.140   5.123   5.375 -0.2130  0.4576  0.2749
   31CHL1    H8 3415   5.176   5.224   5.405  0.4981  1.3175 -3.0268
   31CHL1   C14 3416   5.128   5.108   5.216 -0.6804 -0.1642  0.4400
   31CHL1   H14 3417   5.094   5.005   5.194  0.9550 -0.6606  0.0634
   31CHL1   C15 3418   5.270   5.130   5.143 -0.1844 -0.4415  0.3801
   31CHL1  H15A 3419   5.328   5.217   5.182  0.7567  0.9425 -3.6530
   31CHL1  H15B 3420   5.335   5.041   5.156  1.8078  1.1450  2.2197
   31CHL1   C16 3421   5.230   5.148   4.999  0.0491 -0.2456  0.0180
   31CHL1  H16A 3422   5.285   5.234   4.954  0.3570  0.6628  1.9974
   31CHL1  H16B 3423   5.277   5.060   4.951 -0.1395 -0.1405 -0.3568
   31CHL1   C17 3424   5.079   5.153   5.003 -0.3213  0.2973  0.6193
   31CHL1   H17 3425   5.038   5.051   4.990 -0.9061  0.8573 -2.7900
   31CHL1   C13 3426   5.033   5.194   5.142 -0.0944 -0.2702  0.0589
   31CHL1   C18 3427   5.067   5.348   5.168 -0.6637  0.3603 -0.7287
   31CHL1  H18A 3428   4.996   5.405   5.106 -0.4662  1.0052 -0.3741
   31CHL1  H18B 3429   5.070   5.380   5.275  0.4104 -1.6371 -0.1087
   31CHL1  H18C 3430   5.172   5.364   5.135 -1.0233  3.0637 -0.7702
   31CHL1   C12 3431   4.893   5.154   5.208 -0.2166  0.2646  0.0821
   31CHL1  H12A 3432   4.813   5.216   5.163 -1.2801 -0.5058  0.8378
   31CHL1  H12B 3433   4.852   5.053   5.187 -3.0525  1.2997  0.1745
   31CHL1   C11 3434   4.887   5.177   5.355  0.1644  0.9139 -0.0292
   31CHL1  H11A 3435   4.881   5.287   5.362 -1.3785  0.7920  0.9584
   31CHL1  H11B 3436   4.794   5.136   5.401  0.6047  0.8939  0.8559
   31CHL1    C9 3437   4.999   5.110   5.441  0.3972  0.7652  0.3277
   31CHL1    H9 3438   4.973   5.003   5.424 -1.2509  1.2677 -0.6087
   31CHL1   C10 3439   5.006   5.134   5.588  0.6538 -0.4232 -0.7475
   31CHL1   C19 3440   5.015   5.281   5.621 -0.1472 -0.0720  0.1613
   31CHL1  H19A 3441   5.027   5.300   5.730  3.5575  2.9276 -0.5810
   31CHL1  H19B 3442   5.099   5.329   5.567  0.5953  0.2917  1.5842
   31CHL1  H19C 3443   4.924   5.338   5.591  1.5861  2.1078 -1.3044
   31CHL1    C1 3444   4.883   5.062   5.661  0.6790  0.6014  0.8542
   31CHL1   H1A 3445   4.787   5.110   5.632 -0.2400 -1.3346  0.5491
   31CHL1   H1B 3446   4.868   4.958   5.626  0.0556  0.2993  1.9789
   31CHL1    C2 3447   4.889   5.063   5.812  0.0386 -0.0758 -0.4450
   31CHL1   H2A 3448   4.804   5.006   5.856  1.8754 -0.8162  2.3676
   31CHL1   H2B 3449   4.879   5.169   5.844  1.8395 -0.5095  1.7612
   31CHL1   C20 3450   5.023   5.228   4.879  0.0598  0.3217 -0.8167
   31CHL1   H20 3451   5.065   5.331   4.885  0.0608  0.2331  1.5153
   31CHL1   C21 3452   4.864   5.231   4.884 -0.5873 -0.3239 -0.4026
   31CHL1  H21A 3453   4.822   5.298   4.962  0.0203 -0.3968 -0.0059
   31CHL1  H21B 3454   4.815   5.136   4.913 -0.9221  1.3391  5.9354
   31CHL1  H21C 3455   4.832   5.277   4.788  1.8974  0.4461 -0.9221
   31CHL1   C22 3456   5.074   5.154   4.746 -0.0263 -0.4655  0.0494
   31CHL1  H22A 3457   5.165   5.092   4.760 -0.5095 -1.4951 -1.1643
   31CHL1  H22B 3458   4.993   5.083   4.720  0.6185 -1.2079  0.0188
   31CHL1   C23 3459   5.109   5.250   4.631 -0.8306  0.6451  0.2277
   31CHL1  H23A 3460   5.023   5.316   4.609 -0.2777  1.8425  1.5448
   31CHL1  H23B 3461   5.203   5.302   4.660  0.1124 -0.9121  0.1012
   31CHL1   C24 3462   5.138   5.168   4.505  0.0139  0.1044 -0.3320
   31CHL1  H24A 3463   5.218   5.095   4.530  0.6305  0.6004 -0.8104
   31CHL1  H24B 3464   5.052   5.108   4.470 -0.3335 -1.2373  2.5937
   31CHL1   C25 3465   5.190   5.237   4.377  0.3852  0.1409  0.1910
   31CHL1   H25 3466   5.127   5.324   4.350  0.4261  0.2456  0.4364
   31CHL1   C26 3467   5.342   5.293   4.386 -0.0981 -0.3618  0.1701
   31CHL1  H26A 3468   5.354   5.370   4.466  0.7474 -0.4341  0.1133
   31CHL1  H26B 3469   5.407   5.213   4.427  0.6391 -0.5121 -1.2428
   31CHL1  H26C 3470   5.382   5.323   4.287 -0.1031 -0.2477  0.2023
   31CHL1   C27 3471   5.175   5.145   4.253  0.0844 -0.0041 -0.3098
   31CHL1  H27A 3472   5.221   5.046   4.275 -0.7464 -0.5985 -1.1331
   31CHL1  H27B 3473   5.069   5.125   4.224  0.3811 -0.5050 -1.0823
   31CHL1  H27C 3474   5.210   5.174   4.152 -1.6512 -1.2781 -1.3294
   32CHL1    C3 3475   0.171   5.016   5.998 -0.5374  0.5218  0.6845
   32CHL1    H3 3476   0.106   5.104   5.986 -3.9846 -1.4001  3.4382
   32CHL1    O3 3477   0.167   5.004   6.138  0.1600 -0.0224 -0.1884
   32CHL1   H3' 3478   0.239   4.944   6.157 -0.1443 -0.4373 -0.3372
   32CHL1    C4 3479   0.104   4.895   5.932  0.7434  0.0057  0.3072
   32CHL1   H4A 3480   0.144   4.799   5.971  0.3270 -1.3587 -2.4254
   32CHL1   H4B 3481   0.001   4.893   5.973  1.5281  3.4093  2.9549
   32CHL1    C5 3482   0.120   4.904   5.782  0.6372  0.2934  0.4756
   32CHL1    C6 3483   0.011   4.918   5.703 -0.7330 -0.2590  0.2893
   32CHL1    H6 3484  -0.091   4.919   5.744 -0.3087  2.7854  1.5213
   32CHL1    C7 3485   0.012   4.903   5.552  0.7257 -0.2682  0.0820
   32CHL1   H7A 3486  -0.049   4.815   5.520  0.3256  0.0629 -0.0746
   32CHL1   H7B 3487  -0.027   4.996   5.506  0.9427  0.5866  1.6012
   32CHL1    C8 3488   0.155   4.883   5.494 -0.2323 -0.8847  0.2833
   32CHL1    H8 3489   0.186   4.777   5.487  2.6298 -0.0448 -1.2266
   32CHL1   C14 3490   0.152   4.938   5.346  0.4526 -0.1032 -0.0484
   32CHL1   H14 3491   0.148   5.048   5.358 -0.0848 -0.1063 -0.1519
   32CHL1   C15 3492   0.039   4.893   5.254  0.8033  0.8215  0.1702
   32CHL1  H15A 3493   0.040   4.782   5.254 -0.8358  0.7730  1.3764
   32CHL1  H15B 3494  -0.062   4.934   5.277 -0.7775 -1.6856 -1.8028
   32CHL1   C16 3495   0.086   4.945   5.120 -0.1511  0.1127  0.8180
   32CHL1  H16A 3496   0.071   4.866   5.043 -1.3076 -2.4645  3.4882
   32CHL1  H16B 3497   0.027   5.034   5.091  0.3803  0.4229  0.6808
   32CHL1   C17 3498   0.240   4.982   5.137 -0.0061 -0.9623 -0.3963
   32CHL1   H17 3499   0.248   5.092   5.147  1.7967 -0.9717 -1.3375
   32CHL1   C13 3500   0.282   4.921   5.273 -0.3278 -0.2858 -0.5384
   32CHL1   C18 3501   0.316   4.771   5.243 -0.3458  0.6096 -1.2028
   32CHL1  H18A 3502   0.423   4.757   5.218  0.1189  0.9912  0.4883
   32CHL1  H18B 3503   0.312   4.704   5.331  0.3451  0.0118 -1.6160
   32CHL1  H18C 3504   0.250   4.720   5.168 -0.6263  0.2594 -0.7211
   32CHL1   C12 3505   0.399   4.992   5.353  0.2288 -0.4937  0.2000
   32CHL1  H12A 3506   0.495   4.959   5.306  0.9691  0.9811  0.6074
   32CHL1  H12B 3507   0.400   5.103   5.346  1.8025 -0.5380 -1.2355
   32CHL1   C11 3508   0.401   4.957   5.502 -0.3104 -0.3091  0.2450
   32CHL1  H11A 3509   0.458   4.861   5.509  0.4925  0.1596  0.1841
   32CHL1  H11B 3510   0.456   5.041   5.550  1.0831 -0.2394 -1.3822
   32CHL1    C9 3511   0.261   4.954   5.568 -0.1155  0.7638 -0.1938
   32CHL1    H9 3512   0.232   5.061   5.568  0.4020  0.9111  0.0560
   32CHL1   C10 3513   0.264   4.911   5.723 -0.6542 -0.2765  0.2134
   32CHL1   C19 3514   0.333   4.777   5.748 -0.0178 -0.0448  1.0606
   32CHL1  H19A 3515   0.262   4.703   5.707 -0.2239 -2.5902  5.4626
   32CHL1  H19B 3516   0.431   4.767   5.696  1.2472  2.7085  2.6728
   32CHL1  H19C 3517   0.352   4.747   5.853 -0.8606 -3.2964  0.3799
   32CHL1    C1 3518   0.339   5.029   5.797  0.7108  0.0137  0.2181
   32CHL1   H1A 3519   0.446   5.033   5.768  0.4741  2.4122 -0.6118
   32CHL1   H1B 3520   0.289   5.123   5.763  1.2425  0.2545  0.0880
   32CHL1    C2 3521   0.318   5.033   5.951 -0.6180  0.2729 -0.6864
   32CHL1   H2A 3522   0.362   5.127   5.993 -0.2608 -1.2115  2.5946
   32CHL1   H2B 3523   0.386   4.953   5.986 -0.6679  0.0346 -1.1348
   32CHL1   C20 3524   0.329   4.955   5.013 -0.4332  0.3416  0.3559
   32CHL1   H20 3525   0.343   4.849   4.986  2.1659  0.7462 -0.0817
   32CHL1   C21 3526   0.478   5.003   5.035  0.2562 -0.0325  0.0393
   32CHL1  H21A 3527   0.528   4.933   5.106 -2.6665 -1.7733  0.5527
   32CHL1  H21B 3528   0.476   5.101   5.089 -1.6134 -0.6092  1.1150
   32CHL1  H21C 3529   0.531   5.008   4.938 -0.2838  0.4326 -0.2392
   32CHL1   C22 3530   0.277   5.036   4.892 -0.6344  0.5969  0.3727
   32CHL1  H22A 3531   0.170   5.010   4.875 -0.2323 -0.4577 -0.6394
   32CHL1  H22B 3532   0.292   5.143   4.914  0.0331  0.2927  1.4830
   32CHL1   C23 3533   0.340   5.012   4.756  0.3057  0.3379 -0.3643
   32CHL1  H23A 3534   0.451   5.024   4.758  0.2901  0.4723 -0.3285
   32CHL1  H23B 3535   0.310   4.907   4.733  0.8990  0.4827 -1.8915
   32CHL1   C24 3536   0.290   5.123   4.663 -0.3802  0.4007  1.1917
   32CHL1  H24A 3537   0.184   5.152   4.681 -0.5373  0.6148  0.0392
   32CHL1  H24B 3538   0.335   5.224   4.670 -2.7087  1.6368 -0.3469
   32CHL1   C25 3539   0.293   5.089   4.511 -0.2616 -0.8264 -0.0489
   32CHL1   H25 3540   0.259   5.177   4.452  0.0113 -0.9476 -0.3903
   32CHL1   C26 3541   0.439   5.065   4.476 -0.6501  0.7247 -0.7479
   32CHL1  H26A 3542   0.509   5.141   4.517 -0.1735  1.1232 -2.2414
   32CHL1  H26B 3543   0.472   4.962   4.501  0.4431 -0.0672 -4.7820
   32CHL1  H26C 3544   0.443   5.062   4.365 -2.8792 -0.4961 -0.8440
   32CHL1   C27 3545   0.207   4.969   4.473 -1.1971  0.5203 -0.3271
   32CHL1  H27A 3546   0.239   4.889   4.544 -0.5815  1.7480  0.8280
   32CHL1  H27B 3547   0.098   4.985   4.486 -1.8064 -2.6331 -0.7738
   32CHL1  H27C 3548   0.231   4.943   4.368 -0.2976 -1.5143  0.3302
   33CHL1    C3 3549   6.151   4.347   6.330 -0.9070 -0.1198 -0.1841
   33CHL1    H3 3550   6.177   4.240   6.347  2.7772  0.1558 -2.8915
   33CHL1    O3 3551   6.133   4.410   6.457 -0.0067 -0.0291 -0.0635
   33CHL1   H3' 3552   6.083   4.491   6.447 -1.9383 -0.9665  1.4571
   33CHL1    C4 3553   6.278   4.406   6.264 -0.1381  0.7532  0.1698
   33CHL1   H4A 3554   6.266   4.516   6.263  3.1894  1.2540  2.1699
   33CHL1   H4B 3555   6.360   4.378   6.333  2.1376  1.2997 -2.1517
   33CHL1    C5 3556   6.307   4.364   6.121 -0.5793  0.0787  0.3492
   33CHL1    C6 3557   6.426   4.320   6.085 -0.1452 -1.1524  0.5662
   33CHL1    H6 3558   6.499   4.302   6.165  1.7093  0.5892 -0.6674
   33CHL1    C7 3559   6.454   4.274   5.942 -0.1701 -0.1259  0.0553
   33CHL1   H7A 3560   6.558   4.300   5.914  0.2825 -0.1943  1.5432
   33CHL1   H7B 3561   6.459   4.163   5.942 -1.8805 -0.3215  3.0401
   33CHL1    C8 3562   6.352   4.315   5.835 -0.8771  0.3193 -1.0458
   33CHL1    H8 3563   6.367   4.421   5.805 -0.6064  0.4292 -0.5229
   33CHL1   C14 3564   6.381   4.237   5.708 -0.1113  0.5396  1.0345
   33CHL1   H14 3565   6.366   4.129   5.732  0.6805  0.3281  0.6173
   33CHL1   C15 3566   6.519   4.252   5.640  0.0479 -0.5235 -0.5395
   33CHL1  H15A 3567   6.551   4.359   5.638 -1.0091 -0.1963 -1.4890
   33CHL1  H15B 3568   6.601   4.186   5.675  0.8248 -0.2667 -1.8083
   33CHL1   C16 3569   6.489   4.215   5.493 -0.8804  0.5461 -0.7164
   33CHL1  H16A 3570   6.511   4.302   5.427  3.6152  0.4577  0.3173
   33CHL1  H16B 3571   6.549   4.133   5.447 -0.2396  1.5744 -1.7641
   33CHL1   C17 3572   6.337   4.181   5.490  0.2467 -0.0489 -0.0883
   33CHL1   H17 3573   6.327   4.079   5.531  2.7615 -0.3813 -0.1308
   33CHL1   C13 3574   6.271   4.263   5.600  0.6552 -0.7886  0.1359
   33CHL1   C18 3575   6.264   4.412   5.557  0.1555 -0.6236 -0.6108
   33CHL1  H18A 3576   6.226   4.476   5.640 -1.1709 -2.9337  0.6700
   33CHL1  H18B 3577   6.360   4.456   5.523 -0.6960  0.1019 -2.2359
   33CHL1  H18C 3578   6.184   4.413   5.480 -0.9133 -1.6365  0.4460
   33CHL1   C12 3579   6.135   4.218   5.652 -0.7782  0.4087  0.1257
   33CHL1  H12A 3580   6.052   4.214   5.579 -0.5335 -0.8737 -0.1070
   33CHL1  H12B 3581   6.156   4.110   5.671  1.9672  0.6100 -1.1998
   33CHL1   C11 3582   6.099   4.292   5.780 -0.1987 -0.2378 -0.9480
   33CHL1  H11A 3583   6.077   4.395   5.745  0.9966 -0.3727 -2.2099
   33CHL1  H11B 3584   6.006   4.243   5.817  1.5385 -3.0839 -0.0531
   33CHL1    C9 3585   6.209   4.288   5.896  0.1954 -0.1016  0.2239
   33CHL1    H9 3586   6.210   4.180   5.924 -0.5406 -1.1550 -3.2167
   33CHL1   C10 3587   6.182   4.370   6.026  0.3410 -0.2742 -0.6527
   33CHL1   C19 3588   6.140   4.515   5.990  0.2703 -0.3467  0.4533
   33CHL1  H19A 3589   6.133   4.583   6.077  0.3575  1.5458 -0.9554
   33CHL1  H19B 3590   6.206   4.551   5.908 -0.7307 -0.6993 -0.5386
   33CHL1  H19C 3591   6.040   4.515   5.943  0.0249 -0.5425  0.9706
   33CHL1    C1 3592   6.059   4.311   6.102 -0.7987 -0.3664 -0.2559
   33CHL1   H1A 3593   5.964   4.309   6.046 -0.3803 -0.8291 -0.9649
   33CHL1   H1B 3594   6.079   4.203   6.121 -0.5532 -0.4935 -1.1822
   33CHL1    C2 3595   6.033   4.377   6.241  0.0953 -0.3583 -0.0537
   33CHL1   H2A 3596   5.948   4.319   6.284  1.4830 -1.5888  1.1305
   33CHL1   H2B 3597   6.016   4.487   6.232  0.7005 -0.4063 -2.8194
   33CHL1   C20 3598   6.260   4.183   5.356  0.1290  0.4133  0.1342
   33CHL1   H20 3599   6.152   4.211   5.358  0.1456  0.4386  0.6815
   33CHL1   C21 3600   6.267   4.030   5.321  0.2375  0.4734 -0.3924
   33CHL1  H21A 3601   6.217   4.014   5.223 -1.4225 -1.2889  0.6713
   33CHL1  H21B 3602   6.210   3.973   5.398 -1.8482  1.8257 -0.8452
   33CHL1  H21C 3603   6.370   3.989   5.325 -0.7512 -2.1288  1.8473
   33CHL1   C22 3604   6.325   4.283   5.257  0.1570  0.0983 -0.3242
   33CHL1  H22A 3605   6.329   4.384   5.303  1.2429  0.6316 -1.5155
   33CHL1  H22B 3606   6.433   4.264   5.237 -0.0923 -0.6970 -0.9429
   33CHL1   C23 3607   6.256   4.289   5.119  0.3575 -0.5588  0.0736
   33CHL1  H23A 3608   6.253   4.191   5.068 -1.7914 -0.4190 -0.1454
   33CHL1  H23B 3609   6.149   4.317   5.129 -0.2405 -2.0119 -1.7940
   33CHL1   C24 3610   6.333   4.377   5.019 -0.3752 -0.1016  0.2030
   33CHL1  H24A 3611   6.305   4.483   5.031 -2.6136 -0.5414 -0.6154
   33CHL1  H24B 3612   6.443   4.370   5.034 -0.5465 -0.4418  1.3847
   33CHL1   C25 3613   6.310   4.338   4.867 -0.9725 -0.3415 -0.8496
   33CHL1   H25 3614   6.361   4.239   4.857  1.1924  0.4733  1.1467
   33CHL1   C26 3615   6.158   4.329   4.825  0.0512  0.4229  0.6805
   33CHL1  H26A 3616   6.119   4.233   4.866 -1.7372  0.5334 -0.6679
   33CHL1  H26B 3617   6.107   4.419   4.867  3.5524  2.9973 -0.1228
   33CHL1  H26C 3618   6.133   4.320   4.718 -0.7896  0.5231  0.8575
   33CHL1   C27 3619   6.384   4.446   4.784  0.5819  0.4921  0.5417
   33CHL1  H27A 3620   6.353   4.544   4.828  0.2564 -0.1243  1.7226
   33CHL1  H27B 3621   6.493   4.437   4.803  0.3744 -0.9220  1.1602
   33CHL1  H27C 3622   6.365   4.445   4.675 -1.0331 -0.5424  0.8019
   34CHL1    C3 3623   0.336   6.262   6.012  1.0576 -0.1017  0.4760
   34CHL1    H3 3624   0.369   6.368   6.016  2.5622 -0.4647 -1.1494
   34CHL1    O3 3625   0.321   6.201   6.138  0.7086  0.5314  0.4495
   34CHL1   H3' 3626   0.269   6.265   6.186 -3.4981  0.3370 -3.2379
   34CHL1    C4 3627   0.196   6.271   5.952  0.1595 -0.5334  0.4423
   34CHL1   H4A 3628   0.145   6.177   5.984 -1.6425  0.7872  1.6883
   34CHL1   H4B 3629   0.151   6.356   6.009 -0.3316 -0.9177  0.6361
   34CHL1    C5 3630   0.195   6.300   5.805  1.3025 -0.5989 -0.6065
   34CHL1    C6 3631   0.112   6.386   5.744  1.0083 -0.1823  0.7059
   34CHL1    H6 3632   0.032   6.437   5.800  0.4526  0.9963 -1.0591
   34CHL1    C7 3633   0.101   6.413   5.597 -0.0948  0.2143 -0.1936
   34CHL1   H7A 3634  -0.005   6.404   5.564  0.2515  2.1421 -2.0178
   34CHL1   H7B 3635   0.138   6.515   5.572  3.2437 -1.0127 -0.7616
   34CHL1    C8 3636   0.186   6.308   5.509  0.4930 -0.5032 -0.1993
   34CHL1    H8 3637   0.134   6.211   5.492  2.2395 -1.2885 -1.3501
   34CHL1   C14 3638   0.213   6.370   5.371 -0.1705 -0.2474  0.0453
   34CHL1   H14 3639   0.281   6.457   5.385 -0.8578  0.0441  1.7878
   34CHL1   C15 3640   0.089   6.418   5.291 -0.2710 -0.0873  0.1487
   34CHL1  H15A 3641   0.003   6.349   5.302 -0.1122 -0.5997 -1.4529
   34CHL1  H15B 3642   0.044   6.508   5.338 -0.9756 -0.2644 -0.1799
   34CHL1   C16 3643   0.137   6.421   5.146  0.3798  0.1631  0.5700
   34CHL1  H16A 3644   0.073   6.355   5.083 -0.1350  1.1819  0.0053
   34CHL1  H16B 3645   0.149   6.525   5.111  1.5050  0.3447  1.4458
   34CHL1   C17 3646   0.282   6.362   5.150  0.4175 -0.7889  0.5553
   34CHL1   H17 3647   0.337   6.457   5.163  1.4536 -0.8871 -2.4775
   34CHL1   C13 3648   0.291   6.276   5.279 -0.4425  0.0215  0.3342
   34CHL1   C18 3649   0.214   6.143   5.259 -0.1830  0.1263  1.1146
   34CHL1  H18A 3650   0.264   6.072   5.189 -1.0090 -0.1947  0.8408
   34CHL1  H18B 3651   0.219   6.081   5.351  1.9037 -3.3585 -1.1251
   34CHL1  H18C 3652   0.108   6.156   5.227  0.4877 -1.2066 -2.0296
   34CHL1   C12 3653   0.433   6.257   5.338  0.4939 -0.3877 -0.0297
   34CHL1  H12A 3654   0.508   6.205   5.275 -0.1516 -2.3178  0.7208
   34CHL1  H12B 3655   0.464   6.364   5.335 -0.0993 -0.1718  1.1777
   34CHL1   C11 3656   0.425   6.213   5.484 -0.4199 -0.3736  0.0256
   34CHL1  H11A 3657   0.404   6.105   5.498 -1.1501 -0.0441  1.7341
   34CHL1  H11B 3658   0.526   6.240   5.522 -0.0431 -1.9400  0.2141
   34CHL1    C9 3659   0.313   6.284   5.572 -0.5391 -0.1046 -0.2457
   34CHL1    H9 3660   0.362   6.383   5.589 -0.9616  0.0445  0.1212
   34CHL1   C10 3661   0.298   6.225   5.716 -0.3191 -0.2482 -0.1797
   34CHL1   C19 3662   0.254   6.079   5.698  0.4518 -0.0543  0.2416
   34CHL1  H19A 3663   0.236   6.034   5.798 -1.8824 -0.0958 -0.1396
   34CHL1  H19B 3664   0.166   6.078   5.631  0.8013 -1.2314 -0.2227
   34CHL1  H19C 3665   0.330   6.010   5.657  1.1221  0.1875  1.0545
   34CHL1    C1 3666   0.440   6.229   5.781 -0.3815  0.1446 -0.7672
   34CHL1   H1A 3667   0.516   6.169   5.726 -0.8495  0.5156 -1.8510
   34CHL1   H1B 3668   0.481   6.332   5.781  0.8079 -0.2999  0.1433
   34CHL1    C2 3669   0.440   6.181   5.934  0.0490  0.4081  0.1573
   34CHL1   H2A 3670   0.539   6.192   5.985  0.4569  2.3621 -0.9249
   34CHL1   H2B 3671   0.416   6.073   5.930  1.4433  0.0783 -0.0459
   34CHL1   C20 3672   0.346   6.304   5.020  0.3619  0.0600 -0.2478
   34CHL1   H20 3673   0.363   6.194   5.023  1.0072  0.1845  1.9568
   34CHL1   C21 3674   0.487   6.360   5.004 -0.1153  1.2019 -0.5794
   34CHL1  H21A 3675   0.536   6.347   5.103  1.5969  2.6066 -1.1873
   34CHL1  H21B 3676   0.481   6.470   4.990  0.7441  1.1971 -1.0522
   34CHL1  H21C 3677   0.543   6.301   4.928 -0.2164  1.0824 -0.5622
   34CHL1   C22 3678   0.268   6.320   4.889 -0.5364 -0.0063 -0.3752
   34CHL1  H22A 3679   0.198   6.406   4.874 -1.1019 -0.1344  1.2851
   34CHL1  H22B 3680   0.338   6.329   4.804 -1.3528 -0.4774 -1.1062
   34CHL1   C23 3681   0.186   6.191   4.869 -0.0335  0.0259  0.0549
   34CHL1  H23A 3682   0.251   6.102   4.851 -1.0963 -0.9575  0.9394
   34CHL1  H23B 3683   0.125   6.175   4.960 -0.1466 -0.1211 -0.0451
   34CHL1   C24 3684   0.089   6.206   4.757 -0.4760  0.7734 -0.6340
   34CHL1  H24A 3685   0.034   6.303   4.749 -1.1609  0.3984 -0.5859
   34CHL1  H24B 3686   0.135   6.193   4.657  0.5337  0.0255 -0.0819
   34CHL1   C25 3687  -0.020   6.098   4.753 -0.8526  0.6592 -0.4861
   34CHL1   H25 3688  -0.072   6.102   4.655 -0.7503 -2.4622 -0.7858
   34CHL1   C26 3689   0.041   5.958   4.770 -0.8139  0.5484  0.3884
   34CHL1  H26A 3690   0.116   5.942   4.690  0.1082  0.9305  1.1586
   34CHL1  H26B 3691   0.088   5.941   4.869  1.3289 -2.7910 -1.0238
   34CHL1  H26C 3692  -0.047   5.890   4.761 -0.0283 -0.4566  0.1992
   34CHL1   C27 3693  -0.136   6.117   4.852 -0.0933 -0.3293 -0.1161
   34CHL1  H27A 3694  -0.175   6.221   4.848 -1.8800 -0.7612  2.7798
   34CHL1  H27B 3695  -0.223   6.053   4.824 -1.1272  0.7397  0.5467
   34CHL1  H27C 3696  -0.115   6.094   4.958  0.4560 -0.0163 -0.1564
   35CHL1    C3 3697   0.748   4.952   5.921 -1.1962 -0.2244  0.5991
   35CHL1    H3 3698   0.641   4.937   5.895 -1.1146 -0.7727  0.5585
   35CHL1    O3 3699   0.753   4.928   6.061  0.6680  0.6618  0.1923
   35CHL1   H3' 3700   0.845   4.917   6.085  0.9196  1.1791 -0.5074
   35CHL1    C4 3701   0.842   4.856   5.845  0.0546  0.5128  0.5286
   35CHL1   H4A 3702   0.943   4.855   5.891  1.1213 -0.9398 -1.6664
   35CHL1   H4B 3703   0.813   4.750   5.864  0.8492  0.3851  1.0747
   35CHL1    C5 3704   0.829   4.879   5.694  0.3889  0.4866  0.2223
   35CHL1    C6 3705   0.786   4.784   5.606 -0.4742 -0.2138 -0.4034
   35CHL1    H6 3706   0.762   4.682   5.637 -0.3157 -0.1791 -0.1621
   35CHL1    C7 3707   0.792   4.811   5.461 -0.0225 -0.3485  0.0032
   35CHL1   H7A 3708   0.819   4.719   5.404  0.8373 -0.4132  0.5020
   35CHL1   H7B 3709   0.689   4.831   5.424 -0.6859  1.7975  2.7041
   35CHL1    C8 3710   0.874   4.934   5.414 -0.7895  0.5515  0.3147
   35CHL1    H8 3711   0.983   4.930   5.434 -0.7263  0.6398 -0.0191
   35CHL1   C14 3712   0.838   4.972   5.272 -0.7418  0.4785 -0.1853
   35CHL1   H14 3713   0.728   4.991   5.272 -0.8834 -0.1386 -2.1315
   35CHL1   C15 3714   0.850   4.857   5.165 -0.4141 -0.2417 -0.2435
   35CHL1  H15A 3715   0.951   4.817   5.190 -0.4437  0.0712  0.3771
   35CHL1  H15B 3716   0.767   4.785   5.177 -0.0255 -0.6861 -0.1719
   35CHL1   C16 3717   0.852   4.921   5.024  0.2481 -0.3525 -0.2514
   35CHL1  H16A 3718   0.947   4.896   4.973 -0.1710 -1.2645 -0.6082
   35CHL1  H16B 3719   0.769   4.886   4.959  1.5489 -2.3749 -0.9020
   35CHL1   C17 3720   0.842   5.077   5.060  0.4232 -0.1623  0.4553
   35CHL1   H17 3721   0.732   5.092   5.069  0.3940 -1.3090  2.7015
   35CHL1   C13 3722   0.897   5.095   5.207  0.5377  0.4745  0.1274
   35CHL1   C18 3723   1.052   5.089   5.198 -0.0681  0.2238  0.4081
   35CHL1  H18A 3724   1.103   5.081   5.296  0.5289 -1.0370  0.0168
   35CHL1  H18B 3725   1.094   5.002   5.143  1.4648  0.1324  1.6588
   35CHL1  H18C 3726   1.088   5.179   5.144  0.8874 -1.4910 -2.0020
   35CHL1   C12 3727   0.841   5.211   5.297 -0.4533  0.0567  0.5843
   35CHL1  H12A 3728   0.881   5.308   5.262 -0.9299 -0.1826 -0.6893
   35CHL1  H12B 3729   0.731   5.222   5.284 -0.9255  2.2718  4.7538
   35CHL1   C11 3730   0.880   5.187   5.442  0.6023  0.1675 -0.0074
   35CHL1  H11A 3731   0.991   5.190   5.446  0.6050 -0.6930  0.9394
   35CHL1  H11B 3732   0.839   5.273   5.499 -0.7545 -1.6058  1.8316
   35CHL1    C9 3733   0.828   5.050   5.502  0.2519 -0.6211  0.2934
   35CHL1    H9 3734   0.719   5.047   5.483  0.0957  2.7039  0.0111
   35CHL1   C10 3735   0.852   5.027   5.653  0.6741  0.9051 -0.1834
   35CHL1   C19 3736   0.997   5.062   5.680 -0.0071  0.3234 -0.4672
   35CHL1  H19A 3737   1.012   5.169   5.706  1.6395 -0.4406  2.1638
   35CHL1  H19B 3738   1.026   5.022   5.779  0.0408  2.2738  0.3435
   35CHL1  H19C 3739   1.072   5.023   5.608  2.2444  1.3045  1.2371
   35CHL1    C1 3740   0.770   5.124   5.742 -0.4580 -0.5481  0.3579
   35CHL1   H1A 3741   0.797   5.230   5.722  0.0939 -0.9632 -1.2452
   35CHL1   H1B 3742   0.666   5.112   5.705  0.0237 -0.8567 -0.9559
   35CHL1    C2 3743   0.785   5.103   5.890  0.7507  0.1232  0.0296
   35CHL1   H2A 3744   0.711   5.168   5.942  1.5386  0.2435  1.0225
   35CHL1   H2B 3745   0.889   5.130   5.917  0.6442  0.7077 -0.1281
   35CHL1   C20 3746   0.896   5.173   4.959  0.0879  0.5149  0.4470
   35CHL1   H20 3747   1.001   5.147   4.936  0.4733  2.6269 -0.3740
   35CHL1   C21 3748   0.878   5.319   5.006 -0.1931  0.2845  0.6540
   35CHL1  H21A 3749   0.959   5.346   5.078  1.8996 -0.3396 -1.3404
   35CHL1  H21B 3750   0.782   5.320   5.062 -0.3524  4.6284  0.6052
   35CHL1  H21C 3751   0.875   5.385   4.917  0.4368 -1.0910 -0.4252
   35CHL1   C22 3752   0.819   5.143   4.826  0.2406  0.0753 -1.3128
   35CHL1  H22A 3753   0.832   5.034   4.809 -0.5843 -0.4172  0.9467
   35CHL1  H22B 3754   0.708   5.157   4.828  0.2325 -0.0997  0.2429
   35CHL1   C23 3755   0.876   5.219   4.700  0.4123 -0.1349  0.2881
   35CHL1  H23A 3756   0.872   5.330   4.700  0.9294 -0.1028 -0.9269
   35CHL1  H23B 3757   0.984   5.194   4.699  0.4870 -0.0707 -2.5240
   35CHL1   C24 3758   0.818   5.168   4.570  0.4976  0.5908  0.4623
   35CHL1  H24A 3759   0.827   5.058   4.564 -1.0818  0.2917  2.5305
   35CHL1  H24B 3760   0.711   5.196   4.578  0.5949  1.1886 -0.1590
   35CHL1   C25 3761   0.878   5.238   4.441  0.4596  0.6738 -0.3034
   35CHL1   H25 3762   0.977   5.190   4.428 -0.5506 -1.4120 -0.7151
   35CHL1   C26 3763   0.788   5.200   4.326  0.1565  0.3261  0.2619
   35CHL1  H26A 3764   0.691   5.254   4.330  0.1242  0.2974 -0.1196
   35CHL1  H26B 3765   0.852   5.213   4.236  1.5480  0.5243  1.2406
   35CHL1  H26C 3766   0.763   5.093   4.340  0.3704  0.7023  4.8532
   35CHL1   C27 3767   0.894   5.388   4.452 -0.1507 -1.0227  0.8874
   35CHL1  H27A 3768   0.933   5.427   4.355  2.2473 -1.2918  1.6819
   35CHL1  H27B 3769   0.795   5.431   4.478  0.1178 -0.3538  0.8413
   35CHL1  H27C 3770   0.965   5.408   4.535  0.7126 -3.8802  0.9282
   36CHL1    C3 3771   4.586   4.566   5.965 -0.1146 -0.2070 -0.2443
   36CHL1    H3 3772   4.532   4.660   5.986  0.0047 -0.5097  1.6317
   36CHL1    O3 3773   4.605   4.500   6.090  0.1423 -0.3646  0.6374
   36CHL1   H3' 3774   4.632   4.409   6.076  2.1461  0.2524  0.2009
   36CHL1    C4 3775   4.520   4.471   5.864 -0.1458 -0.0942 -0.3781
   36CHL1   H4A 3776   4.590   4.385   5.872 -0.2372 -0.0153  2.2308
   36CHL1   H4B 3777   4.426   4.443   5.916 -0.1426  0.1133 -0.2604
   36CHL1    C5 3778   4.505   4.531   5.727  0.9937 -0.3375 -0.8679
   36CHL1    C6 3779   4.388   4.556   5.669  0.0637 -0.9001 -0.0635
   36CHL1    H6 3780   4.297   4.521   5.719  1.0111 -2.1774  0.8037
   36CHL1    C7 3781   4.375   4.605   5.524  0.4228  0.3855 -0.5966
   36CHL1   H7A 3782   4.306   4.542   5.465  1.3996 -1.0536 -0.2607
   36CHL1   H7B 3783   4.333   4.707   5.526  1.0232  0.6323  1.1392
   36CHL1    C8 3784   4.513   4.612   5.449  0.5760  0.4668  0.5283
   36CHL1    H8 3785   4.535   4.507   5.420  2.6207  0.9514  0.1800
   36CHL1   C14 3786   4.514   4.698   5.326  0.0010  0.2317  0.6962
   36CHL1   H14 3787   4.506   4.803   5.361 -2.3469 -0.1219  1.3241
   36CHL1   C15 3788   4.390   4.683   5.243 -0.1965 -0.1606 -0.1857
   36CHL1  H15A 3789   4.380   4.574   5.226  1.8278 -0.4594  0.2414
   36CHL1  H15B 3790   4.299   4.735   5.281 -0.9299  0.6892 -2.8717
   36CHL1   C16 3791   4.431   4.745   5.110  0.5010  0.0429 -0.5285
   36CHL1  H16A 3792   4.421   4.666   5.032  1.7721  0.3594 -1.0317
   36CHL1  H16B 3793   4.382   4.841   5.084  1.7840  0.4835 -1.4649
   36CHL1   C17 3794   4.580   4.782   5.123 -0.2579 -0.1061 -0.1298
   36CHL1   H17 3795   4.587   4.887   5.157  1.0190 -0.5316  1.0230
   36CHL1   C13 3796   4.635   4.695   5.235  0.2556 -0.4329 -0.2321
   36CHL1   C18 3797   4.656   4.554   5.174  0.3304 -0.1995 -0.2176
   36CHL1  H18A 3798   4.670   4.484   5.259  1.0909  1.6155  1.2270
   36CHL1  H18B 3799   4.569   4.516   5.116 -0.3990 -0.8623  1.2640
   36CHL1  H18C 3800   4.745   4.556   5.107  0.8519 -0.1870  0.4637
   36CHL1   C12 3801   4.747   4.748   5.319 -0.0559 -0.8117  0.0715
   36CHL1  H12A 3802   4.834   4.721   5.254 -0.8334  1.4974 -2.0839
   36CHL1  H12B 3803   4.735   4.856   5.339  0.6836 -1.0745  2.1618
   36CHL1   C11 3804   4.751   4.682   5.454  0.6692  0.1385 -0.2464
   36CHL1  H11A 3805   4.798   4.583   5.432 -1.1335 -1.2254  1.6443
   36CHL1  H11B 3806   4.817   4.743   5.519 -0.5701 -0.8406  2.0622
   36CHL1    C9 3807   4.625   4.664   5.538  0.0437  0.4042 -0.2218
   36CHL1    H9 3808   4.575   4.755   5.574  0.7354  0.8704 -0.4140
   36CHL1   C10 3809   4.641   4.574   5.663 -0.2133  0.0839 -0.3832
   36CHL1   C19 3810   4.723   4.445   5.625  0.1225 -0.1739  0.3831
   36CHL1  H19A 3811   4.829   4.465   5.599 -0.1896  0.4083 -0.4824
   36CHL1  H19B 3812   4.724   4.363   5.700  5.9170 -1.7972 -0.9753
   36CHL1  H19C 3813   4.678   4.398   5.535  0.0241 -1.6788  1.1892
   36CHL1    C1 3814   4.729   4.655   5.768 -0.5390 -0.6859 -0.4798
   36CHL1   H1A 3815   4.836   4.656   5.742 -0.2900  0.9044  0.4383
   36CHL1   H1B 3816   4.682   4.756   5.772 -1.3921 -1.1057  1.0389
   36CHL1    C2 3817   4.729   4.595   5.911 -0.1635 -0.0060  0.5067
   36CHL1   H2A 3818   4.775   4.654   5.994  0.3233 -0.5745  0.6512
   36CHL1   H2B 3819   4.783   4.498   5.910  2.1833  1.2435 -0.2960
   36CHL1   C20 3820   4.639   4.775   4.976  0.1060 -0.3647 -0.3270
   36CHL1   H20 3821   4.650   4.672   4.937  0.5065  0.4867 -2.6253
   36CHL1   C21 3822   4.782   4.835   4.978 -0.8943 -0.0071  0.1610
   36CHL1  H21A 3823   4.831   4.812   4.881 -0.9074  0.8625 -0.0557
   36CHL1  H21B 3824   4.845   4.780   5.051 -1.9165 -1.1387  0.2344
   36CHL1  H21C 3825   4.779   4.944   4.996  2.5065 -0.0807  1.9389
   36CHL1   C22 3826   4.555   4.850   4.867  0.0313 -0.2417 -0.0417
   36CHL1  H22A 3827   4.456   4.802   4.853  0.3943 -1.4472  1.3584
   36CHL1  H22B 3828   4.544   4.953   4.908  0.1523 -0.5984  0.9181
   36CHL1   C23 3829   4.626   4.850   4.731 -0.4480  0.0169 -0.0158
   36CHL1  H23A 3830   4.706   4.927   4.728 -0.1763 -0.1673  1.5512
   36CHL1  H23B 3831   4.660   4.746   4.712  1.3876  0.6423 -0.2884
   36CHL1   C24 3832   4.522   4.886   4.629 -0.6392 -1.1046 -0.2969
   36CHL1  H24A 3833   4.440   4.813   4.611 -2.2382  0.7172 -0.8056
   36CHL1  H24B 3834   4.473   4.983   4.653  1.9796  0.1234  0.4362
   36CHL1   C25 3835   4.588   4.925   4.494 -0.1487  0.5240  0.0161
   36CHL1   H25 3836   4.511   4.938   4.415 -1.0138  1.4083  0.9632
   36CHL1   C26 3837   4.659   5.068   4.498  0.0359  0.7567  0.6060
   36CHL1  H26A 3838   4.719   5.074   4.592 -0.5024  2.8454  0.8625
   36CHL1  H26B 3839   4.720   5.088   4.408 -1.5517 -3.2841 -1.6150
   36CHL1  H26C 3840   4.588   5.152   4.512 -0.7351  0.1511  0.4046
   36CHL1   C27 3841   4.684   4.805   4.449 -0.7869 -0.0309 -0.3739
   36CHL1  H27A 3842   4.632   4.713   4.417  0.9283 -1.2494  0.1913
   36CHL1  H27B 3843   4.747   4.827   4.360 -0.0498  0.4633  0.2497
   36CHL1  H27C 3844   4.760   4.783   4.527 -1.3223  0.4227  0.2953
   37CHL1    C3 3845   2.809   0.548   6.086  0.0299 -0.2983  0.0479
   37CHL1    H3 3846   2.753   0.642   6.070 -0.1052 -0.7396 -2.4836
   37CHL1    O3 3847   2.820   0.523   6.223 -0.6701 -0.4683  0.1378
   37CHL1   H3' 3848   2.853   0.433   6.227 -1.2343 -0.6965 -0.1109
   37CHL1    C4 3849   2.729   0.431   6.036 -0.2821 -0.0435  0.6475
   37CHL1   H4A 3850   2.767   0.331   6.068 -2.9531 -1.0868  0.8106
   37CHL1   H4B 3851   2.633   0.447   6.089 -1.2695 -1.4960 -0.6188
   37CHL1    C5 3852   2.719   0.421   5.885  0.0125 -0.2092  0.1674
   37CHL1    C6 3853   2.600   0.415   5.823 -0.6073 -0.4572 -1.0788
   37CHL1    H6 3854   2.508   0.410   5.883 -0.2640 -1.8181 -0.6207
   37CHL1    C7 3855   2.578   0.414   5.675 -0.5309 -0.1032  1.0079
   37CHL1   H7A 3856   2.510   0.330   5.647 -1.0548  0.4654  0.5612
   37CHL1   H7B 3857   2.533   0.503   5.628  2.6966  0.3050 -1.5897
   37CHL1    C8 3858   2.719   0.378   5.608  0.4381 -0.1161 -0.2783
   37CHL1    H8 3859   2.724   0.269   5.630  1.8861 -0.2505 -1.1282
   37CHL1   C14 3860   2.710   0.398   5.457  0.1413  0.5799  0.1500
   37CHL1   H14 3861   2.691   0.505   5.434 -0.5713  0.4813  0.2780
   37CHL1   C15 3862   2.601   0.321   5.390 -0.5862  0.0417 -0.1475
   37CHL1  H15A 3863   2.586   0.215   5.420 -0.1302 -0.0400 -0.1959
   37CHL1  H15B 3864   2.502   0.370   5.381 -1.1519 -1.1606 -0.7349
   37CHL1   C16 3865   2.656   0.320   5.243  0.2050 -0.1985 -0.0474
   37CHL1  H16A 3866   2.660   0.215   5.206 -0.2009 -0.2110 -0.0545
   37CHL1  H16B 3867   2.592   0.373   5.169 -1.0397 -0.8662  0.5266
   37CHL1   C17 3868   2.795   0.377   5.235 -0.8152  0.0853  0.6514
   37CHL1   H17 3869   2.787   0.487   5.222  1.5506  0.0862 -1.4624
   37CHL1   C13 3870   2.842   0.366   5.379 -0.5962  0.9590  0.0733
   37CHL1   C18 3871   2.889   0.221   5.398  0.9527  0.3819  0.6782
   37CHL1  H18A 3872   2.834   0.137   5.351  1.1174  0.3935  0.4645
   37CHL1  H18B 3873   2.994   0.212   5.366  0.5368  1.6175 -1.1701
   37CHL1  H18C 3874   2.886   0.206   5.508 -1.2331  1.2102  0.7829
   37CHL1   C12 3875   2.946   0.463   5.428 -0.3211 -0.0532  0.2467
   37CHL1  H12A 3876   3.046   0.442   5.386  0.1036  0.2808  1.0621
   37CHL1  H12B 3877   2.918   0.563   5.391  0.0326 -0.0106  0.0937
   37CHL1   C11 3878   2.963   0.453   5.578  0.1329  0.5936 -1.3431
   37CHL1  H11A 3879   3.026   0.361   5.586  1.2457  1.4151 -0.3607
   37CHL1  H11B 3880   3.034   0.533   5.608  0.7159  0.0679 -1.3015
   37CHL1    C9 3881   2.832   0.466   5.659  0.6967  0.5990 -0.2852
   37CHL1    H9 3882   2.793   0.564   5.625 -1.6802 -0.4367 -0.7769
   37CHL1   C10 3883   2.850   0.439   5.809 -0.3994  0.5060 -0.2139
   37CHL1   C19 3884   2.922   0.302   5.833 -0.3039  0.2288  0.4354
   37CHL1  H19A 3885   3.028   0.306   5.799 -0.3147  0.3613  0.4162
   37CHL1  H19B 3886   2.928   0.281   5.942 -0.9349 -0.4134  0.3592
   37CHL1  H19C 3887   2.878   0.207   5.793  1.0528 -0.3821  0.3366
   37CHL1    C1 3888   2.939   0.557   5.868 -0.2762 -0.0929  0.7957
   37CHL1   H1A 3889   3.041   0.538   5.829 -1.7943 -0.1232 -3.8668
   37CHL1   H1B 3890   2.905   0.657   5.832  0.5224  0.5174  1.6931
   37CHL1    C2 3891   2.951   0.569   6.022  0.7253  0.3488 -0.2694
   37CHL1   H2A 3892   2.990   0.668   6.052 -1.5982  1.8226 -1.7625
   37CHL1   H2B 3893   3.009   0.485   6.066 -2.2305 -0.3846  2.6177
   37CHL1   C20 3894   2.885   0.320   5.124  0.1930  0.0045 -0.1643
   37CHL1   H20 3895   2.920   0.216   5.143  0.7379  0.4924  1.6739
   37CHL1   C21 3896   3.027   0.384   5.110 -0.3289  0.0014 -0.3583
   37CHL1  H21A 3897   3.100   0.335   5.042 -0.8645 -2.3558  0.6538
   37CHL1  H21B 3898   3.082   0.377   5.207  2.6940 -1.3060 -2.0222
   37CHL1  H21C 3899   3.019   0.494   5.098  2.8103  0.2229 -1.4463
   37CHL1   C22 3900   2.810   0.299   4.986  0.0972 -0.4467  0.7956
   37CHL1  H22A 3901   2.879   0.246   4.917  0.8184  1.2415  0.1812
   37CHL1  H22B 3902   2.731   0.230   5.023 -0.7160  0.0078 -0.0579
   37CHL1   C23 3903   2.743   0.423   4.930  0.7276  0.4534  0.0601
   37CHL1  H23A 3904   2.679   0.469   5.007 -2.1576 -1.3980 -1.0669
   37CHL1  H23B 3905   2.828   0.491   4.905  1.2574  0.4877  1.8683
   37CHL1   C24 3906   2.666   0.398   4.797  0.2225  0.1362 -0.2051
   37CHL1  H24A 3907   2.738   0.349   4.728  0.0007  0.4455 -0.6621
   37CHL1  H24B 3908   2.586   0.321   4.807 -0.6795  0.9335 -1.0031
   37CHL1   C25 3909   2.605   0.523   4.730  0.2161 -0.1017 -0.1612
   37CHL1   H25 3910   2.529   0.560   4.803  1.7217  2.8251  0.0447
   37CHL1   C26 3911   2.693   0.636   4.699 -0.1539 -0.1374 -0.0799
   37CHL1  H26A 3912   2.733   0.685   4.791  2.2867  0.6972 -1.4937
   37CHL1  H26B 3913   2.775   0.609   4.628 -0.4300 -0.2371 -0.3611
   37CHL1  H26C 3914   2.651   0.723   4.646 -1.9276  0.2481  1.8232
   37CHL1   C27 3915   2.533   0.491   4.600 -0.0748  0.7215  0.0597
   37CHL1  H27A 3916   2.483   0.585   4.567  1.2504  1.5733  0.3746
   37CHL1  H27B 3917   2.596   0.449   4.519 -1.4529 -0.4928 -0.4083
   37CHL1  H27C 3918   2.442   0.429   4.611 -1.7818  3.2962  1.6768
   38CHL1    C3 3919   2.176   1.166   6.169  0.7263  0.1214 -0.6513
   38CHL1    H3 3920   2.109   1.254   6.160  0.5124  0.0214 -0.1063
   38CHL1    O3 3921   2.227   1.173   6.300  0.3951 -0.1149  0.1047
   38CHL1   H3' 3922   2.293   1.104   6.294  0.2309 -0.1542 -2.1780
   38CHL1    C4 3923   2.093   1.033   6.135 -0.7387  0.1253 -0.3983
   38CHL1   H4A 3924   2.174   0.959   6.146 -0.7617  0.3924  2.0202
   38CHL1   H4B 3925   2.024   1.020   6.221  0.4594 -1.5404  0.3644
   38CHL1    C5 3926   2.040   1.034   5.990 -0.1967  0.0479  1.0500
   38CHL1    C6 3927   1.910   1.015   5.954 -0.3495  0.4067  0.4285
   38CHL1    H6 3928   1.845   0.994   6.040  1.8724 -1.6810  1.7423
   38CHL1    C7 3929   1.862   1.005   5.814 -0.4705 -0.0360 -0.0775
   38CHL1   H7A 3930   1.798   0.915   5.803 -0.6260 -0.1127  1.3327
   38CHL1   H7B 3931   1.809   1.100   5.788 -0.2337  0.5217  1.3832
   38CHL1    C8 3932   1.976   0.985   5.713 -1.0482 -1.2459  0.0592
   38CHL1    H8 3933   2.015   0.881   5.720 -1.3858 -1.3311  0.6816
   38CHL1   C14 3934   1.918   1.015   5.572  0.4237 -0.4111  0.5437
   38CHL1   H14 3935   1.883   1.120   5.578 -0.6919 -0.6418 -1.1939
   38CHL1   C15 3936   1.799   0.925   5.533  0.6747  0.1335  0.4154
   38CHL1  H15A 3937   1.819   0.820   5.563 -0.5546  0.0030  0.8773
   38CHL1  H15B 3938   1.706   0.933   5.594 -1.1663 -2.3188 -1.8821
   38CHL1   C16 3939   1.780   0.942   5.384  0.3886 -1.2646  0.2628
   38CHL1  H16A 3940   1.776   0.842   5.336 -0.5965 -1.2486  0.3079
   38CHL1  H16B 3941   1.677   0.981   5.370  0.3001 -1.1012  1.2862
   38CHL1   C17 3942   1.888   1.039   5.342  0.1173 -0.4285 -0.7142
   38CHL1   H17 3943   1.842   1.141   5.347  1.3161  0.1226 -0.6558
   38CHL1   C13 3944   2.004   1.016   5.452  0.2842  0.1973 -0.0478
   38CHL1   C18 3945   2.080   0.880   5.431  0.1531  0.4754  0.1229
   38CHL1  H18A 3946   2.012   0.793   5.439 -0.1561  0.6923 -0.1341
   38CHL1  H18B 3947   2.129   0.890   5.332  0.3539  0.9029  0.2611
   38CHL1  H18C 3948   2.163   0.858   5.502 -0.0877 -0.8561  0.0144
   38CHL1   C12 3949   2.099   1.131   5.477 -0.4870  0.1883  0.0120
   38CHL1  H12A 3950   2.179   1.127   5.400 -0.0910  2.4883  0.2337
   38CHL1  H12B 3951   2.045   1.228   5.484 -0.7709 -0.0770  2.0248
   38CHL1   C11 3952   2.175   1.113   5.615  0.1563  0.0134 -0.2608
   38CHL1  H11A 3953   2.237   1.021   5.604  0.3316 -0.1950  2.0562
   38CHL1  H11B 3954   2.248   1.195   5.632  1.0028 -1.1093  1.9778
   38CHL1    C9 3955   2.084   1.088   5.745  0.0261 -0.2501  0.6888
   38CHL1    H9 3956   2.029   1.183   5.759 -0.8375 -1.0275  3.1515
   38CHL1   C10 3957   2.153   1.059   5.883  0.2391  0.0034 -0.5864
   38CHL1   C19 3958   2.249   0.940   5.867  0.1322  0.0779 -0.1282
   38CHL1  H19A 3959   2.298   0.915   5.963  0.6784 -3.0928 -1.1072
   38CHL1  H19B 3960   2.201   0.851   5.821 -1.3545  1.3620 -1.1826
   38CHL1  H19C 3961   2.328   0.970   5.794 -0.5222  2.1110 -0.0802
   38CHL1    C1 3962   2.234   1.181   5.930  0.6835  0.2816  0.2735
   38CHL1   H1A 3963   2.309   1.193   5.849  0.7711  0.5523  0.3949
   38CHL1   H1B 3964   2.161   1.264   5.917  1.1252  0.5464 -0.6364
   38CHL1    C2 3965   2.286   1.177   6.068 -0.5216 -0.4346 -0.7290
   38CHL1   H2A 3966   2.336   1.274   6.088  0.0294 -0.6920 -0.8482
   38CHL1   H2B 3967   2.360   1.096   6.087  0.0321  0.6419  2.3433
   38CHL1   C20 3968   1.930   1.008   5.196 -0.4071  0.1545  0.0639
   38CHL1   H20 3969   1.964   0.902   5.195  1.6431  0.7290  1.8504
   38CHL1   C21 3970   2.046   1.095   5.148 -0.5346  0.0320 -0.0626
   38CHL1  H21A 3971   2.143   1.074   5.198 -0.3360  2.5566  0.7594
   38CHL1  H21B 3972   2.015   1.200   5.167 -2.1815 -0.7371  1.7477
   38CHL1  H21C 3973   2.037   1.092   5.037  0.0002 -1.0964 -0.0854
   38CHL1   C22 3974   1.806   1.024   5.108 -0.4959  0.8582 -0.5590
   38CHL1  H22A 3975   1.716   0.972   5.146  0.2625 -0.2815 -0.2952
   38CHL1  H22B 3976   1.784   1.133   5.107 -2.3160  0.5807  1.8377
   38CHL1   C23 3977   1.820   0.964   4.960 -0.0450 -0.3782 -0.4248
   38CHL1  H23A 3978   1.738   1.013   4.903 -0.2449 -0.8520 -0.5588
   38CHL1  H23B 3979   1.916   0.997   4.916 -0.2089  0.2134 -0.3484
   38CHL1   C24 3980   1.793   0.814   4.947 -0.1299 -0.2518 -0.0773
   38CHL1  H24A 3981   1.884   0.762   4.984  0.8227  1.3635 -0.0468
   38CHL1  H24B 3982   1.711   0.783   5.016  1.5176 -0.0177  2.0713
   38CHL1   C25 3983   1.750   0.766   4.801 -1.0464  0.5285 -0.5665
   38CHL1   H25 3984   1.830   0.811   4.737 -0.2190  1.0750  0.8072
   38CHL1   C26 3985   1.761   0.615   4.794 -0.5227  0.8532  0.6760
   38CHL1  H26A 3986   1.683   0.563   4.854  2.4687 -2.2188  2.2734
   38CHL1  H26B 3987   1.750   0.575   4.691  0.4472  1.1368  0.4502
   38CHL1  H26C 3988   1.856   0.579   4.839 -0.7681 -1.5637 -0.5982
   38CHL1   C27 3989   1.598   0.791   4.771  0.5916 -0.5529 -0.4097
   38CHL1  H27A 3990   1.548   0.741   4.686 -0.5424  0.7041 -0.5148
   38CHL1  H27B 3991   1.534   0.780   4.861  2.0957 -2.4196  0.4972
   38CHL1  H27C 3992   1.590   0.901   4.752 -2.4907 -0.2892  1.7700
   39CHL1    C3 3993   1.443   2.946   6.147 -1.1121 -0.0599  0.1738
   39CHL1    H3 3994   1.437   3.051   6.112  0.7125 -0.3974 -1.3401
   39CHL1    O3 3995   1.442   2.933   6.291  0.7407  0.0071  0.3538
   39CHL1   H3' 3996   1.522   2.884   6.314  1.1036  0.8266  0.8685
   39CHL1    C4 3997   1.321   2.874   6.092  0.2694  0.1172 -0.8835
   39CHL1   H4A 3998   1.328   2.771   6.134  0.0479  0.2097 -0.6124
   39CHL1   H4B 3999   1.229   2.922   6.132  0.0939  0.1109 -1.2683
   39CHL1    C5 4000   1.311   2.875   5.943 -0.0399  0.6905 -0.1272
   39CHL1    C6 4001   1.200   2.920   5.874 -0.5218 -0.0360 -0.2361
   39CHL1    H6 4002   1.107   2.946   5.927 -0.2140  0.4196  0.0884
   39CHL1    C7 4003   1.199   2.931   5.724  0.0562 -0.3533 -0.8203
   39CHL1   H7A 4004   1.100   2.891   5.693 -1.0109  1.1197  0.5426
   39CHL1   H7B 4005   1.201   3.038   5.693  2.4002  0.2622  1.1314
   39CHL1    C8 4006   1.311   2.847   5.654  0.4029 -0.4343 -0.2533
   39CHL1    H8 4007   1.284   2.740   5.645  1.3251 -0.5374 -2.4529
   39CHL1   C14 4008   1.321   2.886   5.508  0.0534 -0.4455 -0.6966
   39CHL1   H14 4009   1.342   2.995   5.499  0.9191 -0.1491  3.2359
   39CHL1   C15 4010   1.194   2.871   5.425  0.5025  0.7028 -0.2256
   39CHL1  H15A 4011   1.150   2.772   5.448  0.6404  0.7862  0.4191
   39CHL1  H15B 4012   1.118   2.951   5.439  0.3509  0.5156  0.0345
   39CHL1   C16 4013   1.241   2.879   5.280  0.2766  0.4949 -0.3366
   39CHL1  H16A 4014   1.208   2.795   5.216  1.9601  1.2605 -2.3230
   39CHL1  H16B 4015   1.216   2.974   5.229  1.0633  0.7609 -0.2544
   39CHL1   C17 4016   1.397   2.880   5.289  0.0390  0.4632  0.2631
   39CHL1   H17 4017   1.425   2.988   5.284 -0.8104  0.7097  0.6387
   39CHL1   C13 4018   1.433   2.830   5.423 -0.0430  0.0533 -0.8667
   39CHL1   C18 4019   1.431   2.676   5.424  0.0313  0.5920 -0.5563
   39CHL1  H18A 4020   1.337   2.646   5.372 -0.3387  0.6569  0.0605
   39CHL1  H18B 4021   1.514   2.623   5.374  0.5788 -0.9153  1.7647
   39CHL1  H18C 4022   1.423   2.640   5.529  3.6134 -0.8035 -0.6286
   39CHL1   C12 4023   1.563   2.873   5.485  0.2233 -0.6251 -0.6443
   39CHL1  H12A 4024   1.647   2.822   5.433 -0.0046 -2.8691  1.0163
   39CHL1  H12B 4025   1.565   2.980   5.455 -1.0275 -0.1716  0.7499
   39CHL1   C11 4026   1.564   2.847   5.636 -0.0107  0.7515 -1.1454
   39CHL1  H11A 4027   1.581   2.738   5.643  0.6425  0.9048 -0.3115
   39CHL1  H11B 4028   1.655   2.899   5.674  0.4089 -1.3516  0.9078
   39CHL1    C9 4029   1.440   2.884   5.725  0.1092  0.0146 -0.0661
   39CHL1    H9 4030   1.433   2.994   5.727  2.4081  0.2134  0.3634
   39CHL1   C10 4031   1.446   2.846   5.875  0.0637  0.0975  0.4580
   39CHL1   C19 4032   1.446   2.691   5.887  0.0089 -0.1597  0.2689
   39CHL1  H19A 4033   1.515   2.645   5.813 -1.6054  1.0374 -2.1013
   39CHL1  H19B 4034   1.468   2.655   5.990 -0.4013  1.1331  0.8212
   39CHL1  H19C 4035   1.347   2.651   5.857 -0.2467  0.1174  0.7460
   39CHL1    C1 4036   1.578   2.920   5.930 -0.2544 -0.3114 -0.2144
   39CHL1   H1A 4037   1.663   2.864   5.885  0.4425  1.8957 -1.8662
   39CHL1   H1B 4038   1.584   3.030   5.912 -0.4150 -0.2826 -0.0984
   39CHL1    C2 4039   1.580   2.896   6.085  0.5580 -0.1174 -0.7182
   39CHL1   H2A 4040   1.660   2.956   6.133 -0.7322  0.6040  0.6067
   39CHL1   H2B 4041   1.604   2.789   6.100  1.7632  0.0982 -0.9740
   39CHL1   C20 4042   1.457   2.826   5.155  0.4379 -0.0134  0.5194
   39CHL1   H20 4043   1.431   2.719   5.143  1.9414 -0.3742  0.3695
   39CHL1   C21 4044   1.607   2.841   5.143  0.7654 -0.3981 -0.2602
   39CHL1  H21A 4045   1.645   2.945   5.154 -4.6838  1.7675  1.5225
   39CHL1  H21B 4046   1.658   2.781   5.065 -1.4575 -0.9479 -1.3627
   39CHL1  H21C 4047   1.653   2.801   5.236  1.6020  0.3801 -0.3228
   39CHL1   C22 4048   1.392   2.892   5.030  0.2584 -0.2852 -0.4645
   39CHL1  H22A 4049   1.282   2.882   5.028  0.0555  1.6039 -2.0238
   39CHL1  H22B 4050   1.417   3.000   5.041  1.3978 -0.5693 -0.0644
   39CHL1   C23 4051   1.459   2.832   4.902  0.2749 -0.5254  0.6528
   39CHL1  H23A 4052   1.562   2.870   4.888 -0.6578  1.4428 -1.6555
   39CHL1  H23B 4053   1.481   2.723   4.913  1.0021 -0.6497 -1.4641
   39CHL1   C24 4054   1.365   2.844   4.777  0.0371  0.3728 -0.5213
   39CHL1  H24A 4055   1.297   2.757   4.779  2.7913 -1.8960  0.6179
   39CHL1  H24B 4056   1.295   2.930   4.792  1.3584  1.2509  0.9770
   39CHL1   C25 4057   1.429   2.858   4.638  0.0020  0.0203 -0.7297
   39CHL1   H25 4058   1.520   2.910   4.677  0.6461  0.4126 -2.6406
   39CHL1   C26 4059   1.475   2.731   4.567  0.5709  0.4613 -0.0498
   39CHL1  H26A 4060   1.543   2.755   4.483 -0.2160 -2.4617 -1.6389
   39CHL1  H26B 4061   1.511   2.653   4.638 -3.5555  0.1398  1.9917
   39CHL1  H26C 4062   1.383   2.687   4.524  1.6992 -1.1861 -0.8793
   39CHL1   C27 4063   1.349   2.961   4.548 -0.5382 -0.3269 -0.3974
   39CHL1  H27A 4064   1.367   2.952   4.439 -1.2384  1.1148 -0.6556
   39CHL1  H27B 4065   1.240   2.950   4.561 -0.1154 -4.2013  1.5016
   39CHL1  H27C 4066   1.370   3.068   4.571  1.0589 -0.4161 -1.3059
   40CHL1    C3 4067   0.712   0.357   5.778 -0.4005  0.4780 -0.2193
   40CHL1    H3 4068   0.799   0.288   5.773 -1.1543 -0.4543 -1.0375
   40CHL1    O3 4069   0.685   0.375   5.917 -0.5749  0.7763 -1.0189
   40CHL1   H3' 4070   0.601   0.335   5.942  0.0590  1.6713  3.4413
   40CHL1    C4 4071   0.730   0.495   5.702 -0.0401  0.0689  0.5922
   40CHL1   H4A 4072   0.647   0.565   5.723 -1.5512 -1.2477 -0.7171
   40CHL1   H4B 4073   0.824   0.546   5.734  1.0661 -0.6149 -1.4095
   40CHL1    C5 4074   0.739   0.472   5.556 -0.2093  0.5086  0.1911
   40CHL1    C6 4075   0.852   0.499   5.491 -0.0931 -0.0481 -0.0106
   40CHL1    H6 4076   0.938   0.541   5.544 -0.7791 -1.5371  2.4447
   40CHL1    C7 4077   0.875   0.478   5.345  0.4281 -0.4651  0.3394
   40CHL1   H7A 4078   0.935   0.551   5.286 -1.5105  0.7622 -0.2197
   40CHL1   H7B 4079   0.926   0.380   5.338 -0.0051 -0.6056 -1.3410
   40CHL1    C8 4080   0.733   0.460   5.265  0.3836  0.2180 -0.8186
   40CHL1    H8 4081   0.674   0.554   5.259  0.8237  0.5204 -0.4663
   40CHL1   C14 4082   0.763   0.409   5.118 -1.4542  0.2414 -0.4675
   40CHL1   H14 4083   0.813   0.311   5.130 -2.4977 -0.3475 -0.8785
   40CHL1   C15 4084   0.854   0.490   5.025  0.0307  0.0217 -0.2678
   40CHL1  H15A 4085   0.830   0.598   5.010  1.6494  0.5989  1.0598
   40CHL1  H15B 4086   0.962   0.491   5.050 -0.0384  1.3580  0.0413
   40CHL1   C16 4087   0.834   0.423   4.897 -0.6320  0.5420 -0.2057
   40CHL1  H16A 4088   0.831   0.494   4.812 -2.3686  0.1916 -0.4937
   40CHL1  H16B 4089   0.918   0.352   4.881  0.1625  1.2286  0.7875
   40CHL1   C17 4090   0.699   0.341   4.899 -0.3636 -0.1027  1.1256
   40CHL1   H17 4091   0.739   0.239   4.920  3.5451  0.8939 -0.5534
   40CHL1   C13 4092   0.639   0.388   5.030 -0.0444 -0.3881 -0.4724
   40CHL1   C18 4093   0.559   0.524   5.008  0.0269 -0.3740 -0.1989
   40CHL1  H18A 4094   0.518   0.551   5.107  0.6697 -2.4980  0.6995
   40CHL1  H18B 4095   0.624   0.599   4.956 -1.0651  0.6680 -0.0966
   40CHL1  H18C 4096   0.469   0.505   4.946  1.8460 -0.9349 -2.8596
   40CHL1   C12 4097   0.550   0.284   5.103  0.2896  0.4064  0.0127
   40CHL1  H12A 4098   0.450   0.275   5.055  0.3236  0.6496 -0.1055
   40CHL1  H12B 4099   0.598   0.184   5.094 -0.2156  0.1189  0.5038
   40CHL1   C11 4100   0.518   0.322   5.258  1.3230 -0.6263  0.3225
   40CHL1  H11A 4101   0.449   0.408   5.242 -0.4295 -1.8285  1.1173
   40CHL1  H11B 4102   0.454   0.244   5.304 -1.6993  0.3557 -1.8818
   40CHL1    C9 4103   0.644   0.355   5.343 -0.0185 -0.0403 -0.0852
   40CHL1    H9 4104   0.707   0.265   5.359  0.0978  0.1797  0.6912
   40CHL1   C10 4105   0.619   0.410   5.483 -1.2925 -0.4910 -0.4082
   40CHL1   C19 4106   0.497   0.509   5.487  0.2392 -0.2553  0.2878
   40CHL1  H19A 4107   0.402   0.462   5.455  1.2719 -0.8620 -2.0938
   40CHL1  H19B 4108   0.484   0.550   5.590  1.2973 -1.7589  1.0539
   40CHL1  H19C 4109   0.527   0.595   5.424 -0.4582  1.1718  1.8253
   40CHL1    C1 4110   0.600   0.282   5.562  0.3813  0.3012 -0.5490
   40CHL1   H1A 4111   0.500   0.250   5.527 -0.0937  1.8045 -0.6504
   40CHL1   H1B 4112   0.669   0.200   5.534 -0.7014 -1.7378  2.2423
   40CHL1    C2 4113   0.592   0.285   5.712  0.2753 -0.7123 -0.1297
   40CHL1   H2A 4114   0.578   0.182   5.752  0.9734 -2.1093 -3.2238
   40CHL1   H2B 4115   0.496   0.338   5.729  0.3758 -0.4075 -0.4919
   40CHL1   C20 4116   0.619   0.338   4.769 -0.1707  0.5317  0.7744
   40CHL1   H20 4117   0.600   0.441   4.732 -2.7244 -1.1670 -3.3492
   40CHL1   C21 4118   0.477   0.275   4.783  0.3330 -0.1322 -0.7715
   40CHL1  H21A 4119   0.413   0.343   4.844  0.3155  0.6464 -1.6322
   40CHL1  H21B 4120   0.494   0.180   4.838  1.3602  0.4300 -0.0937
   40CHL1  H21C 4121   0.431   0.240   4.688 -1.5784  1.6894 -0.5799
   40CHL1   C22 4122   0.694   0.269   4.651  0.3853 -0.1456 -0.6931
   40CHL1  H22A 4123   0.639   0.289   4.557 -0.3933  0.4074 -0.1291
   40CHL1  H22B 4124   0.789   0.323   4.632  0.9151 -0.5593  0.6003
   40CHL1   C23 4125   0.717   0.119   4.674 -0.0158 -0.3234  0.1140
   40CHL1  H23A 4126   0.776   0.102   4.766  2.1831  3.0228 -0.5063
   40CHL1  H23B 4127   0.622   0.061   4.678 -0.1564 -0.2348 -1.2827
   40CHL1   C24 4128   0.792   0.053   4.559 -0.4629  1.2385 -0.3217
   40CHL1  H24A 4129   0.899   0.081   4.557 -0.0975 -0.1349 -2.0765
   40CHL1  H24B 4130   0.799  -0.057   4.574  0.2484  1.6734  3.5099
   40CHL1   C25 4131   0.728   0.077   4.415 -0.5508 -0.4700 -0.5580
   40CHL1   H25 4132   0.707   0.184   4.393 -1.4343 -0.7616 -1.2237
   40CHL1   C26 4133   0.830   0.024   4.306  0.4939  0.0335 -0.0550
   40CHL1  H26A 4134   0.790   0.049   4.206 -1.5888 -0.8721  0.4950
   40CHL1  H26B 4135   0.924   0.082   4.320  2.6913 -2.7346 -2.2904
   40CHL1  H26C 4136   0.848  -0.084   4.324 -0.5041  0.1844  2.1697
   40CHL1   C27 4137   0.588   0.007   4.406  0.0809  0.2370  0.4102
   40CHL1  H27A 4138   0.513   0.057   4.471 -0.3833 -2.5638  2.1767
   40CHL1  H27B 4139   0.556   0.018   4.300  0.0029  2.8898  0.6451
   40CHL1  H27C 4140   0.579  -0.101   4.430  1.0080 -0.4555 -1.9957
   41CHL1    C3 4141   3.955   4.887   5.637  0.0060  0.7051  1.1180
   41CHL1    H3 4142   4.049   4.829   5.623  1.3314  2.7655  1.1077
   41CHL1    O3 4143   3.935   4.891   5.779 -0.1797  0.0066 -0.0004
   41CHL1   H3' 4144   3.888   4.970   5.808  2.4563  1.1270  1.6166
   41CHL1    C4 4145   3.969   5.026   5.578 -0.2336 -0.4659  0.4414
   41CHL1   H4A 4146   3.867   5.070   5.588 -1.1922 -2.2295 -0.9464
   41CHL1   H4B 4147   4.048   5.084   5.631  1.5811  0.0585 -2.5674
   41CHL1    C5 4148   3.999   5.004   5.429 -0.1221  0.0946 -0.5028
   41CHL1    C6 4149   4.117   5.050   5.377 -1.1558 -0.1843 -0.4095
   41CHL1    H6 4150   4.189   5.109   5.436 -1.2560 -1.1139  0.6833
   41CHL1    C7 4151   4.157   5.045   5.230  0.5092 -0.4423 -0.2468
   41CHL1   H7A 4152   4.190   5.147   5.200 -2.9108  1.1777  1.0352
   41CHL1   H7B 4153   4.246   4.980   5.219  2.7155  2.5387 -1.3560
   41CHL1    C8 4154   4.042   4.991   5.144 -0.1531 -0.0292 -0.3112
   41CHL1    H8 4155   3.983   5.084   5.134 -0.8813 -0.4975 -0.5071
   41CHL1   C14 4156   4.089   4.948   5.006  0.4514 -0.4450  0.2123
   41CHL1   H14 4157   4.154   4.857   5.006 -0.3165 -1.0489 -1.7219
   41CHL1   C15 4158   4.173   5.045   4.921 -0.1252 -0.7797  0.5988
   41CHL1  H15A 4159   4.130   5.146   4.939  1.4882 -0.1848  1.2754
   41CHL1  H15B 4160   4.278   5.040   4.955  0.0071 -0.7771  0.1830
   41CHL1   C16 4161   4.152   5.011   4.774  0.1382 -0.1802  0.1218
   41CHL1  H16A 4162   4.126   5.097   4.709  1.2750  1.7189  2.0592
   41CHL1  H16B 4163   4.253   4.980   4.742 -0.2080 -1.4418  0.1747
   41CHL1   C17 4164   4.062   4.892   4.777  0.8426  0.4894 -0.6424
   41CHL1   H17 4165   4.120   4.798   4.786 -0.9637 -0.5134  1.7207
   41CHL1   C13 4166   3.980   4.893   4.912 -0.4610  0.7714 -0.4278
   41CHL1   C18 4167   3.870   5.003   4.898 -0.4195  0.1062 -0.4804
   41CHL1  H18A 4168   3.815   5.036   4.989 -1.0266  0.5978 -1.0194
   41CHL1  H18B 4169   3.923   5.094   4.866  0.0734 -0.1147 -0.3066
   41CHL1  H18C 4170   3.802   4.977   4.814 -1.0633 -0.1564  0.1081
   41CHL1   C12 4171   3.927   4.767   4.975  0.4066 -0.1628 -0.3810
   41CHL1  H12A 4172   3.847   4.710   4.922  0.3609 -1.7820  1.3027
   41CHL1  H12B 4173   4.009   4.693   4.990  2.0300  1.9386  1.8320
   41CHL1   C11 4174   3.882   4.786   5.118  0.0538 -0.3874 -0.3758
   41CHL1  H11A 4175   3.785   4.839   5.107 -0.7531 -1.6570  0.5004
   41CHL1  H11B 4176   3.866   4.692   5.174  0.4982  0.7907  1.8162
   41CHL1    C9 4177   3.977   4.874   5.214  0.9204 -0.8548  0.8951
   41CHL1    H9 4178   4.063   4.810   5.242  2.1860  1.2769  2.1175
   41CHL1   C10 4179   3.907   4.918   5.348 -0.3895  0.0468  0.7325
   41CHL1   C19 4180   3.778   4.999   5.327  0.5420  0.0675 -0.1861
   41CHL1  H19A 4181   3.733   5.037   5.421 -1.9356 -0.8365 -0.9235
   41CHL1  H19B 4182   3.794   5.089   5.264  0.0172  2.3776  2.7742
   41CHL1  H19C 4183   3.697   4.938   5.282 -0.0606  1.3543 -0.8853
   41CHL1    C1 4184   3.867   4.786   5.423 -0.3961  0.2462  0.3968
   41CHL1   H1A 4185   3.771   4.751   5.378 -0.1164 -1.5553  1.1303
   41CHL1   H1B 4186   3.944   4.708   5.408 -1.6083 -0.9534  0.2574
   41CHL1    C2 4187   3.845   4.813   5.569  0.1143  0.7704 -0.2155
   41CHL1   H2A 4188   3.825   4.713   5.613  0.2386  0.6196 -0.4973
   41CHL1   H2B 4189   3.750   4.869   5.578 -0.3399  0.0821 -0.6410
   41CHL1   C20 4190   3.986   4.885   4.648  0.2970 -0.1153 -0.1181
   41CHL1   H20 4191   3.941   4.983   4.622  1.9252  1.1051  1.4326
   41CHL1   C21 4192   3.888   4.762   4.651 -0.0497  0.5837  0.0435
   41CHL1  H21A 4193   3.946   4.669   4.669  2.6264  2.4279  1.8015
   41CHL1  H21B 4194   3.840   4.758   4.551  2.1171 -0.8277 -1.0084
   41CHL1  H21C 4195   3.816   4.768   4.735 -0.1899  1.6403 -0.1389
   41CHL1   C22 4196   4.092   4.873   4.533  0.1568 -0.4647  0.4856
   41CHL1  H22A 4197   4.165   4.955   4.518  1.0718 -1.4225 -0.5150
   41CHL1  H22B 4198   4.152   4.782   4.555  0.1985 -0.5103  0.1823
   41CHL1   C23 4199   4.040   4.839   4.387 -0.1805  0.2890  0.0643
   41CHL1  H23A 4200   3.974   4.751   4.397 -0.9622  1.0591  2.1765
   41CHL1  H23B 4201   3.986   4.929   4.349  0.2815  0.7825  0.5663
   41CHL1   C24 4202   4.153   4.801   4.292 -0.4541  0.4460  0.4418
   41CHL1  H24A 4203   4.223   4.887   4.285 -2.2038  1.9677  1.0251
   41CHL1  H24B 4204   4.211   4.714   4.330  0.1743  0.5307 -0.2764
   41CHL1   C25 4205   4.099   4.751   4.154  0.6350 -0.7819  0.0024
   41CHL1   H25 4206   4.001   4.701   4.171 -0.5969  1.2376 -0.8264
   41CHL1   C26 4207   4.067   4.871   4.063  0.1543  0.2839  1.1121
   41CHL1  H26A 4208   4.018   4.833   3.971 -0.0020  0.3755  1.1567
   41CHL1  H26B 4209   3.994   4.932   4.121  0.5995  1.3029  0.6211
   41CHL1  H26C 4210   4.157   4.926   4.028  0.2281  0.6747  1.9033
   41CHL1   C27 4211   4.205   4.661   4.081  0.2058 -0.8855 -0.7298
   41CHL1  H27A 4212   4.158   4.609   3.994 -1.1538 -0.4651 -0.2728
   41CHL1  H27B 4213   4.280   4.735   4.048 -0.3323 -0.7841 -1.7579
   41CHL1  H27C 4214   4.249   4.596   4.160 -2.2345  1.1574  2.5750
   42CHL1    C3 4215   3.782   0.818   5.999  0.2724  0.1318  0.0753
   42CHL1    H3 4216   3.728   0.912   5.974 -0.7564 -0.8112 -1.4238
   42CHL1    O3 4217   3.820   0.821   6.136 -0.1000 -0.0808  0.2847
   42CHL1   H3' 4218   3.838   0.729   6.154  0.4631 -0.5311 -2.3214
   42CHL1    C4 4219   3.680   0.703   5.978 -0.3263 -0.1238 -0.2053
   42CHL1   H4A 4220   3.731   0.610   6.013  0.0712 -0.1199 -0.7613
   42CHL1   H4B 4221   3.603   0.734   6.052  1.4612 -2.5151  2.8988
   42CHL1    C5 4222   3.630   0.699   5.833  0.2566 -0.0827 -0.1794
   42CHL1    C6 4223   3.501   0.727   5.807  0.3150 -0.6599  0.2963
   42CHL1    H6 4224   3.425   0.717   5.887 -1.9686 -3.0816 -1.9689
   42CHL1    C7 4225   3.437   0.734   5.671 -0.3764  0.2295  0.8623
   42CHL1   H7A 4226   3.341   0.682   5.654 -0.4949  0.0801  1.9074
   42CHL1   H7B 4227   3.434   0.844   5.656  1.8757  0.0127 -2.4933
   42CHL1    C8 4228   3.536   0.680   5.566 -0.6883 -0.1093 -0.8490
   42CHL1    H8 4229   3.534   0.569   5.578 -1.9141 -0.1533 -1.2992
   42CHL1   C14 4230   3.487   0.727   5.426  0.1365  0.4867 -0.9791
   42CHL1   H14 4231   3.494   0.837   5.427 -0.7154  0.5478 -1.2356
   42CHL1   C15 4232   3.342   0.685   5.390 -0.7598  0.2944  0.2953
   42CHL1  H15A 4233   3.331   0.586   5.441 -1.3855 -0.1428 -0.6553
   42CHL1  H15B 4234   3.272   0.758   5.436 -2.2708 -0.8647 -0.0484
   42CHL1   C16 4235   3.347   0.667   5.234  0.4310  0.3314  0.2876
   42CHL1  H16A 4236   3.327   0.563   5.201 -2.5444  0.8226  0.2826
   42CHL1  H16B 4237   3.270   0.722   5.175 -2.5364 -0.8788  2.7524
   42CHL1   C17 4238   3.489   0.707   5.190 -0.8518 -0.2549 -1.4315
   42CHL1   H17 4239   3.495   0.818   5.189  0.5087 -0.2935 -0.8243
   42CHL1   C13 4240   3.577   0.673   5.321  0.0245 -0.2626 -0.0257
   42CHL1   C18 4241   3.594   0.516   5.316  0.3165 -0.2114  0.3594
   42CHL1  H18A 4242   3.637   0.478   5.411 -0.1216 -0.2276  0.5504
   42CHL1  H18B 4243   3.502   0.456   5.299  0.7689 -0.4506 -1.5587
   42CHL1  H18C 4244   3.665   0.484   5.236 -1.1195 -0.5801 -0.8191
   42CHL1   C12 4245   3.715   0.746   5.337  0.3297  0.7351  0.5245
   42CHL1  H12A 4246   3.780   0.711   5.254 -0.6607  0.8214 -0.3046
   42CHL1  H12B 4247   3.711   0.856   5.320  2.1938  1.0572  1.8280
   42CHL1   C11 4248   3.775   0.701   5.468  0.2970  0.1225  0.7012
   42CHL1  H11A 4249   3.815   0.597   5.468 -2.2684 -0.9712 -0.3317
   42CHL1  H11B 4250   3.869   0.756   5.488  0.9039 -0.8448  0.6017
   42CHL1    C9 4251   3.682   0.733   5.593 -1.4886  0.2765  0.2407
   42CHL1    H9 4252   3.681   0.844   5.587 -1.9839  0.2155 -3.4112
   42CHL1   C10 4253   3.739   0.696   5.723 -0.5834 -0.3396 -0.7010
   42CHL1   C19 4254   3.798   0.556   5.718 -0.5329  0.8956  0.6852
   42CHL1  H19A 4255   3.816   0.521   5.822  0.8175 -2.2756 -0.5106
   42CHL1  H19B 4256   3.727   0.481   5.680  0.0468 -0.1950  1.7006
   42CHL1  H19C 4257   3.895   0.549   5.663 -0.8137  1.0478  0.1596
   42CHL1    C1 4258   3.853   0.792   5.761 -0.7141  0.1444 -0.0497
   42CHL1   H1A 4259   3.944   0.803   5.698  1.3274  0.7035  2.7727
   42CHL1   H1B 4260   3.808   0.891   5.737 -1.2600 -0.3010 -0.9220
   42CHL1    C2 4261   3.903   0.794   5.910  0.0551 -0.1620 -0.3138
   42CHL1   H2A 4262   3.973   0.880   5.914  0.3646 -0.4101 -0.4296
   42CHL1   H2B 4263   3.956   0.699   5.931 -0.6111 -0.5746 -0.4835
   42CHL1   C20 4264   3.535   0.654   5.047  0.4672 -0.4063 -0.5414
   42CHL1   H20 4265   3.557   0.546   5.064 -1.9256 -0.5854  2.0149
   42CHL1   C21 4266   3.660   0.724   4.996 -0.0633  0.1607  0.0431
   42CHL1  H21A 4267   3.685   0.678   4.898  1.0769 -0.3899  0.5688
   42CHL1  H21B 4268   3.746   0.693   5.060  0.5789  1.5979 -0.0784
   42CHL1  H21C 4269   3.641   0.832   4.982 -0.0061 -0.0593 -1.9323
   42CHL1   C22 4270   3.423   0.666   4.940 -0.2993  0.1354  0.6675
   42CHL1  H22A 4271   3.328   0.624   4.980 -1.5739  0.8161 -1.4710
   42CHL1  H22B 4272   3.407   0.775   4.927  0.2395  0.0660 -0.7902
   42CHL1   C23 4273   3.462   0.604   4.800  0.4160  0.0313 -0.0466
   42CHL1  H23A 4274   3.548   0.661   4.759  0.1835  0.1705 -0.3547
   42CHL1  H23B 4275   3.484   0.495   4.809 -1.9361 -0.3961  1.5949
   42CHL1   C24 4276   3.348   0.628   4.698 -0.0495  0.4385  0.8680
   42CHL1  H24A 4277   3.247   0.602   4.738 -0.1260 -1.1656 -0.2703
   42CHL1  H24B 4278   3.343   0.736   4.673  0.3634  0.3243  0.2961
   42CHL1   C25 4279   3.360   0.552   4.560  0.2681 -0.0250  0.0037
   42CHL1   H25 4280   3.395   0.448   4.577 -0.9082 -0.1990  1.5456
   42CHL1   C26 4281   3.227   0.533   4.482  0.0388 -0.8122 -0.3474
   42CHL1  H26A 4282   3.150   0.489   4.549 -0.2963  0.0103 -0.1708
   42CHL1  H26B 4283   3.203   0.635   4.446  0.8187 -0.7872 -0.8080
   42CHL1  H26C 4284   3.238   0.467   4.394  0.9523  0.5002 -1.2614
   42CHL1   C27 4285   3.461   0.627   4.471 -0.0261  0.6175  0.1568
   42CHL1  H27A 4286   3.566   0.602   4.498 -0.3054  0.0328  0.7138
   42CHL1  H27B 4287   3.452   0.595   4.365 -0.9698  0.5880  0.2432
   42CHL1  H27C 4288   3.451   0.737   4.486 -4.0640  0.5988 -1.3558
   43CHL1    C3 4289   6.804   1.409   5.938  0.2326 -0.0309 -0.7537
   43CHL1    H3 4290   6.763   1.307   5.929 -0.7466  0.1711  0.9026
   43CHL1    O3 4291   6.791   1.460   6.069 -0.2870  0.3733 -0.1407
   43CHL1   H3' 4292   6.774   1.555   6.066  0.6194  0.5446  0.0311
   43CHL1    C4 4293   6.954   1.410   5.892  0.7080 -0.1628 -0.5784
   43CHL1   H4A 4294   6.989   1.514   5.910 -0.6712  0.1250  0.5906
   43CHL1   H4B 4295   7.006   1.347   5.968 -0.3891 -1.1869 -0.6450
   43CHL1    C5 4296   6.969   1.369   5.754 -0.0008  0.6453  0.6458
   43CHL1    C6 4297   7.044   1.258   5.726 -0.0160 -0.2494  0.1961
   43CHL1    H6 4298   7.099   1.217   5.812  0.6535  2.2547  1.0448
   43CHL1    C7 4299   7.063   1.208   5.588  0.9916 -0.0919 -0.1604
   43CHL1   H7A 4300   7.174   1.202   5.578  0.8673 -1.0539 -1.1175
   43CHL1   H7B 4301   7.035   1.100   5.580  2.0751 -0.2939 -1.6031
   43CHL1    C8 4302   7.004   1.288   5.468 -0.3061 -0.6202  0.0291
   43CHL1    H8 4303   7.068   1.376   5.445  1.7104 -1.4833  1.9540
   43CHL1   C14 4304   6.987   1.210   5.340  0.4301  0.1978  0.2328
   43CHL1   H14 4305   6.915   1.130   5.366 -1.0436  1.0287 -1.1152
   43CHL1   C15 4306   7.096   1.124   5.284 -0.2365 -0.0259 -0.3448
   43CHL1  H15A 4307   7.196   1.172   5.293 -1.2752  2.0789  0.8598
   43CHL1  H15B 4308   7.091   1.022   5.327  1.0274  0.1122  0.1841
   43CHL1   C16 4309   7.056   1.110   5.131 -0.7329 -0.1578 -0.7567
   43CHL1  H16A 4310   7.119   1.177   5.068  1.7330 -0.7929  0.8989
   43CHL1  H16B 4311   7.058   1.006   5.091 -2.3209 -0.5249  0.0298
   43CHL1   C17 4312   6.909   1.159   5.129 -0.8114 -0.3465 -0.0456
   43CHL1   H17 4313   6.847   1.082   5.180 -3.0154  1.0139 -0.5292
   43CHL1   C13 4314   6.899   1.271   5.229 -0.3950 -0.4814 -0.2339
   43CHL1   C18 4315   6.973   1.395   5.177  0.3476 -0.1296 -1.0930
   43CHL1  H18A 4316   6.967   1.476   5.253 -1.6773 -0.1615 -1.1606
   43CHL1  H18B 4317   7.078   1.376   5.148  0.6024 -1.0384  0.3241
   43CHL1  H18C 4318   6.917   1.444   5.095 -2.5332 -0.3042  0.6294
   43CHL1   C12 4319   6.762   1.321   5.279 -0.2538  0.2531  0.9007
   43CHL1  H12A 4320   6.722   1.391   5.203  2.7293  0.1716 -0.8700
   43CHL1  H12B 4321   6.703   1.227   5.290  0.4577 -0.6544 -2.0709
   43CHL1   C11 4322   6.771   1.392   5.413  0.4724  0.3156 -0.3452
   43CHL1  H11A 4323   6.809   1.495   5.401  0.7138  0.2167 -0.4281
   43CHL1  H11B 4324   6.668   1.397   5.455  0.3625  1.1337 -0.7005
   43CHL1    C9 4325   6.869   1.336   5.526  0.5707 -0.1709 -0.0305
   43CHL1    H9 4326   6.822   1.240   5.558  2.3970 -1.9083 -2.1870
   43CHL1   C10 4327   6.878   1.436   5.650 -0.1271 -0.9105 -0.2910
   43CHL1   C19 4328   6.945   1.571   5.612  0.2918  0.0812  0.4020
   43CHL1  H19A 4329   6.896   1.628   5.531  0.0420 -1.5674 -0.6531
   43CHL1  H19B 4330   6.949   1.636   5.702 -0.4186 -0.9990  1.2437
   43CHL1  H19C 4331   7.051   1.553   5.583  2.0160  2.2304  4.5286
   43CHL1    C1 4332   6.732   1.450   5.709  0.0337 -0.3534  0.5732
   43CHL1   H1A 4333   6.681   1.517   5.637  2.5125 -0.1548 -1.1383
   43CHL1   H1B 4334   6.691   1.348   5.696 -0.0351 -0.1419 -1.1121
   43CHL1    C2 4335   6.720   1.501   5.842  0.4529  1.1212 -0.2411
   43CHL1   H2A 4336   6.613   1.509   5.873 -0.0679 -2.2997 -0.7239
   43CHL1   H2B 4337   6.776   1.596   5.852  2.0016  0.1939  0.3260
   43CHL1   C20 4338   6.851   1.183   4.984 -0.4842  0.3552 -0.0733
   43CHL1   H20 4339   6.869   1.284   4.942  2.1670 -0.2702 -0.6072
   43CHL1   C21 4340   6.702   1.154   4.994 -0.7478 -0.0440  0.1791
   43CHL1  H21A 4341   6.686   1.050   5.029  1.6198 -0.8309 -0.9312
   43CHL1  H21B 4342   6.648   1.171   4.899 -1.7794  0.7610  0.8764
   43CHL1  H21C 4343   6.661   1.227   5.067  0.2583 -0.2965  1.0152
   43CHL1   C22 4344   6.917   1.092   4.873  0.3279 -0.4702 -0.3955
   43CHL1  H22A 4345   7.017   1.136   4.853  0.7817 -0.7200  1.2215
   43CHL1  H22B 4346   6.931   0.986   4.903  3.7614  0.0138  0.0809
   43CHL1   C23 4347   6.849   1.121   4.731 -0.6609 -0.4256  0.3805
   43CHL1  H23A 4348   6.752   1.067   4.729  0.9303 -3.5484 -0.0116
   43CHL1  H23B 4349   6.837   1.230   4.716 -1.6523 -0.6811 -0.8056
   43CHL1   C24 4350   6.932   1.061   4.613  0.1846  0.1284  0.0513
   43CHL1  H24A 4351   7.037   1.097   4.611  0.0131  0.6128 -0.9321
   43CHL1  H24B 4352   6.943   0.951   4.622  2.3415  0.1054 -1.8615
   43CHL1   C25 4353   6.866   1.083   4.472 -0.3908 -0.1229 -0.1858
   43CHL1   H25 4354   6.762   1.044   4.471 -1.5469  2.7285 -0.0070
   43CHL1   C26 4355   6.870   1.230   4.431  0.5165  0.1070  0.4443
   43CHL1  H26A 4356   6.846   1.298   4.516  0.5314  0.3800  0.2304
   43CHL1  H26B 4357   6.971   1.253   4.391  0.4829  1.3840  1.0167
   43CHL1  H26C 4358   6.792   1.241   4.352  0.3232  1.8360  0.8136
   43CHL1   C27 4359   6.940   1.004   4.357  0.0054 -0.0584  0.5886
   43CHL1  H27A 4360   6.961   0.899   4.388  0.4802 -0.6755 -1.6849
   43CHL1  H27B 4361   6.885   1.009   4.261  0.9124  2.6271  0.1263
   43CHL1  H27C 4362   7.039   1.042   4.325 -0.0472 -0.6443 -0.2788
   44CHL1    C3 4363   2.967   2.335   5.744 -0.1078  0.5640  0.1554
   44CHL1    H3 4364   2.991   2.228   5.728 -1.9663  0.1652 -0.1883
   44CHL1    O3 4365   2.993   2.369   5.877  0.5273 -0.3598  0.3522
   44CHL1   H3' 4366   2.949   2.454   5.883  0.0252 -0.4474 -1.4124
   44CHL1    C4 4367   3.049   2.426   5.649 -0.5426  0.6029 -0.0143
   44CHL1   H4A 4368   3.032   2.533   5.677 -1.4757  0.4027  0.2278
   44CHL1   H4B 4369   3.154   2.402   5.676 -1.6729 -2.8633  1.8279
   44CHL1    C5 4370   3.018   2.381   5.508  0.9469 -0.5492  0.2224
   44CHL1    C6 4371   3.110   2.319   5.435 -0.1243 -0.1792 -0.0297
   44CHL1    H6 4372   3.209   2.304   5.479 -0.6275 -1.9543  0.5828
   44CHL1    C7 4373   3.090   2.262   5.299 -0.2137 -0.6228  0.1408
   44CHL1   H7A 4374   3.180   2.275   5.236  0.0481  1.1378  0.8250
   44CHL1   H7B 4375   3.088   2.151   5.290 -2.1684 -0.6843  0.8385
   44CHL1    C8 4376   2.972   2.331   5.234  0.1465 -1.3202 -0.3318
   44CHL1    H8 4377   3.007   2.433   5.209 -1.2945 -0.7346 -0.1102
   44CHL1   C14 4378   2.942   2.252   5.105 -0.0123 -0.1277  0.6049
   44CHL1   H14 4379   2.919   2.147   5.134  2.0089 -0.6667  0.3948
   44CHL1   C15 4380   3.057   2.232   5.006 -0.0921 -0.3602  0.6641
   44CHL1  H15A 4381   3.120   2.322   4.992  1.8475 -1.8605 -0.9188
   44CHL1  H15B 4382   3.128   2.154   5.042  0.5477 -0.6071 -1.0396
   44CHL1   C16 4383   2.989   2.196   4.868  0.7378  0.6200 -0.3182
   44CHL1  H16A 4384   3.034   2.251   4.782  2.0731 -0.0506 -0.0613
   44CHL1  H16B 4385   3.009   2.091   4.837  0.2227  0.9578 -1.9275
   44CHL1   C17 4386   2.837   2.224   4.897 -0.0941 -0.5890 -0.3519
   44CHL1   H17 4387   2.796   2.127   4.931 -0.1759  0.4297  2.7756
   44CHL1   C13 4388   2.825   2.310   5.024  0.8247 -0.7461 -0.3170
   44CHL1   C18 4389   2.837   2.456   4.985 -0.4223  0.1171 -0.2026
   44CHL1  H18A 4390   2.922   2.463   4.914  1.4374  0.6707  1.9780
   44CHL1  H18B 4391   2.743   2.492   4.937  0.8183  1.6139 -1.6598
   44CHL1  H18C 4392   2.860   2.516   5.076 -0.9631  0.2378 -0.1434
   44CHL1   C12 4393   2.696   2.290   5.114 -0.0591 -0.1217 -0.7007
   44CHL1  H12A 4394   2.605   2.329   5.063  0.2456  1.2573 -0.2132
   44CHL1  H12B 4395   2.685   2.183   5.141  0.0564  0.5246  2.2390
   44CHL1   C11 4396   2.714   2.374   5.244  0.6082  0.3561  0.7091
   44CHL1  H11A 4397   2.722   2.478   5.206 -1.6487 -0.5183 -2.6190
   44CHL1  H11B 4398   2.624   2.358   5.307 -1.0428  0.1757 -1.5543
   44CHL1    C9 4399   2.841   2.330   5.325 -0.1859 -0.5325  0.2421
   44CHL1    H9 4400   2.832   2.221   5.344  1.6593 -0.7410  0.1447
   44CHL1   C10 4401   2.862   2.395   5.464 -0.0295  0.1284  0.7994
   44CHL1   C19 4402   2.836   2.546   5.453 -0.6252 -0.7470  0.4216
   44CHL1  H19A 4403   2.887   2.581   5.360 -0.1689 -1.0814  0.5425
   44CHL1  H19B 4404   2.727   2.562   5.446 -0.5076  0.0844  0.4495
   44CHL1  H19C 4405   2.876   2.603   5.539  2.2777 -1.4159 -0.3654
   44CHL1    C1 4406   2.773   2.338   5.572  0.1631  0.9445  0.3542
   44CHL1   H1A 4407   2.665   2.363   5.560 -0.7675 -2.1619  1.1798
   44CHL1   H1B 4408   2.786   2.227   5.570  0.9668  1.0115  1.2572
   44CHL1    C2 4409   2.820   2.355   5.721  0.2778 -0.2576 -0.3159
   44CHL1   H2A 4410   2.764   2.275   5.774 -0.5655 -0.0843 -0.9361
   44CHL1   H2B 4411   2.787   2.456   5.755 -1.8529 -0.9097 -0.3501
   44CHL1   C20 4412   2.753   2.259   4.778 -0.3368  0.0991  0.7469
   44CHL1   H20 4413   2.699   2.354   4.801  1.2364  0.6959  2.2138
   44CHL1   C21 4414   2.653   2.151   4.760 -1.1655  0.0888 -0.1320
   44CHL1  H21A 4415   2.701   2.051   4.752 -3.1019 -1.0763  1.7245
   44CHL1  H21B 4416   2.580   2.164   4.678  0.5836 -2.0178 -2.1407
   44CHL1  H21C 4417   2.597   2.135   4.855 -3.5548  1.1850 -1.2619
   44CHL1   C22 4418   2.814   2.298   4.643  0.2528 -0.2720 -0.4562
   44CHL1  H22A 4419   2.885   2.378   4.670  0.2045 -0.8539  1.5476
   44CHL1  H22B 4420   2.860   2.204   4.604  0.9958  0.3818 -1.1689
   44CHL1   C23 4421   2.721   2.357   4.540  0.1207  0.1742 -0.0139
   44CHL1  H23A 4422   2.619   2.317   4.519 -0.0639  1.5927 -2.1368
   44CHL1  H23B 4423   2.698   2.462   4.569  1.3252  0.1881  0.9901
   44CHL1   C24 4424   2.771   2.371   4.394 -1.0457 -0.0072 -0.5301
   44CHL1  H24A 4425   2.844   2.454   4.390  0.1527 -1.0056 -0.1962
   44CHL1  H24B 4426   2.823   2.276   4.366 -0.7476  0.0840 -0.2932
   44CHL1   C25 4427   2.664   2.380   4.288 -0.2197  0.9088  0.1015
   44CHL1   H25 4428   2.611   2.283   4.288  1.3832 -0.0506 -1.6581
   44CHL1   C26 4429   2.560   2.495   4.325  0.8134  0.1321  0.7532
   44CHL1  H26A 4430   2.467   2.513   4.268  0.5489  3.0614  1.9534
   44CHL1  H26B 4431   2.532   2.501   4.432 -0.9253 -0.7557  0.3783
   44CHL1  H26C 4432   2.627   2.582   4.305  2.0085 -0.9760 -0.2499
   44CHL1   C27 4433   2.729   2.406   4.155  0.5921  0.1173 -0.4720
   44CHL1  H27A 4434   2.809   2.334   4.129 -0.5928 -1.0694 -0.9639
   44CHL1  H27B 4435   2.648   2.398   4.079 -0.9763  0.6260  1.0832
   44CHL1  H27C 4436   2.756   2.513   4.155 -1.9123  0.8365  0.6220
   45CHL1    C3 4437   5.606   4.548   6.108  0.1684 -0.3037 -0.0454
   45CHL1    H3 4438   5.514   4.489   6.088  0.5860 -1.1014  0.3368
   45CHL1    O3 4439   5.635   4.547   6.247  0.4907 -0.6233  0.2273
   45CHL1   H3' 4440   5.581   4.616   6.284  1.4775  1.2341 -1.5970
   45CHL1    C4 4441   5.720   4.478   6.035 -0.4193 -0.2966  0.6838
   45CHL1   H4A 4442   5.812   4.533   6.063 -0.3462 -0.4853  0.8172
   45CHL1   H4B 4443   5.726   4.372   6.067  0.8459 -0.8923 -1.3479
   45CHL1    C5 4444   5.709   4.469   5.886  0.3784 -0.1535 -0.3234
   45CHL1    C6 4445   5.706   4.354   5.814  0.1743 -0.2859  0.3454
   45CHL1    H6 4446   5.732   4.263   5.871 -3.4684 -1.1576  0.9029
   45CHL1    C7 4447   5.684   4.347   5.665  0.4690 -0.3995  0.2720
   45CHL1   H7A 4448   5.745   4.267   5.618 -0.2445 -1.5718  1.2831
   45CHL1   H7B 4449   5.580   4.315   5.640  0.4270  0.0557 -0.1438
   45CHL1    C8 4450   5.718   4.484   5.593 -0.0076 -0.1673  0.7360
   45CHL1    H8 4451   5.827   4.504   5.606  0.6784 -0.5208 -3.1884
   45CHL1   C14 4452   5.682   4.482   5.449  0.2762  0.1875 -0.4713
   45CHL1   H14 4453   5.572   4.463   5.447  0.4824 -1.2685  0.1679
   45CHL1   C15 4454   5.740   4.369   5.371  0.1418 -0.6763  0.7542
   45CHL1  H15A 4455   5.844   4.351   5.404  0.7646  1.5255  0.1534
   45CHL1  H15B 4456   5.685   4.273   5.363  1.1127 -1.1527 -0.4757
   45CHL1   C16 4457   5.744   4.425   5.228  0.3059  0.3018 -0.3952
   45CHL1  H16A 4458   5.852   4.426   5.199  1.1927  0.8963  2.5393
   45CHL1  H16B 4459   5.682   4.370   5.155 -0.1132  0.3019 -0.0443
   45CHL1   C17 4460   5.691   4.572   5.230  0.0999  0.4304  0.3440
   45CHL1   H17 4461   5.581   4.563   5.216  0.1820 -0.8596  0.3602
   45CHL1   C13 4462   5.724   4.611   5.371 -0.4271  0.0592  0.3235
   45CHL1   C18 4463   5.875   4.639   5.382  0.2696 -0.3008  0.0070
   45CHL1  H18A 4464   5.950   4.575   5.331  0.0891 -0.4079 -0.1259
   45CHL1  H18B 4465   5.892   4.743   5.347  1.6606 -0.8680 -1.1055
   45CHL1  H18C 4466   5.912   4.641   5.487 -0.1302  1.7621  0.1328
   45CHL1   C12 4467   5.642   4.729   5.436  0.4041 -0.2896 -0.1127
   45CHL1  H12A 4468   5.668   4.828   5.392  1.4518 -0.5475 -0.1097
   45CHL1  H12B 4469   5.535   4.708   5.415  0.0105  1.3450  0.1167
   45CHL1   C11 4470   5.665   4.735   5.588 -0.3433 -0.3726  0.4453
   45CHL1  H11A 4471   5.770   4.769   5.600 -0.5183 -0.2050  1.6043
   45CHL1  H11B 4472   5.593   4.812   5.623 -1.0463 -0.3962 -0.8743
   45CHL1    C9 4473   5.642   4.602   5.667 -0.3664 -0.2370 -0.6747
   45CHL1    H9 4474   5.532   4.589   5.663 -0.5547  1.4873 -2.3277
   45CHL1   C10 4475   5.691   4.605   5.818 -0.6577 -0.2153 -0.4339
   45CHL1   C19 4476   5.831   4.677   5.822  0.2522 -0.3765 -0.3095
   45CHL1  H19A 4477   5.880   4.675   5.922  0.4574 -0.4877 -0.4106
   45CHL1  H19B 4478   5.906   4.653   5.743 -0.9577  0.8383 -1.8917
   45CHL1  H19C 4479   5.815   4.786   5.820  3.2808  0.1730  0.1651
   45CHL1    C1 4480   5.582   4.683   5.890  0.6326  0.2386  0.0054
   45CHL1   H1A 4481   5.562   4.788   5.857  0.3566  0.8840  2.0610
   45CHL1   H1B 4482   5.487   4.630   5.872 -0.4247  1.0804  2.5999
   45CHL1    C2 4483   5.600   4.694   6.043 -0.0752 -0.0142 -0.0308
   45CHL1   H2A 4484   5.516   4.744   6.095 -1.5962 -0.3711 -2.0518
   45CHL1   H2B 4485   5.695   4.746   6.068  0.3436 -0.5708 -0.4266
   45CHL1   C20 4486   5.761   4.643   5.114 -0.1934 -0.2917 -0.0841
   45CHL1   H20 4487   5.872   4.645   5.124 -0.0355 -0.5716 -1.5439
   45CHL1   C21 4488   5.701   4.782   5.114 -0.2332  0.3814  0.2219
   45CHL1  H21A 4489   5.727   4.834   5.208  0.4393 -1.8476  1.3427
   45CHL1  H21B 4490   5.589   4.780   5.113 -0.2380  0.0382  1.0195
   45CHL1  H21C 4491   5.742   4.838   5.028  0.3195  2.9842  2.0759
   45CHL1   C22 4492   5.744   4.572   4.980  0.2870 -0.1098 -0.3068
   45CHL1  H22A 4493   5.794   4.473   4.985 -2.1236 -1.3693  0.4112
   45CHL1  H22B 4494   5.635   4.548   4.976  0.3766 -0.6946  0.5073
   45CHL1   C23 4495   5.797   4.638   4.851 -0.4220 -0.8496  0.0331
   45CHL1  H23A 4496   5.876   4.709   4.881 -1.1723  0.0270 -0.0147
   45CHL1  H23B 4497   5.854   4.565   4.789  1.0175  0.0549  0.2505
   45CHL1   C24 4498   5.684   4.718   4.766 -0.7064 -0.2005 -0.1783
   45CHL1  H24A 4499   5.597   4.659   4.730 -0.4632 -0.4401 -0.3695
   45CHL1  H24B 4500   5.644   4.799   4.832  0.9740  0.7765 -0.2908
   45CHL1   C25 4501   5.746   4.796   4.647 -0.3181 -0.3400 -0.5158
   45CHL1   H25 4502   5.843   4.839   4.680  0.7983 -0.4369 -3.3743
   45CHL1   C26 4503   5.771   4.710   4.520 -0.9330  0.3706  0.5564
   45CHL1  H26A 4504   5.675   4.677   4.474 -1.3043 -0.0736  1.6219
   45CHL1  H26B 4505   5.822   4.775   4.445 -0.5071  0.9818  1.3669
   45CHL1  H26C 4506   5.824   4.615   4.543 -0.1330  0.4666 -0.7650
   45CHL1   C27 4507   5.649   4.913   4.618 -0.0908  0.2814 -0.4417
   45CHL1  H27A 4508   5.684   4.984   4.540  1.5249  1.1566  1.0128
   45CHL1  H27B 4509   5.550   4.870   4.590 -0.8773  0.5220  1.7834
   45CHL1  H27C 4510   5.639   4.963   4.716  1.7089  0.6019 -0.3932
   46CHL1    C3 4511   0.432   5.547   5.836  0.5948 -0.3798 -0.0914
   46CHL1    H3 4512   0.470   5.651   5.848  0.2995 -0.3356  0.4680
   46CHL1    O3 4513   0.409   5.507   5.965  0.2199  0.1794  0.3151
   46CHL1   H3' 4514   0.339   5.563   5.999  1.3547  1.5501  0.4562
   46CHL1    C4 4515   0.292   5.550   5.760 -0.0641  0.5138 -0.5015
   46CHL1   H4A 4516   0.262   5.443   5.773  1.7809 -0.3353 -2.5423
   46CHL1   H4B 4517   0.215   5.609   5.815  2.2183  1.1530  2.2083
   46CHL1    C5 4518   0.307   5.579   5.614 -0.9441 -0.2336 -0.0167
   46CHL1    C6 4519   0.240   5.678   5.546  0.0302  1.0624 -0.3270
   46CHL1    H6 4520   0.160   5.732   5.597 -0.1121  1.0019 -0.4854
   46CHL1    C7 4521   0.253   5.703   5.397 -0.0937  0.0134 -0.5286
   46CHL1   H7A 4522   0.155   5.735   5.357 -0.3937  4.3454  2.8886
   46CHL1   H7B 4523   0.321   5.786   5.371  0.6181 -0.6090 -0.7040
   46CHL1    C8 4524   0.318   5.579   5.327 -0.0188 -0.1675 -0.4313
   46CHL1    H8 4525   0.243   5.498   5.332 -1.5352  1.0949 -1.4455
   46CHL1   C14 4526   0.340   5.615   5.188 -0.3583 -0.2101  1.1135
   46CHL1   H14 4527   0.425   5.686   5.185  2.3819 -3.1918  2.6136
   46CHL1   C15 4528   0.232   5.686   5.109  0.3411 -0.3650  0.1372
   46CHL1  H15A 4529   0.128   5.647   5.117 -0.5264  1.2210 -2.1169
   46CHL1  H15B 4530   0.217   5.794   5.132 -0.6470 -0.8474  2.0006
   46CHL1   C16 4531   0.282   5.668   4.958  0.1605  0.2854  0.0791
   46CHL1  H16A 4532   0.212   5.615   4.890  2.1940  0.2520 -2.1111
   46CHL1  H16B 4533   0.306   5.765   4.908  2.3065 -0.5387 -0.6028
   46CHL1   C17 4534   0.406   5.579   4.954  0.0370  0.3964 -0.0637
   46CHL1   H17 4535   0.496   5.643   4.960  2.2099 -2.3919 -0.9156
   46CHL1   C13 4536   0.400   5.510   5.094 -0.2746  0.3829  0.0868
   46CHL1   C18 4537   0.309   5.388   5.085 -0.7388 -0.2481 -0.3320
   46CHL1  H18A 4538   0.356   5.300   5.036 -1.4645 -1.2610  0.7619
   46CHL1  H18B 4539   0.263   5.357   5.181 -2.6343  2.2901 -0.3086
   46CHL1  H18C 4540   0.220   5.412   5.022 -1.2351 -0.4278  0.2941
   46CHL1   C12 4541   0.541   5.477   5.158 -0.7643 -0.6274  0.2226
   46CHL1  H12A 4542   0.596   5.398   5.103 -2.6549 -0.5961 -1.8435
   46CHL1  H12B 4543   0.605   5.568   5.154  0.5741 -1.5279  0.6355
   46CHL1   C11 4544   0.531   5.440   5.305 -0.1266 -0.0021 -0.0573
   46CHL1  H11A 4545   0.486   5.339   5.287  0.5198 -0.1048 -1.1991
   46CHL1  H11B 4546   0.633   5.423   5.347  1.0286 -0.2061 -2.7504
   46CHL1    C9 4547   0.448   5.535   5.395  0.4748 -0.2843 -0.4892
   46CHL1    H9 4548   0.503   5.631   5.406 -1.5033  0.8548  0.0441
   46CHL1   C10 4549   0.417   5.489   5.541  0.1341  0.2693  0.4165
   46CHL1   C19 4550   0.356   5.343   5.525  0.4227  0.3135  0.2738
   46CHL1  H19A 4551   0.425   5.268   5.482  1.2419  0.5333  1.1666
   46CHL1  H19B 4552   0.339   5.295   5.623  1.5340  0.8203  0.7400
   46CHL1  H19C 4553   0.265   5.332   5.462  1.0309 -1.2841 -0.3636
   46CHL1    C1 4554   0.549   5.481   5.617  0.4076 -0.5244  0.1681
   46CHL1   H1A 4555   0.617   5.409   5.567  0.1562 -0.7661  0.1693
   46CHL1   H1B 4556   0.581   5.587   5.617 -0.8407 -0.1348  0.2774
   46CHL1    C2 4557   0.538   5.451   5.772  0.4325  0.8996 -0.6249
   46CHL1   H2A 4558   0.635   5.487   5.812 -1.0598  0.3398  4.0381
   46CHL1   H2B 4559   0.535   5.340   5.780  2.2413  0.6776 -2.2378
   46CHL1   C20 4560   0.422   5.491   4.825  0.8735  0.2096 -0.2696
   46CHL1   H20 4561   0.342   5.413   4.824  0.7318  0.3263 -2.4649
   46CHL1   C21 4562   0.549   5.415   4.823 -0.3705  0.1939 -0.1764
   46CHL1  H21A 4563   0.546   5.337   4.902 -0.2001 -0.4350 -0.7868
   46CHL1  H21B 4564   0.638   5.477   4.851  0.2174 -1.1742  1.1224
   46CHL1  H21C 4565   0.557   5.363   4.725 -1.4072  0.2268 -0.2898
   46CHL1   C22 4566   0.415   5.577   4.699  0.8698  0.5743 -0.7317
   46CHL1  H22A 4567   0.331   5.649   4.695  0.9101  0.8578  1.9582
   46CHL1  H22B 4568   0.504   5.643   4.702  1.4773 -0.1475 -1.8586
   46CHL1   C23 4569   0.423   5.500   4.561  0.1361  0.0374 -0.2197
   46CHL1  H23A 4570   0.524   5.453   4.557 -1.0731 -2.6853 -2.4711
   46CHL1  H23B 4571   0.346   5.421   4.551  1.2474 -0.7895 -3.6232
   46CHL1   C24 4572   0.413   5.595   4.439  0.3047  0.1865 -0.2954
   46CHL1  H24A 4573   0.306   5.624   4.432  0.4151  0.4396 -1.0659
   46CHL1  H24B 4574   0.472   5.685   4.466  0.2810 -0.0360  0.5166
   46CHL1   C25 4575   0.456   5.531   4.301  0.0681 -0.3403  0.4084
   46CHL1   H25 4576   0.560   5.498   4.321  0.0992  0.5405  1.8006
   46CHL1   C26 4577   0.377   5.409   4.257  0.0196 -0.3334 -0.4164
   46CHL1  H26A 4578   0.383   5.318   4.321 -2.0183 -1.6151 -1.8925
   46CHL1  H26B 4579   0.268   5.431   4.253 -0.2675 -1.3576  1.1687
   46CHL1  H26C 4580   0.411   5.377   4.156 -1.4016 -1.2278 -0.6324
   46CHL1   C27 4581   0.460   5.638   4.191 -0.4760  0.0966  0.2946
   46CHL1  H27A 4582   0.497   5.587   4.100  1.5604 -0.6655  1.4856
   46CHL1  H27B 4583   0.357   5.680   4.180 -0.3563  0.4115  0.3635
   46CHL1  H27C 4584   0.520   5.725   4.225 -1.7833  0.8203  0.8270
   47CHL1    C3 4585   6.646   0.086   5.810  0.4327 -0.0719 -0.0975
   47CHL1    H3 4586   6.672   0.168   5.740  0.3003 -0.9748 -1.2397
   47CHL1    O3 4587   6.643   0.127   5.942  0.1470 -0.4204 -0.2243
   47CHL1   H3' 4588   6.647   0.052   6.002  1.8121 -0.1071  0.0933
   47CHL1    C4 4589   6.500   0.044   5.772  0.2135 -0.0098 -0.5165
   47CHL1   H4A 4590   6.471  -0.035   5.845  0.5912 -0.3775 -0.7533
   47CHL1   H4B 4591   6.427   0.125   5.790  2.0805  1.6244 -0.0385
   47CHL1    C5 4592   6.496   0.004   5.626 -0.2226 -0.3281  0.1064
   47CHL1    C6 4593   6.410   0.059   5.535  0.3320 -0.5017  0.6255
   47CHL1    H6 4594   6.336   0.134   5.568 -0.4337 -1.1901  0.5061
   47CHL1    C7 4595   6.387   0.007   5.393  0.1139  0.4109  0.5697
   47CHL1   H7A 4596   6.279  -0.003   5.371  0.3386  1.6277 -1.3373
   47CHL1   H7B 4597   6.425   0.089   5.328 -0.3671  0.3299  0.1884
   47CHL1    C8 4598   6.467  -0.120   5.368  0.4240 -0.8608  0.5317
   47CHL1    H8 4599   6.412  -0.213   5.393  0.0226 -0.4324  1.2886
   47CHL1   C14 4600   6.496  -0.119   5.215  0.2050 -0.4691 -0.6028
   47CHL1   H14 4601   6.574  -0.041   5.204  0.6552 -0.6102  1.2326
   47CHL1   C15 4602   6.385  -0.101   5.112  0.3053  0.0919 -0.3557
   47CHL1  H15A 4603   6.295  -0.155   5.145  0.4842  0.0802  0.1193
   47CHL1  H15B 4604   6.343   0.002   5.106 -2.8909 -1.0719  0.0457
   47CHL1   C16 4605   6.437  -0.153   4.977  0.5874  0.0039  0.0785
   47CHL1  H16A 4606   6.363  -0.229   4.944 -0.9387  0.7828  1.5401
   47CHL1  H16B 4607   6.453  -0.075   4.900  1.6852 -0.9268 -0.6647
   47CHL1   C17 4608   6.574  -0.219   5.016  0.4238 -0.4719  0.5136
   47CHL1   H17 4609   6.637  -0.129   5.002 -0.4794  0.0722 -0.1176
   47CHL1   C13 4610   6.573  -0.237   5.165 -0.1534  0.2443  0.5735
   47CHL1   C18 4611   6.498  -0.365   5.189 -0.6333 -0.1442  0.3261
   47CHL1  H18A 4612   6.481  -0.390   5.296  1.1661  0.0631  0.6928
   47CHL1  H18B 4613   6.401  -0.362   5.135  0.6232  0.5896 -2.0166
   47CHL1  H18C 4614   6.555  -0.450   5.145 -0.1691  0.7452 -0.8370
   47CHL1   C12 4615   6.702  -0.245   5.243  0.3934 -0.1646 -0.4753
   47CHL1  H12A 4616   6.756  -0.338   5.215  0.9641 -0.8419  2.4400
   47CHL1  H12B 4617   6.762  -0.153   5.236  1.9051 -1.0405  0.3464
   47CHL1   C11 4618   6.688  -0.247   5.397  0.5505 -0.1138 -0.3074
   47CHL1  H11A 4619   6.642  -0.342   5.432 -1.7672  0.7278 -0.8770
   47CHL1  H11B 4620   6.791  -0.237   5.437  2.1795  0.8125 -4.2095
   47CHL1    C9 4621   6.603  -0.121   5.444 -0.0546  0.2898  0.3135
   47CHL1    H9 4622   6.659  -0.030   5.413  0.5499  1.1002  3.4101
   47CHL1   C10 4623   6.595  -0.114   5.596  0.4201 -0.1213 -0.6032
   47CHL1   C19 4624   6.539  -0.239   5.659 -0.2049 -0.0988  0.2707
   47CHL1  H19A 4625   6.613  -0.319   5.642  0.4289  0.6785 -0.7335
   47CHL1  H19B 4626   6.510  -0.225   5.766  0.4212  1.2133  0.2931
   47CHL1  H19C 4627   6.450  -0.268   5.599  1.2118 -0.7160 -1.6347
   47CHL1    C1 4628   6.742  -0.101   5.655  0.6710 -0.6624 -0.6582
   47CHL1   H1A 4629   6.795  -0.198   5.663  1.6691  0.0104  1.8810
   47CHL1   H1B 4630   6.803  -0.033   5.590 -1.1558 -0.0723 -1.8271
   47CHL1    C2 4631   6.735  -0.037   5.792  0.8017  0.8854 -0.0542
   47CHL1   H2A 4632   6.837  -0.001   5.819  1.6651 -1.3181 -0.1658
   47CHL1   H2B 4633   6.705  -0.119   5.861  0.9999 -0.0489 -1.0560
   47CHL1   C20 4634   6.622  -0.315   4.910 -0.4033  0.4321  1.0328
   47CHL1   H20 4635   6.562  -0.408   4.903  0.8308 -0.3309  0.1882
   47CHL1   C21 4636   6.761  -0.364   4.948 -0.2888  0.3764  0.0126
   47CHL1  H21A 4637   6.816  -0.285   5.003  2.5850 -0.8201 -0.9526
   47CHL1  H21B 4638   6.817  -0.394   4.856 -2.2501  0.6338 -1.3233
   47CHL1  H21C 4639   6.761  -0.454   5.014  0.8359 -0.6388 -1.3052
   47CHL1   C22 4640   6.633  -0.250   4.764 -0.0907  0.4463 -0.8383
   47CHL1  H22A 4641   6.539  -0.200   4.734 -0.2556 -0.4885 -1.9281
   47CHL1  H22B 4642   6.724  -0.185   4.767  1.5257 -1.7257 -0.7518
   47CHL1   C23 4643   6.658  -0.351   4.655 -0.3379  0.5701  0.2426
   47CHL1  H23A 4644   6.722  -0.307   4.576 -1.5159  1.3952 -0.2604
   47CHL1  H23B 4645   6.692  -0.444   4.707 -1.5009  1.9179  3.7260
   47CHL1   C24 4646   6.530  -0.382   4.582  0.2765 -0.5868  0.0592
   47CHL1  H24A 4647   6.460  -0.437   4.649 -0.3703  3.0127  2.6431
   47CHL1  H24B 4648   6.482  -0.294   4.534 -0.5510 -0.1670  1.5911
   47CHL1   C25 4649   6.550  -0.475   4.458 -0.1115  0.1763  0.5268
   47CHL1   H25 4650   6.612  -0.415   4.389 -0.3874 -0.5897 -0.4112
   47CHL1   C26 4651   6.623  -0.603   4.486 -0.8826 -0.8249  0.7916
   47CHL1  H26A 4652   6.632  -0.664   4.394 -0.2411 -0.5566  0.6723
   47CHL1  H26B 4653   6.728  -0.588   4.520 -0.5552 -1.8623  0.2640
   47CHL1  H26C 4654   6.575  -0.663   4.566 -1.4131  1.8502  2.6386
   47CHL1   C27 4655   6.425  -0.531   4.394 -0.3363 -1.6375 -0.0147
   47CHL1  H27A 4656   6.378  -0.591   4.475  2.2358 -2.3729  1.0212
   47CHL1  H27B 4657   6.354  -0.447   4.375  0.2372 -1.3084 -0.7487
   47CHL1  H27C 4658   6.426  -0.590   4.300 -0.8010  0.7814 -1.6504
   48CHL1    C3 4659   4.356   6.019   5.872 -0.6392  0.1533 -0.0727
   48CHL1    H3 4660   4.440   6.090   5.859  1.0448 -1.9601 -1.3421
   48CHL1    O3 4661   4.319   5.999   6.005  0.0023  0.8269  0.3840
   48CHL1   H3' 4662   4.393   5.954   6.046 -0.8749 -1.1990 -0.1056
   48CHL1    C4 4663   4.232   6.060   5.795 -0.8294  0.4365  0.0904
   48CHL1   H4A 4664   4.151   5.992   5.829  0.0072  0.4896  2.3522
   48CHL1   H4B 4665   4.206   6.161   5.832 -0.1367 -0.0452  1.9990
   48CHL1    C5 4666   4.252   6.053   5.645  0.5918 -0.5785  0.0918
   48CHL1    C6 4667   4.226   6.164   5.562  0.1115 -0.0029  0.2258
   48CHL1    H6 4668   4.194   6.259   5.607 -0.0075 -0.8101  1.8921
   48CHL1    C7 4669   4.238   6.159   5.411  0.0549 -0.1036 -0.1552
   48CHL1   H7A 4670   4.154   6.210   5.359  0.0741  0.4550  0.3466
   48CHL1   H7B 4671   4.331   6.216   5.391  0.6836  0.5781  3.7501
   48CHL1    C8 4672   4.243   6.016   5.351  0.2386  0.3764  0.2697
   48CHL1    H8 4673   4.138   5.980   5.356  0.9152 -1.5703  1.6489
   48CHL1   C14 4674   4.288   6.019   5.209 -0.7545 -0.5422  0.2282
   48CHL1   H14 4675   4.381   6.079   5.198 -2.3122  1.6329 -2.5163
   48CHL1   C15 4676   4.198   6.103   5.121 -0.4659 -0.0431  0.0068
   48CHL1  H15A 4677   4.093   6.084   5.149 -0.7434 -0.0365 -0.9847
   48CHL1  H15B 4678   4.222   6.212   5.117 -1.1097  0.1008 -3.6092
   48CHL1   C16 4679   4.228   6.052   4.984  0.0015  0.2701 -0.0340
   48CHL1  H16A 4680   4.135   6.027   4.927  1.7669 -0.7246 -2.6965
   48CHL1  H16B 4681   4.289   6.126   4.928 -1.9657  0.6361 -1.8612
   48CHL1   C17 4682   4.320   5.930   5.003 -0.3157  0.0159 -0.2616
   48CHL1   H17 4683   4.423   5.971   5.005 -0.9842  1.7345  0.5362
   48CHL1   C13 4684   4.302   5.880   5.146  0.8156  0.0442  0.1940
   48CHL1   C18 4685   4.173   5.791   5.160  0.7078  0.0679 -0.6873
   48CHL1  H18A 4686   4.076   5.830   5.121 -0.5654 -2.1799  0.0679
   48CHL1  H18B 4687   4.199   5.691   5.120  0.2506  0.4280 -1.9617
   48CHL1  H18C 4688   4.149   5.766   5.266 -2.2860 -1.2833 -1.5528
   48CHL1   C12 4689   4.421   5.815   5.218 -0.4234 -0.5663 -0.2404
   48CHL1  H12A 4690   4.449   5.714   5.181  2.7017  0.0969  0.0272
   48CHL1  H12B 4691   4.513   5.877   5.209 -0.1618 -0.4322  2.5805
   48CHL1   C11 4692   4.393   5.801   5.364  0.5841  0.3453 -0.2504
   48CHL1  H11A 4693   4.311   5.727   5.377 -1.1787  1.6175 -3.0520
   48CHL1  H11B 4694   4.473   5.770   5.433 -0.3037  2.1107  1.7085
   48CHL1    C9 4695   4.343   5.935   5.433 -0.2540 -0.0982  1.1691
   48CHL1    H9 4696   4.436   5.995   5.440  1.8914 -2.9412 -1.0003
   48CHL1   C10 4697   4.308   5.925   5.588  0.7798  0.4226 -0.3178
   48CHL1   C19 4698   4.192   5.828   5.598 -0.2579  0.1094  0.1222
   48CHL1  H19A 4699   4.236   5.730   5.567 -0.5309  0.4431 -1.4100
   48CHL1  H19B 4700   4.145   5.816   5.698 -2.8355  0.8672 -0.9172
   48CHL1  H19C 4701   4.112   5.850   5.524 -1.4473  0.8914  1.5864
   48CHL1    C1 4702   4.430   5.889   5.671 -0.4902 -0.3509 -0.0535
   48CHL1   H1A 4703   4.461   5.788   5.635  1.0669  0.2466 -0.4739
   48CHL1   H1B 4704   4.513   5.959   5.648 -1.1819 -0.3245 -2.7746
   48CHL1    C2 4705   4.412   5.885   5.827  0.7342 -0.1843  0.1533
   48CHL1   H2A 4706   4.512   5.880   5.875  0.4525  1.2275  0.9314
   48CHL1   H2B 4707   4.350   5.800   5.864 -0.7758  0.7663 -0.0930
   48CHL1   C20 4708   4.294   5.826   4.892  0.6482  0.9887  0.2177
   48CHL1   H20 4709   4.187   5.796   4.898  1.1080 -0.8945 -0.1332
   48CHL1   C21 4710   4.389   5.701   4.905  0.3489 -0.0075 -0.5772
   48CHL1  H21A 4711   4.489   5.742   4.932 -0.5266  1.1145  1.2035
   48CHL1  H21B 4712   4.365   5.635   4.991  2.5297  2.0149  1.7623
   48CHL1  H21C 4713   4.386   5.644   4.810 -2.2969 -1.3803  0.2331
   48CHL1   C22 4714   4.306   5.883   4.744 -0.2375  0.2640  0.7294
   48CHL1  H22A 4715   4.300   5.794   4.678 -2.7465 -0.4191  1.7453
   48CHL1  H22B 4716   4.212   5.937   4.720 -0.1404  0.2073  0.2063
   48CHL1   C23 4717   4.440   5.958   4.722  0.5621 -0.6940  0.1639
   48CHL1  H23A 4718   4.445   6.043   4.793 -1.8599  0.8736 -1.3639
   48CHL1  H23B 4719   4.530   5.894   4.730 -0.3311 -2.0083 -0.0788
   48CHL1   C24 4720   4.428   6.022   4.583  0.0209  0.3191 -0.4001
   48CHL1  H24A 4721   4.398   5.950   4.504 -0.8565 -0.2034  0.3893
   48CHL1  H24B 4722   4.340   6.088   4.598 -0.5491 -0.2069 -1.3357
   48CHL1   C25 4723   4.547   6.110   4.538  0.0690 -0.3467 -0.2194
   48CHL1   H25 4724   4.555   6.190   4.615  1.4654  0.3082 -1.0105
   48CHL1   C26 4725   4.691   6.046   4.529 -0.2676  0.0326 -0.0732
   48CHL1  H26A 4726   4.765   6.116   4.485  1.5303 -0.5650  1.8286
   48CHL1  H26B 4727   4.729   6.007   4.627 -1.8358 -1.3156  0.0397
   48CHL1  H26C 4728   4.686   5.961   4.458 -0.1949  1.1745 -1.4899
   48CHL1   C27 4729   4.528   6.184   4.404  0.3038  0.7797 -0.2449
   48CHL1  H27A 4730   4.615   6.248   4.382  0.3750  1.1742  1.0752
   48CHL1  H27B 4731   4.518   6.107   4.325 -0.3143 -1.3251  1.7611
   48CHL1  H27C 4732   4.439   6.251   4.402 -0.6230 -0.3584  0.8385
   49CHL1    C3 4733   5.650   2.958   3.135  0.0984 -0.0229 -0.3070
   49CHL1    H3 4734   5.745   2.925   3.182  0.7338  0.6911 -1.0293
   49CHL1    O3 4735   5.667   2.916   3.003 -0.1848  0.4116 -0.6692
   49CHL1   H3' 4736   5.589   2.866   2.979 -0.6956  0.5879  0.5691
   49CHL1    C4 4737   5.529   2.886   3.189 -0.1135 -0.1639  0.1231
   49CHL1   H4A 4738   5.446   2.917   3.123  0.7768  0.3948 -0.7631
   49CHL1   H4B 4739   5.536   2.779   3.161  1.2047 -0.2535  0.7298
   49CHL1    C5 4740   5.501   2.918   3.338  0.1161  0.2133  0.2300
   49CHL1    C6 4741   5.497   2.814   3.421  0.1473 -0.1026  0.2692
   49CHL1    H6 4742   5.514   2.715   3.375  0.4560  1.0515 -2.3170
   49CHL1    C7 4743   5.479   2.836   3.565  0.5202  0.1265  0.2161
   49CHL1   H7A 4744   5.388   2.778   3.592 -0.8319  1.5230 -1.1072
   49CHL1   H7B 4745   5.558   2.800   3.633  1.1631 -0.3703 -0.7644
   49CHL1    C8 4746   5.431   2.984   3.599 -0.0301 -0.6126 -0.6235
   49CHL1    H8 4747   5.324   3.000   3.574 -1.0140  0.6587  3.5468
   49CHL1   C14 4748   5.454   3.018   3.750 -0.1870 -0.0653 -0.7682
   49CHL1   H14 4749   5.565   3.021   3.754 -0.2103  0.8551 -0.5658
   49CHL1   C15 4750   5.406   2.916   3.860  1.0060  0.0855 -0.4420
   49CHL1  H15A 4751   5.306   2.884   3.826  1.7579 -2.0070 -0.8237
   49CHL1  H15B 4752   5.474   2.830   3.873 -0.0954 -0.7927 -0.3985
   49CHL1   C16 4753   5.387   3.004   3.984  0.5738 -0.3817 -0.7866
   49CHL1  H16A 4754   5.280   3.006   4.013  0.9469  2.3208  0.6891
   49CHL1  H16B 4755   5.451   2.967   4.067 -1.5208  0.7511  1.4519
   49CHL1   C17 4756   5.446   3.142   3.948  0.3400  0.0802 -0.6157
   49CHL1   H17 4757   5.557   3.140   3.952  0.3554  0.6495 -0.6625
   49CHL1   C13 4758   5.413   3.152   3.794  0.0972 -0.7791  0.2636
   49CHL1   C18 4759   5.259   3.177   3.766 -0.6839 -0.2588  0.0950
   49CHL1  H18A 4760   5.183   3.113   3.816 -0.6192 -0.2900  0.1522
   49CHL1  H18B 4761   5.250   3.285   3.792 -0.3602  0.2910 -1.9065
   49CHL1  H18C 4762   5.238   3.174   3.657  1.9163  3.0836 -0.6772
   49CHL1   C12 4763   5.505   3.254   3.721  0.6158  0.1689  0.2759
   49CHL1  H12A 4764   5.470   3.359   3.733  1.6262  0.7871 -1.7719
   49CHL1  H12B 4765   5.612   3.236   3.743  0.6523  0.5558  0.4230
   49CHL1   C11 4766   5.482   3.234   3.573  0.6792  0.6362  0.4170
   49CHL1  H11A 4767   5.378   3.261   3.547  0.7341 -0.6897 -1.3707
   49CHL1  H11B 4768   5.557   3.305   3.530  0.8757  0.6511  0.7825
   49CHL1    C9 4769   5.511   3.086   3.519 -0.3065 -0.0013  0.1174
   49CHL1    H9 4770   5.616   3.060   3.546 -0.1652 -0.2373 -0.6471
   49CHL1   C10 4771   5.497   3.067   3.370 -0.2764  0.2247 -0.0883
   49CHL1   C19 4772   5.363   3.116   3.316 -0.3254  0.0858 -0.9620
   49CHL1  H19A 4773   5.284   3.072   3.380  0.0357  1.6380  0.6321
   49CHL1  H19B 4774   5.368   3.226   3.332  0.8249 -0.0952  0.0708
   49CHL1  H19C 4775   5.346   3.107   3.206 -1.3045 -0.4547 -0.7760
   49CHL1    C1 4776   5.611   3.143   3.294  0.6383  0.0697  0.2034
   49CHL1   H1A 4777   5.594   3.253   3.299  0.7256  0.0717  0.4616
   49CHL1   H1B 4778   5.704   3.129   3.354  0.7115 -2.5064 -0.4177
   49CHL1    C2 4779   5.636   3.106   3.147  1.3901  0.1091 -0.0604
   49CHL1   H2A 4780   5.721   3.169   3.113 -0.0418  3.2143  1.6547
   49CHL1   H2B 4781   5.551   3.133   3.080  0.1926  0.2019  1.4424
   49CHL1   C20 4782   5.401   3.266   4.029  0.0585  0.3282 -0.0601
   49CHL1   H20 4783   5.366   3.344   3.958 -3.5113 -0.6443  0.4263
   49CHL1   C21 4784   5.519   3.315   4.109 -0.0063  0.2127 -0.2295
   49CHL1  H21A 4785   5.490   3.405   4.167 -0.2505  0.0448 -0.0851
   49CHL1  H21B 4786   5.600   3.352   4.043 -0.5114  2.1629  0.1841
   49CHL1  H21C 4787   5.549   3.240   4.186  0.1009 -1.0447 -1.4416
   49CHL1   C22 4788   5.283   3.241   4.124  0.3062 -0.8580  0.0168
   49CHL1  H22A 4789   5.198   3.204   4.062 -0.2393 -1.5684  1.1501
   49CHL1  H22B 4790   5.306   3.162   4.198  3.9217  0.9736  1.0602
   49CHL1   C23 4791   5.227   3.359   4.209 -0.6204 -0.1228  0.9400
   49CHL1  H23A 4792   5.306   3.402   4.273  0.2584  1.0068 -0.8365
   49CHL1  H23B 4793   5.196   3.437   4.137  0.5293  0.0831  0.6573
   49CHL1   C24 4794   5.117   3.321   4.305  0.4717  0.3279 -0.4180
   49CHL1  H24A 4795   5.024   3.314   4.246 -0.1766 -1.3643  0.7286
   49CHL1  H24B 4796   5.145   3.217   4.332  1.6864  0.2623 -1.7771
   49CHL1   C25 4797   5.101   3.422   4.422 -0.1776 -0.2025  0.2566
   49CHL1   H25 4798   5.202   3.429   4.468  0.2705  0.6910 -0.8143
   49CHL1   C26 4799   5.068   3.568   4.375 -0.1952  0.6725 -0.1013
   49CHL1  H26A 4800   5.053   3.632   4.465 -0.6039  0.2994  0.0970
   49CHL1  H26B 4801   5.153   3.609   4.316 -1.1264  3.2358  0.2228
   49CHL1  H26C 4802   4.980   3.567   4.307 -0.1641 -1.2146 -0.1435
   49CHL1   C27 4803   5.002   3.380   4.535  0.1506  0.3400  0.2343
   49CHL1  H27A 4804   4.905   3.341   4.497 -0.9141  1.2250  1.9411
   49CHL1  H27B 4805   5.042   3.301   4.603 -1.2637  1.7344  2.8265
   49CHL1  H27C 4806   4.989   3.466   4.604  2.1958  2.2835 -1.6386
   50CHL1    C3 4807   0.272   5.521   2.513  0.5095 -0.0249  0.2862
   50CHL1    H3 4808   0.359   5.588   2.531 -1.7509  3.4019 -0.4120
   50CHL1    O3 4809   0.231   5.556   2.380 -0.7273  0.3550 -0.1991
   50CHL1   H3' 4810   0.195   5.645   2.381  0.0882  0.6989 -0.6129
   50CHL1    C4 4811   0.307   5.373   2.528  0.3139 -0.4145  0.1009
   50CHL1   H4A 4812   0.223   5.302   2.510 -1.1298  1.2608 -0.0729
   50CHL1   H4B 4813   0.378   5.346   2.448 -0.7017  2.4202 -1.9181
   50CHL1    C5 4814   0.355   5.348   2.670  0.2246  0.5802  0.0953
   50CHL1    C6 4815   0.472   5.286   2.702 -0.3765 -0.5912 -0.9155
   50CHL1    H6 4816   0.537   5.252   2.620  0.6349 -1.1153  0.0809
   50CHL1    C7 4817   0.529   5.259   2.839 -0.4717 -0.9716  0.1591
   50CHL1   H7A 4818   0.562   5.155   2.819  1.7470 -0.1262 -0.9450
   50CHL1   H7B 4819   0.617   5.321   2.867 -1.8381  0.6637  0.9652
   50CHL1    C8 4820   0.422   5.272   2.947 -0.5514  0.6225 -0.6477
   50CHL1    H8 4821   0.357   5.181   2.953 -0.5868  0.7424  1.2643
   50CHL1   C14 4822   0.489   5.276   3.092  0.6059  0.8659  0.3008
   50CHL1   H14 4823   0.561   5.361   3.096  1.4899  0.0961  1.8121
   50CHL1   C15 4824   0.577   5.157   3.138 -0.3351 -0.7212  0.7406
   50CHL1  H15A 4825   0.524   5.062   3.114 -0.6467 -0.4079  0.1776
   50CHL1  H15B 4826   0.670   5.155   3.078  1.1895 -2.4947  2.9540
   50CHL1   C16 4827   0.590   5.188   3.289 -0.2450  0.3847 -0.4660
   50CHL1  H16A 4828   0.583   5.095   3.350  0.5328 -0.5782 -1.7698
   50CHL1  H16B 4829   0.688   5.237   3.305 -0.7993  0.6759  2.6158
   50CHL1   C17 4830   0.480   5.297   3.324 -0.1979  0.1183  0.2624
   50CHL1   H17 4831   0.539   5.390   3.309  1.1013 -0.2568  2.5959
   50CHL1   C13 4832   0.390   5.306   3.202  0.4987  0.7601  0.1938
   50CHL1   C18 4833   0.288   5.191   3.218 -0.1069 -0.2342 -0.2335
   50CHL1  H18A 4834   0.202   5.230   3.276  1.4320  0.0225  1.9640
   50CHL1  H18B 4835   0.252   5.164   3.116 -1.1718  0.5607 -0.0848
   50CHL1  H18C 4836   0.333   5.102   3.266 -1.7435 -0.1526  1.5664
   50CHL1   C12 4837   0.313   5.434   3.180 -0.2029  0.0842  0.5732
   50CHL1  H12A 4838   0.229   5.440   3.253 -1.9024  1.4896 -1.3597
   50CHL1  H12B 4839   0.379   5.521   3.198 -1.0335  1.7999 -3.4914
   50CHL1   C11 4840   0.238   5.428   3.045 -0.8741 -0.2402  0.7015
   50CHL1  H11A 4841   0.158   5.350   3.045 -2.7814  1.6322 -0.1194
   50CHL1  H11B 4842   0.193   5.528   3.032  0.6678  1.1576  4.6422
   50CHL1    C9 4843   0.335   5.392   2.923 -0.0428  0.1334 -0.2483
   50CHL1    H9 4844   0.401   5.482   2.920 -1.4959  1.1936 -1.9673
   50CHL1   C10 4845   0.263   5.397   2.782 -0.1588 -0.2155  0.2505
   50CHL1   C19 4846   0.141   5.305   2.791  0.6386  0.1769 -0.2656
   50CHL1  H19A 4847   0.089   5.276   2.697 -0.7289 -1.1517  0.8560
   50CHL1  H19B 4848   0.170   5.219   2.854  1.9530  1.5561  1.1020
   50CHL1  H19C 4849   0.062   5.358   2.850  2.2808  2.1896  0.2386
   50CHL1    C1 4850   0.213   5.541   2.746  0.2313 -0.1715  0.2388
   50CHL1   H1A 4851   0.135   5.579   2.816  0.5191  1.6023 -0.3620
   50CHL1   H1B 4852   0.295   5.615   2.762 -0.5682  0.5445  1.1655
   50CHL1    C2 4853   0.160   5.565   2.603  1.0428  0.6379  0.8579
   50CHL1   H2A 4854   0.152   5.675   2.592  3.2169  0.8163  0.6997
   50CHL1   H2B 4855   0.063   5.517   2.577  2.6764 -2.2686 -0.3225
   50CHL1   C20 4856   0.426   5.298   3.466 -1.1733  0.0576  0.1247
   50CHL1   H20 4857   0.323   5.257   3.470 -1.6780  1.3100  0.3372
   50CHL1   C21 4858   0.423   5.448   3.497  0.4753  0.0812 -0.3214
   50CHL1  H21A 4859   0.519   5.498   3.523  1.0114 -0.1166 -1.8169
   50CHL1  H21B 4860   0.381   5.457   3.600  3.1325 -1.0359  0.9561
   50CHL1  H21C 4861   0.372   5.513   3.423  0.6623 -0.9253 -1.3579
   50CHL1   C22 4862   0.517   5.224   3.569 -0.7235  0.6131 -0.4607
   50CHL1  H22A 4863   0.554   5.123   3.541  1.3458  1.2240 -0.1005
   50CHL1  H22B 4864   0.606   5.279   3.607 -0.6747 -1.2184  2.4481
   50CHL1   C23 4865   0.449   5.176   3.698  0.0561 -0.9969 -0.5256
   50CHL1  H23A 4866   0.405   5.271   3.734  1.8493 -0.7089  1.0778
   50CHL1  H23B 4867   0.373   5.097   3.680  0.4810 -1.0755 -2.1638
   50CHL1   C24 4868   0.542   5.118   3.807 -0.4036 -0.5811  0.1246
   50CHL1  H24A 4869   0.602   5.038   3.760  0.1528  1.2086 -2.4149
   50CHL1  H24B 4870   0.612   5.197   3.843  2.3870 -2.0125 -1.7792
   50CHL1   C25 4871   0.462   5.048   3.917  0.3998 -0.8456  0.8306
   50CHL1   H25 4872   0.415   4.951   3.890 -0.6954 -1.0118  3.0895
   50CHL1   C26 4873   0.555   5.010   4.036  0.1570  0.6139 -0.0416
   50CHL1  H26A 4874   0.592   5.103   4.085 -3.2486  2.0530  0.1109
   50CHL1  H26B 4875   0.501   4.953   4.115 -2.1186  1.7302 -0.7108
   50CHL1  H26C 4876   0.631   4.941   3.996  1.3503  1.2384  1.0711
   50CHL1   C27 4877   0.340   5.137   3.980  0.1061 -0.4385  0.0018
   50CHL1  H27A 4878   0.277   5.178   3.899 -1.6510 -0.9356  1.0566
   50CHL1  H27B 4879   0.284   5.069   4.048 -0.2811  0.0212  0.1488
   50CHL1  H27C 4880   0.387   5.214   4.046  0.1777 -0.1168 -0.4215
   51CHL1    C3 4881   0.186   3.558   3.151 -0.4124 -0.7516 -0.2754
   51CHL1    H3 4882   0.120   3.620   3.216  0.4470  0.5852 -0.6343
   51CHL1    O3 4883   0.153   3.583   3.019 -0.4780  0.4701 -0.0648
   51CHL1   H3' 4884   0.228   3.557   2.965 -0.5352  0.6881 -0.2528
   51CHL1    C4 4885   0.330   3.599   3.168  0.0282  0.2586  0.0090
   51CHL1   H4A 4886   0.397   3.563   3.087 -1.0500 -1.2070 -0.2698
   51CHL1   H4B 4887   0.330   3.710   3.162 -0.6216  0.2626  0.0559
   51CHL1    C5 4888   0.369   3.563   3.307  0.1818  0.0221 -0.4157
   51CHL1    C6 4889   0.410   3.658   3.399 -0.4319  0.2607  0.6558
   51CHL1    H6 4890   0.422   3.760   3.360 -1.1521 -0.0220 -0.3574
   51CHL1    C7 4891   0.480   3.623   3.522 -0.1168 -0.1084 -0.7777
   51CHL1   H7A 4892   0.580   3.666   3.499  1.0828 -2.2474  0.1190
   51CHL1   H7B 4893   0.442   3.691   3.601 -0.3093  1.0699 -1.8562
   51CHL1    C8 4894   0.499   3.473   3.555  0.4453 -0.4020  0.4120
   51CHL1    H8 4895   0.599   3.447   3.515 -0.0706  0.7087 -1.7248
   51CHL1   C14 4896   0.494   3.449   3.705  0.0095 -0.1988  0.3198
   51CHL1   H14 4897   0.391   3.475   3.736 -0.2520  0.2353 -0.8834
   51CHL1   C15 4898   0.580   3.543   3.798  0.1524 -0.5896  0.3169
   51CHL1  H15A 4899   0.677   3.569   3.751 -0.8062  1.3596 -0.7459
   51CHL1  H15B 4900   0.522   3.637   3.811  1.5857  1.2742 -4.6482
   51CHL1   C16 4901   0.605   3.462   3.929  0.6309 -0.1654  0.5472
   51CHL1  H16A 4902   0.712   3.436   3.943  0.4843 -0.2627  1.6061
   51CHL1  H16B 4903   0.567   3.515   4.019  0.3743 -0.7258  0.7728
   51CHL1   C17 4904   0.523   3.329   3.907 -0.1217  0.0901  0.1232
   51CHL1   H17 4905   0.420   3.368   3.927 -0.0455 -0.4973  1.7670
   51CHL1   C13 4906   0.520   3.306   3.754  0.4339  0.7373 -0.2654
   51CHL1   C18 4907   0.657   3.253   3.714 -0.0434  0.0609  1.2794
   51CHL1  H18A 4908   0.674   3.243   3.604  1.0491 -0.9905  1.5255
   51CHL1  H18B 4909   0.742   3.299   3.770  1.6634 -1.6047  0.1845
   51CHL1  H18C 4910   0.666   3.147   3.743 -1.1127 -1.1936 -2.4177
   51CHL1   C12 4911   0.402   3.219   3.698 -0.2006 -0.2096  0.2201
   51CHL1  H12A 4912   0.430   3.115   3.723 -0.4233 -0.6413 -1.2425
   51CHL1  H12B 4913   0.309   3.239   3.755 -0.9609 -1.9481 -0.3404
   51CHL1   C11 4914   0.392   3.242   3.542  0.5141  0.4408 -0.2152
   51CHL1  H11A 4915   0.485   3.199   3.498  1.0566  0.5652  0.7867
   51CHL1  H11B 4916   0.310   3.183   3.496  1.6002 -0.4878 -1.0321
   51CHL1    C9 4917   0.381   3.394   3.493 -0.2132 -0.0532 -1.3345
   51CHL1    H9 4918   0.296   3.439   3.549  0.8406  1.9625 -1.2358
   51CHL1   C10 4919   0.355   3.419   3.342 -0.7371  0.4333 -0.7439
   51CHL1   C19 4920   0.455   3.341   3.257  0.2582  0.8338  0.2607
   51CHL1  H19A 4921   0.558   3.382   3.259 -0.1058  1.7318  1.3230
   51CHL1  H19B 4922   0.456   3.236   3.294  1.2279  1.0456  0.8563
   51CHL1  H19C 4923   0.421   3.337   3.151  0.5807 -0.1150  0.1797
   51CHL1    C1 4924   0.209   3.356   3.308  0.3423  0.5770  0.7051
   51CHL1   H1A 4925   0.208   3.245   3.308 -1.1037  0.5645  0.2681
   51CHL1   H1B 4926   0.150   3.403   3.390  0.7891  1.9017  0.2870
   51CHL1    C2 4927   0.168   3.407   3.165  0.8902  0.3247 -0.3516
   51CHL1   H2A 4928   0.058   3.391   3.167  0.6055  1.9236 -1.1473
   51CHL1   H2B 4929   0.213   3.345   3.085  1.6348  0.8962 -0.3877
   51CHL1   C20 4930   0.564   3.219   4.011 -0.4377  0.5927 -0.3205
   51CHL1   H20 4931   0.672   3.198   3.995 -0.3108  1.2370 -0.3600
   51CHL1   C21 4932   0.481   3.093   3.974  0.5299 -0.5349  0.1567
   51CHL1  H21A 4933   0.520   3.049   3.880  0.0958  0.4036 -0.4700
   51CHL1  H21B 4934   0.376   3.123   3.957  1.0458 -0.5305 -4.0489
   51CHL1  H21C 4935   0.498   3.022   4.058 -0.0387  0.0167  0.7506
   51CHL1   C22 4936   0.553   3.262   4.159 -0.1487 -0.2257  0.1783
   51CHL1  H22A 4937   0.610   3.353   4.190 -0.1554  0.3194 -1.3292
   51CHL1  H22B 4938   0.449   3.294   4.179 -0.9295 -3.1205  1.1769
   51CHL1   C23 4939   0.573   3.156   4.273  0.5764 -0.0396  0.1093
   51CHL1  H23A 4940   0.498   3.078   4.247 -1.4583  1.4235  1.3762
   51CHL1  H23B 4941   0.662   3.091   4.260  2.1081  1.7548  1.2067
   51CHL1   C24 4942   0.558   3.201   4.416  0.4657 -0.2450 -0.1037
   51CHL1  H24A 4943   0.632   3.280   4.441  0.1901  0.2631 -0.8535
   51CHL1  H24B 4944   0.460   3.254   4.408  1.1039  0.6991 -3.0942
   51CHL1   C25 4945   0.568   3.091   4.530  0.2501  0.0831  0.0370
   51CHL1   H25 4946   0.651   3.024   4.500  1.0200  1.0076  0.0630
   51CHL1   C26 4947   0.576   3.170   4.660 -0.0348  0.0212  0.5501
   51CHL1  H26A 4948   0.627   3.267   4.642  0.1256  0.1582  1.6813
   51CHL1  H26B 4949   0.471   3.177   4.694  0.3421 -0.6903  1.9322
   51CHL1  H26C 4950   0.638   3.122   4.739  1.1024  2.4036  1.1904
   51CHL1   C27 4951   0.445   2.999   4.541 -0.1764 -1.4892 -0.5134
   51CHL1  H27A 4952   0.348   3.052   4.541  2.2233  3.4341  0.0401
   51CHL1  H27B 4953   0.442   2.928   4.455 -0.8259 -1.8866 -0.1653
   51CHL1  H27C 4954   0.439   2.934   4.631  0.5594  0.8139  1.2836
   52CHL1    C3 4955   4.206   4.353   2.914  0.0106 -0.6094 -0.2045
   52CHL1    H3 4956   4.290   4.286   2.940 -0.0865  0.4062  3.1708
   52CHL1    O3 4957   4.147   4.304   2.795  0.2769 -0.0737  0.0789
   52CHL1   H3' 4958   4.068   4.357   2.787  1.8729  2.5907  0.4141
   52CHL1    C4 4959   4.095   4.367   3.014 -0.1395 -0.1296 -0.7455
   52CHL1   H4A 4960   4.012   4.417   2.959  0.0762  0.0646 -0.8927
   52CHL1   H4B 4961   4.049   4.269   3.042 -0.1462  0.3222  0.8966
   52CHL1    C5 4962   4.134   4.439   3.139  0.4520 -0.0066 -0.2446
   52CHL1    C6 4963   4.134   4.375   3.261 -0.4586 -0.3133 -0.2129
   52CHL1    H6 4964   4.092   4.274   3.270  0.5226 -0.6628  0.5526
   52CHL1    C7 4965   4.162   4.458   3.388 -0.2178  0.1647 -0.5288
   52CHL1   H7A 4966   4.085   4.443   3.466  0.5574  0.5162  0.3227
   52CHL1   H7B 4967   4.262   4.421   3.419 -0.4479 -2.8577 -2.9210
   52CHL1    C8 4968   4.173   4.609   3.356 -0.6461 -0.4723  0.1204
   52CHL1    H8 4969   4.071   4.651   3.343  0.5122  1.9715 -1.8291
   52CHL1   C14 4970   4.249   4.671   3.474 -0.2081  0.2816 -0.0332
   52CHL1   H14 4971   4.353   4.633   3.464  0.2734  1.6523 -0.3685
   52CHL1   C15 4972   4.213   4.633   3.616  0.1284 -0.2554 -0.2365
   52CHL1  H15A 4973   4.104   4.629   3.638  0.1422  0.3367 -0.0505
   52CHL1  H15B 4974   4.251   4.530   3.635 -1.2419 -1.2070 -2.2480
   52CHL1   C16 4975   4.290   4.730   3.706  0.2032  0.0792  0.0643
   52CHL1  H16A 4976   4.213   4.778   3.770 -0.3209  0.9126 -1.1279
   52CHL1  H16B 4977   4.357   4.690   3.784 -1.4820 -0.1787  1.4273
   52CHL1   C17 4978   4.356   4.835   3.611  0.4495 -0.7189  0.0249
   52CHL1   H17 4979   4.461   4.799   3.600  1.1254  0.9769  0.4882
   52CHL1   C13 4980   4.286   4.820   3.472  0.3073 -0.2661 -0.1319
   52CHL1   C18 4981   4.157   4.898   3.479  0.2769  0.2655 -0.0045
   52CHL1  H18A 4982   4.095   4.878   3.389 -0.1911  1.0396  0.1390
   52CHL1  H18B 4983   4.084   4.877   3.560  0.4240 -1.1871 -0.2220
   52CHL1  H18C 4984   4.180   5.006   3.489 -0.8608  0.3788  1.6801
   52CHL1   C12 4985   4.367   4.859   3.345 -0.0138 -0.0854 -0.3078
   52CHL1  H12A 4986   4.374   4.969   3.335 -0.4727  0.1182  1.3797
   52CHL1  H12B 4987   4.470   4.817   3.353  0.0493  0.3705  1.9869
   52CHL1   C11 4988   4.302   4.792   3.223 -0.3532  1.2454  0.5902
   52CHL1  H11A 4989   4.222   4.855   3.179 -1.6663  0.3379  1.6230
   52CHL1  H11B 4990   4.391   4.781   3.156 -0.1180  0.2753  1.0568
   52CHL1    C9 4991   4.262   4.637   3.239 -0.1107  0.7647 -0.0249
   52CHL1    H9 4992   4.353   4.574   3.249  0.5169  1.6794  0.1761
   52CHL1   C10 4993   4.194   4.572   3.110  0.1236 -0.2819 -0.0400
   52CHL1   C19 4994   4.078   4.656   3.068  0.3460 -0.2262 -0.2093
   52CHL1  H19A 4995   4.010   4.684   3.152  1.2248  0.5905  0.2494
   52CHL1  H19B 4996   4.115   4.753   3.029 -1.6511  0.3082 -0.9208
   52CHL1  H19C 4997   4.017   4.625   2.981 -1.0405  3.3207 -0.7012
   52CHL1    C1 4998   4.307   4.575   2.998  1.1038 -0.7601 -0.2635
   52CHL1   H1A 4999   4.330   4.680   2.972  0.3385 -0.1514  1.3842
   52CHL1   H1B 5000   4.399   4.520   3.027  1.4532 -0.5157 -0.9058
   52CHL1    C2 5001   4.261   4.496   2.872 -0.1938 -0.3726 -0.1453
   52CHL1   H2A 5002   4.340   4.484   2.795  0.0348 -0.7160  0.1389
   52CHL1   H2B 5003   4.184   4.556   2.819  1.8327  1.3465 -1.2955
   52CHL1   C20 5004   4.369   4.975   3.679  0.4218 -0.9302  0.3217
   52CHL1   H20 5005   4.266   5.010   3.701  0.3639 -0.0600 -1.1939
   52CHL1   C21 5006   4.439   5.087   3.598 -0.0623  0.1262  0.4613
   52CHL1  H21A 5007   4.366   5.108   3.517  0.1010 -0.3275  0.1889
   52CHL1  H21B 5008   4.535   5.050   3.556 -0.9018  0.1134 -1.5448
   52CHL1  H21C 5009   4.453   5.184   3.649 -0.4526  0.3873  0.0777
   52CHL1   C22 5010   4.441   4.974   3.816 -0.0678 -0.0884  0.1615
   52CHL1  H22A 5011   4.407   4.891   3.881 -0.9360 -0.4919 -0.7914
   52CHL1  H22B 5012   4.552   4.969   3.808  0.0111  0.4267  0.8199
   52CHL1   C23 5013   4.410   5.105   3.896  0.1054  0.0635 -0.1496
   52CHL1  H23A 5014   4.468   5.197   3.875  1.1851 -0.4603  0.4712
   52CHL1  H23B 5015   4.308   5.135   3.864 -0.6732  1.5422  3.2556
   52CHL1   C24 5016   4.409   5.085   4.050  0.2636  0.0465 -0.4142
   52CHL1  H24A 5017   4.344   4.998   4.075  0.8761  0.0585  1.3523
   52CHL1  H24B 5018   4.511   5.054   4.079  0.7202  0.4279 -1.5607
   52CHL1   C25 5019   4.366   5.206   4.130 -1.0587  0.4338 -0.1000
   52CHL1   H25 5020   4.449   5.277   4.110  1.1790 -1.3304  2.1758
   52CHL1   C26 5021   4.223   5.254   4.102 -0.1180 -0.4835  0.9469
   52CHL1  H26A 5022   4.194   5.325   4.181  0.6695  2.1399 -0.9898
   52CHL1  H26B 5023   4.203   5.303   4.005 -1.8096 -4.3396 -0.8905
   52CHL1  H26C 5024   4.156   5.166   4.095  0.7549 -1.0443 -1.2741
   52CHL1   C27 5025   4.394   5.184   4.281 -0.2273  0.2437 -0.0643
   52CHL1  H27A 5026   4.503   5.161   4.285 -0.0617  0.7635 -1.0950
   52CHL1  H27B 5027   4.365   5.276   4.334 -0.7062 -0.2617  0.5675
   52CHL1  H27C 5028   4.328   5.102   4.317  0.0869 -0.1276 -0.3121
   53CHL1    C3 5029   5.193   2.290   3.183  0.0792 -0.1991 -0.7055
   53CHL1    H3 5030   5.093   2.260   3.222 -0.3747  0.8523 -1.0397
   53CHL1    O3 5031   5.165   2.299   3.043  0.5656  0.1073 -0.1944
   53CHL1   H3' 5032   5.074   2.330   3.046  0.8866  1.1688  3.6843
   53CHL1    C4 5033   5.233   2.429   3.232  0.1246  0.3133 -0.2791
   53CHL1   H4A 5034   5.328   2.468   3.189  1.5087 -1.0807  1.3694
   53CHL1   H4B 5035   5.151   2.503   3.214 -1.7066 -1.1467  1.5975
   53CHL1    C5 5036   5.256   2.435   3.380 -0.0091 -0.1708  0.1820
   53CHL1    C6 5037   5.174   2.508   3.459 -0.4987 -0.0598 -0.1246
   53CHL1    H6 5038   5.095   2.568   3.411  2.5657  2.2730 -2.7872
   53CHL1    C7 5039   5.194   2.515   3.609  0.1934 -1.1918  0.0521
   53CHL1   H7A 5040   5.190   2.623   3.636 -1.1932 -1.5041  1.1882
   53CHL1   H7B 5041   5.106   2.476   3.664 -0.5092  2.6974  2.0644
   53CHL1    C8 5042   5.326   2.453   3.663 -0.5889 -0.2433  0.3429
   53CHL1    H8 5043   5.410   2.524   3.653 -1.2703  0.6771  1.0038
   53CHL1   C14 5044   5.305   2.411   3.809  0.9558 -0.0462  0.0115
   53CHL1   H14 5045   5.221   2.338   3.805  2.1500 -1.4969  0.4402
   53CHL1   C15 5046   5.251   2.515   3.924  0.0105 -0.5076 -0.1779
   53CHL1  H15A 5047   5.307   2.608   3.901 -1.6715  0.5433 -0.1832
   53CHL1  H15B 5048   5.142   2.533   3.918  0.2781  1.0152 -1.0452
   53CHL1   C16 5049   5.306   2.444   4.054 -0.2718 -0.3197 -0.0715
   53CHL1  H16A 5050   5.377   2.507   4.112 -0.4711 -0.4464  0.3149
   53CHL1  H16B 5051   5.218   2.420   4.117  0.5343 -0.3892  1.0455
   53CHL1   C17 5052   5.367   2.306   4.011  0.2270 -0.1310  0.3694
   53CHL1   H17 5053   5.282   2.239   3.988 -0.3468  0.6132  0.2972
   53CHL1   C13 5054   5.428   2.335   3.872  0.5181 -0.1292  0.5001
   53CHL1   C18 5055   5.545   2.433   3.891  0.6173 -0.4667  0.6494
   53CHL1  H18A 5056   5.644   2.387   3.912  0.6974  0.4252  2.4436
   53CHL1  H18B 5057   5.561   2.493   3.799  2.0821 -1.4053  0.2722
   53CHL1  H18C 5058   5.536   2.513   3.967 -2.1573  2.4810 -2.4734
   53CHL1   C12 5059   5.477   2.212   3.779 -0.4474  0.1840 -0.5636
   53CHL1  H12A 5060   5.559   2.148   3.819 -1.1854 -0.1680  0.4276
   53CHL1  H12B 5061   5.392   2.140   3.782  0.4690 -0.9094  0.5027
   53CHL1   C11 5062   5.494   2.257   3.635 -0.1051 -1.0152 -0.1092
   53CHL1  H11A 5063   5.580   2.328   3.624 -1.5196  1.0385  1.2851
   53CHL1  H11B 5064   5.521   2.163   3.582  3.7246 -1.4173  2.1691
   53CHL1    C9 5065   5.366   2.323   3.586 -0.8900  0.1426 -0.2810
   53CHL1    H9 5066   5.284   2.252   3.609 -1.3616  0.4678 -0.9129
   53CHL1   C10 5067   5.364   2.338   3.433  0.1662 -0.1333 -0.1054
   53CHL1   C19 5068   5.503   2.384   3.384  0.0604  0.5646  0.1697
   53CHL1  H19A 5069   5.537   2.471   3.444 -1.7652  1.0145  0.6206
   53CHL1  H19B 5070   5.578   2.303   3.397  1.8086  2.4113  2.2650
   53CHL1  H19C 5071   5.504   2.413   3.276 -0.3751  2.7199  0.6972
   53CHL1    C1 5072   5.320   2.198   3.375  0.4395  0.6663 -0.2298
   53CHL1   H1A 5073   5.391   2.121   3.412 -0.8650  0.2548  1.5576
   53CHL1   H1B 5074   5.221   2.199   3.425  0.4931  0.8658 -0.1290
   53CHL1    C2 5075   5.291   2.179   3.225  0.7335  0.1677  0.5356
   53CHL1   H2A 5076   5.237   2.087   3.197 -3.1133  1.4597  2.9285
   53CHL1   H2B 5077   5.384   2.189   3.164  0.0999  0.3248 -0.4113
   53CHL1   C20 5078   5.451   2.238   4.110  0.4230  0.0266 -0.1046
   53CHL1   H20 5079   5.535   2.189   4.056  0.3474  2.0519 -2.2161
   53CHL1   C21 5080   5.363   2.138   4.182  0.0298  0.7274 -0.9083
   53CHL1  H21A 5081   5.424   2.076   4.251 -0.6876  0.5076 -0.4522
   53CHL1  H21B 5082   5.331   2.053   4.119 -0.3713 -1.1398  1.6343
   53CHL1  H21C 5083   5.287   2.193   4.242  1.1251  3.0092 -1.5115
   53CHL1   C22 5084   5.532   2.333   4.208  0.1389  0.3507 -0.7932
   53CHL1  H22A 5085   5.590   2.403   4.144  1.0040  0.3949  0.0228
   53CHL1  H22B 5086   5.461   2.396   4.267 -0.0617  0.8466 -1.5473
   53CHL1   C23 5087   5.632   2.271   4.304 -0.0372  0.4952 -0.4846
   53CHL1  H23A 5088   5.579   2.204   4.375  0.9561 -2.0310 -2.0043
   53CHL1  H23B 5089   5.701   2.218   4.235 -1.8814 -2.1616 -0.4562
   53CHL1   C24 5090   5.703   2.380   4.379 -0.5115  0.8617  0.3708
   53CHL1  H24A 5091   5.759   2.440   4.304  0.7152  0.2162  0.7332
   53CHL1  H24B 5092   5.635   2.448   4.434  1.4291  2.0667  1.4117
   53CHL1   C25 5093   5.808   2.329   4.479  0.4486  1.0125 -0.5287
   53CHL1   H25 5094   5.859   2.248   4.423 -2.8184 -1.3670 -0.3643
   53CHL1   C26 5095   5.901   2.438   4.507 -0.2928  0.0883  0.2085
   53CHL1  H26A 5096   5.848   2.534   4.525  0.4242  0.3399  1.0338
   53CHL1  H26B 5097   5.967   2.427   4.596  0.4769 -0.5867 -0.4281
   53CHL1  H26C 5098   5.956   2.468   4.415  0.2034  1.1062  0.8160
   53CHL1   C27 5099   5.754   2.262   4.606  0.1389  0.2942  0.0698
   53CHL1  H27A 5100   5.698   2.335   4.667  0.0802  0.5554 -0.2921
   53CHL1  H27B 5101   5.680   2.182   4.582  1.3876 -0.4868 -1.3497
   53CHL1  H27C 5102   5.837   2.217   4.664 -2.1564  0.5856  3.8926
   54CHL1    C3 5103   4.973   3.652   2.855 -0.1452  0.3448 -0.3912
   54CHL1    H3 5104   5.028   3.560   2.887 -0.6995 -0.0313 -0.5056
   54CHL1    O3 5105   4.951   3.641   2.719 -0.0764  0.0228  0.3004
   54CHL1   H3' 5106   4.880   3.577   2.718 -1.2545  1.2755  0.4085
   54CHL1    C4 5107   4.838   3.666   2.928 -0.6502  0.8201  0.3065
   54CHL1   H4A 5108   4.777   3.745   2.879 -0.6940  0.3992 -0.3215
   54CHL1   H4B 5109   4.780   3.572   2.924  0.3732  0.1992 -0.3195
   54CHL1    C5 5110   4.860   3.718   3.068  0.2451 -0.9405 -0.2182
   54CHL1    C6 5111   4.803   3.654   3.171  0.5770  0.4732 -0.6846
   54CHL1    H6 5112   4.737   3.570   3.146  0.2539  0.9309 -1.3847
   54CHL1    C7 5113   4.815   3.687   3.315  0.2757  0.3620  0.4706
   54CHL1   H7A 5114   4.725   3.666   3.377  0.1303  2.7290  1.1338
   54CHL1   H7B 5115   4.901   3.629   3.355  0.7074 -0.6449 -1.7531
   54CHL1    C8 5116   4.847   3.835   3.328  0.0820  0.5179  0.2504
   54CHL1    H8 5117   4.768   3.900   3.286 -0.7636  0.2180  1.3291
   54CHL1   C14 5118   4.881   3.871   3.470  0.3685 -0.0579 -0.5257
   54CHL1   H14 5119   4.975   3.814   3.490 -2.4002 -4.5977  1.1593
   54CHL1   C15 5120   4.783   3.824   3.577 -0.6580  0.6090  0.0871
   54CHL1  H15A 5121   4.682   3.861   3.550 -1.3859 -1.3326 -0.0427
   54CHL1  H15B 5122   4.791   3.713   3.587  0.2771  0.5738 -0.8439
   54CHL1   C16 5123   4.834   3.891   3.706  0.3526  0.3666  0.1698
   54CHL1  H16A 5124   4.738   3.935   3.742 -0.6252 -0.9949 -0.6594
   54CHL1  H16B 5125   4.873   3.818   3.780 -0.4342 -0.2323  0.0131
   54CHL1   C17 5126   4.926   4.011   3.660 -0.0757 -0.0452  0.1116
   54CHL1   H17 5127   5.028   3.974   3.685  0.4042  0.0291 -1.6208
   54CHL1   C13 5128   4.912   4.017   3.497  0.3864  0.6290 -0.3041
   54CHL1   C18 5129   4.792   4.102   3.474  0.7445 -0.0409 -0.0239
   54CHL1  H18A 5130   4.816   4.209   3.490 -0.7493 -0.1366  4.2127
   54CHL1  H18B 5131   4.748   4.092   3.372 -0.1311  1.9718  0.1029
   54CHL1  H18C 5132   4.712   4.076   3.547  1.5037 -0.1919  0.7751
   54CHL1   C12 5133   5.033   4.052   3.419  0.6889  0.1874 -0.1565
   54CHL1  H12A 5134   5.059   4.160   3.418  1.1978  0.1476  2.2613
   54CHL1  H12B 5135   5.127   4.001   3.451  0.6064  0.4686  0.5605
   54CHL1   C11 5136   5.017   4.021   3.264  0.8671  0.2635 -0.4649
   54CHL1  H11A 5137   4.943   4.098   3.234  0.9658 -0.3149 -2.3570
   54CHL1  H11B 5138   5.108   4.047   3.206  1.3208  0.5786  0.3795
   54CHL1    C9 5139   4.970   3.872   3.240  0.3909 -0.3692 -0.2492
   54CHL1    H9 5140   5.048   3.800   3.274 -0.0274 -1.0193 -0.6537
   54CHL1   C10 5141   4.945   3.843   3.086  0.1896  0.4516 -0.7695
   54CHL1   C19 5142   4.879   3.958   3.020 -0.4018  0.2439 -0.7521
   54CHL1  H19A 5143   4.786   3.994   3.069  0.2615  0.6854  0.2125
   54CHL1  H19B 5144   4.952   4.041   3.027  0.7493 -0.8476  1.2285
   54CHL1  H19C 5145   4.858   3.946   2.912  1.0128  1.3166 -1.1631
   54CHL1    C1 5146   5.079   3.814   3.019 -0.9746  0.3199 -0.7403
   54CHL1   H1A 5147   5.152   3.898   3.028  0.8077 -1.1432 -0.8241
   54CHL1   H1B 5148   5.118   3.732   3.083 -1.6608  0.8281  0.3384
   54CHL1    C2 5149   5.078   3.770   2.875  0.2944  0.5229 -0.2012
   54CHL1   H2A 5150   5.176   3.734   2.836  0.8983 -0.4650  2.0486
   54CHL1   H2B 5151   5.061   3.858   2.809  0.8983  0.9245  0.1647
   54CHL1   C20 5152   4.901   4.139   3.742 -0.4743 -0.0787 -0.8709
   54CHL1   H20 5153   4.803   4.182   3.710  0.3614  0.8455 -2.2875
   54CHL1   C21 5154   4.999   4.254   3.696  0.1506  0.1880 -0.0421
   54CHL1  H21A 5155   4.971   4.290   3.595 -0.7793 -1.0327 -0.2302
   54CHL1  H21B 5156   5.099   4.206   3.703 -0.1197 -0.6201 -1.4258
   54CHL1  H21C 5157   4.995   4.344   3.762 -1.2880  1.7463 -2.1280
   54CHL1   C22 5158   4.909   4.109   3.889 -0.3830  0.2358 -0.4091
   54CHL1  H22A 5159   4.887   4.207   3.937 -1.8502  0.0845 -0.7355
   54CHL1  H22B 5160   4.817   4.052   3.914  1.7252 -2.2328  2.5510
   54CHL1   C23 5161   5.035   4.046   3.949 -0.4375 -0.8651 -0.5212
   54CHL1  H23A 5162   5.043   3.950   3.894 -1.0227 -1.5798  0.5955
   54CHL1  H23B 5163   5.113   4.115   3.911 -3.2707  1.5066 -2.4372
   54CHL1   C24 5164   5.033   4.022   4.100 -0.0026 -0.2739 -0.3366
   54CHL1  H24A 5165   5.130   3.976   4.128  0.4112 -0.0080 -1.3103
   54CHL1  H24B 5166   5.025   4.120   4.153  0.0544  0.8531 -2.3228
   54CHL1   C25 5167   4.908   3.939   4.149 -0.5424  0.2449  0.6998
   54CHL1   H25 5168   4.818   3.994   4.114 -0.2474  0.3767  0.1285
   54CHL1   C26 5169   4.907   3.796   4.091 -0.9063 -0.0457  0.7016
   54CHL1  H26A 5170   4.918   3.806   3.981 -0.2861 -0.0008  0.7682
   54CHL1  H26B 5171   5.000   3.747   4.126 -1.0140  0.1565  1.2759
   54CHL1  H26C 5172   4.817   3.736   4.116  0.4487 -2.8555 -0.7459
   54CHL1   C27 5173   4.904   3.931   4.299 -0.2540  0.0112  0.5083
   54CHL1  H27A 5174   4.802   3.933   4.344  0.5998  3.3849  2.6531
   54CHL1  H27B 5175   4.952   3.841   4.341 -0.7671 -0.1670  0.7270
   54CHL1  H27C 5176   4.956   4.010   4.357 -1.2007  0.1120  1.2430
   55CHL1    C3 5177   2.930   6.189   2.752 -0.2388 -0.4330 -0.0137
   55CHL1    H3 5178   2.823   6.209   2.775  0.1773  3.9298 -1.0029
   55CHL1    O3 5179   2.934   6.136   2.618 -0.2715 -0.2343 -0.6367
   55CHL1   H3' 5180   2.906   6.044   2.623 -0.5626 -0.2281 -1.9361
   55CHL1    C4 5181   3.000   6.326   2.751  0.9860  0.0149 -0.9566
   55CHL1   H4A 5182   3.100   6.323   2.702  0.9546 -0.8112 -0.9836
   55CHL1   H4B 5183   2.937   6.386   2.682 -0.8184 -0.3795  0.2716
   55CHL1    C5 5184   3.019   6.373   2.897 -0.1579 -0.2962  0.8167
   55CHL1    C6 5185   2.980   6.499   2.918 -0.2648  0.0427 -0.5119
   55CHL1    H6 5186   2.943   6.571   2.844  0.3979  0.1765 -0.7224
   55CHL1    C7 5187   3.000   6.561   3.060 -0.6287  0.1457  0.1513
   55CHL1   H7A 5188   3.049   6.658   3.036 -2.5053  0.8227 -1.2689
   55CHL1   H7B 5189   2.903   6.588   3.108  0.1146  1.4810  0.9523
   55CHL1    C8 5190   3.070   6.470   3.159  0.3524  0.4047 -0.1487
   55CHL1    H8 5191   3.178   6.474   3.133  0.9326  0.0311  2.0369
   55CHL1   C14 5192   3.048   6.520   3.305  0.2863 -0.8000 -0.1511
   55CHL1   H14 5193   2.939   6.539   3.311  0.4143  0.7407 -1.9640
   55CHL1   C15 5194   3.105   6.661   3.334 -0.1548  0.2504  0.0860
   55CHL1  H15A 5195   3.209   6.653   3.296 -0.1138  3.1691 -0.6217
   55CHL1  H15B 5196   3.048   6.742   3.285  3.1031  1.7586 -1.5390
   55CHL1   C16 5197   3.114   6.663   3.482  0.0547 -0.0380  0.1192
   55CHL1  H16A 5198   3.214   6.691   3.522 -0.3247 -1.6968  2.4626
   55CHL1  H16B 5199   3.047   6.741   3.524 -1.2835 -1.8088  1.4472
   55CHL1   C17 5200   3.082   6.522   3.531 -0.3047  0.7877 -0.1394
   55CHL1   H17 5201   2.974   6.508   3.554 -0.2956 -1.1217 -1.0906
   55CHL1   C13 5202   3.097   6.429   3.418 -0.0141 -0.7139 -0.0350
   55CHL1   C18 5203   3.252   6.396   3.395 -0.0698 -0.6865  0.2076
   55CHL1  H18A 5204   3.275   6.327   3.312  2.0547 -0.1219  0.2614
   55CHL1  H18B 5205   3.322   6.483   3.397  1.6504 -2.0243 -0.2685
   55CHL1  H18C 5206   3.291   6.332   3.477  2.2624  1.1052  0.6309
   55CHL1   C12 5207   3.013   6.306   3.408 -0.3911 -0.4948  0.5330
   55CHL1  H12A 5208   3.038   6.229   3.483  4.8931 -0.3773 -0.6599
   55CHL1  H12B 5209   2.908   6.341   3.420  0.3756  2.9077 -1.3766
   55CHL1   C11 5210   3.020   6.232   3.270  0.4160 -0.1833  0.2839
   55CHL1  H11A 5211   3.118   6.181   3.264  0.0419 -0.7953 -0.7427
   55CHL1  H11B 5212   2.936   6.160   3.267  0.4389 -0.3959  2.6674
   55CHL1    C9 5213   3.014   6.329   3.142 -0.1413 -0.1540  0.0069
   55CHL1    H9 5214   2.904   6.347   3.139 -0.1206  0.0836  0.6026
   55CHL1   C10 5215   3.057   6.264   3.001  0.1667 -0.1728  0.1510
   55CHL1   C19 5216   3.207   6.253   2.989  0.4508 -0.1838  0.5119
   55CHL1  H19A 5217   3.223   6.197   2.895 -0.0487 -2.2187  1.5852
   55CHL1  H19B 5218   3.258   6.352   2.993 -0.4667  0.4321 -1.6698
   55CHL1  H19C 5219   3.254   6.196   3.072  0.6180  1.7800  1.8532
   55CHL1    C1 5220   2.990   6.130   2.986 -0.3181 -0.4504 -0.1603
   55CHL1   H1A 5221   3.025   6.047   3.051 -1.3120 -0.1168  0.8228
   55CHL1   H1B 5222   2.882   6.136   3.011  0.0911  1.0056  1.4932
   55CHL1    C2 5223   2.996   6.083   2.840  0.4117 -0.2351  0.1558
   55CHL1   H2A 5224   2.948   5.982   2.836 -1.1472  0.3219  2.5520
   55CHL1   H2B 5225   3.099   6.062   2.805 -1.3734 -2.0504 -4.8829
   55CHL1   C20 5226   3.160   6.486   3.668 -0.5557 -0.8735 -0.3004
   55CHL1   H20 5227   3.270   6.487   3.649  0.3053  0.4644  3.6341
   55CHL1   C21 5228   3.128   6.342   3.708 -0.1781  0.4992 -0.2473
   55CHL1  H21A 5229   3.183   6.318   3.802 -0.8567 -1.3713 -0.3011
   55CHL1  H21B 5230   3.163   6.266   3.635 -2.6922 -0.0666 -0.9330
   55CHL1  H21C 5231   3.022   6.324   3.733 -0.9364  1.0267 -2.8450
   55CHL1   C22 5232   3.124   6.589   3.782  0.1902  0.1587  0.0626
   55CHL1  H22A 5233   3.208   6.555   3.846 -0.4880 -1.1315  0.2912
   55CHL1  H22B 5234   3.145   6.693   3.748 -3.2212  0.8913 -0.1038
   55CHL1   C23 5235   2.980   6.591   3.844  0.7258 -0.3619 -0.0849
   55CHL1  H23A 5236   2.904   6.631   3.773  0.2206  0.8652  1.0799
   55CHL1  H23B 5237   2.954   6.487   3.871  0.8416 -1.2906 -3.1859
   55CHL1   C24 5238   2.970   6.680   3.970 -0.4161 -0.0673  0.0682
   55CHL1  H24A 5239   2.999   6.781   3.933 -1.1890  0.2788  0.3953
   55CHL1  H24B 5240   2.866   6.681   4.008  0.2197  2.1063  2.0399
   55CHL1   C25 5241   3.051   6.635   4.093  0.1136 -0.1565 -0.7901
   55CHL1   H25 5242   3.159   6.634   4.068  0.3457 -4.1580 -0.1215
   55CHL1   C26 5243   3.028   6.738   4.205  0.2071  0.2866  0.7401
   55CHL1  H26A 5244   3.084   6.710   4.297  3.7014  0.2287 -1.2137
   55CHL1  H26B 5245   3.059   6.840   4.175 -1.0018  0.9002  1.5151
   55CHL1  H26C 5246   2.919   6.749   4.225  0.2122 -2.4024  2.8902
   55CHL1   C27 5247   3.021   6.493   4.146 -0.1457  0.6204  0.5874
   55CHL1  H27A 5248   3.073   6.459   4.238  0.7986 -0.6157 -0.3740
   55CHL1  H27B 5249   2.912   6.485   4.160 -0.5519 -0.2600 -2.4122
   55CHL1  H27C 5250   3.043   6.421   4.065 -3.6419  0.1890 -0.1063
   56CHL1    C3 5251   2.120   1.176   2.946 -0.4482  0.0908 -0.8741
   56CHL1    H3 5252   2.129   1.278   2.989 -1.5009 -0.3741  0.5459
   56CHL1    O3 5253   2.158   1.191   2.810 -0.4341  0.0486  0.2704
   56CHL1   H3' 5254   2.086   1.234   2.764 -0.2193  0.4130  0.2720
   56CHL1    C4 5255   2.215   1.078   3.014  0.4141 -0.1363 -0.3915
   56CHL1   H4A 5256   2.215   0.983   2.957 -0.9061 -0.5340  0.2479
   56CHL1   H4B 5257   2.317   1.118   2.993 -0.1882  0.8625 -1.5955
   56CHL1    C5 5258   2.186   1.055   3.165 -0.6997 -0.7962  0.1454
   56CHL1    C6 5259   2.274   1.086   3.264  0.1660  0.1658 -0.2429
   56CHL1    H6 5260   2.378   1.119   3.249  1.0853 -0.4128  3.7406
   56CHL1    C7 5261   2.241   1.066   3.410 -0.2723 -0.0579  0.0388
   56CHL1   H7A 5262   2.324   1.017   3.464 -1.4532 -0.9668  1.0775
   56CHL1   H7B 5263   2.211   1.160   3.461 -1.0380 -0.0570 -0.3977
   56CHL1    C8 5264   2.112   0.980   3.438  0.3334  0.0126  0.7314
   56CHL1    H8 5265   2.151   0.878   3.419  0.3617  0.3843 -1.4611
   56CHL1   C14 5266   2.063   0.989   3.581 -0.4429  1.1306  0.2362
   56CHL1   H14 5267   2.012   1.086   3.596 -2.3406 -0.0582  2.0661
   56CHL1   C15 5268   2.164   0.976   3.689  0.4703 -0.0705  0.2835
   56CHL1  H15A 5269   2.245   0.908   3.653  0.3378  0.4311 -1.0210
   56CHL1  H15B 5270   2.213   1.075   3.703  2.3397 -0.9823  0.5529
   56CHL1   C16 5271   2.093   0.931   3.817 -0.0218 -0.1206  0.6871
   56CHL1  H16A 5272   2.139   0.838   3.856  1.5218 -0.2672 -1.3057
   56CHL1  H16B 5273   2.111   1.010   3.893 -0.4008  0.9336 -0.2927
   56CHL1   C17 5274   1.947   0.914   3.782  0.0615 -1.0889 -0.2074
   56CHL1   H17 5275   1.900   1.014   3.794 -0.0268 -1.2353  0.7318
   56CHL1   C13 5276   1.952   0.893   3.624  0.5099  0.1573 -0.7963
   56CHL1   C18 5277   1.990   0.743   3.599 -0.0086  0.9562  0.3117
   56CHL1  H18A 5278   1.895   0.687   3.613 -0.5086  2.0889  1.6428
   56CHL1  H18B 5279   2.031   0.735   3.496  0.6193  1.5211  0.5137
   56CHL1  H18C 5280   2.063   0.700   3.671  2.5586  2.2619 -1.3553
   56CHL1   C12 5281   1.829   0.940   3.542 -0.1235 -0.6140  0.1348
   56CHL1  H12A 5282   1.744   0.870   3.554 -0.5417 -0.4949 -1.8248
   56CHL1  H12B 5283   1.807   1.041   3.583  1.7365 -0.0444 -0.1697
   56CHL1   C11 5284   1.865   0.939   3.390 -0.6077 -0.3393 -0.0773
   56CHL1  H11A 5285   1.869   0.833   3.356  0.1711 -0.9235  1.6926
   56CHL1  H11B 5286   1.780   0.968   3.325  1.8979  0.8598 -3.0861
   56CHL1    C9 5287   2.001   1.013   3.348  0.1264 -0.0383  0.3092
   56CHL1    H9 5288   1.982   1.122   3.360 -0.8853 -0.3522  1.7596
   56CHL1   C10 5289   2.037   1.012   3.194 -0.3483  0.4881  0.1688
   56CHL1   C19 5290   2.040   0.870   3.151  1.4023  0.1783  0.5429
   56CHL1  H19A 5291   1.933   0.844   3.137  0.8476  1.1976  2.5384
   56CHL1  H19B 5292   2.082   0.862   3.048 -0.9962 -0.9592 -0.4157
   56CHL1  H19C 5293   2.103   0.804   3.214  1.2677 -0.0333  0.4541
   56CHL1    C1 5294   1.940   1.107   3.115 -0.7587 -0.3383  0.7726
   56CHL1   H1A 5295   1.833   1.077   3.108 -0.7465 -0.3333  0.5504
   56CHL1   H1B 5296   1.957   1.201   3.172 -1.6306 -0.9172  2.0452
   56CHL1    C2 5297   1.977   1.142   2.966 -0.0725 -0.6883 -0.2486
   56CHL1   H2A 5298   1.907   1.222   2.933  0.0180 -0.3189  0.4325
   56CHL1   H2B 5299   1.955   1.048   2.912 -2.3730 -1.3653  1.7224
   56CHL1   C20 5300   1.875   0.810   3.876  0.1215 -0.2485 -0.3463
   56CHL1   H20 5301   1.927   0.713   3.873  1.5935  0.4045  1.6803
   56CHL1   C21 5302   1.738   0.802   3.818 -0.4714  0.3451 -0.5837
   56CHL1  H21A 5303   1.718   0.753   3.720 -4.6820  0.8107 -0.1490
   56CHL1  H21B 5304   1.687   0.901   3.817  0.1525  0.7782  2.3506
   56CHL1  H21C 5305   1.669   0.742   3.881 -1.1572 -0.0478 -1.6813
   56CHL1   C22 5306   1.874   0.867   4.025  0.3230  0.2832 -0.1439
   56CHL1  H22A 5307   1.981   0.890   4.047 -0.2838  3.8195 -0.4213
   56CHL1  H22B 5308   1.836   0.971   4.033  0.7025  0.4323 -0.2662
   56CHL1   C23 5309   1.806   0.778   4.133 -0.1088  0.0661  0.7673
   56CHL1  H23A 5310   1.789   0.839   4.224  0.4146 -0.6010  1.3288
   56CHL1  H23B 5311   1.706   0.747   4.097 -0.1555 -0.2407  1.1500
   56CHL1   C24 5312   1.875   0.642   4.150  0.6579 -0.2755  0.2554
   56CHL1  H24A 5313   1.897   0.605   4.047 -1.8273  1.7864 -1.1396
   56CHL1  H24B 5314   1.976   0.649   4.196  1.5294  0.7171 -1.6872
   56CHL1   C25 5315   1.796   0.531   4.231 -0.6938  0.4275 -0.3174
   56CHL1   H25 5316   1.694   0.526   4.187 -1.2450  0.3774  0.9263
   56CHL1   C26 5317   1.861   0.388   4.213 -0.3304 -0.6287  0.2333
   56CHL1  H26A 5318   1.862   0.344   4.111  2.7043 -0.0355 -0.0902
   56CHL1  H26B 5319   1.958   0.389   4.267 -0.1350 -2.8180  0.0052
   56CHL1  H26C 5320   1.790   0.328   4.274 -1.9799  2.4345  1.5397
   56CHL1   C27 5321   1.792   0.563   4.384 -0.1664  0.2852  0.2871
   56CHL1  H27A 5322   1.765   0.464   4.428 -0.0644  0.2495  0.2679
   56CHL1  H27B 5323   1.889   0.581   4.436 -0.6065  1.1519  0.8325
   56CHL1  H27C 5324   1.713   0.637   4.411 -0.8413 -1.1708  2.5659
   57CHL1    C3 5325   1.138   1.566   2.833  0.2800 -0.1707 -0.2474
   57CHL1    H3 5326   1.090   1.469   2.807 -0.7072  0.0077  0.8165
   57CHL1    O3 5327   1.157   1.634   2.709  0.0949  0.3302  0.4205
   57CHL1   H3' 5328   1.206   1.709   2.742  1.3554  0.2310 -1.1235
   57CHL1    C4 5329   1.042   1.646   2.918  0.9431  0.3021 -0.3833
   57CHL1   H4A 5330   1.060   1.755   2.933  1.5658 -0.0180  1.3849
   57CHL1   H4B 5331   0.947   1.653   2.860  0.8577  2.3351 -0.0675
   57CHL1    C5 5332   1.021   1.570   3.049  0.0841 -0.9488 -0.9016
   57CHL1    C6 5333   0.904   1.522   3.088 -0.3642 -0.0852  0.0318
   57CHL1    H6 5334   0.819   1.549   3.024  0.0375  2.3699  0.4248
   57CHL1    C7 5335   0.875   1.446   3.216 -0.6697 -0.4764 -0.3769
   57CHL1   H7A 5336   0.782   1.465   3.274 -0.9177 -3.3054  0.3032
   57CHL1   H7B 5337   0.881   1.335   3.208  1.2355 -0.4395  0.0731
   57CHL1    C8 5338   0.987   1.470   3.320 -0.8064  0.0078 -0.4744
   57CHL1    H8 5339   0.976   1.575   3.357  1.0519 -0.3533  1.3161
   57CHL1   C14 5340   0.973   1.370   3.435 -0.6356  0.7388  0.8330
   57CHL1   H14 5341   0.996   1.270   3.394 -1.8420  0.7282  0.1251
   57CHL1   C15 5342   0.837   1.357   3.494  0.7454 -0.1607 -0.6717
   57CHL1  H15A 5343   0.790   1.457   3.496  0.5158 -0.2560 -1.3163
   57CHL1  H15B 5344   0.774   1.289   3.434  1.5273 -1.0222 -0.5445
   57CHL1   C16 5345   0.845   1.310   3.640  0.2164 -0.2921  0.2450
   57CHL1  H16A 5346   0.788   1.379   3.707 -0.0298 -0.1486 -0.1127
   57CHL1  H16B 5347   0.805   1.207   3.638  0.9675 -0.6912  2.4258
   57CHL1   C17 5348   1.003   1.302   3.657 -0.3627  0.2600 -0.5983
   57CHL1   H17 5349   1.023   1.201   3.614 -2.1071 -0.9284  1.2167
   57CHL1   C13 5350   1.067   1.398   3.543  0.4119  0.3216  0.3822
   57CHL1   C18 5351   1.044   1.539   3.612  0.2343 -0.2383  0.0953
   57CHL1  H18A 5352   1.107   1.541   3.703 -2.9813  2.8949  2.5532
   57CHL1  H18B 5353   1.090   1.611   3.541  2.1639 -1.7182 -0.2208
   57CHL1  H18C 5354   0.946   1.566   3.657  0.1100 -4.6684  3.1572
   57CHL1   C12 5355   1.210   1.373   3.490 -0.0772 -0.1219 -0.3064
   57CHL1  H12A 5356   1.281   1.403   3.570  0.2073 -2.0027  0.2109
   57CHL1  H12B 5357   1.223   1.269   3.453  2.6240  0.9346 -2.7025
   57CHL1   C11 5358   1.238   1.472   3.368  0.1572  0.3093  0.2002
   57CHL1  H11A 5359   1.234   1.573   3.412  1.2875  0.8411 -0.8613
   57CHL1  H11B 5360   1.333   1.450   3.315 -0.2848  2.9452 -1.9059
   57CHL1    C9 5361   1.129   1.458   3.262 -0.3286  1.0797  0.2836
   57CHL1    H9 5362   1.143   1.355   3.225  2.0555  1.6347 -0.6021
   57CHL1   C10 5363   1.150   1.544   3.137  0.0325 -0.9669 -0.1812
   57CHL1   C19 5364   1.198   1.681   3.186 -0.0888 -0.2026  0.1833
   57CHL1  H19A 5365   1.292   1.682   3.246 -0.2402  4.3199  0.6993
   57CHL1  H19B 5366   1.214   1.741   3.093 -0.9126  0.8127  0.6718
   57CHL1  H19C 5367   1.121   1.743   3.237 -1.7457 -0.6871 -1.6307
   57CHL1    C1 5368   1.263   1.486   3.047 -0.1538 -0.1579 -0.1119
   57CHL1   H1A 5369   1.369   1.493   3.080 -0.3560  0.1053  0.4988
   57CHL1   H1B 5370   1.244   1.379   3.024  1.7855 -0.1501 -2.0562
   57CHL1    C2 5371   1.272   1.553   2.904 -0.0852 -0.0488  0.0589
   57CHL1   H2A 5372   1.348   1.503   2.840 -0.1969  2.2085 -1.9519
   57CHL1   H2B 5373   1.314   1.654   2.924  0.8855 -0.5460  0.6414
   57CHL1   C20 5374   1.053   1.300   3.803  0.9634  0.3293  0.5267
   57CHL1   H20 5375   1.041   1.407   3.830 -1.6545 -0.0646  1.2414
   57CHL1   C21 5376   1.200   1.251   3.807  0.7130 -0.1027  0.7905
   57CHL1  H21A 5377   1.232   1.231   3.912 -1.0146  1.3573  1.6545
   57CHL1  H21B 5378   1.259   1.333   3.760  0.4916  0.3861  1.3494
   57CHL1  H21C 5379   1.196   1.153   3.756 -0.0962  0.4701 -0.2918
   57CHL1   C22 5380   0.961   1.222   3.899 -0.4311  0.2989  0.2910
   57CHL1  H22A 5381   1.006   1.245   3.998  1.3208  0.9930 -0.6255
   57CHL1  H22B 5382   0.865   1.279   3.902 -0.0063  1.1252 -1.1095
   57CHL1   C23 5383   0.946   1.073   3.884  0.1336 -0.3822  0.3642
   57CHL1  H23A 5384   0.897   1.048   3.788  0.7755 -1.2691  0.2576
   57CHL1  H23B 5385   1.037   1.009   3.893 -0.0752 -0.4946  1.8339
   57CHL1   C24 5386   0.844   1.024   3.998 -0.0466  0.1949  0.6629
   57CHL1  H24A 5387   0.890   1.031   4.099  0.4017 -1.6623  0.6298
   57CHL1  H24B 5388   0.758   1.094   3.983 -0.6668 -0.4057  1.3481
   57CHL1   C25 5389   0.778   0.884   3.977 -0.1232  0.0383  0.4657
   57CHL1   H25 5390   0.713   0.897   3.888 -0.7749 -1.4064  0.7048
   57CHL1   C26 5391   0.875   0.771   3.945  0.1312 -0.2712  0.2332
   57CHL1  H26A 5392   0.935   0.754   4.036  1.3591  0.6082 -0.3848
   57CHL1  H26B 5393   0.819   0.677   3.923 -1.5056  0.4148  1.2513
   57CHL1  H26C 5394   0.945   0.798   3.863 -1.4111  0.9625 -0.7450
   57CHL1   C27 5395   0.676   0.853   4.091 -0.2146  0.2694  0.1100
   57CHL1  H27A 5396   0.730   0.822   4.183 -0.1367 -0.6680 -0.2358
   57CHL1  H27B 5397   0.631   0.950   4.120  0.3141 -0.3665  3.5350
   57CHL1  H27C 5398   0.596   0.790   4.047 -0.6955  0.3589  0.8470
   58CHL1    C3 5399   5.808   4.529   3.046  0.3049 -0.9307 -0.1058
   58CHL1    H3 5400   5.912   4.492   3.038  0.9433  0.9431 -0.9381
   58CHL1    O3 5401   5.743   4.523   2.920 -0.3451  0.1061 -0.4006
   58CHL1   H3' 5402   5.650   4.549   2.919 -0.6300 -0.7361  1.0525
   58CHL1    C4 5403   5.723   4.448   3.146 -0.0521  0.5073  0.1935
   58CHL1   H4A 5404   5.622   4.491   3.132 -0.2626  0.0700  0.3616
   58CHL1   H4B 5405   5.717   4.341   3.118  0.1892  0.8394 -1.1870
   58CHL1    C5 5406   5.784   4.470   3.289  0.3876  1.4044 -0.2659
   58CHL1    C6 5407   5.825   4.366   3.368  0.3805 -0.4355 -0.6362
   58CHL1    H6 5408   5.809   4.264   3.331  0.8096  0.2000 -2.6673
   58CHL1    C7 5409   5.880   4.392   3.506 -0.1078  0.5692 -0.5699
   58CHL1   H7A 5410   5.835   4.314   3.571  0.0836  0.6161 -0.3774
   58CHL1   H7B 5411   5.991   4.382   3.511  0.1639  1.2696 -3.5226
   58CHL1    C8 5412   5.858   4.534   3.558 -0.2912  0.3156 -0.2444
   58CHL1    H8 5413   5.752   4.536   3.588 -0.0907 -0.5935  0.5725
   58CHL1   C14 5414   5.942   4.562   3.684 -0.0651  0.2815  0.2419
   58CHL1   H14 5415   6.050   4.556   3.657  0.2089  0.2889  1.2698
   58CHL1   C15 5416   5.927   4.458   3.804  0.0459  1.0123 -0.4488
   58CHL1  H15A 5417   5.817   4.446   3.810 -0.2644  2.8095 -1.6259
   58CHL1  H15B 5418   5.984   4.369   3.770 -1.0437  0.6393 -1.3735
   58CHL1   C16 5419   6.002   4.532   3.921 -0.1420  0.1265 -0.8032
   58CHL1  H16A 5420   5.946   4.509   4.014  0.0018  0.2933 -0.6733
   58CHL1  H16B 5421   6.098   4.478   3.935  0.1625  0.9799  0.6436
   58CHL1   C17 5422   6.011   4.678   3.879 -0.2066 -0.7263  0.4192
   58CHL1   H17 5423   6.113   4.696   3.837  0.1568  2.3585  2.3013
   58CHL1   C13 5424   5.927   4.693   3.754 -0.1347 -0.1016 -0.0283
   58CHL1   C18 5425   5.782   4.706   3.792  0.7302  0.3008  0.6620
   58CHL1  H18A 5426   5.772   4.808   3.835  1.7438  0.2133  1.1312
   58CHL1  H18B 5427   5.708   4.701   3.709  1.5108  0.4222 -0.0637
   58CHL1  H18C 5428   5.754   4.630   3.867 -0.6609 -0.4646 -0.5600
   58CHL1   C12 5429   5.961   4.804   3.655  0.3315 -0.6645  0.5807
   58CHL1  H12A 5430   5.940   4.906   3.695  1.0770  0.9988 -2.8892
   58CHL1  H12B 5431   6.067   4.802   3.623  0.0698  1.6826 -0.7102
   58CHL1   C11 5432   5.891   4.791   3.511 -0.4031 -0.4520 -0.5059
   58CHL1  H11A 5433   5.787   4.821   3.536 -0.7175 -1.7283 -0.2531
   58CHL1  H11B 5434   5.928   4.870   3.441  1.6325 -0.0643  0.9078
   58CHL1    C9 5435   5.888   4.642   3.453 -0.3671  0.0145 -0.3606
   58CHL1    H9 5436   5.989   4.612   3.419 -0.8715 -2.6083  0.2499
   58CHL1   C10 5437   5.800   4.616   3.330 -0.1459  0.7315  0.3556
   58CHL1   C19 5438   5.655   4.663   3.355  0.2894 -0.0588 -0.4300
   58CHL1  H19A 5439   5.588   4.641   3.269 -0.0772 -0.6384  0.0055
   58CHL1  H19B 5440   5.617   4.611   3.445  1.2548  1.5236  0.9402
   58CHL1  H19C 5441   5.652   4.774   3.365 -1.1873 -0.1211  0.0313
   58CHL1    C1 5442   5.871   4.691   3.216  0.5183  0.2358 -0.2273
   58CHL1   H1A 5443   5.870   4.798   3.246 -2.7352  0.6862 -1.4524
   58CHL1   H1B 5444   5.973   4.648   3.204 -0.0183 -0.8855 -0.9721
   58CHL1    C2 5445   5.816   4.682   3.077 -0.6179  0.5476  0.2857
   58CHL1   H2A 5446   5.889   4.726   3.005  2.3951 -0.0017  2.8038
   58CHL1   H2B 5447   5.717   4.732   3.084 -0.4597  0.8179  0.6394
   58CHL1   C20 5448   6.004   4.789   3.992  0.4251  0.2497 -0.2594
   58CHL1   H20 5449   6.018   4.884   3.935  2.7466  0.4286  0.5065
   58CHL1   C21 5450   6.132   4.786   4.083 -0.2693 -0.1921 -0.4138
   58CHL1  H21A 5451   6.137   4.873   4.151  0.2429 -1.2270  0.9105
   58CHL1  H21B 5452   6.218   4.791   4.012 -0.3244  1.4468 -0.3864
   58CHL1  H21C 5453   6.141   4.690   4.139  0.3530 -2.2491 -3.7225
   58CHL1   C22 5454   5.875   4.786   4.081 -0.5929 -0.3276 -0.0783
   58CHL1  H22A 5455   5.802   4.715   4.037 -0.2324  1.1074 -3.2149
   58CHL1  H22B 5456   5.895   4.752   4.185 -2.1242  1.2050  0.7661
   58CHL1   C23 5457   5.818   4.926   4.082  0.1045  0.9860  0.8243
   58CHL1  H23A 5458   5.889   5.001   4.123 -1.8473  3.2795  0.2800
   58CHL1  H23B 5459   5.796   4.961   3.979  0.1528  2.0632  1.1608
   58CHL1   C24 5460   5.691   4.937   4.171 -0.1520  0.8075 -0.5848
   58CHL1  H24A 5461   5.632   4.860   4.116  1.2732 -1.7555  1.2219
   58CHL1  H24B 5462   5.710   4.892   4.271 -4.1249  0.7573  0.3294
   58CHL1   C25 5463   5.608   5.064   4.182  0.1204  0.2608  0.4431
   58CHL1   H25 5464   5.529   5.038   4.255 -0.2722 -0.0474 -0.0830
   58CHL1   C26 5465   5.682   5.185   4.252  0.4049 -0.6294  0.2479
   58CHL1  H26A 5466   5.617   5.274   4.263  1.7980  0.3658  0.7179
   58CHL1  H26B 5467   5.714   5.151   4.353  1.4608  0.1583  0.1890
   58CHL1  H26C 5468   5.766   5.221   4.190 -0.7109  1.0822 -0.3505
   58CHL1   C27 5469   5.542   5.097   4.047  0.2555  0.0218 -0.2038
   58CHL1  H27A 5470   5.471   5.182   4.056  1.0475  0.4711  2.3363
   58CHL1  H27B 5471   5.621   5.110   3.969 -0.3078 -1.2703 -1.0358
   58CHL1  H27C 5472   5.475   5.010   4.029 -0.6021  0.7975 -0.8598
   59CHL1    C3 5473   6.598   6.420   2.671  0.2006 -0.8246  1.0286
   59CHL1    H3 5474   6.541   6.326   2.658 -0.0620 -0.2702 -2.7700
   59CHL1    O3 5475   6.656   6.449   2.541 -0.5243  0.4053  0.1305
   59CHL1   H3' 5476   6.585   6.483   2.485 -0.1615 -1.0777 -1.3219
   59CHL1    C4 5477   6.516   6.542   2.719  1.0686  0.9497  0.1175
   59CHL1   H4A 5478   6.574   6.634   2.695  2.1091  1.0260  2.5673
   59CHL1   H4B 5479   6.426   6.565   2.659 -0.9374  1.6633  3.1741
   59CHL1    C5 5480   6.473   6.531   2.867  0.3458 -0.2516  0.1310
   59CHL1    C6 5481   6.348   6.536   2.912 -0.3200 -0.6596  0.4048
   59CHL1    H6 5482   6.266   6.548   2.840 -0.9915  0.7949  1.3619
   59CHL1    C7 5483   6.309   6.541   3.061  0.0415 -0.0818  0.5422
   59CHL1   H7A 5484   6.221   6.606   3.078 -2.1289 -2.5093 -0.6195
   59CHL1   H7B 5485   6.281   6.438   3.091  0.0877 -0.2596 -0.0188
   59CHL1    C8 5486   6.421   6.584   3.157 -0.1195  0.9087  0.0310
   59CHL1    H8 5487   6.442   6.692   3.143  2.3325  0.5275  0.3995
   59CHL1   C14 5488   6.380   6.559   3.299 -0.0822 -0.3975  0.4366
   59CHL1   H14 5489   6.383   6.448   3.299 -0.1292 -0.3993  0.2618
   59CHL1   C15 5490   6.250   6.618   3.350 -0.0415 -0.8594 -0.1546
   59CHL1  H15A 5491   6.242   6.718   3.302 -0.2802 -0.4237  0.7642
   59CHL1  H15B 5492   6.160   6.559   3.322  0.3208 -2.3665  1.6569
   59CHL1   C16 5493   6.266   6.628   3.499  0.1335  0.0134 -0.3686
   59CHL1  H16A 5494   6.249   6.727   3.546  0.5471  0.2250 -0.6618
   59CHL1  H16B 5495   6.194   6.561   3.553  0.1516  0.8884  0.7871
   59CHL1   C17 5496   6.419   6.586   3.537 -0.0404 -0.4193  0.2204
   59CHL1   H17 5497   6.407   6.477   3.553 -0.4289 -0.7371 -1.9057
   59CHL1   C13 5498   6.490   6.608   3.402 -0.4670  0.1660  0.6702
   59CHL1   C18 5499   6.520   6.759   3.395 -0.0014  0.1561  0.0942
   59CHL1  H18A 5500   6.437   6.824   3.429  1.0214 -0.0273  3.2879
   59CHL1  H18B 5501   6.608   6.792   3.454  0.0039  0.8445 -0.2922
   59CHL1  H18C 5502   6.552   6.779   3.290  1.0183 -1.8368 -0.0241
   59CHL1   C12 5503   6.616   6.516   3.366 -0.5510 -0.3958  0.0438
   59CHL1  H12A 5504   6.702   6.526   3.436 -0.1426 -0.1281 -0.4789
   59CHL1  H12B 5505   6.583   6.411   3.378 -1.6874  0.1597  2.3299
   59CHL1   C11 5506   6.669   6.541   3.219 -0.1493  0.1551  1.6201
   59CHL1  H11A 5507   6.698   6.648   3.215 -1.5859  0.5656  1.3030
   59CHL1  H11B 5508   6.754   6.472   3.202 -0.5465  0.0213 -0.0682
   59CHL1    C9 5509   6.550   6.510   3.122 -0.1319 -0.0442  0.0459
   59CHL1    H9 5510   6.531   6.404   3.148 -2.0561  0.2146 -0.1397
   59CHL1   C10 5511   6.588   6.529   2.970 -0.6201  0.5264  0.2105
   59CHL1   C19 5512   6.666   6.667   2.954  0.6480 -0.2523  0.1910
   59CHL1  H19A 5513   6.755   6.677   3.020 -0.3426 -1.6791  1.8394
   59CHL1  H19B 5514   6.693   6.668   2.847 -3.6507 -0.4272 -1.0961
   59CHL1  H19C 5515   6.608   6.758   2.981  0.5831  0.0124 -0.8181
   59CHL1    C1 5516   6.669   6.408   2.918  0.0794 -0.4761 -0.0697
   59CHL1   H1A 5517   6.765   6.411   2.974 -0.7848  0.6382  1.4177
   59CHL1   H1B 5518   6.623   6.309   2.940  3.2081 -1.9066  0.5547
   59CHL1    C2 5519   6.710   6.421   2.773 -0.1039 -0.1426  0.0253
   59CHL1   H2A 5520   6.772   6.331   2.751 -1.4766 -1.4816  1.4622
   59CHL1   H2B 5521   6.764   6.517   2.752 -2.6488  1.4304  0.3018
   59CHL1   C20 5522   6.467   6.662   3.660  0.5376  0.5022 -0.0067
   59CHL1   H20 5523   6.457   6.771   3.641  0.3613  0.6183  0.7084
   59CHL1   C21 5524   6.621   6.648   3.691  0.1045  0.5473 -0.5989
   59CHL1  H21A 5525   6.651   6.708   3.780  0.9177 -1.8582  0.8400
   59CHL1  H21B 5526   6.680   6.683   3.604  0.0942  2.0576 -0.0374
   59CHL1  H21C 5527   6.642   6.544   3.724  0.3436  0.5283 -0.8158
   59CHL1   C22 5528   6.384   6.635   3.790 -0.3921  0.3900  0.1904
   59CHL1  H22A 5529   6.411   6.717   3.860  2.1317 -0.8036  0.7427
   59CHL1  H22B 5530   6.275   6.647   3.771 -0.0430  0.2681 -2.1328
   59CHL1   C23 5531   6.408   6.495   3.861  0.2706  0.1700  0.3083
   59CHL1  H23A 5532   6.392   6.404   3.799  0.4478  0.7792 -0.6591
   59CHL1  H23B 5533   6.517   6.493   3.886 -0.0542  1.4553  2.0109
   59CHL1   C24 5534   6.333   6.481   3.997 -1.0268 -0.3568  0.5064
   59CHL1  H24A 5535   6.352   6.383   4.045 -0.7951 -0.7084 -0.2849
   59CHL1  H24B 5536   6.373   6.553   4.071  0.8060 -0.1980 -0.5594
   59CHL1   C25 5537   6.182   6.506   3.993 -1.2784 -0.2752 -0.4440
   59CHL1   H25 5538   6.169   6.607   3.949 -2.2275 -0.0108  0.4193
   59CHL1   C26 5539   6.109   6.402   3.911 -0.0348  0.2066 -0.2741
   59CHL1  H26A 5540   6.131   6.307   3.963  1.7489  0.0964 -1.1756
   59CHL1  H26B 5541   6.001   6.429   3.919 -0.3614 -1.1111 -0.0234
   59CHL1  H26C 5542   6.146   6.393   3.807  0.4472  1.0318 -0.1825
   59CHL1   C27 5543   6.130   6.518   4.137 -0.0230  0.6864 -0.0313
   59CHL1  H27A 5544   6.163   6.608   4.194  0.4918 -0.2145  1.1443
   59CHL1  H27B 5545   6.019   6.507   4.147 -0.0903  0.9356 -0.4714
   59CHL1  H27C 5546   6.177   6.435   4.194  1.1057 -0.0060 -1.8777
   60CHL1    C3 5547   6.292   4.484   2.701  0.4312 -0.1035  0.5318
   60CHL1    H3 5548   6.283   4.595   2.700 -2.5398 -0.2428 -1.1272
   60CHL1    O3 5549   6.288   4.441   2.566 -0.2228 -0.1660  0.5760
   60CHL1   H3' 5550   6.369   4.391   2.555  0.8512  1.6097  0.0435
   60CHL1    C4 5551   6.425   4.440   2.751  0.2274 -0.1886 -0.4554
   60CHL1   H4A 5552   6.425   4.329   2.747  0.1663 -0.1765 -0.8265
   60CHL1   H4B 5553   6.499   4.479   2.678 -0.4133  1.7988 -0.1098
   60CHL1    C5 5554   6.449   4.493   2.893 -0.1753  0.0477  0.1536
   60CHL1    C6 5555   6.548   4.578   2.927  1.0046  0.0986  0.2160
   60CHL1    H6 5556   6.620   4.603   2.848  0.0000 -2.6966 -1.6991
   60CHL1    C7 5557   6.586   4.619   3.066  0.1094 -0.1105  0.1885
   60CHL1   H7A 5558   6.695   4.616   3.092  0.2777  1.1205 -0.3137
   60CHL1   H7B 5559   6.554   4.725   3.080  3.1303  0.7133  1.9814
   60CHL1    C8 5560   6.503   4.540   3.172  0.5223 -0.0386 -0.1577
   60CHL1    H8 5561   6.540   4.435   3.175  0.3929 -0.2029 -2.4882
   60CHL1   C14 5562   6.514   4.610   3.310  0.0824  0.5165  0.4468
   60CHL1   H14 5563   6.464   4.708   3.299 -0.6405  0.1024 -0.0407
   60CHL1   C15 5564   6.653   4.661   3.350 -0.0110 -0.0040  0.3644
   60CHL1  H15A 5565   6.737   4.591   3.327  0.2033  0.4163 -0.1561
   60CHL1  H15B 5566   6.663   4.763   3.308 -1.4753  1.6502  3.6661
   60CHL1   C16 5567   6.635   4.683   3.500  0.2128 -0.5994 -0.2499
   60CHL1  H16A 5568   6.709   4.613   3.545  0.6261  0.1901  0.3221
   60CHL1  H16B 5569   6.655   4.790   3.525  0.7237 -0.7604  0.0452
   60CHL1   C17 5570   6.487   4.637   3.546  0.4016 -0.8096  0.1213
   60CHL1   H17 5571   6.419   4.725   3.538 -1.0724 -1.9584 -0.3718
   60CHL1   C13 5572   6.442   4.546   3.427  0.2419  0.4659 -0.1122
   60CHL1   C18 5573   6.507   4.407   3.452  0.4803  0.3496 -0.5947
   60CHL1  H18A 5574   6.613   4.409   3.487  0.8255 -2.0912 -1.3378
   60CHL1  H18B 5575   6.458   4.356   3.538  2.5728 -0.0175  0.4631
   60CHL1  H18C 5576   6.496   4.342   3.363 -0.2074 -0.1911 -0.1266
   60CHL1   C12 5577   6.289   4.535   3.391  0.2505 -0.3191 -0.5892
   60CHL1  H12A 5578   6.237   4.474   3.468  0.4514 -1.0400 -1.0215
   60CHL1  H12B 5579   6.240   4.635   3.391  0.2889 -0.2596  1.4151
   60CHL1   C11 5580   6.262   4.480   3.247  0.0795  0.0815 -0.3242
   60CHL1  H11A 5581   6.273   4.370   3.259  0.0597  0.1690  0.5260
   60CHL1  H11B 5582   6.153   4.497   3.235 -0.0059 -0.5504 -0.4682
   60CHL1    C9 5583   6.352   4.524   3.129 -0.7150  0.4534 -0.0842
   60CHL1    H9 5584   6.313   4.627   3.113 -1.4894  0.2022  0.1168
   60CHL1   C10 5585   6.339   4.458   2.992 -0.5993 -0.5033 -0.2160
   60CHL1   C19 5586   6.354   4.302   3.005 -0.7819 -0.0282 -0.6187
   60CHL1  H19A 5587   6.276   4.278   3.081  0.0028  0.7759  0.4684
   60CHL1  H19B 5588   6.339   4.249   2.909  0.7696  0.7423 -1.3160
   60CHL1  H19C 5589   6.448   4.274   3.056 -1.7239 -0.5032  0.9420
   60CHL1    C1 5590   6.200   4.477   2.932  0.3218 -0.4410  0.2120
   60CHL1   H1A 5591   6.121   4.437   3.000  1.1777 -0.7100  1.0623
   60CHL1   H1B 5592   6.176   4.585   2.931  2.7028  0.1446  0.7640
   60CHL1    C2 5593   6.185   4.423   2.786 -0.1056 -0.0815 -0.1468
   60CHL1   H2A 5594   6.087   4.459   2.748  0.8105  1.0803 -1.5170
   60CHL1   H2B 5595   6.190   4.313   2.772  0.5662 -0.1789  0.8406
   60CHL1   C20 5596   6.489   4.577   3.689  0.0222 -0.4945 -0.0180
   60CHL1   H20 5597   6.560   4.492   3.694 -0.0939 -0.7410 -1.8351
   60CHL1   C21 5598   6.342   4.539   3.725 -0.7697  0.1379 -0.3332
   60CHL1  H21A 5599   6.297   4.469   3.651  0.8367 -1.0906 -0.1954
   60CHL1  H21B 5600   6.280   4.631   3.723  0.0625  0.7400  0.4949
   60CHL1  H21C 5601   6.335   4.490   3.825 -0.0907  0.9226  0.1069
   60CHL1   C22 5602   6.545   4.692   3.785 -0.3842  0.8876 -0.6102
   60CHL1  H22A 5603   6.655   4.701   3.775  0.4975 -4.4484  0.9243
   60CHL1  H22B 5604   6.488   4.781   3.753 -0.9995 -0.1860 -2.6557
   60CHL1   C23 5605   6.513   4.653   3.930  0.0266  0.5974  0.5653
   60CHL1  H23A 5606   6.404   4.667   3.947 -0.0212  0.6486  0.2077
   60CHL1  H23B 5607   6.531   4.544   3.944  1.1114  0.6267 -0.4435
   60CHL1   C24 5608   6.588   4.742   4.031  0.0119 -0.1948  0.0745
   60CHL1  H24A 5609   6.696   4.743   4.005  0.7204  1.1244  2.6549
   60CHL1  H24B 5610   6.555   4.848   4.026  1.2385  0.1259 -2.8210
   60CHL1   C25 5611   6.578   4.693   4.170 -0.5738  0.4954 -0.1073
   60CHL1   H25 5612   6.621   4.590   4.171  0.7865  1.0519 -0.0714
   60CHL1   C26 5613   6.666   4.779   4.264  0.1699 -0.2024  0.2559
   60CHL1  H26A 5614   6.626   4.882   4.253 -0.1661 -0.1755  1.5558
   60CHL1  H26B 5615   6.645   4.760   4.372 -1.7168 -0.3473 -0.1039
   60CHL1  H26C 5616   6.775   4.773   4.243 -0.0257 -1.7842 -0.4746
   60CHL1   C27 5617   6.429   4.699   4.208 -0.3306 -0.2700 -0.0904
   60CHL1  H27A 5618   6.389   4.802   4.202  0.0507 -0.0349  1.1314
   60CHL1  H27B 5619   6.361   4.633   4.151 -2.7544 -0.2038  2.5503
   60CHL1  H27C 5620   6.407   4.665   4.311  0.8895 -2.7795 -0.5736
   61CHL1    C3 5621   1.922   5.600   2.942  0.3612  0.4126  0.9942
   61CHL1    H3 5622   1.974   5.502   2.955  0.1471  0.2825  0.8624
   61CHL1    O3 5623   1.913   5.626   2.802  0.3887  0.1393  0.4181
   61CHL1   H3' 5624   1.855   5.701   2.789  0.7417  0.3162 -0.1364
   61CHL1    C4 5625   1.792   5.590   3.006 -0.4123  0.1194  0.5642
   61CHL1   H4A 5626   1.733   5.682   2.986 -0.1450  0.5150  1.5308
   61CHL1   H4B 5627   1.732   5.508   2.960 -2.7934  2.8550 -1.6165
   61CHL1    C5 5628   1.798   5.562   3.158  0.7069 -0.4842  0.0610
   61CHL1    C6 5629   1.737   5.462   3.222  0.9842 -0.2144 -0.5533
   61CHL1    H6 5630   1.675   5.395   3.161  0.2802  0.5216 -0.6616
   61CHL1    C7 5631   1.744   5.440   3.371  0.9556 -0.0508  0.3496
   61CHL1   H7A 5632   1.644   5.416   3.413  0.9817  1.0781  1.0915
   61CHL1   H7B 5633   1.804   5.350   3.397  0.2548 -1.2795 -2.0042
   61CHL1    C8 5634   1.795   5.563   3.449 -0.0172  0.0500 -0.6136
   61CHL1    H8 5635   1.714   5.638   3.456 -0.9395 -0.6893 -2.6279
   61CHL1   C14 5636   1.842   5.525   3.597 -0.2245 -0.0876  0.2816
   61CHL1   H14 5637   1.924   5.453   3.578 -0.4841 -0.4171  0.3906
   61CHL1   C15 5638   1.743   5.443   3.684 -0.3057 -0.1296 -0.0315
   61CHL1  H15A 5639   1.640   5.481   3.669 -0.0103  0.6186 -0.2255
   61CHL1  H15B 5640   1.749   5.334   3.661 -1.5164 -0.0832 -0.5974
   61CHL1   C16 5641   1.787   5.459   3.834  0.6197  0.2783 -0.1067
   61CHL1  H16A 5642   1.725   5.532   3.889  1.7875  2.7418 -1.8819
   61CHL1  H16B 5643   1.810   5.366   3.891  1.3605  1.3287  1.3703
   61CHL1   C17 5644   1.909   5.554   3.827 -0.1268 -0.5393  0.3761
   61CHL1   H17 5645   2.002   5.494   3.815  0.5034  0.6089 -0.6831
   61CHL1   C13 5646   1.901   5.630   3.688 -0.3458  0.7774 -0.4932
   61CHL1   C18 5647   1.804   5.744   3.714  0.2542  0.1076 -0.2345
   61CHL1  H18A 5648   1.700   5.710   3.735  0.3987 -0.4111 -0.3243
   61CHL1  H18B 5649   1.833   5.803   3.803 -0.3857 -2.0708  1.5179
   61CHL1  H18C 5650   1.803   5.815   3.629 -0.5583  0.0003 -0.3197
   61CHL1   C12 5651   2.037   5.665   3.611 -0.0972  0.1303  0.1220
   61CHL1  H12A 5652   2.094   5.739   3.671  0.1913 -0.2508  0.3194
   61CHL1  H12B 5653   2.097   5.573   3.599 -1.2548 -0.7051  0.5618
   61CHL1   C11 5654   1.992   5.721   3.476 -0.3457 -0.0657 -0.0967
   61CHL1  H11A 5655   1.953   5.824   3.489  2.8445  1.0127  2.4952
   61CHL1  H11B 5656   2.091   5.738   3.428  0.3516 -0.4461  1.1602
   61CHL1    C9 5657   1.917   5.618   3.376  0.0350  0.3823 -0.6067
   61CHL1    H9 5658   1.975   5.524   3.368 -2.0407 -1.4565  3.0454
   61CHL1   C10 5659   1.894   5.664   3.232 -0.1680 -0.0649  0.0210
   61CHL1   C19 5660   1.826   5.801   3.232 -0.0197  0.1895 -0.1879
   61CHL1  H19A 5661   1.727   5.801   3.282 -0.3296  1.1733 -0.7657
   61CHL1  H19B 5662   1.887   5.873   3.290  0.4068  0.6206 -1.1461
   61CHL1  H19C 5663   1.808   5.837   3.128  2.6743  0.5477 -0.5993
   61CHL1    C1 5664   2.032   5.675   3.155 -0.2934  0.4143  0.1624
   61CHL1   H1A 5665   2.088   5.759   3.202  1.1425 -0.0519 -0.6602
   61CHL1   H1B 5666   2.086   5.579   3.165  1.8889  1.3488 -1.6902
   61CHL1    C2 5667   2.013   5.705   3.003 -0.4234 -0.3364 -0.8678
   61CHL1   H2A 5668   2.112   5.711   2.953 -0.9362 -0.1756 -1.9036
   61CHL1   H2B 5669   1.978   5.810   2.991  1.1061  0.3493  0.3291
   61CHL1   C20 5670   1.927   5.635   3.949  0.1895  0.2241 -0.2778
   61CHL1   H20 5671   1.859   5.722   3.961 -0.0979 -0.0525  0.1375
   61CHL1   C21 5672   2.068   5.697   3.933  0.0883 -0.0054 -0.0355
   61CHL1  H21A 5673   2.097   5.747   4.028  0.8773  0.6194 -0.5890
   61CHL1  H21B 5674   2.084   5.777   3.858 -1.6513  0.6054  0.1921
   61CHL1  H21C 5675   2.143   5.619   3.912 -2.1050 -1.8085 -1.6561
   61CHL1   C22 5676   1.911   5.557   4.081 -0.1333  0.2086  0.3964
   61CHL1  H22A 5677   1.913   5.448   4.059 -2.3554  0.2542 -0.3465
   61CHL1  H22B 5678   1.994   5.569   4.154 -1.3435 -1.7467  2.2053
   61CHL1   C23 5679   1.787   5.607   4.166 -0.2714  0.3142  0.4799
   61CHL1  H23A 5680   1.793   5.717   4.176  1.9409  0.1636  1.5058
   61CHL1  H23B 5681   1.694   5.584   4.110  0.6374  0.7844 -1.2788
   61CHL1   C24 5682   1.773   5.544   4.306  0.4105 -0.1736  0.8532
   61CHL1  H24A 5683   1.780   5.434   4.293  1.7601 -0.1480  1.2321
   61CHL1  H24B 5684   1.862   5.572   4.367  1.6483 -0.2970 -0.8115
   61CHL1   C25 5685   1.643   5.588   4.373  0.0549 -0.3218  0.3424
   61CHL1   H25 5686   1.559   5.562   4.305  1.7713  0.8064 -2.3551
   61CHL1   C26 5687   1.617   5.502   4.499  0.1469 -0.1432  0.1924
   61CHL1  H26A 5688   1.683   5.551   4.575 -1.1630  1.6671  0.2293
   61CHL1  H26B 5689   1.514   5.512   4.538  0.1746  1.4649 -0.0790
   61CHL1  H26C 5690   1.637   5.394   4.485  0.8793 -0.3056  2.1905
   61CHL1   C27 5691   1.631   5.740   4.404 -0.1442 -0.3427 -0.0950
   61CHL1  H27A 5692   1.715   5.779   4.464 -0.7292 -1.6779  1.6681
   61CHL1  H27B 5693   1.613   5.806   4.316 -0.9712  1.9734  1.7303
   61CHL1  H27C 5694   1.547   5.747   4.477  1.4515 -0.1861  1.7983
   62CHL1    C3 5695   2.634   1.410   2.656  0.2691 -0.3733 -0.3536
   62CHL1    H3 5696   2.691   1.506   2.649 -0.3038  0.1215  1.3923
   62CHL1    O3 5697   2.597   1.388   2.522  0.1161 -0.3317  0.7456
   62CHL1   H3' 5698   2.558   1.472   2.496  1.7117  0.8562  1.9552
   62CHL1    C4 5699   2.731   1.306   2.708 -0.6841  0.1388 -0.6863
   62CHL1   H4A 5700   2.701   1.200   2.688  0.9331 -0.2529 -1.1863
   62CHL1   H4B 5701   2.826   1.326   2.654  0.7637 -2.2157  0.7671
   62CHL1    C5 5702   2.760   1.339   2.858  0.6888 -0.5235 -0.3258
   62CHL1    C6 5703   2.882   1.336   2.916  0.0111 -0.1217  0.2439
   62CHL1    H6 5704   2.969   1.307   2.854  0.1471  0.2218  0.2732
   62CHL1    C7 5705   2.913   1.354   3.060  0.2459 -1.0267  0.8560
   62CHL1   H7A 5706   2.977   1.269   3.093  1.4970 -0.3838  0.1287
   62CHL1   H7B 5707   2.967   1.449   3.079  1.8461 -2.1660  2.3806
   62CHL1    C8 5708   2.787   1.351   3.150  0.6472 -0.0030  0.5068
   62CHL1    H8 5709   2.758   1.245   3.158  1.9907 -0.5951 -1.5771
   62CHL1   C14 5710   2.821   1.385   3.297  0.0963 -0.1417 -0.0639
   62CHL1   H14 5711   2.867   1.486   3.296 -0.5573  0.1704 -1.4234
   62CHL1   C15 5712   2.921   1.302   3.369  0.2726  0.3699 -0.0110
   62CHL1  H15A 5713   2.892   1.196   3.350  0.4365 -0.0262  1.7778
   62CHL1  H15B 5714   3.026   1.324   3.339  0.6850  1.4151  2.0159
   62CHL1   C16 5715   2.905   1.349   3.517 -0.4409  0.3089  0.6335
   62CHL1  H16A 5716   2.902   1.261   3.584 -1.2811  0.7262  1.1615
   62CHL1  H16B 5717   2.994   1.409   3.546  0.2315 -0.1657 -0.3911
   62CHL1   C17 5718   2.772   1.420   3.522  0.5580 -0.1653 -0.7041
   62CHL1   H17 5719   2.800   1.527   3.509 -0.0256  0.1453  0.4107
   62CHL1   C13 5720   2.698   1.389   3.395  0.2382 -0.0250 -0.3361
   62CHL1   C18 5721   2.641   1.250   3.423 -0.0805  1.0155 -0.6211
   62CHL1  H18A 5722   2.554   1.250   3.491  0.5285 -1.2840  0.2557
   62CHL1  H18B 5723   2.620   1.192   3.330  1.5039  1.9912 -1.6496
   62CHL1  H18C 5724   2.714   1.195   3.486 -0.5592  1.2578  0.1614
   62CHL1   C12 5725   2.606   1.493   3.335  0.4427  0.4169 -0.0962
   62CHL1  H12A 5726   2.515   1.510   3.397 -0.0460  0.1573 -0.7324
   62CHL1  H12B 5727   2.655   1.592   3.324  1.1451  0.1790  0.8145
   62CHL1   C11 5728   2.556   1.456   3.190  0.1764 -0.3529 -0.3147
   62CHL1  H11A 5729   2.496   1.364   3.208  0.3647 -0.4256 -0.0533
   62CHL1  H11B 5730   2.482   1.533   3.159 -0.7940 -1.0212  0.2810
   62CHL1    C9 5731   2.674   1.427   3.084  0.4981 -0.0131 -0.6459
   62CHL1    H9 5732   2.715   1.529   3.067 -1.1914  0.3851 -2.6497
   62CHL1   C10 5733   2.632   1.370   2.944 -0.1194 -0.4301  0.8123
   62CHL1   C19 5734   2.561   1.233   2.969  0.8050 -0.5889 -0.2399
   62CHL1  H19A 5735   2.468   1.234   3.031 -0.3500 -1.4370 -1.8748
   62CHL1  H19B 5736   2.518   1.186   2.878 -0.5073  0.2502 -0.0720
   62CHL1  H19C 5737   2.634   1.162   3.014  0.8997  1.4139  3.0445
   62CHL1    C1 5738   2.543   1.479   2.876 -0.5717 -0.1114 -0.3348
   62CHL1   H1A 5739   2.457   1.487   2.947  0.3572 -1.4618  0.9979
   62CHL1   H1B 5740   2.598   1.574   2.859  0.8655 -0.8958 -0.1698
   62CHL1    C2 5741   2.507   1.446   2.735  0.0012  0.5583  0.5123
   62CHL1   H2A 5742   2.464   1.534   2.682  0.3747  0.3368 -0.1733
   62CHL1   H2B 5743   2.436   1.361   2.739 -0.9300  1.2325 -0.8252
   62CHL1   C20 5744   2.705   1.415   3.659 -0.2222  0.5579  0.2083
   62CHL1   H20 5745   2.652   1.318   3.670 -0.9619  0.7775 -1.1849
   62CHL1   C21 5746   2.599   1.531   3.659  0.3184 -0.3318  0.0472
   62CHL1  H21A 5747   2.655   1.624   3.636  0.0980  0.1319  1.2982
   62CHL1  H21B 5748   2.547   1.531   3.757 -2.6221 -2.0383 -1.3610
   62CHL1  H21C 5749   2.522   1.517   3.580 -0.1502  0.2126  0.3973
   62CHL1   C22 5750   2.806   1.432   3.778 -0.2436  0.3786  0.1978
   62CHL1  H22A 5751   2.893   1.363   3.778 -0.7275 -0.2492  1.6620
   62CHL1  H22B 5752   2.842   1.537   3.763 -1.2754  0.5499 -1.3115
   62CHL1   C23 5753   2.749   1.415   3.920 -0.1665 -0.0579  0.9638
   62CHL1  H23A 5754   2.658   1.478   3.918  0.6391  1.1379  0.8837
   62CHL1  H23B 5755   2.716   1.309   3.930  1.0191 -0.3775  1.7064
   62CHL1   C24 5756   2.860   1.456   4.004  0.3538  0.3444  0.4300
   62CHL1  H24A 5757   2.950   1.395   3.984  1.2955  1.6219  0.6556
   62CHL1  H24B 5758   2.891   1.560   3.983 -0.4339  0.2525 -1.3065
   62CHL1   C25 5759   2.823   1.438   4.158 -0.5724 -0.0639  1.3144
   62CHL1   H25 5760   2.766   1.345   4.178 -3.2744  0.8243 -1.4809
   62CHL1   C26 5761   2.946   1.443   4.243 -0.0405 -0.2122  0.0562
   62CHL1  H26A 5762   2.997   1.541   4.230 -1.8557  0.6944 -0.6346
   62CHL1  H26B 5763   2.944   1.425   4.352  0.5128  0.9983  0.2862
   62CHL1  H26C 5764   3.029   1.373   4.219  1.8788  0.6558  3.5499
   62CHL1   C27 5765   2.729   1.551   4.205 -0.1697  0.2888 -0.7759
   62CHL1  H27A 5766   2.771   1.653   4.188 -1.5388  1.1709  0.9017
   62CHL1  H27B 5767   2.627   1.556   4.162 -0.8793 -0.9727  0.6767
   62CHL1  H27C 5768   2.714   1.542   4.315  0.5459  1.6296 -0.5439
   63CHL1    C3 5769   4.673   2.018   3.179 -0.9182 -0.1783 -0.0750
   63CHL1    H3 5770   4.583   2.036   3.241 -1.5330 -1.5160 -0.5447
   63CHL1    O3 5771   4.627   2.036   3.046 -0.0818 -0.3644 -0.3457
   63CHL1   H3' 5772   4.697   2.088   3.005  0.5363 -2.6281 -2.3857
   63CHL1    C4 5773   4.780   2.125   3.209 -0.3250  0.3483 -0.0108
   63CHL1   H4A 5774   4.869   2.098   3.148 -0.0589 -0.6775  0.7917
   63CHL1   H4B 5775   4.735   2.222   3.179  1.0053  0.9757 -0.0346
   63CHL1    C5 5776   4.828   2.118   3.349 -0.0753 -0.9202 -0.8589
   63CHL1    C6 5777   4.817   2.229   3.424  0.6803  0.3528 -1.0180
   63CHL1    H6 5778   4.792   2.327   3.381  1.6788  0.7906 -0.6399
   63CHL1    C7 5779   4.865   2.232   3.565 -1.1651  0.2762  0.1822
   63CHL1   H7A 5780   4.947   2.305   3.580 -1.0693 -0.1257  1.7688
   63CHL1   H7B 5781   4.780   2.254   3.634 -1.0349  0.8106  0.1725
   63CHL1    C8 5782   4.933   2.097   3.615  0.3354  0.8795  0.3649
   63CHL1    H8 5783   5.041   2.097   3.589  0.7854  0.2004  2.0730
   63CHL1   C14 5784   4.921   2.075   3.763  0.3665 -0.1248  0.5131
   63CHL1   H14 5785   4.812   2.060   3.782  0.5530 -0.6263  1.2118
   63CHL1   C15 5786   4.950   2.199   3.854  0.4210 -0.3430  0.0088
   63CHL1  H15A 5787   5.039   2.230   3.795 -1.0398  0.4363 -1.8756
   63CHL1  H15B 5788   4.878   2.283   3.850 -1.0385 -1.5850 -1.5910
   63CHL1   C16 5789   4.983   2.140   3.993  0.2391 -0.5857  0.0454
   63CHL1  H16A 5790   5.088   2.159   4.024  0.2064 -0.7175  0.2410
   63CHL1  H16B 5791   4.909   2.172   4.069 -1.1156  2.0241 -2.2313
   63CHL1   C17 5792   4.972   1.986   3.975  0.0946 -0.0296 -0.6263
   63CHL1   H17 5793   4.862   1.970   3.984 -0.0595 -0.3119 -2.5924
   63CHL1   C13 5794   5.006   1.961   3.822  0.3375 -0.1414 -0.0410
   63CHL1   C18 5795   5.152   1.976   3.799  0.3725  0.2668 -0.0033
   63CHL1  H18A 5796   5.215   1.890   3.832  0.5049  0.1219 -0.6161
   63CHL1  H18B 5797   5.168   2.000   3.692 -2.4080 -0.3952 -0.6425
   63CHL1  H18C 5798   5.198   2.065   3.848  0.0201 -0.0443  0.9160
   63CHL1   C12 5799   4.959   1.827   3.758  0.4078  0.6334 -0.4455
   63CHL1  H12A 5800   5.026   1.741   3.778  0.9980  0.9679 -0.9411
   63CHL1  H12B 5801   4.854   1.808   3.787  0.5833 -1.0162 -0.8144
   63CHL1   C11 5802   4.962   1.841   3.603 -0.2232  0.3709 -0.4946
   63CHL1  H11A 5803   5.068   1.848   3.569 -0.0175 -1.6344 -0.3732
   63CHL1  H11B 5804   4.926   1.750   3.552 -0.1651  0.6494 -1.0375
   63CHL1    C9 5805   4.884   1.968   3.550  0.2872 -0.1717  0.0118
   63CHL1    H9 5806   4.779   1.957   3.584  0.4200 -1.9163 -0.0525
   63CHL1   C10 5807   4.875   1.979   3.397  0.1158 -0.5946  0.0564
   63CHL1   C19 5808   5.007   1.950   3.326  0.5241 -0.9636 -0.5822
   63CHL1  H19A 5809   4.990   1.941   3.217  1.7394 -1.4156 -0.7491
   63CHL1  H19B 5810   5.081   2.028   3.355 -0.1440 -0.3488 -0.5155
   63CHL1  H19C 5811   5.035   1.845   3.351  1.9937 -0.4775 -0.1054
   63CHL1    C1 5812   4.764   1.873   3.357 -1.1741  0.4923  0.1643
   63CHL1   H1A 5813   4.810   1.773   3.373 -1.0445  0.7269  1.4246
   63CHL1   H1B 5814   4.676   1.863   3.424 -0.7380 -2.7383  0.4139
   63CHL1    C2 5815   4.718   1.881   3.208  0.3805  0.2884  0.3774
   63CHL1   H2A 5816   4.632   1.812   3.197 -1.4514  1.8127  3.6269
   63CHL1   H2B 5817   4.796   1.857   3.133  0.7453 -0.3068  0.9272
   63CHL1   C20 5818   5.036   1.905   4.090 -0.4508  0.4921  0.1639
   63CHL1   H20 5819   5.146   1.916   4.073 -0.4953 -0.0426 -0.5010
   63CHL1   C21 5820   4.988   1.757   4.070  0.4617  0.3889  0.0595
   63CHL1  H21A 5821   5.042   1.717   3.982  0.1270 -0.5606  0.2807
   63CHL1  H21B 5822   4.879   1.760   4.053  0.0420  1.3665  2.5408
   63CHL1  H21C 5823   5.019   1.688   4.151 -2.3500 -0.6194  0.3769
   63CHL1   C22 5824   5.000   1.959   4.231 -0.2798  0.2343  0.6985
   63CHL1  H22A 5825   5.013   2.070   4.231  0.5864  0.1625 -0.3412
   63CHL1  H22B 5826   4.893   1.936   4.250 -0.2008  0.6988  1.7509
   63CHL1   C23 5827   5.083   1.887   4.341 -0.4938 -0.6033 -0.1716
   63CHL1  H23A 5828   5.060   1.779   4.350 -0.1907 -0.5935  0.8283
   63CHL1  H23B 5829   5.189   1.910   4.316 -1.0337  2.0859 -0.3256
   63CHL1   C24 5830   5.044   1.939   4.480 -0.5461 -0.3450  0.1218
   63CHL1  H24A 5831   5.003   2.042   4.473 -1.5487 -0.7808 -0.6392
   63CHL1  H24B 5832   4.962   1.878   4.524 -1.3561  0.4448 -0.2437
   63CHL1   C25 5833   5.159   1.947   4.580 -0.8222  0.3561  0.2540
   63CHL1   H25 5834   5.236   2.011   4.532  0.7381 -1.4937  0.1778
   63CHL1   C26 5835   5.106   2.018   4.707 -0.2334  0.8034 -0.3054
   63CHL1  H26A 5836   5.018   1.969   4.755  1.0500 -1.6977 -0.3461
   63CHL1  H26B 5837   5.189   2.018   4.781  0.1845 -1.2895 -0.7166
   63CHL1  H26C 5838   5.092   2.123   4.675 -0.5414  0.6823 -0.5674
   63CHL1   C27 5839   5.238   1.818   4.610 -0.4784  0.1250 -0.2082
   63CHL1  H27A 5840   5.325   1.834   4.677 -0.1974 -2.4045  0.1279
   63CHL1  H27B 5841   5.168   1.748   4.661  0.0731 -0.5454 -0.3674
   63CHL1  H27C 5842   5.282   1.788   4.513 -0.4307  1.6954 -0.6953
   64CHL1    C3 5843   3.998   5.025   2.646  0.2400 -0.5211 -0.0496
   64CHL1    H3 5844   4.081   5.083   2.599  0.8449 -0.7552  0.7035
   64CHL1    O3 5845   3.935   4.941   2.550 -0.0834 -0.7360 -0.7957
   64CHL1   H3' 5846   3.876   5.001   2.505  0.6489 -0.8924 -2.0100
   64CHL1    C4 5847   4.045   4.941   2.757 -0.7244  0.6866 -0.1692
   64CHL1   H4A 5848   3.960   4.876   2.785 -0.8547 -0.0839 -2.2057
   64CHL1   H4B 5849   4.121   4.869   2.720 -0.5101 -0.7751  2.8187
   64CHL1    C5 5850   4.093   5.027   2.875 -0.6669  0.9264 -0.1540
   64CHL1    C6 5851   4.222   5.024   2.909 -0.0513  1.0561  0.8183
   64CHL1    H6 5852   4.284   4.952   2.854 -1.3012  0.6671 -0.1025
   64CHL1    C7 5853   4.277   5.102   3.023  0.7512  0.3540  0.1288
   64CHL1   H7A 5854   4.347   5.038   3.082 -0.1070  1.1110  2.0619
   64CHL1   H7B 5855   4.348   5.181   2.991 -1.7511  2.3990 -0.6515
   64CHL1    C8 5856   4.179   5.177   3.111  0.0863  0.3277 -0.2109
   64CHL1    H8 5857   4.142   5.096   3.178 -1.4933  0.4738 -0.8813
   64CHL1   C14 5858   4.239   5.294   3.176  0.1601  0.1014 -0.7949
   64CHL1   H14 5859   4.261   5.361   3.090 -0.4155  2.1577  0.5814
   64CHL1   C15 5860   4.382   5.283   3.250  0.1352  1.1258  0.8518
   64CHL1  H15A 5861   4.392   5.184   3.301  3.0982 -0.0588 -1.7251
   64CHL1  H15B 5862   4.457   5.290   3.169 -1.4101  1.9182 -0.5486
   64CHL1   C16 5863   4.383   5.411   3.334  0.3484 -0.3923 -0.0376
   64CHL1  H16A 5864   4.403   5.374   3.436  2.0314  1.3407  0.3253
   64CHL1  H16B 5865   4.466   5.482   3.311  0.8899 -0.6287  1.1149
   64CHL1   C17 5866   4.246   5.475   3.316  0.3340 -0.1924 -0.2132
   64CHL1   H17 5867   4.259   5.541   3.228  4.2324 -0.4006  0.0123
   64CHL1   C13 5868   4.146   5.364   3.273 -0.5067 -0.1011 -0.1954
   64CHL1   C18 5869   4.116   5.281   3.400  0.0340  0.5601 -0.1945
   64CHL1  H18A 5870   4.055   5.341   3.470 -1.4975 -0.6431 -0.4484
   64CHL1  H18B 5871   4.044   5.203   3.367 -0.7196  0.9757  0.4472
   64CHL1  H18C 5872   4.204   5.230   3.446 -2.1354 -1.7565  1.6579
   64CHL1   C12 5873   4.028   5.414   3.200 -0.6189  0.5287 -0.2546
   64CHL1  H12A 5874   3.954   5.452   3.275 -0.2803 -1.9633  1.4702
   64CHL1  H12B 5875   4.055   5.485   3.119 -0.2171 -0.3016 -0.8635
   64CHL1   C11 5876   3.960   5.300   3.124 -0.1760 -0.1953  0.6534
   64CHL1  H11A 5877   3.917   5.230   3.199  1.1899 -0.6271  1.0607
   64CHL1  H11B 5878   3.884   5.350   3.060  0.2299 -0.3087  0.0774
   64CHL1    C9 5879   4.057   5.221   3.035  0.0711  0.8849  0.3159
   64CHL1    H9 5880   4.113   5.289   2.967  1.3880 -0.8490 -0.4134
   64CHL1   C10 5881   3.992   5.119   2.941 -0.2791 -0.3579  0.1241
   64CHL1   C19 5882   3.879   5.043   3.015  0.1342 -0.6672  0.2393
   64CHL1  H19A 5883   3.849   4.953   2.957  2.2383 -2.3754  1.6256
   64CHL1  H19B 5884   3.920   5.000   3.109 -0.7387  1.4578  1.6656
   64CHL1  H19C 5885   3.797   5.114   3.040  2.8403  2.5056  0.9116
   64CHL1    C1 5886   3.945   5.203   2.819  0.4982 -0.9008 -0.0259
   64CHL1   H1A 5887   3.864   5.271   2.855 -0.5074 -0.6044 -2.6685
   64CHL1   H1B 5888   4.024   5.270   2.780 -1.2977  0.1568 -2.1065
   64CHL1    C2 5889   3.888   5.124   2.701  0.3868  0.0087  0.3670
   64CHL1   H2A 5890   3.858   5.191   2.619  1.2008 -1.3523 -1.0951
   64CHL1   H2B 5891   3.792   5.072   2.726  0.6452  0.7663  3.3088
   64CHL1   C20 5892   4.210   5.565   3.438  0.2190  0.1269 -0.1893
   64CHL1   H20 5893   4.100   5.572   3.446  0.1898  0.7447 -0.9863
   64CHL1   C21 5894   4.264   5.704   3.395 -0.0625  0.3561  0.2408
   64CHL1  H21A 5895   4.213   5.757   3.312  2.0947 -0.8780 -2.0127
   64CHL1  H21B 5896   4.372   5.699   3.374 -0.1414  1.0276 -0.3205
   64CHL1  H21C 5897   4.257   5.766   3.487 -1.1872 -0.0633  0.4669
   64CHL1   C22 5898   4.266   5.525   3.576  0.7117 -0.1951 -0.2977
   64CHL1  H22A 5899   4.244   5.419   3.598 -0.8786 -0.0584 -1.0868
   64CHL1  H22B 5900   4.376   5.542   3.573  0.5599  0.7133 -1.8750
   64CHL1   C23 5901   4.209   5.608   3.691 -0.8947  0.2671  0.2879
   64CHL1  H23A 5902   4.220   5.718   3.681 -0.8724  0.3465  1.1183
   64CHL1  H23B 5903   4.101   5.583   3.697 -0.7693 -0.3766 -0.0529
   64CHL1   C24 5904   4.270   5.569   3.833  0.0865 -0.3271 -0.3900
   64CHL1  H24A 5905   4.230   5.469   3.861 -2.7092  1.0093  0.9186
   64CHL1  H24B 5906   4.379   5.556   3.820  0.0015 -3.1812  0.8625
   64CHL1   C25 5907   4.253   5.676   3.945  0.2911 -0.1201  0.2121
   64CHL1   H25 5908   4.271   5.771   3.890 -2.1572 -0.2754 -1.0328
   64CHL1   C26 5909   4.108   5.692   4.000 -0.5641  0.2969  0.3999
   64CHL1  H26A 5910   4.049   5.600   3.978  1.4453 -1.2790  1.3450
   64CHL1  H26B 5911   4.112   5.702   4.111  1.0159 -0.4944  0.4437
   64CHL1  H26C 5912   4.058   5.787   3.972  0.7658  1.2740  1.2295
   64CHL1   C27 5913   4.356   5.653   4.063  0.1394 -0.0925 -0.6451
   64CHL1  H27A 5914   4.459   5.632   4.028  0.7535  1.1440  0.3300
   64CHL1  H27B 5915   4.353   5.741   4.131  0.2130 -0.8638  0.3588
   64CHL1  H27C 5916   4.314   5.565   4.114 -2.3671  1.4618  0.1457
   65CHL1    C3 5917   4.487   1.359   3.145 -0.2996 -0.0339  0.7383
   65CHL1    H3 5918   4.397   1.309   3.187 -1.1483  2.4612  2.1103
   65CHL1    O3 5919   4.489   1.368   3.006  0.4902  0.4407  0.4371
   65CHL1   H3' 5920   4.572   1.405   2.977  0.2604 -0.6271 -1.7513
   65CHL1    C4 5921   4.467   1.502   3.198  0.3223  0.0901  0.2235
   65CHL1   H4A 5922   4.544   1.572   3.159 -2.0745  1.5635 -2.2504
   65CHL1   H4B 5923   4.378   1.547   3.149  0.1461  0.6694  1.0609
   65CHL1    C5 5924   4.461   1.505   3.351  0.1771  0.1425  0.1064
   65CHL1    C6 5925   4.357   1.561   3.413  0.5391  0.1755  1.3354
   65CHL1    H6 5926   4.293   1.616   3.342 -0.7133 -0.1385  2.1836
   65CHL1    C7 5927   4.342   1.576   3.557  0.1628 -0.8338  0.8205
   65CHL1   H7A 5928   4.312   1.681   3.578  1.0818 -0.3942  0.0298
   65CHL1   H7B 5929   4.262   1.508   3.595 -2.4238  1.0450 -0.9249
   65CHL1    C8 5930   4.473   1.542   3.626  0.3541  0.6032 -0.7209
   65CHL1    H8 5931   4.535   1.634   3.619 -2.0954  2.4990  0.6586
   65CHL1   C14 5932   4.443   1.528   3.777  0.2498  0.9864  0.0338
   65CHL1   H14 5933   4.374   1.441   3.782  2.1950 -0.6512 -0.4828
   65CHL1   C15 5934   4.360   1.641   3.851 -0.9649  0.6281  0.0823
   65CHL1  H15A 5935   4.400   1.738   3.814 -0.3392  0.7064  0.9482
   65CHL1  H15B 5936   4.253   1.629   3.826 -0.7049 -0.2465 -0.6804
   65CHL1   C16 5937   4.392   1.617   3.994 -0.1233  0.2046 -0.4714
   65CHL1  H16A 5938   4.431   1.701   4.055  0.0447 -0.2264  0.0222
   65CHL1  H16B 5939   4.297   1.579   4.040  0.1903  0.4934  0.4408
   65CHL1   C17 5940   4.501   1.501   3.997  0.3699 -0.5099 -0.7252
   65CHL1   H17 5941   4.435   1.412   4.005 -2.4060  1.5383  0.7505
   65CHL1   C13 5942   4.572   1.498   3.859  0.6796  0.9722 -0.0271
   65CHL1   C18 5943   4.682   1.603   3.847  0.2867  0.1430 -0.2205
   65CHL1  H18A 5944   4.659   1.694   3.907 -0.5959 -0.8031  0.9108
   65CHL1  H18B 5945   4.776   1.561   3.888  1.7694 -0.4878 -3.8012
   65CHL1  H18C 5946   4.705   1.622   3.739 -0.8027 -0.5529 -0.5918
   65CHL1   C12 5947   4.611   1.358   3.805  0.3179 -0.1473 -0.8196
   65CHL1  H12A 5948   4.702   1.318   3.854  0.4762  1.8883  0.6585
   65CHL1  H12B 5949   4.531   1.289   3.840  0.5805  0.8584  2.0340
   65CHL1   C11 5950   4.648   1.355   3.659 -0.3438 -0.1595  0.4651
   65CHL1  H11A 5951   4.739   1.416   3.638 -1.5260  1.0683 -1.4128
   65CHL1  H11B 5952   4.669   1.250   3.631  0.2848  0.4039 -1.3498
   65CHL1    C9 5953   4.535   1.411   3.574 -0.6771 -0.9777 -0.0372
   65CHL1    H9 5954   4.464   1.328   3.595  1.0871 -2.0045  2.2982
   65CHL1   C10 5955   4.572   1.433   3.425  0.5507 -0.1916 -0.1269
   65CHL1   C19 5956   4.698   1.517   3.414  0.0549 -0.7099 -0.2822
   65CHL1  H19A 5957   4.694   1.606   3.481  0.7394  0.2668 -1.4921
   65CHL1  H19B 5958   4.782   1.453   3.448  1.2088  0.5229 -0.6860
   65CHL1  H19C 5959   4.707   1.549   3.308 -3.7215  0.3986 -0.4224
   65CHL1    C1 5960   4.594   1.297   3.367  0.7824  0.0665 -0.0130
   65CHL1   H1A 5961   4.673   1.239   3.420 -1.3437 -0.5360  2.7620
   65CHL1   H1B 5962   4.500   1.239   3.380 -0.0301  1.1803 -0.8080
   65CHL1    C2 5963   4.612   1.303   3.214 -0.1058  0.1675 -0.0244
   65CHL1   H2A 5964   4.623   1.200   3.173 -2.0223 -0.4133  0.7938
   65CHL1   H2B 5965   4.704   1.357   3.186 -0.7301 -0.3565 -3.4747
   65CHL1   C20 5966   4.598   1.512   4.116 -0.0091  0.2871 -0.1599
   65CHL1   H20 5967   4.663   1.601   4.114  1.2546 -0.6107 -1.6220
   65CHL1   C21 5968   4.677   1.377   4.120 -0.5674 -0.0421  0.9566
   65CHL1  H21A 5969   4.766   1.380   4.053 -2.3190  0.9018 -1.4511
   65CHL1  H21B 5970   4.614   1.289   4.100 -1.7072  0.7043  1.1560
   65CHL1  H21C 5971   4.725   1.379   4.221 -1.7084  0.7122  1.5086
   65CHL1   C22 5972   4.521   1.512   4.249  0.0321 -0.3091 -0.2132
   65CHL1  H22A 5973   4.430   1.576   4.247 -0.7542 -1.4107 -0.3856
   65CHL1  H22B 5974   4.478   1.410   4.258  1.7508 -1.2529 -1.8141
   65CHL1   C23 5975   4.610   1.556   4.370 -0.8855  0.3896 -0.0133
   65CHL1  H23A 5976   4.688   1.477   4.361 -1.5193 -0.0663 -1.8464
   65CHL1  H23B 5977   4.653   1.657   4.353  0.1442  0.1438  0.9823
   65CHL1   C24 5978   4.525   1.550   4.491  0.5563  0.2156  0.8618
   65CHL1  H24A 5979   4.447   1.629   4.492 -0.0669 -0.3714  0.2382
   65CHL1  H24B 5980   4.465   1.457   4.490  0.9088 -0.0197  1.2931
   65CHL1   C25 5981   4.601   1.565   4.627  0.1542 -0.1119  0.1679
   65CHL1   H25 5982   4.686   1.495   4.616 -1.0593 -1.2506 -3.1344
   65CHL1   C26 5983   4.657   1.704   4.662  0.5668  0.3751  0.7678
   65CHL1  H26A 5984   4.695   1.690   4.766 -0.1922 -3.8932  0.6547
   65CHL1  H26B 5985   4.746   1.730   4.601  0.9749 -0.6061  0.9188
   65CHL1  H26C 5986   4.572   1.775   4.666 -0.5691 -0.9202  0.4655
   65CHL1   C27 5987   4.512   1.507   4.739  0.3053 -0.4896  0.2133
   65CHL1  H27A 5988   4.466   1.410   4.713  1.8623 -0.3625 -3.6116
   65CHL1  H27B 5989   4.569   1.478   4.830 -0.2451 -2.3974 -0.0201
   65CHL1  H27C 5990   4.434   1.585   4.752 -0.3680 -1.0552 -0.4119
   66CHL1    C3 5991   0.159   2.373   2.793 -0.1822  0.1116  0.3588
   66CHL1    H3 5992   0.233   2.456   2.784 -1.5393  1.7294  2.7492
   66CHL1    O3 5993   0.139   2.312   2.667  0.3707  0.2761  0.5025
   66CHL1   H3' 5994   0.057   2.263   2.677  0.3297  0.0069 -0.9503
   66CHL1    C4 5995   0.202   2.258   2.885 -0.0825 -0.2088 -0.8714
   66CHL1   H4A 5996   0.134   2.170   2.875 -0.4849 -0.3307  2.0530
   66CHL1   H4B 5997   0.308   2.232   2.861  0.7115  0.8048  1.2362
   66CHL1    C5 5998   0.205   2.303   3.036  0.4206  0.5184  0.3247
   66CHL1    C6 5999   0.322   2.299   3.106  0.0976  0.1090  0.6352
   66CHL1    H6 6000   0.407   2.246   3.060 -0.9011 -2.8290  1.9804
   66CHL1    C7 6001   0.339   2.343   3.247  0.7187 -0.1085  0.5562
   66CHL1   H7A 6002   0.403   2.275   3.308 -0.3095  0.2445  2.0851
   66CHL1   H7B 6003   0.389   2.442   3.239 -0.4307  0.4198 -0.3931
   66CHL1    C8 6004   0.202   2.358   3.317 -0.0819 -0.0558 -0.3245
   66CHL1    H8 6005   0.171   2.252   3.332  1.5340 -0.6672 -1.1016
   66CHL1   C14 6006   0.220   2.426   3.449  0.0734  0.4095 -0.6051
   66CHL1   H14 6007   0.264   2.526   3.430  3.2393 -0.9326 -1.0204
   66CHL1   C15 6008   0.321   2.358   3.548 -0.2291 -0.7238  0.0519
   66CHL1  H15A 6009   0.311   2.247   3.546 -0.4140 -0.7081 -1.1729
   66CHL1  H15B 6010   0.428   2.374   3.526 -0.0228 -0.8187  0.9599
   66CHL1   C16 6011   0.265   2.417   3.679 -0.1945  0.5496 -0.6065
   66CHL1  H16A 6012   0.236   2.325   3.735 -1.4144  1.3113  0.0522
   66CHL1  H16B 6013   0.346   2.458   3.743  1.8132 -1.5180 -1.6511
   66CHL1   C17 6014   0.132   2.497   3.653 -0.4257 -0.2575  0.0113
   66CHL1   H17 6015   0.169   2.599   3.630 -1.9314 -0.0422 -1.5807
   66CHL1   C13 6016   0.084   2.450   3.520  0.6109  0.0228 -0.1610
   66CHL1   C18 6017   0.014   2.311   3.536 -0.1096  0.4806  0.2200
   66CHL1  H18A 6018   0.074   2.243   3.600  0.8289 -0.1171 -1.2298
   66CHL1  H18B 6019  -0.083   2.315   3.590 -0.7690 -0.5181 -0.8430
   66CHL1  H18C 6020  -0.016   2.258   3.442 -0.2894 -1.6057  1.3827
   66CHL1   C12 6021   0.002   2.544   3.432  0.1422 -0.0482 -0.2988
   66CHL1  H12A 6022  -0.093   2.589   3.467 -0.2727  0.4430 -1.9811
   66CHL1  H12B 6023   0.065   2.634   3.411  0.1286 -0.0455 -0.3295
   66CHL1   C11 6024  -0.038   2.479   3.298 -0.5422  0.2445 -0.3323
   66CHL1  H11A 6025  -0.107   2.393   3.313 -0.0131 -0.4555 -1.6401
   66CHL1  H11B 6026  -0.089   2.550   3.231  0.5499 -0.3799 -1.8963
   66CHL1    C9 6027   0.095   2.434   3.228  0.2818  0.3033  0.1942
   66CHL1    H9 6028   0.147   2.531   3.214 -0.1214  0.5092  0.1065
   66CHL1   C10 6029   0.072   2.372   3.086  0.5745  0.1833 -0.2645
   66CHL1   C19 6030  -0.033   2.255   3.086 -0.4723 -0.9074 -0.8025
   66CHL1  H19A 6031   0.002   2.175   3.155 -0.1683 -0.5019 -0.4870
   66CHL1  H19B 6032  -0.128   2.297   3.126  0.8919  2.2535 -0.6662
   66CHL1  H19C 6033  -0.051   2.215   2.983 -1.4266 -0.9340 -0.6375
   66CHL1    C1 6034   0.025   2.476   2.983  0.6300 -0.0199  0.2482
   66CHL1   H1A 6035  -0.077   2.516   3.002  1.4147  1.9831  0.4188
   66CHL1   H1B 6036   0.094   2.562   2.983 -1.1348  1.4894 -1.1454
   66CHL1    C2 6037   0.023   2.424   2.841  0.2299 -1.1231 -0.3327
   66CHL1   H2A 6038  -0.013   2.507   2.776 -2.0145 -0.3843  1.7043
   66CHL1   H2B 6039  -0.050   2.341   2.831 -1.0316 -0.3060  1.4364
   66CHL1   C20 6040   0.031   2.488   3.771  0.0212 -0.1211 -0.5428
   66CHL1   H20 6041   0.001   2.387   3.807 -0.2610  0.5918  1.3526
   66CHL1   C21 6042  -0.103   2.566   3.743  0.8161  0.4145  0.3646
   66CHL1  H21A 6043  -0.164   2.558   3.836 -0.6389  0.7301 -0.5285
   66CHL1  H21B 6044  -0.155   2.521   3.657  1.1905  1.5935 -0.5134
   66CHL1  H21C 6045  -0.072   2.670   3.717  0.2316  0.5568  0.2118
   66CHL1   C22 6046   0.085   2.545   3.906  0.2829  0.6014 -0.1038
   66CHL1  H22A 6047   0.177   2.490   3.936  1.7120  3.4913  1.2192
   66CHL1  H22B 6048   0.120   2.649   3.895 -0.3281  0.7245 -0.9750
   66CHL1   C23 6049  -0.011   2.529   4.030 -1.0403 -0.1452  0.4228
   66CHL1  H23A 6050  -0.084   2.613   4.031  0.7486  1.5011  2.1701
   66CHL1  H23B 6051  -0.065   2.432   4.025  0.3692 -0.9144 -3.5297
   66CHL1   C24 6052   0.078   2.516   4.156  0.6240 -1.2291  0.5034
   66CHL1  H24A 6053   0.147   2.433   4.127 -0.1290 -1.6366 -0.1615
   66CHL1  H24B 6054   0.140   2.606   4.172 -1.2470  0.0638  0.7438
   66CHL1   C25 6055  -0.003   2.487   4.286  0.3722 -0.1621  0.5305
   66CHL1   H25 6056  -0.059   2.578   4.319 -0.4118 -0.3254 -0.3200
   66CHL1   C26 6057  -0.098   2.367   4.275  0.3858 -0.3165  0.3057
   66CHL1  H26A 6058  -0.179   2.377   4.200 -1.0652  0.6720  1.9005
   66CHL1  H26B 6059  -0.045   2.272   4.255  0.6197 -0.2128  0.4262
   66CHL1  H26C 6060  -0.139   2.352   4.377 -1.3346  0.4659 -0.2407
   66CHL1   C27 6061   0.102   2.452   4.392 -0.8620 -0.1979 -0.5712
   66CHL1  H27A 6062   0.050   2.424   4.486  1.5341  0.0813  0.9023
   66CHL1  H27B 6063   0.162   2.545   4.403 -0.6078 -0.1656 -2.0043
   66CHL1  H27C 6064   0.168   2.369   4.360  1.3786  1.3471 -0.1782
   67CHL1    C3 6065   6.329   3.366   2.908 -0.5317 -0.9881 -0.0598
   67CHL1    H3 6066   6.237   3.313   2.939 -0.7651  1.0705  3.1955
   67CHL1    O3 6067   6.312   3.442   2.786  0.1229  0.0530  0.0493
   67CHL1   H3' 6068   6.391   3.497   2.785 -0.4982  1.0378  1.5255
   67CHL1    C4 6069   6.362   3.469   3.028  0.9319 -0.1502 -0.2887
   67CHL1   H4A 6070   6.440   3.542   2.999  0.1144  0.7957 -0.1837
   67CHL1   H4B 6071   6.278   3.537   3.055  0.7387 -0.3352 -0.4240
   67CHL1    C5 6072   6.407   3.406   3.154  0.3472  0.3522 -0.4150
   67CHL1    C6 6073   6.327   3.417   3.270 -0.1003 -0.1539 -0.5093
   67CHL1    H6 6074   6.230   3.467   3.267 -0.3946 -0.7285 -0.6791
   67CHL1    C7 6075   6.365   3.344   3.394 -0.5164  0.6101  0.1557
   67CHL1   H7A 6076   6.349   3.418   3.475 -1.5464  1.3093 -0.6569
   67CHL1   H7B 6077   6.299   3.255   3.404  1.3999 -0.9969 -0.6795
   67CHL1    C8 6078   6.514   3.309   3.401 -0.5820  0.7351 -0.2461
   67CHL1    H8 6079   6.574   3.402   3.389  0.7943 -0.1318 -0.3271
   67CHL1   C14 6080   6.568   3.232   3.526  0.0039  0.2610 -0.7423
   67CHL1   H14 6081   6.516   3.135   3.515 -0.7072  0.3112  1.6651
   67CHL1   C15 6082   6.533   3.295   3.662 -0.3784 -0.5600  0.0963
   67CHL1  H15A 6083   6.569   3.400   3.667 -0.3347 -0.6013  0.6918
   67CHL1  H15B 6084   6.425   3.278   3.681 -1.2949  1.3595 -2.7259
   67CHL1   C16 6085   6.621   3.210   3.760  0.5828 -0.1010  0.9408
   67CHL1  H16A 6086   6.684   3.286   3.811 -2.0765  1.2720  2.3930
   67CHL1  H16B 6087   6.548   3.156   3.823 -1.7346  2.4506  0.6274
   67CHL1   C17 6088   6.721   3.124   3.671  0.5992 -0.3253  0.1788
   67CHL1   H17 6089   6.667   3.027   3.660  1.5910 -0.9025  0.2178
   67CHL1   C13 6090   6.719   3.194   3.536  0.2227  0.0515  0.2711
   67CHL1   C18 6091   6.808   3.321   3.541 -0.0702 -0.0171  0.0806
   67CHL1  H18A 6092   6.764   3.390   3.466  0.5669 -1.6446 -1.8631
   67CHL1  H18B 6093   6.805   3.367   3.642 -0.1119 -1.0935  0.5881
   67CHL1  H18C 6094   6.912   3.291   3.515  0.1895  2.0485 -1.5199
   67CHL1   C12 6095   6.748   3.105   3.411 -0.8474 -0.1980  0.2333
   67CHL1  H12A 6096   6.857   3.088   3.401 -0.6589  1.3041 -0.4862
   67CHL1  H12B 6097   6.702   3.004   3.416  1.1578 -1.1989 -0.3751
   67CHL1   C11 6098   6.709   3.182   3.282  0.2693  0.7130 -0.6605
   67CHL1  H11A 6099   6.768   3.276   3.294  0.2702  0.4413  2.5018
   67CHL1  H11B 6100   6.748   3.126   3.194 -0.7742 -3.0289  1.0470
   67CHL1    C9 6101   6.557   3.232   3.273  0.3547 -0.4216  0.4698
   67CHL1    H9 6102   6.498   3.138   3.271 -1.3979  0.5325  2.7191
   67CHL1   C10 6103   6.524   3.315   3.142 -0.4252  0.6492  0.1716
   67CHL1   C19 6104   6.644   3.409   3.107 -0.4607 -0.8744 -1.0186
   67CHL1  H19A 6105   6.631   3.453   3.006  0.7302 -0.7520 -1.1371
   67CHL1  H19B 6106   6.653   3.492   3.179  1.4844 -1.3233 -0.6903
   67CHL1  H19C 6107   6.741   3.355   3.114 -0.0595 -0.0180  0.2501
   67CHL1    C1 6108   6.492   3.210   3.025 -0.5327  0.1353 -0.6475
   67CHL1   H1A 6109   6.583   3.150   3.005 -0.7291 -0.9898  1.4598
   67CHL1   H1B 6110   6.417   3.137   3.063  0.4780 -0.0352  1.1553
   67CHL1    C2 6111   6.444   3.264   2.887 -0.4762 -0.3844  0.0400
   67CHL1   H2A 6112   6.408   3.177   2.828 -0.1684 -0.0982 -0.5803
   67CHL1   H2B 6113   6.534   3.308   2.840  1.5357 -2.8505  1.3310
   67CHL1   C20 6114   6.856   3.105   3.738  0.4309  0.5163  0.1093
   67CHL1   H20 6115   6.905   3.204   3.747 -1.7811  1.6125  0.7572
   67CHL1   C21 6116   6.940   3.004   3.656 -0.4238  0.0201 -0.6647
   67CHL1  H21A 6117   6.883   2.913   3.631 -0.2507 -0.8298  1.7777
   67CHL1  H21B 6118   7.030   2.983   3.717 -1.1448 -0.5092  0.2364
   67CHL1  H21C 6119   6.983   3.049   3.564 -0.3867  1.2870 -0.0558
   67CHL1   C22 6120   6.828   3.055   3.887 -0.6296 -0.6585 -0.3777
   67CHL1  H22A 6121   6.752   3.114   3.943 -1.1781 -0.8788 -0.8907
   67CHL1  H22B 6122   6.802   2.947   3.885  1.3769 -1.3021  2.3767
   67CHL1   C23 6123   6.952   3.068   3.975  0.8614 -0.5867  0.2680
   67CHL1  H23A 6124   7.039   3.006   3.946  1.3219  0.7367 -1.2563
   67CHL1  H23B 6125   6.970   3.177   3.971 -1.0889 -0.2703 -1.6110
   67CHL1   C24 6126   6.906   3.034   4.124  0.3377 -0.0347  0.1808
   67CHL1  H24A 6127   6.826   3.100   4.164  1.7046  1.5603  0.3495
   67CHL1  H24B 6128   6.848   2.940   4.111  0.3867 -0.7315  3.8762
   67CHL1   C25 6129   7.019   2.994   4.224  1.3594  0.3571 -0.3371
   67CHL1   H25 6130   7.083   2.918   4.175  3.3275  1.3887  0.5337
   67CHL1   C26 6131   7.102   3.118   4.253  0.3351  0.5579  0.7395
   67CHL1  H26A 6132   7.187   3.097   4.320  0.2460 -0.4115  0.5686
   67CHL1  H26B 6133   7.139   3.141   4.151 -0.6779  1.0568  0.4629
   67CHL1  H26C 6134   7.036   3.195   4.300  1.3186  1.6753  0.3149
   67CHL1   C27 6135   6.956   2.931   4.354 -0.2422  0.4675  0.6571
   67CHL1  H27A 6136   7.025   2.900   4.435  1.3055  0.0666 -0.7565
   67CHL1  H27B 6137   6.897   3.018   4.391 -1.5482  1.1120 -2.6241
   67CHL1  H27C 6138   6.887   2.847   4.331  0.1489 -0.4548  2.6285
   68CHL1    C3 6139   5.772   5.086   2.734 -0.0453  0.1761  0.1990
   68CHL1    H3 6140   5.820   4.989   2.759 -1.1972 -0.6928 -0.8212
   68CHL1    O3 6141   5.746   5.075   2.594  0.0675  0.1598 -0.2136
   68CHL1   H3' 6142   5.734   5.164   2.561  1.6352 -0.6265 -3.2670
   68CHL1    C4 6143   5.641   5.085   2.818 -0.4487 -1.2193  0.0988
   68CHL1   H4A 6144   5.591   5.178   2.783  2.6039  0.9275  1.0222
   68CHL1   H4B 6145   5.569   5.005   2.791 -2.6668  0.6807  0.1086
   68CHL1    C5 6146   5.678   5.101   2.958 -0.1612  0.6184 -0.7355
   68CHL1    C6 6147   5.626   5.016   3.055 -0.0877  0.0440  0.3356
   68CHL1    H6 6148   5.553   4.938   3.030 -1.2831 -0.2949  4.2287
   68CHL1    C7 6149   5.639   5.038   3.202 -0.2708 -0.3561 -0.1288
   68CHL1   H7A 6150   5.546   5.037   3.263  0.0243 -0.4203  0.3280
   68CHL1   H7B 6151   5.712   4.960   3.233  0.4064  0.4469  0.3608
   68CHL1    C8 6152   5.705   5.175   3.245 -0.0040 -0.1689  0.4135
   68CHL1    H8 6153   5.619   5.246   3.247 -0.6143 -0.9094  1.3431
   68CHL1   C14 6154   5.763   5.168   3.389 -0.7347  0.3092 -0.6238
   68CHL1   H14 6155   5.824   5.076   3.381 -1.1788 -0.0496  0.0072
   68CHL1   C15 6156   5.663   5.134   3.498 -0.0766  0.7404  0.9414
   68CHL1  H15A 6157   5.569   5.193   3.489  0.1630  1.2127  1.4872
   68CHL1  H15B 6158   5.649   5.025   3.510  0.3966  0.2655 -2.0416
   68CHL1   C16 6159   5.723   5.188   3.623 -0.0248 -0.0905 -0.4645
   68CHL1  H16A 6160   5.657   5.270   3.657 -1.3939 -1.4312  0.2353
   68CHL1  H16B 6161   5.737   5.107   3.698  1.8177 -1.4950 -2.2168
   68CHL1   C17 6162   5.861   5.248   3.581 -0.3620  0.4062  0.3584
   68CHL1   H17 6163   5.926   5.159   3.573 -0.2409  0.6967 -4.3177
   68CHL1   C13 6164   5.839   5.294   3.433  0.1992  0.1684  0.5847
   68CHL1   C18 6165   5.744   5.418   3.418  0.8618  1.1709  0.1022
   68CHL1  H18A 6166   5.729   5.432   3.309 -0.2186 -0.1724  0.0484
   68CHL1  H18B 6167   5.646   5.401   3.467  1.5230 -1.0407  0.7610
   68CHL1  H18C 6168   5.788   5.512   3.457  1.6610  0.2549  1.5056
   68CHL1   C12 6169   5.958   5.304   3.337  0.0602  0.2787  0.0487
   68CHL1  H12A 6170   6.013   5.396   3.364 -0.3631 -0.8162  6.0966
   68CHL1  H12B 6171   6.034   5.222   3.341  0.5816  0.6251 -1.8460
   68CHL1   C11 6172   5.913   5.319   3.184 -0.2781  0.4664 -0.6570
   68CHL1  H11A 6173   5.859   5.414   3.165 -3.6528 -1.2566 -0.4759
   68CHL1  H11B 6174   6.000   5.319   3.115 -0.2608 -2.2709 -0.7385
   68CHL1    C9 6175   5.810   5.210   3.142 -0.7903  0.4973  0.2809
   68CHL1    H9 6176   5.878   5.122   3.143 -0.5096  0.7199  1.1887
   68CHL1   C10 6177   5.768   5.226   2.995  0.7605  0.0660  0.3985
   68CHL1   C19 6178   5.675   5.358   2.981 -0.7254  0.3496 -0.3060
   68CHL1  H19A 6179   5.627   5.360   2.880  1.5436 -1.6061 -1.5398
   68CHL1  H19B 6180   5.600   5.368   3.062  0.7249  0.3724  1.0862
   68CHL1  H19C 6181   5.740   5.448   2.974  0.3413 -0.4162 -0.5159
   68CHL1    C1 6182   5.893   5.234   2.907  0.4372 -1.0391  1.0907
   68CHL1   H1A 6183   5.936   5.335   2.920 -0.9535 -0.7994  5.9043
   68CHL1   H1B 6184   5.962   5.161   2.953  1.2015 -0.1743  1.3448
   68CHL1    C2 6185   5.855   5.214   2.757  0.5487 -0.2159 -0.1216
   68CHL1   H2A 6186   5.945   5.204   2.694  0.3967 -0.8089 -0.2544
   68CHL1   H2B 6187   5.799   5.301   2.717  1.3659  0.6909  0.6659
   68CHL1   C20 6188   5.907   5.348   3.687  0.7672 -0.2885 -0.8866
   68CHL1   H20 6189   5.838   5.432   3.710  2.7736  1.2113  0.0322
   68CHL1   C21 6190   6.043   5.416   3.631 -0.0442  0.1148  0.8295
   68CHL1  H21A 6191   6.099   5.327   3.594 -0.2478 -0.0923  1.0139
   68CHL1  H21B 6192   6.105   5.463   3.709 -1.4956  3.4110  0.1624
   68CHL1  H21C 6193   6.033   5.494   3.553  1.0175 -2.0260 -1.6383
   68CHL1   C22 6194   5.940   5.277   3.822  0.1933 -0.8334 -0.4734
   68CHL1  H22A 6195   5.849   5.218   3.846 -0.0730  0.2037  1.2345
   68CHL1  H22B 6196   6.029   5.213   3.802  2.1298  1.4834  0.2822
   68CHL1   C23 6197   5.964   5.380   3.940  0.6338  0.1860  0.0482
   68CHL1  H23A 6198   6.050   5.449   3.924  0.6523  1.2315  3.7532
   68CHL1  H23B 6199   5.874   5.443   3.955  0.9136  0.2876  1.4460
   68CHL1   C24 6200   6.000   5.316   4.070 -0.1037  0.7974 -0.5501
   68CHL1  H24A 6201   5.930   5.233   4.094  1.5427 -0.6329 -0.4686
   68CHL1  H24B 6202   6.097   5.264   4.052 -1.2440 -2.1289  1.0456
   68CHL1   C25 6203   6.040   5.392   4.195  0.8720  0.3633  0.0255
   68CHL1   H25 6204   6.145   5.429   4.183  1.6345 -0.4607  3.2355
   68CHL1   C26 6205   5.936   5.498   4.232  0.6485 -0.0676 -0.1826
   68CHL1  H26A 6206   5.839   5.446   4.246 -0.0140  1.5188  1.5048
   68CHL1  H26B 6207   5.960   5.558   4.322  0.5101 -1.2092  0.6459
   68CHL1  H26C 6208   5.925   5.569   4.147  0.7127 -3.0050 -2.8200
   68CHL1   C27 6209   6.053   5.296   4.324  0.5693 -0.2616  0.8238
   68CHL1  H27A 6210   6.072   5.368   4.407  0.5836  0.7280 -0.0186
   68CHL1  H27B 6211   5.958   5.242   4.343  0.6791 -0.0331  2.1084
   68CHL1  H27C 6212   6.137   5.224   4.318 -0.2764 -1.1989 -0.3102
   69CHL1    C3 6213   1.836   4.007   2.589  0.7148 -0.1864  0.7112
   69CHL1    H3 6214   1.765   3.922   2.595 -1.8597  1.8875  1.5668
   69CHL1    O3 6215   1.833   4.064   2.460  0.1312 -0.0782  0.9333
   69CHL1   H3' 6216   1.895   4.138   2.460  0.7268 -0.5733  0.3936
   69CHL1    C4 6217   1.778   4.108   2.690 -0.2992 -0.1790  0.0423
   69CHL1   H4A 6218   1.813   4.213   2.674  0.1680 -0.4592 -0.8591
   69CHL1   H4B 6219   1.673   4.118   2.658 -0.0768  1.8422 -0.1687
   69CHL1    C5 6220   1.794   4.065   2.832  0.0414  0.0823 -0.1362
   69CHL1    C6 6221   1.684   4.058   2.911  0.0200 -0.0044 -0.0762
   69CHL1    H6 6222   1.588   4.092   2.868 -0.9673 -3.7479 -1.2102
   69CHL1    C7 6223   1.680   4.019   3.059 -0.4440 -0.0579 -0.3115
   69CHL1   H7A 6224   1.595   4.064   3.114  0.1020  0.0097  0.4864
   69CHL1   H7B 6225   1.652   3.912   3.056 -0.4851 -0.0562  0.0475
   69CHL1    C8 6226   1.825   4.032   3.118  0.3121 -0.3325  0.0276
   69CHL1    H8 6227   1.843   4.140   3.132  1.1730 -0.5542  0.7670
   69CHL1   C14 6228   1.831   3.967   3.254 -1.1674  0.0402 -0.2078
   69CHL1   H14 6229   1.805   3.860   3.249 -0.2508 -0.2913  1.3772
   69CHL1   C15 6230   1.736   4.021   3.357  0.0525  0.2683 -0.1485
   69CHL1  H15A 6231   1.739   4.132   3.362  0.7391  0.2683 -0.4329
   69CHL1  H15B 6232   1.631   3.983   3.349 -0.8463  2.2639  1.2435
   69CHL1   C16 6233   1.800   3.986   3.489  0.0287  0.2677 -0.2922
   69CHL1  H16A 6234   1.803   4.080   3.549  2.0410 -1.6474  2.9141
   69CHL1  H16B 6235   1.728   3.918   3.538 -1.2835 -0.6725 -3.2769
   69CHL1   C17 6236   1.938   3.918   3.460 -0.1920 -0.2491  0.1035
   69CHL1   H17 6237   1.906   3.812   3.450  2.3735 -1.2916  1.8990
   69CHL1   C13 6238   1.974   3.970   3.316  0.4900 -0.7533 -0.2470
   69CHL1   C18 6239   2.021   4.118   3.324 -0.7016  0.7374  0.3833
   69CHL1  H18A 6240   2.035   4.160   3.222  1.8848 -1.3310 -0.2313
   69CHL1  H18B 6241   1.956   4.181   3.389 -0.0104  0.7987  1.0384
   69CHL1  H18C 6242   2.127   4.122   3.360  0.2148  3.9750 -2.1521
   69CHL1   C12 6243   2.073   3.881   3.228  0.4798 -0.4461  0.2217
   69CHL1  H12A 6244   2.175   3.895   3.271  1.6273 -1.1778 -2.1128
   69CHL1  H12B 6245   2.041   3.775   3.234 -1.5758  0.1003 -0.3609
   69CHL1   C11 6246   2.069   3.937   3.087 -0.4170  0.0030 -1.0120
   69CHL1  H11A 6247   2.109   4.040   3.096  2.5127 -0.8418 -3.0084
   69CHL1  H11B 6248   2.144   3.884   3.026  0.9402 -0.1686  0.7109
   69CHL1    C9 6249   1.929   3.954   3.024 -0.0681  0.5354 -0.4994
   69CHL1    H9 6250   1.883   3.853   3.017  0.7283  0.1819 -0.7089
   69CHL1   C10 6251   1.935   4.013   2.877  0.6038 -0.9531  0.4372
   69CHL1   C19 6252   2.031   4.136   2.876  0.3558 -0.2760 -0.0992
   69CHL1  H19A 6253   2.003   4.194   2.786 -2.0974 -0.7511  0.2951
   69CHL1  H19B 6254   2.017   4.206   2.962  1.9497 -0.2215  0.1477
   69CHL1  H19C 6255   2.137   4.103   2.884 -0.0615 -1.3444  1.2903
   69CHL1    C1 6256   1.979   3.905   2.769 -0.2512  0.0633  0.1717
   69CHL1   H1A 6257   2.084   3.878   2.796 -0.3325  0.6598  1.1204
   69CHL1   H1B 6258   1.910   3.819   2.785 -1.2434  0.1888 -2.8400
   69CHL1    C2 6259   1.978   3.964   2.633  0.7123  0.1266  0.5363
   69CHL1   H2A 6260   2.018   3.894   2.556  0.0451  0.4258 -0.0859
   69CHL1   H2B 6261   2.049   4.049   2.634  0.3748  0.4167  1.8417
   69CHL1   C20 6262   2.053   3.930   3.564 -0.0098 -0.0264 -0.4424
   69CHL1   H20 6263   2.116   4.021   3.561 -0.0655  0.1802  2.3342
   69CHL1   C21 6264   2.164   3.815   3.544 -0.1743 -0.5186  0.5516
   69CHL1  H21A 6265   2.107   3.720   3.557 -0.2399 -0.3723  1.3641
   69CHL1  H21B 6266   2.250   3.835   3.611  0.4519  0.0909 -0.4025
   69CHL1  H21C 6267   2.200   3.804   3.439  0.0754 -0.1557  0.5992
   69CHL1   C22 6268   2.007   3.907   3.706 -0.0297 -0.2747 -0.2373
   69CHL1  H22A 6269   1.911   3.959   3.728 -0.5488 -0.9646 -0.8378
   69CHL1  H22B 6270   1.976   3.803   3.733 -2.3344  0.0711 -1.2961
   69CHL1   C23 6271   2.100   3.954   3.815 -0.2086 -0.0231  0.2673
   69CHL1  H23A 6272   2.200   3.906   3.812 -0.8653 -1.3973 -0.8367
   69CHL1  H23B 6273   2.130   4.061   3.804  4.0547 -1.0819 -0.0490
   69CHL1   C24 6274   2.049   3.971   3.958  0.0202  0.0564 -0.2070
   69CHL1  H24A 6275   2.115   4.013   4.036 -0.7261 -0.8146  0.9302
   69CHL1  H24B 6276   1.967   4.046   3.950 -0.5666 -0.3333  1.6375
   69CHL1   C25 6277   2.000   3.844   4.029  0.1203  0.1680  0.1840
   69CHL1   H25 6278   1.949   3.786   3.949 -2.2618  1.1314  0.9085
   69CHL1   C26 6279   2.112   3.767   4.102  0.5197 -0.2376 -0.1641
   69CHL1  H26A 6280   2.085   3.679   4.164 -0.8229  0.8878  0.9188
   69CHL1  H26B 6281   2.181   3.730   4.024 -0.4058 -2.0240 -0.1861
   69CHL1  H26C 6282   2.166   3.842   4.163  0.5117  0.7249 -1.3007
   69CHL1   C27 6283   1.897   3.885   4.127 -0.4463 -0.1603 -1.0201
   69CHL1  H27A 6284   1.856   3.792   4.171 -1.1170  0.3839 -0.4712
   69CHL1  H27B 6285   1.965   3.935   4.199 -1.8420  0.6745 -0.2165
   69CHL1  H27C 6286   1.817   3.955   4.093 -1.0089 -0.5570 -0.5335
   70CHL1    C3 6287   5.866   6.830   2.854  0.8681  0.0541 -0.6738
   70CHL1    H3 6288   5.893   6.935   2.877 -1.0892  0.1758  1.4739
   70CHL1    O3 6289   5.908   6.812   2.717 -0.9460  0.2483 -0.2727
   70CHL1   H3' 6290   5.866   6.733   2.685 -0.5571 -0.4376  0.8546
   70CHL1    C4 6291   5.937   6.737   2.955  0.0460 -0.3601  0.6762
   70CHL1   H4A 6292   5.912   6.637   2.912  1.5914  0.8765 -3.5857
   70CHL1   H4B 6293   6.047   6.754   2.953 -0.2869  2.0580 -0.4982
   70CHL1    C5 6294   5.885   6.752   3.089  0.1583 -0.1257 -1.0599
   70CHL1    C6 6295   5.971   6.797   3.184 -0.0519  0.6002 -0.0709
   70CHL1    H6 6296   6.078   6.799   3.160 -0.4741  2.8989 -2.2064
   70CHL1    C7 6297   5.929   6.845   3.326  0.4371  0.0329  0.5581
   70CHL1   H7A 6298   6.001   6.804   3.399  2.3031 -1.9047 -2.1480
   70CHL1   H7B 6299   5.915   6.954   3.339 -0.1954 -0.0407  0.5281
   70CHL1    C8 6300   5.789   6.780   3.356  0.6155 -0.5870 -0.4231
   70CHL1    H8 6301   5.794   6.670   3.348 -0.2390 -0.6662 -0.0329
   70CHL1   C14 6302   5.734   6.829   3.488 -0.5300 -0.7119  0.0080
   70CHL1   H14 6303   5.734   6.940   3.476 -2.7193  0.0512  4.5689
   70CHL1   C15 6304   5.824   6.808   3.612  0.5485 -0.6844 -0.5949
   70CHL1  H15A 6305   5.875   6.710   3.623 -2.9416 -2.9497 -2.4777
   70CHL1  H15B 6306   5.896   6.892   3.617 -2.4999  2.1532 -0.5531
   70CHL1   C16 6307   5.730   6.833   3.730  0.3742  0.6963  0.5254
   70CHL1  H16A 6308   5.732   6.742   3.794 -0.7425  0.5179  0.3182
   70CHL1  H16B 6309   5.764   6.919   3.791  1.6195 -0.3081  1.3046
   70CHL1   C17 6310   5.588   6.861   3.667 -0.6202  0.6180  0.0140
   70CHL1   H17 6311   5.590   6.970   3.644  1.6593  0.5820 -0.1611
   70CHL1   C13 6312   5.593   6.793   3.526  0.5440 -0.0901  0.6298
   70CHL1   C18 6313   5.578   6.644   3.547  0.0715 -0.5724  0.0889
   70CHL1  H18A 6314   5.624   6.615   3.644 -1.2078  0.7514  1.1364
   70CHL1  H18B 6315   5.475   6.604   3.553  1.0548 -3.2612  0.4644
   70CHL1  H18C 6316   5.625   6.590   3.462 -2.2848 -2.6162 -0.0374
   70CHL1   C12 6317   5.502   6.843   3.407  0.1193  0.2070 -0.0987
   70CHL1  H12A 6318   5.392   6.826   3.410  0.1332  0.0788 -0.2759
   70CHL1  H12B 6319   5.528   6.951   3.402 -2.2666  0.8192 -0.8087
   70CHL1   C11 6320   5.547   6.774   3.275  0.0813  0.2881 -0.1287
   70CHL1  H11A 6321   5.528   6.666   3.290 -0.9839  0.5298  0.3670
   70CHL1  H11B 6322   5.475   6.804   3.196 -0.6533 -1.3466 -0.1109
   70CHL1    C9 6323   5.695   6.812   3.243  0.8897  0.6553  0.1858
   70CHL1    H9 6324   5.698   6.921   3.220  0.4782  0.2830 -1.8772
   70CHL1   C10 6325   5.732   6.742   3.102 -0.1631 -0.2209 -0.3179
   70CHL1   C19 6326   5.688   6.599   3.108  0.6263 -1.2719 -0.0830
   70CHL1  H19A 6327   5.581   6.574   3.098  0.3130 -0.2378  0.5559
   70CHL1  H19B 6328   5.736   6.547   3.022  0.6735 -0.8661 -0.3051
   70CHL1  H19C 6329   5.740   6.550   3.193  0.1770 -1.9676 -0.2072
   70CHL1    C1 6330   5.649   6.811   2.991  0.4535  0.4187 -0.1221
   70CHL1   H1A 6331   5.543   6.779   2.993  0.7600 -0.6209  1.4580
   70CHL1   H1B 6332   5.658   6.919   3.018  0.2026  0.6898 -1.0978
   70CHL1    C2 6333   5.712   6.801   2.848 -0.7249 -0.6627  0.3095
   70CHL1   H2A 6334   5.654   6.868   2.782 -0.1702  1.0568  1.4890
   70CHL1   H2B 6335   5.700   6.695   2.818  2.2123 -0.5810 -1.4673
   70CHL1   C20 6336   5.478   6.814   3.759 -0.0076 -0.7312  0.9732
   70CHL1   H20 6337   5.501   6.706   3.771 -0.9286 -0.9419  0.8721
   70CHL1   C21 6338   5.337   6.831   3.683 -1.4570 -0.6317 -0.2882
   70CHL1  H21A 6339   5.334   6.936   3.649  2.4546 -0.8510 -1.8514
   70CHL1  H21B 6340   5.252   6.805   3.749 -1.8054  0.0023 -0.4859
   70CHL1  H21C 6341   5.329   6.760   3.597  2.9291 -0.6099 -0.9414
   70CHL1   C22 6342   5.483   6.875   3.904 -0.6887  0.3404  0.9020
   70CHL1  H22A 6343   5.586   6.882   3.943 -1.0263 -0.1962  1.9197
   70CHL1  H22B 6344   5.430   6.972   3.893 -1.4755 -0.2219 -0.6843
   70CHL1   C23 6345   5.411   6.788   4.005  0.4100 -0.0916  0.1616
   70CHL1  H23A 6346   5.302   6.800   3.987 -0.1415 -2.3389  1.5620
   70CHL1  H23B 6347   5.439   6.681   3.997  2.3730  0.3731  0.4412
   70CHL1   C24 6348   5.453   6.832   4.145  0.2989 -0.2730 -0.1047
   70CHL1  H24A 6349   5.560   6.805   4.158  0.4430 -0.1012 -0.8556
   70CHL1  H24B 6350   5.437   6.941   4.153  1.7305 -0.0789  0.4939
   70CHL1   C25 6351   5.368   6.776   4.260  0.3294 -0.3887  0.2136
   70CHL1   H25 6352   5.407   6.826   4.352 -0.3470  1.5378 -0.4934
   70CHL1   C26 6353   5.223   6.814   4.231  0.2828 -0.3540 -0.1030
   70CHL1  H26A 6354   5.167   6.774   4.317  0.7456 -1.2440 -0.2091
   70CHL1  H26B 6355   5.222   6.925   4.227 -1.1323 -0.3702 -0.6569
   70CHL1  H26C 6356   5.199   6.781   4.128  2.1355  1.3560 -1.1740
   70CHL1   C27 6357   5.376   6.622   4.276 -0.2950 -0.3953  0.0790
   70CHL1  H27A 6358   5.479   6.581   4.288  0.2537  1.0258  0.3868
   70CHL1  H27B 6359   5.316   6.581   4.360  1.3773 -0.6336  1.1947
   70CHL1  H27C 6360   5.357   6.584   4.173  0.9139  0.8804 -0.6399
   71CHL1    C3 6361   3.366   5.151   2.832 -0.8949  0.8464 -0.2267
   71CHL1    H3 6362   3.302   5.240   2.817 -1.9666 -0.1015 -1.5364
   71CHL1    O3 6363   3.380   5.115   2.696  0.2634  0.3616 -0.3578
   71CHL1   H3' 6364   3.448   5.048   2.705 -1.4066 -1.1242  2.6311
   71CHL1    C4 6365   3.498   5.207   2.900  0.3405  0.6068  0.2513
   71CHL1   H4A 6366   3.576   5.127   2.903  0.1458 -0.0614 -4.6481
   71CHL1   H4B 6367   3.538   5.286   2.832  1.7256  0.9725  1.4279
   71CHL1    C5 6368   3.463   5.259   3.039  0.1928  0.8710  0.1227
   71CHL1    C6 6369   3.490   5.381   3.081 -0.1637 -0.4283 -0.4151
   71CHL1    H6 6370   3.558   5.443   3.021  0.7850 -1.8944 -0.9127
   71CHL1    C7 6371   3.472   5.430   3.224 -0.8373 -0.2290  0.2394
   71CHL1   H7A 6372   3.557   5.488   3.266 -0.3431 -0.3777 -0.5538
   71CHL1   H7B 6373   3.376   5.486   3.221 -0.2572  0.7555 -0.6946
   71CHL1    C8 6374   3.433   5.307   3.314 -0.0803  0.0743 -0.4952
   71CHL1    H8 6375   3.521   5.242   3.333  0.6566  1.0841 -0.3696
   71CHL1   C14 6376   3.383   5.354   3.450  0.2331  0.2190  0.1465
   71CHL1   H14 6377   3.285   5.400   3.423 -0.0226 -0.9765 -1.0742
   71CHL1   C15 6378   3.461   5.460   3.520  0.6494 -0.0876 -0.1806
   71CHL1  H15A 6379   3.561   5.413   3.529  0.8017  0.3449  0.4193
   71CHL1  H15B 6380   3.458   5.560   3.471 -2.1666  0.8174  1.5681
   71CHL1   C16 6381   3.402   5.461   3.661  0.5782 -0.4543 -0.2979
   71CHL1  H16A 6382   3.484   5.458   3.735 -0.1689  1.3227  0.6708
   71CHL1  H16B 6383   3.339   5.552   3.669  1.8532  0.5860 -1.5203
   71CHL1   C17 6384   3.300   5.335   3.673 -0.0063 -0.2509 -0.5669
   71CHL1   H17 6385   3.198   5.361   3.638 -0.1780 -1.3565 -0.9129
   71CHL1   C13 6386   3.341   5.243   3.554  0.3613 -0.0646 -0.2769
   71CHL1   C18 6387   3.459   5.162   3.601 -0.6891  0.3852 -0.7863
   71CHL1  H18A 6388   3.437   5.097   3.688  1.6291  1.5681  0.7859
   71CHL1  H18B 6389   3.496   5.079   3.536 -1.5843 -2.1230  1.7096
   71CHL1  H18C 6390   3.550   5.218   3.630  1.6790 -4.0900  1.4571
   71CHL1   C12 6391   3.225   5.167   3.495 -0.3260  0.2445 -0.0197
   71CHL1  H12A 6392   3.205   5.083   3.565 -1.2580 -0.0808 -0.6654
   71CHL1  H12B 6393   3.132   5.227   3.495  1.3864  3.1478  1.0967
   71CHL1   C11 6394   3.264   5.114   3.361 -0.6697  1.1733  0.5244
   71CHL1  H11A 6395   3.340   5.039   3.392 -1.3281 -0.1768 -0.9662
   71CHL1  H11B 6396   3.191   5.051   3.307  2.4397 -2.2847 -0.1089
   71CHL1    C9 6397   3.327   5.215   3.257 -0.6534 -0.2690 -0.7895
   71CHL1    H9 6398   3.238   5.277   3.231  0.5801  1.6249 -0.6060
   71CHL1   C10 6399   3.382   5.155   3.124 -0.2684  0.5559  0.3040
   71CHL1   C19 6400   3.479   5.034   3.158  0.3572 -0.7596 -0.7338
   71CHL1  H19A 6401   3.570   5.066   3.214 -1.0761  1.3248  0.5122
   71CHL1  H19B 6402   3.430   4.955   3.219  0.0063  0.4277  0.5710
   71CHL1  H19C 6403   3.516   4.991   3.062  0.8629 -0.9382 -0.4643
   71CHL1    C1 6404   3.255   5.103   3.046  0.0732 -0.2443  0.7471
   71CHL1   H1A 6405   3.195   5.020   3.089 -0.4405 -0.0217  0.4639
   71CHL1   H1B 6406   3.184   5.187   3.032 -1.4333 -1.1347  2.5662
   71CHL1    C2 6407   3.294   5.049   2.909  0.6954  1.1682  0.1069
   71CHL1   H2A 6408   3.197   5.022   2.863  1.5674 -0.3531 -0.9489
   71CHL1   H2B 6409   3.347   4.951   2.912 -4.3373 -1.8817  0.2356
   71CHL1   C20 6410   3.302   5.273   3.817 -0.0568 -0.4555  0.1644
   71CHL1   H20 6411   3.400   5.239   3.858  0.2167  0.9460  0.7125
   71CHL1   C21 6412   3.202   5.151   3.823  0.8210  0.0779  0.0100
   71CHL1  H21A 6413   3.243   5.068   3.762  1.7271  0.2576  0.3717
   71CHL1  H21B 6414   3.108   5.186   3.774  0.7960  0.4986  0.3519
   71CHL1  H21C 6415   3.180   5.115   3.926 -0.7949 -1.9900 -0.9871
   71CHL1   C22 6416   3.254   5.382   3.921  0.8509 -0.6206 -0.2811
   71CHL1  H22A 6417   3.257   5.490   3.897  1.6919 -0.0626  2.0711
   71CHL1  H22B 6418   3.145   5.359   3.922  0.3884  1.3765 -0.7938
   71CHL1   C23 6419   3.304   5.366   4.067  0.7105  0.6086  0.4317
   71CHL1  H23A 6420   3.318   5.260   4.099 -0.8162 -0.0593 -0.9516
   71CHL1  H23B 6421   3.409   5.402   4.065  1.3803 -1.0564  2.2156
   71CHL1   C24 6422   3.212   5.419   4.179  0.6989  0.2414  0.3382
   71CHL1  H24A 6423   3.191   5.527   4.170 -0.2944  0.0736  0.5504
   71CHL1  H24B 6424   3.110   5.375   4.166  1.4306 -1.0817 -1.4828
   71CHL1   C25 6425   3.263   5.402   4.320  0.1033 -0.1726  0.2336
   71CHL1   H25 6426   3.266   5.295   4.351  1.9870 -1.0567 -2.6223
   71CHL1   C26 6427   3.412   5.452   4.334 -0.4470 -0.2966 -0.3765
   71CHL1  H26A 6428   3.478   5.374   4.293  0.5798 -0.1879  1.0183
   71CHL1  H26B 6429   3.423   5.540   4.266 -1.0520 -0.0540 -0.1704
   71CHL1  H26C 6430   3.454   5.469   4.435 -2.1039 -0.4733  0.3780
   71CHL1   C27 6431   3.178   5.488   4.409 -0.0678 -0.0182  0.5086
   71CHL1  H27A 6432   3.196   5.461   4.516 -4.8653  0.1007  1.5544
   71CHL1  H27B 6433   3.186   5.598   4.396  0.4045 -0.2550 -1.5442
   71CHL1  H27C 6434   3.075   5.453   4.388  0.3766 -1.2941  0.3902
   72CHL1    C3 6435   1.387   4.283   2.595 -0.0078 -0.0469 -0.0886
   72CHL1    H3 6436   1.470   4.216   2.623  1.9302  1.8344 -1.0144
   72CHL1    O3 6437   1.399   4.329   2.462  0.1272  0.2272  0.5486
   72CHL1   H3' 6438   1.321   4.378   2.435  0.1459  0.7573  1.4240
   72CHL1    C4 6439   1.249   4.215   2.613  0.8105 -0.2153  0.1538
   72CHL1   H4A 6440   1.165   4.281   2.582  0.6610  0.6878  2.3325
   72CHL1   H4B 6441   1.241   4.134   2.536 -2.9078 -0.5709  0.7250
   72CHL1    C5 6442   1.225   4.162   2.758  0.0909 -0.2067  0.3026
   72CHL1    C6 6443   1.192   4.036   2.788  0.8236 -0.1515 -0.0335
   72CHL1    H6 6444   1.195   3.960   2.708  2.6775  1.8456 -1.9853
   72CHL1    C7 6445   1.185   3.982   2.929 -0.1833  0.3899  0.3049
   72CHL1   H7A 6446   1.086   3.934   2.947 -0.3763  0.6547 -0.0246
   72CHL1   H7B 6447   1.262   3.903   2.934 -3.4803 -3.1704 -0.0130
   72CHL1    C8 6448   1.193   4.093   3.034  0.9592  0.0901  0.2009
   72CHL1    H8 6449   1.085   4.119   3.044  0.0025 -2.9253 -1.0067
   72CHL1   C14 6450   1.233   4.036   3.172 -0.2450 -0.5178 -0.2221
   72CHL1   H14 6451   1.342   4.014   3.162 -0.1801  0.2808 -1.5306
   72CHL1   C15 6452   1.175   3.901   3.222 -0.5499 -0.8854  0.5921
   72CHL1  H15A 6453   1.067   3.886   3.197  0.2874 -2.1786 -2.7972
   72CHL1  H15B 6454   1.237   3.824   3.172  0.6640  0.8273 -0.6651
   72CHL1   C16 6455   1.201   3.902   3.373  1.0367  0.6983  0.1939
   72CHL1  H16A 6456   1.104   3.885   3.424  2.5095 -3.2660  2.1914
   72CHL1  H16B 6457   1.268   3.816   3.396 -1.4662 -1.7080 -0.9367
   72CHL1   C17 6458   1.275   4.034   3.403 -0.0555 -0.5890  0.5546
   72CHL1   H17 6459   1.385   4.023   3.392  0.2395  2.4845 -0.6347
   72CHL1   C13 6460   1.227   4.131   3.294  0.0178  1.0116 -0.1945
   72CHL1   C18 6461   1.086   4.185   3.324  0.2031  0.5195 -0.7653
   72CHL1  H18A 6462   1.044   4.238   3.236  0.0126 -0.9071 -1.5663
   72CHL1  H18B 6463   1.027   4.099   3.363 -0.2058  0.9739 -0.3817
   72CHL1  H18C 6464   1.096   4.251   3.412  0.0858 -1.0565  0.4808
   72CHL1   C12 6465   1.324   4.246   3.249  0.4122  0.1073 -0.2819
   72CHL1  H12A 6466   1.319   4.331   3.321 -0.9961 -0.1887 -0.0059
   72CHL1  H12B 6467   1.427   4.206   3.239  1.0757  1.6959 -0.0251
   72CHL1   C11 6468   1.291   4.307   3.111 -0.3614 -0.0116 -0.1094
   72CHL1  H11A 6469   1.197   4.364   3.126  1.1725  2.6046  0.2519
   72CHL1  H11B 6470   1.365   4.388   3.093  0.2127 -0.7813 -1.3448
   72CHL1    C9 6471   1.285   4.209   2.993 -0.2908 -0.4624 -0.9733
   72CHL1    H9 6472   1.384   4.160   2.995 -0.9919 -1.9289  0.5135
   72CHL1   C10 6473   1.249   4.272   2.860  0.4768 -1.0240  0.4889
   72CHL1   C19 6474   1.123   4.357   2.874  0.2153 -0.2586  0.5656
   72CHL1  H19A 6475   1.038   4.298   2.916  0.2417 -0.6069  0.1345
   72CHL1  H19B 6476   1.144   4.442   2.942  1.2390  1.7018 -2.0435
   72CHL1  H19C 6477   1.095   4.399   2.776  1.6057 -2.6654 -0.9718
   72CHL1    C1 6478   1.375   4.355   2.830  0.9132  0.3385 -0.2110
   72CHL1   H1A 6479   1.357   4.444   2.895  0.8095  0.9952 -1.1238
   72CHL1   H1B 6480   1.464   4.293   2.852 -0.4577 -2.5503 -2.2538
   72CHL1    C2 6481   1.388   4.403   2.687  0.1096 -0.7880  0.2114
   72CHL1   H2A 6482   1.489   4.442   2.662 -0.2757 -1.1606 -2.2822
   72CHL1   H2B 6483   1.308   4.466   2.643  0.8651 -1.3090 -2.0854
   72CHL1   C20 6484   1.262   4.089   3.546 -0.1942  0.9380 -0.3440
   72CHL1   H20 6485   1.160   4.124   3.570 -1.0475 -2.1201  1.0031
   72CHL1   C21 6486   1.366   4.204   3.579 -0.8485 -0.5111 -0.2477
   72CHL1  H21A 6487   1.339   4.249   3.677  0.3951  2.6022 -1.1865
   72CHL1  H21B 6488   1.346   4.291   3.512  0.5833  1.7471  2.1040
   72CHL1  H21C 6489   1.470   4.169   3.565 -0.5394  0.6345 -0.9816
   72CHL1   C22 6490   1.284   3.972   3.647 -1.0018 -0.4279 -0.7892
   72CHL1  H22A 6491   1.274   4.034   3.739 -1.7164 -0.1586 -1.0410
   72CHL1  H22B 6492   1.196   3.905   3.640 -1.5340  0.3229 -1.3350
   72CHL1   C23 6493   1.416   3.900   3.638 -0.0595  1.1766 -0.1708
   72CHL1  H23A 6494   1.437   3.837   3.549  2.5230 -1.2604  1.9627
   72CHL1  H23B 6495   1.499   3.973   3.652  0.0259  0.9111  0.8351
   72CHL1   C24 6496   1.425   3.791   3.749 -0.3957 -0.0791 -0.6832
   72CHL1  H24A 6497   1.397   3.840   3.844 -1.6446 -0.2985 -0.9165
   72CHL1  H24B 6498   1.357   3.703   3.738 -1.0761  0.3159  0.2553
   72CHL1   C25 6499   1.566   3.736   3.774  0.4873  0.2376  0.2279
   72CHL1   H25 6500   1.624   3.829   3.794 -0.5953  1.2583 -1.1884
   72CHL1   C26 6501   1.565   3.650   3.894  0.5756  0.1636 -0.3592
   72CHL1  H26A 6502   1.649   3.654   3.966  0.0566  0.1551  0.2548
   72CHL1  H26B 6503   1.465   3.663   3.942  0.9356  0.1795  0.3835
   72CHL1  H26C 6504   1.563   3.545   3.859  0.1494 -0.0725  0.3489
   72CHL1   C27 6505   1.637   3.678   3.644  0.0959 -0.0648  0.2027
   72CHL1  H27A 6506   1.645   3.757   3.566 -0.6498  0.3886  0.5707
   72CHL1  H27B 6507   1.738   3.634   3.660 -0.3800 -1.3904 -0.2808
   72CHL1  H27C 6508   1.572   3.593   3.615 -1.2654 -0.1179  3.0586
   73CHL1    C3 6509   6.242   4.891   2.542 -0.4321 -0.8225  0.0210
   73CHL1    H3 6510   6.286   4.791   2.566  0.2158 -0.0347  2.4187
   73CHL1    O3 6511   6.206   4.886   2.406 -0.2475  0.0502  0.4590
   73CHL1   H3' 6512   6.151   4.963   2.390  1.7039  1.0501 -2.2501
   73CHL1    C4 6513   6.120   4.917   2.625 -0.1458 -0.2585 -0.1243
   73CHL1   H4A 6514   6.085   5.014   2.583  1.3217  0.2156 -0.3076
   73CHL1   H4B 6515   6.042   4.844   2.596 -1.4394  0.7276  0.7585
   73CHL1    C5 6516   6.163   4.921   2.776  0.5553 -0.2763  0.0647
   73CHL1    C6 6517   6.102   4.844   2.873  0.4060 -0.0221 -0.7221
   73CHL1    H6 6518   6.018   4.780   2.843 -0.8414  0.3910  1.7039
   73CHL1    C7 6519   6.126   4.851   3.018 -0.6066 -0.1686 -0.1927
   73CHL1   H7A 6520   6.030   4.866   3.070 -0.9541 -2.4423 -0.0638
   73CHL1   H7B 6521   6.150   4.753   3.065  0.1995  0.5351  0.8960
   73CHL1    C8 6522   6.220   4.970   3.057  0.7641  0.4416 -0.7771
   73CHL1    H8 6523   6.149   5.055   3.056  0.0593 -0.1053  0.5395
   73CHL1   C14 6524   6.280   4.948   3.195  0.7129  0.0040  0.1273
   73CHL1   H14 6525   6.335   4.852   3.185  1.0765  0.4635 -4.4175
   73CHL1   C15 6526   6.174   4.940   3.311  0.5426  0.3019 -0.2432
   73CHL1  H15A 6527   6.089   5.007   3.286  0.8668  1.8105  2.3323
   73CHL1  H15B 6528   6.139   4.838   3.337 -1.1291  0.4668 -1.6769
   73CHL1   C16 6529   6.253   4.989   3.435  0.0546  0.0530 -0.3460
   73CHL1  H16A 6530   6.207   5.083   3.475  3.8271  1.4648  1.0888
   73CHL1  H16B 6531   6.254   4.915   3.518  0.3615  1.7368  1.2370
   73CHL1   C17 6532   6.390   5.030   3.384 -0.0578 -0.4121  0.5329
   73CHL1   H17 6533   6.458   4.943   3.393 -0.8809 -1.2691 -1.0550
   73CHL1   C13 6534   6.374   5.064   3.234  0.2958 -0.3630 -0.4276
   73CHL1   C18 6535   6.306   5.203   3.218 -0.3336  0.1380 -0.3834
   73CHL1  H18A 6536   6.382   5.284   3.227 -1.0476  0.7173  0.6061
   73CHL1  H18B 6537   6.257   5.224   3.121 -3.6641  1.1457  1.3832
   73CHL1  H18C 6538   6.243   5.226   3.307  1.1994  1.8666  0.3189
   73CHL1   C12 6539   6.499   5.061   3.141 -0.3723 -0.4222  0.0213
   73CHL1  H12A 6540   6.575   5.138   3.164 -2.0269  0.9698  1.0298
   73CHL1  H12B 6541   6.544   4.959   3.149 -0.6454 -0.7468 -2.0567
   73CHL1   C11 6542   6.457   5.079   2.993 -0.1305  0.1968 -0.7102
   73CHL1  H11A 6543   6.444   5.187   2.972 -0.1483  0.1478 -0.9625
   73CHL1  H11B 6544   6.547   5.053   2.933  1.4704 -1.3648  2.1277
   73CHL1    C9 6545   6.334   4.988   2.955 -0.4905  0.2918 -0.3722
   73CHL1    H9 6546   6.383   4.889   2.947 -2.9354 -1.0812  0.4357
   73CHL1   C10 6547   6.278   5.012   2.815 -0.4008  0.1953  0.5483
   73CHL1   C19 6548   6.238   5.158   2.815  0.0326 -0.5663  0.3781
   73CHL1  H19A 6549   6.188   5.186   2.911  0.2608  0.5746  0.1789
   73CHL1  H19B 6550   6.324   5.226   2.802  0.8286 -1.7814 -0.9221
   73CHL1  H19C 6551   6.163   5.169   2.734  0.1408  0.5811  0.4154
   73CHL1    C1 6552   6.387   4.992   2.706 -0.5717 -0.4312 -0.5159
   73CHL1   H1A 6553   6.466   5.062   2.739 -0.6902 -1.0169  1.1159
   73CHL1   H1B 6554   6.429   4.891   2.728  0.8105  0.3151  0.4293
   73CHL1    C2 6555   6.343   5.003   2.565  0.7110 -0.5268 -0.2301
   73CHL1   H2A 6556   6.435   4.982   2.507  1.1744 -0.2787  0.3974
   73CHL1   H2B 6557   6.307   5.106   2.543  2.0451  0.1164  0.4014
   73CHL1   C20 6558   6.450   5.140   3.479 -0.1624  0.7296  0.0414
   73CHL1   H20 6559   6.370   5.215   3.494 -1.9839 -0.9655 -0.6656
   73CHL1   C21 6560   6.572   5.209   3.424  0.5214  0.2299  0.2046
   73CHL1  H21A 6561   6.649   5.139   3.385 -0.0587 -1.3986  1.8655
   73CHL1  H21B 6562   6.622   5.268   3.504  4.3169 -2.3305 -0.0332
   73CHL1  H21C 6563   6.544   5.278   3.342 -1.4946 -0.2290  0.4544
   73CHL1   C22 6564   6.476   5.086   3.626  0.2648  0.7295 -0.1657
   73CHL1  H22A 6565   6.402   5.005   3.644 -0.1089  0.8747 -0.9844
   73CHL1  H22B 6566   6.572   5.032   3.634 -1.0597 -1.9277 -1.0271
   73CHL1   C23 6567   6.460   5.187   3.741 -0.4455  0.7240  0.2258
   73CHL1  H23A 6568   6.548   5.253   3.726 -0.9670  1.4379  0.2566
   73CHL1  H23B 6569   6.364   5.239   3.717 -1.5294 -1.6105 -0.8588
   73CHL1   C24 6570   6.457   5.117   3.885 -0.1030 -0.4949 -0.3251
   73CHL1  H24A 6571   6.402   5.021   3.885  0.5002 -0.9928  3.3437
   73CHL1  H24B 6572   6.557   5.101   3.931 -0.5743  0.4526  1.0870
   73CHL1   C25 6573   6.380   5.201   3.984  0.7749  0.3276 -0.1385
   73CHL1   H25 6574   6.272   5.193   3.959  1.3790 -0.7078 -2.7611
   73CHL1   C26 6575   6.413   5.157   4.123 -0.1135 -0.0469  0.1472
   73CHL1  H26A 6576   6.375   5.054   4.140  2.3252 -0.7932  1.6087
   73CHL1  H26B 6577   6.522   5.138   4.130 -0.2876 -1.5769 -0.8316
   73CHL1  H26C 6578   6.373   5.220   4.206 -2.3394 -0.0497 -0.8493
   73CHL1   C27 6579   6.403   5.350   3.972  0.0238 -1.0458 -0.0205
   73CHL1  H27A 6580   6.366   5.416   4.053 -1.5303 -1.1714 -0.5945
   73CHL1  H27B 6581   6.511   5.375   3.969  0.0610 -1.0239  1.0760
   73CHL1  H27C 6582   6.354   5.383   3.878  0.9889 -0.9269 -0.4943
   74CHL1    C3 6583   2.768   5.101   3.130  0.6722 -0.0022  0.3669
   74CHL1    H3 6584   2.878   5.095   3.149  0.4044 -2.5983  1.5019
   74CHL1    O3 6585   2.756   5.077   2.993  0.5137  0.3005  0.5443
   74CHL1   H3' 6586   2.816   5.006   2.969  0.6683  0.1761  1.2625
   74CHL1    C4 6587   2.703   4.986   3.212  1.1017 -0.4939 -0.4411
   74CHL1   H4A 6588   2.593   4.991   3.195  1.2853  2.2249 -1.2623
   74CHL1   H4B 6589   2.726   4.884   3.174  0.4638 -1.6003  1.9371
   74CHL1    C5 6590   2.742   5.006   3.355 -0.1508  0.2358 -0.5131
   74CHL1    C6 6591   2.807   4.914   3.436 -0.3034  0.2402  0.5767
   74CHL1    H6 6592   2.850   4.820   3.399  0.6844  0.6939  0.5593
   74CHL1    C7 6593   2.815   4.934   3.582 -0.3550  0.5421  0.2639
   74CHL1   H7A 6594   2.796   4.833   3.623  2.0313  0.6527  1.8253
   74CHL1   H7B 6595   2.923   4.936   3.608 -0.5512  1.1054  1.0913
   74CHL1    C8 6596   2.738   5.051   3.651 -0.3955 -0.0329 -0.1606
   74CHL1    H8 6597   2.632   5.021   3.663  0.0716 -1.4064  0.7012
   74CHL1   C14 6598   2.797   5.081   3.784  0.4364  0.4157  0.3918
   74CHL1   H14 6599   2.902   5.106   3.760  0.4662  0.1793  0.2777
   74CHL1   C15 6600   2.804   4.970   3.887  0.5631 -0.4915  0.2463
   74CHL1  H15A 6601   2.705   4.922   3.904  0.5148 -0.3087  0.4846
   74CHL1  H15B 6602   2.873   4.890   3.853  1.5771  0.6191 -0.3873
   74CHL1   C16 6603   2.831   5.042   4.019  0.3030  0.0785 -0.5816
   74CHL1  H16A 6604   2.752   5.010   4.090 -0.0363  1.5470 -0.2581
   74CHL1  H16B 6605   2.926   5.011   4.069 -0.5441  0.8193  1.6158
   74CHL1   C17 6606   2.817   5.194   3.990  0.1110 -0.2520  0.5641
   74CHL1   H17 6607   2.920   5.234   3.981 -0.3809  0.8400 -0.4406
   74CHL1   C13 6608   2.745   5.201   3.857 -0.1609 -0.5028  0.2992
   74CHL1   C18 6609   2.595   5.195   3.878  0.0418 -0.3135 -0.2557
   74CHL1  H18A 6610   2.539   5.281   3.922  0.1252 -0.1862 -0.3975
   74CHL1  H18B 6611   2.537   5.159   3.791 -0.5617 -1.6656  0.6726
   74CHL1  H18C 6612   2.569   5.117   3.953 -0.3368  0.3785  0.3505
   74CHL1   C12 6613   2.776   5.320   3.770  0.2128 -0.1400  0.2050
   74CHL1  H12A 6614   2.732   5.414   3.808 -1.7559 -0.8622 -0.1707
   74CHL1  H12B 6615   2.886   5.337   3.775  0.4142 -1.7041  1.7310
   74CHL1   C11 6616   2.718   5.309   3.625  0.2269  0.3623  0.3203
   74CHL1  H11A 6617   2.610   5.335   3.623  0.5614  1.9768 -2.3046
   74CHL1  H11B 6618   2.754   5.395   3.563 -2.6232  0.8699 -0.7994
   74CHL1    C9 6619   2.753   5.170   3.561  0.1277 -0.5354  0.0334
   74CHL1    H9 6620   2.863   5.177   3.552  0.1557  0.8297  1.0855
   74CHL1   C10 6621   2.699   5.142   3.421  0.0308  0.2723 -0.0381
   74CHL1   C19 6622   2.539   5.153   3.425 -0.1090  0.1923  0.6614
   74CHL1  H19A 6623   2.522   5.260   3.450 -1.6236  0.7905 -2.3980
   74CHL1  H19B 6624   2.493   5.123   3.328  2.4161 -1.7447 -0.0399
   74CHL1  H19C 6625   2.493   5.085   3.501 -0.3303  0.4874  0.7928
   74CHL1    C1 6626   2.746   5.253   3.320 -0.2607  0.4760 -0.3875
   74CHL1   H1A 6627   2.698   5.347   3.354  0.2492 -0.1112  2.1911
   74CHL1   H1B 6628   2.854   5.272   3.342  0.1279 -0.5360 -1.3407
   74CHL1    C2 6629   2.716   5.232   3.175 -0.2350 -1.2319  0.5332
   74CHL1   H2A 6630   2.767   5.307   3.110  2.6206 -1.5371  2.2634
   74CHL1   H2B 6631   2.607   5.246   3.163 -0.1656 -1.1907 -0.0954
   74CHL1   C20 6632   2.758   5.263   4.117 -0.3035  0.5788 -0.4390
   74CHL1   H20 6633   2.654   5.230   4.137  0.8163 -1.0306  4.1815
   74CHL1   C21 6634   2.744   5.415   4.105 -0.5566 -0.5178 -0.1549
   74CHL1  H21A 6635   2.697   5.441   4.008  0.4322 -0.1376 -0.5370
   74CHL1  H21B 6636   2.842   5.466   4.112 -0.4457 -0.4484 -1.8371
   74CHL1  H21C 6637   2.684   5.458   4.189 -0.1500  0.7304 -0.4918
   74CHL1   C22 6638   2.838   5.222   4.247  0.0380 -0.2624 -0.0137
   74CHL1  H22A 6639   2.829   5.112   4.256  0.0685 -0.2233  0.5572
   74CHL1  H22B 6640   2.945   5.242   4.224 -0.2844  0.8877 -0.5904
   74CHL1   C23 6641   2.793   5.291   4.377 -0.5939  0.1867 -0.3259
   74CHL1  H23A 6642   2.863   5.249   4.453 -2.3844  0.6762  1.6834
   74CHL1  H23B 6643   2.800   5.402   4.377 -2.3079  0.3225  0.7781
   74CHL1   C24 6644   2.648   5.256   4.405 -0.0041  0.1148 -0.4956
   74CHL1  H24A 6645   2.582   5.306   4.332 -2.2174 -0.2649  1.1316
   74CHL1  H24B 6646   2.633   5.146   4.394 -0.5830  0.0208  1.0431
   74CHL1   C25 6647   2.588   5.300   4.544  0.3838 -0.1178 -0.4202
   74CHL1   H25 6648   2.669   5.257   4.607 -0.3259 -1.6108 -0.4954
   74CHL1   C26 6649   2.582   5.447   4.566  0.3932 -0.2819 -0.3143
   74CHL1  H26A 6650   2.535   5.490   4.475 -0.7781 -3.0527 -1.1243
   74CHL1  H26B 6651   2.526   5.482   4.655  3.4377 -1.9151  2.4813
   74CHL1  H26C 6652   2.686   5.483   4.582  0.0295  0.9632 -0.6645
   74CHL1   C27 6653   2.453   5.230   4.572 -0.3289 -0.1412 -0.5595
   74CHL1  H27A 6654   2.471   5.122   4.592 -0.4812  0.4793  3.6594
   74CHL1  H27B 6655   2.392   5.265   4.657  0.2774  3.6710 -1.5039
   74CHL1  H27C 6656   2.387   5.231   4.482 -1.5027  0.9019  0.2799
   75CHL1    C3 6657   5.685   3.561   2.804  1.0681  0.6132 -0.7466
   75CHL1    H3 6658   5.589   3.539   2.856  1.7242 -1.6358 -0.3844
   75CHL1    O3 6659   5.689   3.550   2.663  0.1079  0.3015 -0.6018
   75CHL1   H3' 6660   5.614   3.605   2.640 -1.3982 -1.7834 -1.0501
   75CHL1    C4 6661   5.743   3.700   2.861  0.4685  0.3357  0.2727
   75CHL1   H4A 6662   5.840   3.725   2.813  1.2630  0.1016  1.6932
   75CHL1   H4B 6663   5.679   3.785   2.829 -0.0657 -0.2300 -0.1907
   75CHL1    C5 6664   5.748   3.693   3.010  0.3948 -0.0032 -0.7394
   75CHL1    C6 6665   5.681   3.789   3.083 -0.0407 -0.1342  0.2559
   75CHL1    H6 6666   5.622   3.865   3.029 -3.0831 -1.7401  1.0948
   75CHL1    C7 6667   5.665   3.788   3.238 -0.1213 -0.0075  0.1030
   75CHL1   H7A 6668   5.662   3.890   3.280  0.7595 -0.9041  2.4901
   75CHL1   H7B 6669   5.573   3.737   3.273 -0.6698  2.0606  1.8807
   75CHL1    C8 6670   5.789   3.713   3.300  0.3325  0.2155 -0.7775
   75CHL1    H8 6671   5.881   3.774   3.287 -0.7936  2.2683  0.4200
   75CHL1   C14 6672   5.756   3.694   3.447 -0.1200  0.6759  0.5150
   75CHL1   H14 6673   5.665   3.630   3.448  0.5476 -0.3012  0.4607
   75CHL1   C15 6674   5.739   3.814   3.533 -0.2335 -0.4404 -0.2237
   75CHL1  H15A 6675   5.811   3.896   3.513 -0.1731  0.3128  2.7230
   75CHL1  H15B 6676   5.636   3.854   3.519 -0.0357  0.2572  0.2643
   75CHL1   C16 6677   5.773   3.761   3.676  0.1528 -0.4681  0.8484
   75CHL1  H16A 6678   5.863   3.822   3.702  0.1964  0.8071 -1.8901
   75CHL1  H16B 6679   5.690   3.765   3.749 -0.0827 -0.9319  0.6095
   75CHL1   C17 6680   5.810   3.610   3.659  0.7267  0.2646  0.3301
   75CHL1   H17 6681   5.717   3.549   3.655  1.3430 -0.6900  0.3344
   75CHL1   C13 6682   5.859   3.601   3.517  0.5402  0.5041 -0.0446
   75CHL1   C18 6683   6.001   3.664   3.505  0.0974 -0.1742 -0.0115
   75CHL1  H18A 6684   6.002   3.763   3.555 -2.4266 -0.5852  1.0070
   75CHL1  H18B 6685   6.073   3.598   3.559 -0.7702 -1.3344 -0.2245
   75CHL1  H18C 6686   6.040   3.680   3.402  0.2427  3.5667  0.5016
   75CHL1   C12 6687   5.855   3.459   3.462 -0.1278  0.3108  1.1266
   75CHL1  H12A 6688   5.943   3.414   3.513  0.2304  1.2482  1.3432
   75CHL1  H12B 6689   5.759   3.409   3.487 -0.3173 -0.0712 -0.2833
   75CHL1   C11 6690   5.874   3.463   3.307 -0.2883  0.4056 -0.1047
   75CHL1  H11A 6691   5.984   3.474   3.296 -0.3481  2.0846  0.7892
   75CHL1  H11B 6692   5.845   3.367   3.258 -0.1250  0.5195 -0.4285
   75CHL1    C9 6693   5.796   3.574   3.230 -0.0345  0.0369  1.9892
   75CHL1    H9 6694   5.691   3.537   3.230 -0.5336  1.3603  0.9519
   75CHL1   C10 6695   5.819   3.580   3.075  0.2397  0.3197  0.0616
   75CHL1   C19 6696   5.972   3.591   3.054  0.3706 -0.6180 -0.2694
   75CHL1  H19A 6697   6.000   3.605   2.948 -1.0679 -0.5745 -0.6660
   75CHL1  H19B 6698   6.017   3.680   3.103  1.4002 -0.2355 -1.8312
   75CHL1  H19C 6699   6.030   3.501   3.083  0.7822 -0.6946 -1.2935
   75CHL1    C1 6700   5.774   3.450   3.010  0.7344 -0.2567 -0.8489
   75CHL1   H1A 6701   5.840   3.367   3.041 -0.2980 -0.8481 -0.1633
   75CHL1   H1B 6702   5.669   3.424   3.036  0.5688  0.8638 -0.3225
   75CHL1    C2 6703   5.777   3.451   2.855  0.1748  0.1434  0.3117
   75CHL1   H2A 6704   5.758   3.349   2.815 -4.6182  0.6272  0.8635
   75CHL1   H2B 6705   5.885   3.467   2.831  0.9428  0.6357  3.6856
   75CHL1   C20 6706   5.899   3.551   3.772 -0.5736  0.5955 -0.3009
   75CHL1   H20 6707   5.949   3.459   3.736 -2.3044  0.1507 -1.7311
   75CHL1   C21 6708   5.799   3.489   3.878 -0.4258 -0.1547  0.3980
   75CHL1  H21A 6709   5.744   3.566   3.936 -1.3653  0.4680 -1.2639
   75CHL1  H21B 6710   5.859   3.439   3.958 -0.1081 -0.1622  0.1559
   75CHL1  H21C 6711   5.730   3.415   3.834 -2.0077  1.6132 -0.2252
   75CHL1   C22 6712   5.999   3.650   3.833 -0.4308  0.4510 -0.6440
   75CHL1  H22A 6713   6.058   3.709   3.760  0.7666  1.3956  1.0315
   75CHL1  H22B 6714   5.944   3.729   3.888  0.6830 -0.3607  1.7554
   75CHL1   C23 6715   6.110   3.580   3.923 -0.5291  0.2773  0.3320
   75CHL1  H23A 6716   6.065   3.526   4.009 -1.5661 -0.9705 -0.9422
   75CHL1  H23B 6717   6.155   3.508   3.852 -1.4342 -0.8909  0.9101
   75CHL1   C24 6718   6.210   3.680   3.982  0.7544  0.3000 -0.1627
   75CHL1  H24A 6719   6.252   3.749   3.906  1.4137 -1.0554 -1.0804
   75CHL1  H24B 6720   6.166   3.747   4.058 -1.1021  0.4381 -1.2826
   75CHL1   C25 6721   6.337   3.605   4.041 -0.5497  0.0670  0.1546
   75CHL1   H25 6722   6.369   3.534   3.962  0.0459  0.9759 -0.4485
   75CHL1   C26 6723   6.446   3.707   4.063  0.4376 -0.6662  0.5612
   75CHL1  H26A 6724   6.452   3.768   3.971 -0.8315 -0.7322  0.4086
   75CHL1  H26B 6725   6.433   3.772   4.153 -1.8400  1.3191 -1.0674
   75CHL1  H26C 6726   6.543   3.657   4.079  0.2180 -1.5805 -0.7999
   75CHL1   C27 6727   6.306   3.538   4.176  0.7881 -0.0431  0.0710
   75CHL1  H27A 6728   6.236   3.453   4.156 -1.5166  1.6823  0.4026
   75CHL1  H27B 6729   6.392   3.498   4.234  0.6061 -0.2361  0.2160
   75CHL1  H27C 6730   6.258   3.608   4.248 -0.7654  1.7822 -2.5809
   76CHL1    C3 6731   2.342   4.575   2.797 -0.3873  0.3350 -0.3435
   76CHL1    H3 6732   2.424   4.506   2.824 -0.5155  0.1160 -0.5153
   76CHL1    O3 6733   2.332   4.559   2.660 -0.5127 -0.3517  0.4752
   76CHL1   H3' 6734   2.323   4.651   2.632 -2.1778 -0.5932  0.0997
   76CHL1    C4 6735   2.206   4.542   2.865 -0.7154  0.1810 -0.5495
   76CHL1   H4A 6736   2.131   4.607   2.817 -0.5028  1.2289  0.4848
   76CHL1   H4B 6737   2.188   4.435   2.840  0.6943  0.1138 -1.4270
   76CHL1    C5 6738   2.220   4.554   3.018  0.2068 -0.6004  0.1564
   76CHL1    C6 6739   2.182   4.458   3.099  0.4752 -0.0938  0.3644
   76CHL1    H6 6740   2.135   4.370   3.051 -0.8695  0.5827  0.3840
   76CHL1    C7 6741   2.181   4.455   3.254 -0.2165 -0.5204 -0.3081
   76CHL1   H7A 6742   2.085   4.413   3.293 -0.6475  1.5334  0.9596
   76CHL1   H7B 6743   2.267   4.394   3.289  0.2508 -0.1904 -0.8623
   76CHL1    C8 6744   2.194   4.602   3.307 -0.0591 -0.4432  1.4761
   76CHL1    H8 6745   2.096   4.652   3.292  0.3224  0.2570  1.2998
   76CHL1   C14 6746   2.225   4.594   3.460  0.0561 -0.3216  0.4064
   76CHL1   H14 6747   2.320   4.536   3.458 -0.4287 -1.0898 -0.5967
   76CHL1   C15 6748   2.137   4.515   3.555  0.3079 -0.7294 -0.3716
   76CHL1  H15A 6749   2.032   4.550   3.544  0.0619 -1.3995 -0.2123
   76CHL1  H15B 6750   2.136   4.406   3.533 -0.2753 -0.1738 -3.6386
   76CHL1   C16 6751   2.197   4.554   3.691 -0.3016  0.1353 -0.3304
   76CHL1  H16A 6752   2.108   4.557   3.758  1.2055 -1.7464  1.9212
   76CHL1  H16B 6753   2.260   4.469   3.725 -0.5705  0.1477  0.2129
   76CHL1   C17 6754   2.279   4.679   3.672 -0.2540  0.1726  0.0715
   76CHL1   H17 6755   2.381   4.635   3.673 -1.0797 -1.8594  1.2700
   76CHL1   C13 6756   2.258   4.730   3.526  0.0127  0.1244  0.2202
   76CHL1   C18 6757   2.132   4.820   3.523 -0.8834  0.3187 -0.5036
   76CHL1  H18A 6758   2.046   4.775   3.577  0.9296 -1.2762  1.2141
   76CHL1  H18B 6759   2.168   4.919   3.559 -1.1047  1.2061 -2.5773
   76CHL1  H18C 6760   2.101   4.826   3.417 -0.5057 -4.0066 -1.0381
   76CHL1   C12 6761   2.380   4.791   3.444  0.0220 -0.8498 -0.7796
   76CHL1  H12A 6762   2.401   4.895   3.476 -1.1632 -0.8849  0.1535
   76CHL1  H12B 6763   2.471   4.728   3.459  0.9818  1.0806  2.4605
   76CHL1   C11 6764   2.350   4.812   3.296 -0.0761  0.3747  0.1289
   76CHL1  H11A 6765   2.267   4.886   3.291 -0.2378  0.2553  0.8489
   76CHL1  H11B 6766   2.443   4.844   3.246  0.2416 -0.2682  0.2957
   76CHL1    C9 6767   2.302   4.677   3.228 -0.3319 -0.2790  0.2671
   76CHL1    H9 6768   2.395   4.618   3.240 -0.6831 -0.6047  1.6156
   76CHL1   C10 6769   2.262   4.693   3.073  0.3505 -0.1239 -0.5366
   76CHL1   C19 6770   2.140   4.796   3.041 -0.6098 -0.1798 -0.0505
   76CHL1  H19A 6771   2.049   4.746   3.081 -1.4394  2.1812  1.1727
   76CHL1  H19B 6772   2.159   4.897   3.081  0.2192 -0.4912  0.3684
   76CHL1  H19C 6773   2.126   4.802   2.931 -0.5278 -0.8802 -0.1055
   76CHL1    C1 6774   2.387   4.728   2.990  0.5793 -0.1775  0.0282
   76CHL1   H1A 6775   2.409   4.832   3.022 -1.3318 -0.2437  1.8464
   76CHL1   H1B 6776   2.479   4.670   3.012  0.2869 -0.7001 -0.0925
   76CHL1    C2 6777   2.375   4.727   2.833 -0.6641  0.8544 -0.7356
   76CHL1   H2A 6778   2.470   4.756   2.785 -0.9221 -0.7373 -2.3039
   76CHL1   H2B 6779   2.292   4.793   2.798  0.1909  1.7411 -1.1382
   76CHL1   C20 6780   2.271   4.782   3.786 -0.1696  0.3007 -0.2195
   76CHL1   H20 6781   2.174   4.831   3.762 -0.0201 -1.3067 -5.3921
   76CHL1   C21 6782   2.390   4.881   3.780  0.2397  0.2269  0.3692
   76CHL1  H21A 6783   2.398   4.942   3.873  2.3922  1.3771 -0.4957
   76CHL1  H21B 6784   2.368   4.946   3.693 -0.0299  0.0607  0.3107
   76CHL1  H21C 6785   2.490   4.839   3.755  0.0234  1.8062 -3.8204
   76CHL1   C22 6786   2.262   4.710   3.930 -0.2190 -0.0973 -0.2788
   76CHL1  H22A 6787   2.168   4.652   3.939 -0.5871  0.6095  0.4773
   76CHL1  H22B 6788   2.345   4.636   3.937 -0.8234 -0.8483 -0.8414
   76CHL1   C23 6789   2.267   4.800   4.049  0.3672 -0.1693 -0.2396
   76CHL1  H23A 6790   2.365   4.854   4.049  1.7475 -2.4248 -2.5878
   76CHL1  H23B 6791   2.186   4.877   4.051  1.0393  0.5429  1.5695
   76CHL1   C24 6792   2.254   4.734   4.183  0.7859 -0.1435  0.0517
   76CHL1  H24A 6793   2.168   4.664   4.173 -0.5057  1.5489 -1.4071
   76CHL1  H24B 6794   2.347   4.674   4.194  0.5691 -0.8204 -1.5373
   76CHL1   C25 6795   2.217   4.830   4.293 -0.0366 -0.0471  0.1350
   76CHL1   H25 6796   2.134   4.893   4.254 -1.9832 -1.1388  2.2264
   76CHL1   C26 6797   2.169   4.745   4.415 -0.3739 -0.5700 -0.4982
   76CHL1  H26A 6798   2.254   4.700   4.470  1.0760  3.5300  0.9415
   76CHL1  H26B 6799   2.104   4.795   4.490 -1.2641  0.8183 -2.1141
   76CHL1  H26C 6800   2.085   4.674   4.393 -0.0848 -1.6040  1.4954
   76CHL1   C27 6801   2.342   4.915   4.349  0.0270  0.2466  0.1767
   76CHL1  H27A 6802   2.308   4.969   4.439  0.9891  2.9111 -0.9681
   76CHL1  H27B 6803   2.439   4.862   4.360  1.1602  2.4848  1.5631
   76CHL1  H27C 6804   2.355   4.988   4.266  0.5174 -0.0044  0.0246
   77SOPE     N 6805   0.227   4.469   6.845  0.7813  0.3964 -0.1584
   77SOPE   HN1 6806   0.136   4.516   6.861 -1.0692 -2.1127 -2.4416
   77SOPE   HN2 6807   0.256   4.398   6.914  0.5494 -0.4906 -0.9530
   77SOPE   HN3 6808   0.296   4.548   6.848  0.0984  0.9805  0.7591
   77SOPE   C12 6809   0.234   4.402   6.706 -0.2497  0.7631  0.0571
   77SOPE  H12A 6810   0.206   4.485   6.638 -4.2685 -1.0069 -0.7582
   77SOPE  H12B 6811   0.163   4.317   6.707  0.4221  0.1486 -1.3239
   77SOPE   C11 6812   0.382   4.357   6.677  0.9513 -0.0954 -0.2803
   77SOPE  H11A 6813   0.393   4.321   6.573  1.2771  2.2390 -1.1018
   77SOPE  H11B 6814   0.402   4.270   6.744 -2.0247 -0.2355  0.6024
   77SOPE     P 6815   0.522   4.560   6.597 -0.0263 -0.2726 -0.2066
   77SOPE   O13 6816   0.656   4.509   6.560 -0.8965 -0.1998 -0.1860
   77SOPE   O14 6817   0.517   4.695   6.651  0.1601  0.0877  0.2590
   77SOPE   O12 6818   0.466   4.465   6.704  0.1469  0.7571 -0.3877
   77SOPE   O11 6819   0.420   4.541   6.479  0.3924  0.4831  0.8828
   77SOPE    C1 6820   0.431   4.562   6.342  0.4452  0.1582 -0.3185
   77SOPE    HA 6821   0.514   4.635   6.331 -0.1316  1.0719  0.9973
   77SOPE    HB 6822   0.343   4.612   6.296  0.6778 -0.5228 -1.5446
   77SOPE    C2 6823   0.453   4.426   6.270 -0.3113 -0.1127 -0.6813
   77SOPE    HS 6824   0.515   4.367   6.341 -1.7005  0.0157  0.6884
   77SOPE   O21 6825   0.515   4.457   6.142 -0.1568  0.0177  0.0815
   77SOPE   C21 6826   0.549   4.355   6.067  0.3094  0.4157 -1.0923
   77SOPE   O22 6827   0.544   4.236   6.101 -0.0678 -0.2924  0.1011
   77SOPE   C22 6828   0.615   4.410   5.942 -0.0167 -0.6273 -0.5961
   77SOPE   H2R 6829   0.698   4.339   5.922 -0.9295 -1.5484 -1.1862
   77SOPE   H2S 6830   0.673   4.502   5.968  0.6813 -1.5350  1.2371
   77SOPE    C3 6831   0.314   4.360   6.257 -0.7246  0.1444  0.0814
   77SOPE    HX 6832   0.276   4.342   6.360  2.3790 -2.0668  0.9992
   77SOPE    HY 6833   0.329   4.266   6.200 -0.7954  1.5502 -2.4001
   77SOPE   O31 6834   0.216   4.450   6.189  0.0915  0.0870 -0.5123
   77SOPE   C31 6835   0.092   4.448   6.236 -0.3189  1.1854  0.2399
   77SOPE   O32 6836   0.046   4.385   6.329  0.3720 -0.2124 -0.0265
   77SOPE   C32 6837   0.019   4.558   6.155 -0.0189 -0.2011  0.7921
   77SOPE   H2X 6838   0.052   4.548   6.050  2.0520 -0.1839  1.3939
   77SOPE   H2Y 6839   0.052   4.652   6.203 -2.5059  0.8097  0.6707
   77SOPE   C23 6840   0.516   4.422   5.819  0.9771 -0.1158 -0.2650
   77SOPE   H3R 6841   0.428   4.488   5.839  1.7215  0.5970  0.7719
   77SOPE   H3S 6842   0.485   4.317   5.806 -0.2713 -0.3079  3.2312
   77SOPE   C24 6843   0.571   4.483   5.686 -0.2428 -0.6290 -0.2007
   77SOPE   H4R 6844   0.576   4.593   5.693 -1.3596 -0.5698 -0.1529
   77SOPE   H4S 6845   0.677   4.449   5.679  0.6791  2.0551 -0.0649
   77SOPE   C25 6846   0.495   4.452   5.556  0.4908  0.3590  0.2193
   77SOPE   H5R 6847   0.477   4.342   5.558 -1.9005  0.7081  0.9947
   77SOPE   H5S 6848   0.404   4.515   5.552 -0.5292 -1.1112 -0.3650
   77SOPE   C26 6849   0.572   4.493   5.430  0.0321 -0.0557 -0.2802
   77SOPE   H6R 6850   0.567   4.604   5.434 -1.8033 -0.1526  1.5168
   77SOPE   H6S 6851   0.675   4.455   5.447 -0.8921 -3.9947 -2.2545
   77SOPE   C27 6852   0.523   4.420   5.301 -0.2697 -0.6628  0.5807
   77SOPE   H7R 6853   0.505   4.313   5.325 -1.1020 -0.9180 -1.0617
   77SOPE   H7S 6854   0.431   4.465   5.260  1.6081  4.1433  1.0265
   77SOPE   C28 6855   0.631   4.424   5.198 -0.4329  0.1765  0.9266
   77SOPE   H8R 6856   0.672   4.525   5.178 -0.5690 -0.1225 -1.0963
   77SOPE   H8S 6857   0.713   4.356   5.231  0.7325 -0.1650 -2.2675
   77SOPE   C29 6858   0.581   4.367   5.066  0.2802  0.0692  0.4558
   77SOPE   H91 6859   0.568   4.258   5.072  1.0262  0.0630  2.9766
   77SOPE  C210 6860   0.537   4.440   4.955 -0.4846  0.1785  0.3260
   77SOPE  H101 6861   0.503   4.400   4.858 -0.8955  3.0916 -0.8493
   77SOPE  C211 6862   0.537   4.592   4.949  0.6984  0.7592  0.0775
   77SOPE  H11R 6863   0.631   4.624   4.999 -0.0840  0.4390  1.8467
   77SOPE  H11S 6864   0.458   4.635   5.016  0.5220  2.3145 -1.0808
   77SOPE  C212 6865   0.522   4.655   4.813  0.8738 -0.2769  0.2499
   77SOPE  H12R 6866   0.533   4.765   4.824  3.0139 -0.2823 -1.2098
   77SOPE  H12S 6867   0.425   4.628   4.767  1.1769 -1.4636  0.2548
   77SOPE  C213 6868   0.634   4.605   4.720  0.3048  0.5375  1.0950
   77SOPE  H13R 6869   0.628   4.494   4.715 -0.1748  0.6088 -0.2063
   77SOPE  H13S 6870   0.728   4.630   4.774  3.2713 -1.2122 -2.7761
   77SOPE  C214 6871   0.624   4.669   4.582  0.3543 -0.4620  0.0780
   77SOPE  H14R 6872   0.665   4.771   4.598  1.7664 -0.6220 -2.0243
   77SOPE  H14S 6873   0.524   4.686   4.536 -0.0561  2.7967  1.9245
   77SOPE  C215 6874   0.709   4.583   4.480 -0.1329 -1.1030  0.1874
   77SOPE  H15R 6875   0.662   4.484   4.468  0.4662 -1.6203  1.8918
   77SOPE  H15S 6876   0.811   4.568   4.523  1.0343 -1.4170 -2.4415
   77SOPE  C216 6877   0.712   4.655   4.336  0.0360 -0.5109  0.3555
   77SOPE  H16R 6878   0.766   4.752   4.343 -0.4310 -0.2078 -0.1837
   77SOPE  H16S 6879   0.606   4.668   4.305 -0.4330 -2.0866  1.1702
   77SOPE  C217 6880   0.772   4.557   4.221 -0.6695 -0.7793 -0.4498
   77SOPE  H17R 6881   0.711   4.464   4.225 -0.0919 -1.2264 -1.5606
   77SOPE  H17S 6882   0.878   4.537   4.245 -0.1479 -1.9873 -3.3170
   77SOPE  C218 6883   0.759   4.615   4.077 -0.1397  0.2015  0.3895
   77SOPE  H18R 6884   0.761   4.527   4.008 -0.0265 -0.9713  1.8358
   77SOPE  H18S 6885   0.833   4.690   4.043  1.6765 -0.9397  1.6523
   77SOPE  H18T 6886   0.655   4.653   4.066  0.0119  0.5971  0.3354
   77SOPE   C33 6887  -0.138   4.555   6.157  0.5593  0.5054  0.2619
   77SOPE   H3X 6888  -0.170   4.566   6.263  0.0718  2.3089 -0.0412
   77SOPE   H3Y 6889  -0.171   4.453   6.127  2.5190 -0.1276  0.1304
   77SOPE   C34 6890  -0.215   4.666   6.075  0.0844  1.2690 -0.0844
   77SOPE   H4X 6891  -0.175   4.767   6.094  2.4672  0.4048 -0.1735
   77SOPE   H4Y 6892  -0.317   4.668   6.118  0.1053  1.1998 -0.0308
   77SOPE   C35 6893  -0.212   4.629   5.932 -0.6842  0.3853  0.0617
   77SOPE   H5X 6894  -0.253   4.530   5.905 -3.2842  1.0029  1.4277
   77SOPE   H5Y 6895  -0.111   4.629   5.886 -1.0735 -1.0066 -0.8449
   77SOPE   C36 6896  -0.300   4.725   5.849 -0.9032 -0.0022  0.2608
   77SOPE   H6X 6897  -0.273   4.831   5.867  2.6211 -0.7048 -0.0747
   77SOPE   H6Y 6898  -0.406   4.709   5.877 -1.6581  1.3915 -1.6040
   77SOPE   C37 6899  -0.295   4.697   5.697  0.6749 -0.2657  0.2234
   77SOPE   H7X 6900  -0.311   4.588   5.684 -0.1573 -0.1931  0.5495
   77SOPE   H7Y 6901  -0.198   4.724   5.649  0.7004  3.6714  2.0802
   77SOPE   C38 6902  -0.397   4.787   5.623  0.1711  0.0557 -0.1962
   77SOPE   H8X 6903  -0.398   4.889   5.667 -0.3431 -0.7674  1.8098
   77SOPE   H8Y 6904  -0.498   4.745   5.644 -0.0618  1.0612  0.7752
   77SOPE   C39 6905  -0.362   4.803   5.475  0.1152 -1.2761 -0.5696
   77SOPE   H9X 6906  -0.259   4.844   5.474 -0.9574  1.6729 -1.5721
   77SOPE   H9Y 6907  -0.424   4.885   5.432  1.1949  0.3788  0.9089
   77SOPE  C310 6908  -0.365   4.673   5.393  0.1743  0.0052  0.0281
   77SOPE  H10X 6909  -0.463   4.621   5.389  0.7480 -1.2916  1.4944
   77SOPE  H10Y 6910  -0.298   4.601   5.446  2.1374  2.7338  1.4771
   77SOPE  C311 6911  -0.304   4.675   5.255 -0.4905  0.1790  0.6230
   77SOPE  H11X 6912  -0.323   4.575   5.209  1.6888 -0.1293  0.3032
   77SOPE  H11Y 6913  -0.199   4.709   5.252 -0.5270  0.2271 -0.7483
   77SOPE  C312 6914  -0.377   4.781   5.170  0.2164 -0.0984  0.0085
   77SOPE  H12X 6915  -0.398   4.880   5.216 -2.0062  0.0561 -1.2002
   77SOPE  H12Y 6916  -0.479   4.739   5.161  0.1631  0.3467 -1.8043
   77SOPE  C313 6917  -0.312   4.800   5.033 -0.0245 -0.3184  0.2002
   77SOPE  H13X 6918  -0.322   4.701   4.983  0.9028 -0.4356  0.2202
   77SOPE  H13Y 6919  -0.204   4.819   5.053  0.4976 -2.1846 -0.5120
   77SOPE  C314 6920  -0.366   4.911   4.944  0.3542 -0.7443  0.2875
   77SOPE  H14X 6921  -0.373   5.008   4.998  0.5730  1.1166 -2.8081
   77SOPE  H14Y 6922  -0.468   4.883   4.910 -0.1994  0.8951  0.4761
   77SOPE  C315 6923  -0.277   4.928   4.821  0.0671  0.4961 -0.5962
   77SOPE  H15X 6924  -0.244   4.832   4.776 -0.1609  0.1510 -0.0431
   77SOPE  H15Y 6925  -0.191   4.989   4.857 -0.7866  0.0299  2.4870
   77SOPE  C316 6926  -0.334   5.009   4.703  0.9808  0.0774  0.0345
   77SOPE  H16X 6927  -0.361   5.109   4.743  2.8939  1.5031 -1.9817
   77SOPE  H16Y 6928  -0.433   4.966   4.674  1.7216 -1.6357 -0.0524
   77SOPE  C317 6929  -0.251   5.030   4.582  0.6456 -0.3531 -0.0596
   77SOPE  H17X 6930  -0.201   4.941   4.538 -1.2060 -1.3337 -0.2689
   77SOPE  H17Y 6931  -0.162   5.089   4.613  1.9365 -2.3600  0.2764
   77SOPE  C318 6932  -0.330   5.117   4.477  0.1149 -0.4541 -0.1202
   77SOPE  H18X 6933  -0.427   5.070   4.450  0.1348 -0.1229 -0.7699
   77SOPE  H18Y 6934  -0.277   5.127   4.380  0.0228  1.6972  0.0050
   77SOPE  H18Z 6935  -0.352   5.216   4.523  0.0251 -0.8236  0.6600
   78SOPE     N 6936   0.890   4.576   6.702  0.0779  0.2718 -0.1012
   78SOPE   HN1 6937   0.798   4.542   6.666  0.2494  0.8907 -1.1764
   78SOPE   HN2 6938   0.913   4.666   6.654  1.3444 -0.9476 -1.8940
   78SOPE   HN3 6939   0.961   4.510   6.666  0.5408  0.8619 -0.2761
   78SOPE   C12 6940   0.900   4.597   6.850 -0.3622 -0.5101  0.4133
   78SOPE  H12A 6941   1.006   4.591   6.884 -0.6032 -1.2696  1.0775
   78SOPE  H12B 6942   0.852   4.514   6.906  1.5368 -0.9768  1.4589
   78SOPE   C11 6943   0.828   4.722   6.895  0.2036 -0.4403 -0.7047
   78SOPE  H11A 6944   0.800   4.696   7.000  1.3950  0.4007 -0.1477
   78SOPE  H11B 6945   0.732   4.726   6.839 -0.2485 -1.0739  0.0085
   78SOPE     P 6946   0.900   4.951   6.785  0.5788 -0.1119 -0.1095
   78SOPE   O13 6947   1.029   5.025   6.795 -0.5851 -0.3409  0.1956
   78SOPE   O14 6948   0.784   5.038   6.784  1.1196 -0.0905 -1.3864
   78SOPE   O12 6949   0.902   4.844   6.893 -0.1587  0.0975  0.1344
   78SOPE   O11 6950   0.895   4.855   6.664 -0.4762 -0.0923  0.4106
   78SOPE    C1 6951   0.817   4.887   6.543 -0.7470 -0.0446 -0.5662
   78SOPE    HA 6952   0.810   4.997   6.530  0.6245  0.1229  0.0411
   78SOPE    HB 6953   0.714   4.843   6.546 -0.6566 -0.1935  0.5937
   78SOPE    C2 6954   0.887   4.834   6.418 -0.1707 -0.0484  0.1598
   78SOPE    HS 6955   0.810   4.856   6.342 -1.2921 -2.1121  0.6234
   78SOPE   O21 6956   0.902   4.692   6.439 -0.2532 -0.2503  0.8065
   78SOPE   C21 6957   0.903   4.622   6.328  0.2450  0.6071 -0.2643
   78SOPE   O22 6958   0.883   4.673   6.219 -0.5465 -0.0238  0.5682
   78SOPE   C22 6959   0.915   4.472   6.357  0.0200 -0.9633 -0.2145
   78SOPE   H2R 6960   0.863   4.448   6.452  0.4141  1.3668  0.6622
   78SOPE   H2S 6961   1.023   4.462   6.381  0.0773 -3.3560 -1.2210
   78SOPE    C3 6962   1.029   4.903   6.401  0.6126  0.1819  0.2344
   78SOPE    HX 6963   1.074   4.910   6.502 -0.4497  0.9252  0.6833
   78SOPE    HY 6964   1.012   5.011   6.382 -1.0885  0.4236  2.7117
   78SOPE   O31 6965   1.112   4.833   6.312 -0.8879 -0.0192  0.3130
   78SOPE   C31 6966   1.105   4.879   6.188  0.1891  0.4247  0.0325
   78SOPE   O32 6967   1.030   4.971   6.153 -0.1871 -0.1858  0.1669
   78SOPE   C32 6968   1.198   4.806   6.097  0.8405  0.3099 -0.0494
   78SOPE   H2X 6969   1.150   4.800   5.997  0.5404  2.5607 -0.0929
   78SOPE   H2Y 6970   1.220   4.704   6.134 -2.2070 -0.8566 -1.1421
   78SOPE   C23 6971   0.869   4.372   6.242 -0.0895 -0.6730 -0.3084
   78SOPE   H3R 6972   0.758   4.375   6.237 -0.1529  1.1327  1.1075
   78SOPE   H3S 6973   0.903   4.269   6.268  0.1531 -0.6662 -0.5972
   78SOPE   C24 6974   0.927   4.405   6.104 -0.0052 -0.6107  0.0742
   78SOPE   H4R 6975   0.894   4.313   6.050  0.0063 -0.7781  0.3527
   78SOPE   H4S 6976   0.874   4.487   6.050 -1.4827 -1.7709 -0.3239
   78SOPE   C25 6977   1.076   4.404   6.087 -0.2516  0.1799  0.1265
   78SOPE   H5R 6978   1.124   4.498   6.123 -0.6161  2.1615 -3.9383
   78SOPE   H5S 6979   1.112   4.316   6.143 -1.3630 -2.3621 -2.8523
   78SOPE   C26 6980   1.118   4.380   5.939  0.4982 -0.2162  0.5306
   78SOPE   H6R 6981   1.219   4.333   5.936  0.0117 -1.7020  3.2800
   78SOPE   H6S 6982   1.049   4.301   5.902 -1.4740  1.9870 -0.6911
   78SOPE   C27 6983   1.112   4.498   5.850  0.1101 -0.2631 -0.4362
   78SOPE   H7R 6984   1.025   4.564   5.873 -0.8289 -1.5904 -0.0693
   78SOPE   H7S 6985   1.201   4.556   5.882  0.5126 -1.4542  0.6806
   78SOPE   C28 6986   1.112   4.465   5.698  0.4340 -0.2838 -0.4359
   78SOPE   H8R 6987   1.187   4.384   5.683  1.3118  0.6471 -1.2530
   78SOPE   H8S 6988   1.011   4.429   5.670  0.2247 -0.1107  0.0770
   78SOPE   C29 6989   1.158   4.585   5.614 -0.5752 -0.6317  0.1047
   78SOPE   H91 6990   1.194   4.672   5.670 -0.5421 -1.0457  0.7454
   78SOPE  C210 6991   1.180   4.590   5.480 -0.0578 -0.3285 -0.2298
   78SOPE  H101 6992   1.212   4.684   5.433 -0.4820  0.0606  0.2461
   78SOPE  C211 6993   1.148   4.467   5.395  0.4995 -0.3376  0.0077
   78SOPE  H11R 6994   1.134   4.374   5.454 -0.6609 -0.5550 -0.5700
   78SOPE  H11S 6995   1.244   4.438   5.347  0.3807 -2.2730  0.8464
   78SOPE  C212 6996   1.027   4.500   5.303 -0.5867  0.5796  0.4584
   78SOPE  H12R 6997   1.047   4.601   5.261 -1.5270  0.1458 -1.1472
   78SOPE  H12S 6998   0.936   4.510   5.365 -0.4571 -1.3109  1.0152
   78SOPE  C213 6999   1.008   4.399   5.183 -0.2456 -0.1993 -0.3215
   78SOPE  H13R 7000   0.920   4.339   5.215 -0.2143 -2.0661 -3.3536
   78SOPE  H13S 7001   1.101   4.340   5.173 -0.2145 -0.4887  1.4339
   78SOPE  C214 7002   0.975   4.469   5.053 -0.1620 -0.1941  0.8379
   78SOPE  H14R 7003   0.897   4.548   5.054 -1.4977 -1.4695  2.1678
   78SOPE  H14S 7004   0.938   4.396   4.977 -0.3094 -1.7457  2.3518
   78SOPE  C215 7005   1.084   4.548   4.987 -0.1975 -0.0507 -0.4835
   78SOPE  H15R 7006   1.179   4.491   4.986  2.1249  3.3265  2.3734
   78SOPE  H15S 7007   1.110   4.639   5.045  0.9561 -0.4542 -0.3387
   78SOPE  C216 7008   1.059   4.566   4.835  0.0357 -0.4131 -0.4023
   78SOPE  H16R 7009   0.973   4.637   4.836  0.6072  0.2920  0.5124
   78SOPE  H16S 7010   1.013   4.476   4.788 -0.3162  0.5413 -1.9588
   78SOPE  C217 7011   1.175   4.617   4.760  0.2736  0.0184  0.0752
   78SOPE  H17R 7012   1.264   4.551   4.760  1.5964  1.6089  3.0274
   78SOPE  H17S 7013   1.215   4.711   4.803 -0.2990 -1.1016  3.3367
   78SOPE  C218 7014   1.140   4.652   4.611 -0.0957 -0.0148  0.0954
   78SOPE  H18R 7015   1.039   4.698   4.609 -0.7946 -1.5113  0.0522
   78SOPE  H18S 7016   1.133   4.554   4.560  2.6079  0.3118 -1.0838
   78SOPE  H18T 7017   1.215   4.722   4.568  0.3497 -0.1115  0.7059
   78SOPE   C33 7018   1.323   4.890   6.061 -0.1900 -0.1697 -0.5246
   78SOPE   H3X 7019   1.405   4.873   6.135 -1.8297 -1.6937  1.0296
   78SOPE   H3Y 7020   1.312   5.000   6.058  1.6548  0.0236 -2.4708
   78SOPE   C34 7021   1.397   4.860   5.929  0.1063  0.7201  0.7218
   78SOPE   H4X 7022   1.408   4.749   5.922  1.7328  0.8487  0.8121
   78SOPE   H4Y 7023   1.501   4.899   5.924 -0.5640  2.4638 -0.5492
   78SOPE   C35 7024   1.311   4.908   5.806 -0.5904 -0.2475  0.7081
   78SOPE   H5X 7025   1.295   5.017   5.810  0.2231 -0.1168  0.6497
   78SOPE   H5Y 7026   1.210   4.862   5.808 -0.9146  0.4723  0.9532
   78SOPE   C36 7027   1.383   4.876   5.674 -0.8424 -0.2352  0.0044
   78SOPE   H6X 7028   1.365   4.771   5.643 -2.0048 -0.9243  2.6946
   78SOPE   H6Y 7029   1.490   4.884   5.703 -0.4842  0.1413 -1.3576
   78SOPE   C37 7030   1.343   4.953   5.544  0.1169 -0.6289  1.0326
   78SOPE   H7X 7031   1.348   5.063   5.549  1.0467 -0.5161 -1.1764
   78SOPE   H7Y 7032   1.236   4.928   5.523 -0.4407  0.3969  2.5056
   78SOPE   C38 7033   1.438   4.900   5.433 -0.0167  0.0118  0.1788
   78SOPE   H8X 7034   1.435   4.789   5.430  3.0046 -0.1406 -1.3739
   78SOPE   H8Y 7035   1.539   4.920   5.475 -0.9167 -0.8295  2.9412
   78SOPE   C39 7036   1.407   4.966   5.300 -0.2987 -0.5382  0.4769
   78SOPE   H9X 7037   1.420   5.075   5.313  0.3680 -0.5975  0.3572
   78SOPE   H9Y 7038   1.300   4.948   5.278 -1.6925  4.2583  2.0986
   78SOPE  C310 7039   1.496   4.915   5.182  0.1584 -0.4853  0.1754
   78SOPE  H10X 7040   1.515   4.811   5.215 -0.4685 -0.6259  0.1034
   78SOPE  H10Y 7041   1.592   4.966   5.162 -0.2073 -0.6752 -2.4060
   78SOPE  C311 7042   1.420   4.916   5.042 -0.2305  0.0834  0.2325
   78SOPE  H11X 7043   1.398   5.024   5.025  1.8414  0.6798  0.9700
   78SOPE  H11Y 7044   1.325   4.859   5.049  0.3462 -0.7491  1.7994
   78SOPE  C312 7045   1.487   4.870   4.910 -0.2215 -0.4224 -0.1967
   78SOPE  H12X 7046   1.573   4.934   4.879 -1.1551  0.1655 -1.6915
   78SOPE  H12Y 7047   1.408   4.878   4.832 -0.5919 -1.4702  0.0669
   78SOPE  C313 7048   1.519   4.726   4.905  0.2354  0.1600  0.4387
   78SOPE  H13X 7049   1.437   4.662   4.945  1.2901 -1.6525 -0.1585
   78SOPE  H13Y 7050   1.604   4.705   4.974 -0.4279 -1.8583  0.7197
   78SOPE  C314 7051   1.560   4.676   4.767 -0.3638  0.1577  0.1695
   78SOPE  H14X 7052   1.485   4.695   4.687 -0.4587  3.4554  0.9358
   78SOPE  H14Y 7053   1.571   4.565   4.769 -0.2266  0.1357 -0.8300
   78SOPE  C315 7054   1.693   4.738   4.719  0.4357  0.2189 -0.2300
   78SOPE  H15X 7055   1.752   4.775   4.806  0.4817 -1.4938  0.5031
   78SOPE  H15Y 7056   1.672   4.818   4.644  1.5367 -0.1381 -0.9329
   78SOPE  C316 7057   1.779   4.632   4.654 -0.0646  0.6080 -0.9055
   78SOPE  H16X 7058   1.806   4.543   4.715 -0.8553  0.4903 -0.7155
   78SOPE  H16Y 7059   1.875   4.683   4.632 -0.8221  2.0350 -1.0165
   78SOPE  C317 7060   1.715   4.567   4.531  0.7925 -0.0889 -0.0629
   78SOPE  H17X 7061   1.733   4.643   4.452  0.1194 -2.0329 -2.2146
   78SOPE  H17Y 7062   1.606   4.551   4.545  1.0334 -2.6957 -0.6403
   78SOPE  C318 7063   1.769   4.430   4.484 -0.0269  0.0186 -0.0472
   78SOPE  H18X 7064   1.741   4.408   4.378 -2.4006  1.3828  0.2259
   78SOPE  H18Y 7065   1.720   4.346   4.537 -0.0698 -0.1440 -0.3409
   78SOPE  H18Z 7066   1.877   4.424   4.508 -0.1832  0.1264  0.7096
   79SOPE     N 7067   3.088   2.549   6.605 -0.2701 -0.7049 -0.3801
   79SOPE   HN1 7068   3.079   2.446   6.615 -2.7903 -0.5089 -0.0293
   79SOPE   HN2 7069   3.100   2.600   6.695 -0.5617 -0.7569 -0.3114
   79SOPE   HN3 7070   2.992   2.571   6.571 -0.3616 -2.2134 -1.1569
   79SOPE   C12 7071   3.197   2.566   6.510  0.1712 -0.1775  0.8974
   79SOPE  H12A 7072   3.286   2.584   6.574 -0.6694  0.7571  1.8573
   79SOPE  H12B 7073   3.190   2.664   6.459  1.3995 -0.3553  0.3636
   79SOPE   C11 7074   3.203   2.455   6.415 -0.0902  0.9767 -0.3564
   79SOPE  H11A 7075   3.293   2.462   6.350  0.6412 -1.5796  0.2509
   79SOPE  H11B 7076   3.122   2.452   6.338 -1.2183 -1.5186  0.7993
   79SOPE     P 7077   3.342   2.257   6.517  0.8468  0.3333  0.5653
   79SOPE   O13 7078   3.315   2.121   6.578 -0.5005 -0.2824 -0.1866
   79SOPE   O14 7079   3.424   2.354   6.592  0.6204  0.5018  0.4491
   79SOPE   O12 7080   3.204   2.329   6.477 -0.2242  0.3053 -0.5899
   79SOPE   O11 7081   3.413   2.237   6.377 -0.2273 -0.2806 -0.2925
   79SOPE    C1 7082   3.364   2.159   6.270  0.1282  0.5008  0.2072
   79SOPE    HA 7083   3.362   2.230   6.184  0.4189 -0.3903 -0.5523
   79SOPE    HB 7084   3.261   2.121   6.290 -1.0239  2.3743 -1.6407
   79SOPE    C2 7085   3.447   2.026   6.242  1.0068  0.4588  0.7705
   79SOPE    HS 7086   3.428   1.953   6.323 -2.3478 -2.4580 -2.2682
   79SOPE   O21 7087   3.584   2.054   6.212  0.6533  0.0740  0.2738
   79SOPE   C21 7088   3.663   1.954   6.210  0.1703  0.0079 -0.0282
   79SOPE   O22 7089   3.628   1.840   6.241 -0.1087 -0.4622  0.0464
   79SOPE   C22 7090   3.803   2.005   6.167  0.5730 -0.2690 -0.0555
   79SOPE   H2R 7091   3.869   1.995   6.255  1.6463  1.6901 -0.5795
   79SOPE   H2S 7092   3.796   2.111   6.137  2.4992 -0.2740 -0.6736
   79SOPE    C3 7093   3.381   1.957   6.119  1.0653  0.2417 -0.1165
   79SOPE    HX 7094   3.275   1.940   6.146  0.2354  2.6596 -1.5215
   79SOPE    HY 7095   3.421   1.856   6.097  1.1333  0.3905 -0.6751
   79SOPE   O31 7096   3.404   2.049   6.009  0.3624  0.2540  0.3682
   79SOPE   C31 7097   3.293   2.107   5.957 -0.1389  0.4490  0.2574
   79SOPE   O32 7098   3.178   2.080   5.981 -0.0358 -0.9653  0.3557
   79SOPE   C32 7099   3.333   2.189   5.840  0.4048 -0.0509  0.1518
   79SOPE   H2X 7100   3.439   2.222   5.849  0.3503  0.5867 -1.2732
   79SOPE   H2Y 7101   3.282   2.288   5.845  0.8471  0.1184  2.5205
   79SOPE   C23 7102   3.853   1.923   6.047 -0.4682  0.0882  0.0628
   79SOPE   H3R 7103   3.821   1.817   6.052  0.5048 -0.3713 -2.2164
   79SOPE   H3S 7104   3.964   1.915   6.055 -0.2912  1.8758 -0.2794
   79SOPE   C24 7105   3.818   1.980   5.912 -0.0023 -0.5030  0.4295
   79SOPE   H4R 7106   3.707   1.980   5.909 -0.0828  2.9185 -1.5476
   79SOPE   H4S 7107   3.841   2.088   5.900  0.5081 -0.7818 -1.3890
   79SOPE   C25 7108   3.879   1.910   5.789  0.8559 -0.8802  0.2375
   79SOPE   H5R 7109   3.988   1.909   5.810  1.1036 -0.8841 -1.0089
   79SOPE   H5S 7110   3.852   1.802   5.791 -0.1758 -0.6355 -0.0099
   79SOPE   C26 7111   3.830   1.964   5.655 -0.1324  0.0251 -0.2666
   79SOPE   H6R 7112   3.724   1.939   5.636 -0.1842  0.0697 -0.0324
   79SOPE   H6S 7113   3.844   2.071   5.680  1.6393 -0.4805  1.1512
   79SOPE   C27 7114   3.908   1.914   5.532 -0.3594 -0.8400  0.3041
   79SOPE   H7R 7115   3.907   1.803   5.523  1.4763 -1.0417  1.8195
   79SOPE   H7S 7116   3.849   1.960   5.450 -1.1652 -1.2142  0.6635
   79SOPE   C28 7117   4.054   1.973   5.536  0.2658 -0.4125 -0.4583
   79SOPE   H8R 7118   4.101   1.920   5.621  0.1231 -0.9704 -0.7216
   79SOPE   H8S 7119   4.092   1.946   5.435 -3.0157 -0.9172 -1.7037
   79SOPE   C29 7120   4.066   2.119   5.556 -0.2470 -0.0793 -0.3337
   79SOPE   H91 7121   4.074   2.150   5.661 -1.9657  1.1814 -0.5408
   79SOPE  C210 7122   4.070   2.217   5.464 -0.2263 -0.3997  0.1719
   79SOPE  H101 7123   4.087   2.318   5.501  1.1017 -1.0863  1.5094
   79SOPE  C211 7124   4.047   2.208   5.317  0.0728  0.1977  0.1253
   79SOPE  H11R 7125   3.959   2.270   5.288  0.0304  0.4101  0.6997
   79SOPE  H11S 7126   4.023   2.107   5.278 -0.5078  0.2838  0.2583
   79SOPE  C212 7127   4.178   2.243   5.240  0.8061 -0.1396 -0.3579
   79SOPE  H12R 7128   4.261   2.169   5.248  0.8229 -0.0387  0.4081
   79SOPE  H12S 7129   4.221   2.341   5.268 -0.4530  0.3125  0.0336
   79SOPE  C213 7130   4.144   2.239   5.087 -0.1493  0.0773  0.3204
   79SOPE  H13R 7131   4.045   2.289   5.077 -0.6861 -1.1961 -1.1262
   79SOPE  H13S 7132   4.134   2.134   5.050  0.7475  0.1588 -0.1890
   79SOPE  C214 7133   4.256   2.300   4.996 -0.0255  0.0799 -0.8921
   79SOPE  H14R 7134   4.343   2.232   5.000  0.5425  0.7940 -0.7257
   79SOPE  H14S 7135   4.300   2.397   5.030  1.2860 -0.8869  0.2946
   79SOPE  C215 7136   4.199   2.309   4.856  0.3405 -0.1772  0.3089
   79SOPE  H15R 7137   4.110   2.375   4.860  1.0663  0.8396  0.1017
   79SOPE  H15S 7138   4.172   2.204   4.831  0.9316 -0.4904  0.9351
   79SOPE  C216 7139   4.285   2.371   4.745 -0.0271 -0.0506  0.9227
   79SOPE  H16R 7140   4.378   2.315   4.722  1.5488  3.4650 -2.2917
   79SOPE  H16S 7141   4.323   2.468   4.785 -0.1227  0.2831  0.2134
   79SOPE  C217 7142   4.211   2.399   4.610 -0.2655 -0.4590  0.5649
   79SOPE  H17R 7143   4.137   2.481   4.624 -1.8634 -1.8955  1.0261
   79SOPE  H17S 7144   4.147   2.310   4.588 -3.1722  1.0077  2.4251
   79SOPE  C218 7145   4.310   2.433   4.502 -0.5107 -0.0860  0.0774
   79SOPE  H18R 7146   4.387   2.355   4.487  0.5281  1.0033 -0.4930
   79SOPE  H18S 7147   4.369   2.524   4.528 -0.6335 -0.5261  2.0379
   79SOPE  H18T 7148   4.259   2.456   4.407  0.7794  0.5318 -0.4960
   79SOPE   C33 7149   3.315   2.116   5.702 -0.1908 -0.1502  0.0978
   79SOPE   H3X 7150   3.321   2.197   5.626 -1.3857  1.1936  1.3722
   79SOPE   H3Y 7151   3.211   2.079   5.708 -0.6172  0.9770 -0.1671
   79SOPE   C34 7152   3.415   2.007   5.674  0.1238 -0.0558 -0.3293
   79SOPE   H4X 7153   3.430   1.939   5.760  0.6260 -0.3980 -0.6798
   79SOPE   H4Y 7154   3.516   2.046   5.647 -0.0010 -2.1922 -4.9404
   79SOPE   C35 7155   3.372   1.915   5.553 -0.0517  0.6584  0.2268
   79SOPE   H5X 7156   3.263   1.902   5.533  0.1066  1.5395 -1.3375
   79SOPE   H5Y 7157   3.405   1.815   5.588  0.8627  0.8836  0.0110
   79SOPE   C36 7158   3.429   1.970   5.426 -0.1274  0.3569  0.1516
   79SOPE   H6X 7159   3.539   1.969   5.443 -0.3203 -1.0279  1.5905
   79SOPE   H6Y 7160   3.382   2.070   5.417 -0.8097 -0.0616 -1.1917
   79SOPE   C37 7161   3.392   1.893   5.298  0.6646 -0.3005 -0.0696
   79SOPE   H7X 7162   3.286   1.864   5.310  0.0332  2.2573  1.0064
   79SOPE   H7Y 7163   3.451   1.800   5.279  1.3262  0.0483  0.2590
   79SOPE   C38 7164   3.390   1.979   5.173  0.0008 -0.1094  0.6820
   79SOPE   H8X 7165   3.491   2.023   5.157 -0.3707  0.4834 -0.0769
   79SOPE   H8Y 7166   3.327   2.070   5.178 -0.0342  0.0111 -1.3845
   79SOPE   C39 7167   3.352   1.891   5.059  0.0712 -0.1964 -0.3809
   79SOPE   H9X 7168   3.254   1.842   5.076 -0.0975  0.0450 -0.6497
   79SOPE   H9Y 7169   3.431   1.816   5.037  0.9424  0.2308  1.1223
   79SOPE  C310 7170   3.354   1.981   4.936 -0.2365  0.3369 -0.3185
   79SOPE  H10X 7171   3.456   2.018   4.911 -1.1799  3.0197 -0.4133
   79SOPE  H10Y 7172   3.292   2.072   4.935 -0.1260  0.4250 -1.9392
   79SOPE  C311 7173   3.304   1.912   4.813  0.4860  0.5170  0.4189
   79SOPE  H11X 7174   3.199   1.888   4.838  0.1829  0.5742 -0.7365
   79SOPE  H11Y 7175   3.364   1.819   4.799  1.6028  1.4404 -1.4067
   79SOPE  C312 7176   3.300   1.996   4.687  0.3634  0.2640 -0.6418
   79SOPE  H12X 7177   3.404   2.011   4.651  1.2734 -1.3008  1.2083
   79SOPE  H12Y 7178   3.270   2.096   4.724 -1.0483  0.0291 -1.0656
   79SOPE  C313 7179   3.196   1.956   4.586 -0.3662  0.3367 -0.7397
   79SOPE  H13X 7180   3.192   2.036   4.509 -0.0923  1.4724  0.3839
   79SOPE  H13Y 7181   3.093   1.943   4.626 -0.9883 -2.8999 -3.0091
   79SOPE  C314 7182   3.227   1.816   4.524  0.8185  0.1869  0.3944
   79SOPE  H14X 7183   3.209   1.732   4.595  2.0248 -0.4437 -0.0162
   79SOPE  H14Y 7184   3.338   1.820   4.513  0.7734  0.4963  0.0145
   79SOPE  C315 7185   3.167   1.797   4.385  1.0650  0.5940 -0.2971
   79SOPE  H15X 7186   3.170   1.687   4.374 -0.1461  0.6879 -1.8662
   79SOPE  H15Y 7187   3.232   1.838   4.305  0.6115  1.7538 -0.0864
   79SOPE  C316 7188   3.017   1.844   4.365  0.5026 -0.0548 -0.5903
   79SOPE  H16X 7189   2.977   1.815   4.266  1.5024  0.1607 -1.0749
   79SOPE  H16Y 7190   3.018   1.955   4.364  0.3331  0.0462  2.2604
   79SOPE  C317 7191   2.923   1.786   4.472  0.2042 -0.2208 -0.0722
   79SOPE  H17X 7192   2.977   1.777   4.569 -0.1032 -1.7231 -0.0196
   79SOPE  H17Y 7193   2.897   1.680   4.450 -5.0221  0.7495  0.1243
   79SOPE  C318 7194   2.786   1.850   4.495 -0.2687 -0.6245 -0.0978
   79SOPE  H18X 7195   2.789   1.959   4.520 -0.9350 -1.1798  2.7013
   79SOPE  H18Y 7196   2.748   1.809   4.590 -2.1680  0.3182 -0.4042
   79SOPE  H18Z 7197   2.717   1.826   4.411  0.4480  0.7651 -1.1304
   80SOPE     N 7198   5.188   5.475   6.627 -0.2214  0.8536 -0.2163
   80SOPE   HN1 7199   5.203   5.578   6.637  1.9119  0.4904  1.1306
   80SOPE   HN2 7200   5.093   5.449   6.594 -0.5624  1.9606 -0.1588
   80SOPE   HN3 7201   5.207   5.429   6.719 -1.8168 -2.0498 -1.2447
   80SOPE   C12 7202   5.297   5.434   6.527  0.2599  0.2102  0.1181
   80SOPE  H12A 7203   5.288   5.501   6.439  0.0324 -0.5335 -0.4306
   80SOPE  H12B 7204   5.276   5.329   6.496  1.3247 -0.0778  0.3386
   80SOPE   C11 7205   5.438   5.456   6.585 -0.2213  0.2531 -0.1536
   80SOPE  H11A 7206   5.457   5.564   6.605 -1.6701  0.4364  0.3112
   80SOPE  H11B 7207   5.510   5.421   6.508 -2.4933 -1.3995 -1.6515
   80SOPE     P 7208   5.578   5.410   6.794  0.6007 -0.1625  0.6749
   80SOPE   O13 7209   5.572   5.327   6.914  0.3691 -0.1582 -0.4493
   80SOPE   O14 7210   5.593   5.555   6.807  0.5968 -0.3872  0.0140
   80SOPE   O12 7211   5.448   5.380   6.718  0.6830  0.5831  0.2011
   80SOPE   O11 7212   5.685   5.356   6.685 -0.0254  0.0805  0.0631
   80SOPE    C1 7213   5.820   5.402   6.692  0.1028  0.1387 -0.1821
   80SOPE    HA 7214   5.882   5.311   6.698 -0.2022 -0.2188 -1.9025
   80SOPE    HB 7215   5.846   5.473   6.774  0.9102  0.4300 -0.6805
   80SOPE    C2 7216   5.857   5.475   6.563  0.4251 -0.2897  1.1341
   80SOPE    HS 7217   5.967   5.493   6.565  0.2465  0.8758  1.0070
   80SOPE   O21 7218   5.793   5.603   6.549 -0.2018 -0.3395  0.1883
   80SOPE   C21 7219   5.860   5.702   6.610  0.8735  0.2860 -0.7949
   80SOPE   O22 7220   5.964   5.682   6.669  0.1341 -0.8813 -0.0744
   80SOPE   C22 7221   5.787   5.833   6.585 -0.0678  0.1330 -0.7076
   80SOPE   H2R 7222   5.762   5.872   6.686 -1.5516 -2.2533 -0.0670
   80SOPE   H2S 7223   5.686   5.821   6.539 -0.9121  2.3953  0.4133
   80SOPE    C3 7224   5.832   5.387   6.434  0.3807 -0.1744 -0.0267
   80SOPE    HX 7225   5.724   5.367   6.423  0.4676 -1.4986  1.2773
   80SOPE    HY 7226   5.880   5.288   6.447  0.1722 -0.4949 -1.4870
   80SOPE   O31 7227   5.891   5.456   6.320 -0.4056 -0.2800 -0.1441
   80SOPE   C31 7228   5.806   5.494   6.224 -0.5537 -0.1771 -0.0040
   80SOPE   O32 7229   5.686   5.505   6.228  0.0285 -0.4224  0.2637
   80SOPE   C32 7230   5.887   5.512   6.100  0.2239 -0.1675 -0.5049
   80SOPE   H2X 7231   5.940   5.415   6.085 -1.7213 -1.2080 -1.0313
   80SOPE   H2Y 7232   5.967   5.588   6.111  0.3849 -0.5317  1.0970
   80SOPE   C23 7233   5.866   5.922   6.488 -0.3378 -0.1547  0.4204
   80SOPE   H3R 7234   5.977   5.919   6.495 -0.2169 -3.2569 -1.2234
   80SOPE   H3S 7235   5.839   6.024   6.523 -0.2591  1.0995 -2.8749
   80SOPE   C24 7236   5.824   5.912   6.339 -0.2307  0.2470  1.1764
   80SOPE   H4R 7237   5.845   5.807   6.309 -1.3905  0.4118 -0.3434
   80SOPE   H4S 7238   5.717   5.942   6.328 -0.3177 -0.7807 -1.3559
   80SOPE   C25 7239   5.916   5.990   6.241  0.7056 -0.0759 -0.1550
   80SOPE   H5R 7240   5.885   6.096   6.259  0.4999  0.2298 -2.0943
   80SOPE   H5S 7241   6.024   5.978   6.264  0.5625  0.2305  0.7204
   80SOPE   C26 7242   5.885   5.946   6.095 -0.2762 -0.4424  0.0907
   80SOPE   H6R 7243   5.887   5.837   6.077 -0.9936 -0.2107 -1.6144
   80SOPE   H6S 7244   5.778   5.969   6.076 -0.2114 -1.3122 -1.5730
   80SOPE   C27 7245   5.977   6.023   5.988 -0.1040  0.3167  0.4274
   80SOPE   H7R 7246   5.955   6.130   6.008 -0.8950  0.1247  0.6168
   80SOPE   H7S 7247   6.079   6.002   6.027  0.2634 -0.3624 -0.8472
   80SOPE   C28 7248   5.965   5.979   5.841 -0.3377 -0.0299  1.1787
   80SOPE   H8R 7249   6.060   6.008   5.792 -0.2414 -0.2626  1.2244
   80SOPE   H8S 7250   5.953   5.869   5.845 -0.0873 -0.0256  3.5695
   80SOPE   C29 7251   5.840   6.040   5.789  0.2065  0.2622 -0.3179
   80SOPE   H91 7252   5.748   6.034   5.848 -0.5134 -0.0296 -1.4340
   80SOPE  C210 7253   5.823   6.078   5.658  0.5899  0.1455  0.1610
   80SOPE  H101 7254   5.729   6.125   5.625  1.5000  1.4470 -0.6562
   80SOPE  C211 7255   5.927   6.086   5.550  0.1714  0.1525 -0.5251
   80SOPE  H11R 7256   6.023   6.041   5.581  0.0790 -0.3519 -0.9589
   80SOPE  H11S 7257   5.963   6.187   5.522  1.2130 -0.1246 -0.2259
   80SOPE  C212 7258   5.880   6.032   5.414 -0.0176  0.8893 -0.4685
   80SOPE  H12R 7259   5.787   6.077   5.373 -0.8168 -0.4717 -0.2300
   80SOPE  H12S 7260   5.843   5.927   5.423  0.3021  0.8018 -0.1826
   80SOPE  C213 7261   5.985   6.039   5.303  0.8781  0.5148  0.5485
   80SOPE  H13R 7262   6.078   5.984   5.332 -0.6518 -1.9786  1.0279
   80SOPE  H13S 7263   6.012   6.144   5.281  1.4951  0.0625 -0.9873
   80SOPE  C214 7264   5.937   5.977   5.176  0.3919  0.0919  0.2956
   80SOPE  H14R 7265   5.837   6.019   5.153  0.6385  2.2836  2.7778
   80SOPE  H14S 7266   5.931   5.866   5.184  1.5452 -0.0177 -0.1614
   80SOPE  C215 7267   6.031   5.995   5.055  0.1578 -0.7054 -0.0629
   80SOPE  H15R 7268   5.994   5.938   4.967 -3.3832  1.7082 -0.3254
   80SOPE  H15S 7269   6.129   5.955   5.089  0.9034  1.2070  0.1849
   80SOPE  C216 7270   6.058   6.133   4.997 -0.2736 -0.3704  0.5804
   80SOPE  H16R 7271   6.088   6.203   5.078 -0.6447  1.8532 -1.1002
   80SOPE  H16S 7272   5.959   6.168   4.961 -0.7309 -1.0773  1.1321
   80SOPE  C217 7273   6.165   6.149   4.890 -0.9718 -0.3833  0.3503
   80SOPE  H17R 7274   6.255   6.089   4.916 -1.8895 -1.2882  1.5440
   80SOPE  H17S 7275   6.200   6.250   4.861  2.3399 -1.7241 -0.8705
   80SOPE  C218 7276   6.107   6.091   4.751 -1.0068 -0.1761 -0.3337
   80SOPE  H18R 7277   6.098   5.981   4.760  0.9531 -0.3093  0.7072
   80SOPE  H18S 7278   6.192   6.097   4.679  2.3467 -0.0156  3.2600
   80SOPE  H18T 7279   6.013   6.137   4.716 -0.9771  0.2879  0.1721
   80SOPE   C33 7280   5.818   5.547   5.964  0.0428  0.4359 -0.3626
   80SOPE   H3X 7281   5.798   5.656   5.964 -1.7365  0.1395 -0.0777
   80SOPE   H3Y 7282   5.723   5.494   5.943 -0.5334  2.2636 -2.6998
   80SOPE   C34 7283   5.914   5.509   5.847 -0.3001 -0.2460 -0.6006
   80SOPE   H4X 7284   5.928   5.400   5.857  1.1425  0.1033  2.8157
   80SOPE   H4Y 7285   6.011   5.557   5.876 -0.1893 -1.1220  0.5782
   80SOPE   C35 7286   5.845   5.555   5.718 -0.7133  0.3358 -0.2476
   80SOPE   H5X 7287   5.835   5.665   5.730 -2.3546  0.1602  0.3335
   80SOPE   H5Y 7288   5.739   5.522   5.720 -0.0986 -1.7851 -0.0820
   80SOPE   C36 7289   5.915   5.517   5.586 -0.9453 -0.0070  0.1696
   80SOPE   H6X 7290   5.912   5.409   5.560 -0.0068  0.2052 -0.8862
   80SOPE   H6Y 7291   6.023   5.546   5.583 -1.8196  3.7380 -2.1716
   80SOPE   C37 7292   5.844   5.583   5.470  0.7963 -0.0838  0.2762
   80SOPE   H7X 7293   5.861   5.692   5.486 -0.7848  0.6484 -2.3149
   80SOPE   H7Y 7294   5.735   5.566   5.469  1.0021 -1.5774  0.7637
   80SOPE   C38 7295   5.908   5.540   5.340 -0.8995  0.3447  0.4490
   80SOPE   H8X 7296   5.911   5.428   5.337  1.4358  0.3378  0.7484
   80SOPE   H8Y 7297   6.016   5.568   5.344 -0.5557 -0.9818  1.1838
   80SOPE   C39 7298   5.838   5.596   5.219  0.7101 -0.1129 -0.6881
   80SOPE   H9X 7299   5.809   5.700   5.247 -0.2483 -0.7996  0.9616
   80SOPE   H9Y 7300   5.751   5.529   5.203  1.0062 -0.3022 -1.5431
   80SOPE  C310 7301   5.916   5.595   5.093  0.0800 -0.0995  0.0311
   80SOPE  H10X 7302   5.966   5.497   5.078  1.5309  0.4524  1.0084
   80SOPE  H10Y 7303   6.000   5.667   5.109 -1.3230  1.1639  2.1843
   80SOPE  C311 7304   5.824   5.631   4.976  0.7098 -0.3059  0.2365
   80SOPE  H11X 7305   5.789   5.734   4.999  0.3881 -0.3298 -0.1309
   80SOPE  H11Y 7306   5.744   5.554   4.968  0.0822  0.1951  1.4246
   80SOPE  C312 7307   5.903   5.640   4.844  0.0381  0.1097 -0.3781
   80SOPE  H12X 7308   5.948   5.542   4.819 -0.1185  0.1597 -0.8549
   80SOPE  H12Y 7309   5.986   5.713   4.850  1.6381 -1.7373  2.3230
   80SOPE  C313 7310   5.816   5.680   4.723  0.0870 -0.1967  0.0207
   80SOPE  H13X 7311   5.713   5.639   4.734  0.4229 -1.4738 -1.2648
   80SOPE  H13Y 7312   5.852   5.647   4.623  0.2865 -0.0724  0.0528
   80SOPE  C314 7313   5.793   5.833   4.717  0.5489  0.6559 -0.1075
   80SOPE  H14X 7314   5.894   5.880   4.719  0.2676  1.2423  0.8895
   80SOPE  H14Y 7315   5.745   5.862   4.812  0.7771 -0.8091  0.4789
   80SOPE  C315 7316   5.704   5.882   4.593 -0.5354  0.0589  0.4502
   80SOPE  H15X 7317   5.602   5.839   4.608  0.3108 -1.1942  3.2332
   80SOPE  H15Y 7318   5.747   5.846   4.497 -3.0586  1.3509 -1.2763
   80SOPE  C316 7319   5.679   6.032   4.593  0.8704  0.4312  0.0890
   80SOPE  H16X 7320   5.774   6.089   4.588  1.5521 -0.6605  0.3672
   80SOPE  H16Y 7321   5.625   6.071   4.682  1.0007  1.9167 -0.4611
   80SOPE  C317 7322   5.592   6.079   4.469 -0.3850  0.1793  0.0985
   80SOPE  H17X 7323   5.514   6.003   4.448  0.0312 -0.5117  0.9529
   80SOPE  H17Y 7324   5.656   6.087   4.379 -1.5109  0.5854 -0.6823
   80SOPE  C318 7325   5.534   6.218   4.496 -0.6230 -0.1035 -0.2306
   80SOPE  H18X 7326   5.625   6.282   4.498 -0.5276 -0.2398 -0.1853
   80SOPE  H18Y 7327   5.481   6.223   4.593 -0.3438 -0.2116 -0.0732
   80SOPE  H18Z 7328   5.460   6.247   4.417  0.0508  2.0137 -0.1601
   81SOPE     N 7329   2.799   0.400   7.042 -0.2104  0.3723  0.0465
   81SOPE   HN1 7330   2.720   0.455   7.081  0.1144  0.9401 -0.0802
   81SOPE   HN2 7331   2.772   0.302   7.023 -0.0172  0.5238 -1.0803
   81SOPE   HN3 7332   2.864   0.393   7.123 -0.4156  1.2406  0.3019
   81SOPE   C12 7333   2.882   0.460   6.925  0.0689  0.0894  0.3315
   81SOPE  H12A 7334   2.927   0.555   6.960 -0.4690  0.4563  0.0436
   81SOPE  H12B 7335   2.809   0.475   6.842  0.8864  1.3329 -0.1931
   81SOPE   C11 7336   3.000   0.362   6.889  1.2253 -0.0465 -0.6581
   81SOPE  H11A 7337   3.054   0.347   6.985 -1.0014  1.8918  0.9934
   81SOPE  H11B 7338   3.068   0.419   6.822  0.4522  3.1320  1.0806
   81SOPE     P 7339   2.929   0.212   6.690  0.1981 -0.0468 -0.0507
   81SOPE   O13 7340   2.819   0.306   6.657  0.4153  0.1693 -0.1290
   81SOPE   O14 7341   2.914   0.068   6.660  0.8142 -0.5677 -0.0332
   81SOPE   O12 7342   2.957   0.233   6.842 -0.3059  0.0059 -0.5163
   81SOPE   O11 7343   3.046   0.268   6.611 -0.4547  0.2038 -0.0133
   81SOPE    C1 7344   3.171   0.203   6.611  0.0348  0.6153  0.2893
   81SOPE    HA 7345   3.162   0.094   6.592 -1.3086  0.1366  3.0791
   81SOPE    HB 7346   3.217   0.216   6.711  1.8183 -0.4684 -0.3398
   81SOPE    C2 7347   3.278   0.262   6.504  0.8196 -0.6885 -0.6076
   81SOPE    HS 7348   3.377   0.256   6.552  0.3124 -2.2847  0.3171
   81SOPE   O21 7349   3.240   0.395   6.458 -0.3810  0.1879 -0.1192
   81SOPE   C21 7350   3.257   0.485   6.560 -0.2559 -0.1278  0.1381
   81SOPE   O22 7351   3.284   0.457   6.673 -0.1728  0.5431 -0.5255
   81SOPE   C22 7352   3.244   0.617   6.503  0.6168 -0.1691 -0.0489
   81SOPE   H2R 7353   3.268   0.691   6.582  0.0610  0.7203 -0.6954
   81SOPE   H2S 7354   3.137   0.628   6.475  0.2101 -0.8458  1.1555
   81SOPE    C3 7355   3.290   0.173   6.376  1.1604  0.4716  0.2551
   81SOPE    HX 7356   3.193   0.163   6.324  1.5129 -1.1799 -0.1554
   81SOPE    HY 7357   3.302   0.071   6.418 -1.1041  0.4383  0.9521
   81SOPE   O31 7358   3.402   0.205   6.291 -0.1830  0.4288 -0.2647
   81SOPE   C31 7359   3.372   0.280   6.190  0.0247 -0.2115 -0.2563
   81SOPE   O32 7360   3.265   0.333   6.168  0.3961  0.4527 -0.3459
   81SOPE   C32 7361   3.507   0.329   6.114  0.2726  0.7641 -1.0207
   81SOPE   H2X 7362   3.556   0.230   6.107 -1.9114 -0.5827  0.9670
   81SOPE   H2Y 7363   3.572   0.379   6.189 -0.3995  1.9281 -1.1862
   81SOPE   C23 7364   3.316   0.643   6.366 -0.2336  0.3044 -0.4837
   81SOPE   H3R 7365   3.279   0.574   6.287  0.1228  0.1356 -0.5046
   81SOPE   H3S 7366   3.424   0.624   6.383 -0.0851  0.2094 -1.4456
   81SOPE   C24 7367   3.303   0.788   6.311 -0.1069 -0.3245 -0.8004
   81SOPE   H4R 7368   3.195   0.802   6.288 -0.4783  1.0919  1.4917
   81SOPE   H4S 7369   3.331   0.855   6.395 -0.7251 -0.3849 -0.5436
   81SOPE   C25 7370   3.385   0.813   6.185 -0.6951  0.4237 -0.2427
   81SOPE   H5R 7371   3.485   0.825   6.233 -1.5222 -1.5534  2.1907
   81SOPE   H5S 7372   3.390   0.733   6.108 -0.7712 -1.1268  1.2936
   81SOPE   C26 7373   3.345   0.943   6.114 -0.1072  0.6139 -0.7166
   81SOPE   H6R 7374   3.330   1.023   6.189 -2.4959  0.0005 -0.4566
   81SOPE   H6S 7375   3.429   0.973   6.048 -0.9372 -0.8814 -2.5636
   81SOPE   C27 7376   3.216   0.922   6.030  0.3655 -0.1920  0.9082
   81SOPE   H7R 7377   3.177   0.819   6.041 -0.7677  0.2829  1.6429
   81SOPE   H7S 7378   3.135   0.990   6.067  0.8286  0.1069  1.3834
   81SOPE   C28 7379   3.247   0.953   5.876  0.0349 -0.0922  0.2669
   81SOPE   H8R 7380   3.348   0.911   5.857 -0.4972 -0.7860 -1.1837
   81SOPE   H8S 7381   3.183   0.893   5.808 -2.7180  3.0837 -0.1861
   81SOPE   C29 7382   3.233   1.103   5.858  1.1721 -0.0619  0.5542
   81SOPE   H91 7383   3.308   1.161   5.913  1.6316  0.5831 -0.7030
   81SOPE  C210 7384   3.155   1.173   5.772 -0.0783  0.4318  0.2462
   81SOPE  H101 7385   3.168   1.283   5.770  0.7027  0.4070  2.1037
   81SOPE  C211 7386   3.060   1.108   5.675 -0.4178 -0.1308  0.4771
   81SOPE  H11R 7387   2.989   1.189   5.645 -1.0468 -1.0747 -0.6458
   81SOPE  H11S 7388   2.998   1.027   5.718 -1.6740  1.2628  1.4145
   81SOPE  C212 7389   3.145   1.068   5.555 -0.1380 -0.6228 -0.4032
   81SOPE  H12R 7390   3.214   0.988   5.586 -0.8402 -0.7581  0.8591
   81SOPE  H12S 7391   3.206   1.153   5.517 -0.4750 -0.6360 -0.9916
   81SOPE  C213 7392   3.064   1.018   5.434 -0.4323 -0.0914 -0.4846
   81SOPE  H13R 7393   3.142   1.010   5.356  0.7475  0.0084  0.6452
   81SOPE  H13S 7394   2.993   1.097   5.401 -1.3370 -0.9516 -0.6524
   81SOPE  C214 7395   2.982   0.887   5.452 -0.5253 -0.6177 -0.7260
   81SOPE  H14R 7396   2.915   0.882   5.540  0.1022 -0.8628 -0.2567
   81SOPE  H14S 7397   3.053   0.803   5.469 -0.6721 -0.6691 -0.3591
   81SOPE  C215 7398   2.905   0.853   5.323 -0.4829  0.5860 -0.4428
   81SOPE  H15R 7399   2.837   0.940   5.306 -2.4254 -0.5782  1.0320
   81SOPE  H15S 7400   2.849   0.758   5.336 -1.3837  1.4258  2.6601
   81SOPE  C216 7401   2.994   0.863   5.198 -0.1631  0.1453 -0.1005
   81SOPE  H16R 7402   3.088   0.807   5.215 -0.9309 -0.7418  1.5198
   81SOPE  H16S 7403   3.015   0.969   5.172  0.4385  0.4889  1.6430
   81SOPE  C217 7404   2.933   0.788   5.080 -0.6129 -0.6825  1.3281
   81SOPE  H17R 7405   2.836   0.840   5.062 -0.1652 -0.3274 -0.2666
   81SOPE  H17S 7406   2.917   0.681   5.104 -1.0538 -0.5408  1.6687
   81SOPE  C218 7407   3.017   0.806   4.944 -0.2671 -0.3587  0.1686
   81SOPE  H18R 7408   3.055   0.910   4.941 -0.5012 -0.2929 -0.7718
   81SOPE  H18S 7409   2.958   0.778   4.854  0.7105 -0.5182 -0.4365
   81SOPE  H18T 7410   3.108   0.741   4.944  0.0120 -0.0189 -1.8482
   81SOPE   C33 7411   3.473   0.397   5.989  0.1323  0.7073  0.1935
   81SOPE   H3X 7412   3.575   0.436   5.964  1.2905 -0.1061  3.2286
   81SOPE   H3Y 7413   3.406   0.485   5.981 -0.3833  0.1340 -2.9124
   81SOPE   C34 7414   3.414   0.293   5.885 -0.4826  0.6362 -0.6849
   81SOPE   H4X 7415   3.305   0.275   5.896 -0.4550  0.9021  0.0623
   81SOPE   H4Y 7416   3.470   0.197   5.895 -1.2416  0.3993  1.9071
   81SOPE   C35 7417   3.416   0.339   5.738  0.0453  0.0052  0.2163
   81SOPE   H5X 7418   3.521   0.353   5.703 -0.5981  1.0617 -1.3614
   81SOPE   H5Y 7419   3.382   0.444   5.742  1.6661  0.5668  0.2533
   81SOPE   C36 7420   3.347   0.241   5.648  0.5855  0.0810  0.3920
   81SOPE   H6X 7421   3.239   0.259   5.663 -0.2941 -3.1534 -1.2396
   81SOPE   H6Y 7422   3.364   0.134   5.670 -1.5622 -0.1574  1.0751
   81SOPE   C37 7423   3.383   0.259   5.499  0.6743  0.3214  0.2816
   81SOPE   H7X 7424   3.493   0.267   5.486  0.6741 -0.7385 -0.5459
   81SOPE   H7Y 7425   3.321   0.337   5.449  0.7381  1.3433  1.7240
   81SOPE   C38 7426   3.347   0.127   5.419 -0.4090 -0.1937 -0.1343
   81SOPE   H8X 7427   3.247   0.102   5.458 -0.8576  1.6087 -0.0066
   81SOPE   H8Y 7428   3.412   0.041   5.445 -1.9346 -1.4453 -0.3335
   81SOPE   C39 7429   3.342   0.148   5.267  0.2174  0.2572  0.6446
   81SOPE   H9X 7430   3.430   0.204   5.228  0.1247  0.2114  0.3612
   81SOPE   H9Y 7431   3.252   0.210   5.247 -0.0734 -0.5465 -0.6665
   81SOPE  C310 7432   3.321   0.031   5.171 -0.0433  0.3115  0.2426
   81SOPE  H10X 7433   3.395  -0.048   5.194  1.0513  1.3076  0.2367
   81SOPE  H10Y 7434   3.338   0.068   5.068  1.7568  1.3622  0.8614
   81SOPE  C311 7435   3.182  -0.020   5.186 -0.4661 -0.3820 -0.2173
   81SOPE  H11X 7436   3.117   0.051   5.130  0.6687  1.2493  0.4604
   81SOPE  H11Y 7437   3.157   0.008   5.290 -0.0543  0.6878 -0.3959
   81SOPE  C312 7438   3.160  -0.167   5.139 -0.1948  0.1931  0.1183
   81SOPE  H12X 7439   3.212  -0.248   5.194  0.6519  0.9174  0.4198
   81SOPE  H12Y 7440   3.212  -0.169   5.040 -0.0034  1.9310  0.1550
   81SOPE  C313 7441   3.011  -0.199   5.125 -0.8524  0.9534  0.3954
   81SOPE  H13X 7442   2.967  -0.103   5.091  0.9116  1.8964  0.6223
   81SOPE  H13Y 7443   2.974  -0.221   5.228  1.4549 -0.2376  1.0462
   81SOPE  C314 7444   2.980  -0.319   5.025 -0.5011 -0.8242  0.1821
   81SOPE  H14X 7445   3.061  -0.394   5.035 -0.6447 -1.1416 -0.9338
   81SOPE  H14Y 7446   2.983  -0.276   4.923 -1.4610 -0.2270  0.3899
   81SOPE  C315 7447   2.837  -0.371   5.050 -0.8656 -0.5028  0.2573
   81SOPE  H15X 7448   2.821  -0.429   5.144 -1.9403 -2.2819 -0.9614
   81SOPE  H15Y 7449   2.821  -0.440   4.965 -1.1311  1.2538 -1.1878
   81SOPE  C316 7450   2.729  -0.263   5.037 -0.2671 -0.3464 -0.0482
   81SOPE  H16X 7451   2.758  -0.200   4.950  0.6030  1.1150  1.2527
   81SOPE  H16Y 7452   2.717  -0.197   5.125  0.7336 -0.0615 -0.1121
   81SOPE  C317 7453   2.589  -0.321   5.009  0.6607 -0.4309  0.6269
   81SOPE  H17X 7454   2.543  -0.380   5.091 -2.7073  0.5360 -0.3753
   81SOPE  H17Y 7455   2.619  -0.397   4.934 -0.0568 -0.6797  0.5831
   81SOPE  C318 7456   2.492  -0.226   4.940  0.4574  0.4869  0.3100
   81SOPE  H18X 7457   2.400  -0.287   4.922 -0.4726  1.8460  0.3317
   81SOPE  H18Y 7458   2.524  -0.186   4.842  0.1406 -2.2504 -1.0305
   81SOPE  H18Z 7459   2.464  -0.136   4.999 -2.3296  0.3447 -0.6371
   82SOPE     N 7460   3.463   5.475   6.463  0.0849 -0.6742  0.2140
   82SOPE   HN1 7461   3.501   5.557   6.411  1.3587  0.3571  2.6184
   82SOPE   HN2 7462   3.421   5.510   6.552  1.1410 -1.2734  0.9662
   82SOPE   HN3 7463   3.537   5.413   6.501 -1.6674 -2.7561  0.4153
   82SOPE   C12 7464   3.373   5.395   6.366 -0.0815  0.2082 -0.3952
   82SOPE  H12A 7465   3.342   5.460   6.281  0.2647 -0.5611 -1.1285
   82SOPE  H12B 7466   3.292   5.356   6.432  0.8585 -1.4739 -0.1809
   82SOPE   C11 7467   3.446   5.278   6.302  0.3465 -0.1758  0.8671
   82SOPE  H11A 7468   3.502   5.328   6.221 -3.5872  0.0195 -2.0421
   82SOPE  H11B 7469   3.367   5.219   6.251 -0.0074  0.4906  0.6204
   82SOPE     P 7470   3.451   5.102   6.486  0.0753  0.2065  0.4416
   82SOPE   O13 7471   3.532   5.070   6.605 -0.8341  0.5224  0.5465
   82SOPE   O14 7472   3.424   4.981   6.395 -0.6460  0.0956 -0.3943
   82SOPE   O12 7473   3.523   5.209   6.403 -0.3532 -0.5562  0.1721
   82SOPE   O11 7474   3.318   5.164   6.532  0.1401 -0.0387 -0.0011
   82SOPE    C1 7475   3.209   5.071   6.572 -0.0546  0.0945 -0.3921
   82SOPE    HA 7476   3.148   5.132   6.642 -0.0010 -1.2902  0.9193
   82SOPE    HB 7477   3.254   4.993   6.638 -1.5481  0.4197  1.0632
   82SOPE    C2 7478   3.127   5.014   6.457 -0.3814 -0.0585  0.5769
   82SOPE    HS 7479   3.200   4.955   6.398 -1.2395  1.2147 -1.9024
   82SOPE   O21 7480   3.071   5.128   6.388  0.2418  0.2202  0.0125
   82SOPE   C21 7481   3.074   5.114   6.258  0.0051  0.0548 -0.2519
   82SOPE   O22 7482   3.118   5.016   6.195 -0.3149 -0.8824  0.3567
   82SOPE   C22 7483   3.012   5.240   6.198 -0.2100 -0.7071 -0.0475
   82SOPE   H2R 7484   3.067   5.330   6.234 -2.9706  1.9311 -1.9035
   82SOPE   H2S 7485   2.906   5.256   6.229 -0.0726  1.8291 -0.6643
   82SOPE    C3 7486   3.025   4.907   6.501  0.0884 -0.0513 -0.0089
   82SOPE    HX 7487   2.965   4.938   6.589 -0.6129 -0.3439 -0.3790
   82SOPE    HY 7488   3.065   4.811   6.540 -0.1471 -0.9066 -1.7649
   82SOPE   O31 7489   2.935   4.880   6.395 -0.3352  0.6325 -0.5781
   82SOPE   C31 7490   2.974   4.784   6.306 -0.3922 -0.0685 -0.9736
   82SOPE   O32 7491   3.076   4.716   6.328 -0.5171 -0.1913  0.1932
   82SOPE   C32 7492   2.870   4.770   6.194 -0.2963 -0.2151 -0.7560
   82SOPE   H2X 7493   2.873   4.863   6.132  2.1194  0.7181  0.6140
   82SOPE   H2Y 7494   2.771   4.766   6.244  0.8320  0.2145  1.6253
   82SOPE   C23 7495   3.011   5.242   6.043 -0.1831  0.7951 -0.7227
   82SOPE   H3R 7496   2.908   5.273   6.016 -0.1276  1.1150 -0.5773
   82SOPE   H3S 7497   3.009   5.142   5.995 -2.7761 -0.8128  2.2750
   82SOPE   C24 7498   3.118   5.326   5.975  0.4241  1.6832 -0.1047
   82SOPE   H4R 7499   3.074   5.362   5.880 -1.0993 -1.6024 -0.7970
   82SOPE   H4S 7500   3.131   5.417   6.037 -0.4382  1.4746  0.4072
   82SOPE   C25 7501   3.246   5.256   5.942  0.2118  0.5126  0.7151
   82SOPE   H5R 7502   3.286   5.200   6.030 -1.0314 -3.1308 -0.8506
   82SOPE   H5S 7503   3.220   5.182   5.863 -0.1453  0.9668  0.4049
   82SOPE   C26 7504   3.357   5.349   5.902 -0.5496 -0.6664  0.7071
   82SOPE   H6R 7505   3.320   5.453   5.896 -0.7193 -0.7896 -1.0396
   82SOPE   H6S 7506   3.434   5.357   5.982  1.2014 -0.2492 -0.9255
   82SOPE   C27 7507   3.421   5.315   5.771  0.1754 -0.1682  0.4240
   82SOPE   H7R 7508   3.346   5.308   5.690 -0.7988 -0.3404  1.3123
   82SOPE   H7S 7509   3.501   5.387   5.746  1.7486 -1.9961 -0.0240
   82SOPE   C28 7510   3.476   5.170   5.782 -0.1099  0.3269 -0.8840
   82SOPE   H8R 7511   3.545   5.172   5.869  0.3691  2.4405 -1.2800
   82SOPE   H8S 7512   3.392   5.105   5.815  1.1531 -0.0567  1.8220
   82SOPE   C29 7513   3.539   5.119   5.652 -0.5664  0.4299  0.3860
   82SOPE   H91 7514   3.637   5.160   5.625  0.0202 -2.2277 -2.0124
   82SOPE  C210 7515   3.483   5.042   5.556 -0.2999  0.2457  0.3829
   82SOPE  H101 7516   3.542   5.008   5.470 -0.1620 -1.6863  1.1669
   82SOPE  C211 7517   3.346   4.971   5.551 -0.2134  0.2371 -0.0677
   82SOPE  H11R 7518   3.300   5.017   5.461 -1.5107  0.0917  0.4994
   82SOPE  H11S 7519   3.284   5.008   5.635 -1.8593 -1.1998 -0.6032
   82SOPE  C212 7520   3.364   4.816   5.556 -0.0387 -0.5776 -0.5176
   82SOPE  H12R 7521   3.275   4.757   5.584  0.1054 -0.4051  0.3226
   82SOPE  H12S 7522   3.439   4.800   5.637  1.2168  0.1330 -1.4974
   82SOPE  C213 7523   3.422   4.754   5.427 -0.3998  0.2172  0.0629
   82SOPE  H13R 7524   3.449   4.648   5.451 -0.8585 -0.0691 -0.6545
   82SOPE  H13S 7525   3.496   4.824   5.384 -0.6078  1.1125  1.1157
   82SOPE  C214 7526   3.317   4.729   5.317  0.3116 -0.6364 -0.4146
   82SOPE  H14R 7527   3.276   4.830   5.295 -0.5657 -0.4668  1.8084
   82SOPE  H14S 7528   3.224   4.678   5.350 -2.3809  1.3015 -4.1682
   82SOPE  C215 7529   3.383   4.647   5.208  0.0143 -0.8225  0.2066
   82SOPE  H15R 7530   3.298   4.623   5.140  0.3882 -2.7731  0.3649
   82SOPE  H15S 7531   3.428   4.550   5.238 -0.1087 -1.3394 -1.1996
   82SOPE  C216 7532   3.481   4.723   5.110 -0.2555  0.5836  0.0051
   82SOPE  H16R 7533   3.509   4.640   5.042  0.2769 -0.5812  1.5843
   82SOPE  H16S 7534   3.573   4.759   5.161 -1.9142  2.7416  1.6808
   82SOPE  C217 7535   3.408   4.834   5.028  0.2314 -0.4887  0.6606
   82SOPE  H17R 7536   3.371   4.911   5.099 -0.3075 -0.8811  0.8138
   82SOPE  H17S 7537   3.319   4.793   4.976  0.8061 -1.5273  0.4729
   82SOPE  C218 7538   3.500   4.898   4.922  0.9014  0.5735  0.4419
   82SOPE  H18R 7539   3.450   4.984   4.874 -0.2021  0.2549  0.9933
   82SOPE  H18S 7540   3.538   4.825   4.847 -0.2209 -0.7664  1.1382
   82SOPE  H18T 7541   3.590   4.935   4.976  0.2371  0.1509  1.9154
   82SOPE   C33 7542   2.883   4.642   6.106 -0.3078 -0.2754 -0.7783
   82SOPE   H3X 7543   2.787   4.630   6.051 -1.6309 -0.2572  1.3861
   82SOPE   H3Y 7544   2.876   4.563   6.183 -0.7412  0.2488 -0.2619
   82SOPE   C34 7545   3.005   4.634   6.018  0.1458 -0.3970  0.2584
   82SOPE   H4X 7546   3.011   4.537   5.962  0.4547 -0.1232 -0.1921
   82SOPE   H4Y 7547   3.093   4.625   6.086  0.9144  0.2145 -0.6291
   82SOPE   C35 7548   3.025   4.740   5.913  0.6100  0.1204 -0.0675
   82SOPE   H5X 7549   3.119   4.725   5.855 -0.2632 -0.0627 -1.4855
   82SOPE   H5Y 7550   3.041   4.837   5.966 -1.4046  0.2132  0.4433
   82SOPE   C36 7551   2.918   4.764   5.806  0.6974  0.4237  0.2307
   82SOPE   H6X 7552   2.937   4.860   5.755  2.7299  0.9821  1.8592
   82SOPE   H6Y 7553   2.818   4.774   5.853  0.2136 -0.2191 -0.6404
   82SOPE   C37 7554   2.893   4.653   5.704 -0.8615  0.1003 -0.5203
   82SOPE   H7X 7555   2.851   4.563   5.754 -0.2463  0.6060  0.9638
   82SOPE   H7Y 7556   2.986   4.615   5.655  0.3595  1.2631  0.8282
   82SOPE   C38 7557   2.801   4.693   5.585  0.0977 -0.2207 -0.1250
   82SOPE   H8X 7558   2.809   4.617   5.504  1.4304  1.0996 -1.2985
   82SOPE   H8Y 7559   2.844   4.789   5.550  0.3767 -0.2616  0.0958
   82SOPE   C39 7560   2.662   4.727   5.635 -0.0867  0.6095 -0.3666
   82SOPE   H9X 7561   2.672   4.826   5.684  0.5716  0.1712  0.3941
   82SOPE   H9Y 7562   2.611   4.661   5.708  0.9193  1.9216  1.6220
   82SOPE  C310 7563   2.558   4.747   5.519 -0.2253  0.3868  0.8257
   82SOPE  H10X 7564   2.599   4.837   5.469  0.7438  0.1345  1.1410
   82SOPE  H10Y 7565   2.451   4.744   5.549 -1.1897 -0.0420 -2.2308
   82SOPE  C311 7566   2.581   4.634   5.407 -0.0365 -0.7790 -0.5836
   82SOPE  H11X 7567   2.608   4.539   5.459 -0.0905 -0.4297  0.0870
   82SOPE  H11Y 7568   2.665   4.671   5.344  0.8026 -0.4433  0.7029
   82SOPE  C312 7569   2.467   4.616   5.311 -0.1332 -0.2013 -0.3395
   82SOPE  H12X 7570   2.432   4.713   5.270 -2.0238 -0.5243  0.4242
   82SOPE  H12Y 7571   2.376   4.583   5.366  0.5048 -1.9207 -0.2412
   82SOPE  C313 7572   2.481   4.513   5.201  0.7208 -0.0181 -0.5892
   82SOPE  H13X 7573   2.472   4.413   5.247 -1.9496  0.9398  1.2542
   82SOPE  H13Y 7574   2.580   4.535   5.155  1.0574 -1.1783 -0.4348
   82SOPE  C314 7575   2.370   4.513   5.083 -0.5056 -0.2382  0.2814
   82SOPE  H14X 7576   2.386   4.605   5.023 -0.1064 -0.4475  0.0666
   82SOPE  H14Y 7577   2.267   4.524   5.124 -0.5330  1.9435 -0.2189
   82SOPE  C315 7578   2.374   4.387   4.996 -0.4816  0.1660  0.2092
   82SOPE  H15X 7579   2.326   4.292   5.029  1.3500 -0.6382  0.7046
   82SOPE  H15Y 7580   2.484   4.369   4.990 -0.6040 -0.4232 -0.3955
   82SOPE  C316 7581   2.314   4.420   4.864  0.1210 -0.2829  0.0934
   82SOPE  H16X 7582   2.354   4.520   4.837 -2.5934  0.5083 -1.3224
   82SOPE  H16Y 7583   2.204   4.430   4.871  0.2310  1.2663 -0.0374
   82SOPE  C317 7584   2.325   4.313   4.746 -0.0506 -0.1934  0.5870
   82SOPE  H17X 7585   2.250   4.234   4.770 -0.5860  0.3673  0.7618
   82SOPE  H17Y 7586   2.421   4.257   4.744 -0.9957 -1.8755 -0.2867
   82SOPE  C318 7587   2.294   4.369   4.605  0.0017  0.2655 -0.3364
   82SOPE  H18X 7588   2.375   4.438   4.573 -1.3559  1.9457 -0.2320
   82SOPE  H18Y 7589   2.198   4.423   4.600 -1.7533 -2.5724  0.6230
   82SOPE  H18Z 7590   2.285   4.288   4.529 -2.5549 -1.0631  1.2424
   83SOPE     N 7591   4.790   0.624   2.412  0.1624  0.5501  0.8927
   83SOPE   HN1 7592   4.807   0.556   2.489 -1.1038  0.0975  0.7894
   83SOPE   HN2 7593   4.754   0.558   2.340  0.4895  2.9287 -1.6705
   83SOPE   HN3 7594   4.878   0.660   2.370  0.1215 -0.0852  0.2457
   83SOPE   C12 7595   4.684   0.723   2.452 -0.0931  0.8305 -0.4248
   83SOPE  H12A 7596   4.653   0.788   2.367 -1.9360 -0.1426 -0.5511
   83SOPE  H12B 7597   4.729   0.799   2.520 -1.0866 -1.0906  2.5416
   83SOPE   C11 7598   4.565   0.651   2.504  0.4212 -0.0615 -0.4808
   83SOPE  H11A 7599   4.483   0.724   2.523  0.1426  0.3066 -2.8547
   83SOPE  H11B 7600   4.599   0.610   2.602 -0.7054 -0.9250 -0.4231
   83SOPE     P 7601   4.385   0.484   2.413 -0.0320  0.0351 -0.1315
   83SOPE   O13 7602   4.382   0.349   2.470  0.0400  0.2598  0.6203
   83SOPE   O14 7603   4.322   0.522   2.280 -0.6125  0.1401 -0.1942
   83SOPE   O12 7604   4.531   0.542   2.419  0.7053 -0.6156  0.1654
   83SOPE   O11 7605   4.310   0.570   2.520  0.2289  0.7826  0.8564
   83SOPE    C1 7606   4.169   0.582   2.511  0.0669 -0.3033  0.0743
   83SOPE    HA 7607   4.142   0.617   2.409 -0.8533  2.1090  1.0645
   83SOPE    HB 7608   4.135   0.665   2.577 -1.5733 -0.1172 -0.9400
   83SOPE    C2 7609   4.087   0.458   2.557  0.0929  0.2441  0.3596
   83SOPE    HS 7610   4.000   0.494   2.616  0.3263 -0.1894  0.9744
   83SOPE   O21 7611   4.164   0.373   2.637  0.1839 -0.3103  0.2095
   83SOPE   C21 7612   4.198   0.425   2.760 -0.1409 -0.3707  0.7772
   83SOPE   O22 7613   4.143   0.521   2.811 -0.3539  0.4792 -0.4318
   83SOPE   C22 7614   4.302   0.340   2.836  0.8264  0.1385 -0.0976
   83SOPE   H2R 7615   4.361   0.279   2.764  0.8308 -0.1356  0.1360
   83SOPE   H2S 7616   4.236   0.271   2.894  1.5304  0.3684  1.0065
   83SOPE    C3 7617   4.026   0.389   2.429  0.1940 -0.1851  0.3662
   83SOPE    HX 7618   4.099   0.313   2.394  0.0864 -0.0860 -0.0871
   83SOPE    HY 7619   4.022   0.456   2.340  0.2881 -1.2262 -0.4331
   83SOPE   O31 7620   3.901   0.321   2.458  0.4167 -0.5730  0.1159
   83SOPE   C31 7621   3.887   0.191   2.436  0.3577 -0.1396 -0.0803
   83SOPE   O32 7622   3.971   0.112   2.390  0.2721 -0.3189 -0.1245
   83SOPE   C32 7623   3.741   0.161   2.463 -0.1597  0.0878  0.6138
   83SOPE   H2X 7624   3.738   0.050   2.465  2.4633 -0.0855  3.5913
   83SOPE   H2Y 7625   3.684   0.201   2.376  1.9632 -0.2923 -1.0431
   83SOPE   C23 7626   4.406   0.421   2.923 -0.5314 -0.0306 -0.4495
   83SOPE   H3R 7627   4.358   0.492   2.993  1.4869 -0.3685  1.3904
   83SOPE   H3S 7628   4.464   0.487   2.855 -0.2471 -2.0555 -2.2934
   83SOPE   C24 7629   4.505   0.323   3.002  0.6492  0.1567 -0.0929
   83SOPE   H4R 7630   4.560   0.263   2.926 -2.1966 -0.6300 -1.7099
   83SOPE   H4S 7631   4.566   0.396   3.059 -2.3862  1.6297  1.4922
   83SOPE   C25 7632   4.434   0.237   3.107  0.0026  0.0635  0.0374
   83SOPE   H5R 7633   4.359   0.176   3.051 -0.7108  2.1581 -1.4088
   83SOPE   H5S 7634   4.515   0.167   3.139  0.2611  0.6506  0.6886
   83SOPE   C26 7635   4.383   0.315   3.225 -0.0616  0.3269 -0.8569
   83SOPE   H6R 7636   4.446   0.405   3.241 -0.0880  0.2045  0.0060
   83SOPE   H6S 7637   4.279   0.350   3.210  0.0963  0.6669 -1.1739
   83SOPE   C27 7638   4.375   0.237   3.357 -0.4362  0.4774 -0.0533
   83SOPE   H7R 7639   4.312   0.147   3.347 -1.0875  0.6665  1.8551
   83SOPE   H7S 7640   4.471   0.192   3.392  0.0246  1.8865  0.6112
   83SOPE   C28 7641   4.324   0.326   3.475 -0.2549  0.0682  0.2888
   83SOPE   H8R 7642   4.224   0.360   3.440  0.5757  2.3420 -0.0369
   83SOPE   H8S 7643   4.294   0.272   3.567 -1.0156 -1.4881 -0.8446
   83SOPE   C29 7644   4.414   0.440   3.510  0.3988  0.1326  0.7329
   83SOPE   H91 7645   4.434   0.518   3.435  1.6256  0.6261  1.5595
   83SOPE  C210 7646   4.487   0.455   3.619  0.5537 -0.6562  0.4598
   83SOPE  H101 7647   4.551   0.545   3.620 -1.2871  0.7522 -0.5253
   83SOPE  C211 7648   4.488   0.355   3.727  0.1518  0.5363 -0.3465
   83SOPE  H11R 7649   4.553   0.274   3.689 -0.6673  0.2057 -1.0585
   83SOPE  H11S 7650   4.389   0.310   3.748  0.9820 -0.7211  1.0700
   83SOPE  C212 7651   4.553   0.416   3.863  0.0997 -0.1078  0.8094
   83SOPE  H12R 7652   4.650   0.467   3.844 -1.9305  4.4489  1.2773
   83SOPE  H12S 7653   4.568   0.331   3.932 -0.6596  0.5901  1.8709
   83SOPE  C213 7654   4.447   0.494   3.933 -0.3416 -0.5428  0.1406
   83SOPE  H13R 7655   4.352   0.437   3.931 -0.6191 -0.0588 -1.7740
   83SOPE  H13S 7656   4.427   0.589   3.880 -0.4977  1.2351  3.1586
   83SOPE  C214 7657   4.479   0.532   4.072 -0.0513 -0.4784 -1.0683
   83SOPE  H14R 7658   4.406   0.612   4.096  1.1505 -0.1213  1.7217
   83SOPE  H14S 7659   4.577   0.584   4.069 -0.2085 -0.0595  0.4786
   83SOPE  C215 7660   4.466   0.434   4.190 -0.8022 -0.1367 -0.1919
   83SOPE  H15R 7661   4.575   0.422   4.211 -0.6001  0.5171 -0.8219
   83SOPE  H15S 7662   4.423   0.338   4.157  0.3513 -0.3349 -1.2021
   83SOPE  C216 7663   4.386   0.479   4.309 -0.5036  0.4608  0.2226
   83SOPE  H16R 7664   4.385   0.402   4.390  1.8594 -0.6575 -0.7406
   83SOPE  H16S 7665   4.281   0.500   4.279 -1.2089  0.4272  2.4638
   83SOPE  C217 7666   4.445   0.605   4.381 -0.1562 -0.9087 -0.1282
   83SOPE  H17R 7667   4.432   0.676   4.297  0.6800 -1.6406 -0.8947
   83SOPE  H17S 7668   4.553   0.586   4.397  0.1312  1.8392  1.8761
   83SOPE  C218 7669   4.382   0.652   4.520  0.8896  0.3519 -0.1917
   83SOPE  H18R 7670   4.291   0.715   4.504  0.0400 -0.2587  1.8654
   83SOPE  H18S 7671   4.461   0.711   4.572  1.3279 -0.0276 -0.4225
   83SOPE  H18T 7672   4.352   0.564   4.581  0.8140  0.7757  0.3956
   83SOPE   C33 7673   3.675   0.221   2.595  1.4054 -0.8298  1.1702
   83SOPE   H3X 7674   3.566   0.201   2.581  0.9866  1.0486  1.4028
   83SOPE   H3Y 7675   3.676   0.332   2.602 -0.6046 -0.8639  4.7281
   83SOPE   C34 7676   3.726   0.160   2.730 -0.6927 -0.0604 -0.1929
   83SOPE   H4X 7677   3.832   0.185   2.753 -1.0335  0.0252  1.4385
   83SOPE   H4Y 7678   3.718   0.050   2.716  1.0924 -0.2929  0.3248
   83SOPE   C35 7679   3.631   0.201   2.844 -0.0802 -0.2461 -0.4313
   83SOPE   H5X 7680   3.673   0.156   2.937 -2.0370  1.9919  1.6797
   83SOPE   H5Y 7681   3.526   0.166   2.846 -0.2171  0.1841  0.3062
   83SOPE   C36 7682   3.613   0.360   2.860  0.0818  0.4380 -0.3257
   83SOPE   H6X 7683   3.579   0.406   2.765 -1.7005 -1.1409 -0.5119
   83SOPE   H6Y 7684   3.717   0.399   2.858  1.2868 -2.4918 -2.6601
   83SOPE   C37 7685   3.519   0.390   2.970 -0.5657  0.6887  0.6003
   83SOPE   H7X 7686   3.536   0.318   3.054 -1.7221 -2.6233 -1.7860
   83SOPE   H7Y 7687   3.422   0.357   2.927 -0.0028 -2.3120  1.3932
   83SOPE   C38 7688   3.506   0.542   2.999 -0.6982 -0.0982 -0.1427
   83SOPE   H8X 7689   3.458   0.578   2.906  2.2674 -3.2316 -3.1562
   83SOPE   H8Y 7690   3.602   0.599   2.999  0.5794 -2.1337 -1.3183
   83SOPE   C39 7691   3.438   0.567   3.131 -0.8727  0.0644 -0.3796
   83SOPE   H9X 7692   3.332   0.533   3.132 -0.8278 -0.1117 -1.1278
   83SOPE   H9Y 7693   3.432   0.675   3.157  1.8862  0.9019 -2.6876
   83SOPE  C310 7694   3.510   0.483   3.239  0.0959 -0.8213  0.0479
   83SOPE  H10X 7695   3.619   0.482   3.219  0.4420 -0.6400  1.7308
   83SOPE  H10Y 7696   3.476   0.378   3.231  1.3963 -1.6523  3.6332
   83SOPE  C311 7697   3.479   0.539   3.378  0.2372 -1.2126  0.6244
   83SOPE  H11X 7698   3.373   0.569   3.392  0.6338  1.8216 -1.9543
   83SOPE  H11Y 7699   3.534   0.634   3.394  0.4860 -0.8029 -2.1897
   83SOPE  C312 7700   3.527   0.436   3.478  0.0866 -0.0277 -0.3093
   83SOPE  H12X 7701   3.635   0.411   3.469  0.4357  1.2587  0.0623
   83SOPE  H12Y 7702   3.466   0.344   3.465  0.0628 -0.2386  1.1766
   83SOPE  C313 7703   3.487   0.483   3.619 -0.0268  0.0962  0.7711
   83SOPE  H13X 7704   3.493   0.400   3.693 -1.4938  1.5686  2.6576
   83SOPE  H13Y 7705   3.378   0.505   3.621 -0.1171 -0.3522  0.8269
   83SOPE  C314 7706   3.588   0.590   3.673  0.1548 -1.5865 -0.1437
   83SOPE  H14X 7707   3.575   0.681   3.610 -0.3665 -0.8414  1.0123
   83SOPE  H14Y 7708   3.688   0.548   3.650 -1.4989 -4.6244 -2.7807
   83SOPE  C315 7709   3.578   0.615   3.827 -0.6452  0.4395 -0.5366
   83SOPE  H15X 7710   3.660   0.685   3.852  0.5945 -1.6783  1.8292
   83SOPE  H15Y 7711   3.608   0.524   3.884  2.0259  0.4833 -1.6869
   83SOPE  C316 7712   3.447   0.683   3.877 -0.0714  0.2263  0.3492
   83SOPE  H16X 7713   3.356   0.646   3.826 -1.7039  0.1272  3.1413
   83SOPE  H16Y 7714   3.463   0.787   3.843  0.0399 -0.2572 -1.1468
   83SOPE  C317 7715   3.430   0.678   4.026  0.3955  0.2692 -0.7665
   83SOPE  H17X 7716   3.342   0.742   4.046  0.3497  1.1211 -3.3240
   83SOPE  H17Y 7717   3.523   0.720   4.071 -0.3419 -1.0086  2.1741
   83SOPE  C318 7718   3.402   0.532   4.074  0.3193 -0.1741  0.5067
   83SOPE  H18X 7719   3.327   0.480   4.010 -0.0881 -0.4628  1.2027
   83SOPE  H18Y 7720   3.367   0.531   4.180  1.8840  0.0004  1.0467
   83SOPE  H18Z 7721   3.493   0.468   4.072  0.5583  0.1731 -0.1370
   84SOPE     N 7722   4.099   1.737   1.876 -0.0399  0.6850  0.1186
   84SOPE   HN1 7723   4.040   1.822   1.882  0.0475  0.6547  1.7430
   84SOPE   HN2 7724   4.167   1.747   1.955  0.2895  0.9199 -0.1911
   84SOPE   HN3 7725   4.155   1.741   1.788 -1.4139 -0.3216 -0.8493
   84SOPE   C12 7726   3.998   1.629   1.898  0.1854  0.8508  0.1792
   84SOPE  H12A 7727   4.051   1.531   1.908  1.3647  1.1491 -2.3797
   84SOPE  H12B 7728   3.933   1.613   1.810  1.0584  2.4549 -0.8099
   84SOPE   C11 7729   3.917   1.670   2.022  0.4976  0.2407 -0.6968
   84SOPE  H11A 7730   3.987   1.701   2.102 -1.2713  0.2574  0.9178
   84SOPE  H11B 7731   3.870   1.584   2.075 -3.5175  2.4914 -0.2041
   84SOPE     P 7732   3.738   1.837   2.110  0.1339  0.4821 -0.1787
   84SOPE   O13 7733   3.599   1.855   2.066  0.4032 -0.4435 -0.8954
   84SOPE   O14 7734   3.798   1.963   2.161 -0.2120  0.0586 -0.1178
   84SOPE   O12 7735   3.835   1.777   1.994 -0.0598  0.0157 -0.6969
   84SOPE   O11 7736   3.752   1.737   2.229  1.0386  0.3312  0.1513
   84SOPE    C1 7737   3.636   1.699   2.303 -0.4544  0.4252  0.4346
   84SOPE    HA 7738   3.651   1.593   2.332 -0.7467  0.8024  2.0528
   84SOPE    HB 7739   3.545   1.698   2.239  0.5252  1.9860 -1.0669
   84SOPE    C2 7740   3.617   1.795   2.425  0.7407  0.3775  0.4241
   84SOPE    HS 7741   3.598   1.895   2.380  0.6756  1.3638  2.5448
   84SOPE   O21 7742   3.726   1.781   2.517 -0.1512 -0.1473  0.0314
   84SOPE   C21 7743   3.769   1.896   2.566  0.3386  0.0655 -0.2782
   84SOPE   O22 7744   3.723   2.008   2.545 -0.2768 -0.4168 -0.8999
   84SOPE   C22 7745   3.890   1.875   2.658  0.3639 -0.3520 -0.0578
   84SOPE   H2R 7746   3.911   1.968   2.714 -3.3517 -0.9579  2.7820
   84SOPE   H2S 7747   3.975   1.841   2.596  0.7177 -1.3089  0.9170
   84SOPE    C3 7748   3.480   1.762   2.506  0.3844 -0.1081  0.3932
   84SOPE    HX 7749   3.502   1.675   2.572 -0.0558 -1.1585 -0.8060
   84SOPE    HY 7750   3.398   1.737   2.435  1.6051  1.5968 -1.7359
   84SOPE   O31 7751   3.450   1.874   2.592 -0.5437  0.4619  0.3329
   84SOPE   C31 7752   3.392   1.972   2.515  0.7751 -0.1244  0.5419
   84SOPE   O32 7753   3.385   1.970   2.395  0.4239 -0.3111  0.4523
   84SOPE   C32 7754   3.329   2.090   2.598 -0.3255 -0.4990 -0.1600
   84SOPE   H2X 7755   3.361   2.185   2.550 -0.7772 -0.8716 -1.2102
   84SOPE   H2Y 7756   3.367   2.079   2.702 -0.4754  0.5146  0.0101
   84SOPE   C23 7757   3.873   1.754   2.756 -0.2834 -0.0619 -0.0588
   84SOPE   H3R 7758   3.969   1.750   2.813 -0.0673  1.3196 -0.2944
   84SOPE   H3S 7759   3.858   1.660   2.699  1.5313 -0.9554  0.8301
   84SOPE   C24 7760   3.755   1.759   2.856 -0.0149  0.0587  0.4401
   84SOPE   H4R 7761   3.665   1.743   2.793 -0.0664  2.6532 -0.2643
   84SOPE   H4S 7762   3.774   1.678   2.929  1.3061  1.1416  1.3291
   84SOPE   C25 7763   3.729   1.896   2.919 -0.0443 -0.1430  0.1394
   84SOPE   H5R 7764   3.819   1.922   2.980 -0.0311 -1.3761  0.6639
   84SOPE   H5S 7765   3.717   1.973   2.840 -2.8064 -1.4881 -0.8790
   84SOPE   C26 7766   3.615   1.901   3.012 -0.0270  0.2322  0.3128
   84SOPE   H6R 7767   3.606   1.810   3.075  0.4998 -0.6990 -0.8931
   84SOPE   H6S 7768   3.628   1.984   3.085 -1.2914  0.4989  0.2426
   84SOPE   C27 7769   3.482   1.934   2.945 -0.0894 -0.3722 -0.0551
   84SOPE   H7R 7770   3.478   2.028   2.886  0.0079 -1.0412 -1.1615
   84SOPE   H7S 7771   3.447   1.845   2.888 -0.7689  0.1607 -0.4849
   84SOPE   C28 7772   3.366   1.954   3.050 -0.6327  0.1149 -0.1554
   84SOPE   H8R 7773   3.406   2.037   3.112  2.2563 -1.6979  0.6088
   84SOPE   H8S 7774   3.275   1.979   2.991 -0.9657  0.0650  0.3225
   84SOPE   C29 7775   3.351   1.841   3.149  0.0207 -0.2436 -0.4725
   84SOPE   H91 7776   3.313   1.747   3.107 -1.7597 -0.2807  1.1120
   84SOPE  C210 7777   3.402   1.838   3.274 -0.1698 -0.5230 -0.4069
   84SOPE  H101 7778   3.378   1.759   3.346 -0.0979 -0.3133 -0.1534
   84SOPE  C211 7779   3.485   1.951   3.340 -0.2958  0.3323 -1.3983
   84SOPE  H11R 7780   3.450   2.048   3.298  1.5255  1.1833 -1.0785
   84SOPE  H11S 7781   3.596   1.949   3.334 -0.3264 -2.0035 -2.0462
   84SOPE  C212 7782   3.453   1.952   3.491  0.8873 -0.0291  0.0530
   84SOPE  H12R 7783   3.347   1.928   3.514  1.4239 -2.8435 -0.0801
   84SOPE  H12S 7784   3.472   2.059   3.515 -0.0485  0.5994 -1.7906
   84SOPE  C213 7785   3.537   1.864   3.585  0.2861 -0.0274 -0.0131
   84SOPE  H13R 7786   3.639   1.908   3.585 -1.4190  4.3986 -0.3266
   84SOPE  H13S 7787   3.525   1.760   3.549  1.2400 -0.2598  0.3113
   84SOPE  C214 7788   3.466   1.862   3.725 -0.1675  0.0142 -0.6693
   84SOPE  H14R 7789   3.515   1.774   3.771  1.4179  0.4513 -1.4538
   84SOPE  H14S 7790   3.359   1.834   3.717  0.2706 -1.3632 -2.4454
   84SOPE  C215 7791   3.512   1.980   3.811  0.1271 -0.5493  0.8004
   84SOPE  H15R 7792   3.418   2.016   3.858  0.6230 -0.5595  1.8046
   84SOPE  H15S 7793   3.544   2.064   3.745  2.1017 -1.1625  0.9373
   84SOPE  C216 7794   3.618   1.959   3.922 -0.4477  0.2864  0.7233
   84SOPE  H16R 7795   3.644   2.055   3.970 -1.1895  1.9562 -2.0247
   84SOPE  H16S 7796   3.715   1.921   3.882 -0.1899  0.5537  1.0892
   84SOPE  C217 7797   3.578   1.860   4.033  0.4954  0.0859  0.5008
   84SOPE  H17R 7798   3.575   1.760   3.986 -0.9564 -0.5969  1.9813
   84SOPE  H17S 7799   3.476   1.889   4.065 -0.6282 -0.4212 -2.3264
   84SOPE  C218 7800   3.682   1.844   4.143 -0.0064 -0.0307 -0.4722
   84SOPE  H18R 7801   3.667   1.750   4.201  1.3826  0.8337  1.4428
   84SOPE  H18S 7802   3.676   1.930   4.213  1.4616  0.5192 -0.9733
   84SOPE  H18T 7803   3.782   1.835   4.095  0.7448  0.1702  0.9644
   84SOPE   C33 7804   3.181   2.095   2.595  0.1653 -0.9300  0.1978
   84SOPE   H3X 7805   3.141   2.076   2.493 -1.6329 -0.2106  0.7358
   84SOPE   H3Y 7806   3.132   2.190   2.626  0.1500 -0.7126 -0.4761
   84SOPE   C34 7807   3.131   1.984   2.687 -0.2631  0.1138  0.0651
   84SOPE   H4X 7808   3.178   1.996   2.787  1.7778 -0.2617 -0.8028
   84SOPE   H4Y 7809   3.154   1.884   2.645 -1.5590  0.5056 -1.6979
   84SOPE   C35 7810   2.983   2.006   2.718  0.2945 -0.5245  0.0818
   84SOPE   H5X 7811   2.929   2.011   2.621  0.8211 -1.5308 -0.2817
   84SOPE   H5Y 7812   2.978   2.101   2.775  0.3136 -1.5016  1.7548
   84SOPE   C36 7813   2.920   1.888   2.800 -0.2818 -0.0522 -0.0233
   84SOPE   H6X 7814   2.970   1.794   2.770  0.9952  0.4322  0.5078
   84SOPE   H6Y 7815   2.816   1.889   2.760 -0.1840  0.5180 -0.2672
   84SOPE   C37 7816   2.917   1.903   2.955  0.2011  0.0702 -0.7242
   84SOPE   H7X 7817   2.871   2.002   2.975  0.3702  0.1714 -0.8274
   84SOPE   H7Y 7818   3.021   1.914   2.993 -0.2293  1.4432  0.1104
   84SOPE   C38 7819   2.845   1.785   3.031 -0.1078  0.1871 -0.0317
   84SOPE   H8X 7820   2.913   1.698   3.025 -0.7486 -0.3053 -0.2434
   84SOPE   H8Y 7821   2.756   1.743   2.981  0.3757 -1.9045  0.7852
   84SOPE   C39 7822   2.806   1.809   3.173 -0.7337 -0.1327 -0.4522
   84SOPE   H9X 7823   2.729   1.738   3.209  0.7565 -0.1475  3.1923
   84SOPE   H9Y 7824   2.763   1.911   3.178 -0.3044  0.1374 -1.9139
   84SOPE  C310 7825   2.920   1.791   3.273  0.2258  0.7285 -0.7945
   84SOPE  H10X 7826   3.002   1.860   3.245  0.7527  1.6231  2.5190
   84SOPE  H10Y 7827   2.959   1.687   3.268  0.1872  0.6498  0.2455
   84SOPE  C311 7828   2.890   1.833   3.421  0.5508  0.8619 -0.5989
   84SOPE  H11X 7829   2.812   1.759   3.450  2.7420 -2.2563 -2.0446
   84SOPE  H11Y 7830   2.850   1.936   3.431  1.6352  1.4388 -1.9152
   84SOPE  C312 7831   2.997   1.800   3.527 -0.9018 -0.0475  0.3726
   84SOPE  H12X 7832   3.086   1.861   3.499  0.2167 -0.4480  2.7479
   84SOPE  H12Y 7833   3.020   1.692   3.515  0.8789  0.2484  0.7611
   84SOPE  C313 7834   2.970   1.811   3.676 -0.4653 -0.7843  0.0713
   84SOPE  H13X 7835   3.017   1.728   3.734  0.7590 -0.1416  0.0308
   84SOPE  H13Y 7836   2.861   1.800   3.695 -0.2584  0.1956  1.9792
   84SOPE  C314 7837   3.022   1.946   3.737  0.2788  0.0290  0.4387
   84SOPE  H14X 7838   2.953   2.029   3.711 -0.2671  0.0666  1.9355
   84SOPE  H14Y 7839   3.118   1.975   3.689  1.4582  1.2428  3.3183
   84SOPE  C315 7840   3.037   1.928   3.886 -0.5465 -0.5862 -0.3428
   84SOPE  H15X 7841   3.121   1.859   3.907  1.0632  1.0924 -1.0045
   84SOPE  H15Y 7842   2.945   1.884   3.932  1.2167 -2.5848  1.5249
   84SOPE  C316 7843   3.077   2.059   3.967 -0.3109  0.3166  0.4270
   84SOPE  H16X 7844   3.183   2.091   3.956 -0.2796  0.0492 -0.0826
   84SOPE  H16Y 7845   3.061   2.048   4.076  0.4740  1.4632  0.6774
   84SOPE  C317 7846   2.991   2.191   3.925 -0.6133  0.3829 -0.8455
   84SOPE  H17X 7847   2.889   2.164   3.962  0.4845 -2.9661  0.1170
   84SOPE  H17Y 7848   2.973   2.207   3.817 -1.0160  2.2007 -0.5503
   84SOPE  C318 7849   3.040   2.317   3.991 -0.7446  0.0429  0.0607
   84SOPE  H18X 7850   3.134   2.358   3.948 -1.2997  1.9675  0.5979
   84SOPE  H18Y 7851   3.069   2.286   4.094 -1.5500 -2.2693 -0.3546
   84SOPE  H18Z 7852   2.958   2.391   3.994 -0.1682  0.6720  0.7319
   85SOPE     N 7853   0.275   2.476   2.415  0.0225 -0.4942 -0.0743
   85SOPE   HN1 7854   0.314   2.425   2.497  1.4118  0.1186 -0.3111
   85SOPE   HN2 7855   0.355   2.537   2.387  1.0851 -1.2502  1.1774
   85SOPE   HN3 7856   0.204   2.546   2.445 -0.6640 -0.5540 -1.4900
   85SOPE   C12 7857   0.229   2.396   2.298 -0.7713 -0.0597  0.2315
   85SOPE  H12A 7858   0.299   2.318   2.260 -1.0666  1.0345 -2.8246
   85SOPE  H12B 7859   0.214   2.465   2.212 -1.1260  0.5370  0.7624
   85SOPE   C11 7860   0.095   2.334   2.329 -0.1841 -0.0953 -0.1741
   85SOPE  H11A 7861   0.029   2.410   2.376  0.4156  1.6346 -2.0126
   85SOPE  H11B 7862   0.109   2.254   2.405  1.0929  0.3097  0.0458
   85SOPE     P 7863   0.011   2.142   2.173  0.0453 -0.2269  0.5196
   85SOPE   O13 7864   0.145   2.091   2.140 -0.5787  0.1068 -0.6928
   85SOPE   O14 7865  -0.093   2.125   2.064  0.2218  0.0543  0.3125
   85SOPE   O12 7866   0.021   2.294   2.217 -0.1808  0.1692  0.2410
   85SOPE   O11 7867  -0.047   2.075   2.303  0.3695  0.5355  0.9150
   85SOPE    C1 7868  -0.181   2.105   2.342 -0.0181 -0.3002  0.0092
   85SOPE    HA 7869  -0.237   2.020   2.298 -1.1925 -0.9897  2.6305
   85SOPE    HB 7870  -0.221   2.204   2.312 -0.5512 -0.1240  1.2421
   85SOPE    C2 7871  -0.208   2.103   2.497  0.0596 -0.4407  0.0359
   85SOPE    HS 7872  -0.153   2.196   2.522  2.5233 -2.2795  2.0574
   85SOPE   O21 7873  -0.141   1.980   2.551  0.0480  0.8102 -0.9101
   85SOPE   C21 7874  -0.075   2.005   2.668  1.0537  0.2015  0.6552
   85SOPE   O22 7875  -0.035   2.114   2.696  0.1111 -0.0672  0.4086
   85SOPE   C22 7876  -0.055   1.870   2.737  0.4666 -0.5254  0.1280
   85SOPE   H2R 7877   0.052   1.842   2.745  0.1867 -1.3986  1.0213
   85SOPE   H2S 7878  -0.111   1.793   2.681 -0.4411  0.6120 -0.5807
   85SOPE    C3 7879  -0.364   2.110   2.536  0.2310  0.0832  0.1067
   85SOPE    HX 7880  -0.415   2.014   2.514  0.5715  0.3664 -2.1246
   85SOPE    HY 7881  -0.390   2.195   2.470 -0.6785 -1.7419 -2.0045
   85SOPE   O31 7882  -0.391   2.145   2.671 -0.4696  0.4634  0.4442
   85SOPE   C31 7883  -0.387   2.273   2.715 -0.6780 -1.0946  0.3146
   85SOPE   O32 7884  -0.385   2.372   2.641  0.0897 -0.4515  0.0153
   85SOPE   C32 7885  -0.359   2.273   2.866  0.0186 -0.2305 -0.1904
   85SOPE   H2X 7886  -0.258   2.235   2.895  0.1114 -0.1244 -0.3700
   85SOPE   H2Y 7887  -0.426   2.194   2.906 -1.1347  0.0719 -1.4535
   85SOPE   C23 7888  -0.098   1.887   2.887  0.9304 -0.3931 -0.1126
   85SOPE   H3R 7889  -0.047   1.972   2.939 -0.5082 -0.4009  1.3979
   85SOPE   H3S 7890  -0.057   1.796   2.936 -0.0717 -0.6646  0.2469
   85SOPE   C24 7891  -0.252   1.900   2.910 -0.5743  0.0072 -0.0089
   85SOPE   H4R 7892  -0.308   1.965   2.840 -0.2301  0.6404  0.2934
   85SOPE   H4S 7893  -0.288   1.796   2.893 -2.1428  0.8424 -2.1487
   85SOPE   C25 7894  -0.285   1.958   3.050  1.1061  0.2302  0.5249
   85SOPE   H5R 7895  -0.256   2.066   3.051  1.2622  0.1898  0.5027
   85SOPE   H5S 7896  -0.391   1.967   3.079  0.3727 -0.7248 -1.6523
   85SOPE   C26 7897  -0.205   1.912   3.172  1.3952 -0.1101 -0.5640
   85SOPE   H6R 7898  -0.226   1.804   3.189 -1.1735  0.5042  0.7545
   85SOPE   H6S 7899  -0.101   1.925   3.137  0.3721  0.7501 -3.6328
   85SOPE   C27 7900  -0.231   1.987   3.305  0.3963  0.0855  0.4677
   85SOPE   H7R 7901  -0.242   2.094   3.280  1.7805  0.1687  0.1855
   85SOPE   H7S 7902  -0.330   1.952   3.342  1.0011 -1.4803  0.6776
   85SOPE   C28 7903  -0.116   1.966   3.404  0.6020  0.4524  0.1569
   85SOPE   H8R 7904  -0.027   2.014   3.359  0.9715 -0.3328  0.0212
   85SOPE   H8S 7905  -0.138   2.019   3.499 -0.0520 -0.5284  0.5732
   85SOPE   C29 7906  -0.090   1.819   3.438 -0.1852  0.2831  0.5910
   85SOPE   H91 7907  -0.158   1.752   3.383  0.1219  0.7358 -0.3611
   85SOPE  C210 7908  -0.021   1.777   3.546 -0.2493  0.2024  0.4545
   85SOPE  H101 7909   0.004   1.671   3.560  0.9075  0.4343  0.2406
   85SOPE  C211 7910   0.053   1.868   3.641  0.2245 -0.2701  0.1934
   85SOPE  H11R 7911   0.034   1.974   3.611  1.1138  0.1248  0.9764
   85SOPE  H11S 7912   0.161   1.848   3.628  0.0442 -1.1630  0.0184
   85SOPE  C212 7913   0.012   1.842   3.783  0.9920  0.1124  0.3778
   85SOPE  H12R 7914   0.040   1.735   3.798 -0.2116 -0.1328  0.9821
   85SOPE  H12S 7915  -0.095   1.847   3.814  1.3665  1.7925  1.5141
   85SOPE  C213 7916   0.089   1.916   3.892 -0.3190 -1.0049 -0.0065
   85SOPE  H13R 7917   0.195   1.882   3.894 -0.1599 -0.5237 -0.0566
   85SOPE  H13S 7918   0.046   1.888   3.990  1.5609 -2.6459  0.4294
   85SOPE  C214 7919   0.086   2.070   3.867 -0.4228 -0.1731 -0.4089
   85SOPE  H14R 7920  -0.013   2.114   3.892 -1.1067 -2.5781  1.6359
   85SOPE  H14S 7921   0.118   2.099   3.765  1.6053  0.2159  0.2849
   85SOPE  C215 7922   0.183   2.136   3.965 -0.5699  0.5160  0.0330
   85SOPE  H15R 7923   0.180   2.239   3.925  0.0543  1.4135  2.1361
   85SOPE  H15S 7924   0.290   2.107   3.949 -0.3339  0.0620  2.1562
   85SOPE  C216 7925   0.152   2.132   4.119 -0.5846 -0.0277  0.3161
   85SOPE  H16R 7926   0.044   2.114   4.140  0.2403 -3.3280  2.4607
   85SOPE  H16S 7927   0.179   2.225   4.174  0.9117 -0.6619  0.7069
   85SOPE  C217 7928   0.235   2.011   4.190 -0.0831  0.0810 -0.0821
   85SOPE  H17R 7929   0.330   1.992   4.136 -1.1431 -0.8504 -1.7107
   85SOPE  H17S 7930   0.161   1.928   4.184 -1.8108  1.2743  2.5698
   85SOPE  C218 7931   0.270   2.047   4.330 -0.5865  0.6068 -0.6258
   85SOPE  H18R 7932   0.177   2.071   4.386  0.3292  0.6879  0.9229
   85SOPE  H18S 7933   0.343   2.131   4.337 -0.3001  0.7127 -3.5061
   85SOPE  H18T 7934   0.315   1.965   4.391  0.0226  1.5049  0.1646
   85SOPE   C33 7935  -0.372   2.419   2.926  0.1909  0.0757 -0.0053
   85SOPE   H3X 7936  -0.443   2.486   2.874  0.4451 -0.0776 -0.5631
   85SOPE   H3Y 7937  -0.277   2.470   2.897  0.4114 -0.8474 -0.9865
   85SOPE   C34 7938  -0.423   2.416   3.072  0.1885  0.3865 -0.4422
   85SOPE   H4X 7939  -0.406   2.510   3.128  0.4819  0.3292 -0.4354
   85SOPE   H4Y 7940  -0.369   2.338   3.130  1.5795 -0.5426 -2.8565
   85SOPE   C35 7941  -0.574   2.382   3.088  0.4422  0.3546  0.5437
   85SOPE   H5X 7942  -0.597   2.284   3.041  1.6288 -0.1708  1.0123
   85SOPE   H5Y 7943  -0.630   2.458   3.029  0.2112 -1.3714 -1.6004
   85SOPE   C36 7944  -0.631   2.375   3.231 -0.9089  0.8176 -0.5976
   85SOPE   H6X 7945  -0.742   2.383   3.241 -0.8132  0.3854  1.1998
   85SOPE   H6Y 7946  -0.590   2.457   3.293 -2.5600  0.8439  0.5343
   85SOPE   C37 7947  -0.606   2.229   3.279 -0.0122  0.1059 -0.1262
   85SOPE   H7X 7948  -0.500   2.202   3.258  0.5292  1.5184  0.6492
   85SOPE   H7Y 7949  -0.674   2.171   3.214 -0.0194 -0.5493  0.4513
   85SOPE   C38 7950  -0.613   2.203   3.431  0.6018  0.0348  0.0671
   85SOPE   H8X 7951  -0.634   2.098   3.459  0.9542  0.3445  1.5515
   85SOPE   H8Y 7952  -0.712   2.248   3.453  0.6454  0.4240 -0.5033
   85SOPE   C39 7953  -0.505   2.275   3.511  0.1328 -0.2972 -0.2056
   85SOPE   H9X 7954  -0.495   2.379   3.471 -0.5963  0.3434  1.2074
   85SOPE   H9Y 7955  -0.411   2.221   3.488 -0.5781 -0.7425 -2.2769
   85SOPE  C310 7956  -0.542   2.266   3.666 -0.8162  0.1023 -0.4707
   85SOPE  H10X 7957  -0.575   2.165   3.701  1.1820 -0.5117 -0.2266
   85SOPE  H10Y 7958  -0.637   2.321   3.680  0.2224  1.8895 -0.1613
   85SOPE  C311 7959  -0.427   2.310   3.760  0.3599  0.3556  0.4071
   85SOPE  H11X 7960  -0.390   2.410   3.728  1.1920  0.0842  0.5002
   85SOPE  H11Y 7961  -0.348   2.234   3.742  1.0676  0.6574  2.0922
   85SOPE  C312 7962  -0.479   2.310   3.902  0.2792 -0.6722 -0.5479
   85SOPE  H12X 7963  -0.503   2.208   3.938  2.8209 -0.4755  2.1595
   85SOPE  H12Y 7964  -0.573   2.370   3.903  1.1076  0.8584  3.1457
   85SOPE  C313 7965  -0.388   2.381   4.006 -1.2667 -0.0231  0.2035
   85SOPE  H13X 7966  -0.355   2.475   3.958  1.5984 -1.1254 -0.1926
   85SOPE  H13Y 7967  -0.291   2.326   4.012  0.6947  3.1554 -0.1695
   85SOPE  C314 7968  -0.456   2.396   4.143 -0.2776 -0.0476  0.9302
   85SOPE  H14X 7969  -0.558   2.431   4.117 -0.7970 -2.1365 -0.1078
   85SOPE  H14Y 7970  -0.418   2.473   4.213 -2.1954  0.7872  1.1163
   85SOPE  C315 7971  -0.479   2.263   4.212  0.2537 -0.0129 -0.8604
   85SOPE  H15X 7972  -0.381   2.223   4.242  1.0141  1.3730 -1.3738
   85SOPE  H15Y 7973  -0.534   2.188   4.152 -2.2881  2.2312 -1.5598
   85SOPE  C316 7974  -0.565   2.278   4.337  0.1947  0.5046  0.1704
   85SOPE  H16X 7975  -0.530   2.350   4.414 -0.6001  1.5509 -0.4150
   85SOPE  H16Y 7976  -0.553   2.184   4.395 -3.4676 -0.0833  0.2307
   85SOPE  C317 7977  -0.717   2.307   4.326  0.1166  0.0212 -0.2391
   85SOPE  H17X 7978  -0.730   2.415   4.306  1.6521 -0.0894 -2.0777
   85SOPE  H17Y 7979  -0.761   2.286   4.426  1.6421  1.4474  0.7691
   85SOPE  C318 7980  -0.793   2.215   4.227 -0.2007  0.8322 -0.5549
   85SOPE  H18X 7981  -0.764   2.236   4.122  2.6606 -0.1316 -0.0734
   85SOPE  H18Y 7982  -0.901   2.227   4.247 -0.4898  1.2566 -2.2336
   85SOPE  H18Z 7983  -0.758   2.113   4.252 -0.8874  0.8677  0.6446
   86SOPE     N 7984   1.711   1.373   2.064 -0.1266 -0.1478 -0.3454
   86SOPE   HN1 7985   1.692   1.305   2.140 -0.6248 -0.6188 -0.8852
   86SOPE   HN2 7986   1.791   1.434   2.090  1.1209 -1.9357  0.1064
   86SOPE   HN3 7987   1.626   1.433   2.053 -1.0993 -1.4618 -0.1806
   86SOPE   C12 7988   1.728   1.295   1.937  0.0708  0.8061 -0.4696
   86SOPE  H12A 7989   1.779   1.358   1.861  2.1283  0.4306  0.5505
   86SOPE  H12B 7990   1.629   1.253   1.910  0.2777  0.4340 -0.6545
   86SOPE   C11 7991   1.830   1.182   1.945 -0.0888  0.2076  1.0374
   86SOPE  H11A 7992   1.849   1.136   1.846  1.1797  2.0366  0.3791
   86SOPE  H11B 7993   1.790   1.105   2.015 -0.7253 -1.1621 -0.7536
   86SOPE     P 7994   2.067   1.150   2.029  0.1139  0.0087 -0.1424
   86SOPE   O13 7995   2.181   1.236   2.076  0.0284  0.1649  0.1638
   86SOPE   O14 7996   2.099   1.072   1.907  0.2200  0.1457 -0.7689
   86SOPE   O12 7997   1.948   1.237   2.005 -0.1336  0.2091  0.0451
   86SOPE   O11 7998   2.021   1.054   2.152 -0.4166 -0.3681  0.5048
   86SOPE    C1 7999   1.943   1.097   2.264  0.2055  0.0491  0.1937
   86SOPE    HA 8000   1.858   1.028   2.285 -0.4263  1.4086  2.5607
   86SOPE    HB 8001   1.897   1.197   2.246  1.0893  0.8273  1.9571
   86SOPE    C2 8002   2.033   1.118   2.385 -0.0703  0.5825 -0.7403
   86SOPE    HS 8003   2.133   1.076   2.360  0.2047  1.9261 -2.0056
   86SOPE   O21 8004   1.982   1.049   2.500 -0.0748 -0.1482  0.0908
   86SOPE   C21 8005   2.012   0.923   2.515  0.2769  0.3111 -0.1609
   86SOPE   O22 8006   2.049   0.849   2.425  0.3376 -0.5192  0.5328
   86SOPE   C22 8007   1.965   0.877   2.654  0.0313  0.4257  0.2570
   86SOPE   H2R 8008   1.994   0.955   2.729  0.6768 -0.9668  1.5082
   86SOPE   H2S 8009   2.026   0.787   2.674 -3.5327 -2.6322 -1.5175
   86SOPE    C3 8010   2.056   1.270   2.417  0.7660  0.1273 -0.1522
   86SOPE    HX 8011   2.099   1.323   2.330  0.9216 -0.3625 -0.3760
   86SOPE    HY 8012   2.137   1.271   2.492  2.2792  1.2046 -1.7226
   86SOPE   O31 8013   1.939   1.340   2.451  0.1249 -0.2076 -0.2223
   86SOPE   C31 8014   1.897   1.344   2.581  0.2219 -0.7215  0.6134
   86SOPE   O32 8015   1.956   1.303   2.674 -0.4683 -0.0505 -0.2425
   86SOPE   C32 8016   1.765   1.415   2.585  0.1498  0.6624  0.2174
   86SOPE   H2X 8017   1.712   1.385   2.493  1.3974 -2.8762  0.4896
   86SOPE   H2Y 8018   1.791   1.523   2.586 -2.9600  1.5238 -1.2492
   86SOPE   C23 8019   1.817   0.847   2.659 -0.0766 -0.1860 -0.6653
   86SOPE   H3R 8020   1.801   0.760   2.592  1.4399 -0.5792 -0.5427
   86SOPE   H3S 8021   1.752   0.934   2.633 -1.9286 -1.3073 -0.0068
   86SOPE   C24 8022   1.780   0.807   2.802  0.5618 -0.6444  0.0618
   86SOPE   H4R 8023   1.839   0.721   2.842 -2.4499 -3.1195 -0.4933
   86SOPE   H4S 8024   1.799   0.893   2.870  0.1421  0.9929 -1.7961
   86SOPE   C25 8025   1.632   0.767   2.830 -0.8323  0.1666  0.6555
   86SOPE   H5R 8026   1.555   0.828   2.778 -1.6973 -1.4643 -0.0822
   86SOPE   H5S 8027   1.619   0.662   2.795  0.0473 -0.2209  1.4492
   86SOPE   C26 8028   1.604   0.785   2.981 -0.4327 -0.2888  0.1472
   86SOPE   H6R 8029   1.645   0.882   3.016  1.5921 -1.4520  1.1760
   86SOPE   H6S 8030   1.494   0.786   2.998 -0.5423 -0.6308 -0.4931
   86SOPE   C27 8031   1.660   0.670   3.062 -0.3735  0.4829  0.0589
   86SOPE   H7R 8032   1.617   0.570   3.037  1.6735 -0.4327  0.0265
   86SOPE   H7S 8033   1.767   0.670   3.034 -0.2541 -0.2964  0.4747
   86SOPE   C28 8034   1.644   0.684   3.215  0.3557 -0.3404  0.1946
   86SOPE   H8R 8035   1.695   0.781   3.234 -1.5020  0.6190  0.5410
   86SOPE   H8S 8036   1.537   0.696   3.243  0.1013  1.3133 -1.2830
   86SOPE   C29 8037   1.713   0.572   3.293  0.5894  0.5330 -0.0772
   86SOPE   H91 8038   1.812   0.550   3.251  0.6983  2.7622 -1.1198
   86SOPE  C210 8039   1.669   0.511   3.400  0.7300  0.0590 -0.2941
   86SOPE  H101 8040   1.738   0.445   3.455  0.5465  0.6286  0.6465
   86SOPE  C211 8041   1.533   0.528   3.467 -0.3601 -0.1704  0.2357
   86SOPE  H11R 8042   1.451   0.467   3.424  0.1778 -0.5832 -0.2302
   86SOPE  H11S 8043   1.493   0.628   3.439 -1.0413 -0.0749  1.5085
   86SOPE  C212 8044   1.537   0.511   3.616  0.4208 -0.1455 -0.5019
   86SOPE  H12R 8045   1.444   0.547   3.666  1.2967 -0.4870  1.4805
   86SOPE  H12S 8046   1.612   0.579   3.661 -1.6436  2.5077 -0.8292
   86SOPE  C213 8047   1.543   0.366   3.681 -0.0580 -0.0392  0.2460
   86SOPE  H13R 8048   1.635   0.319   3.639 -0.6020 -0.4885 -0.4612
   86SOPE  H13S 8049   1.457   0.304   3.648 -0.8916 -0.6594  3.2798
   86SOPE  C214 8050   1.534   0.369   3.836 -1.0635  0.0875 -0.1960
   86SOPE  H14R 8051   1.446   0.423   3.875 -1.2448 -0.0438 -0.4230
   86SOPE  H14S 8052   1.630   0.409   3.876 -0.2727 -0.1246 -1.7848
   86SOPE  C215 8053   1.548   0.222   3.892  0.3454 -0.2587  0.4775
   86SOPE  H15R 8054   1.648   0.190   3.857 -0.6725 -1.7876 -1.2349
   86SOPE  H15S 8055   1.477   0.148   3.847 -0.7229  1.4361 -0.7528
   86SOPE  C216 8056   1.546   0.214   4.041  0.2145 -0.2120 -0.2362
   86SOPE  H16R 8057   1.594   0.305   4.084 -0.2376 -0.2959  0.4513
   86SOPE  H16S 8058   1.615   0.133   4.072 -0.9974 -0.6625  1.4427
   86SOPE  C217 8059   1.409   0.186   4.116 -0.6630 -0.0736  0.1814
   86SOPE  H17R 8060   1.330   0.259   4.089 -0.1383 -0.0258 -1.2870
   86SOPE  H17S 8061   1.438   0.209   4.221  2.4240  2.2748 -1.0194
   86SOPE  C218 8062   1.346   0.054   4.108 -0.0390 -0.3323  0.1264
   86SOPE  H18R 8063   1.428  -0.017   4.132 -1.9020 -3.1259 -1.1335
   86SOPE  H18S 8064   1.316   0.026   4.004 -0.3581 -0.3721  0.2299
   86SOPE  H18T 8065   1.269   0.041   4.187  0.9890 -0.1166  1.1875
   86SOPE   C33 8066   1.689   1.378   2.710  0.3716 -0.4450 -0.3390
   86SOPE   H3X 8067   1.592   1.430   2.695 -0.2502 -1.2494  0.6889
   86SOPE   H3Y 8068   1.724   1.417   2.808 -1.2090 -0.5682  0.3092
   86SOPE   C34 8069   1.648   1.229   2.718 -0.3579 -0.4872  0.2192
   86SOPE   H4X 8070   1.741   1.169   2.732 -0.6799 -0.7631  1.2017
   86SOPE   H4Y 8071   1.601   1.209   2.619  3.0722  1.8528 -2.0826
   86SOPE   C35 8072   1.533   1.194   2.815 -0.5392  0.6033 -0.4005
   86SOPE   H5X 8073   1.488   1.096   2.788 -1.0532 -0.0016  2.3239
   86SOPE   H5Y 8074   1.451   1.269   2.803 -0.5172  0.4487 -1.6858
   86SOPE   C36 8075   1.580   1.185   2.960  1.2481 -0.2261  0.2300
   86SOPE   H6X 8076   1.613   1.280   3.008 -0.1109  0.8182 -0.8302
   86SOPE   H6Y 8077   1.656   1.104   2.971  1.1278 -0.4983 -0.7802
   86SOPE   C37 8078   1.460   1.138   3.049  0.8566 -0.2283  0.2602
   86SOPE   H7X 8079   1.432   1.037   3.013  0.2205 -0.3527  1.0629
   86SOPE   H7Y 8080   1.368   1.200   3.046 -0.0881 -1.5690  0.6445
   86SOPE   C38 8081   1.515   1.109   3.194 -0.0268 -0.0088 -0.1370
   86SOPE   H8X 8082   1.536   1.206   3.243 -1.1581 -0.4664  1.3331
   86SOPE   H8Y 8083   1.613   1.057   3.190  0.7725  1.4992 -0.8803
   86SOPE   C39 8084   1.420   1.027   3.280 -0.3195 -0.2761  0.1375
   86SOPE   H9X 8085   1.399   0.930   3.231 -1.0547 -0.2638  0.4158
   86SOPE   H9Y 8086   1.323   1.083   3.284  0.0671  0.8507 -3.0932
   86SOPE  C310 8087   1.468   0.991   3.420 -0.4148 -0.9729  0.1597
   86SOPE  H10X 8088   1.491   1.081   3.481  0.8693  0.1391 -1.8411
   86SOPE  H10Y 8089   1.556   0.926   3.401 -0.5956 -0.9426 -0.8527
   86SOPE  C311 8090   1.363   0.916   3.497 -0.3425 -0.1868 -0.4718
   86SOPE  H11X 8091   1.344   0.815   3.456  1.5996 -1.5975  1.8248
   86SOPE  H11Y 8092   1.276   0.982   3.519 -0.1158 -0.3047  0.8568
   86SOPE  C312 8093   1.416   0.876   3.640  0.2859  0.3847  0.9635
   86SOPE  H12X 8094   1.414   0.974   3.693 -0.7430  0.5684  0.6020
   86SOPE  H12Y 8095   1.518   0.833   3.637  0.9510  1.9502 -0.9080
   86SOPE  C313 8096   1.314   0.793   3.707  0.5620  0.4625 -0.3666
   86SOPE  H13X 8097   1.307   0.698   3.650  0.9811 -0.7840  1.5775
   86SOPE  H13Y 8098   1.220   0.852   3.701  0.1058 -0.2694 -0.5204
   86SOPE  C314 8099   1.335   0.747   3.852 -0.4836 -0.2349  0.1566
   86SOPE  H14X 8100   1.408   0.663   3.857  1.0825  0.9412 -1.6041
   86SOPE  H14Y 8101   1.238   0.699   3.877 -0.5298  0.1281  0.6937
   86SOPE  C315 8102   1.359   0.858   3.951  0.3119  0.3915  0.6810
   86SOPE  H15X 8103   1.275   0.928   3.928  0.3928 -0.3533 -2.3648
   86SOPE  H15Y 8104   1.454   0.909   3.925  1.4561 -2.2312 -0.6732
   86SOPE  C316 8105   1.345   0.796   4.089 -0.7774 -0.2632  0.0657
   86SOPE  H16X 8106   1.399   0.862   4.161 -0.2578 -1.8264  1.1646
   86SOPE  H16Y 8107   1.412   0.707   4.091 -0.1613  0.1991  1.2142
   86SOPE  C317 8108   1.200   0.772   4.138  0.0463 -0.0025  0.0807
   86SOPE  H17X 8109   1.158   0.684   4.085  2.6076 -1.0889 -0.2855
   86SOPE  H17Y 8110   1.138   0.857   4.103 -0.6544 -0.4145  0.3074
   86SOPE  C318 8111   1.184   0.762   4.294  0.5634 -0.6608  0.0312
   86SOPE  H18X 8112   1.078   0.786   4.314  1.3459  3.4657  0.1284
   86SOPE  H18Y 8113   1.244   0.836   4.350 -0.6644 -0.3671  0.9863
   86SOPE  H18Z 8114   1.221   0.667   4.340  0.0844 -0.5795  0.5880
   87SOPE     N 8115   2.809   5.716   1.854 -0.5732  0.0057  0.7275
   87SOPE   HN1 8116   2.842   5.779   1.778  3.1412 -2.7929 -0.2764
   87SOPE   HN2 8117   2.873   5.731   1.934 -1.8646  2.2502  1.4207
   87SOPE   HN3 8118   2.806   5.622   1.810 -0.5300  0.3894 -0.1207
   87SOPE   C12 8119   2.672   5.757   1.891 -0.2992  0.3549 -0.2498
   87SOPE  H12A 8120   2.647   5.684   1.971  1.5001  0.9220  0.8877
   87SOPE  H12B 8121   2.608   5.765   1.801 -0.2396 -0.8041 -0.4062
   87SOPE   C11 8122   2.686   5.893   1.966 -0.5701  0.4910  0.5818
   87SOPE  H11A 8123   2.587   5.917   2.009 -1.3694 -0.2024 -0.7887
   87SOPE  H11B 8124   2.714   5.968   1.889  0.1572  1.2815  1.5971
   87SOPE     P 8125   2.863   6.007   2.135  0.1304 -0.3630  0.0597
   87SOPE   O13 8126   2.942   6.089   2.040  0.3933 -0.5687  0.2053
   87SOPE   O14 8127   2.934   5.943   2.249 -0.3378 -0.0246 -0.1146
   87SOPE   O12 8128   2.784   5.888   2.069 -0.1950 -0.2162  0.2378
   87SOPE   O11 8129   2.755   6.103   2.200 -0.1987  0.5308  0.5873
   87SOPE    C1 8130   2.669   6.043   2.298 -0.0407 -0.4228 -0.3615
   87SOPE    HA 8131   2.716   5.998   2.389 -1.7854 -0.5797  0.4969
   87SOPE    HB 8132   2.612   5.961   2.249 -1.9015  0.9187 -0.5194
   87SOPE    C2 8133   2.563   6.142   2.354 -0.2743  0.2949  0.3869
   87SOPE    HS 8134   2.512   6.190   2.268 -1.6504  2.0601  2.0754
   87SOPE   O21 8135   2.636   6.239   2.424  0.5555  0.5088  0.1101
   87SOPE   C21 8136   2.568   6.340   2.461 -0.0933  0.4299 -0.4437
   87SOPE   O22 8137   2.450   6.364   2.430 -0.3494 -0.1582 -0.9205
   87SOPE   C22 8138   2.654   6.437   2.530  0.5224  0.0205 -0.4303
   87SOPE   H2R 8139   2.693   6.511   2.457  1.7680 -0.7953 -0.6183
   87SOPE   H2S 8140   2.749   6.399   2.574  1.5881  2.9948  0.1189
   87SOPE    C3 8141   2.456   6.061   2.441 -0.5788 -0.5682  0.2232
   87SOPE    HX 8142   2.390   6.003   2.372 -1.4678  0.3148  0.3049
   87SOPE    HY 8143   2.391   6.134   2.493  0.1127 -1.0813  1.8698
   87SOPE   O31 8144   2.508   5.969   2.536  0.2676 -0.1997 -0.6469
   87SOPE   C31 8145   2.544   6.018   2.656  0.1003  0.0044 -0.8436
   87SOPE   O32 8146   2.524   6.131   2.692 -0.0863 -0.7295  0.2346
   87SOPE   C32 8147   2.616   5.908   2.730  0.2668  0.3524 -0.2925
   87SOPE   H2X 8148   2.695   5.868   2.664 -0.9266 -0.1679 -1.4441
   87SOPE   H2Y 8149   2.542   5.825   2.733 -0.6991  0.8749 -4.4744
   87SOPE   C23 8150   2.579   6.509   2.635 -0.0353  0.0233 -0.8607
   87SOPE   H3R 8151   2.482   6.546   2.598 -0.6065 -1.6555 -1.1124
   87SOPE   H3S 8152   2.631   6.603   2.663 -1.7191  1.1245 -1.2850
   87SOPE   C24 8153   2.568   6.442   2.773 -0.5444  0.1670 -0.3166
   87SOPE   H4R 8154   2.481   6.374   2.775 -0.0380 -0.7443 -3.8256
   87SOPE   H4S 8155   2.655   6.377   2.797 -1.1614 -0.4517  0.2745
   87SOPE   C25 8156   2.568   6.541   2.894  1.0069  0.4221  0.0634
   87SOPE   H5R 8157   2.672   6.574   2.915  0.8545  0.8765  0.1107
   87SOPE   H5S 8158   2.514   6.636   2.872  0.4716  0.4366  1.3641
   87SOPE   C26 8159   2.510   6.476   3.025  0.2950  0.4874 -0.1218
   87SOPE   H6R 8160   2.535   6.547   3.107 -0.4289 -0.0462  0.5713
   87SOPE   H6S 8161   2.400   6.483   3.012  0.2272  1.0288  0.6852
   87SOPE   C27 8162   2.579   6.343   3.073  0.3238  0.2547  0.0390
   87SOPE   H7R 8163   2.531   6.263   3.013 -1.6159  1.7319 -0.4652
   87SOPE   H7S 8164   2.689   6.340   3.054 -0.0493  0.7131 -2.6422
   87SOPE   C28 8165   2.567   6.315   3.226 -0.1099 -0.3981  0.5428
   87SOPE   H8R 8166   2.461   6.318   3.258 -0.8344  0.7907 -1.7345
   87SOPE   H8S 8167   2.602   6.211   3.246  0.8304  0.2322  2.4255
   87SOPE   C29 8168   2.647   6.407   3.310 -0.9528  0.1140  0.3981
   87SOPE   H91 8169   2.745   6.433   3.268 -0.9991  1.4399  1.0533
   87SOPE  C210 8170   2.607   6.448   3.432 -0.1706  0.4312  0.1550
   87SOPE  H101 8171   2.672   6.523   3.480  1.2063  1.1529 -2.6391
   87SOPE  C211 8172   2.483   6.433   3.516  0.1842  0.4886  0.5541
   87SOPE  H11R 8173   2.446   6.331   3.492  1.9018  0.1757 -0.9875
   87SOPE  H11S 8174   2.409   6.511   3.488 -0.2519 -0.1349 -0.0778
   87SOPE  C212 8175   2.509   6.428   3.668 -0.4067 -0.4398  0.3721
   87SOPE  H12R 8176   2.546   6.530   3.691  1.8693 -0.9447 -0.7370
   87SOPE  H12S 8177   2.585   6.348   3.682 -0.5443 -0.3939  1.4792
   87SOPE  C213 8178   2.388   6.410   3.762  0.6630 -0.1889  0.6905
   87SOPE  H13R 8179   2.356   6.303   3.759  0.0878 -0.0305  0.9116
   87SOPE  H13S 8180   2.303   6.473   3.730  2.7353  3.3784  1.7398
   87SOPE  C214 8181   2.419   6.441   3.906  0.4008  0.1304  0.9296
   87SOPE  H14R 8182   2.326   6.436   3.966 -0.8674 -1.4399 -1.0670
   87SOPE  H14S 8183   2.453   6.547   3.914  0.0189  0.4211 -0.8451
   87SOPE  C215 8184   2.518   6.353   3.987 -0.5852  0.9107  0.1811
   87SOPE  H15R 8185   2.621   6.340   3.945 -0.0066 -0.0247  1.7910
   87SOPE  H15S 8186   2.472   6.252   3.982  2.3168 -0.5366  0.6676
   87SOPE  C216 8187   2.529   6.402   4.130 -0.0700 -0.5295 -1.2111
   87SOPE  H16R 8188   2.596   6.336   4.189  0.5507 -0.0872 -1.4040
   87SOPE  H16S 8189   2.434   6.388   4.185  0.3106  0.5860 -0.2208
   87SOPE  C217 8190   2.586   6.547   4.144  0.0413 -0.3725  0.6602
   87SOPE  H17R 8191   2.505   6.617   4.115 -1.4763 -1.2555  2.5136
   87SOPE  H17S 8192   2.668   6.561   4.071 -0.8072  0.9223 -0.0655
   87SOPE  C218 8193   2.634   6.593   4.280 -0.0425  0.4562 -0.3863
   87SOPE  H18R 8194   2.682   6.693   4.278  0.2026  0.3341 -0.9829
   87SOPE  H18S 8195   2.683   6.505   4.326 -1.8871 -0.3772  0.0806
   87SOPE  H18T 8196   2.546   6.606   4.347  0.0503 -3.7136  0.8358
   87SOPE   C33 8197   2.655   5.950   2.874 -0.0013  0.0620  0.0532
   87SOPE   H3X 8198   2.557   5.978   2.919 -0.0039 -0.6723  0.5041
   87SOPE   H3Y 8199   2.720   6.040   2.878  0.6668 -0.4285  0.2204
   87SOPE   C34 8200   2.720   5.835   2.950  0.2999 -0.2583  0.4191
   87SOPE   H4X 8201   2.815   5.798   2.905  0.3666 -0.7835  0.9746
   87SOPE   H4Y 8202   2.645   5.753   2.949  1.1407 -1.0480  0.5399
   87SOPE   C35 8203   2.742   5.860   3.104 -0.0933 -0.2725 -0.1112
   87SOPE   H5X 8204   2.833   5.921   3.122  0.3386 -0.9523  0.0324
   87SOPE   H5Y 8205   2.764   5.771   3.166  0.3808 -0.5962 -0.7289
   87SOPE   C36 8206   2.619   5.926   3.178  0.2601 -0.3665  0.0190
   87SOPE   H6X 8207   2.530   5.877   3.131  1.3309 -0.2523 -2.2867
   87SOPE   H6Y 8208   2.610   6.034   3.152 -1.6559 -0.3808  0.4304
   87SOPE   C37 8209   2.632   5.918   3.331  0.5688  0.1095  0.5302
   87SOPE   H7X 8210   2.671   5.816   3.354  1.6512 -0.0361 -1.7408
   87SOPE   H7Y 8211   2.526   5.916   3.365  0.0781  0.2611 -0.9496
   87SOPE   C38 8212   2.726   6.016   3.396 -0.8418 -0.9973 -0.3140
   87SOPE   H8X 8213   2.720   6.117   3.351  0.8043 -1.8463 -2.6729
   87SOPE   H8Y 8214   2.829   5.978   3.377 -0.2772  1.0071 -1.4865
   87SOPE   C39 8215   2.695   6.024   3.540 -0.0253 -0.5644 -0.6916
   87SOPE   H9X 8216   2.710   5.922   3.581  2.0614  0.0077  0.1079
   87SOPE   H9Y 8217   2.593   6.060   3.565  1.7831  2.0221  4.3842
   87SOPE  C310 8218   2.794   6.122   3.619  0.2396 -0.0675  0.3295
   87SOPE  H10X 8219   2.775   6.217   3.564  0.9969 -0.4166 -0.5638
   87SOPE  H10Y 8220   2.903   6.110   3.604  0.3609  1.0394  0.2687
   87SOPE  C311 8221   2.759   6.144   3.766  0.9325  0.1096 -0.4712
   87SOPE  H11X 8222   2.649   6.157   3.774  0.6911 -2.1398  0.7876
   87SOPE  H11Y 8223   2.820   6.227   3.808 -2.1489  2.3954 -0.1491
   87SOPE  C312 8224   2.794   6.026   3.860  0.1776 -0.3516  0.5741
   87SOPE  H12X 8225   2.903   6.006   3.872  0.3906 -0.4578 -1.2689
   87SOPE  H12Y 8226   2.748   5.934   3.816  1.0041 -0.2180 -0.6070
   87SOPE  C313 8227   2.740   6.045   4.002 -0.6023 -0.5104 -0.1828
   87SOPE  H13X 8228   2.631   6.067   3.997 -0.8861 -2.0324 -1.5131
   87SOPE  H13Y 8229   2.792   6.137   4.035 -3.9392  1.4421  0.1069
   87SOPE  C314 8230   2.754   5.915   4.091 -0.5421  0.3961  0.6797
   87SOPE  H14X 8231   2.848   5.862   4.066 -0.7999 -0.1037  0.7715
   87SOPE  H14Y 8232   2.681   5.844   4.046  1.3525 -1.8076  0.8950
   87SOPE  C315 8233   2.727   5.938   4.237 -0.3833 -0.1984 -0.4077
   87SOPE  H15X 8234   2.628   5.988   4.242  0.1903  1.0010 -0.7195
   87SOPE  H15Y 8235   2.795   6.017   4.276  0.7519 -0.4193 -1.8739
   87SOPE  C316 8236   2.735   5.809   4.323 -0.0569  0.7457 -0.1403
   87SOPE  H16X 8237   2.827   5.748   4.309 -0.3038  0.1562  0.7114
   87SOPE  H16Y 8238   2.646   5.750   4.290  0.5067  0.0979 -0.5310
   87SOPE  C317 8239   2.729   5.834   4.475  0.2309  0.0733  0.4496
   87SOPE  H17X 8240   2.805   5.908   4.507  0.3947  0.5682 -1.0038
   87SOPE  H17Y 8241   2.755   5.741   4.531  1.3146 -0.6913 -1.2382
   87SOPE  C318 8242   2.588   5.887   4.511  0.0347 -0.2229  0.1006
   87SOPE  H18X 8243   2.592   5.915   4.618 -0.1749 -0.8106  0.2699
   87SOPE  H18Y 8244   2.518   5.801   4.496  1.8017 -1.4965 -1.3524
   87SOPE  H18Z 8245   2.560   5.971   4.445  0.5779  0.7242  1.0553
   88SOPE     N 8246   6.547   0.113   2.277  0.2778 -0.2108  0.3942
   88SOPE   HN1 8247   6.536   0.039   2.350 -1.7570 -0.2116  0.1317
   88SOPE   HN2 8248   6.641   0.091   2.239  0.3180 -1.6990  1.2590
   88SOPE   HN3 8249   6.540   0.206   2.323  2.5938 -0.2262  0.9428
   88SOPE   C12 8250   6.454   0.095   2.161 -0.4407 -0.3355  0.8641
   88SOPE  H12A 8251   6.491   0.150   2.072 -2.7867  0.8575  0.5623
   88SOPE  H12B 8252   6.353   0.125   2.195  0.4152  0.9376  2.4292
   88SOPE   C11 8253   6.441  -0.060   2.135  0.4185  0.4109  0.1775
   88SOPE  H11A 8254   6.529  -0.096   2.078 -1.3234  0.5237 -2.8257
   88SOPE  H11B 8255   6.355  -0.062   2.063  0.0409  2.8556  0.4756
   88SOPE     P 8256   6.373  -0.289   2.275 -0.4043  0.2363  0.4777
   88SOPE   O13 8257   6.447  -0.353   2.386 -0.3435 -0.2717 -0.6573
   88SOPE   O14 8258   6.372  -0.355   2.139  0.0898  0.6192 -0.6895
   88SOPE   O12 8259   6.410  -0.130   2.256  0.6647 -0.2880  0.1306
   88SOPE   O11 8260   6.228  -0.275   2.325  0.1248 -0.4529  0.7892
   88SOPE    C1 8261   6.122  -0.176   2.302  0.4270  0.2311  0.1090
   88SOPE    HA 8262   6.028  -0.226   2.333  1.0817 -0.2065  1.4632
   88SOPE    HB 8263   6.096  -0.152   2.197 -0.0567  1.4481  0.4871
   88SOPE    C2 8264   6.141  -0.035   2.365  0.2074 -0.3820  0.0441
   88SOPE    HS 8265   6.215   0.026   2.309 -0.2826 -0.4790 -0.7337
   88SOPE   O21 8266   6.181  -0.058   2.500  0.3835  0.3553  0.1416
   88SOPE   C21 8267   6.276   0.009   2.549 -0.1976 -0.3366 -0.4701
   88SOPE   O22 8268   6.343   0.096   2.489  0.3233  0.1772 -0.4380
   88SOPE   C22 8269   6.296  -0.041   2.702 -0.1841  0.4053 -1.0089
   88SOPE   H2R 8270   6.405  -0.058   2.702 -0.3347 -0.7654  0.6538
   88SOPE   H2S 8271   6.240  -0.132   2.731 -0.4417  0.1096 -2.3557
   88SOPE    C3 8272   6.011   0.038   2.374  0.9980 -0.3387  0.1361
   88SOPE    HX 8273   5.953  -0.007   2.457  0.4057  0.2113  0.0203
   88SOPE    HY 8274   5.960   0.039   2.276  0.0816  0.9741  0.6002
   88SOPE   O31 8275   6.038   0.173   2.421  0.3930 -0.2087  0.1854
   88SOPE   C31 8276   6.083   0.251   2.327 -0.3392  0.6032  0.2161
   88SOPE   O32 8277   6.121   0.214   2.216  0.0229 -0.1836  0.1384
   88SOPE   C32 8278   6.088   0.394   2.373  0.0780 -0.2756 -0.8468
   88SOPE   H2X 8279   5.990   0.425   2.415  1.3643  0.8811  1.5490
   88SOPE   H2Y 8280   6.104   0.456   2.283 -0.9017  0.2331 -0.6814
   88SOPE   C23 8281   6.258   0.065   2.813  0.0595 -0.0513  0.8024
   88SOPE   H3R 8282   6.148   0.055   2.807  0.2775 -3.4610  0.3301
   88SOPE   H3S 8283   6.290   0.167   2.782 -0.5665  0.0493  0.4719
   88SOPE   C24 8284   6.318   0.031   2.948  0.1768  0.2723 -0.9273
   88SOPE   H4R 8285   6.275  -0.070   2.964  0.8774  0.0792 -0.2086
   88SOPE   H4S 8286   6.428   0.013   2.949  0.0611 -0.7870  2.0653
   88SOPE   C25 8287   6.264   0.137   3.044 -0.4625 -0.6398 -0.3623
   88SOPE   H5R 8288   6.302   0.239   3.019  2.2572 -1.0302  1.7238
   88SOPE   H5S 8289   6.153   0.137   3.037 -0.5260 -0.7576  0.4557
   88SOPE   C26 8290   6.299   0.105   3.197 -0.4144  0.3875  0.4799
   88SOPE   H6R 8291   6.272  -0.000   3.221  1.5984  0.1782  2.1984
   88SOPE   H6S 8292   6.407   0.126   3.215 -0.7168  1.8425  0.7355
   88SOPE   C27 8293   6.217   0.184   3.303  0.9485 -0.2832  0.2961
   88SOPE   H7R 8294   6.233   0.294   3.291  0.9255 -0.3372 -0.2373
   88SOPE   H7S 8295   6.112   0.164   3.274  0.3082 -0.4638  2.5675
   88SOPE   C28 8296   6.233   0.153   3.458  0.3099  0.3368 -0.4953
   88SOPE   H8R 8297   6.212   0.045   3.476 -0.3702  0.6679  0.7981
   88SOPE   H8S 8298   6.339   0.172   3.486 -0.2334  2.5014  0.2399
   88SOPE   C29 8299   6.134   0.230   3.532  0.8025 -0.2804 -0.1822
   88SOPE   H91 8300   6.068   0.292   3.470  1.9607  1.3735  0.1499
   88SOPE  C210 8301   6.131   0.254   3.661 -0.2525 -0.2022  0.8640
   88SOPE  H101 8302   6.050   0.318   3.698 -1.4694 -0.9467 -0.4028
   88SOPE  C211 8303   6.218   0.203   3.772  0.2951 -0.2545  0.3641
   88SOPE  H11R 8304   6.200   0.260   3.866  1.5031  0.1075  0.3956
   88SOPE  H11S 8305   6.323   0.224   3.743  1.3653 -2.1149  2.5644
   88SOPE  C212 8306   6.198   0.052   3.788  0.0116  0.2304  0.0780
   88SOPE  H12R 8307   6.294   0.001   3.811 -1.2817 -2.2203  0.3698
   88SOPE  H12S 8308   6.168  -0.005   3.697  2.0578 -1.2182  0.2228
   88SOPE  C213 8309   6.098   0.010   3.897 -0.3091  0.2743  0.0365
   88SOPE  H13R 8310   6.112  -0.099   3.916 -0.3887  0.2239 -0.1948
   88SOPE  H13S 8311   5.996   0.020   3.854 -0.0173  0.1923 -0.6954
   88SOPE  C214 8312   6.091   0.079   4.036  0.6636 -0.3239 -0.1028
   88SOPE  H14R 8313   6.030   0.172   4.030 -0.3877 -1.0214 -0.6109
   88SOPE  H14S 8314   6.192   0.115   4.065  0.5724 -0.6330  0.6465
   88SOPE  C215 8315   6.018  -0.014   4.134 -0.2380  0.1564  0.3116
   88SOPE  H15R 8316   6.084  -0.102   4.150  0.5548  0.8460  0.8912
   88SOPE  H15S 8317   5.928  -0.045   4.077  1.3356  0.8334 -2.7456
   88SOPE  C216 8318   5.988   0.046   4.271 -0.1222 -0.4594  0.0736
   88SOPE  H16R 8319   5.915   0.128   4.253 -0.4344 -0.7149  0.1578
   88SOPE  H16S 8320   6.081   0.086   4.317 -0.3558 -1.3760  1.4063
   88SOPE  C217 8321   5.929  -0.050   4.379  0.7392 -0.5113  0.2051
   88SOPE  H17R 8322   5.913   0.009   4.472 -0.4899 -0.8359  0.2188
   88SOPE  H17S 8323   6.002  -0.132   4.399 -0.2809 -1.4924  0.0250
   88SOPE  C218 8324   5.799  -0.115   4.322  0.0903  0.3073 -0.2615
   88SOPE  H18R 8325   5.840  -0.170   4.234 -0.2933 -1.1316  0.4151
   88SOPE  H18S 8326   5.725  -0.041   4.287  0.4122 -0.1657 -2.0393
   88SOPE  H18T 8327   5.755  -0.182   4.399  2.0162  1.3906  1.8953
   88SOPE   C33 8328   6.204   0.423   2.477 -0.2890  0.1434  0.5142
   88SOPE   H3X 8329   6.220   0.532   2.463 -2.1177  0.1117 -3.0748
   88SOPE   H3Y 8330   6.289   0.357   2.450 -0.4782 -0.0422  0.3722
   88SOPE   C34 8331   6.153   0.407   2.619 -0.5376 -0.1120  0.4510
   88SOPE   H4X 8332   6.144   0.298   2.642 -1.9726  0.1070  1.0299
   88SOPE   H4Y 8333   6.056   0.459   2.627 -0.0474  1.0353 -0.7273
   88SOPE   C35 8334   6.255   0.465   2.720 -0.1786  0.3386 -0.1081
   88SOPE   H5X 8335   6.286   0.563   2.677  0.3402  0.6450  0.9331
   88SOPE   H5Y 8336   6.343   0.397   2.718 -0.1566  0.3747 -1.0952
   88SOPE   C36 8337   6.189   0.463   2.860  0.7576 -0.3715 -0.3513
   88SOPE   H6X 8338   6.154   0.359   2.882 -0.0032 -0.1748 -0.5988
   88SOPE   H6Y 8339   6.095   0.521   2.853 -0.5661 -2.3145  0.2834
   88SOPE   C37 8340   6.277   0.525   2.966 -0.3164  0.3470  0.2396
   88SOPE   H7X 8341   6.324   0.620   2.934  3.6580 -2.1843 -2.4016
   88SOPE   H7Y 8342   6.362   0.454   2.977  2.1708  3.3611  2.2512
   88SOPE   C38 8343   6.202   0.528   3.097 -0.3924  0.5237  0.3278
   88SOPE   H8X 8344   6.166   0.426   3.122  1.4565 -0.0231  0.8914
   88SOPE   H8Y 8345   6.124   0.606   3.082  1.0299  2.2072  1.2307
   88SOPE   C39 8346   6.290   0.585   3.204 -0.4872 -0.3208 -0.3379
   88SOPE   H9X 8347   6.329   0.686   3.178  1.2568 -0.8676 -0.0253
   88SOPE   H9Y 8348   6.378   0.518   3.215  0.3964  0.4840 -2.0989
   88SOPE  C310 8349   6.206   0.597   3.338 -0.6162  0.6495  0.2449
   88SOPE  H10X 8350   6.153   0.505   3.371  2.2974 -0.6099  1.8494
   88SOPE  H10Y 8351   6.142   0.688   3.343 -0.9446  0.4226  0.2233
   88SOPE  C311 8352   6.308   0.621   3.449 -0.4263 -0.6558 -0.2335
   88SOPE  H11X 8353   6.359   0.719   3.437 -0.6984  0.0420  3.3300
   88SOPE  H11Y 8354   6.385   0.541   3.446  1.3111  0.9390 -2.8081
   88SOPE  C312 8355   6.250   0.621   3.592  0.4678 -0.7307 -0.6765
   88SOPE  H12X 8356   6.181   0.533   3.599 -3.4537  2.1884  0.9132
   88SOPE  H12Y 8357   6.185   0.708   3.612  0.1334 -0.7471 -1.6181
   88SOPE  C313 8358   6.354   0.612   3.708 -0.3106  1.3251  0.5729
   88SOPE  H13X 8359   6.417   0.704   3.712  0.5310  1.0087 -2.4774
   88SOPE  H13Y 8360   6.427   0.531   3.688 -1.5660 -0.2188  2.0004
   88SOPE  C314 8361   6.280   0.598   3.843  0.1191  0.1808  0.2437
   88SOPE  H14X 8362   6.199   0.524   3.824 -1.8440  1.7374  2.0103
   88SOPE  H14Y 8363   6.246   0.696   3.882 -0.2712  0.4520 -0.7553
   88SOPE  C315 8364   6.358   0.530   3.956 -0.1479 -0.0388 -0.2573
   88SOPE  H15X 8365   6.448   0.590   3.980 -0.1340 -0.8031  1.8162
   88SOPE  H15Y 8366   6.394   0.431   3.921 -0.7792 -0.3781  0.0338
   88SOPE  C316 8367   6.269   0.510   4.082 -0.3353 -1.2590 -0.5788
   88SOPE  H16X 8368   6.175   0.452   4.070 -2.7568  1.9522  1.1969
   88SOPE  H16Y 8369   6.234   0.612   4.109  0.0220 -1.3283  0.1882
   88SOPE  C317 8370   6.348   0.450   4.199  0.5763  0.4632  0.2854
   88SOPE  H17X 8371   6.432   0.517   4.226  0.6245 -0.1855  1.8294
   88SOPE  H17Y 8372   6.399   0.357   4.166 -0.8615  0.3232 -1.7708
   88SOPE  C318 8373   6.262   0.429   4.327 -0.4535  0.0959  0.5422
   88SOPE  H18X 8374   6.182   0.356   4.301 -0.3021  0.9301 -2.5873
   88SOPE  H18Y 8375   6.220   0.526   4.359  0.9356  0.3988  1.5448
   88SOPE  H18Z 8376   6.323   0.393   4.413  0.7333  1.4880  0.3069
   89SAPC     N 8377   1.319   2.366   6.584  0.6906 -0.4130  0.5837
   89SAPC   C12 8378   1.457   2.426   6.579 -0.0159  0.0226 -0.0213
   89SAPC  H12A 8379   1.462   2.532   6.599 -0.5811 -0.1186  0.9014
   89SAPC  H12B 8380   1.495   2.413   6.478 -2.1411  2.0853 -1.1862
   89SAPC   C13 8381   1.232   2.423   6.478  0.1838  0.0567  0.2940
   89SAPC  H13A 8382   1.128   2.395   6.490  0.6859 -2.2228 -0.0875
   89SAPC  H13B 8383   1.230   2.531   6.482 -0.1152  0.0962 -0.7964
   89SAPC  H13C 8384   1.256   2.380   6.383 -0.3868  0.2062  0.0760
   89SAPC   C14 8385   1.323   2.221   6.560 -0.1299 -0.0146 -1.2142
   89SAPC  H14A 8386   1.226   2.181   6.536 -1.5260  1.3078  1.6949
   89SAPC  H14B 8387   1.392   2.188   6.484 -0.2035 -0.1122 -1.2370
   89SAPC  H14C 8388   1.369   2.172   6.644  0.3122  0.6758 -1.0383
   89SAPC   C15 8389   1.258   2.388   6.717  0.1747  0.0182 -0.2671
   89SAPC  H15A 8390   1.312   2.331   6.792 -1.8559 -2.2535 -0.4144
   89SAPC  H15B 8391   1.249   2.494   6.736 -1.4058 -0.7199  4.4284
   89SAPC  H15C 8392   1.155   2.356   6.713  0.1822 -0.1722  0.7078
   89SAPC   C11 8393   1.556   2.351   6.667  0.3583 -0.1179  0.2944
   89SAPC  H11A 8394   1.602   2.265   6.613 -0.6849 -0.0441 -0.7448
   89SAPC  H11B 8395   1.508   2.306   6.756  2.4913 -0.6187  1.2482
   89SAPC     P 8396   1.784   2.461   6.643  0.4381  0.2020  0.2930
   89SAPC   O13 8397   1.861   2.574   6.707  0.1358  0.6024 -0.3411
   89SAPC   O14 8398   1.856   2.335   6.630  0.8736  0.3739  0.4582
   89SAPC   O12 8399   1.653   2.447   6.727  0.4909 -0.1532  0.3353
   89SAPC   O11 8400   1.739   2.505   6.495  0.0047  0.8758 -0.4149
   89SAPC    C1 8401   1.839   2.504   6.396  0.2709  0.7906  0.1701
   89SAPC    HA 8402   1.915   2.584   6.410  1.2099  0.0592 -0.6265
   89SAPC    HB 8403   1.910   2.420   6.398 -1.3676 -0.6341  1.2314
   89SAPC    C2 8404   1.771   2.500   6.256  0.0424 -0.3419 -0.8592
   89SAPC    HS 8405   1.680   2.563   6.266  1.4928  1.6134  0.7703
   89SAPC   O21 8406   1.741   2.359   6.223  0.1229 -0.3758  0.0764
   89SAPC   C21 8407   1.618   2.320   6.205  0.1128 -0.1290 -0.3673
   89SAPC   O22 8408   1.522   2.393   6.221  0.0088  0.0959  0.4446
   89SAPC   C22 8409   1.622   2.176   6.142  0.0862  0.6454 -0.1810
   89SAPC   H2R 8410   1.659   2.193   6.038  1.4392  0.9774  0.3259
   89SAPC   H2S 8411   1.704   2.124   6.196  0.8357 -0.1067 -1.9486
   89SAPC    C3 8412   1.857   2.563   6.142 -0.0647 -0.3576 -0.4608
   89SAPC    HX 8413   1.964   2.535   6.145  0.1338  0.4976  0.8989
   89SAPC    HY 8414   1.854   2.670   6.171 -1.6222 -0.8516  1.3594
   89SAPC   O31 8415   1.797   2.548   6.011  0.0237  0.0735 -0.2649
   89SAPC   C31 8416   1.827   2.438   5.939  0.3534  0.3916 -0.1086
   89SAPC   O32 8417   1.916   2.362   5.972 -0.5712  0.1902  0.0084
   89SAPC   C32 8418   1.723   2.415   5.824 -0.2579 -0.0939 -0.2248
   89SAPC   H2X 8419   1.623   2.442   5.865  0.6771  2.0603  0.8519
   89SAPC   H2Y 8420   1.724   2.308   5.796  1.4115 -0.1970  0.1620
   89SAPC   C23 8421   1.479   2.119   6.136  1.2999  0.3088  0.7773
   89SAPC   H3R 8422   1.411   2.200   6.103  0.2938  0.0214  2.0721
   89SAPC   H3S 8423   1.447   2.089   6.238  1.3734  0.0301  0.7183
   89SAPC   C24 8424   1.476   1.996   6.040 -0.1873 -0.3855 -0.0225
   89SAPC   H4R 8425   1.549   1.917   6.066 -0.1580 -0.3805 -0.0903
   89SAPC   H4S 8426   1.521   2.042   5.950  0.3519  0.3421  0.6078
   89SAPC   C25 8427   1.327   1.954   6.014  0.1916  0.2361 -0.3557
   89SAPC   H5R 8428   1.257   2.038   6.011  1.0760  0.9904 -0.3572
   89SAPC   C26 8429   1.268   1.832   6.023  0.4192  0.1715  0.3750
   89SAPC   H6R 8430   1.160   1.820   6.005  0.2886  2.6928 -0.9656
   89SAPC   C27 8431   1.339   1.705   6.045 -0.5887 -0.2634 -0.0765
   89SAPC   H7R 8432   1.294   1.668   6.140 -3.9996  0.2151 -1.3705
   89SAPC   H7S 8433   1.448   1.722   6.061 -0.6786 -0.1837  0.4666
   89SAPC   C28 8434   1.299   1.600   5.939 -0.2576  0.1890 -0.6269
   89SAPC   H8R 8435   1.229   1.519   5.965 -0.1659  0.5140  0.7300
   89SAPC   C29 8436   1.345   1.600   5.817 -0.5933 -0.2245  0.2788
   89SAPC   H9R 8437   1.298   1.529   5.747 -1.0102 -1.0662  1.3804
   89SAPC  C210 8438   1.460   1.681   5.759  0.1837  0.7558  0.0656
   89SAPC  H10R 8439   1.544   1.609   5.749  2.2487  3.0252 -0.2253
   89SAPC  H10S 8440   1.507   1.761   5.821 -2.3329  2.6812 -0.3401
   89SAPC  C211 8441   1.436   1.734   5.619  0.2778  0.6258  0.1101
   89SAPC  H11R 8442   1.394   1.661   5.548  0.0700  2.3480 -1.6054
   89SAPC  C212 8443   1.460   1.860   5.571  0.3553 -0.0055 -0.0327
   89SAPC  H12R 8444   1.431   1.881   5.467  1.5772 -1.9171 -0.8288
   89SAPC  C213 8445   1.520   1.975   5.646 -0.5871  0.1248  0.6514
   89SAPC  H13R 8446   1.593   2.029   5.582 -0.8575 -0.4582 -0.1657
   89SAPC  H13S 8447   1.576   1.937   5.734 -0.0698 -2.9990 -0.8674
   89SAPC  C214 8448   1.419   2.063   5.700  0.1313  0.0624  0.6476
   89SAPC  H14R 8449   1.348   2.022   5.774 -1.1685  1.4701  0.2367
   89SAPC  C215 8450   1.389   2.193   5.674  0.5367 -0.9463  0.6402
   89SAPC  H15R 8451   1.293   2.240   5.701 -0.7821 -2.0670 -1.7978
   89SAPC  C216 8452   1.473   2.279   5.584 -0.4878 -0.3249  0.1842
   89SAPC  H16R 8453   1.582   2.257   5.589 -0.2830  0.5714 -0.1874
   89SAPC  H16S 8454   1.445   2.379   5.622 -3.2452 -0.1978 -1.8414
   89SAPC  C217 8455   1.429   2.274   5.440 -0.1290  0.3272  0.3398
   89SAPC  H17R 8456   1.492   2.350   5.391  2.1830 -0.8913  1.2924
   89SAPC  H17S 8457   1.321   2.299   5.427 -0.4715 -0.0442  2.1528
   89SAPC  C218 8458   1.461   2.151   5.358  0.2858 -0.2901 -0.6537
   89SAPC  H18R 8459   1.402   2.064   5.392  0.9767 -0.8629 -0.8939
   89SAPC  H18S 8460   1.568   2.122   5.368  0.1861 -0.8193 -1.0763
   89SAPC  C219 8461   1.433   2.170   5.213  0.5065 -0.2982 -0.5684
   89SAPC  H19R 8462   1.438   2.273   5.171 -1.2712  0.0406 -0.0433
   89SAPC  H19S 8463   1.332   2.126   5.199  0.5891 -1.3204  1.6022
   89SAPC  C220 8464   1.521   2.076   5.135  0.8478 -0.1923  0.1275
   89SAPC  H20R 8465   1.627   2.108   5.150  0.7293  0.9358 -1.2182
   89SAPC  H20S 8466   1.498   2.053   5.028 -1.8090  2.0677  0.1024
   89SAPC  H20T 8467   1.514   1.983   5.195 -2.9576  0.2208  0.5518
   89SAPC   C33 8468   1.763   2.490   5.691 -0.5310 -0.0586  0.2033
   89SAPC   H3X 8469   1.807   2.588   5.716 -1.7332  0.1987  1.4372
   89SAPC   H3Y 8470   1.670   2.507   5.632  0.0960 -0.6025 -0.9870
   89SAPC   C34 8471   1.847   2.403   5.597 -0.5261 -0.3688 -0.6669
   89SAPC   H4X 8472   1.790   2.313   5.565 -1.2693  0.1861 -0.9367
   89SAPC   H4Y 8473   1.936   2.363   5.651 -0.9535  0.7831  0.9699
   89SAPC   C35 8474   1.918   2.474   5.486  0.1650  0.5346 -0.2112
   89SAPC   H5X 8475   2.008   2.532   5.516 -0.0833  0.8194 -0.0173
   89SAPC   H5Y 8476   1.848   2.552   5.450 -1.5867  0.0467  1.9734
   89SAPC   C36 8477   1.963   2.388   5.370 -0.5141  1.0531  0.3793
   89SAPC   H6X 8478   2.033   2.321   5.424 -1.4004 -0.2868 -0.0756
   89SAPC   H6Y 8479   2.016   2.453   5.297 -0.7910 -0.8886 -1.6633
   89SAPC   C37 8480   1.848   2.322   5.292  0.9151  0.6611 -0.3731
   89SAPC   H7X 8481   1.806   2.248   5.363 -0.1088  0.8598 -0.7460
   89SAPC   H7Y 8482   1.892   2.278   5.201 -1.1918  1.0079 -1.6411
   89SAPC   C38 8483   1.734   2.412   5.233 -0.4557 -0.2680  0.0925
   89SAPC   H8X 8484   1.697   2.484   5.309  0.6241 -0.5075  0.8660
   89SAPC   H8Y 8485   1.652   2.349   5.193  0.1920 -0.2523 -1.3258
   89SAPC   C39 8486   1.779   2.491   5.105 -0.2078 -0.6337  0.3913
   89SAPC   H9X 8487   1.876   2.539   5.131 -0.6241 -0.4688  1.6934
   89SAPC   H9Y 8488   1.707   2.569   5.073 -0.1942 -1.4991 -1.9634
   89SAPC  C310 8489   1.804   2.402   4.979 -0.5790 -0.1945 -0.2166
   89SAPC  H10X 8490   1.712   2.360   4.934 -0.3089 -0.3874 -0.5925
   89SAPC  H10Y 8491   1.871   2.316   5.000 -3.1852 -2.3614 -0.1505
   89SAPC  C311 8492   1.869   2.489   4.873  0.1936  0.1874 -0.2485
   89SAPC  H11X 8493   1.968   2.530   4.902  0.6993 -1.0736 -0.1436
   89SAPC  H11Y 8494   1.791   2.565   4.848 -1.0923 -1.3361 -1.0708
   89SAPC  C312 8495   1.914   2.423   4.749 -0.4145  0.0733  0.2156
   89SAPC  H12X 8496   1.844   2.347   4.707  0.6954 -0.8714  0.0187
   89SAPC  H12Y 8497   2.006   2.367   4.774 -0.5433 -0.8895 -1.3462
   89SAPC  C313 8498   1.934   2.524   4.634  0.1004  0.1391 -0.0474
   89SAPC  H13X 8499   2.024   2.582   4.662  0.8399 -0.8842 -0.2370
   89SAPC  H13Y 8500   1.843   2.588   4.631  1.0756  1.5704  0.2800
   89SAPC  C314 8501   1.948   2.443   4.503  0.4444  0.2953  0.0792
   89SAPC  H14X 8502   1.854   2.392   4.474  0.2589  1.6336 -1.8809
   89SAPC  H14Y 8503   2.027   2.367   4.521  0.1749 -0.2585 -0.9967
   89SAPC  C315 8504   1.973   2.526   4.377  0.3627  0.6370  0.1223
   89SAPC  H15X 8505   2.073   2.573   4.393  0.8441 -0.4893  0.5258
   89SAPC  H15Y 8506   1.890   2.600   4.365 -1.0756 -1.1289 -1.3897
   89SAPC  C316 8507   1.983   2.454   4.244  0.6819  0.8552 -1.0626
   89SAPC  H16X 8508   1.992   2.527   4.160  2.4245  0.9075 -0.8559
   89SAPC  H16Y 8509   1.883   2.410   4.224  0.3619 -0.2254  2.3799
   89SAPC  C317 8510   2.084   2.344   4.225 -0.0743 -0.6681  0.5441
   89SAPC  H17X 8511   2.074   2.270   4.307 -0.2836 -1.5511 -0.2630
   89SAPC  H17Y 8512   2.184   2.391   4.233 -1.6072  2.9745  0.2943
   89SAPC  C318 8513   2.066   2.266   4.094  0.4492 -0.7222  0.0852
   89SAPC  H18X 8514   1.970   2.212   4.085 -1.0062  1.8391 -0.8611
   89SAPC  H18Y 8515   2.139   2.183   4.081  2.4826  0.9530  0.3251
   89SAPC  H18Z 8516   2.063   2.338   4.010 -0.7814  1.3821  1.8210
   90SAPC     N 8517   4.469   5.518   6.358 -0.7787 -0.0723  0.4596
   90SAPC   C12 8518   4.402   5.607   6.253  0.8725  0.2483 -0.1326
   90SAPC  H12A 8519   4.471   5.689   6.238  0.9536  0.8081  2.7647
   90SAPC  H12B 8520   4.317   5.656   6.299  0.8085 -0.4250  0.4841
   90SAPC   C13 8521   4.596   5.465   6.300  0.3505  0.1413 -0.2207
   90SAPC  H13A 8522   4.658   5.407   6.367  0.2970  0.9973  0.6093
   90SAPC  H13B 8523   4.582   5.404   6.213 -3.1879  0.4931 -0.0318
   90SAPC  H13C 8524   4.653   5.554   6.276  1.8438 -0.2869  1.4557
   90SAPC   C14 8525   4.495   5.613   6.474 -0.4145  0.3919 -0.2315
   90SAPC  H14A 8526   4.553   5.702   6.453  2.5807 -0.6686  2.7270
   90SAPC  H14B 8527   4.404   5.656   6.514 -0.3785  0.9683 -0.7394
   90SAPC  H14C 8528   4.535   5.556   6.556  0.6578 -2.3542 -2.4810
   90SAPC   C15 8529   4.387   5.404   6.400 -0.1569  0.6691 -0.0582
   90SAPC  H15A 8530   4.361   5.336   6.320  2.4462  0.7354 -1.0642
   90SAPC  H15B 8531   4.436   5.345   6.475  1.1491  2.2996  0.4324
   90SAPC  H15C 8532   4.302   5.440   6.456 -0.6780  0.3878 -0.6533
   90SAPC   C11 8533   4.363   5.550   6.119 -0.1393 -0.4297  0.3381
   90SAPC  H11A 8534   4.443   5.489   6.072  1.4076 -0.1122  2.3963
   90SAPC  H11B 8535   4.324   5.635   6.059 -0.3690 -0.6451  0.1836
   90SAPC     P 8536   4.099   5.490   6.125  0.2517  0.0851  0.0369
   90SAPC   O13 8537   4.029   5.367   6.156 -0.1182 -0.8622 -0.2843
   90SAPC   O14 8538   4.057   5.603   6.210  0.0876  0.0456 -0.1664
   90SAPC   O12 8539   4.255   5.460   6.139  0.6567  0.2003 -0.2542
   90SAPC   O11 8540   4.076   5.530   5.974  0.3956  0.5355  0.3571
   90SAPC    C1 8541   4.024   5.657   5.944  0.8860  0.1921  0.3525
   90SAPC    HA 8542   4.041   5.740   6.017 -2.6959  0.1329  1.4246
   90SAPC    HB 8543   4.079   5.685   5.852 -0.1782  0.2879 -0.2634
   90SAPC    C2 8544   3.872   5.660   5.911  0.2666 -0.1760  0.4504
   90SAPC    HS 8545   3.806   5.620   5.990 -1.5990 -0.4530 -1.1704
   90SAPC   O21 8546   3.859   5.605   5.780 -0.1995  0.1149 -0.8099
   90SAPC   C21 8547   3.805   5.485   5.776  0.1395 -0.6153 -0.9326
   90SAPC   O22 8548   3.751   5.416   5.868 -0.1345 -0.3186 -0.2981
   90SAPC   C22 8549   3.809   5.439   5.637  0.1497  0.7640  1.0748
   90SAPC   H2R 8550   3.755   5.343   5.620  1.0232  0.4637 -0.1534
   90SAPC   H2S 8551   3.742   5.512   5.587 -1.5023 -1.6252 -0.4297
   90SAPC    C3 8552   3.831   5.810   5.909  0.0737 -0.2766 -0.1516
   90SAPC    HX 8553   3.899   5.870   5.845 -1.2541  1.4923  0.0460
   90SAPC    HY 8554   3.844   5.839   6.016  1.0440 -2.9978  0.5661
   90SAPC   O31 8555   3.696   5.834   5.862 -0.5171 -0.9903 -0.1247
   90SAPC   C31 8556   3.595   5.790   5.939 -0.1572 -0.0893  0.0155
   90SAPC   O32 8557   3.614   5.735   6.046 -0.4457  0.0893  0.2755
   90SAPC   C32 8558   3.464   5.813   5.873 -0.2045  0.4379  0.1022
   90SAPC   H2X 8559   3.450   5.922   5.856  1.9527  0.6973 -0.2114
   90SAPC   H2Y 8560   3.394   5.783   5.954  1.2133  0.6793  1.4573
   90SAPC   C23 8561   3.933   5.428   5.562  0.2789  0.1816 -0.2628
   90SAPC   H3R 8562   3.993   5.346   5.606  0.5889  1.1012  1.0997
   90SAPC   H3S 8563   3.982   5.525   5.590  0.2979 -0.4823  2.2281
   90SAPC   C24 8564   3.915   5.400   5.407 -0.0309 -0.3256 -0.6497
   90SAPC   H4R 8565   3.881   5.295   5.399  1.8358 -1.0569  0.3653
   90SAPC   H4S 8566   4.019   5.395   5.369  0.8646 -1.8411  1.7869
   90SAPC   C25 8567   3.815   5.486   5.333  0.1634  0.3980 -0.2987
   90SAPC   H5R 8568   3.772   5.568   5.392  1.8129  1.2908 -0.2876
   90SAPC   C26 8569   3.793   5.476   5.205 -0.1419 -0.4599  0.6366
   90SAPC   H6R 8570   3.715   5.541   5.163  2.5868  2.4863 -0.2694
   90SAPC   C27 8571   3.857   5.379   5.108  0.1564  0.2886 -0.3507
   90SAPC   H7R 8572   3.790   5.382   5.019 -1.4915  2.2575  0.8357
   90SAPC   H7S 8573   3.851   5.276   5.148  0.3108  0.5779  0.4475
   90SAPC   C28 8574   3.992   5.400   5.059 -1.2261 -0.0931 -0.0641
   90SAPC   H8R 8575   4.063   5.320   5.082 -1.3561 -0.0906  0.3602
   90SAPC   C29 8576   4.040   5.502   4.976 -0.1751 -0.3211  0.2715
   90SAPC   H9R 8577   4.148   5.502   4.953 -0.3168  0.9340 -0.4695
   90SAPC  C210 8578   3.951   5.605   4.908  0.3663  0.4905  0.0316
   90SAPC  H10R 8579   3.988   5.705   4.940  0.0668  0.2587  1.1555
   90SAPC  H10S 8580   3.845   5.611   4.942  0.1548  3.0884 -0.8245
   90SAPC  C211 8581   3.968   5.589   4.756 -0.0120  0.3699 -0.8094
   90SAPC  H11R 8582   4.039   5.661   4.712 -0.6228  0.6871 -1.2962
   90SAPC  C212 8583   3.903   5.502   4.673 -0.7064  0.0674  0.6556
   90SAPC  H12R 8584   3.923   5.501   4.565  2.2477  2.1519  1.0702
   90SAPC  C213 8585   3.798   5.401   4.712  0.1853 -0.0073  0.0737
   90SAPC  H13R 8586   3.802   5.396   4.823  0.3822 -0.5032  0.0487
   90SAPC  H13S 8587   3.828   5.299   4.681  1.1464  0.4360 -0.4896
   90SAPC  C214 8588   3.666   5.439   4.664 -0.4376  0.0708 -0.3915
   90SAPC  H14R 8589   3.657   5.527   4.599  0.6692  1.3452  1.1237
   90SAPC  C215 8590   3.553   5.370   4.683  1.0149  0.5428 -1.0814
   90SAPC  H15R 8591   3.454   5.400   4.646  0.7724 -0.0652 -0.9422
   90SAPC  C216 8592   3.549   5.243   4.756  0.2065  0.1950 -0.2645
   90SAPC  H16R 8593   3.636   5.177   4.733 -0.1555 -0.6364  0.7025
   90SAPC  H16S 8594   3.460   5.185   4.725 -1.7308  2.4348  0.8473
   90SAPC  C217 8595   3.529   5.259   4.907 -0.3763 -0.1389  0.3508
   90SAPC  H17R 8596   3.579   5.354   4.936  1.0841 -0.6632 -0.3718
   90SAPC  H17S 8597   3.569   5.175   4.968  0.4561 -0.9264 -1.2250
   90SAPC  C218 8598   3.385   5.255   4.961  0.7855  0.1710 -0.7759
   90SAPC  H18R 8599   3.333   5.157   4.953 -1.0028  1.0375 -0.4328
   90SAPC  H18S 8600   3.325   5.330   4.904 -1.3490 -0.3665  0.6528
   90SAPC  C219 8601   3.372   5.297   5.113  0.8287 -0.2161  0.6715
   90SAPC  H19R 8602   3.268   5.335   5.120  0.9115  0.1452 -0.0293
   90SAPC  H19S 8603   3.434   5.384   5.142  1.5374 -0.0984 -1.1250
   90SAPC  C220 8604   3.387   5.197   5.225 -0.2848 -0.1080 -0.2235
   90SAPC  H20R 8605   3.381   5.092   5.187 -0.6519 -0.0693 -0.2719
   90SAPC  H20S 8606   3.298   5.204   5.291  0.3058  0.2293  0.5418
   90SAPC  H20T 8607   3.484   5.199   5.279 -0.0760 -1.3059 -0.5215
   90SAPC   C33 8608   3.445   5.729   5.744  0.0248 -0.6332  0.5742
   90SAPC   H3X 8609   3.338   5.731   5.711  0.7314  1.3435 -1.9369
   90SAPC   H3Y 8610   3.488   5.627   5.749  2.4163  0.3920  2.5179
   90SAPC   C34 8611   3.520   5.798   5.624  0.0198  0.2832  0.2277
   90SAPC   H4X 8612   3.629   5.775   5.622 -0.0991 -0.3602 -2.0087
   90SAPC   H4Y 8613   3.508   5.908   5.637 -3.4132  0.0988 -0.6233
   90SAPC   C35 8614   3.474   5.765   5.483 -0.8259 -0.5530  0.0613
   90SAPC   H5X 8615   3.552   5.790   5.407 -0.3458  1.2177  1.0646
   90SAPC   H5Y 8616   3.385   5.825   5.453 -0.8640 -0.1996  0.8687
   90SAPC   C36 8617   3.429   5.624   5.460 -1.0226 -0.0866 -0.3033
   90SAPC   H6X 8618   3.341   5.599   5.523 -0.0061  0.9559  1.6400
   90SAPC   H6Y 8619   3.508   5.555   5.498  2.1223  2.2427 -2.1712
   90SAPC   C37 8620   3.410   5.589   5.308 -0.2233 -0.0520 -0.5805
   90SAPC   H7X 8621   3.370   5.487   5.296 -1.0015  0.2660 -0.7634
   90SAPC   H7Y 8622   3.509   5.588   5.258  1.1457  1.2048  1.9145
   90SAPC   C38 8623   3.342   5.693   5.220 -0.3011  0.0748  0.3119
   90SAPC   H8X 8624   3.397   5.790   5.225 -0.9722  0.4760  0.0660
   90SAPC   H8Y 8625   3.237   5.708   5.253  0.0446 -3.1253  3.3910
   90SAPC   C39 8626   3.341   5.653   5.067  0.2335  0.0835 -0.2109
   90SAPC   H9X 8627   3.320   5.545   5.055  0.0648  0.0497  0.3640
   90SAPC   H9Y 8628   3.447   5.670   5.037  0.5322  1.8253  1.5624
   90SAPC  C310 8629   3.248   5.733   4.982  0.2780 -0.3643  0.1482
   90SAPC  H10X 8630   3.266   5.840   5.005 -2.2108  0.6675 -2.1480
   90SAPC  H10Y 8631   3.141   5.703   4.989 -0.0875  1.0247  0.8401
   90SAPC  C311 8632   3.284   5.730   4.832 -0.0017  0.5794  0.1886
   90SAPC  H11X 8633   3.259   5.632   4.787 -1.5211  1.8326 -1.8261
   90SAPC  H11Y 8634   3.391   5.756   4.816  0.3013  1.5146  3.0303
   90SAPC  C312 8635   3.201   5.828   4.741  0.2113 -0.0784 -0.3662
   90SAPC  H12X 8636   3.222   5.934   4.768 -1.0215  0.2075 -0.4729
   90SAPC  H12Y 8637   3.093   5.805   4.754 -0.4114 -0.6092 -4.7793
   90SAPC  C313 8638   3.230   5.829   4.587 -0.7418 -0.2442  0.3216
   90SAPC  H13X 8639   3.147   5.874   4.529 -0.7647 -0.0825  0.4822
   90SAPC  H13Y 8640   3.237   5.722   4.558 -0.2204  0.5133 -2.6995
   90SAPC  C314 8641   3.359   5.898   4.546  0.7302  0.1005  0.6891
   90SAPC  H14X 8642   3.447   5.837   4.573 -0.3601 -1.9239 -0.0652
   90SAPC  H14Y 8643   3.359   5.999   4.593  0.9543  0.9772 -1.1027
   90SAPC  C315 8644   3.382   5.909   4.394  0.6717  0.0096 -0.0420
   90SAPC  H15X 8645   3.395   5.804   4.358  0.6317  0.7989 -2.5549
   90SAPC  H15Y 8646   3.485   5.946   4.376  0.7698  0.7252  1.7528
   90SAPC  C316 8647   3.279   5.988   4.313  0.0390  0.0648 -0.2092
   90SAPC  H16X 8648   3.270   6.086   4.364  3.1946 -0.4703  1.6045
   90SAPC  H16Y 8649   3.175   5.958   4.334 -0.1414  1.5459  1.1636
   90SAPC  C317 8650   3.319   6.001   4.158  0.2596 -0.5224 -0.4818
   90SAPC  H17X 8651   3.316   5.896   4.123  1.4578 -0.0095 -2.2390
   90SAPC  H17Y 8652   3.418   6.050   4.146  0.4903 -0.6370  0.7567
   90SAPC  C318 8653   3.209   6.077   4.085 -0.0117 -0.4755  0.1984
   90SAPC  H18X 8654   3.113   6.022   4.091  0.8614 -1.9382  1.3527
   90SAPC  H18Y 8655   3.246   6.072   3.981 -0.3225 -2.3533  0.1380
   90SAPC  H18Z 8656   3.201   6.179   4.127  1.5155 -0.3732  0.2970
   91SAPC     N 8657   2.941   6.298   6.584 -0.3078 -0.0483 -0.5394
   91SAPC   C12 8658   3.042   6.189   6.628  0.2524 -0.3583 -0.2001
   91SAPC  H12A 8659   3.088   6.143   6.542  2.5451 -2.0140  1.7767
   91SAPC  H12B 8660   2.987   6.110   6.676 -0.3772  0.7293  0.9307
   91SAPC   C13 8661   2.872   6.369   6.702 -0.6016  0.1800  0.9230
   91SAPC  H13A 8662   2.942   6.428   6.759 -0.5489  0.3096  0.7234
   91SAPC  H13B 8663   2.786   6.427   6.672  0.1570  0.4251 -0.8856
   91SAPC  H13C 8664   2.824   6.298   6.768 -0.0632  0.0431  1.1682
   91SAPC   C14 8665   3.011   6.392   6.496  0.1710 -0.4794 -0.0468
   91SAPC  H14A 8666   2.947   6.476   6.473  2.3324  1.9279  2.0960
   91SAPC  H14B 8667   3.105   6.426   6.538 -0.9415  0.9819  1.3898
   91SAPC  H14C 8668   3.033   6.337   6.406 -2.3534  3.4657 -3.4025
   91SAPC   C15 8669   2.832   6.234   6.505  0.1756  0.2216 -0.8935
   91SAPC  H15A 8670   2.768   6.310   6.462  0.8634  1.0620 -0.4726
   91SAPC  H15B 8671   2.869   6.161   6.435 -0.0217  0.9780 -1.8022
   91SAPC  H15C 8672   2.756   6.180   6.560  0.1212  0.7939 -0.3900
   91SAPC   C11 8673   3.162   6.227   6.719  0.8035 -0.2261  0.3629
   91SAPC  H11A 8674   3.207   6.130   6.748  1.5238 -0.1499 -0.4760
   91SAPC  H11B 8675   3.133   6.283   6.810 -0.3488  2.1891 -1.3660
   91SAPC     P 8676   3.346   6.226   6.533 -0.1958  0.1013 -0.2333
   91SAPC   O13 8677   3.427   6.126   6.600  0.5671  0.1365 -0.2028
   91SAPC   O14 8678   3.263   6.182   6.427  0.0750 -0.1151 -0.0282
   91SAPC   O12 8679   3.256   6.300   6.633  0.2187  0.4109 -0.1235
   91SAPC   O11 8680   3.443   6.333   6.488  0.0037  0.0854  0.5840
   91SAPC    C1 8681   3.412   6.457   6.419  0.1140  0.4449  0.1035
   91SAPC    HA 8682   3.311   6.455   6.375  0.4403  1.1991 -0.7127
   91SAPC    HB 8683   3.432   6.546   6.484  1.7607 -0.1983  0.5259
   91SAPC    C2 8684   3.506   6.468   6.289 -1.3225  0.3177 -0.6275
   91SAPC    HS 8685   3.602   6.517   6.312  0.1221 -2.6613  0.1944
   91SAPC   O21 8686   3.428   6.542   6.184 -0.1433  0.2277  0.0974
   91SAPC   C21 8687   3.394   6.667   6.202  0.3609 -0.1877 -0.0649
   91SAPC   O22 8688   3.411   6.725   6.304 -0.5158  0.4068 -0.3106
   91SAPC   C22 8689   3.335   6.725   6.070  0.1327 -0.7157  0.7187
   91SAPC   H2R 8690   3.293   6.644   6.008  1.9806 -0.6658 -0.7030
   91SAPC   H2S 8691   3.259   6.789   6.119 -0.9947 -0.4317 -1.3186
   91SAPC    C3 8692   3.549   6.333   6.242 -0.3886  0.2593  0.5681
   91SAPC    HX 8693   3.450   6.290   6.217 -0.9919  2.1209 -0.4114
   91SAPC    HY 8694   3.585   6.270   6.326 -1.1059 -0.0949  0.6177
   91SAPC   O31 8695   3.635   6.336   6.125  0.2856 -0.3240 -0.2695
   91SAPC   C31 8696   3.652   6.227   6.054 -0.4052  0.0724 -0.5736
   91SAPC   O32 8697   3.605   6.118   6.083  0.4340 -0.1855  0.0081
   91SAPC   C32 8698   3.752   6.260   5.943 -0.5496  1.0080  0.4007
   91SAPC   H2X 8699   3.854   6.233   5.979 -0.3632 -1.6782 -1.8525
   91SAPC   H2Y 8700   3.738   6.368   5.920 -1.7350  0.7878  0.0240
   91SAPC   C23 8701   3.435   6.812   5.988 -0.0490  0.8710  0.4040
   91SAPC   H3R 8702   3.500   6.873   6.054 -0.4052  2.5746 -0.7444
   91SAPC   H3S 8703   3.375   6.889   5.935 -1.3252  0.5706  1.3535
   91SAPC   C24 8704   3.524   6.726   5.887  0.0739  0.0879  0.7066
   91SAPC   H4R 8705   3.571   6.643   5.944 -0.3563 -1.5309 -1.1662
   91SAPC   H4S 8706   3.602   6.786   5.836 -0.0205  0.0834  0.5544
   91SAPC   C25 8707   3.449   6.652   5.779 -0.4837  0.0458 -0.3160
   91SAPC   H5R 8708   3.346   6.635   5.815 -0.2840  1.5430  1.0661
   91SAPC   C26 8709   3.482   6.638   5.649  0.5575  0.6857 -0.1441
   91SAPC   H6R 8710   3.418   6.601   5.568  2.1903  2.9844 -2.6634
   91SAPC   C27 8711   3.621   6.656   5.592  0.4970 -0.2645  0.0642
   91SAPC   H7R 8712   3.699   6.681   5.667  1.7235 -1.1859 -0.8688
   91SAPC   H7S 8713   3.626   6.739   5.519 -0.4225 -1.5447 -1.5247
   91SAPC   C28 8714   3.662   6.527   5.525  0.9573 -0.1627 -0.0557
   91SAPC   H8R 8715   3.721   6.463   5.593  0.1634  0.5289  1.3260
   91SAPC   C29 8716   3.646   6.502   5.390 -0.1985 -0.4780 -0.2685
   91SAPC   H9R 8717   3.682   6.401   5.367  1.6872 -0.0552  0.6601
   91SAPC  C210 8718   3.575   6.597   5.292 -0.5229  0.1794 -0.1208
   91SAPC  H10R 8719   3.659   6.643   5.236  0.1634 -1.2916 -0.3737
   91SAPC  H10S 8720   3.521   6.679   5.342  0.2818  0.2734  0.6097
   91SAPC  C211 8721   3.476   6.528   5.202 -0.2383  0.0816 -0.1063
   91SAPC  H11R 8722   3.373   6.506   5.233 -0.2137 -0.3079 -0.2962
   91SAPC  C212 8723   3.501   6.501   5.073 -0.3929 -0.4022 -0.1288
   91SAPC  H12R 8724   3.423   6.447   5.018 -0.9436 -1.1049  1.2961
   91SAPC  C213 8725   3.623   6.534   4.992 -0.6287 -0.1691  0.6317
   91SAPC  H13R 8726   3.637   6.456   4.914 -2.2613  1.2720 -1.2395
   91SAPC  H13S 8727   3.716   6.525   5.052  0.8874  1.2898 -1.3347
   91SAPC  C214 8728   3.623   6.678   4.938 -0.0393 -1.1235  0.8503
   91SAPC  H14R 8729   3.588   6.760   5.002  0.0727 -0.7941  0.4934
   91SAPC  C215 8730   3.664   6.723   4.814 -0.7089  0.3591 -0.2181
   91SAPC  H15R 8731   3.660   6.831   4.795  2.0364  0.3221 -1.4460
   91SAPC  C216 8732   3.729   6.648   4.708  0.0365  0.1007  1.0082
   91SAPC  H16R 8733   3.688   6.546   4.700 -0.1750  0.2929 -0.6467
   91SAPC  H16S 8734   3.840   6.653   4.710  0.2555 -0.4864 -2.8099
   91SAPC  C217 8735   3.706   6.718   4.571  0.0054  0.4929  0.4431
   91SAPC  H17R 8736   3.735   6.825   4.574  2.6893 -0.1940  1.3808
   91SAPC  H17S 8737   3.597   6.724   4.550  0.2350  2.3555 -0.4369
   91SAPC  C218 8738   3.773   6.660   4.448 -0.2742  0.2795 -0.1220
   91SAPC  H18R 8739   3.719   6.565   4.428 -1.6321  1.4021 -2.2435
   91SAPC  H18S 8740   3.876   6.631   4.477 -0.4576  0.2708  0.5218
   91SAPC  C219 8741   3.762   6.752   4.323 -0.0821 -0.1248  0.0466
   91SAPC  H19R 8742   3.834   6.836   4.334 -0.0357 -0.3776  2.0793
   91SAPC  H19S 8743   3.657   6.790   4.321  0.1659  0.6402 -2.6806
   91SAPC  C220 8744   3.784   6.670   4.196 -0.4436  0.3608  0.7308
   91SAPC  H20R 8745   3.892   6.656   4.173 -0.7651  0.7320 -1.2212
   91SAPC  H20S 8746   3.746   6.719   4.103  1.2831 -0.1540 -0.2876
   91SAPC  H20T 8747   3.749   6.565   4.198  2.2373 -0.6646 -0.6898
   91SAPC   C33 8748   3.731   6.159   5.815 -0.2526 -0.5398 -0.2404
   91SAPC   H3X 8749   3.655   6.209   5.751  0.0216  0.0165 -0.1403
   91SAPC   H3Y 8750   3.688   6.062   5.847 -1.1905 -0.3529 -0.8899
   91SAPC   C34 8751   3.864   6.152   5.730 -0.5422  0.4511 -0.3227
   91SAPC   H4X 8752   3.943   6.108   5.794 -1.6777  0.5608  1.2372
   91SAPC   H4Y 8753   3.888   6.260   5.719  1.5740  0.0784  0.2784
   91SAPC   C35 8754   3.858   6.082   5.590 -0.8097 -0.9749 -0.1965
   91SAPC   H5X 8755   3.807   5.986   5.614  0.8250 -2.0955 -1.0147
   91SAPC   H5Y 8756   3.955   6.055   5.543 -1.9001 -2.1132 -1.8707
   91SAPC   C36 8757   3.778   6.164   5.486 -0.2233  0.7807  0.4255
   91SAPC   H6X 8758   3.819   6.267   5.481  0.0666  0.6313 -0.3867
   91SAPC   H6Y 8759   3.668   6.164   5.503 -0.8984 -0.1723 -3.1454
   91SAPC   C37 8760   3.798   6.106   5.340  0.5171  0.3073 -0.0984
   91SAPC   H7X 8761   3.906   6.094   5.317  0.5971  1.0629 -0.1556
   91SAPC   H7Y 8762   3.763   6.187   5.273 -0.5158 -0.4495 -0.4967
   91SAPC   C38 8763   3.726   5.975   5.311 -0.5149 -0.6514 -0.0293
   91SAPC   H8X 8764   3.620   5.974   5.344 -0.2354  0.3820  0.9764
   91SAPC   H8Y 8765   3.772   5.897   5.376 -2.6564 -2.1172 -0.1877
   91SAPC   C39 8766   3.752   5.929   5.164  1.3785 -0.0182  0.4704
   91SAPC   H9X 8767   3.726   5.821   5.153 -0.6924  0.4777 -0.0246
   91SAPC   H9Y 8768   3.860   5.939   5.141  1.0758  1.5100 -0.3821
   91SAPC  C310 8769   3.659   6.003   5.066  0.1339  0.0279  0.3319
   91SAPC  H10X 8770   3.663   6.112   5.089  0.9101  0.6424 -2.4144
   91SAPC  H10Y 8771   3.553   5.983   5.092 -0.2177  0.5820 -0.6106
   91SAPC  C311 8772   3.681   5.968   4.916 -0.2506  0.2868  0.1568
   91SAPC  H11X 8773   3.695   5.858   4.911 -1.9612  0.0163  0.6152
   91SAPC  H11Y 8774   3.781   6.005   4.884  0.2882 -1.2294  0.0230
   91SAPC  C312 8775   3.556   6.001   4.836  0.3874 -0.0096  0.3800
   91SAPC  H12X 8776   3.468   5.944   4.873  0.2907 -0.7217 -0.8967
   91SAPC  H12Y 8777   3.571   5.963   4.733 -0.5537 -0.4620  0.3956
   91SAPC  C313 8778   3.532   6.155   4.832  0.6540  0.6392  0.4921
   91SAPC  H13X 8779   3.635   6.196   4.823  1.4411 -1.6151 -2.5435
   91SAPC  H13Y 8780   3.502   6.209   4.924  0.3416  0.7607  0.3213
   91SAPC  C314 8781   3.430   6.201   4.731  0.5215  0.2020  0.4064
   91SAPC  H14X 8782   3.338   6.142   4.747 -0.7161  2.0541  0.4528
   91SAPC  H14Y 8783   3.470   6.171   4.632 -2.0507  0.5737 -0.8382
   91SAPC  C315 8784   3.416   6.349   4.728  0.2778 -0.1466  0.5882
   91SAPC  H15X 8785   3.507   6.411   4.745  1.3670 -0.8406 -2.0703
   91SAPC  H15Y 8786   3.349   6.383   4.810 -1.2922  0.8430 -1.0346
   91SAPC  C316 8787   3.351   6.403   4.598  0.1851  0.0807  0.2397
   91SAPC  H16X 8788   3.284   6.492   4.596 -0.9721 -0.7630 -1.4652
   91SAPC  H16Y 8789   3.290   6.320   4.557 -2.8113  1.7662  0.9262
   91SAPC  C317 8790   3.462   6.434   4.490  0.6482 -0.4937  0.6286
   91SAPC  H17X 8791   3.534   6.350   4.494  1.3236  0.1148  1.9319
   91SAPC  H17Y 8792   3.519   6.519   4.533 -1.0314  0.8471  0.2896
   91SAPC  C318 8793   3.405   6.457   4.347 -0.1837 -0.4556 -0.2991
   91SAPC  H18X 8794   3.491   6.500   4.292 -0.4196  1.5113  0.8055
   91SAPC  H18Y 8795   3.328   6.536   4.355  0.0055 -0.4286  1.8192
   91SAPC  H18Z 8796   3.386   6.365   4.287  1.4071 -0.8092 -0.3268
   92SAPC     N 8797   2.639   5.607   7.077  0.1559  0.8135 -0.3536
   92SAPC   C12 8798   2.702   5.645   6.940 -0.1625  0.1988 -0.6099
   92SAPC  H12A 8799   2.756   5.738   6.953 -0.7658  0.4640  0.1085
   92SAPC  H12B 8800   2.620   5.673   6.876 -0.1941 -0.5135 -0.8843
   92SAPC   C13 8801   2.554   5.482   7.061 -0.0232 -0.6241 -0.4888
   92SAPC  H13A 8802   2.503   5.469   7.155  1.4564 -0.5719  0.3637
   92SAPC  H13B 8803   2.480   5.476   6.982  0.4380 -0.8096 -0.9123
   92SAPC  H13C 8804   2.623   5.399   7.059  1.6406  0.7048 -0.5335
   92SAPC   C14 8805   2.746   5.574   7.177 -0.5675  0.3317  0.5043
   92SAPC  H14A 8806   2.700   5.534   7.266  1.0551 -0.4593  1.0206
   92SAPC  H14B 8807   2.810   5.496   7.140 -0.2105  1.1186 -0.5713
   92SAPC  H14C 8808   2.815   5.656   7.188  0.2038 -0.4301  1.5188
   92SAPC   C15 8809   2.550   5.705   7.132 -0.1285  0.3663 -0.4209
   92SAPC  H15A 8810   2.518   5.677   7.231  0.2692  1.8614  0.1482
   92SAPC  H15B 8811   2.593   5.803   7.121  0.1668  0.2419 -0.3670
   92SAPC  H15C 8812   2.459   5.708   7.073 -0.3579  1.0140 -0.0468
   92SAPC   C11 8813   2.780   5.530   6.866  0.3027 -0.3247 -0.4576
   92SAPC  H11A 8814   2.766   5.549   6.757  2.4433 -3.4350 -1.4065
   92SAPC  H11B 8815   2.730   5.432   6.882 -1.5641  0.6974  0.2988
   92SAPC     P 8816   3.022   5.631   6.843 -0.2235 -0.0519 -0.4336
   92SAPC   O13 8817   2.990   5.774   6.866  0.1925 -0.2844 -0.2365
   92SAPC   O14 8818   3.162   5.588   6.871  0.2053  0.6517 -1.1264
   92SAPC   O12 8819   2.916   5.527   6.900 -0.1116 -0.0279  0.9274
   92SAPC   O11 8820   2.990   5.599   6.691 -0.2149 -0.0047 -0.1829
   92SAPC    C1 8821   3.040   5.481   6.628  0.2496  0.5641 -1.0971
   92SAPC    HA 8822   3.147   5.498   6.602  1.7908 -3.5399  1.4888
   92SAPC    HB 8823   3.046   5.400   6.704  0.6744  1.4423 -0.1594
   92SAPC    C2 8824   2.958   5.438   6.509 -0.3105  0.0315 -0.1451
   92SAPC    HS 8825   3.025   5.370   6.451 -0.0786  0.0711  0.0730
   92SAPC   O21 8826   2.925   5.549   6.423 -0.0674 -0.0864 -0.3901
   92SAPC   C21 8827   3.027   5.598   6.353  0.9724  0.2499 -0.3881
   92SAPC   O22 8828   3.142   5.558   6.364 -0.0563 -0.2141 -0.1233
   92SAPC   C22 8829   2.973   5.665   6.228 -0.2297  0.1264 -0.1124
   92SAPC   H2R 8830   2.917   5.588   6.171  0.5234 -2.0493  1.9258
   92SAPC   H2S 8831   2.909   5.752   6.253  0.5400  0.4964  0.6302
   92SAPC    C3 8832   2.828   5.356   6.549 -0.4999  0.5383 -0.0323
   92SAPC    HX 8833   2.746   5.430   6.565  0.0656  1.7050 -2.2200
   92SAPC    HY 8834   2.847   5.293   6.639  2.7287 -1.4069 -1.8960
   92SAPC   O31 8835   2.780   5.275   6.446 -0.1973 -0.1992  0.7278
   92SAPC   C31 8836   2.729   5.160   6.479  0.6404  0.4234 -0.2797
   92SAPC   O32 8837   2.708   5.119   6.593  0.0893  0.2103 -0.3784
   92SAPC   C32 8838   2.708   5.083   6.357  0.3516  0.4347 -0.4904
   92SAPC   H2X 8839   2.660   4.993   6.402  0.2950 -0.0933 -1.5775
   92SAPC   H2Y 8840   2.800   5.035   6.318  0.1466 -2.0726  1.8437
   92SAPC   C23 8841   3.083   5.709   6.135 -0.6547 -0.4720 -0.1073
   92SAPC   H3R 8842   3.123   5.619   6.085 -0.9007 -2.0915  2.4270
   92SAPC   H3S 8843   3.163   5.758   6.195  2.3890 -0.8167 -3.5840
   92SAPC   C24 8844   3.031   5.813   6.036  0.0167  0.3490 -0.0300
   92SAPC   H4R 8845   3.113   5.845   5.969 -0.1990 -1.2716 -1.1404
   92SAPC   H4S 8846   2.999   5.901   6.095  0.1137  1.6272 -1.8034
   92SAPC   C25 8847   2.921   5.751   5.960 -0.9218 -0.6573 -0.4418
   92SAPC   H5R 8848   2.824   5.742   6.011 -0.2276 -1.6941  0.7454
   92SAPC   C26 8849   2.935   5.707   5.832  0.0908 -0.1333  0.6089
   92SAPC   H6R 8850   2.844   5.660   5.791 -0.2671  0.2912  0.8926
   92SAPC   C27 8851   3.050   5.702   5.736  0.1770 -0.6760  0.5612
   92SAPC   H7R 8852   3.072   5.594   5.721 -0.2273 -0.7523  0.5124
   92SAPC   H7S 8853   3.137   5.753   5.782 -0.0714  0.2059  0.0693
   92SAPC   C28 8854   3.023   5.782   5.613 -0.0291 -0.2513  0.8979
   92SAPC   H8R 8855   3.036   5.891   5.620  1.3044 -0.2893 -0.6240
   92SAPC   C29 8856   2.955   5.729   5.506 -0.2281  0.5463 -0.2313
   92SAPC   H9R 8857   2.953   5.793   5.417 -1.5930  1.8159  0.6798
   92SAPC  C210 8858   2.917   5.581   5.500 -0.0269 -0.0176 -0.3208
   92SAPC  H10R 8859   2.824   5.574   5.439 -1.1202 -1.5020  1.4118
   92SAPC  H10S 8860   2.884   5.536   5.597 -0.4872  0.7775 -0.0968
   92SAPC  C211 8861   3.025   5.494   5.440 -0.2809 -0.2120  0.3507
   92SAPC  H11R 8862   3.081   5.461   5.529 -0.9233  1.5486  1.4540
   92SAPC  C212 8863   3.038   5.447   5.314  0.0980 -0.3290 -0.2106
   92SAPC  H12R 8864   3.137   5.404   5.291  0.9753  0.4744  1.8208
   92SAPC  C213 8865   2.958   5.492   5.193 -0.1781  0.8849 -0.4088
   92SAPC  H13R 8866   3.029   5.538   5.121  2.2575 -1.8191  0.0706
   92SAPC  H13S 8867   2.883   5.571   5.215 -0.4769  0.5919 -0.3704
   92SAPC  C214 8868   2.888   5.367   5.136  1.0929 -0.1987 -0.3256
   92SAPC  H14R 8869   2.812   5.334   5.208  1.4901  0.4056  0.3805
   92SAPC  C215 8870   2.910   5.309   5.014  0.3073 -0.0256 -0.4902
   92SAPC  H15R 8871   2.846   5.222   4.995 -0.9498  1.1312 -1.8188
   92SAPC  C216 8872   3.005   5.343   4.904 -0.1341 -0.3782  0.3199
   92SAPC  H16R 8873   3.106   5.301   4.923  2.5409  4.6011 -1.0099
   92SAPC  H16S 8874   3.032   5.451   4.905 -2.3159  0.2275 -0.7341
   92SAPC  C217 8875   2.957   5.320   4.759 -0.3250  0.4561  0.6202
   92SAPC  H17R 8876   3.034   5.374   4.700 -1.2216  0.5804 -0.4566
   92SAPC  H17S 8877   2.852   5.356   4.759 -0.0572  1.3072 -0.5159
   92SAPC  C218 8878   2.961   5.164   4.726  0.2943  0.3649 -0.0216
   92SAPC  H18R 8879   2.886   5.132   4.651 -1.3885  1.2694  1.2073
   92SAPC  H18S 8880   2.933   5.116   4.822 -1.8536  3.1310  0.8550
   92SAPC  C219 8881   3.101   5.112   4.672 -0.0904  0.8091 -1.0452
   92SAPC  H19R 8882   3.181   5.187   4.687  0.6376  0.3696 -2.5946
   92SAPC  H19S 8883   3.095   5.093   4.563 -1.6802 -0.2820 -0.8023
   92SAPC  C220 8884   3.154   4.988   4.741 -0.0068  1.0390  0.4397
   92SAPC  H20R 8885   3.223   4.931   4.676 -2.4223  1.8076 -3.0783
   92SAPC  H20S 8886   3.070   4.916   4.752  1.2277 -0.8511 -1.7665
   92SAPC  H20T 8887   3.203   5.007   4.839  0.3907  1.0644  0.2355
   92SAPC   C33 8888   2.605   5.142   6.258 -0.0763  0.3606 -0.0483
   92SAPC   H3X 8889   2.656   5.234   6.222  1.2053 -0.1340  0.4781
   92SAPC   H3Y 8890   2.509   5.165   6.310 -0.2888  0.7843 -0.6141
   92SAPC   C34 8891   2.585   5.045   6.140  0.5184 -0.1725  1.1094
   92SAPC   H4X 8892   2.683   5.026   6.092 -1.2107 -3.0582 -1.6962
   92SAPC   H4Y 8893   2.519   5.093   6.064 -1.5692  0.0129  2.9431
   92SAPC   C35 8894   2.535   4.905   6.184  0.0857  0.0346  0.2178
   92SAPC   H5X 8895   2.431   4.918   6.223 -0.0116  0.3804 -0.1460
   92SAPC   H5Y 8896   2.598   4.848   6.256 -0.3281 -0.3585  0.2780
   92SAPC   C36 8897   2.532   4.817   6.056 -0.7771  0.8489  0.2755
   92SAPC   H6X 8898   2.635   4.776   6.052 -0.4844  1.0893  3.1852
   92SAPC   H6Y 8899   2.519   4.884   5.968 -1.3687  1.4691  0.8309
   92SAPC   C37 8900   2.423   4.710   6.071 -0.7798 -0.3504  0.8125
   92SAPC   H7X 8901   2.442   4.648   6.161  0.7917  0.4451  1.0602
   92SAPC   H7Y 8902   2.430   4.649   5.978 -0.5265 -0.5069  0.9323
   92SAPC   C38 8903   2.276   4.757   6.064  0.1225  0.1148  0.3411
   92SAPC   H8X 8904   2.259   4.815   6.157  1.4427  2.7876 -0.9822
   92SAPC   H8Y 8905   2.205   4.671   6.068 -0.0161  0.2768  2.4768
   92SAPC   C39 8906   2.236   4.843   5.944  0.1866  0.2311  0.3130
   92SAPC   H9X 8907   2.296   4.936   5.949  1.9572 -0.7888 -0.8247
   92SAPC   H9Y 8908   2.126   4.858   5.954  0.1577  1.3049 -1.2398
   92SAPC  C310 8909   2.272   4.779   5.814  0.3227 -0.8298 -0.0475
   92SAPC  H10X 8910   2.225   4.679   5.816  0.0206 -0.7716 -1.9558
   92SAPC  H10Y 8911   2.381   4.764   5.800  0.8050  2.4756 -0.7796
   92SAPC  C311 8912   2.199   4.838   5.688 -0.6715 -0.4366 -0.5403
   92SAPC  H11X 8913   2.095   4.872   5.706 -0.4960  0.1735 -0.6563
   92SAPC  H11Y 8914   2.189   4.762   5.608  0.0696 -1.1766  0.0452
   92SAPC  C312 8915   2.276   4.955   5.626 -0.4864 -0.6970  0.7589
   92SAPC  H12X 8916   2.384   4.934   5.612 -0.1730  1.2006  0.0698
   92SAPC  H12Y 8917   2.277   5.038   5.701 -0.6758  0.4892 -0.5093
   92SAPC  C313 8918   2.220   4.996   5.494 -0.1760  0.7499  0.4867
   92SAPC  H13X 8919   2.116   5.030   5.509 -0.1887  1.2623 -0.6560
   92SAPC  H13Y 8920   2.209   4.906   5.430  0.0463  0.0829  1.3549
   92SAPC  C314 8921   2.298   5.098   5.414 -0.4103 -0.2405 -0.3158
   92SAPC  H14X 8922   2.407   5.080   5.431 -1.2199 -3.9522  2.0954
   92SAPC  H14Y 8923   2.264   5.197   5.451 -1.3364 -0.5703 -0.2655
   92SAPC  C315 8924   2.281   5.089   5.263 -0.5819  1.0172  0.2907
   92SAPC  H15X 8925   2.172   5.098   5.243 -0.7044 -1.1751 -0.1849
   92SAPC  H15Y 8926   2.308   4.988   5.228  1.3919  1.7542 -0.4632
   92SAPC  C316 8927   2.372   5.196   5.184  0.8714  0.1429  0.0221
   92SAPC  H16X 8928   2.467   5.188   5.241 -0.4105 -1.2291  2.1068
   92SAPC  H16Y 8929   2.331   5.299   5.186  1.6060  0.4397  0.5733
   92SAPC  C317 8930   2.378   5.146   5.042 -0.0217  0.1609 -0.4117
   92SAPC  H17X 8931   2.275   5.152   5.003  0.0542 -0.7822 -0.7928
   92SAPC  H17Y 8932   2.395   5.036   5.037 -0.9269 -0.0282  0.3141
   92SAPC  C318 8933   2.468   5.222   4.952 -0.3262 -0.3015 -0.5938
   92SAPC  H18X 8934   2.427   5.322   4.927  2.0616  1.1049  0.7741
   92SAPC  H18Y 8935   2.479   5.174   4.852 -1.1542 -2.1621  0.1697
   92SAPC  H18Z 8936   2.565   5.236   5.004 -0.5324  2.1472 -0.7414
   93SAPC     N 8937   5.734   0.741   7.077 -0.0969  0.0421 -0.0783
   93SAPC   C12 8938   5.775   0.604   7.046  0.4004  0.0252  0.2261
   93SAPC  H12A 8939   5.747   0.587   6.943  0.8821  0.9436 -0.0690
   93SAPC  H12B 8940   5.705   0.543   7.100 -0.2649  0.3423 -0.2655
   93SAPC   C13 8941   5.586   0.757   7.048  0.2523 -0.2061 -0.4260
   93SAPC  H13A 8942   5.551   0.713   6.956 -1.7248 -0.9148  0.5895
   93SAPC  H13B 8943   5.527   0.705   7.122 -1.3802 -0.9861 -2.1888
   93SAPC  H13C 8944   5.559   0.859   7.070  0.8007 -0.5128  1.9316
   93SAPC   C14 8945   5.761   0.793   7.217  0.1692 -0.2724 -0.1808
   93SAPC  H14A 8946   5.698   0.735   7.283 -0.3358  0.9100  0.4096
   93SAPC  H14B 8947   5.863   0.775   7.247 -0.4863 -0.9767  1.7761
   93SAPC  H14C 8948   5.742   0.899   7.231 -1.0003 -0.3063 -1.3421
   93SAPC   C15 8949   5.804   0.844   6.984  0.2131 -0.2011 -0.5071
   93SAPC  H15A 8950   5.790   0.946   7.016  1.7634 -0.1921  0.2295
   93SAPC  H15B 8951   5.911   0.833   6.981  0.2311 -1.0414  1.4742
   93SAPC  H15C 8952   5.769   0.836   6.883  0.3157  1.9469 -0.7550
   93SAPC   C11 8953   5.918   0.563   7.068 -0.3351  0.1145 -0.3186
   93SAPC  H11A 8954   5.931   0.465   7.018  1.0271  0.3202 -0.3907
   93SAPC  H11B 8955   5.926   0.551   7.178 -0.0574  0.8445 -0.2518
   93SAPC     P 8956   6.138   0.635   6.952  0.4593 -0.0657 -0.0029
   93SAPC   O13 8957   6.217   0.754   6.930 -0.1412 -0.9956 -0.6908
   93SAPC   O14 8958   6.211   0.514   7.005 -0.2771  0.3085  0.2453
   93SAPC   O12 8959   6.015   0.662   7.043  0.0468 -0.4129 -0.6871
   93SAPC   O11 8960   6.069   0.590   6.822 -0.5187  0.7899  0.3393
   93SAPC    C1 8961   6.035   0.680   6.720  0.0353  0.6098  0.3967
   93SAPC    HA 8962   5.960   0.630   6.654  0.2851 -1.7684  1.8073
   93SAPC    HB 8963   5.988   0.773   6.760  1.8675  1.0844  1.5588
   93SAPC    C2 8964   6.148   0.706   6.624 -0.3132  0.2110 -0.3088
   93SAPC    HS 8965   6.224   0.758   6.685 -0.5030 -0.6418  0.6747
   93SAPC   O21 8966   6.085   0.785   6.520 -0.4097 -0.6058 -0.0071
   93SAPC   C21 8967   6.168   0.879   6.470  0.8381  0.1089  0.4818
   93SAPC   O22 8968   6.278   0.898   6.506 -0.2442  0.1123 -0.0660
   93SAPC   C22 8969   6.097   0.944   6.356  0.6850  0.3386 -0.0054
   93SAPC   H2R 8970   6.007   0.995   6.396  0.1713  0.8774 -1.7650
   93SAPC   H2S 8971   6.165   1.027   6.324 -1.8708  2.6616  0.2100
   93SAPC    C3 8972   6.221   0.580   6.567  0.4289  0.0457  0.0900
   93SAPC    HX 8973   6.155   0.507   6.516  1.0007  0.1977 -0.9119
   93SAPC    HY 8974   6.278   0.523   6.643  0.5972 -1.5011 -1.1424
   93SAPC   O31 8975   6.317   0.626   6.463 -0.1321  0.2639  0.0068
   93SAPC   C31 8976   6.381   0.522   6.413 -0.1634  0.5917  0.4264
   93SAPC   O32 8977   6.352   0.403   6.438  0.3422 -0.0569 -0.3325
   93SAPC   C32 8978   6.498   0.575   6.321 -0.6395 -0.3078 -1.1343
   93SAPC   H2X 8979   6.569   0.617   6.395  0.6339 -3.8000 -0.1538
   93SAPC   H2Y 8980   6.460   0.662   6.264 -1.8082  0.4021  0.6671
   93SAPC   C23 8981   6.056   0.851   6.236  0.4290  0.3301 -0.3915
   93SAPC   H3R 8982   6.032   0.911   6.145  0.6137  1.3640  0.2247
   93SAPC   H3S 8983   5.968   0.788   6.260  1.3118 -0.2744  1.3936
   93SAPC   C24 8984   6.172   0.766   6.197 -0.5780 -0.2853 -0.3291
   93SAPC   H4R 8985   6.196   0.703   6.285 -0.5687 -1.3482 -1.0737
   93SAPC   H4S 8986   6.266   0.823   6.185 -0.0167 -1.2533 -0.6758
   93SAPC   C25 8987   6.149   0.672   6.085  0.0008 -0.3604 -0.3403
   93SAPC   H5R 8988   6.095   0.583   6.120  0.4782  0.1338  1.8389
   93SAPC   C26 8989   6.177   0.701   5.958  0.1597 -0.3373 -0.0352
   93SAPC   H6R 8990   6.138   0.634   5.880 -1.6421  3.0819 -2.2822
   93SAPC   C27 8991   6.245   0.825   5.909 -0.9468  0.2020 -0.0116
   93SAPC   H7R 8992   6.340   0.849   5.961 -0.9495 -1.0775  0.6289
   93SAPC   H7S 8993   6.175   0.910   5.923 -0.9349  0.0012  1.3592
   93SAPC   C28 8994   6.277   0.834   5.760  0.7844  0.5396  0.6196
   93SAPC   H8R 8995   6.381   0.850   5.729  0.4038 -0.4015 -1.3325
   93SAPC   C29 8996   6.180   0.866   5.666  0.4029 -0.2151  0.6286
   93SAPC   H9R 8997   6.217   0.891   5.565  1.0204  1.0635  1.1520
   93SAPC  C210 8998   6.035   0.878   5.692  0.0681 -0.5383  0.3236
   93SAPC  H10R 8999   6.014   0.899   5.799  0.2404  2.5267 -0.1773
   93SAPC  H10S 9000   5.980   0.785   5.666 -1.1276  0.7108 -1.8977
   93SAPC  C211 9001   5.972   0.993   5.617  0.2722  0.8415  0.4277
   93SAPC  H11R 9002   5.954   1.090   5.666  1.5107  1.5272 -0.4094
   93SAPC  C212 9003   5.940   1.001   5.489  0.4041  0.3630  0.0413
   93SAPC  H12R 9004   5.886   1.094   5.466  0.7504  1.1330  2.1218
   93SAPC  C213 9005   5.939   0.896   5.383  0.1573 -0.6569 -0.3802
   93SAPC  H13R 9006   5.992   0.808   5.426 -0.2319 -0.6014  0.2240
   93SAPC  H13S 9007   5.994   0.921   5.289  1.4631  0.7191  0.6986
   93SAPC  C214 9008   5.798   0.849   5.356 -0.4152 -0.2216  0.0786
   93SAPC  H14R 9009   5.759   0.768   5.419  0.5037 -0.5343  0.2658
   93SAPC  C215 9010   5.729   0.860   5.241 -0.7011 -0.5523  0.3025
   93SAPC  H15R 9011   5.628   0.817   5.237 -1.6054  1.3850  1.0306
   93SAPC  C216 9012   5.763   0.940   5.116  0.8682 -0.1998  0.6292
   93SAPC  H16R 9013   5.856   1.001   5.117  1.8183 -1.6043  1.0973
   93SAPC  H16S 9014   5.683   1.017   5.105 -0.3916 -1.7601 -1.8268
   93SAPC  C217 9015   5.769   0.883   4.980  0.2532  0.2152  0.0314
   93SAPC  H17R 9016   5.835   0.793   4.980 -0.2055 -0.1497  1.3526
   93SAPC  H17S 9017   5.802   0.961   4.908 -0.9572 -0.6525 -1.5262
   93SAPC  C218 9018   5.632   0.826   4.928 -0.5612  0.1217 -0.1918
   93SAPC  H18R 9019   5.561   0.907   4.956  1.2738  1.3943  1.0923
   93SAPC  H18S 9020   5.610   0.737   4.991  0.0938  0.2883  0.2894
   93SAPC  C219 9021   5.629   0.812   4.780 -0.2097 -0.4608 -0.2163
   93SAPC  H19R 9022   5.714   0.750   4.744  1.0313  0.4146  1.0822
   93SAPC  H19S 9023   5.648   0.911   4.735 -0.4908  0.8784  2.3960
   93SAPC  C220 9024   5.506   0.760   4.713  0.1071 -0.0367  0.4980
   93SAPC  H20R 9025   5.528   0.750   4.604  0.2238  2.0637  0.2827
   93SAPC  H20S 9026   5.420   0.830   4.716  1.0250  1.1008  2.3637
   93SAPC  H20T 9027   5.478   0.656   4.739  1.3503 -0.9455 -1.5199
   93SAPC   C33 9028   6.574   0.469   6.252  0.0534  0.7722 -0.0705
   93SAPC   H3X 9029   6.582   0.383   6.322  1.5071  0.0171 -1.1104
   93SAPC   H3Y 9030   6.681   0.498   6.262 -0.2481  1.2623  2.2452
   93SAPC   C34 9031   6.519   0.418   6.117 -0.1321  0.2140  0.0144
   93SAPC   H4X 9032   6.410   0.398   6.126 -0.2341  0.7318 -0.0251
   93SAPC   H4Y 9033   6.562   0.316   6.105  0.5288  0.1565  2.3054
   93SAPC   C35 9034   6.555   0.513   6.000 -0.1739  0.3936  0.3919
   93SAPC   H5X 9035   6.634   0.584   6.031 -1.0971  2.3603 -1.5180
   93SAPC   H5Y 9036   6.466   0.574   5.975 -0.2269  0.1559 -0.0121
   93SAPC   C36 9037   6.605   0.438   5.877 -0.2301 -0.4523 -0.1062
   93SAPC   H6X 9038   6.538   0.356   5.842  1.1101 -1.7958  0.3652
   93SAPC   H6Y 9039   6.701   0.383   5.887  1.3957  2.5710  3.3041
   93SAPC   C37 9040   6.622   0.538   5.759 -0.2246  0.3823  0.5208
   93SAPC   H7X 9041   6.682   0.629   5.780 -1.0336  1.0152  0.1531
   93SAPC   H7Y 9042   6.516   0.560   5.731  0.2182 -0.1242 -1.7732
   93SAPC   C38 9043   6.689   0.463   5.636 -0.3360  0.1698 -0.2244
   93SAPC   H8X 9044   6.746   0.371   5.662 -1.1934 -1.0057 -2.3445
   93SAPC   H8Y 9045   6.762   0.537   5.595 -1.1177  1.8939  1.3464
   93SAPC   C39 9046   6.582   0.422   5.535  0.4682 -0.1367  1.2173
   93SAPC   H9X 9047   6.515   0.509   5.514  1.4128 -0.2472 -3.1337
   93SAPC   H9Y 9048   6.516   0.352   5.590  0.9005  0.2891  2.3150
   93SAPC  C310 9049   6.647   0.386   5.404  0.3894  0.2835  0.4156
   93SAPC  H10X 9050   6.702   0.294   5.434  1.2028  0.7291  0.3144
   93SAPC  H10Y 9051   6.728   0.459   5.382  2.0329 -1.2787  1.0511
   93SAPC  C311 9052   6.542   0.378   5.285  0.4260 -0.7706 -0.1432
   93SAPC  H11X 9053   6.521   0.485   5.263  1.7570 -0.5697 -0.5419
   93SAPC  H11Y 9054   6.452   0.323   5.321 -1.9529  1.5493 -2.1199
   93SAPC  C312 9055   6.612   0.316   5.170  0.0975  0.4378  0.5482
   93SAPC  H12X 9056   6.659   0.225   5.213 -1.1236 -1.3244 -1.6921
   93SAPC  H12Y 9057   6.688   0.396   5.156 -2.2105  2.4400 -1.6064
   93SAPC  C313 9058   6.516   0.270   5.054  0.3586  1.0229  0.6902
   93SAPC  H13X 9059   6.455   0.356   5.018 -0.3065  0.1481 -0.3418
   93SAPC  H13Y 9060   6.441   0.193   5.082  0.3921  0.4533 -0.6988
   93SAPC  C314 9061   6.587   0.212   4.928  0.7971 -0.3879 -0.3552
   93SAPC  H14X 9062   6.629   0.113   4.954 -0.3902 -1.0918 -1.0380
   93SAPC  H14Y 9063   6.679   0.274   4.918 -0.7496  1.8605 -1.5702
   93SAPC  C315 9064   6.506   0.201   4.801 -0.5714  0.9002  0.0654
   93SAPC  H15X 9065   6.475   0.298   4.757  1.4832  0.7202 -1.9597
   93SAPC  H15Y 9066   6.413   0.146   4.825  0.1007  0.0961  0.9233
   93SAPC  C316 9067   6.587   0.132   4.693  1.0415  0.5479 -0.3738
   93SAPC  H16X 9068   6.600   0.023   4.710  0.5460  0.6399  0.6390
   93SAPC  H16Y 9069   6.687   0.179   4.706  0.6610  0.7081  2.4672
   93SAPC  C317 9070   6.529   0.162   4.556 -0.0068  0.3058  0.4819
   93SAPC  H17X 9071   6.602   0.119   4.484 -1.3720 -1.4059  0.0263
   93SAPC  H17Y 9072   6.533   0.271   4.534  0.6268  0.5391  1.7036
   93SAPC  C318 9073   6.394   0.103   4.532 -0.0532  0.5066  0.2344
   93SAPC  H18X 9074   6.345   0.128   4.435  0.1740  0.8995  0.2168
   93SAPC  H18Y 9075   6.336   0.139   4.619  2.2132 -2.1083  3.0433
   93SAPC  H18Z 9076   6.384  -0.007   4.540 -4.2633  0.7454  0.1296
   94SAPC     N 9077   3.975   0.633   6.684  0.2940  0.6392  0.0987
   94SAPC   C12 9078   3.896   0.560   6.788 -0.1605 -0.5584 -0.4570
   94SAPC  H12A 9079   3.816   0.631   6.807  1.9131  2.2825 -1.6499
   94SAPC  H12B 9080   3.962   0.562   6.874 -0.3080 -0.7192 -0.3391
   94SAPC   C13 9081   4.108   0.565   6.676 -0.4754 -0.4828 -0.4115
   94SAPC  H13A 9082   4.166   0.594   6.762 -1.4538 -1.1870  0.5101
   94SAPC  H13B 9083   4.112   0.460   6.651 -2.0380 -0.0833 -2.6243
   94SAPC  H13C 9084   4.153   0.603   6.585 -1.3767 -0.5673 -0.9001
   94SAPC   C14 9085   3.906   0.631   6.548  0.4248 -0.3396 -0.0411
   94SAPC  H14A 9086   3.883   0.532   6.510  0.0833  0.7397 -2.8479
   94SAPC  H14B 9087   3.808   0.675   6.549  0.8271  0.5706  0.2885
   94SAPC  H14C 9088   3.960   0.685   6.472 -0.7476  0.9095 -0.0053
   94SAPC   C15 9089   3.989   0.771   6.726 -0.6186 -0.2283 -0.5754
   94SAPC  H15A 9090   4.061   0.782   6.806 -1.2914 -1.0924  0.1752
   94SAPC  H15B 9091   4.024   0.827   6.641  4.5698 -2.9343 -0.6690
   94SAPC  H15C 9092   3.900   0.818   6.764 -0.3282  0.2627 -0.4917
   94SAPC   C11 9093   3.824   0.425   6.753  0.2938  0.2973 -0.4460
   94SAPC  H11A 9094   3.762   0.444   6.662 -2.8335 -0.9309  1.2848
   94SAPC  H11B 9095   3.751   0.405   6.834 -2.3607 -0.8290 -2.9127
   94SAPC     P 9096   3.913   0.221   6.607  0.2008  0.4388 -0.0155
   94SAPC   O13 9097   4.037   0.243   6.536  0.0212  0.2760 -0.0575
   94SAPC   O14 9098   3.889   0.084   6.653 -0.4240  0.7902 -0.3754
   94SAPC   O12 9099   3.913   0.315   6.737  0.3946 -0.2494  0.8363
   94SAPC   O11 9100   3.794   0.262   6.512  0.1620 -0.6039  0.3150
   94SAPC    C1 9101   3.702   0.167   6.451 -0.1364 -0.3246  0.1168
   94SAPC    HA 9102   3.658   0.090   6.518  0.1966  1.1879  2.1691
   94SAPC    HB 9103   3.622   0.227   6.403 -0.1753 -0.8362 -0.4645
   94SAPC    C2 9104   3.768   0.096   6.328 -0.0219 -0.1813  0.4748
   94SAPC    HS 9105   3.870   0.065   6.360  2.7272  5.8367 -0.8935
   94SAPC   O21 9106   3.786   0.189   6.223  0.3495  0.2441  0.0077
   94SAPC   C21 9107   3.890   0.166   6.143 -0.3982  0.3264 -0.0370
   94SAPC   O22 9108   3.976   0.077   6.153 -0.3201 -0.4484 -0.0870
   94SAPC   C22 9109   3.885   0.266   6.032 -0.1958 -0.5610  0.4981
   94SAPC   H2R 9110   3.780   0.264   5.997  0.5166 -0.0769 -1.8956
   94SAPC   H2S 9111   3.918   0.361   6.079 -0.4861  0.7853 -1.8661
   94SAPC    C3 9112   3.683  -0.023   6.277 -0.5627 -1.0694  0.5486
   94SAPC    HX 9113   3.586   0.019   6.242  0.0146 -0.9726 -1.0077
   94SAPC    HY 9114   3.644  -0.086   6.361  0.3679  0.1298  1.9295
   94SAPC   O31 9115   3.745  -0.099   6.171 -0.4460 -0.1875 -0.4553
   94SAPC   C31 9116   3.834  -0.190   6.219 -0.7386 -0.5456 -0.5632
   94SAPC   O32 9117   3.852  -0.198   6.340  0.7584 -0.0582  0.1417
   94SAPC   C32 9118   3.879  -0.293   6.114  0.1870 -0.1345 -0.6227
   94SAPC   H2X 9119   3.792  -0.324   6.052 -1.0279  2.3595 -0.3025
   94SAPC   H2Y 9120   3.927  -0.379   6.165 -2.4822 -1.9435 -0.9533
   94SAPC   C23 9121   3.977   0.241   5.911  0.9275  0.5525 -0.2610
   94SAPC   H3R 9122   4.079   0.233   5.955  0.0384 -2.4607  1.5169
   94SAPC   H3S 9123   3.972   0.320   5.833 -1.8195 -1.7946 -2.7229
   94SAPC   C24 9124   3.946   0.107   5.827  0.0535 -0.2594 -0.5070
   94SAPC   H4R 9125   4.009   0.032   5.879  3.0342  2.9429  0.9516
   94SAPC   H4S 9126   3.994   0.123   5.728  0.3047 -0.5336 -0.4322
   94SAPC   C25 9127   3.801   0.075   5.797  0.2930  0.1507  0.2871
   94SAPC   H5R 9128   3.739   0.031   5.877  0.8445 -1.4438 -0.1405
   94SAPC   C26 9129   3.743   0.104   5.680  0.2329 -0.0898 -0.0996
   94SAPC   H6R 9130   3.640   0.067   5.671 -0.5353  1.7451  0.6598
   94SAPC   C27 9131   3.802   0.172   5.554 -1.0123  0.7450  0.0351
   94SAPC   H7R 9132   3.879   0.249   5.574 -0.5148  0.3232 -0.2179
   94SAPC   H7S 9133   3.714   0.218   5.504 -1.6925  1.5889  1.8879
   94SAPC   C28 9134   3.868   0.074   5.454 -0.1502 -0.2945 -0.4757
   94SAPC   H8R 9135   3.934   0.000   5.502 -1.1266 -0.6280  0.3909
   94SAPC   C29 9136   3.845   0.063   5.324 -0.6739 -0.5451  0.2360
   94SAPC   H9R 9137   3.899  -0.013   5.265 -0.6278 -0.5071  0.2304
   94SAPC  C210 9138   3.753   0.144   5.237  0.5896  0.0679 -0.5585
   94SAPC  H10R 9139   3.693   0.216   5.297 -0.5813 -1.3728  0.0335
   94SAPC  H10S 9140   3.669   0.085   5.195 -0.5879  0.8959  0.5697
   94SAPC  C211 9141   3.841   0.196   5.130 -0.2975  0.2251  0.6556
   94SAPC  H11R 9142   3.948   0.207   5.152 -0.1338  1.0371 -0.5208
   94SAPC  C212 9143   3.795   0.246   5.014  0.0425  0.4279  0.5150
   94SAPC  H12R 9144   3.876   0.265   4.942  1.3222  0.0139  1.8014
   94SAPC  C213 9145   3.655   0.241   4.969  0.8861 -0.4663  0.6660
   94SAPC  H13R 9146   3.592   0.328   5.001 -0.1538 -0.3756 -1.4753
   94SAPC  H13S 9147   3.603   0.152   5.011  1.6297 -2.2274 -1.9763
   94SAPC  C214 9148   3.651   0.232   4.815  0.5873  0.6581 -0.7157
   94SAPC  H14R 9149   3.752   0.227   4.773  1.5191 -0.8018  1.4796
   94SAPC  C215 9150   3.542   0.225   4.735 -0.0046 -0.1091  0.1105
   94SAPC  H15R 9151   3.562   0.198   4.630  0.0313 -1.6071  0.4817
   94SAPC  C216 9152   3.400   0.199   4.781  0.4551  0.3927 -0.2572
   94SAPC  H16R 9153   3.325   0.268   4.736 -2.4360 -1.5495  1.2629
   94SAPC  H16S 9154   3.377   0.207   4.890  0.2283  0.2072 -0.2911
   94SAPC  C217 9155   3.351   0.055   4.746 -0.5177  0.3753  0.2760
   94SAPC  H17R 9156   3.407  -0.010   4.817 -1.1788 -0.9891 -0.4110
   94SAPC  H17S 9157   3.393   0.032   4.645 -1.1999  2.1740 -0.4559
   94SAPC  C218 9158   3.195   0.046   4.759 -0.5150  0.2049  0.2073
   94SAPC  H18R 9159   3.155   0.123   4.689 -0.2645  0.2583  0.1189
   94SAPC  H18S 9160   3.167   0.068   4.864 -1.2410  0.5567 -0.0537
   94SAPC  C219 9161   3.138  -0.087   4.711  0.0080  0.3753 -0.0380
   94SAPC  H19R 9162   3.036  -0.094   4.753 -0.0902 -1.1194 -0.4560
   94SAPC  H19S 9163   3.183  -0.175   4.763 -1.3814  0.2040  0.9064
   94SAPC  C220 9164   3.103  -0.112   4.567 -0.0136 -0.6703 -0.1228
   94SAPC  H20R 9165   3.199  -0.120   4.510  1.9058 -0.3472  2.8518
   94SAPC  H20S 9166   3.044  -0.030   4.520 -0.0621 -1.0266 -0.6974
   94SAPC  H20T 9167   3.044  -0.204   4.551  0.7402 -1.2491  0.3597
   94SAPC   C33 9168   3.957  -0.231   6.001 -1.0317  0.4499  0.1346
   94SAPC   H3X 9169   4.049  -0.175   6.029 -1.1954  1.6310 -1.5374
   94SAPC   H3Y 9170   3.881  -0.170   5.947 -2.3606  1.0090  2.4822
   94SAPC   C34 9171   4.000  -0.342   5.898  0.6491 -0.2625 -0.2410
   94SAPC   H4X 9172   3.904  -0.385   5.862 -0.3680  0.8002  1.0723
   94SAPC   H4Y 9173   4.066  -0.416   5.949 -0.4711  0.6652  2.7799
   94SAPC   C35 9174   4.070  -0.265   5.786 -0.7032 -0.7261  0.0673
   94SAPC   H5X 9175   4.175  -0.253   5.820 -0.8245 -0.2335  0.2671
   94SAPC   H5Y 9176   4.034  -0.160   5.781  0.9985 -0.0840  0.6197
   94SAPC   C36 9177   4.079  -0.330   5.646  0.3044 -0.0975  0.4335
   94SAPC   H6X 9178   3.979  -0.370   5.619  0.0280 -1.0581  2.7385
   94SAPC   H6Y 9179   4.153  -0.412   5.655  2.3487  1.7828  1.9809
   94SAPC   C37 9180   4.149  -0.239   5.541 -0.2685 -0.2217 -0.0545
   94SAPC   H7X 9181   4.238  -0.201   5.595 -1.0605 -0.3357  1.3926
   94SAPC   H7Y 9182   4.085  -0.153   5.511 -3.2847 -1.4132  2.3259
   94SAPC   C38 9183   4.188  -0.315   5.416 -0.1200 -0.5075 -0.0297
   94SAPC   H8X 9184   4.211  -0.421   5.437 -0.6846 -0.4770  0.7914
   94SAPC   H8Y 9185   4.273  -0.265   5.364  0.3916  0.1943  1.4263
   94SAPC   C39 9186   4.062  -0.318   5.328  0.6614 -0.4335  0.3648
   94SAPC   H9X 9187   4.016  -0.220   5.306 -0.4301 -1.0369 -0.1395
   94SAPC   H9Y 9188   3.988  -0.380   5.382  1.3388 -1.9598 -0.3874
   94SAPC  C310 9189   4.092  -0.391   5.191 -0.5043  0.2450  0.1625
   94SAPC  H10X 9190   4.136  -0.490   5.217  0.8374  1.1791  1.5885
   94SAPC  H10Y 9191   4.161  -0.324   5.137 -1.9016  0.3725 -1.5472
   94SAPC  C311 9192   3.966  -0.422   5.112 -0.9004 -0.4455  0.0496
   94SAPC  H11X 9193   3.903  -0.334   5.138 -2.3877 -1.4626  0.0620
   94SAPC  H11Y 9194   3.929  -0.516   5.159  1.5176 -0.9115  1.2033
   94SAPC  C312 9195   3.983  -0.435   4.959 -0.1964  0.0271  0.7463
   94SAPC  H12X 9196   4.057  -0.356   4.932  0.2997 -1.1801 -1.6472
   94SAPC  H12Y 9197   3.890  -0.408   4.906  0.5035  2.0793  0.4828
   94SAPC  C313 9198   4.056  -0.563   4.903  0.7278 -0.3078  0.2068
   94SAPC  H13X 9199   4.006  -0.657   4.934  1.7168 -1.9943 -2.9393
   94SAPC  H13Y 9200   4.165  -0.561   4.927  0.6591  1.3692  0.5221
   94SAPC  C314 9201   4.045  -0.548   4.747  0.3349  0.6564 -0.5553
   94SAPC  H14X 9202   4.141  -0.567   4.693  0.6325 -1.8011  0.7120
   94SAPC  H14Y 9203   4.010  -0.448   4.713  1.8429  0.6864 -2.1762
   94SAPC  C315 9204   3.931  -0.644   4.695  0.2105  0.6291  0.3001
   94SAPC  H15X 9205   3.838  -0.622   4.752 -0.4628 -2.0874  0.3678
   94SAPC  H15Y 9206   3.955  -0.752   4.702  0.3728  0.6546  0.1410
   94SAPC  C316 9207   3.906  -0.614   4.543 -0.1929 -0.0598  0.1187
   94SAPC  H16X 9208   4.003  -0.641   4.496 -0.5583 -1.1588 -0.0255
   94SAPC  H16Y 9209   3.875  -0.511   4.518 -0.5284 -0.0528  0.5585
   94SAPC  C317 9210   3.792  -0.704   4.496 -0.1520  0.7330  0.5491
   94SAPC  H17X 9211   3.703  -0.686   4.561 -1.7010  0.8640 -1.5094
   94SAPC  H17Y 9212   3.813  -0.810   4.519 -0.0121  1.2075  2.8923
   94SAPC  C318 9213   3.732  -0.684   4.359 -0.6347  0.4908 -0.2408
   94SAPC  H18X 9214   3.711  -0.579   4.331 -2.7656  0.5387  1.3356
   94SAPC  H18Y 9215   3.636  -0.740   4.355  1.2874 -3.0630 -1.4203
   94SAPC  H18Z 9216   3.795  -0.723   4.276 -0.5643  1.1686 -0.5138
   95SAPC     N 9217   6.751   6.441   2.118 -0.2096  0.3186 -0.8951
   95SAPC   C12 9218   6.776   6.473   2.267 -0.0597  0.3390 -0.1049
   95SAPC  H12A 9219   6.821   6.384   2.308  0.1102 -0.1785 -1.3664
   95SAPC  H12B 9220   6.679   6.487   2.313  0.6523  0.3525  1.4213
   95SAPC   C13 9221   6.636   6.339   2.124 -0.1716 -0.5595 -0.0167
   95SAPC  H13A 9222   6.552   6.385   2.173 -0.5845 -1.1938 -0.1045
   95SAPC  H13B 9223   6.595   6.313   2.027  1.2231 -0.8188 -0.5518
   95SAPC  H13C 9224   6.666   6.251   2.180  1.8095 -0.0482 -0.2258
   95SAPC   C14 9225   6.710   6.562   2.041  0.5869  0.0337 -0.7077
   95SAPC  H14A 9226   6.692   6.528   1.940  1.1499  0.0243 -0.8089
   95SAPC  H14B 9227   6.621   6.610   2.078  1.6342  0.6831  1.0515
   95SAPC  H14C 9228   6.789   6.636   2.047 -1.3135  2.3153 -2.0605
   95SAPC   C15 9229   6.879   6.383   2.059  0.1068 -0.0531  0.2068
   95SAPC  H15A 9230   6.946   6.340   2.131  0.8391  1.5572  0.5245
   95SAPC  H15B 9231   6.845   6.317   1.980 -3.8161  3.1153 -1.0944
   95SAPC  H15C 9232   6.944   6.452   2.007 -0.6181 -0.8338 -1.8627
   95SAPC   C11 9233   6.864   6.592   2.321  0.7378 -0.0173 -0.0484
   95SAPC  H11A 9234   6.966   6.579   2.279  0.4011 -0.0951 -0.8474
   95SAPC  H11B 9235   6.894   6.594   2.428  1.8906  0.9704 -0.3560
   95SAPC     P 9236   6.893   6.839   2.224  0.7270 -0.2042  0.2274
   95SAPC   O13 9237   6.973   6.785   2.105 -0.1637  0.3781  0.0141
   95SAPC   O14 9238   6.810   6.961   2.188 -0.5668 -0.1808 -0.4170
   95SAPC   O12 9239   6.803   6.716   2.280 -0.3552 -0.7136 -0.1673
   95SAPC   O11 9240   6.993   6.869   2.338  0.3979 -0.7995  0.0462
   95SAPC    C1 9241   6.935   6.919   2.459 -0.4072  0.0164 -0.3685
   95SAPC    HA 9242   6.827   6.896   2.470 -0.6165 -0.0284 -2.1903
   95SAPC    HB 9243   6.979   6.865   2.545 -1.4406  0.4737  0.4751
   95SAPC    C2 9244   6.975   7.066   2.481  0.2656  0.8047 -0.2322
   95SAPC    HS 9245   7.062   7.078   2.413 -0.0889 -0.4009 -0.9388
   95SAPC   O21 9246   7.012   7.081   2.619  0.5849 -0.1549 -0.0412
   95SAPC   C21 9247   7.094   7.182   2.645  0.0330  0.2745 -0.3392
   95SAPC   O22 9248   7.147   7.252   2.557 -0.3450 -0.1986 -0.2485
   95SAPC   C22 9249   7.138   7.198   2.796  0.5858 -0.3276  0.6155
   95SAPC   H2R 9250   7.075   7.116   2.838  0.6675 -0.1301  1.1236
   95SAPC   H2S 9251   7.243   7.169   2.814  1.0226 -0.1284 -1.3733
   95SAPC    C3 9252   6.876   7.173   2.437 -0.6286 -0.1421  0.2548
   95SAPC    HX 9253   6.862   7.163   2.327  1.0286 -2.1927  0.1665
   95SAPC    HY 9254   6.916   7.275   2.454 -3.0471  1.3499 -2.0966
   95SAPC   O31 9255   6.752   7.143   2.501 -0.1844 -0.0392  0.0859
   95SAPC   C31 9256   6.737   7.217   2.614  0.3533  0.2787  0.2695
   95SAPC   O32 9257   6.809   7.306   2.652 -0.1368  0.1560  0.0312
   95SAPC   C32 9258   6.605   7.173   2.675  0.4495  0.5056 -0.2728
   95SAPC   H2X 9259   6.526   7.160   2.598  0.5173  2.0633 -0.6399
   95SAPC   H2Y 9260   6.577   7.252   2.748 -0.3631  0.1221 -0.1535
   95SAPC   C23 9261   7.107   7.338   2.854  0.8567 -0.2316 -0.0333
   95SAPC   H3R 9262   7.002   7.361   2.830  1.0072  0.7239  0.1998
   95SAPC   H3S 9263   7.173   7.411   2.802  0.9421 -0.1638  0.1691
   95SAPC   C24 9264   7.123   7.344   3.003  0.6105 -0.2670  0.0098
   95SAPC   H4R 9265   7.229   7.315   3.020  0.6672 -0.6955 -1.0578
   95SAPC   H4S 9266   7.065   7.266   3.057 -0.9144  0.2966 -0.7577
   95SAPC   C25 9267   7.105   7.488   3.053 -0.2634  0.0760 -0.1689
   95SAPC   H5R 9268   7.120   7.560   2.972 -1.7708 -0.0860 -0.6122
   95SAPC   C26 9269   7.078   7.537   3.176 -0.6724 -0.1640 -0.1239
   95SAPC   H6R 9270   7.057   7.643   3.199 -0.7843 -0.3511  0.6643
   95SAPC   C27 9271   7.070   7.436   3.285 -0.0932  0.0937 -0.2148
   95SAPC   H7R 9272   7.124   7.340   3.283 -2.2604 -1.2629  1.4027
   95SAPC   H7S 9273   6.959   7.435   3.293 -0.1947  0.9835 -1.2294
   95SAPC   C28 9274   7.116   7.509   3.412 -0.0834 -0.1747  0.6606
   95SAPC   H8R 9275   7.171   7.601   3.388  0.4225 -1.2920 -3.2431
   95SAPC   C29 9276   7.113   7.451   3.535 -0.3859 -0.0837 -0.4681
   95SAPC   H9R 9277   7.166   7.503   3.616  1.6473 -0.9255 -1.1896
   95SAPC  C210 9278   7.052   7.320   3.571  0.2087 -0.0513  0.1113
   95SAPC  H10R 9279   7.114   7.236   3.533 -3.0893 -1.6654 -2.1017
   95SAPC  H10S 9280   6.955   7.303   3.520 -0.2639  0.1393  0.9313
   95SAPC  C211 9281   7.025   7.313   3.724 -0.0662 -0.3931  0.4888
   95SAPC  H11R 9282   7.011   7.410   3.775 -1.4520  0.0857 -0.7462
   95SAPC  C212 9283   7.028   7.204   3.802  0.0702 -0.0585 -0.5722
   95SAPC  H12R 9284   7.009   7.228   3.908 -0.4698  1.2564 -0.9400
   95SAPC  C213 9285   7.051   7.060   3.750 -0.0692 -0.4695 -0.2011
   95SAPC  H13R 9286   7.026   7.050   3.642 -0.6212  0.5292 -0.1797
   95SAPC  H13S 9287   6.988   6.984   3.800 -0.5083 -0.0966 -0.1804
   95SAPC  C214 9288   7.188   7.016   3.755  0.6853  0.6216  0.6142
   95SAPC  H14R 9289   7.237   7.024   3.657 -2.4108  0.7421 -1.0619
   95SAPC  C215 9290   7.262   6.970   3.861 -0.6170 -0.4112  0.1550
   95SAPC  H15R 9291   7.368   6.941   3.848 -0.7288 -0.0610 -1.7602
   95SAPC  C216 9292   7.200   6.952   3.999 -0.3700 -0.4688 -0.0361
   95SAPC  H16R 9293   7.244   6.862   4.047 -0.7547 -0.5600  0.1480
   95SAPC  H16S 9294   7.090   6.938   3.993 -0.7266  2.1220 -0.9191
   95SAPC  C217 9295   7.220   7.071   4.094  0.2793  0.4231 -0.4962
   95SAPC  H17R 9296   7.162   7.162   4.067  1.3044  1.5038  0.8439
   95SAPC  H17S 9297   7.328   7.098   4.096  0.1453  0.9766  1.8812
   95SAPC  C218 9298   7.171   7.039   4.235  0.2444 -0.2270 -0.1145
   95SAPC  H18R 9299   7.234   6.959   4.280  2.0042  1.1208 -0.0890
   95SAPC  H18S 9300   7.065   7.007   4.240 -0.3256  1.6790  1.7829
   95SAPC  C219 9301   7.188   7.162   4.330  0.9487 -0.6480  0.0335
   95SAPC  H19R 9302   7.123   7.238   4.281  1.0588  1.1543  2.5176
   95SAPC  H19S 9303   7.289   7.208   4.326 -0.1170  1.8176 -2.2022
   95SAPC  C220 9304   7.156   7.142   4.478  0.7124  0.3551 -0.9487
   95SAPC  H20R 9305   7.206   7.053   4.520  1.7297  2.1449  1.9412
   95SAPC  H20S 9306   7.050   7.108   4.477  1.2854 -1.5892  0.2326
   95SAPC  H20T 9307   7.160   7.243   4.525 -0.3121  0.3203 -0.7617
   95SAPC   C33 9308   6.617   7.039   2.745 -0.3473 -0.1015 -0.0889
   95SAPC   H3X 9309   6.649   6.963   2.671 -0.3914  0.6587 -0.9230
   95SAPC   H3Y 9310   6.534   6.986   2.796  1.0511 -2.0885  0.2188
   95SAPC   C34 9311   6.734   7.042   2.849  0.3170 -0.0923 -0.4094
   95SAPC   H4X 9312   6.834   7.061   2.803  0.3562  0.8868  0.0561
   95SAPC   H4Y 9313   6.724   6.945   2.900 -0.7245  0.9893  1.5698
   95SAPC   C35 9314   6.723   7.144   2.962 -0.3034 -0.1635 -0.5457
   95SAPC   H5X 9315   6.617   7.143   2.996 -0.5183 -0.8270 -1.2230
   95SAPC   H5Y 9316   6.748   7.245   2.923  1.0339  0.3336  1.4746
   95SAPC   C36 9317   6.801   7.115   3.090  0.8699  0.4484 -0.1975
   95SAPC   H6X 9318   6.906   7.093   3.061  0.3990  0.8205 -2.3612
   95SAPC   H6Y 9319   6.747   7.033   3.143 -0.8943  1.5241 -0.2457
   95SAPC   C37 9320   6.823   7.242   3.182  0.0529 -0.8406  0.1237
   95SAPC   H7X 9321   6.870   7.319   3.116  3.0941 -1.3452  1.5314
   95SAPC   H7Y 9322   6.886   7.218   3.270 -0.8002  0.5659  1.1700
   95SAPC   C38 9323   6.687   7.295   3.234 -0.3822  0.1279  0.4588
   95SAPC   H8X 9324   6.596   7.298   3.170 -1.1252  1.3367  1.5271
   95SAPC   H8Y 9325   6.708   7.389   3.289 -2.6120  0.6966  0.4353
   95SAPC   C39 9326   6.618   7.212   3.355  0.9101  0.4302  0.5132
   95SAPC   H9X 9327   6.569   7.123   3.311 -0.6553  1.3104  0.3766
   95SAPC   H9Y 9328   6.536   7.279   3.391 -1.2776 -1.3151 -0.9551
   95SAPC  C310 9329   6.700   7.182   3.479 -0.6230  0.0134  0.8210
   95SAPC  H10X 9330   6.735   7.281   3.516 -0.4456  0.5198 -0.6725
   95SAPC  H10Y 9331   6.783   7.112   3.454 -1.7375 -1.1188  0.1553
   95SAPC  C311 9332   6.619   7.109   3.583  0.1070 -0.3425 -0.3619
   95SAPC  H11X 9333   6.600   7.007   3.541  1.8085 -0.3077 -1.3277
   95SAPC  H11Y 9334   6.528   7.170   3.598 -0.8919 -0.9402 -3.3063
   95SAPC  C312 9335   6.697   7.079   3.715  0.2728  0.6306  0.2235
   95SAPC  H12X 9336   6.755   7.164   3.754 -1.0505  0.8253  1.8847
   95SAPC  H12Y 9337   6.779   7.010   3.687 -0.7905 -1.5041  2.0163
   95SAPC  C313 9338   6.608   7.023   3.821 -0.1535 -0.0688 -0.0201
   95SAPC  H13X 9339   6.540   6.943   3.784  1.3827 -0.1162 -3.0519
   95SAPC  H13Y 9340   6.554   7.107   3.869 -0.1038 -1.3909  2.4916
   95SAPC  C314 9341   6.692   6.951   3.930 -0.2642  0.6634  0.0859
   95SAPC  H14X 9342   6.740   7.038   3.979  1.9142 -0.8046  0.6748
   95SAPC  H14Y 9343   6.765   6.880   3.885  1.4876  2.1440  0.5136
   95SAPC  C315 9344   6.597   6.884   4.024 -0.5302  0.4706 -0.3594
   95SAPC  H15X 9345   6.539   6.800   3.981 -0.5917 -1.1669  2.6365
   95SAPC  H15Y 9346   6.523   6.964   4.045 -0.0302  0.8581 -0.0416
   95SAPC  C316 9347   6.668   6.849   4.160 -0.1834  0.3374 -0.0593
   95SAPC  H16X 9348   6.591   6.850   4.241 -0.8435 -1.2580 -0.6409
   95SAPC  H16Y 9349   6.742   6.928   4.185  0.5217 -0.1705 -0.5270
   95SAPC  C317 9350   6.734   6.714   4.163 -0.3924  0.0881  0.0004
   95SAPC  H17X 9351   6.760   6.694   4.057  0.8516  3.1006 -0.3589
   95SAPC  H17Y 9352   6.657   6.638   4.191 -0.6277 -0.7439 -2.6847
   95SAPC  C318 9353   6.854   6.705   4.249 -0.0303 -0.5595  0.6609
   95SAPC  H18X 9354   6.920   6.793   4.231 -4.9224  3.1496 -1.1769
   95SAPC  H18Y 9355   6.925   6.622   4.228  0.9267  0.0214  1.4538
   95SAPC  H18Z 9356   6.827   6.700   4.357 -0.1934  0.1437  0.6590
   96SAPC     N 9357   0.501   1.553   1.848  0.3027 -0.3192 -0.1473
   96SAPC   C12 9358   0.520   1.404   1.864 -0.5717 -0.2363  0.2956
   96SAPC  H12A 9359   0.621   1.382   1.894 -0.8669 -1.3769  0.4999
   96SAPC  H12B 9360   0.509   1.362   1.765  0.5114  2.4230 -1.0689
   96SAPC   C13 9361   0.357   1.587   1.819  0.4789 -0.4796  0.1798
   96SAPC  H13A 9362   0.298   1.537   1.894 -0.5718 -0.1651 -0.4226
   96SAPC  H13B 9363   0.341   1.694   1.821 -1.6858 -0.6998 -1.5169
   96SAPC  H13C 9364   0.323   1.544   1.726  1.0081 -2.3797  0.8273
   96SAPC   C14 9365   0.546   1.613   1.978 -0.9154  0.9609  0.2708
   96SAPC  H14A 9366   0.649   1.588   1.996 -0.9722  0.9926  0.6605
   96SAPC  H14B 9367   0.553   1.721   1.978 -1.4576  1.0122  1.4624
   96SAPC  H14C 9368   0.494   1.568   2.062 -1.9143 -1.1385 -1.3668
   96SAPC   C15 9369   0.583   1.621   1.741 -0.0839 -0.2759 -0.1038
   96SAPC  H15A 9370   0.689   1.629   1.757 -0.1026  2.7139 -0.8204
   96SAPC  H15B 9371   0.562   1.574   1.646 -3.4961  1.0108 -0.1404
   96SAPC  H15C 9372   0.546   1.722   1.728 -0.5775 -0.5522 -0.8759
   96SAPC   C11 9373   0.443   1.341   1.976 -0.4743 -0.3883 -0.4690
   96SAPC  H11A 9374   0.443   1.231   1.962  2.3181 -0.8658  2.2233
   96SAPC  H11B 9375   0.335   1.368   1.983 -0.3212 -0.0999  1.1582
   96SAPC     P 9376   0.617   1.285   2.162  0.3220  0.2819 -0.2826
   96SAPC   O13 9377   0.731   1.270   2.069  0.6200  1.0125 -0.5478
   96SAPC   O14 9378   0.650   1.330   2.301 -0.0738 -0.3117  0.3365
   96SAPC   O12 9379   0.504   1.372   2.105  0.1257 -0.6145 -0.4717
   96SAPC   O11 9380   0.544   1.138   2.171  0.2921  0.2808  0.2158
   96SAPC    C1 9381   0.439   1.108   2.266  0.1059 -0.0557  0.2075
   96SAPC    HA 9382   0.386   1.196   2.309 -0.2811 -0.6887  1.0531
   96SAPC    HB 9383   0.369   1.032   2.226 -1.1707  1.4027 -0.4226
   96SAPC    C2 9384   0.500   1.033   2.391 -0.1680 -0.3973 -0.9268
   96SAPC    HS 9385   0.406   0.995   2.435  0.4994 -2.0164 -0.8235
   96SAPC   O21 9386   0.569   1.120   2.485 -0.2542 -0.3176 -0.2882
   96SAPC   C21 9387   0.494   1.191   2.568  0.4740 -0.2182  0.0398
   96SAPC   O22 9388   0.372   1.200   2.575 -0.3879  0.2349  0.2405
   96SAPC   C22 9389   0.586   1.280   2.653  0.1748  0.5633 -0.4652
   96SAPC   H2R 9390   0.694   1.264   2.635  0.8623  3.6494  0.3097
   96SAPC   H2S 9391   0.568   1.383   2.614  0.6784  1.1016  0.6548
   96SAPC    C3 9392   0.602   0.918   2.354 -0.2378  0.3485  0.3747
   96SAPC    HX 9393   0.678   0.973   2.295  1.1992 -0.1867  1.6928
   96SAPC    HY 9394   0.546   0.842   2.294  0.2980 -0.8425  1.3425
   96SAPC   O31 9395   0.649   0.844   2.471 -0.6043 -0.0276  0.3832
   96SAPC   C31 9396   0.769   0.887   2.524  0.8648  0.9045  0.2391
   96SAPC   O32 9397   0.825   0.990   2.490  0.0564  0.1825 -0.1830
   96SAPC   C32 9398   0.810   0.800   2.639  0.5344  0.0304 -0.4095
   96SAPC   H2X 9399   0.920   0.806   2.659  0.5533 -0.7066 -0.2473
   96SAPC   H2Y 9400   0.805   0.694   2.605  0.9455 -0.6294  1.4538
   96SAPC   C23 9401   0.568   1.276   2.800 -0.3930 -0.4217 -0.3043
   96SAPC   H3R 9402   0.611   1.186   2.848 -0.7802 -0.6028 -0.2928
   96SAPC   H3S 9403   0.459   1.271   2.821 -0.5487  0.9454 -0.7292
   96SAPC   C24 9404   0.634   1.398   2.868  0.1695 -0.2039 -0.2618
   96SAPC   H4R 9405   0.742   1.408   2.841  0.1212  1.0733 -0.0289
   96SAPC   H4S 9406   0.632   1.370   2.976  1.6542 -0.1185 -0.1841
   96SAPC   C25 9407   0.563   1.531   2.842  0.7931  0.6393  0.2853
   96SAPC   H5R 9408   0.572   1.576   2.742 -1.6868 -0.6326 -0.5907
   96SAPC   C26 9409   0.492   1.602   2.935  0.1182 -0.2805  0.3920
   96SAPC   H6R 9410   0.464   1.700   2.894 -1.5323 -1.2914 -1.0150
   96SAPC   C27 9411   0.492   1.569   3.084 -0.1357 -0.0187 -0.2112
   96SAPC   H7R 9412   0.516   1.463   3.107 -3.5226 -0.5520  1.4677
   96SAPC   H7S 9413   0.390   1.568   3.129  0.2290 -2.3162  0.7003
   96SAPC   C28 9414   0.580   1.647   3.182 -0.1376 -0.0976  0.1455
   96SAPC   H8R 9415   0.638   1.731   3.139  0.9637 -1.0804 -0.3376
   96SAPC   C29 9416   0.586   1.633   3.320  0.7185  0.0776 -0.3095
   96SAPC   H9R 9417   0.663   1.686   3.377  0.1457  1.4848 -0.7826
   96SAPC  C210 9418   0.507   1.527   3.392 -0.1918 -0.4159 -0.8326
   96SAPC  H10R 9419   0.574   1.474   3.463 -1.5689 -0.4309  0.4944
   96SAPC  H10S 9420   0.456   1.464   3.316 -0.4581 -1.0201 -0.1627
   96SAPC  C211 9421   0.403   1.602   3.472  0.1108  0.4131 -0.2840
   96SAPC  H11R 9422   0.335   1.650   3.401 -2.2784  0.0412  1.5955
   96SAPC  C212 9423   0.389   1.622   3.603  0.5061  0.2158 -0.6624
   96SAPC  H12R 9424   0.312   1.689   3.645 -0.8694 -1.7695  0.1288
   96SAPC  C213 9425   0.484   1.557   3.704  0.6373 -0.3962 -0.5476
   96SAPC  H13R 9426   0.568   1.627   3.718  0.4384 -0.3701  0.5640
   96SAPC  H13S 9427   0.545   1.471   3.668  0.4968  0.2055 -2.3168
   96SAPC  C214 9428   0.429   1.522   3.836 -0.0088 -0.1205 -0.3896
   96SAPC  H14R 9429   0.399   1.417   3.849 -1.5372  0.2248 -0.9190
   96SAPC  C215 9430   0.418   1.605   3.944  0.3378 -0.0724 -0.2985
   96SAPC  H15R 9431   0.387   1.569   4.043 -0.9863  1.0685 -0.2663
   96SAPC  C216 9432   0.459   1.751   3.938  0.3814 -0.1085 -0.0688
   96SAPC  H16R 9433   0.379   1.816   3.978  1.3672  0.9113  0.2921
   96SAPC  H16S 9434   0.473   1.787   3.834  0.3311 -0.3651 -0.1674
   96SAPC  C217 9435   0.582   1.790   4.027  0.2496 -0.5279 -0.2804
   96SAPC  H17R 9436   0.564   1.747   4.128  0.5358 -2.7512 -1.1199
   96SAPC  H17S 9437   0.583   1.901   4.036  0.2534 -0.5003 -0.6070
   96SAPC  C218 9438   0.714   1.741   3.970 -0.4401 -0.6040 -0.5919
   96SAPC  H18R 9439   0.733   1.775   3.866  1.9852 -2.4719 -0.8416
   96SAPC  H18S 9440   0.716   1.630   3.966  2.9766 -0.6737 -0.0414
   96SAPC  C219 9441   0.832   1.774   4.066  0.1698  0.9068  0.4525
   96SAPC  H19R 9442   0.817   1.714   4.159  2.5460  0.3219  0.5228
   96SAPC  H19S 9443   0.846   1.883   4.081  1.1001  1.1286 -1.6508
   96SAPC  C220 9444   0.957   1.712   4.001 -0.3438  0.1003 -0.2152
   96SAPC  H20R 9445   0.958   1.744   3.894  1.1197 -1.2291 -0.6347
   96SAPC  H20S 9446   0.946   1.601   4.003 -1.6646  0.2127  0.6901
   96SAPC  H20T 9447   1.054   1.740   4.047  0.2374  2.3367 -2.6066
   96SAPC   C33 9448   0.729   0.830   2.768 -0.5935  0.1059  0.5013
   96SAPC   H3X 9449   0.719   0.939   2.783 -1.7462 -0.0421  0.9124
   96SAPC   H3Y 9450   0.795   0.794   2.851  3.2139  3.0762 -0.9172
   96SAPC   C34 9451   0.591   0.768   2.765 -0.0332 -0.0334 -0.2219
   96SAPC   H4X 9452   0.617   0.664   2.735  0.6818 -1.2750  3.9642
   96SAPC   H4Y 9453   0.529   0.814   2.686 -0.8553 -1.7095 -0.5975
   96SAPC   C35 9454   0.529   0.761   2.905  0.1652  0.1392  0.2880
   96SAPC   H5X 9455   0.419   0.774   2.902  0.1869  0.1328 -0.8466
   96SAPC   H5Y 9456   0.573   0.852   2.951  0.5088  0.6034 -0.9321
   96SAPC   C36 9457   0.573   0.641   2.991 -0.0037 -0.9206  0.4848
   96SAPC   H6X 9458   0.676   0.613   2.960  0.1485  1.1392 -1.0848
   96SAPC   H6Y 9459   0.506   0.556   2.965  0.6648 -1.1737 -0.4858
   96SAPC   C37 9460   0.584   0.654   3.147 -0.5957  0.0460  0.1883
   96SAPC   H7X 9461   0.502   0.716   3.189  0.0770  1.0305  0.0662
   96SAPC   H7Y 9462   0.679   0.704   3.174 -0.3393 -0.0126 -0.5980
   96SAPC   C38 9463   0.579   0.513   3.214  0.8153 -0.1566  0.1192
   96SAPC   H8X 9464   0.648   0.431   3.183 -0.4176 -0.7635 -1.1383
   96SAPC   H8Y 9465   0.483   0.462   3.190 -0.0458  0.4971  2.0105
   96SAPC   C39 9466   0.585   0.521   3.367  0.8577  0.2447  0.4617
   96SAPC   H9X 9467   0.509   0.583   3.419 -0.1346 -0.6216  0.0951
   96SAPC   H9Y 9468   0.683   0.568   3.390  0.7835  1.9763 -2.3041
   96SAPC  C310 9469   0.569   0.382   3.435  0.0435 -0.0678  0.7179
   96SAPC  H10X 9470   0.668   0.333   3.429  0.8692  1.6219  0.1158
   96SAPC  H10Y 9471   0.491   0.334   3.372 -1.8982 -0.6484  3.3339
   96SAPC  C311 9472   0.523   0.394   3.580  0.1135  0.3589 -0.1661
   96SAPC  H11X 9473   0.453   0.309   3.596  0.1858  0.4281  0.5368
   96SAPC  H11Y 9474   0.469   0.488   3.604  3.3362  2.2328  0.3304
   96SAPC  C312 9475   0.640   0.372   3.684  0.0417 -0.1135  0.5866
   96SAPC  H12X 9476   0.733   0.430   3.662  0.1483 -0.7242 -0.6153
   96SAPC  H12Y 9477   0.657   0.263   3.684 -0.8891 -0.2832  1.7149
   96SAPC  C313 9478   0.588   0.406   3.824 -0.3275 -0.2252 -0.7884
   96SAPC  H13X 9479   0.502   0.340   3.849 -1.5461  1.1732 -1.1603
   96SAPC  H13Y 9480   0.555   0.512   3.816 -0.9719 -0.1182  2.1483
   96SAPC  C314 9481   0.697   0.409   3.936 -0.3758  0.0313  0.0300
   96SAPC  H14X 9482   0.783   0.476   3.916  0.1448 -0.9006 -0.8991
   96SAPC  H14Y 9483   0.735   0.306   3.949  0.4832  0.4131  0.6388
   96SAPC  C315 9484   0.649   0.456   4.071 -0.1891  0.9668 -0.5544
   96SAPC  H15X 9485   0.565   0.395   4.112 -0.0703  0.8342 -0.5069
   96SAPC  H15Y 9486   0.616   0.561   4.058 -0.7870  0.7712 -0.6945
   96SAPC  C316 9487   0.759   0.448   4.181 -0.0065 -0.0198  0.2599
   96SAPC  H16X 9488   0.840   0.520   4.156  0.2609  0.3880  2.1568
   96SAPC  H16Y 9489   0.806   0.348   4.182  0.8893  0.3968  0.3126
   96SAPC  C317 9490   0.718   0.485   4.322  0.2140  0.8449  0.6188
   96SAPC  H17X 9491   0.649   0.406   4.356 -0.4929  1.0276 -0.3660
   96SAPC  H17Y 9492   0.657   0.578   4.321  1.7427  1.9017  0.8893
   96SAPC  C318 9493   0.823   0.500   4.427 -0.0593  0.0149  0.2387
   96SAPC  H18X 9494   0.881   0.594   4.415  1.9361 -1.1600  0.2534
   96SAPC  H18Y 9495   0.885   0.408   4.437 -0.4397 -0.2339  0.3388
   96SAPC  H18Z 9496   0.769   0.512   4.523 -0.7795 -0.9256 -0.0294
   97SAPC     N 9497   6.662   1.061   1.784  0.0134  0.1307 -0.7023
   97SAPC   C12 9498   6.518   1.050   1.771  0.4398 -0.3972  0.0197
   97SAPC  H12A 9499   6.490   0.946   1.786  2.2739 -1.4770 -3.2396
   97SAPC  H12B 9500   6.476   1.082   1.677 -0.6787 -1.3374  0.1728
   97SAPC   C13 9501   6.713   0.992   1.910  0.8841  0.2541  0.4110
   97SAPC  H13A 9502   6.717   0.884   1.905  1.4904  0.2145  1.3917
   97SAPC  H13B 9503   6.817   1.009   1.937  1.0380 -1.8324  1.3695
   97SAPC  H13C 9504   6.649   1.021   1.992 -1.6820 -0.5621 -1.1897
   97SAPC   C14 9505   6.723   0.994   1.667  0.3780 -0.1406  0.7935
   97SAPC  H14A 9506   6.830   0.994   1.679  0.4253  2.0300  0.7041
   97SAPC  H14B 9507   6.695   0.891   1.650 -1.3998  0.4644 -0.3029
   97SAPC  H14C 9508   6.705   1.054   1.580  0.6642 -0.1714  0.7111
   97SAPC   C15 9509   6.712   1.203   1.788  0.2126  0.7268  0.4984
   97SAPC  H15A 9510   6.818   1.212   1.810  0.3470 -0.0071  0.2062
   97SAPC  H15B 9511   6.696   1.255   1.695  0.5445  2.0713  1.1810
   97SAPC  H15C 9512   6.657   1.258   1.862 -0.4826  1.4734 -0.5582
   97SAPC   C11 9513   6.424   1.132   1.868 -0.0206 -0.2628 -0.3983
   97SAPC  H11A 9514   6.320   1.116   1.831 -0.1429 -0.5502  0.0667
   97SAPC  H11B 9515   6.465   1.233   1.848 -0.2004 -0.5688 -2.6502
   97SAPC     P 9516   6.359   0.966   2.050 -0.1420  0.0444 -0.1624
   97SAPC   O13 9517   6.217   1.003   2.079  0.3281 -0.0902  0.1475
   97SAPC   O14 9518   6.373   0.858   1.952 -0.2928  0.5456 -0.1476
   97SAPC   O12 9519   6.436   1.092   2.004 -0.0766  0.4379 -0.1285
   97SAPC   O11 9520   6.424   0.933   2.199  0.0025 -0.1704 -0.3643
   97SAPC    C1 9521   6.454   1.034   2.291  0.0262  0.1321 -0.2108
   97SAPC    HA 9522   6.560   1.067   2.280 -0.8101  2.4471 -2.2190
   97SAPC    HB 9523   6.395   1.127   2.275 -0.8398 -0.8141 -3.0587
   97SAPC    C2 9524   6.442   0.984   2.439 -0.4241  0.8619 -0.3301
   97SAPC    HS 9525   6.476   1.071   2.499  1.2301 -0.1046  0.1953
   97SAPC   O21 9526   6.527   0.867   2.458 -0.5089  0.2915 -0.3221
   97SAPC   C21 9527   6.573   0.856   2.584 -0.3492 -0.7266 -0.2806
   97SAPC   O22 9528   6.578   0.949   2.661  0.1284  0.5188 -0.6476
   97SAPC   C22 9529   6.614   0.709   2.617 -0.2527  0.1692  0.2919
   97SAPC   H2R 9530   6.523   0.646   2.605 -0.8764  0.8807  1.1527
   97SAPC   H2S 9531   6.685   0.682   2.536  0.0606  0.5563  0.4343
   97SAPC    C3 9532   6.291   0.949   2.459  0.1239  0.3946  0.0082
   97SAPC    HX 9533   6.258   0.872   2.386  1.1563  2.5627 -2.9247
   97SAPC    HY 9534   6.224   1.034   2.437 -0.9437 -0.8358 -1.8075
   97SAPC   O31 9535   6.262   0.900   2.588  0.2328  0.3194  0.0688
   97SAPC   C31 9536   6.265   0.984   2.685  0.1641 -0.0993  0.4137
   97SAPC   O32 9537   6.277   1.108   2.663 -0.2974  0.2329 -0.0358
   97SAPC   C32 9538   6.257   0.914   2.821  0.4131 -0.2417 -0.8912
   97SAPC   H2X 9539   6.351   0.860   2.844 -0.1123 -0.1787  1.7634
   97SAPC   H2Y 9540   6.172   0.842   2.823  0.0347  0.1886  0.9828
   97SAPC   C23 9541   6.689   0.702   2.753 -0.2643 -0.0352  0.6842
   97SAPC   H3R 9542   6.776   0.770   2.746 -0.7522  0.6077  0.7981
   97SAPC   H3S 9543   6.737   0.602   2.750  0.8514  0.4643 -2.9939
   97SAPC   C24 9544   6.606   0.706   2.877 -0.1210  0.5044 -0.3543
   97SAPC   H4R 9545   6.530   0.625   2.871  1.0519 -0.5990 -0.6869
   97SAPC   H4S 9546   6.551   0.803   2.874  0.2962  0.7430 -0.2685
   97SAPC   C25 9547   6.682   0.696   3.009 -0.2741  0.0369 -0.3553
   97SAPC   H5R 9548   6.726   0.599   3.034 -0.9024 -0.2697 -0.4106
   97SAPC   C26 9549   6.702   0.790   3.104  0.2641 -0.8160 -0.5061
   97SAPC   H6R 9550   6.758   0.768   3.195 -0.6040 -1.8012 -0.1928
   97SAPC   C27 9551   6.643   0.932   3.095 -0.0339  0.5602 -0.2783
   97SAPC   H7R 9552   6.547   0.933   3.151 -0.5671  1.5093 -1.1827
   97SAPC   H7S 9553   6.626   0.956   2.988 -0.3613 -3.2227 -1.2238
   97SAPC   C28 9554   6.736   1.027   3.165 -0.1290  0.7017  0.3516
   97SAPC   H8R 9555   6.788   1.090   3.091  0.6544 -1.8812 -1.4744
   97SAPC   C29 9556   6.749   1.056   3.295 -0.3390  0.2007  0.3197
   97SAPC   H9R 9557   6.822   1.133   3.323  0.4970 -0.8209  1.0492
   97SAPC  C210 9558   6.699   0.989   3.420 -0.0437  0.0733  1.1289
   97SAPC  H10R 9559   6.623   0.911   3.395 -0.4174  0.8934 -0.4628
   97SAPC  H10S 9560   6.648   1.059   3.489 -0.6817  0.7286  0.0272
   97SAPC  C211 9561   6.813   0.935   3.494  0.5828 -0.0771  0.3217
   97SAPC  H11R 9562   6.908   0.990   3.489  1.4547 -1.4334  1.2924
   97SAPC  C212 9563   6.814   0.818   3.556  0.0764  0.0370 -0.2708
   97SAPC  H12R 9564   6.909   0.778   3.593 -0.7443 -2.4929 -0.7283
   97SAPC  C213 9565   6.706   0.719   3.585 -0.2221 -0.0420 -0.6222
   97SAPC  H13R 9566   6.730   0.636   3.515  0.4473 -0.1622 -0.2511
   97SAPC  H13S 9567   6.605   0.756   3.558 -1.1257 -1.7439  0.2649
   97SAPC  C214 9568   6.694   0.666   3.726  0.1950  0.6735 -0.4365
   97SAPC  H14R 9569   6.659   0.562   3.729 -0.7438  1.0035  0.8141
   97SAPC  C215 9570   6.704   0.738   3.845 -0.0427 -0.4399 -0.0119
   97SAPC  H15R 9571   6.676   0.693   3.941  0.3543  0.1576  0.3830
   97SAPC  C216 9572   6.726   0.884   3.858 -0.4761 -0.2572 -0.0460
   97SAPC  H16R 9573   6.660   0.926   3.779 -2.4724 -3.1887 -0.1002
   97SAPC  H16S 9574   6.829   0.919   3.833 -0.2348  0.1347  1.4185
   97SAPC  C217 9575   6.653   0.950   3.979 -0.5527  0.0573  0.3446
   97SAPC  H17R 9576   6.661   1.060   3.982 -1.0464  0.1041  0.0666
   97SAPC  H17S 9577   6.704   0.911   4.070  2.3614  0.1941 -1.0891
   97SAPC  C218 9578   6.505   0.906   3.986 -0.7204 -0.2324 -0.3290
   97SAPC  H18R 9579   6.495   0.796   3.982  0.2061 -0.4807  2.2212
   97SAPC  H18S 9580   6.457   0.948   3.895  1.1485  0.2653 -1.1185
   97SAPC  C219 9581   6.434   0.963   4.111  0.4544  0.0977  0.3294
   97SAPC  H19R 9582   6.490   1.053   4.144  0.6307  0.2461 -0.3557
   97SAPC  H19S 9583   6.436   0.894   4.198  0.4119 -0.2317  0.0665
   97SAPC  C220 9584   6.285   1.008   4.093 -0.0531  0.6257  0.3596
   97SAPC  H20R 9585   6.271   1.058   3.995  1.2224 -0.1216 -0.2366
   97SAPC  H20S 9586   6.252   1.072   4.178 -1.1913  0.2480  0.2192
   97SAPC  H20T 9587   6.228   0.915   4.074  1.6474 -0.8296  1.9588
   97SAPC   C33 9588   6.225   1.021   2.925  0.1252 -0.1836 -0.6369
   97SAPC   H3X 9589   6.122   1.054   2.898  0.1447 -0.1889 -0.7158
   97SAPC   H3Y 9590   6.294   1.107   2.909 -2.3816  1.6554 -2.3429
   97SAPC   C34 9591   6.227   0.963   3.068  0.3028 -0.5841  0.2236
   97SAPC   H4X 9592   6.333   0.941   3.094  1.0252  1.1352 -1.0648
   97SAPC   H4Y 9593   6.175   0.866   3.055  0.9644 -0.7276 -1.6345
   97SAPC   C35 9594   6.151   1.051   3.168 -0.1056  0.1519 -0.6042
   97SAPC   H5X 9595   6.046   1.067   3.136  0.4154  2.0911 -1.4962
   97SAPC   H5Y 9596   6.203   1.149   3.168  1.2055 -0.5215 -0.3213
   97SAPC   C36 9597   6.159   1.001   3.313 -0.5927 -0.3960  0.0422
   97SAPC   H6X 9598   6.247   0.934   3.316  2.0521  2.8147 -0.3106
   97SAPC   H6Y 9599   6.066   0.947   3.342 -0.1276 -0.0246  2.4651
   97SAPC   C37 9600   6.193   1.116   3.412 -0.0914 -0.2555  0.4205
   97SAPC   H7X 9601   6.121   1.201   3.412 -2.2396 -1.7908 -3.8232
   97SAPC   H7Y 9602   6.293   1.154   3.382  0.2663 -1.6734 -0.2634
   97SAPC   C38 9603   6.205   1.060   3.558  0.0681  0.6211  0.6180
   97SAPC   H8X 9604   6.266   0.968   3.552  0.3153  0.8680 -1.8008
   97SAPC   H8Y 9605   6.106   1.021   3.591 -0.4326  1.6678  0.4086
   97SAPC   C39 9606   6.243   1.153   3.675 -0.0532  1.1776 -0.6461
   97SAPC   H9X 9607   6.227   1.085   3.761 -1.8135  0.7820 -1.2449
   97SAPC   H9Y 9608   6.169   1.236   3.676 -0.7641  0.5518 -0.1889
   97SAPC  C310 9609   6.387   1.207   3.653  0.2095  0.0531  0.3142
   97SAPC  H10X 9610   6.379   1.284   3.572  0.0417  0.6202  0.8615
   97SAPC  H10Y 9611   6.468   1.132   3.641  1.4889  1.4430 -0.0757
   97SAPC  C311 9612   6.424   1.275   3.786 -0.0628  0.0805 -0.1490
   97SAPC  H11X 9613   6.426   1.205   3.873 -0.0664  0.1053 -0.1291
   97SAPC  H11Y 9614   6.345   1.346   3.821 -0.6152 -2.6387  5.2507
   97SAPC  C312 9615   6.565   1.341   3.778 -0.0287 -0.2074  0.0142
   97SAPC  H12X 9616   6.581   1.410   3.693 -0.0059  1.3761  1.2599
   97SAPC  H12Y 9617   6.641   1.260   3.776  0.6989  0.4619 -2.5304
   97SAPC  C313 9618   6.600   1.413   3.904 -0.0961 -0.1733 -1.2518
   97SAPC  H13X 9619   6.551   1.354   3.984  2.8637  0.8874  1.5637
   97SAPC  H13Y 9620   6.558   1.516   3.898  0.5601  0.3244  1.3466
   97SAPC  C314 9621   6.748   1.440   3.928 -0.0843  0.1556  0.2670
   97SAPC  H14X 9622   6.799   1.494   3.846  0.9041 -1.3540 -0.1674
   97SAPC  H14Y 9623   6.810   1.348   3.934  0.1032 -0.0270 -2.9432
   97SAPC  C315 9624   6.779   1.527   4.058 -0.5241  0.8146  0.2335
   97SAPC  H15X 9625   6.727   1.468   4.137  0.9774  0.7014  1.1658
   97SAPC  H15Y 9626   6.733   1.625   4.033 -0.3951  0.4423 -1.6427
   97SAPC  C316 9627   6.926   1.531   4.097 -0.0671 -0.0516  0.3697
   97SAPC  H16X 9628   6.979   1.592   4.020 -2.1936  0.5190 -0.7307
   97SAPC  H16Y 9629   6.972   1.430   4.103 -1.5086 -0.6785  1.1707
   97SAPC  C317 9630   6.962   1.591   4.232 -0.2619 -0.9740 -0.0446
   97SAPC  H17X 9631   6.919   1.523   4.308 -0.1162 -0.6078  0.3726
   97SAPC  H17Y 9632   6.914   1.691   4.243 -2.2270 -1.5137 -2.6459
   97SAPC  C318 9633   7.113   1.587   4.267  0.7085  0.0749  0.1471
   97SAPC  H18X 9634   7.162   1.673   4.217  0.8529 -1.2024 -2.0823
   97SAPC  H18Y 9635   7.159   1.494   4.226 -1.3979 -1.6595  1.5223
   97SAPC  H18Z 9636   7.125   1.581   4.377  3.3707 -0.9850 -0.1220
   98SAPC     N 9637   3.647   2.305   2.069  0.5161 -0.2512 -0.0773
   98SAPC   C12 9638   3.685   2.267   2.215 -0.4816  0.4747  0.4940
   98SAPC  H12A 9639   3.792   2.276   2.227 -0.2371  0.7452 -1.5587
   98SAPC  H12B 9640   3.678   2.160   2.226  0.8950  0.5257  2.3892
   98SAPC   C13 9641   3.724   2.431   2.042  0.2440  0.7751 -0.0755
   98SAPC  H13A 9642   3.701   2.515   2.106 -0.7465  0.1423  0.4181
   98SAPC  H13B 9643   3.829   2.415   2.063  0.5500  1.9112 -0.6465
   98SAPC  H13C 9644   3.705   2.454   1.938 -2.5327  1.3251  0.4854
   98SAPC   C14 9645   3.691   2.191   1.989 -0.2236  0.8806  0.5107
   98SAPC  H14A 9646   3.662   2.221   1.889  0.1633  2.3473  0.8100
   98SAPC  H14B 9647   3.793   2.161   2.004  0.2319  2.1962  0.1385
   98SAPC  H14C 9648   3.629   2.104   2.004 -1.1494  1.1906 -1.2434
   98SAPC   C15 9649   3.504   2.333   2.047 -0.7330  0.0386  0.0125
   98SAPC  H15A 9650   3.454   2.238   2.057 -1.4855  0.6258  2.6580
   98SAPC  H15B 9651   3.455   2.395   2.121 -0.8862 -1.2343  0.9984
   98SAPC  H15C 9652   3.493   2.373   1.947  0.4573  0.5502  0.0693
   98SAPC   C11 9653   3.624   2.336   2.332 -0.3773 -0.0727 -0.8797
   98SAPC  H11A 9654   3.624   2.282   2.429 -1.5944  0.8991 -0.3088
   98SAPC  H11B 9655   3.515   2.337   2.313 -0.3430  0.3446 -1.0718
   98SAPC     P 9656   3.791   2.485   2.459  0.2290  0.2076 -0.0569
   98SAPC   O13 9657   3.905   2.400   2.419  0.1406 -0.1963  0.1046
   98SAPC   O14 9658   3.822   2.628   2.474 -0.1508 -0.6980 -0.2751
   98SAPC   O12 9659   3.674   2.472   2.353 -0.3767  0.0934  0.5451
   98SAPC   O11 9660   3.734   2.421   2.589  0.2422 -0.3879 -0.2657
   98SAPC    C1 9661   3.636   2.500   2.666 -0.4059  0.7766  0.3458
   98SAPC    HA 9662   3.666   2.604   2.692 -0.4236  0.2757  2.5985
   98SAPC    HB 9663   3.538   2.513   2.614 -0.3152 -0.4717 -0.1788
   98SAPC    C2 9664   3.599   2.423   2.796  0.3092 -0.3017 -0.2816
   98SAPC    HS 9665   3.522   2.483   2.848  0.9831  2.5837 -2.3523
   98SAPC   O21 9666   3.715   2.401   2.880  0.8419 -0.4796  0.5525
   98SAPC   C21 9667   3.769   2.509   2.936  0.4201 -0.0917  0.5438
   98SAPC   O22 9668   3.721   2.623   2.944 -0.2478  0.0275  0.4802
   98SAPC   C22 9669   3.899   2.466   3.004 -0.2502  0.1669 -0.0266
   98SAPC   H2R 9670   3.975   2.461   2.923 -1.4626 -0.9754 -1.1503
   98SAPC   H2S 9671   3.922   2.546   3.077  2.7179 -0.8793  0.3465
   98SAPC    C3 9672   3.534   2.288   2.782  0.3620 -0.4745  0.0139
   98SAPC    HX 9673   3.613   2.211   2.772  3.7121  2.8750 -1.8057
   98SAPC    HY 9674   3.474   2.282   2.689 -0.8813 -2.4026  0.8697
   98SAPC   O31 9675   3.459   2.264   2.898  0.3262  0.0103 -0.3062
   98SAPC   C31 9676   3.335   2.307   2.883 -0.5584 -0.3984  0.5429
   98SAPC   O32 9677   3.292   2.369   2.784 -0.5999 -0.3250  0.3549
   98SAPC   C32 9678   3.250   2.277   3.013  0.3342 -0.5308  0.0961
   98SAPC   H2X 9679   3.229   2.167   3.014  0.9332 -0.6510 -0.2702
   98SAPC   H2Y 9680   3.154   2.330   2.998 -0.0524 -1.0328  0.7139
   98SAPC   C23 9681   3.910   2.323   3.060  0.8569  0.4137  0.0288
   98SAPC   H3R 9682   3.897   2.253   2.975  2.2970 -0.6256  0.6344
   98SAPC   H3S 9683   3.825   2.302   3.128  1.2874  0.6132  0.6318
   98SAPC   C24 9684   4.028   2.281   3.136 -1.0458  0.4300 -0.5634
   98SAPC   H4R 9685   4.117   2.306   3.074 -1.7391 -0.0095 -1.7792
   98SAPC   H4S 9686   4.036   2.170   3.137  1.0759  0.5275 -1.3977
   98SAPC   C25 9687   4.049   2.331   3.277  0.6601 -0.7836 -0.8198
   98SAPC   H5R 9688   4.104   2.426   3.288 -0.4020 -0.3919  2.3397
   98SAPC   C26 9689   3.980   2.294   3.388  0.5311  0.3700 -0.7034
   98SAPC   H6R 9690   4.012   2.335   3.485 -0.5736 -2.0150  0.7800
   98SAPC   C27 9691   3.870   2.189   3.407  0.0443  0.1512  0.0993
   98SAPC   H7R 9692   3.908   2.084   3.404 -0.8447 -0.1585 -1.4137
   98SAPC   H7S 9693   3.813   2.186   3.312  2.4264  0.3833 -1.4320
   98SAPC   C28 9694   3.769   2.218   3.517  0.0893  0.5545  0.0192
   98SAPC   H8R 9695   3.769   2.149   3.602  0.8578 -1.3975 -1.4848
   98SAPC   C29 9696   3.667   2.300   3.502  0.2545  0.7554  0.7974
   98SAPC   H9R 9697   3.598   2.309   3.587 -0.0973 -1.3472  0.8067
   98SAPC  C210 9698   3.629   2.390   3.385  0.3122 -0.4500 -0.3120
   98SAPC  H10R 9699   3.527   2.427   3.408 -0.1463 -2.3312  0.9609
   98SAPC  H10S 9700   3.623   2.341   3.286 -3.0740  1.4329 -1.1827
   98SAPC  C211 9701   3.718   2.509   3.357 -0.3014 -0.2315  0.3143
   98SAPC  H11R 9702   3.818   2.478   3.323  0.2712  0.9927  0.7928
   98SAPC  C212 9703   3.692   2.639   3.387 -0.7357 -0.2313 -0.1983
   98SAPC  H12R 9704   3.770   2.713   3.365 -1.5821  1.0229  0.9124
   98SAPC  C213 9705   3.568   2.695   3.459  0.3994  0.0067  0.1945
   98SAPC  H13R 9706   3.594   2.666   3.563  1.6772 -1.5000 -0.4974
   98SAPC  H13S 9707   3.478   2.643   3.419  0.7276 -1.2572  1.0495
   98SAPC  C214 9708   3.546   2.837   3.435  0.1827  0.7043  0.1160
   98SAPC  H14R 9709   3.492   2.862   3.343  1.2285  0.7339 -0.5161
   98SAPC  C215 9710   3.581   2.938   3.522  0.2452  0.2276  0.1061
   98SAPC  H15R 9711   3.560   3.035   3.475  0.1620 -0.8291 -2.2035
   98SAPC  C216 9712   3.649   2.932   3.648 -0.2815 -0.3575  0.1595
   98SAPC  H16R 9713   3.758   2.948   3.629 -0.2402 -1.4480 -0.6636
   98SAPC  H16S 9714   3.636   2.827   3.682  1.8357 -0.3869  1.0830
   98SAPC  C217 9715   3.595   3.037   3.752  0.1589 -0.4451  0.7087
   98SAPC  H17R 9716   3.488   3.010   3.766  0.0900  0.1990  1.5686
   98SAPC  H17S 9717   3.590   3.138   3.706 -1.9616 -0.8740 -0.1206
   98SAPC  C218 9718   3.656   3.032   3.889  0.5264  0.9675 -0.0739
   98SAPC  H18R 9719   3.612   3.120   3.941 -0.9365  1.6627 -2.3803
   98SAPC  H18S 9720   3.764   3.052   3.872  0.6275  1.4688  1.0596
   98SAPC  C219 9721   3.619   2.903   3.966  0.5948 -0.2930  0.0208
   98SAPC  H19R 9722   3.639   2.817   3.898 -0.2925  0.6859 -1.5433
   98SAPC  H19S 9723   3.516   2.894   4.006  0.0122 -0.0234 -1.3481
   98SAPC  C220 9724   3.704   2.872   4.079  0.6794 -0.2132  0.7226
   98SAPC  H20R 9725   3.810   2.886   4.051 -0.0782  0.2366 -2.2119
   98SAPC  H20S 9726   3.688   2.765   4.105 -0.5621 -0.5603 -1.2780
   98SAPC  H20T 9727   3.682   2.941   4.164 -0.0836 -0.1134  0.4479
   98SAPC   C33 9728   3.314   2.310   3.150  0.7214  0.1289 -0.4306
   98SAPC   H3X 9729   3.331   2.420   3.156  1.7449 -0.0686  0.6591
   98SAPC   H3Y 9730   3.413   2.260   3.142  0.2069 -0.7436 -1.7661
   98SAPC   C34 9731   3.227   2.270   3.268 -0.1598 -0.3233 -1.2480
   98SAPC   H4X 9732   3.199   2.162   3.270 -1.5847  0.0397 -0.5312
   98SAPC   H4Y 9733   3.127   2.316   3.255 -0.7924 -0.9530  0.9999
   98SAPC   C35 9734   3.298   2.313   3.402  0.0265 -0.1967  0.6136
   98SAPC   H5X 9735   3.321   2.420   3.384  2.0369 -0.4841  1.2668
   98SAPC   H5Y 9736   3.393   2.255   3.404  0.1145 -0.0404  1.2437
   98SAPC   C36 9737   3.223   2.286   3.535  0.6221  0.3139  1.2703
   98SAPC   H6X 9738   3.195   2.178   3.537 -0.8264  0.5860 -1.2457
   98SAPC   H6Y 9739   3.119   2.323   3.525  0.1912  0.7205  5.3795
   98SAPC   C37 9740   3.295   2.337   3.663  0.1818  0.1393  0.4369
   98SAPC   H7X 9741   3.380   2.266   3.674 -1.6424 -2.3175 -0.3980
   98SAPC   H7Y 9742   3.225   2.321   3.747  0.4604  1.1667  0.8724
   98SAPC   C38 9743   3.336   2.482   3.643 -0.4055 -0.5903  0.2165
   98SAPC   H8X 9744   3.241   2.534   3.618  0.9464  0.8998 -2.3312
   98SAPC   H8Y 9745   3.408   2.490   3.559 -1.3426 -0.1868 -0.5724
   98SAPC   C39 9746   3.387   2.532   3.778  0.0479  1.0679 -0.1773
   98SAPC   H9X 9747   3.482   2.590   3.777  1.0846 -0.5414 -0.9138
   98SAPC   H9Y 9748   3.411   2.441   3.838 -2.7978 -0.1109 -0.6661
   98SAPC  C310 9749   3.295   2.626   3.851 -0.1291 -0.5237 -0.1410
   98SAPC  H10X 9750   3.303   2.639   3.961 -0.6049 -0.7736 -0.0786
   98SAPC  H10Y 9751   3.186   2.607   3.844 -0.3645 -0.2568  2.1107
   98SAPC  C311 9752   3.305   2.766   3.791  0.5404  0.0483  0.0043
   98SAPC  H11X 9753   3.315   2.755   3.681  0.5435 -2.4331  0.1809
   98SAPC  H11Y 9754   3.402   2.810   3.821  2.3111 -1.8298 -2.5699
   98SAPC  C312 9755   3.190   2.863   3.825  0.3868 -0.4584  0.3590
   98SAPC  H12X 9756   3.087   2.824   3.808 -0.8896  2.4118  0.9689
   98SAPC  H12Y 9757   3.213   2.958   3.772  1.3103 -0.4576  0.7443
   98SAPC  C313 9758   3.199   2.896   3.976 -0.4944 -0.3957  0.3700
   98SAPC  H13X 9759   3.300   2.931   4.005 -0.2285 -0.7093 -0.1631
   98SAPC  H13Y 9760   3.186   2.799   4.028 -1.5582  0.4864  1.8015
   98SAPC  C314 9761   3.090   2.990   4.031 -0.1769  0.5120 -0.1032
   98SAPC  H14X 9762   3.064   2.966   4.136  0.0557 -0.3587 -0.2305
   98SAPC  H14Y 9763   2.997   2.958   3.979 -0.4018 -1.4674  1.4192
   98SAPC  C315 9764   3.119   3.136   4.024 -0.2595  0.2603  0.4221
   98SAPC  H15X 9765   3.130   3.172   3.919 -1.1266  2.4670  1.0250
   98SAPC  H15Y 9766   3.221   3.156   4.063  1.0603 -2.2095 -1.4785
   98SAPC  C316 9767   3.014   3.218   4.093  0.2781 -0.1233 -0.8457
   98SAPC  H16X 9768   3.021   3.197   4.202 -0.9690 -0.0602 -0.7331
   98SAPC  H16Y 9769   2.916   3.174   4.066 -0.7839 -0.4293  2.8565
   98SAPC  C317 9770   3.005   3.371   4.054  0.2182 -0.0730  0.1791
   98SAPC  H17X 9771   2.927   3.420   4.115  0.1872 -0.5634  0.5362
   98SAPC  H17Y 9772   2.988   3.380   3.944  1.0553 -1.0700 -0.0548
   98SAPC  C318 9773   3.139   3.441   4.076  0.3589 -0.2640 -0.2700
   98SAPC  H18X 9774   3.217   3.387   4.017 -0.6359 -1.8905 -0.1669
   98SAPC  H18Y 9775   3.164   3.436   4.184 -0.5927  4.7587  0.4029
   98SAPC  H18Z 9776   3.115   3.544   4.044 -2.3860 -0.6082  0.3915
   99SAPC     N 9777   6.030   3.513   2.257 -0.1657 -0.0305 -0.1495
   99SAPC   C12 9778   6.137   3.512   2.369 -0.4162  0.5852  0.3497
   99SAPC  H12A 9779   6.221   3.447   2.350 -1.3635  0.3058 -3.7269
   99SAPC  H12B 9780   6.097   3.476   2.463 -2.7607 -0.5879 -0.9853
   99SAPC   C13 9781   6.087   3.593   2.140 -0.9090 -0.0526  0.0198
   99SAPC  H13A 9782   6.023   3.579   2.054 -0.3904 -2.2699 -0.0416
   99SAPC  H13B 9783   6.094   3.699   2.160  0.4330  0.2222 -1.6704
   99SAPC  H13C 9784   6.185   3.561   2.108  0.0175  3.0573 -0.6699
   99SAPC   C14 9785   6.014   3.377   2.201  0.2455  0.0910  0.2438
   99SAPC  H14A 9786   6.111   3.340   2.171  0.3755  1.5790 -1.3483
   99SAPC  H14B 9787   5.975   3.295   2.259  2.1486 -1.6852 -0.8447
   99SAPC  H14C 9788   5.948   3.385   2.115  1.6270  2.8056 -0.6728
   99SAPC   C15 9789   5.900   3.556   2.299 -0.2164 -0.1214 -0.5834
   99SAPC  H15A 9790   5.900   3.654   2.345 -2.8893 -0.6777  0.7943
   99SAPC  H15B 9791   5.830   3.569   2.218  0.1147  3.1456 -0.4896
   99SAPC  H15C 9792   5.862   3.485   2.371  1.5085  1.1103  1.6993
   99SAPC   C11 9793   6.193   3.648   2.405  0.3039  0.1718  0.5700
   99SAPC  H11A 9794   6.236   3.645   2.508 -2.0471 -0.4331  1.6033
   99SAPC  H11B 9795   6.102   3.712   2.403 -0.5071 -0.9575 -0.7291
   99SAPC     P 9796   6.310   3.851   2.308  0.1009  0.3142 -0.1141
   99SAPC   O13 9797   6.452   3.884   2.287 -0.2376  0.0796  0.3671
   99SAPC   O14 9798   6.224   3.895   2.192  0.2917 -0.2071 -0.5215
   99SAPC   O12 9799   6.295   3.701   2.323 -0.4685 -0.3895  0.5466
   99SAPC   O11 9800   6.256   3.908   2.447 -0.2502 -0.1486 -0.6561
   99SAPC    C1 9801   6.286   4.043   2.477 -0.0449 -0.2326  0.3875
   99SAPC    HA 9802   6.395   4.059   2.481 -0.1331  0.6014 -0.2157
   99SAPC    HB 9803   6.246   4.112   2.399 -2.8625 -3.4962 -1.3313
   99SAPC    C2 9804   6.223   4.076   2.614  0.1667  0.5045  0.2382
   99SAPC    HS 9805   6.240   4.180   2.650  0.4255 -0.1472  2.1135
   99SAPC   O21 9806   6.252   3.976   2.717 -0.0144  0.0389  0.3874
   99SAPC   C21 9807   6.376   3.990   2.758 -0.3176  0.0588 -0.2290
   99SAPC   O22 9808   6.461   4.073   2.723 -0.1510 -0.0615  0.1094
   99SAPC   C22 9809   6.397   3.889   2.870  0.1299  0.1531  0.6404
   99SAPC   H2R 9810   6.308   3.825   2.889  0.2977 -0.0938  0.6114
   99SAPC   H2S 9811   6.483   3.823   2.844  0.0406 -0.4957  1.9267
   99SAPC    C3 9812   6.066   4.070   2.606 -1.1249  0.6676 -0.8403
   99SAPC    HX 9813   6.045   3.961   2.606 -2.9594  0.9804  0.2832
   99SAPC    HY 9814   6.025   4.109   2.510 -0.5206 -0.5839 -1.6380
   99SAPC   O31 9815   6.004   4.128   2.721  0.6011  0.2030  0.2938
   99SAPC   C31 9816   5.893   4.076   2.764 -0.1124 -0.0416 -0.3983
   99SAPC   O32 9817   5.826   3.990   2.709  0.3555  0.3925  0.8234
   99SAPC   C32 9818   5.843   4.153   2.895 -0.4847  0.3065  0.3506
   99SAPC   H2X 9819   5.752   4.100   2.929  0.1023 -2.5582 -2.0965
   99SAPC   H2Y 9820   5.822   4.257   2.863 -1.1208 -0.7624 -3.0458
   99SAPC   C23 9821   6.436   3.957   2.997 -0.8125  0.2023 -0.1409
   99SAPC   H3R 9822   6.350   4.007   3.046 -0.0480  1.6429 -0.2197
   99SAPC   H3S 9823   6.512   4.036   2.980 -0.8698  0.4379  0.6665
   99SAPC   C24 9824   6.505   3.869   3.099 -0.1820  0.8827  0.2417
   99SAPC   H4R 9825   6.595   3.816   3.063 -1.9468 -1.6093 -0.8389
   99SAPC   H4S 9826   6.420   3.801   3.122 -1.4021  2.4617  0.5794
   99SAPC   C25 9827   6.527   3.940   3.222 -0.1405  0.2221 -0.1777
   99SAPC   H5R 9828   6.532   4.047   3.198 -2.4230  0.2217 -0.8598
   99SAPC   C26 9829   6.536   3.894   3.347  0.2198  0.1733 -0.4582
   99SAPC   H6R 9830   6.541   3.969   3.428  0.8737 -0.2623 -0.0860
   99SAPC   C27 9831   6.525   3.755   3.401 -0.3229  0.6623  0.1600
   99SAPC   H7R 9832   6.490   3.686   3.321  0.4542  1.8269 -1.2392
   99SAPC   H7S 9833   6.445   3.745   3.478 -0.5560  1.6010  0.0631
   99SAPC   C28 9834   6.658   3.712   3.457  0.8127 -0.2955  0.1696
   99SAPC   H8R 9835   6.727   3.670   3.382  0.9391 -1.4497  0.9062
   99SAPC   C29 9836   6.699   3.710   3.585  0.3434  0.0482 -0.3254
   99SAPC   H9R 9837   6.805   3.687   3.603  0.6294 -0.1883 -2.1322
   99SAPC  C210 9838   6.616   3.769   3.695 -0.4259 -0.0140  0.4812
   99SAPC  H10R 9839   6.566   3.684   3.746 -2.0046  0.0701 -0.8585
   99SAPC  H10S 9840   6.534   3.832   3.653 -0.4538  0.2188  0.8801
   99SAPC  C211 9841   6.700   3.851   3.793  0.3689 -0.3802 -0.2942
   99SAPC  H11R 9842   6.665   3.954   3.805  0.0794 -0.5898  0.7639
   99SAPC  C212 9843   6.800   3.801   3.867 -0.6397  0.2566  1.1191
   99SAPC  H12R 9844   6.848   3.872   3.936  0.0477  0.1450  0.7656
   99SAPC  C213 9845   6.846   3.656   3.880 -0.0210  0.8819  0.0727
   99SAPC  H13R 9846   6.776   3.583   3.834 -0.2824 -0.5886  2.6206
   99SAPC  H13S 9847   6.840   3.639   3.989  4.4042  1.3585  0.5616
   99SAPC  C214 9848   6.994   3.650   3.842  0.6863 -0.5761  0.0404
   99SAPC  H14R 9849   7.001   3.655   3.733 -1.4572  0.4808 -0.1051
   99SAPC  C215 9850   7.102   3.627   3.916 -0.3513 -0.4953 -0.4251
   99SAPC  H15R 9851   7.199   3.632   3.866  0.7339  0.0726  1.5985
   99SAPC  C216 9852   7.106   3.594   4.065 -0.1428  0.4736 -0.1929
   99SAPC  H16R 9853   7.137   3.488   4.077 -1.4793  0.0198 -0.5909
   99SAPC  H16S 9854   7.012   3.604   4.123 -0.8378  0.9562 -1.3452
   99SAPC  C217 9855   7.221   3.681   4.136  0.1152 -0.1762  0.1904
   99SAPC  H17R 9856   7.315   3.662   4.080  1.0226  2.0252  0.8663
   99SAPC  H17S 9857   7.238   3.649   4.241  1.7046 -0.9245 -0.2636
   99SAPC  C218 9858   7.194   3.837   4.141  0.3310 -0.3353  0.1458
   99SAPC  H18R 9859   7.120   3.859   4.220  2.5580 -1.3734  2.6766
   99SAPC  H18S 9860   7.156   3.887   4.050  2.1627  2.1706  0.6342
   99SAPC  C219 9861   7.321   3.907   4.192  0.1263 -0.1515  0.5209
   99SAPC  H19R 9862   7.400   3.908   4.114 -0.0316  1.3066  0.3473
   99SAPC  H19S 9863   7.349   3.855   4.286 -0.7344  0.0974  0.9318
   99SAPC  C220 9864   7.288   4.058   4.217  0.0192 -0.2593  0.3890
   99SAPC  H20R 9865   7.206   4.077   4.289 -1.6667 -0.9192 -1.2643
   99SAPC  H20S 9866   7.271   4.114   4.122  1.6990 -0.3521  0.0070
   99SAPC  H20T 9867   7.373   4.110   4.265  0.8222  0.8566 -2.0430
   99SAPC   C33 9868   5.935   4.163   3.014  0.6010  0.1086 -0.3063
   99SAPC   H3X 9869   5.877   4.201   3.101  1.0461  1.8153 -0.7108
   99SAPC   H3Y 9870   6.026   4.226   3.001  1.2024  0.5362  4.3735
   99SAPC   C34 9871   5.987   4.024   3.057  0.0688  0.3021  0.1051
   99SAPC   H4X 9872   6.028   3.984   2.962 -1.4517 -1.0681 -0.0314
   99SAPC   H4Y 9873   5.905   3.961   3.097  0.4739  0.9029  1.9961
   99SAPC   C35 9874   6.095   4.033   3.160  0.3314 -0.0928  0.1105
   99SAPC   H5X 9875   6.166   4.112   3.127 -0.2062  0.0113 -0.8525
   99SAPC   H5Y 9876   6.153   3.939   3.152  2.0618  0.7864  1.5682
   99SAPC   C36 9877   6.050   4.042   3.307  0.1664  0.0807 -0.3267
   99SAPC   H6X 9878   5.968   3.969   3.324  1.4912 -1.9686 -2.2530
   99SAPC   H6Y 9879   6.011   4.145   3.326 -0.3467 -0.2316  0.3498
   99SAPC   C37 9880   6.161   4.017   3.401  0.3449  0.0215  0.3833
   99SAPC   H7X 9881   6.247   4.067   3.353 -0.4068 -1.1317 -2.3717
   99SAPC   H7Y 9882   6.187   3.909   3.390 -1.3970 -0.3976 -0.0256
   99SAPC   C38 9883   6.134   4.034   3.550 -0.5236  0.1411 -0.4887
   99SAPC   H8X 9884   6.061   3.954   3.573  1.5537 -1.7533 -0.1683
   99SAPC   H8Y 9885   6.091   4.136   3.563 -0.9420 -0.0429 -0.4103
   99SAPC   C39 9886   6.255   4.006   3.642  0.1307  0.0311  0.0742
   99SAPC   H9X 9887   6.329   4.078   3.602 -0.2593 -0.5610 -1.7997
   99SAPC   H9Y 9888   6.290   3.903   3.617 -0.6290 -0.1175 -0.4210
   99SAPC  C310 9889   6.235   4.034   3.793  0.6902 -0.2319  0.7100
   99SAPC  H10X 9890   6.329   3.995   3.839 -0.8127 -4.0522  0.8501
   99SAPC  H10Y 9891   6.152   3.985   3.847  0.0719  1.0191  0.9217
   99SAPC  C311 9892   6.227   4.183   3.828 -0.0873 -0.0552  0.4556
   99SAPC  H11X 9893   6.125   4.225   3.819 -0.3832 -0.4931  1.6844
   99SAPC  H11Y 9894   6.301   4.236   3.763  2.1539 -3.4726 -0.0955
   99SAPC  C312 9895   6.271   4.214   3.970 -0.1621  0.5659 -0.2257
   99SAPC  H12X 9896   6.294   4.323   3.967  0.9974  0.3102 -2.4007
   99SAPC  H12Y 9897   6.362   4.162   4.006  0.0554  1.1108  0.0214
   99SAPC  C313 9898   6.160   4.203   4.079  0.2622 -0.5325 -0.2592
   99SAPC  H13X 9899   6.146   4.094   4.095  1.5559 -0.5180  1.2595
   99SAPC  H13Y 9900   6.069   4.252   4.039  1.0364  2.6428  1.6135
   99SAPC  C314 9901   6.195   4.276   4.206 -0.6993 -0.2829  0.1186
   99SAPC  H14X 9902   6.247   4.372   4.184 -0.5218  0.0168  1.7127
   99SAPC  H14Y 9903   6.259   4.211   4.270 -0.0436  1.7432  1.6360
   99SAPC  C315 9904   6.077   4.322   4.290  0.0050  0.3157  0.2915
   99SAPC  H15X 9905   6.030   4.226   4.320  0.9446 -0.8494 -1.7245
   99SAPC  H15Y 9906   6.005   4.374   4.223  1.2842 -0.1965 -1.5643
   99SAPC  C316 9907   6.111   4.407   4.412 -0.4265 -0.3774 -0.9716
   99SAPC  H16X 9908   6.216   4.376   4.430 -0.5778 -0.5495 -0.3789
   99SAPC  H16Y 9909   6.053   4.378   4.502  0.9059 -1.2517 -0.3569
   99SAPC  C317 9910   6.094   4.561   4.391  0.0616  0.4936 -0.1973
   99SAPC  H17X 9911   6.003   4.587   4.333 -0.6228  0.5638  0.8810
   99SAPC  H17Y 9912   6.175   4.602   4.326 -0.8373  0.6174 -1.2678
   99SAPC  C318 9913   6.099   4.631   4.528 -0.8197 -0.2173  0.0576
   99SAPC  H18X 9914   6.111   4.742   4.528  0.8000 -0.2708  2.9425
   99SAPC  H18Y 9915   6.195   4.589   4.567  0.8022  0.3252 -3.0598
   99SAPC  H18Z 9916   6.017   4.605   4.598 -0.2742  0.5651  1.0258
  100SAPC     N 9917   3.541   6.295   2.057 -0.6830 -0.3322  0.4448
  100SAPC   C12 9918   3.495   6.204   2.165 -0.4721  1.1574 -0.5902
  100SAPC  H12A 9919   3.456   6.112   2.125  0.3344 -0.2529  1.7398
  100SAPC  H12B 9920   3.418   6.260   2.215 -2.0374  0.6462 -2.3011
  100SAPC   C13 9921   3.432   6.334   1.973  1.0922  0.3040  0.4356
  100SAPC  H13A 9922   3.349   6.380   2.025  1.1629  0.3528  0.5056
  100SAPC  H13B 9923   3.467   6.408   1.902  1.5486 -0.2516  0.0681
  100SAPC  H13C 9924   3.398   6.252   1.911 -0.0142  1.2043 -0.2019
  100SAPC   C14 9925   3.604   6.412   2.129  0.1182  0.0372 -0.2277
  100SAPC  H14A 9926   3.624   6.491   2.058 -1.4752  1.3178  0.6698
  100SAPC  H14B 9927   3.543   6.450   2.210  2.6197  1.3191  1.1678
  100SAPC  H14C 9928   3.687   6.393   2.194 -1.2588 -0.0968  1.5621
  100SAPC   C15 9929   3.645   6.230   1.972  0.2611 -0.4660 -0.7281
  100SAPC  H15A 9930   3.612   6.128   1.958 -0.4049 -0.2580 -0.7420
  100SAPC  H15B 9931   3.648   6.285   1.878  0.1166  1.5823  0.4135
  100SAPC  H15C 9932   3.737   6.234   2.028  0.5810  0.9822 -1.3096
  100SAPC   C11 9933   3.590   6.164   2.282  0.0812  0.0253  0.3297
  100SAPC  H11A 9934   3.541   6.124   2.372  0.5575  3.3435  2.2279
  100SAPC  H11B 9935   3.637   6.254   2.327  1.3025 -0.1496 -0.5266
  100SAPC     P 9936   3.696   5.925   2.269  0.2304 -0.0405 -0.2467
  100SAPC   O13 9937   3.563   5.870   2.254 -0.1046  0.0318 -0.0046
  100SAPC   O14 9938   3.802   5.861   2.193 -0.1825  0.1029  0.7870
  100SAPC   O12 9939   3.690   6.078   2.225  0.4621 -0.2499 -0.0305
  100SAPC   O11 9940   3.738   5.931   2.423  0.0268 -0.1936  0.8814
  100SAPC    C1 9941   3.844   6.011   2.481  0.2300 -0.0712  0.4752
  100SAPC    HA 9942   3.830   6.109   2.430 -4.5150 -1.2488 -0.9392
  100SAPC    HB 9943   3.822   6.015   2.590 -2.9430 -1.2962 -0.0225
  100SAPC    C2 9944   3.980   5.950   2.459 -0.1269 -0.1691 -0.7771
  100SAPC    HS 9945   3.986   5.910   2.356  2.3520 -1.8043 -0.0619
  100SAPC   O21 9946   4.009   5.851   2.559  0.0620 -0.0910 -0.2646
  100SAPC   C21 9947   4.102   5.762   2.538 -0.3639 -0.4229  0.2975
  100SAPC   O22 9948   4.160   5.743   2.428 -0.2267 -0.3267 -0.0220
  100SAPC   C22 9949   4.130   5.684   2.669 -0.5230 -0.1629 -0.3524
  100SAPC   H2R 9950   4.066   5.594   2.661 -2.8152  1.3633 -0.2617
  100SAPC   H2S 9951   4.234   5.648   2.657 -1.0358 -1.1884 -2.0308
  100SAPC    C3 9952   4.098   6.059   2.469  0.0468  0.4326  0.4977
  100SAPC    HX 9953   4.071   6.122   2.382 -2.8281 -0.9593  0.2444
  100SAPC    HY 9954   4.198   6.012   2.458  0.6608  2.0279 -1.2671
  100SAPC   O31 9955   4.096   6.128   2.595  0.0598  0.4896  0.1176
  100SAPC   C31 9956   4.069   6.255   2.608  0.0910 -0.3649  0.0837
  100SAPC   O32 9957   4.045   6.327   2.512  0.3812 -0.3776  0.1858
  100SAPC   C32 9958   4.067   6.299   2.750 -0.2342  0.8559  0.2074
  100SAPC   H2X 9959   4.170   6.282   2.786 -0.2762 -0.0714 -0.0825
  100SAPC   H2Y 9960   3.997   6.240   2.813  1.7165 -0.9369  0.7852
  100SAPC   C23 9961   4.106   5.770   2.800  0.0779  0.1809  0.3175
  100SAPC   H3R 9962   4.068   5.692   2.870  1.3774 -1.3414 -0.6072
  100SAPC   H3S 9963   4.028   5.846   2.778  1.0281  0.7280 -1.4173
  100SAPC   C24 9964   4.246   5.820   2.852 -0.2251 -0.2876 -0.5682
  100SAPC   H4R 9965   4.308   5.728   2.865 -2.4362 -1.7547  0.1832
  100SAPC   H4S 9966   4.219   5.866   2.949  3.1725  0.9743 -0.0942
  100SAPC   C25 9967   4.299   5.934   2.767  0.5018  0.3600 -0.7037
  100SAPC   H5R 9968   4.236   6.024   2.762 -0.0389  0.0544  0.3108
  100SAPC   C26 9969   4.407   5.936   2.688  0.3825 -0.3034  0.7835
  100SAPC   H6R 9970   4.435   6.038   2.657 -0.7880 -0.3672 -0.6011
  100SAPC   C27 9971   4.515   5.836   2.674  0.3291  0.2147  0.7606
  100SAPC   H7R 9972   4.503   5.752   2.746  0.5125 -0.6497 -0.1943
  100SAPC   H7S 9973   4.606   5.890   2.706 -1.4263  3.2976  0.9425
  100SAPC   C28 9974   4.520   5.782   2.535 -0.3831  0.8611  0.5712
  100SAPC   H8R 9975   4.424   5.748   2.492 -0.6937 -1.8842  3.0961
  100SAPC   C29 9976   4.630   5.753   2.467  0.3993 -0.4161  0.0271
  100SAPC   H9R 9977   4.633   5.713   2.365  2.3636 -1.0216  0.2799
  100SAPC  C210 9978   4.764   5.782   2.523  0.2288 -0.6203 -0.1253
  100SAPC  H10R 9979   4.793   5.708   2.601  1.6470  1.7626  1.7900
  100SAPC  H10S 9980   4.763   5.873   2.586  0.1816 -0.9811  0.4033
  100SAPC  C211 9981   4.874   5.801   2.421  0.0229 -0.3625 -0.3524
  100SAPC  H11R 9982   4.850   5.766   2.320  0.8892 -0.5346 -0.5047
  100SAPC  C212 9983   4.999   5.852   2.435  0.3858 -0.9963  0.3292
  100SAPC  H12R 9984   5.068   5.840   2.350  0.7389 -2.3962  0.7957
  100SAPC  C213 9985   5.063   5.910   2.552  0.1488 -0.2396 -0.4249
  100SAPC  H13R 9986   5.010   6.006   2.571  3.4133  1.3520  1.5917
  100SAPC  H13S 9987   5.166   5.944   2.527  1.6833 -2.6511  2.0266
  100SAPC  C214 9988   5.060   5.836   2.691 -1.0233 -0.2125  0.1538
  100SAPC  H14R 9989   5.093   5.731   2.685 -1.3732 -0.3798  1.0209
  100SAPC  C215 9990   5.040   5.896   2.812 -0.3540 -0.5699  0.1999
  100SAPC  H15R 9991   5.060   5.834   2.901 -1.3108 -1.5213 -0.2253
  100SAPC  C216 9992   5.002   6.043   2.837 -0.0340 -0.7416 -0.0605
  100SAPC  H16R 9993   4.933   6.074   2.756  0.4631  0.2859 -0.0990
  100SAPC  H16S 9994   5.088   6.111   2.825 -1.6937  1.0430 -2.7750
  100SAPC  C217 9995   4.961   6.075   2.981 -0.0238  0.0590  0.4600
  100SAPC  H17R 9996   4.882   6.003   3.010  1.0481 -1.5137 -0.3922
  100SAPC  H17S 9997   4.918   6.177   2.994  1.1756  0.4117  1.9852
  100SAPC  C218 9998   5.076   6.046   3.077  0.1600 -0.5672  0.3625
  100SAPC  H18R 9999   5.131   6.142   3.086 -1.4087  0.2275  2.2502
  100SAPC  H18S10000   5.146   5.969   3.040  0.5820 -0.8984  1.7742
  100SAPC  C21910001   5.047   6.008   3.224  0.2970  0.0540 -0.5724
  100SAPC  H19R10002   4.979   5.920   3.229  0.8631 -0.3141  3.0418
  100SAPC  H19S10003   5.002   6.095   3.276 -0.2309 -0.7168  0.3015
  100SAPC  C22010004   5.168   5.967   3.307  0.0086 -0.2281 -0.0990
  100SAPC  H20R10005   5.150   5.976   3.416  2.0431  0.4812  0.2266
  100SAPC  H20S10006   5.248   6.033   3.265  0.1620 -1.8284 -2.5817
  100SAPC  H20T10007   5.203   5.864   3.282  0.9507 -0.1817  0.9418
  100SAPC   C3310008   4.031   6.450   2.766  0.4271 -0.1949  0.5889
  100SAPC   H3X10009   3.930   6.473   2.725 -0.0288 -1.7037  0.8384
  100SAPC   H3Y10010   4.105   6.501   2.701 -1.4155 -0.4667 -1.9066
  100SAPC   C3410011   4.031   6.506   2.908  0.1940 -0.0197  0.2783
  100SAPC   H4X10012   3.954   6.452   2.967 -0.2376 -0.0893 -0.3438
  100SAPC   H4Y10013   4.007   6.614   2.902  0.9503  0.0847 -3.2192
  100SAPC   C3510014   4.169   6.481   2.977  0.3669  0.0422 -0.0507
  100SAPC   H5X10015   4.231   6.541   2.908  0.4062 -0.5727 -0.5598
  100SAPC   H5Y10016   4.198   6.374   2.973  1.9659  0.3437  1.7077
  100SAPC   C3610017   4.191   6.549   3.115  0.4129  0.7316 -0.2504
  100SAPC   H6X10018   4.206   6.657   3.096  2.9202  0.5089  0.2105
  100SAPC   H6Y10019   4.286   6.510   3.157 -0.3086 -2.3485 -1.1519
  100SAPC   C3710020   4.074   6.522   3.216 -0.6872 -0.3247 -0.1329
  100SAPC   H7X10021   4.074   6.411   3.219  1.0943 -0.4007 -1.4093
  100SAPC   H7Y10022   3.974   6.544   3.171 -0.5242 -0.2934 -0.4879
  100SAPC   C3810023   4.094   6.595   3.344  0.2283 -0.0853 -0.1692
  100SAPC   H8X10024   3.994   6.589   3.393 -0.5578  1.1975 -1.5334
  100SAPC   H8Y10025   4.105   6.704   3.325 -1.8238  0.0931 -0.5750
  100SAPC   C3910026   4.194   6.520   3.439  0.5552 -0.6105  0.1396
  100SAPC   H9X10027   4.296   6.515   3.395  0.4565 -1.9594  0.0103
  100SAPC   H9Y10028   4.147   6.419   3.447 -0.4166 -0.3732 -1.8536
  100SAPC  C31010029   4.219   6.591   3.569  0.1515 -0.4806  1.0369
  100SAPC  H10X10030   4.247   6.696   3.546 -1.8558 -0.2915 -0.9822
  100SAPC  H10Y10031   4.313   6.551   3.612  1.1565  0.0882 -0.5730
  100SAPC  C31110032   4.115   6.584   3.673 -0.4639  0.2186  0.3898
  100SAPC  H11X10033   4.016   6.618   3.636  0.1275  0.1540 -1.3212
  100SAPC  H11Y10034   4.144   6.654   3.755 -1.9642  1.8510 -0.3962
  100SAPC  C31210035   4.095   6.452   3.744 -0.5350 -1.0053 -0.2076
  100SAPC  H12X10036   4.188   6.410   3.786 -1.0952 -0.0815  2.1133
  100SAPC  H12Y10037   4.047   6.385   3.670 -0.6383 -0.6117 -0.5030
  100SAPC  C31310038   3.999   6.457   3.868 -0.6787  0.3528  0.8079
  100SAPC  H13X10039   3.899   6.482   3.827 -0.0664  2.3213  0.3989
  100SAPC  H13Y10040   4.020   6.548   3.927 -0.4325  0.2368  0.8998
  100SAPC  C31410041   3.989   6.324   3.944 -0.5206 -0.2878 -0.8339
  100SAPC  H14X10042   3.948   6.251   3.871 -0.0075  0.1452 -1.5802
  100SAPC  H14Y10043   3.920   6.336   4.030  0.7785  1.2231  0.0383
  100SAPC  C31510044   4.124   6.270   4.004 -0.3230 -0.3716 -0.1849
  100SAPC  H15X10045   4.188   6.346   4.054  2.2585 -1.5070 -1.5639
  100SAPC  H15Y10046   4.194   6.233   3.926  0.9217  0.2572  0.5825
  100SAPC  C31610047   4.099   6.153   4.096  0.3418 -0.7159 -0.2174
  100SAPC  H16X10048   4.042   6.069   4.051  0.0545 -0.0170 -1.2027
  100SAPC  H16Y10049   4.033   6.196   4.174 -0.1344  0.1275 -1.0634
  100SAPC  C31710050   4.219   6.098   4.168  0.0450 -0.6978 -0.3288
  100SAPC  H17X10051   4.182   6.033   4.250  1.8544  0.2002  1.2757
  100SAPC  H17Y10052   4.267   6.179   4.227  0.9492 -0.6539 -1.0954
  100SAPC  C31810053   4.332   6.030   4.089 -0.1557  0.0396 -0.3555
  100SAPC  H18X10054   4.402   6.097   4.034  1.7055 -0.1222  1.6553
  100SAPC  H18Y10055   4.288   5.960   4.016  3.2834 -0.2278 -2.3920
  100SAPC  H18Z10056   4.394   5.958   4.147 -0.6207 -0.7662 -0.8444
  101OSM      N10057   2.248   2.096   6.810 -0.1750 -0.5067  0.3488
  101OSM    C1510058   2.387   2.073   6.855  0.2039  0.3491  0.6954
  101OSM   H15A10059   2.449   2.122   6.782  1.3440 -1.2248  0.5630
  101OSM   H15B10060   2.403   1.966   6.859  2.2336  0.6212  1.1969
  101OSM   H15C10061   2.399   2.114   6.955  0.0374  1.7314  0.1738
  101OSM    C1410062   2.159   2.039   6.911 -0.7163 -0.0430 -0.3996
  101OSM   H14A10063   2.141   1.933   6.906  0.8030 -0.4648  1.7941
  101OSM   H14B10064   2.062   2.085   6.907  0.3878  2.6279  1.0876
  101OSM   H14C10065   2.186   2.072   7.010 -0.8578  1.1374 -0.7342
  101OSM    C1310066   2.219   2.244   6.812  0.7861  0.0430 -0.0466
  101OSM   H13A10067   2.283   2.302   6.747 -0.1762  2.8563  1.3702
  101OSM   H13B10068   2.229   2.289   6.910  0.5881  0.0836 -0.0435
  101OSM   H13C10069   2.120   2.252   6.770  0.1051 -2.6741  0.8220
  101OSM    C1210070   2.229   2.041   6.667  0.0997 -1.2204 -0.4816
  101OSM   H12A10071   2.288   2.100   6.598 -0.0143 -1.2336 -0.5905
  101OSM   H12B10072   2.126   2.057   6.642  0.8398  1.6873 -2.1729
  101OSM    C1110073   2.266   1.897   6.633  0.3814 -0.6218 -0.5085
  101OSM   H11A10074   2.221   1.855   6.540 -1.1992 -2.8002  1.1330
  101OSM   H11B10075   2.235   1.835   6.720  2.0375 -0.0623  0.5197
  101OSM      P10076   2.473   1.964   6.482 -0.4669  0.2222  0.4347
  101OSM    O1310077   2.540   2.094   6.521  0.5583  0.5038  0.4229
  101OSM    O1410078   2.572   1.875   6.419 -0.4667 -0.3672 -0.2230
  101OSM    O1110079   2.358   1.979   6.377  0.8119 -0.4327  0.9824
  101OSM    O1210080   2.410   1.898   6.621 -0.6136 -0.1747  0.1236
  101OSM    C1S10081   2.362   2.078   6.271  0.1795 -0.4278 -0.1831
  101OSM    H1S10082   2.467   2.074   6.237  0.2475 -2.7332  0.1391
  101OSM    H1T10083   2.332   2.175   6.315 -3.4150 -0.9951 -1.0282
  101OSM     NF10084   2.276   2.154   6.056 -0.1485 -0.4344  0.2370
  101OSM    HNF10085   2.229   2.241   6.064 -1.4329 -1.1557  0.7837
  101OSM    C2S10086   2.254   2.055   6.163  0.3546  0.3821 -0.5406
  101OSM    H2S10087   2.267   1.954   6.119 -3.2433 -0.1536 -0.6629
  101OSM    C3S10088   2.108   2.054   6.226  0.1730  0.2761  0.1964
  101OSM    H3S10089   2.100   2.161   6.253  3.0775  0.5967  0.0279
  101OSM     O310090   2.084   1.984   6.346  0.0120  0.5604  0.0544
  101OSM    HO310091   2.172   1.947   6.357 -0.9628 -1.4423  1.8818
  101OSM    C4S10092   2.003   2.037   6.124  0.7353  0.5612  0.5563
  101OSM    H4S10093   1.966   2.132   6.080 -2.6259 -0.3384  1.1120
  101OSM    C5S10094   1.943   1.927   6.073  0.3239  0.0376 -0.1591
  101OSM    H5S10095   1.972   1.829   6.113  1.2004  0.3477 -0.0286
  101OSM    C6S10096   1.844   1.930   5.963 -0.0486  0.3708 -0.0968
  101OSM    H6S10097   1.747   1.963   6.005 -0.8069 -0.1755 -1.3354
  101OSM    H6T10098   1.841   1.825   5.924  1.4313  0.3748 -0.2722
  101OSM    C7S10099   1.872   2.010   5.839  0.9095  0.4193 -0.1907
  101OSM    H7S10100   1.877   2.120   5.854 -0.8961  0.5236 -0.0806
  101OSM    H7T10101   1.792   1.997   5.763 -0.6366 -1.4250  1.6380
  101OSM    C8S10102   2.008   1.962   5.766 -0.2424 -0.1920  0.0527
  101OSM    H8S10103   2.010   1.851   5.765  3.9645 -0.3977  3.1894
  101OSM    H8T10104   2.088   2.010   5.827  0.0020  0.1558 -0.5344
  101OSM    C9S10105   2.017   2.008   5.620 -0.3206 -0.1670  0.0344
  101OSM    H9S10106   2.118   1.976   5.590 -0.2214  1.1067 -1.0721
  101OSM    H9T10107   2.028   2.118   5.610  0.3475 -0.2955 -0.6990
  101OSM   C10S10108   1.920   1.944   5.525 -0.3314  0.3287  0.1709
  101OSM   H10S10109   1.816   1.983   5.532 -0.2348  0.4509  1.0693
  101OSM   H10T10110   1.915   1.835   5.547 -0.7327  0.5140  1.0751
  101OSM   C11S10111   1.981   1.969   5.385 -0.0666  0.7919 -0.2426
  101OSM   H11S10112   2.078   1.917   5.396 -1.1465 -1.2731  0.0191
  101OSM   H11T10113   2.001   2.077   5.368  0.1237  0.7132 -0.5379
  101OSM   C12S10114   1.889   1.917   5.274 -0.8714  0.7145 -0.9009
  101OSM   H12S10115   1.808   1.992   5.276 -0.7163  0.8589  0.4523
  101OSM   H12T10116   1.863   1.813   5.304 -1.6658  0.8810 -1.0055
  101OSM   C13S10117   1.953   1.904   5.133 -0.1052  0.1227  0.5651
  101OSM   H13S10118   2.029   1.824   5.142  0.1375  0.1857 -0.7317
  101OSM   H13T10119   2.008   1.999   5.115  0.9376 -0.4557  0.6080
  101OSM   C14S10120   1.857   1.879   5.019 -0.6249 -0.1959  0.0848
  101OSM   H14S10121   1.777   1.954   5.002  0.0365  0.3559 -0.6771
  101OSM   H14T10122   1.802   1.786   5.040 -3.9819  0.7592 -3.3024
  101OSM   C15S10123   1.924   1.842   4.885  0.3094 -0.7537  0.2105
  101OSM   H15S10124   1.864   1.761   4.836  1.0483 -0.0819 -1.9445
  101OSM   H15T10125   2.025   1.798   4.894 -0.0432 -1.8989 -1.0569
  101OSM   C16S10126   1.932   1.956   4.785 -0.0502 -0.1578 -1.0294
  101OSM   H16S10127   1.981   2.044   4.831 -1.2824  0.4422 -0.8096
  101OSM   H16T10128   1.825   1.975   4.760 -0.3617 -1.1335 -0.4971
  101OSM   C17S10129   2.013   1.912   4.667 -0.2692 -0.2976 -0.0745
  101OSM   H17S10130   1.957   1.839   4.606 -0.2409  0.0993 -0.5813
  101OSM   H17T10131   2.101   1.850   4.694 -1.3615 -1.3689  1.1466
  101OSM   C18S10132   2.060   2.036   4.579 -0.2671  0.4947 -0.1747
  101OSM   H18S10133   1.974   2.102   4.554 -0.1409  0.1962 -1.4773
  101OSM   H18T10134   2.098   1.996   4.482 -0.1876 -0.5210  0.2615
  101OSM   H18U10135   2.141   2.089   4.633 -0.2884 -1.1250  1.5674
  101OSM    C1F10136   2.389   2.154   5.983  0.3677  0.3007  0.0302
  101OSM     OF10137   2.472   2.068   5.992  0.1262  0.0231 -0.0030
  101OSM    C2F10138   2.412   2.262   5.883  0.6103  0.0232  0.3123
  101OSM    H2F10139   2.521   2.276   5.866  1.3533 -2.3139  2.4836
  101OSM    H2G10140   2.361   2.356   5.914  3.2032  1.2856  1.0239
  101OSM    C3F10141   2.346   2.236   5.748 -0.6214  0.1926 -0.0251
  101OSM    H3F10142   2.236   2.231   5.763 -0.4684  0.6191  1.3551
  101OSM    H3G10143   2.391   2.149   5.697  0.7130  2.1757 -2.4215
  101OSM    C4F10144   2.365   2.350   5.652  0.2764 -0.6597 -0.2132
  101OSM    H4F10145   2.473   2.374   5.643  0.1716  0.0202  0.2316
  101OSM    H4G10146   2.316   2.442   5.690  0.0654 -1.5318  1.7361
  101OSM    C5F10147   2.298   2.319   5.518 -0.0413  0.3730 -0.2430
  101OSM    H5F10148   2.282   2.417   5.467 -2.1584  0.3574  0.3040
  101OSM    H5G10149   2.197   2.275   5.535  0.5112 -0.7327  0.2571
  101OSM    C6F10150   2.389   2.226   5.433 -0.1911  0.5604  0.2176
  101OSM    H6F10151   2.470   2.176   5.490  1.3289  0.9517 -1.5045
  101OSM    H6G10152   2.450   2.291   5.366 -0.0520  0.7741  0.5490
  101OSM    C7F10153   2.307   2.136   5.347  0.4899 -0.2598  0.3581
  101OSM    H7F10154   2.253   2.214   5.289 -1.8528 -1.9913  0.0785
  101OSM    H7G10155   2.230   2.084   5.407 -0.5336 -1.4688 -1.9120
  101OSM    C8F10156   2.400   2.050   5.258  0.3084 -0.1858  0.4281
  101OSM    H8F10157   2.469   1.991   5.323  0.8647  0.4390  0.4122
  101OSM    H8G10158   2.474   2.122   5.216  0.5772 -2.2803 -3.0852
  101OSM    C9F10159   2.335   1.967   5.146 -0.6723 -0.0957 -0.1838
  101OSM    H9F10160   2.300   1.868   5.177 -0.3486 -0.4104 -0.8154
  101OSM   C10F10161   2.300   2.009   5.022 -0.3860 -0.4964 -0.1443
  101OSM   H10F10162   2.258   1.937   4.949  0.1752 -3.0771  1.9210
  101OSM   C11F10163   2.351   2.137   4.956 -0.1272 -0.2340 -0.2548
  101OSM   H11F10164   2.380   2.102   4.855  1.4831 -3.0352  1.0547
  101OSM   H11G10165   2.443   2.175   5.005  1.5384 -1.6835 -2.0947
  101OSM   C12F10166   2.241   2.248   4.967  0.3026 -0.1830  0.6595
  101OSM   H12F10167   2.215   2.277   5.071 -0.5837 -1.3829  0.8026
  101OSM   H12G10168   2.144   2.210   4.928 -1.0601  2.0204  1.7489
  101OSM   C13F10169   2.272   2.385   4.904 -0.4940  0.0495  0.1811
  101OSM   H13F10170   2.359   2.420   4.964 -0.1833  2.2635 -1.4532
  101OSM   H13G10171   2.182   2.447   4.920  0.5112  1.4154  0.7622
  101OSM   C14F10172   2.304   2.404   4.754  0.5649 -0.1424 -0.2152
  101OSM   H14F10173   2.219   2.360   4.697  0.3716 -1.9575  1.3653
  101OSM   H14G10174   2.388   2.336   4.729 -0.1022 -1.8956  1.9788
  101OSM   C15F10175   2.332   2.549   4.711 -0.1389  0.3363  0.4305
  101OSM   H15F10176   2.256   2.622   4.746  0.5643  0.8288  0.9921
  101OSM   H15G10177   2.326   2.544   4.601 -2.9613 -0.4519  0.5538
  101OSM   C16F10178   2.479   2.591   4.741 -0.1498 -0.3515  0.4563
  101OSM   H16F10179   2.546   2.512   4.700 -0.0466 -0.5582  1.0095
  101OSM   H16G10180   2.501   2.593   4.850  0.0525 -1.1297  0.4313
  101OSM   C17F10181   2.523   2.721   4.662 -0.9547 -0.2817 -0.1541
  101OSM   H17F10182   2.489   2.702   4.558 -1.3888 -1.9619  0.2638
  101OSM   H17G10183   2.633   2.736   4.668 -0.9736  0.1206 -0.6616
  101OSM   C18F10184   2.434   2.844   4.696  0.5123 -0.2570  0.6833
  101OSM   H18F10185   2.463   2.930   4.631  0.0582  0.0940  0.9461
  101OSM   H18G10186   2.438   2.875   4.802 -0.2926  1.4119  0.2587
  101OSM   H18H10187   2.328   2.820   4.676  0.6299 -1.4387  1.3628
  102OSM      N10188   2.822   2.201   6.270  0.2185  0.2311 -0.4051
  102OSM    C1510189   2.809   2.053   6.308 -0.3667 -0.5030  0.2221
  102OSM   H15A10190   2.892   2.030   6.373 -0.3674 -0.6420  0.1736
  102OSM   H15B10191   2.809   1.984   6.226  0.7759  0.9173 -1.0228
  102OSM   H15C10192   2.720   2.038   6.368  0.1372  0.6561  1.3036
  102OSM    C1410193   2.808   2.286   6.396  0.3103  0.4181  0.0485
  102OSM   H14A10194   2.713   2.270   6.445  0.8679 -2.8151  0.2856
  102OSM   H14B10195   2.820   2.389   6.367 -1.4523  0.6166 -0.0405
  102OSM   H14C10196   2.893   2.263   6.459 -0.0650 -0.8168  0.1229
  102OSM    C1310197   2.957   2.205   6.215  0.1892 -0.0333  0.3075
  102OSM   H13A10198   2.974   2.126   6.144 -0.6072 -1.7359  1.9316
  102OSM   H13B10199   3.029   2.203   6.295  3.7281  3.5592 -2.3710
  102OSM   H13C10200   2.979   2.299   6.167  1.3644  0.4277  1.6733
  102OSM    C1210201   2.712   2.240   6.172  0.3476  0.3470 -0.3810
  102OSM   H12A10202   2.622   2.228   6.230  1.8006 -1.1201  1.7199
  102OSM   H12B10203   2.721   2.171   6.090 -1.3587  1.0909 -1.2417
  102OSM    C1110204   2.713   2.382   6.103 -0.1861  0.8115 -0.0171
  102OSM   H11A10205   2.633   2.399   6.027 -0.1587  1.6141  0.1321
  102OSM   H11B10206   2.801   2.393   6.036 -0.3085 -0.7940 -0.4847
  102OSM      P10207   2.574   2.545   6.265  0.4471 -0.0120  0.1840
  102OSM    O1310208   2.479   2.430   6.283 -0.1286  0.4988 -0.3761
  102OSM    O1410209   2.604   2.610   6.394  0.0672 -0.4758 -0.4783
  102OSM    O1110210   2.529   2.644   6.153 -0.3249  0.1470 -0.6512
  102OSM    O1210211   2.705   2.487   6.195 -0.4898  0.0219 -0.5499
  102OSM    C1S10212   2.621   2.729   6.083 -0.1786  0.4774  0.5686
  102OSM    H1S10213   2.726   2.715   6.115  0.0920 -1.6836 -0.9926
  102OSM    H1T10214   2.603   2.837   6.097  2.0377  1.0498 -0.5529
  102OSM     NF10215   2.718   2.767   5.872  0.1018 -0.2306  0.4025
  102OSM    HNF10216   2.694   2.853   5.828  1.0548  0.1774  0.6653
  102OSM    C2S10217   2.614   2.697   5.930  0.2533  0.3319  0.4017
  102OSM    H2S10218   2.630   2.587   5.928 -1.3306  0.0896 -0.3999
  102OSM    C3S10219   2.474   2.723   5.874 -0.1275  0.8257 -0.1681
  102OSM    H3S10220   2.454   2.831   5.888 -0.6001  0.5102  1.8346
  102OSM     O310221   2.365   2.658   5.934  0.7263  0.1621 -0.8726
  102OSM    HO310222   2.397   2.653   6.024 -3.0074 -0.2880  0.6361
  102OSM    C4S10223   2.469   2.701   5.720 -0.2236 -0.4119  0.2531
  102OSM    H4S10224   2.507   2.606   5.679 -0.6849 -1.2521  1.7134
  102OSM    C5S10225   2.421   2.796   5.636  0.0607  0.1573  0.4424
  102OSM    H5S10226   2.387   2.892   5.679 -0.0205  0.2998  0.0619
  102OSM    C6S10227   2.428   2.793   5.487  1.1193  0.5064  0.2282
  102OSM    H6S10228   2.530   2.822   5.454  1.6809 -1.3699  0.2300
  102OSM    H6T10229   2.351   2.868   5.458 -1.3148 -2.0162 -0.1510
  102OSM    C7S10230   2.384   2.666   5.417  0.0501  0.3996 -0.4360
  102OSM    H7S10231   2.276   2.649   5.436 -0.0866  0.8777 -0.7627
  102OSM    H7T10232   2.441   2.581   5.457  0.3790  0.4693 -0.7499
  102OSM    C8S10233   2.403   2.667   5.263  0.0693  1.1893  0.1128
  102OSM    H8S10234   2.506   2.630   5.244 -0.0843  1.4664 -1.3848
  102OSM    H8T10235   2.396   2.771   5.225 -1.7753  1.0477 -0.0129
  102OSM    C9S10236   2.298   2.583   5.182 -0.6373  0.0913 -0.2162
  102OSM    H9S10237   2.283   2.477   5.211 -0.6051 -0.1994 -1.2435
  102OSM    H9T10238   2.335   2.575   5.078  1.9747 -0.0254  0.6313
  102OSM   C10S10239   2.156   2.641   5.171 -0.5287 -0.4373 -0.3835
  102OSM   H10S10240   2.125   2.686   5.268  0.3528  3.1922 -1.6016
  102OSM   H10T10241   2.082   2.563   5.143  0.0412 -1.9750  2.0643
  102OSM   C11S10242   2.147   2.752   5.064  0.0026  0.2041 -1.4398
  102OSM   H11S10243   2.194   2.716   4.970  0.2834  0.1561 -1.2817
  102OSM   H11T10244   2.219   2.832   5.092  0.2538 -0.2580 -0.7358
  102OSM   C12S10245   2.006   2.813   5.051 -0.2572  0.0286  0.5154
  102OSM   H12S10246   2.001   2.886   5.134  1.1461 -0.7194  1.3005
  102OSM   H12T10247   1.927   2.735   5.058  1.1772 -1.8211 -1.9151
  102OSM   C13S10248   1.987   2.884   4.915  0.1978  0.2348  0.1091
  102OSM   H13S10249   1.995   2.807   4.835 -0.6900 -1.9185  1.9872
  102OSM   H13T10250   2.063   2.964   4.906  1.0629 -0.6162 -0.3748
  102OSM   C14S10251   1.847   2.945   4.893 -0.2886 -0.1579  0.6952
  102OSM   H14S10252   1.816   3.015   4.974  0.0341  1.7389 -0.7386
  102OSM   H14T10253   1.780   2.859   4.871  1.1106 -1.1990  0.3955
  102OSM   C15S10254   1.852   3.037   4.765  0.3587  0.6803  0.8521
  102OSM   H15S10255   1.843   2.965   4.681  0.7198 -2.9636  3.6758
  102OSM   H15T10256   1.945   3.097   4.754  0.3956  0.0739 -4.3586
  102OSM   C16S10257   1.745   3.147   4.751  0.1871 -0.1187 -0.9257
  102OSM   H16S10258   1.755   3.220   4.833 -1.2335 -0.1585 -0.6859
  102OSM   H16T10259   1.646   3.102   4.773  0.1659  1.0904  1.7426
  102OSM   C17S10260   1.757   3.197   4.610  0.3932 -0.2140 -0.2268
  102OSM   H17S10261   1.773   3.121   4.531  0.9209  1.6146 -1.9557
  102OSM   H17T10262   1.848   3.261   4.608 -0.7994  1.5959  0.1088
  102OSM   C18S10263   1.635   3.280   4.582  0.7266 -0.1404 -0.2769
  102OSM   H18S10264   1.653   3.332   4.486  0.6769  1.1569  0.3976
  102OSM   H18T10265   1.613   3.364   4.651  0.4360  0.4759 -1.1042
  102OSM   H18U10266   1.543   3.218   4.588 -0.9510  2.3084  0.5615
  102OSM    C1F10267   2.848   2.738   5.891 -0.0318 -0.2818 -0.0182
  102OSM     OF10268   2.887   2.628   5.914 -0.5509 -0.2940 -0.0429
  102OSM    C2F10269   2.948   2.846   5.857  0.4252  0.0681 -0.4982
  102OSM    H2F10270   3.037   2.804   5.805  1.1563  0.5952  0.2901
  102OSM    H2G10271   2.975   2.900   5.950  1.2223 -0.0614 -0.6482
  102OSM    C3F10272   2.890   2.953   5.762 -0.4930 -0.4948  0.2468
  102OSM    H3F10273   2.972   3.026   5.750 -0.5140 -0.3401  1.0365
  102OSM    H3G10274   2.802   3.009   5.801 -0.9392 -0.5521 -0.6507
  102OSM    C4F10275   2.854   2.899   5.620  0.2908 -0.4258  0.0801
  102OSM    H4F10276   2.753   2.854   5.629  0.4180 -0.5394  1.0358
  102OSM    H4G10277   2.932   2.823   5.597 -0.8969 -1.0357 -2.2148
  102OSM    C5F10278   2.855   3.006   5.517 -0.1513 -0.9664  0.5574
  102OSM    H5F10279   2.957   3.037   5.485 -1.2540  0.2752 -2.0237
  102OSM    H5G10280   2.798   3.099   5.540  1.0730 -0.4548  1.7162
  102OSM    C6F10281   2.773   2.959   5.390 -0.2879 -0.1279 -0.1354
  102OSM    H6F10282   2.663   2.957   5.405 -0.5800 -0.1083 -2.0554
  102OSM    H6G10283   2.789   2.849   5.377 -1.3150 -0.3307  0.1924
  102OSM    C7F10284   2.807   3.041   5.266 -0.5912 -0.1195  1.0334
  102OSM    H7F10285   2.917   3.046   5.251 -0.5417 -3.3325 -0.3767
  102OSM    H7G10286   2.783   3.149   5.283  1.9572  0.4653  1.2438
  102OSM    C8F10287   2.749   2.980   5.132 -0.0819 -0.0996  0.0532
  102OSM    H8F10288   2.642   2.951   5.128 -0.1420  0.1391 -0.0843
  102OSM    H8G10289   2.799   2.884   5.107  0.0398 -0.2467  0.8272
  102OSM    C9F10290   2.751   3.072   5.021 -0.1926  0.5339  0.1334
  102OSM    H9F10291   2.656   3.125   5.003 -1.2753 -1.9430 -2.1487
  102OSM   C10F10292   2.859   3.089   4.934 -0.6071  0.0424 -0.3137
  102OSM   H10F10293   2.840   3.161   4.853 -2.0184  1.4599  1.1845
  102OSM   C11F10294   3.006   3.047   4.936 -0.5463  0.3324  0.2105
  102OSM   H11F10295   3.017   2.974   5.019 -1.4628 -0.9170 -0.7216
  102OSM   H11G10296   3.066   3.140   4.948 -1.8721  1.1258  0.8957
  102OSM   C12F10297   3.037   2.971   4.806 -0.5989 -0.0113  0.2217
  102OSM   H12F10298   3.146   2.948   4.803 -0.5839  0.1079 -0.5069
  102OSM   H12G10299   3.017   3.035   4.717 -0.7527 -0.2810  0.0641
  102OSM   C13F10300   2.965   2.838   4.802  0.7137 -0.2357  0.3470
  102OSM   H13F10301   2.859   2.854   4.773 -0.2651 -2.4417  2.4186
  102OSM   H13G10302   2.966   2.798   4.905 -0.4196 -0.7828  0.1491
  102OSM   C14F10303   3.024   2.746   4.691  0.1056 -0.2471  0.6927
  102OSM   H14F10304   2.983   2.643   4.703  0.0947 -0.5376 -1.4777
  102OSM   H14G10305   3.134   2.733   4.684  0.5533  2.9167  0.5767
  102OSM   C15F10306   2.981   2.783   4.544 -0.6997  0.5967 -0.1147
  102OSM   H15F10307   3.015   2.886   4.525  0.2216  0.0967 -1.2473
  102OSM   H15G10308   2.870   2.770   4.539 -0.9611  2.8096 -1.3194
  102OSM   C16F10309   3.041   2.679   4.444 -0.1491 -0.2693 -0.0151
  102OSM   H16F10310   3.015   2.575   4.471 -1.1618 -0.2098 -0.7254
  102OSM   H16G10311   3.151   2.697   4.445 -0.4420  1.7897 -0.1986
  102OSM   C17F10312   2.983   2.721   4.307  0.2594  0.8033  0.1033
  102OSM   H17F10313   3.030   2.819   4.289  3.0839 -0.6808 -1.1768
  102OSM   H17G10314   2.872   2.729   4.310 -0.0636 -2.2308 -0.6605
  102OSM   C18F10315   3.032   2.630   4.193  0.0132 -0.2138 -0.4505
  102OSM   H18F10316   3.010   2.527   4.228  1.9846 -0.5922 -0.2299
  102OSM   H18G10317   3.141   2.622   4.178  0.3415  2.4391  0.1136
  102OSM   H18H10318   2.986   2.671   4.101  0.6202  2.1294  0.2226
  103OSM      N10319   0.998   1.416   7.013  0.1186  0.6999 -0.5755
  103OSM    C1510320   1.020   1.459   6.873 -0.1806 -0.0611 -0.2080
  103OSM   H15A10321   1.028   1.565   6.854  1.1645 -0.3985 -1.6927
  103OSM   H15B10322   0.935   1.429   6.813 -1.2773  0.0406  1.2515
  103OSM   H15C10323   1.108   1.409   6.837  0.3003  0.3544  0.3874
  103OSM    C1410324   1.110   1.461   7.100  0.4664  0.4266 -0.0554
  103OSM   H14A10325   1.100   1.438   7.205  1.6069  1.5593  0.3324
  103OSM   H14B10326   1.112   1.569   7.097 -3.3850  0.6144 -0.5022
  103OSM   H14C10327   1.206   1.423   7.068  0.7141  1.2323 -0.2987
  103OSM    C1310328   0.873   1.478   7.062  0.0805  0.1426  0.6543
  103OSM   H13A10329   0.844   1.478   7.166 -1.7669  1.7851  0.2168
  103OSM   H13B10330   0.785   1.432   7.018  0.4465 -1.7021  1.7358
  103OSM   H13C10331   0.868   1.584   7.042 -1.2993  0.1293  0.7714
  103OSM    C1210332   0.985   1.263   7.020 -0.1307 -1.3471  0.0438
  103OSM   H12A10333   0.945   1.239   7.117  2.3469 -0.5133  1.3388
  103OSM   H12B10334   1.084   1.223   7.032 -0.4621 -1.8995  1.0447
  103OSM    C1110335   0.912   1.192   6.906 -0.6072  1.3090 -0.0256
  103OSM   H11A10336   0.909   1.086   6.940  1.0064  1.0246 -0.6586
  103OSM   H11B10337   0.981   1.192   6.818 -1.8578 -3.5694 -1.3396
  103OSM      P10338   0.722   1.254   6.737 -0.3270 -0.6009  0.1442
  103OSM    O1310339   0.698   1.123   6.677  0.2150 -0.6827 -0.0500
  103OSM    O1410340   0.610   1.348   6.753 -0.0116  0.2487  0.4408
  103OSM    O1110341   0.844   1.324   6.659 -0.1535 -0.4173  0.2926
  103OSM    O1210342   0.783   1.233   6.879 -0.3617  0.7593 -0.1032
  103OSM    C1S10343   0.817   1.372   6.523  0.4464 -0.2085  0.0303
  103OSM    H1S10344   0.765   1.470   6.534  0.0249 -0.6150  2.2808
  103OSM    H1T10345   0.739   1.311   6.474 -2.1223  3.5491 -1.0025
  103OSM     NF10346   0.933   1.465   6.324  0.3005 -0.2016  0.2269
  103OSM    HNF10347   0.935   1.420   6.235 -0.8213  0.0059  0.0890
  103OSM    C2S10348   0.952   1.383   6.441 -0.4267 -0.2126 -0.1697
  103OSM    H2S10349   1.021   1.447   6.500 -1.7846  3.4485 -2.2105
  103OSM    C3S10350   1.026   1.243   6.414  0.3459  0.3030  0.7448
  103OSM    H3S10351   0.954   1.189   6.349 -2.0146  2.4305  1.4502
  103OSM     O310352   1.051   1.173   6.530  0.3508 -0.2712 -0.1475
  103OSM    HO310353   0.994   1.214   6.595  0.0058 -0.3397 -0.4056
  103OSM    C4S10354   1.158   1.263   6.347  0.7199  0.1129 -0.2955
  103OSM    H4S10355   1.224   1.347   6.373 -0.3790  0.7707  0.3828
  103OSM    C5S10356   1.193   1.191   6.239 -0.0960  0.1768  0.1367
  103OSM    H5S10357   1.116   1.126   6.195  0.0403 -1.2191  1.8819
  103OSM    C6S10358   1.321   1.223   6.154 -0.1654 -0.1469 -0.5012
  103OSM    H6S10359   1.366   1.322   6.175 -0.1933  0.3835 -2.6756
  103OSM    H6T10360   1.277   1.240   6.053 -1.2222  1.3518  0.1772
  103OSM    C7S10361   1.433   1.117   6.134  0.3250 -0.2923  0.3797
  103OSM    H7S10362   1.453   1.076   6.235 -0.3228  0.9700  1.0503
  103OSM    H7T10363   1.525   1.164   6.091  0.3445 -1.0563 -0.4503
  103OSM    C8S10364   1.396   0.993   6.044 -0.4254 -0.1496  0.3869
  103OSM    H8S10365   1.318   0.933   6.094 -1.0436 -0.2587 -0.6886
  103OSM    H8T10366   1.485   0.927   6.036 -0.6333 -0.5144  1.0146
  103OSM    C9S10367   1.356   1.025   5.901  0.0239  1.4907  0.1079
  103OSM    H9S10368   1.260   1.080   5.894 -0.6075  0.5210  0.9527
  103OSM    H9T10369   1.334   0.925   5.859  0.1561  2.0104 -1.2340
  103OSM   C10S10370   1.449   1.110   5.815  0.5818 -0.1206  0.3169
  103OSM   H10S10371   1.548   1.060   5.820 -0.5332 -2.3599  2.5768
  103OSM   H10T10372   1.452   1.206   5.870 -0.9632 -0.8213  1.7410
  103OSM   C11S10373   1.408   1.137   5.668 -0.4937 -0.7668 -0.1849
  103OSM   H11S10374   1.299   1.158   5.670 -0.8958 -2.6352  2.5392
  103OSM   H11T10375   1.414   1.045   5.607 -1.9756 -0.8586 -0.2245
  103OSM   C12S10376   1.483   1.251   5.597  0.2742  0.5142 -0.1964
  103OSM   H12S10377   1.580   1.205   5.568  0.3342 -0.8129  1.8769
  103OSM   H12T10378   1.500   1.349   5.647  1.7319  0.5117 -0.6483
  103OSM   C13S10379   1.430   1.288   5.462  0.3674 -0.8323 -0.6586
  103OSM   H13S10380   1.431   1.198   5.396 -2.3004 -1.9067  0.6030
  103OSM   H13T10381   1.493   1.361   5.408  0.4626 -0.3112  0.1467
  103OSM   C14S10382   1.284   1.334   5.468  0.0897 -0.3418  0.7703
  103OSM   H14S10383   1.266   1.405   5.552  0.0486  0.5997 -0.0305
  103OSM   H14T10384   1.212   1.250   5.479 -0.7254  0.2650  0.1809
  103OSM   C15S10385   1.249   1.391   5.326  0.0519 -0.2339 -0.0893
  103OSM   H15S10386   1.140   1.390   5.308  0.2575  0.6087 -1.5452
  103OSM   H15T10387   1.293   1.321   5.252  1.5975  0.8983 -0.3073
  103OSM   C16S10388   1.302   1.535   5.309  0.5752 -0.2053 -0.1252
  103OSM   H16S10389   1.411   1.550   5.329  0.3336  1.4760  0.1138
  103OSM   H16T10390   1.249   1.597   5.384  1.2410  0.6004 -0.3062
  103OSM   C17S10391   1.266   1.590   5.168  0.0951  0.5954 -0.6537
  103OSM   H17S10392   1.160   1.621   5.182 -0.0049  0.3506 -0.8634
  103OSM   H17T10393   1.268   1.512   5.090  1.0274 -0.1718  0.1096
  103OSM   C18S10394   1.357   1.706   5.134 -0.5572  0.6718 -0.2008
  103OSM   H18S10395   1.363   1.719   5.024  0.6252 -2.1551 -0.5641
  103OSM   H18T10396   1.463   1.683   5.160 -1.8998 -5.1623  1.6048
  103OSM   H18U10397   1.312   1.790   5.191 -1.0690  0.4291 -0.2393
  103OSM    C1F10398   0.930   1.601   6.318 -0.7128 -0.0487  0.2741
  103OSM     OF10399   0.937   1.674   6.417 -0.7062 -0.1850  0.0656
  103OSM    C2F10400   0.905   1.661   6.181 -1.1259 -0.6159 -0.0263
  103OSM    H2F10401   0.800   1.631   6.165 -1.6979  0.2756  1.7707
  103OSM    H2G10402   0.970   1.618   6.102 -1.4816  2.0326 -1.8867
  103OSM    C3F10403   0.929   1.811   6.179 -0.1609 -0.3987  0.8918
  103OSM    H3F10404   1.033   1.847   6.196 -0.1314 -0.0353  0.0203
  103OSM    H3G10405   0.867   1.853   6.261 -0.4070 -0.2806  0.6507
  103OSM    C4F10406   0.889   1.893   6.051  0.0662 -0.3530 -0.3817
  103OSM    H4F10407   0.781   1.880   6.031  0.2247  1.4480 -2.9071
  103OSM    H4G10408   0.945   1.855   5.963 -2.0089  0.4182 -2.1185
  103OSM    C5F10409   0.887   2.046   6.066 -0.1699  0.4672 -1.3571
  103OSM    H5F10410   0.991   2.083   6.081 -0.2881  0.1981  0.3114
  103OSM    H5G10411   0.850   2.075   6.167  0.5916 -3.6870  0.3222
  103OSM    C6F10412   0.827   2.128   5.956  0.0753  0.0669  1.0415
  103OSM    H6F10413   0.842   2.236   5.978 -1.0455  0.4287  0.1057
  103OSM    H6G10414   0.717   2.116   5.944  0.3609 -1.2031 -0.6534
  103OSM    C7F10415   0.901   2.113   5.821 -0.8519 -0.1311  1.0086
  103OSM    H7F10416   0.900   2.004   5.802  1.3941  0.0938 -0.8265
  103OSM    H7G10417   1.007   2.146   5.824 -0.6922 -0.6543  1.2085
  103OSM    C8F10418   0.829   2.186   5.703 -0.1026  0.2858 -0.0957
  103OSM    H8F10419   0.894   2.169   5.614 -0.5968 -1.8732 -0.0976
  103OSM    H8G10420   0.831   2.295   5.727 -0.2726  0.7157 -1.8918
  103OSM    C9F10421   0.689   2.142   5.670 -0.5422  0.6938 -0.2185
  103OSM    H9F10422   0.679   2.034   5.654 -1.0545  0.6951  0.0788
  103OSM   C10F10423   0.580   2.207   5.662  0.3135  0.1546 -0.3781
  103OSM   H10F10424   0.490   2.146   5.644  0.9396 -1.0480  0.4103
  103OSM   C11F10425   0.554   2.349   5.701  0.2893  0.1054 -0.6027
  103OSM   H11F10426   0.648   2.405   5.720  1.2898 -1.4290 -0.8175
  103OSM   H11G10427   0.493   2.347   5.794  0.7832 -2.1716 -0.2557
  103OSM   C12F10428   0.475   2.410   5.589 -0.1866 -0.2577 -0.3923
  103OSM   H12F10429   0.438   2.507   5.629  0.9523  0.5559 -1.2315
  103OSM   H12G10430   0.386   2.348   5.567  0.0887 -0.0635 -2.2126
  103OSM   C13F10431   0.557   2.440   5.468 -0.0053  0.1507  0.8319
  103OSM   H13F10432   0.609   2.349   5.430  1.9168  1.3601  0.4104
  103OSM   H13G10433   0.648   2.486   5.512  2.3063 -1.1427 -2.2215
  103OSM   C14F10434   0.485   2.524   5.358 -0.2974 -0.3918  0.0276
  103OSM   H14F10435   0.443   2.615   5.405  0.8397 -0.3766  1.0806
  103OSM   H14G10436   0.407   2.459   5.314 -0.2113 -1.2095  1.0330
  103OSM   C15F10437   0.587   2.573   5.255 -0.3166 -0.1594 -0.2837
  103OSM   H15F10438   0.624   2.476   5.216 -1.6061  0.1333 -2.4165
  103OSM   H15G10439   0.672   2.628   5.300 -0.9087  2.0344 -1.7016
  103OSM   C16F10440   0.531   2.646   5.137  0.0532 -1.1112  0.0331
  103OSM   H16F10441   0.549   2.753   5.162  0.1030 -0.9887 -0.5291
  103OSM   H16G10442   0.423   2.620   5.135  0.0920 -1.2095 -0.7335
  103OSM   C17F10443   0.600   2.618   5.002  0.2695  0.3004 -0.1358
  103OSM   H17F10444   0.610   2.509   4.986 -0.2523  0.2311 -0.0105
  103OSM   H17G10445   0.701   2.663   5.007 -0.6738  2.4687  0.7418
  103OSM   C18F10446   0.522   2.675   4.884  0.2503  0.1969  0.1799
  103OSM   H18F10447   0.524   2.786   4.883 -0.3194  0.3025  3.0303
  103OSM   H18G10448   0.418   2.640   4.899  0.6529 -0.3944  1.8038
  103OSM   H18H10449   0.565   2.644   4.786  2.1715  1.7896  0.4470
  104OSM      N10450   1.676   3.903   6.455 -0.5263 -0.0599  0.2056
  104OSM    C1510451   1.654   3.904   6.303 -0.0094 -0.1520  0.2522
  104OSM   H15A10452   1.598   3.991   6.271  1.1830  1.4294  2.1746
  104OSM   H15B10453   1.603   3.818   6.263 -0.7757  0.8747 -1.0860
  104OSM   H15C10454   1.748   3.910   6.251 -0.4153 -2.1751 -0.7685
  104OSM    C1410455   1.543   3.936   6.515 -0.0979 -0.7290  0.0337
  104OSM   H14A10456   1.515   4.036   6.483  1.9897 -0.3574 -0.7886
  104OSM   H14B10457   1.537   3.934   6.622 -0.7180  0.5854  0.0415
  104OSM   H14C10458   1.468   3.867   6.480 -0.4108 -1.7096  2.4405
  104OSM    C1310459   1.728   3.772   6.492  0.0460 -0.0698 -0.2168
  104OSM   H13A10460   1.659   3.695   6.461  1.4980 -0.7789 -1.8629
  104OSM   H13B10461   1.741   3.758   6.598 -2.9301  1.3270  0.4362
  104OSM   H13C10462   1.819   3.751   6.438 -0.2425  1.8439 -1.5453
  104OSM    C1210463   1.781   4.020   6.481  0.3503  0.5618 -0.4306
  104OSM   H12A10464   1.800   4.021   6.587  1.0094  0.4762 -0.5433
  104OSM   H12B10465   1.731   4.111   6.450 -1.1367 -0.4473 -1.0898
  104OSM    C1110466   1.918   4.017   6.400  0.1540  0.1707  0.4036
  104OSM   H11A10467   1.989   4.093   6.439 -0.3536  0.1853  1.3500
  104OSM   H11B10468   1.904   4.029   6.291  0.5410 -0.3989  0.2875
  104OSM      P10469   2.089   3.848   6.515  0.2458 -0.3176  0.1307
  104OSM    O1310470   2.075   3.939   6.625 -0.8241 -0.1738  0.3781
  104OSM    O1410471   2.075   3.704   6.545  0.5953 -0.2081 -0.0905
  104OSM    O1110472   2.227   3.872   6.447 -0.2331 -0.1999  0.3201
  104OSM    O1210473   1.981   3.889   6.409 -0.0799  0.5508  0.2769
  104OSM    C1S10474   2.249   3.824   6.313 -0.1712  0.4936  0.5967
  104OSM    H1S10475   2.156   3.782   6.268  0.2286 -1.1843  1.2799
  104OSM    H1T10476   2.314   3.734   6.315 -0.5965  0.1981  1.7163
  104OSM     NF10477   2.360   3.862   6.086 -0.2006 -0.1116  0.5474
  104OSM    HNF10478   2.459   3.856   6.078 -0.0865  0.5208  1.3519
  104OSM    C2S10479   2.307   3.927   6.206 -0.0377 -0.7341  0.2581
  104OSM    H2S10480   2.217   3.991   6.196 -1.0303 -1.7865  1.9049
  104OSM    C3S10481   2.412   4.018   6.273 -1.1653 -0.4882 -0.3146
  104OSM    H3S10482   2.508   3.962   6.285 -0.5353  0.4676 -0.7170
  104OSM     O310483   2.389   4.065   6.409 -0.0258 -0.4491  0.6299
  104OSM    HO310484   2.312   4.016   6.439 -0.9144  0.8969  0.6557
  104OSM    C4S10485   2.449   4.132   6.179  0.5869 -0.6865 -0.3188
  104OSM    H4S10486   2.358   4.181   6.141 -0.1794 -1.9545 -0.1965
  104OSM    C5S10487   2.575   4.170   6.156  0.6235  0.6915 -0.2363
  104OSM    H5S10488   2.653   4.123   6.218 -0.0794 -0.3823 -0.1426
  104OSM    C6S10489   2.617   4.279   6.072 -0.3889 -0.5986  0.1154
  104OSM    H6S10490   2.687   4.249   5.992 -0.1903 -1.6177  0.6520
  104OSM    H6T10491   2.672   4.347   6.141 -1.0118  1.3883 -1.2472
  104OSM    C7S10492   2.520   4.365   5.987  0.3238 -0.3639 -0.3180
  104OSM    H7S10493   2.579   4.456   5.960 -1.3618  1.3834  1.5082
  104OSM    H7T10494   2.445   4.396   6.063  1.5408 -1.8321  1.5747
  104OSM    C8S10495   2.451   4.309   5.859 -0.6347 -0.1423 -0.5762
  104OSM    H8S10496   2.386   4.224   5.888 -0.1340 -0.3183  0.0654
  104OSM    H8T10497   2.524   4.252   5.797 -0.2847 -1.4781  0.9800
  104OSM    C9S10498   2.383   4.408   5.769 -0.0294 -0.7471 -0.1101
  104OSM    H9S10499   2.456   4.485   5.736 -0.9385  0.4712  0.6023
  104OSM    H9T10500   2.310   4.464   5.832 -0.5753 -1.5958  0.0303
  104OSM   C10S10501   2.304   4.341   5.661 -0.2471  0.0909 -0.1699
  104OSM   H10S10502   2.243   4.258   5.702  0.7069 -0.6067 -0.1227
  104OSM   H10T10503   2.380   4.300   5.591  0.8406  1.9051 -0.1003
  104OSM   C11S10504   2.218   4.442   5.591  0.2135 -0.2771  0.3620
  104OSM   H11S10505   2.287   4.528   5.574 -0.3127  0.6005  2.4796
  104OSM   H11T10506   2.141   4.478   5.661  1.3005  1.1040  0.8862
  104OSM   C12S10507   2.158   4.399   5.448 -0.8532 -0.8666 -0.1178
  104OSM   H12S10508   2.245   4.383   5.381 -1.0495 -2.6582  0.0211
  104OSM   H12T10509   2.086   4.477   5.415  0.8452  0.4979 -0.7555
  104OSM   C13S10510   2.086   4.266   5.438 -0.1822  0.0738  0.2852
  104OSM   H13S10511   2.015   4.255   5.523  2.0207 -0.3818  2.1785
  104OSM   H13T10512   2.175   4.203   5.460 -1.5027 -2.1545 -0.3367
  104OSM   C14S10513   2.021   4.222   5.314  0.3303  0.3400  0.1408
  104OSM   H14S10514   1.944   4.297   5.286 -0.6154 -0.1656  1.2705
  104OSM   H14T10515   1.959   4.132   5.336 -0.7359  1.2745  1.0742
  104OSM   C15S10516   2.109   4.185   5.194 -0.4898 -0.1168 -0.0344
  104OSM   H15S10517   2.192   4.116   5.220  0.6500  0.4577 -2.0009
  104OSM   H15T10518   2.152   4.285   5.168  2.0619 -0.8243  1.1360
  104OSM   C16S10519   2.033   4.121   5.079  0.1121 -0.2247  0.0833
  104OSM   H16S10520   1.999   4.017   5.100 -0.9477 -0.0785 -0.8352
  104OSM   H16T10521   2.111   4.099   5.003 -1.2758 -0.9236 -1.1904
  104OSM   C17S10522   1.920   4.198   5.013 -0.1482 -0.0167  0.2686
  104OSM   H17S10523   1.926   4.306   5.036 -0.2429  0.1371 -0.4087
  104OSM   H17T10524   1.834   4.143   5.058  0.4848 -3.1791 -2.0492
  104OSM   C18S10525   1.904   4.189   4.859 -0.0329 -0.1113 -0.2193
  104OSM   H18S10526   1.908   4.081   4.831 -0.2722 -0.2780  0.3732
  104OSM   H18T10527   1.981   4.248   4.805 -1.8941  1.7195 -1.0312
  104OSM   H18U10528   1.802   4.227   4.837 -1.5859 -1.6662  3.5500
  104OSM    C1F10529   2.283   3.800   5.993  0.5588 -0.7340 -0.6194
  104OSM     OF10530   2.163   3.801   6.009 -0.4264  0.1886 -0.1552
  104OSM    C2F10531   2.349   3.744   5.875 -1.1942 -1.3377 -0.1751
  104OSM    H2F10532   2.382   3.640   5.893 -0.7034 -1.0309  0.7591
  104OSM    H2G10533   2.435   3.805   5.842 -2.8796  1.1812 -0.2066
  104OSM    C3F10534   2.261   3.741   5.751 -0.0871 -0.2295  0.8107
  104OSM    H3F10535   2.227   3.842   5.718  1.3520  0.4826  1.4361
  104OSM    H3G10536   2.167   3.683   5.763 -0.4383  0.4997  1.7052
  104OSM    C4F10537   2.321   3.662   5.629 -0.4430 -0.2624  0.2906
  104OSM    H4F10538   2.240   3.626   5.563 -0.4788 -1.2115  0.8281
  104OSM    H4G10539   2.365   3.565   5.663 -0.5913 -0.8677 -1.1740
  104OSM    C5F10540   2.438   3.724   5.553 -0.0576 -0.4263  0.2877
  104OSM    H5F10541   2.524   3.741   5.622  0.0864 -0.7649  0.1917
  104OSM    H5G10542   2.408   3.825   5.516  1.3180  0.8713  2.4509
  104OSM    C6F10543   2.472   3.646   5.421  0.3564 -0.7687  0.3798
  104OSM    H6F10544   2.368   3.622   5.390  0.1575  0.2831  0.1876
  104OSM    H6G10545   2.531   3.558   5.454  0.6587 -0.2846  1.1487
  104OSM    C7F10546   2.546   3.729   5.315 -0.1506  0.1733 -0.1090
  104OSM    H7F10547   2.634   3.777   5.362 -0.7368 -0.8168  2.1608
  104OSM    H7G10548   2.477   3.810   5.283 -0.1468  0.3737  0.3863
  104OSM    C8F10549   2.594   3.661   5.194 -0.4687  0.4123  0.6319
  104OSM    H8F10550   2.671   3.593   5.237 -0.9523  1.1519  2.7913
  104OSM    H8G10551   2.645   3.727   5.121 -0.4458 -1.4609 -1.1648
  104OSM    C9F10552   2.487   3.592   5.109  0.2095 -0.2518 -0.1537
  104OSM    H9F10553   2.382   3.591   5.141 -0.0069 -2.0783 -0.7883
  104OSM   C10F10554   2.509   3.542   4.988  0.7364 -0.2824  0.1335
  104OSM   H10F10555   2.430   3.485   4.937  1.6758 -1.0476 -0.4988
  104OSM   C11F10556   2.632   3.525   4.899 -0.6746 -0.5312 -0.4923
  104OSM   H11F10557   2.646   3.612   4.832 -0.0975 -1.4035 -1.5375
  104OSM   H11G10558   2.619   3.433   4.837  0.0776 -1.3781  0.5615
  104OSM   C12F10559   2.762   3.502   4.977 -0.7411 -0.9941  0.0568
  104OSM   H12F10560   2.765   3.413   5.044 -3.0009 -0.4549  0.9803
  104OSM   H12G10561   2.786   3.586   5.045  3.0465 -0.6968 -1.4395
  104OSM   C13F10562   2.879   3.483   4.881  0.1479 -0.4390 -0.8567
  104OSM   H13F10563   2.893   3.574   4.818 -1.3933  0.8316  0.5330
  104OSM   H13G10564   2.849   3.402   4.810 -0.8634  1.1817 -2.3762
  104OSM   C14F10565   3.018   3.451   4.943 -0.6118  0.0462  0.2868
  104OSM   H14F10566   3.012   3.353   4.995 -0.0052  0.8993  2.0663
  104OSM   H14G10567   3.039   3.529   5.020 -0.7552 -0.6731  1.0671
  104OSM   C15F10568   3.131   3.448   4.841  0.2597  0.7092  0.1679
  104OSM   H15F10569   3.147   3.541   4.784  0.6243  1.1028  0.9042
  104OSM   H15G10570   3.107   3.374   4.761 -0.0734  1.2523 -0.2381
  104OSM   C16F10571   3.269   3.401   4.899  0.0815 -0.7347 -0.6560
  104OSM   H16F10572   3.256   3.303   4.951  0.0083 -0.5147 -0.2530
  104OSM   H16G10573   3.317   3.470   4.971 -0.3439 -1.0888 -0.0278
  104OSM   C17F10574   3.365   3.375   4.786  0.3581 -0.8343 -0.1368
  104OSM   H17F10575   3.362   3.464   4.719 -0.3056 -2.1198 -1.8827
  104OSM   H17G10576   3.344   3.288   4.720 -0.7215  1.1093 -2.5128
  104OSM   C18F10577   3.521   3.373   4.831 -0.6029  1.1269 -0.4123
  104OSM   H18F10578   3.533   3.468   4.887  1.1014 -0.6036  2.3684
  104OSM   H18G10579   3.587   3.376   4.742 -1.1695 -0.9942 -0.9611
  104OSM   H18H10580   3.535   3.286   4.899  0.6341 -0.8331 -2.9967
  105OSM      N10581   3.345   3.382   6.641  0.6672  0.2628  0.0798
  105OSM    C1510582   3.411   3.279   6.712  0.2169  0.2237  0.7071
  105OSM   H15A10583   3.428   3.191   6.653  1.3904  0.2075  1.0392
  105OSM   H15B10584   3.347   3.236   6.788 -0.2090  1.0664  0.8395
  105OSM   H15C10585   3.497   3.302   6.773  0.9395 -3.2639  1.2179
  105OSM    C1410586   3.219   3.318   6.574 -0.6803  0.3471 -0.9788
  105OSM   H14A10587   3.158   3.396   6.530  1.8040  0.9855 -3.6695
  105OSM   H14B10588   3.165   3.262   6.649  0.1657  0.7655 -0.0322
  105OSM   H14C10589   3.250   3.246   6.499 -1.0935 -0.0521 -0.7709
  105OSM    C1310590   3.292   3.483   6.736 -0.1367 -0.1873 -0.2428
  105OSM   H13A10591   3.244   3.432   6.818  0.4251  0.2369  0.3638
  105OSM   H13B10592   3.234   3.554   6.679  2.5067  2.0515 -0.3602
  105OSM   H13C10593   3.378   3.533   6.778 -0.4176 -0.7269  1.0127
  105OSM    C1210594   3.436   3.448   6.544  0.4116 -0.4306 -0.7027
  105OSM   H12A10595   3.524   3.489   6.591  1.1491 -1.5055 -1.1090
  105OSM   H12B10596   3.387   3.530   6.494 -0.4100 -0.7826 -0.4927
  105OSM    C1110597   3.513   3.368   6.423 -0.3879  0.6627 -0.0078
  105OSM   H11A10598   3.547   3.447   6.353 -0.7636 -0.3042 -1.3048
  105OSM   H11B10599   3.443   3.309   6.360  1.1165 -0.9670 -0.1984
  105OSM      P10600   3.747   3.343   6.531  0.0830  0.2561  0.2985
  105OSM    O1310601   3.730   3.485   6.546 -0.3489 -0.4149 -0.1629
  105OSM    O1410602   3.765   3.270   6.660 -0.4494 -0.0338  0.1619
  105OSM    O1110603   3.855   3.312   6.418 -0.0046  0.1106 -0.3154
  105OSM    O1210604   3.621   3.283   6.464  0.0494 -0.2557 -0.0339
  105OSM    C1S10605   3.827   3.315   6.277 -0.0021 -0.3629  0.0661
  105OSM    H1S10606   3.812   3.418   6.237 -1.1438 -1.2142 -1.8783
  105OSM    H1T10607   3.729   3.267   6.257  0.4236 -0.5731 -1.7444
  105OSM     NF10608   3.922   3.254   6.048 -1.0222 -0.5678 -0.1067
  105OSM    HNF10609   3.922   3.170   5.994  0.4595 -0.7110  0.0777
  105OSM    C2S10610   3.937   3.235   6.195  0.1353  0.3806  0.1633
  105OSM    H2S10611   4.028   3.297   6.210  1.4254 -1.5822  0.8052
  105OSM    C3S10612   3.948   3.083   6.243 -0.6518  0.5606 -0.0874
  105OSM    H3S10613   3.866   3.012   6.217  1.8493 -2.7467  0.3443
  105OSM     O310614   3.947   3.069   6.385  0.3836  0.2928 -0.0268
  105OSM    HO310615   3.916   3.158   6.403  2.4409  1.3647 -1.4197
  105OSM    C4S10616   4.070   3.027   6.179 -0.5917 -0.2041 -0.3670
  105OSM    H4S10617   4.056   2.967   6.088 -0.8197  1.0194 -1.1683
  105OSM    C5S10618   4.201   3.038   6.209 -0.4886 -0.0146 -0.4266
  105OSM    H5S10619   4.229   3.113   6.284 -0.6274  0.9142 -1.2727
  105OSM    C6S10620   4.312   2.960   6.141  0.1648  1.0025 -0.1028
  105OSM    H6S10621   4.268   2.880   6.076 -0.0218  0.2457  0.9310
  105OSM    H6T10622   4.373   2.904   6.215 -2.2805  1.8519  2.7521
  105OSM    C7S10623   4.404   3.051   6.053  0.5981  0.1157  0.0606
  105OSM    H7S10624   4.500   3.001   6.026  1.1164  0.9108  0.3819
  105OSM    H7T10625   4.438   3.132   6.121  0.4596  0.0231  0.2393
  105OSM    C8S10626   4.335   3.113   5.933 -0.1878  0.2810 -0.5794
  105OSM    H8S10627   4.246   3.177   5.951  0.3110  0.9221 -0.3481
  105OSM    H8T10628   4.269   3.033   5.892 -1.8620  0.8958  0.8174
  105OSM    C9S10629   4.426   3.175   5.823 -0.1462  0.1991  0.3409
  105OSM    H9S10630   4.465   3.098   5.753 -1.0324  0.1524 -0.1095
  105OSM    H9T10631   4.513   3.206   5.886  0.4856  0.9449 -0.8488
  105OSM   C10S10632   4.356   3.289   5.744 -0.4734  0.2949 -0.5085
  105OSM   H10S10633   4.289   3.352   5.807  0.8106  0.7364  0.4577
  105OSM   H10T10634   4.293   3.247   5.663 -3.1513  1.4982  0.8198
  105OSM   C11S10635   4.467   3.371   5.683  0.2283  0.2497  0.4365
  105OSM   H11S10636   4.534   3.311   5.618 -2.9915 -0.8664 -2.1153
  105OSM   H11T10637   4.513   3.416   5.773  1.1563 -1.2103  0.7273
  105OSM   C12S10638   4.405   3.487   5.598 -0.2072 -0.0542  0.1039
  105OSM   H12S10639   4.350   3.558   5.663 -1.5971 -0.2730 -0.7820
  105OSM   H12T10640   4.340   3.453   5.514 -0.1662  0.2862 -0.0648
  105OSM   C13S10641   4.522   3.555   5.533  0.1661  0.1729  0.2459
  105OSM   H13S10642   4.592   3.476   5.497  0.9642  1.3169 -0.7778
  105OSM   H13T10643   4.576   3.610   5.613  0.6686 -1.2235  0.9149
  105OSM   C14S10644   4.483   3.640   5.417 -0.2567  0.7911 -0.5679
  105OSM   H14S10645   4.563   3.715   5.398 -0.2895  0.6580 -1.2718
  105OSM   H14T10646   4.399   3.707   5.446 -0.8117 -0.6899  1.4950
  105OSM   C15S10647   4.450   3.564   5.282 -0.5192 -0.0241 -0.2108
  105OSM   H15S10648   4.350   3.517   5.299  0.0439 -1.8050 -1.5436
  105OSM   H15T10649   4.526   3.487   5.259 -2.1721 -1.2169 -2.0733
  105OSM   C16S10650   4.438   3.666   5.175  0.0186 -0.0987 -0.4812
  105OSM   H16S10651   4.521   3.740   5.167  0.3958 -0.5512 -0.7418
  105OSM   H16T10652   4.359   3.739   5.203  0.8841  0.2468  1.1997
  105OSM   C17S10653   4.407   3.611   5.040  0.4356  0.0552  0.4756
  105OSM   H17S10654   4.392   3.697   4.972 -1.0289 -0.7341 -0.2377
  105OSM   H17T10655   4.308   3.562   5.037  0.7381 -0.5637  0.4677
  105OSM   C18S10656   4.511   3.525   4.979 -0.2515  0.0240 -0.5989
  105OSM   H18S10657   4.617   3.558   4.981 -0.2493  0.0141 -0.4973
  105OSM   H18T10658   4.476   3.504   4.876 -2.2835  0.5551 -0.0698
  105OSM   H18U10659   4.503   3.435   5.045 -1.4003  1.5293  1.4341
  105OSM    C1F10660   3.926   3.368   5.988  0.4302 -0.2889 -1.1561
  105OSM     OF10661   3.967   3.462   6.048 -0.0573 -0.0641  0.1350
  105OSM    C2F10662   3.884   3.389   5.843  0.1616 -0.4307 -1.1976
  105OSM    H2F10663   3.777   3.359   5.841 -0.0294 -0.1531  1.3322
  105OSM    H2G10664   3.936   3.319   5.774 -0.8665  0.0717 -2.5328
  105OSM    C3F10665   3.912   3.540   5.790  0.3810  0.9131 -0.3117
  105OSM    H3F10666   4.022   3.555   5.797  0.4664  0.2041 -0.0848
  105OSM    H3G10667   3.863   3.620   5.851  1.4003 -0.2904  2.2133
  105OSM    C4F10668   3.873   3.547   5.643 -0.1217  1.0680  0.0239
  105OSM    H4F10669   3.851   3.652   5.611 -0.9371  0.9184  0.0832
  105OSM    H4G10670   3.780   3.489   5.626  0.5439 -0.4993  1.4533
  105OSM    C5F10671   3.980   3.499   5.551  0.3217 -0.3374 -0.3180
  105OSM    H5F10672   4.001   3.392   5.572 -2.7876 -1.0410 -0.3390
  105OSM    H5G10673   4.064   3.571   5.563 -0.6737  1.0417 -1.3077
  105OSM    C6F10674   3.938   3.505   5.405 -0.6346  0.9198 -0.0195
  105OSM    H6F10675   3.931   3.612   5.377 -0.4087  0.2656 -2.8772
  105OSM    H6G10676   3.840   3.455   5.390 -0.1249  0.0673 -0.5805
  105OSM    C7F10677   4.030   3.419   5.314 -1.0370  0.2476  0.8834
  105OSM    H7F10678   4.010   3.310   5.318  0.1675  0.0207  1.0528
  105OSM    H7G10679   4.135   3.432   5.349 -0.1093  1.4784 -2.0289
  105OSM    C8F10680   4.026   3.453   5.163  0.1469 -0.9858  0.1995
  105OSM    H8F10681   4.106   3.395   5.113  0.0561 -0.0801 -1.0662
  105OSM    H8G10682   4.058   3.560   5.154  0.2684 -1.0877 -0.7016
  105OSM    C9F10683   3.903   3.431   5.092  0.0858  0.2763  0.1904
  105OSM    H9F10684   3.819   3.459   5.157 -1.8664 -1.9450 -1.2234
  105OSM   C10F10685   3.884   3.389   4.969 -0.4532  0.5766 -0.1588
  105OSM   H10F10686   3.782   3.400   4.929 -0.8770 -1.5758  0.2026
  105OSM   C11F10687   3.998   3.344   4.876  0.2178  1.2724 -0.3736
  105OSM   H11F10688   4.009   3.235   4.892  1.6066  1.6059  1.2546
  105OSM   H11G10689   4.100   3.386   4.890  1.0881 -1.0512  0.9060
  105OSM   C12F10690   3.967   3.358   4.727 -0.4457  0.3051 -0.4915
  105OSM   H12F10691   3.874   3.299   4.711  1.3112 -2.0109 -3.1911
  105OSM   H12G10692   4.042   3.310   4.660 -0.7147  2.1940 -2.2225
  105OSM   C13F10693   3.934   3.500   4.680  0.0235 -0.3584  0.1134
  105OSM   H13F10694   4.035   3.545   4.670  0.5055 -0.5005  3.3719
  105OSM   H13G10695   3.886   3.558   4.761  1.2166 -0.0103  0.5863
  105OSM   C14F10696   3.835   3.520   4.563 -0.3527 -0.0244 -0.4314
  105OSM   H14F10697   3.768   3.433   4.549 -0.2590  0.0157 -1.1892
  105OSM   H14G10698   3.888   3.546   4.468  0.0155 -3.2506 -1.2417
  105OSM   C15F10699   3.731   3.634   4.584  0.0595  0.0639 -0.3381
  105OSM   H15F10700   3.789   3.722   4.617  1.9701 -1.1011 -0.4604
  105OSM   H15G10701   3.654   3.607   4.660 -1.5646  0.7159 -1.6836
  105OSM   C16F10702   3.648   3.653   4.459  0.4184 -0.0521 -0.3150
  105OSM   H16F10703   3.611   3.550   4.440 -1.3157  0.2320  1.1830
  105OSM   H16G10704   3.718   3.683   4.379  3.7792 -2.4234  1.5089
  105OSM   C17F10705   3.531   3.748   4.469  0.6605 -0.0369  0.1457
  105OSM   H17F10706   3.556   3.856   4.471  0.7513 -0.0149  3.8438
  105OSM   H17G10707   3.474   3.714   4.558 -1.6610  0.2371 -1.1647
  105OSM   C18F10708   3.437   3.736   4.348  0.7926  0.4146  0.0184
  105OSM   H18F10709   3.410   3.630   4.327 -0.9856  0.7921  0.3031
  105OSM   H18G10710   3.493   3.760   4.255  0.1274  1.9350 -0.0035
  105OSM   H18H10711   3.352   3.806   4.337 -0.4966 -1.2482 -1.1889
  106OSM      N10712   2.592   1.037   6.821 -0.2949 -0.2823  0.3354
  106OSM    C1510713   2.707   0.942   6.833  0.2143  0.0171 -0.3245
  106OSM   H15A10714   2.686   0.841   6.799 -1.2436  0.1113  0.2308
  106OSM   H15B10715   2.748   0.927   6.931 -3.1384 -2.3383  0.8789
  106OSM   H15C10716   2.789   0.978   6.772  1.3441 -0.2847  0.9916
  106OSM    C1410717   2.579   1.085   6.684  0.3281  0.4101  0.2107
  106OSM   H14A10718   2.545   1.004   6.621  1.5751 -0.9588  1.2226
  106OSM   H14B10719   2.666   1.131   6.641  0.4114  0.0886  0.0344
  106OSM   H14C10720   2.502   1.161   6.673  0.0404 -0.1482 -2.1066
  106OSM    C1310721   2.465   0.962   6.847 -0.0947  0.4166 -0.1557
  106OSM   H13A10722   2.468   0.933   6.951  3.7298 -1.5308 -0.5982
  106OSM   H13B10723   2.459   0.873   6.785  0.8650 -0.9239  1.5997
  106OSM   H13C10724   2.377   1.019   6.821 -1.1298 -0.7642  0.6304
  106OSM    C1210725   2.607   1.154   6.920  0.1346 -0.0464 -0.2669
  106OSM   H12A10726   2.692   1.210   6.883 -0.2033  0.9918  0.4878
  106OSM   H12B10727   2.638   1.118   7.017 -3.9326  0.8129  1.5624
  106OSM    C1110728   2.487   1.257   6.942  0.0618  0.6735  0.6371
  106OSM   H11A10729   2.507   1.316   7.034  2.9806  1.2141 -0.2158
  106OSM   H11B10730   2.392   1.200   6.947 -0.5923  1.4003 -1.9966
  106OSM      P10731   2.342   1.411   6.800  0.0430 -0.2254  0.5934
  106OSM    O1310732   2.227   1.322   6.838 -0.4085  0.6757  0.2748
  106OSM    O1410733   2.350   1.549   6.852 -0.0787 -0.3351 -0.0410
  106OSM    O1110734   2.342   1.415   6.641  0.2003  0.2073  0.5497
  106OSM    O1210735   2.478   1.338   6.822 -0.3057  0.2812 -0.5104
  106OSM    C1S10736   2.459   1.435   6.562  0.0903 -0.5992 -0.0121
  106OSM    H1S10737   2.522   1.344   6.570  3.7845  1.8899  3.4386
  106OSM    H1T10738   2.519   1.516   6.609  1.5525 -1.3959 -0.4403
  106OSM     NF10739   2.557   1.479   6.340 -0.1397 -0.0763 -0.0195
  106OSM    HNF10740   2.571   1.571   6.306 -0.8270  0.3271  0.7488
  106OSM    C2S10741   2.430   1.466   6.413  0.0698  0.3769  0.6244
  106OSM    H2S10742   2.377   1.378   6.370  1.1505 -0.0724  0.1763
  106OSM    C3S10743   2.341   1.588   6.381  0.2314  0.5049  0.1111
  106OSM    H3S10744   2.398   1.684   6.386  0.2341  0.6306 -1.7747
  106OSM     O310745   2.242   1.607   6.485 -0.3200 -0.5792 -0.5242
  106OSM    HO310746   2.268   1.546   6.555  0.7942 -0.3455 -0.7156
  106OSM    C4S10747   2.264   1.572   6.252 -0.1064 -0.1797  0.4458
  106OSM    H4S10748   2.193   1.487   6.250 -0.3188 -0.0055 -2.3560
  106OSM    C5S10749   2.274   1.639   6.141 -0.6257 -0.0103 -0.2489
  106OSM    H5S10750   2.346   1.721   6.124  2.0129 -1.8786  1.1805
  106OSM    C6S10751   2.196   1.607   6.012 -1.1960 -0.5665 -0.2910
  106OSM    H6S10752   2.108   1.673   5.999 -0.1353  1.2436  1.2554
  106OSM    H6T10753   2.160   1.501   6.015  0.3690 -1.1645 -1.4667
  106OSM    C7S10754   2.279   1.614   5.882 -0.3500  0.4902  0.4155
  106OSM    H7S10755   2.371   1.555   5.865 -0.8117  0.0525 -0.6118
  106OSM    H7T10756   2.309   1.721   5.876 -1.7311  0.8048 -2.5438
  106OSM    C8S10757   2.190   1.584   5.755  1.0332  0.1355  0.4377
  106OSM    H8S10758   2.102   1.652   5.752  0.2841 -0.7790 -2.9430
  106OSM    H8T10759   2.145   1.483   5.757  1.4347 -0.1688 -2.2636
  106OSM    C9S10760   2.267   1.601   5.628 -0.1660 -0.2064 -0.0827
  106OSM    H9S10761   2.343   1.521   5.617  0.3173  0.3070 -0.5479
  106OSM    H9T10762   2.305   1.704   5.610 -2.2349  0.8349  1.0844
  106OSM   C10S10763   2.173   1.557   5.513 -0.2629 -0.5216 -0.8674
  106OSM   H10S10764   2.084   1.622   5.517 -0.8425 -1.3783  1.5044
  106OSM   H10T10765   2.150   1.454   5.547 -0.5396 -0.2479 -0.2105
  106OSM   C11S10766   2.246   1.547   5.374  0.3606 -1.2469  0.2919
  106OSM   H11S10767   2.314   1.460   5.357 -1.6399 -2.7014 -0.5762
  106OSM   H11T10768   2.300   1.644   5.363 -1.2353 -0.4793 -1.3426
  106OSM   C12S10769   2.141   1.559   5.265 -0.1769  0.6562  0.9178
  106OSM   H12S10770   2.075   1.648   5.275 -0.9850 -0.0124  1.8117
  106OSM   H12T10771   2.073   1.471   5.279  0.7366  0.0921  1.9622
  106OSM   C13S10772   2.200   1.556   5.119 -0.2943 -0.3375 -0.6927
  106OSM   H13S10773   2.265   1.466   5.106 -0.3576 -0.2212 -1.8815
  106OSM   H13T10774   2.260   1.646   5.093 -1.6368 -0.0103 -2.8170
  106OSM   C14S10775   2.091   1.529   5.013  0.0586 -0.4329  0.7770
  106OSM   H14S10776   2.026   1.616   4.989  1.3152  0.4004  0.2767
  106OSM   H14T10777   2.030   1.439   5.033 -0.1752 -0.4315  0.1177
  106OSM   C15S10778   2.142   1.497   4.871  0.1892  0.6656  0.0522
  106OSM   H15S10779   2.060   1.495   4.797 -0.1213 -1.5745  0.4031
  106OSM   H15T10780   2.167   1.389   4.880 -0.6508  0.4723  0.1685
  106OSM   C16S10781   2.263   1.591   4.829  0.0393 -0.2366 -0.3311
  106OSM   H16S10782   2.341   1.586   4.908 -0.9839 -0.4663  0.6962
  106OSM   H16T10783   2.237   1.699   4.817  1.3155  0.2488  0.9388
  106OSM   C17S10784   2.321   1.539   4.699  0.6555 -0.2323  0.6487
  106OSM   H17S10785   2.239   1.547   4.625 -0.0840  3.1097  1.6521
  106OSM   H17T10786   2.359   1.436   4.715  1.3195 -0.4345 -1.8472
  106OSM   C18S10787   2.426   1.634   4.649  0.2690 -0.0782 -0.0427
  106OSM   H18S10788   2.447   1.623   4.540 -0.3746 -0.3420 -0.1465
  106OSM   H18T10789   2.524   1.620   4.698 -0.0677  2.9770  1.7619
  106OSM   H18U10790   2.395   1.740   4.664 -0.3146  0.1629 -2.4774
  106OSM    C1F10791   2.652   1.382   6.327 -0.0083 -0.1931 -0.1620
  106OSM     OF10792   2.629   1.260   6.342  0.2297 -0.1369 -0.3711
  106OSM    C2F10793   2.790   1.434   6.273 -0.2101 -0.2252  0.0326
  106OSM    H2F10794   2.865   1.416   6.352  1.0582 -2.0061 -1.4964
  106OSM    H2G10795   2.787   1.544   6.254  0.0962 -0.1523  0.4122
  106OSM    C3F10796   2.831   1.371   6.137 -0.3065 -0.8880  0.5166
  106OSM    H3F10797   2.871   1.268   6.149  2.2705 -0.0332  0.0348
  106OSM    H3G10798   2.918   1.434   6.107 -1.1609 -0.3264 -0.8745
  106OSM    C4F10799   2.733   1.382   6.021  0.1327 -0.0265 -0.9002
  106OSM    H4F10800   2.706   1.489   6.013  0.3495 -0.0647 -2.4425
  106OSM    H4G10801   2.641   1.324   6.048  0.1414 -0.0062 -0.8275
  106OSM    C5F10802   2.781   1.335   5.885 -0.2340  0.3837  0.2885
  106OSM    H5F10803   2.846   1.246   5.902 -1.5684 -0.7651 -0.4630
  106OSM    H5G10804   2.847   1.411   5.837 -0.8004 -0.8970 -2.7270
  106OSM    C6F10805   2.667   1.295   5.783  0.1147 -0.2401  0.4609
  106OSM    H6F10806   2.632   1.399   5.766  1.8136  0.1345 -1.0561
  106OSM    H6G10807   2.587   1.230   5.823  1.0887 -0.9034  1.3968
  106OSM    C7F10808   2.718   1.255   5.643 -0.0529  1.1470  0.2100
  106OSM    H7F10809   2.765   1.154   5.654 -1.0901  0.2665 -2.5990
  106OSM    H7G10810   2.796   1.327   5.609  0.4061 -0.7568 -3.3496
  106OSM    C8F10811   2.614   1.254   5.532  0.0955 -0.3208 -0.8586
  106OSM    H8F10812   2.556   1.348   5.552  0.6633 -0.2654  0.6744
  106OSM    H8G10813   2.549   1.165   5.546  0.0307 -0.5971 -2.7001
  106OSM    C9F10814   2.689   1.266   5.400  0.1434  0.6754  0.8877
  106OSM    H9F10815   2.766   1.345   5.400  1.0269 -0.1563  1.8147
  106OSM   C10F10816   2.664   1.195   5.291  0.9920  0.0809 -0.1641
  106OSM   H10F10817   2.731   1.194   5.204  1.4812 -3.7931  0.0549
  106OSM   C11F10818   2.562   1.087   5.274 -0.0143 -0.2852 -0.2802
  106OSM   H11F10819   2.538   1.054   5.377 -0.0281 -2.0341 -0.8209
  106OSM   H11G10820   2.611   1.000   5.227  2.3052  1.8342 -2.0731
  106OSM   C12F10821   2.441   1.128   5.192 -0.0433  0.4379  0.4160
  106OSM   H12F10822   2.411   1.218   5.250  0.7764 -0.3815  2.2111
  106OSM   H12G10823   2.360   1.053   5.204 -0.8344  1.4973  2.0438
  106OSM   C13F10824   2.459   1.159   5.038  0.4683  0.0913  0.1825
  106OSM   H13F10825   2.517   1.253   5.023 -2.3897  2.1881  1.2328
  106OSM   H13G10826   2.358   1.184   5.000  0.4488  2.2401  1.4547
  106OSM   C14F10827   2.515   1.047   4.945  0.5868 -0.6013  0.1960
  106OSM   H14F10828   2.500   0.946   4.989 -0.3369 -1.2122 -1.4078
  106OSM   H14G10829   2.625   1.059   4.938  0.5634 -0.2804  0.4167
  106OSM   C15F10830   2.460   1.047   4.798 -0.0075 -0.9248 -0.1311
  106OSM   H15F10831   2.351   1.036   4.815  0.0693  1.3031  2.4580
  106OSM   H15G10832   2.498   0.950   4.758 -0.5224 -0.9926 -0.4559
  106OSM   C16F10833   2.507   1.166   4.716  0.1521  0.1361 -0.4541
  106OSM   H16F10834   2.472   1.266   4.752 -0.9205 -0.7192  0.9570
  106OSM   H16G10835   2.464   1.137   4.619  1.1534  0.2433 -0.9477
  106OSM   C17F10836   2.662   1.167   4.697  0.2541  0.5890  1.0587
  106OSM   H17F10837   2.681   1.076   4.637  2.2153  2.3500 -1.2375
  106OSM   H17G10838   2.721   1.169   4.791  0.1591 -1.6643  1.2082
  106OSM   C18F10839   2.721   1.284   4.610 -0.2779 -0.1914 -0.5283
  106OSM   H18F10840   2.829   1.262   4.599 -0.0600  1.3023 -1.6664
  106OSM   H18G10841   2.714   1.382   4.661  1.4149  1.6854 -3.6208
  106OSM   H18H10842   2.675   1.284   4.509 -1.6229 -2.1317  0.0133
  107OSM      N10843   1.633   0.738   7.075  0.7531 -0.7961  0.6995
  107OSM    C1510844   1.744   0.791   6.995  0.0801 -0.1108 -0.6039
  107OSM   H15A10845   1.833   0.789   7.056  0.7380 -0.7766 -1.5613
  107OSM   H15B10846   1.710   0.884   6.952 -0.8679 -0.9034 -1.6371
  107OSM   H15C10847   1.764   0.723   6.914 -1.8004 -1.8694  0.2907
  107OSM    C1410848   1.538   0.664   6.986  0.2233  0.5746 -0.2474
  107OSM   H14A10849   1.447   0.640   7.039 -0.4678  0.0508 -1.6002
  107OSM   H14B10850   1.583   0.576   6.942  0.4322  1.0029 -0.9208
  107OSM   H14C10851   1.511   0.716   6.895 -0.9184  1.9304  0.8234
  107OSM    C1310852   1.688   0.628   7.160  1.0534  0.5864  0.7289
  107OSM   H13A10853   1.622   0.543   7.172 -0.3286  1.4610 -0.2759
  107OSM   H13B10854   1.714   0.662   7.259 -0.3460 -1.2367  1.7808
  107OSM   H13C10855   1.783   0.593   7.123  0.6802  1.6253 -1.3539
  107OSM    C1210856   1.557   0.845   7.148  0.5911 -0.3801 -0.0167
  107OSM   H12A10857   1.623   0.908   7.205 -1.7646  0.8898  1.4622
  107OSM   H12B10858   1.496   0.797   7.222 -2.1328 -0.7359 -2.3062
  107OSM    C1110859   1.489   0.956   7.066  0.0673  0.1012  1.0566
  107OSM   H11A10860   1.561   1.000   6.994 -1.1650  1.8179  0.8239
  107OSM   H11B10861   1.462   1.045   7.127  2.8471  1.2393  0.7583
  107OSM      P10862   1.306   1.020   6.891  0.1716 -0.0591  0.3790
  107OSM    O1310863   1.202   0.943   6.812  0.2071  0.3594  0.3172
  107OSM    O1410864   1.249   1.128   6.971  0.0098  0.3104  0.0240
  107OSM    O1110865   1.414   1.080   6.786 -0.2633 -0.1934 -0.0800
  107OSM    O1210866   1.371   0.917   6.992 -0.1461  0.2718 -0.3936
  107OSM    C1S10867   1.486   0.974   6.721 -0.1295 -0.7089  0.2667
  107OSM    H1S10868   1.419   0.892   6.687  2.7574 -3.3004  0.4260
  107OSM    H1T10869   1.557   0.917   6.784  1.4664 -1.4910 -2.1111
  107OSM     NF10870   1.606   0.937   6.495  0.2607 -0.2441 -0.4339
  107OSM    HNF10871   1.704   0.917   6.486  0.4122 -1.1788  2.2836
  107OSM    C2S10872   1.556   1.033   6.595 -0.2371 -0.9942 -0.3176
  107OSM    H2S10873   1.461   1.073   6.555  0.2010 -0.7226 -1.0966
  107OSM    C3S10874   1.648   1.156   6.631 -0.1214  0.3157 -0.0443
  107OSM    H3S10875   1.740   1.114   6.677 -0.3485 -0.4180 -0.2434
  107OSM     O310876   1.592   1.253   6.711  0.4851 -0.3315 -0.3104
  107OSM    HO310877   1.515   1.212   6.751  0.4931 -1.0135 -0.9602
  107OSM    C4S10878   1.691   1.227   6.503  0.0160 -0.1514 -0.0744
  107OSM    H4S10879   1.613   1.290   6.460  0.0221  1.3945  2.0284
  107OSM    C5S10880   1.813   1.221   6.441  0.1438 -0.1087 -0.6637
  107OSM    H5S10881   1.891   1.170   6.498 -0.3444  1.9232  2.0230
  107OSM    C6S10882   1.871   1.283   6.319  0.4140 -0.0868 -0.2519
  107OSM    H6S10883   1.900   1.204   6.246  0.7736 -1.1751  1.0225
  107OSM    H6T10884   1.964   1.338   6.344  2.1543 -2.7296 -0.4919
  107OSM    C7S10885   1.788   1.389   6.249  0.3944  0.1639  0.4711
  107OSM    H7S10886   1.759   1.461   6.329 -2.1529 -1.1231  0.7966
  107OSM    H7T10887   1.695   1.340   6.213 -1.1024  2.4039  1.1040
  107OSM    C8S10888   1.844   1.462   6.129  0.3407 -0.4311  0.3925
  107OSM    H8S10889   1.938   1.512   6.159  1.7455 -1.5627 -1.8714
  107OSM    H8T10890   1.763   1.532   6.099 -0.3125 -0.8374  1.1854
  107OSM    C9S10891   1.859   1.380   5.994  0.4946  0.2382 -0.3843
  107OSM    H9S10892   1.776   1.306   5.996  0.8213 -0.3322 -3.1900
  107OSM    H9T10893   1.958   1.332   5.978  0.2133 -0.2356 -0.6979
  107OSM   C10S10894   1.842   1.473   5.870  0.2200  0.2413  0.4549
  107OSM   H10S10895   1.931   1.540   5.877  0.9705 -0.7449  0.4999
  107OSM   H10T10896   1.755   1.539   5.889 -0.4403  0.0779 -1.7085
  107OSM   C11S10897   1.814   1.414   5.728  0.2863  0.4421 -0.4572
  107OSM   H11S10898   1.731   1.344   5.750  1.8768 -1.5500 -0.5181
  107OSM   H11T10899   1.889   1.338   5.698  0.1584 -0.9069  2.2619
  107OSM   C12S10900   1.791   1.512   5.613  0.0914 -1.1831  0.3854
  107OSM   H12S10901   1.867   1.593   5.617 -0.2379 -0.9194  2.2630
  107OSM   H12T10902   1.693   1.565   5.620  0.0329 -1.1309 -0.6640
  107OSM   C13S10903   1.793   1.451   5.468  0.1616 -0.0726 -0.4593
  107OSM   H13S10904   1.716   1.371   5.463  0.6946 -0.7485  1.3030
  107OSM   H13T10905   1.896   1.408   5.467  0.2641  0.1302  0.5232
  107OSM   C14S10906   1.786   1.553   5.358  0.1882  0.3209 -0.0726
  107OSM   H14S10907   1.873   1.623   5.356 -0.7484  1.5018 -0.2410
  107OSM   H14T10908   1.692   1.611   5.356 -0.8677 -1.3262 -1.8401
  107OSM   C15S10909   1.795   1.481   5.218  0.6256 -0.3218  0.3090
  107OSM   H15S10910   1.876   1.405   5.231 -0.2324 -1.0233  1.9358
  107OSM   H15T10911   1.835   1.554   5.145 -0.3322  1.7166  1.7117
  107OSM   C16S10912   1.674   1.404   5.164 -0.9958  0.3396  0.9289
  107OSM   H16S10913   1.583   1.468   5.167 -0.5085  1.3768 -2.3548
  107OSM   H16T10914   1.655   1.312   5.223 -2.9415  1.1167  1.5943
  107OSM   C17S10915   1.691   1.379   5.009  0.0667  0.2025  0.2358
  107OSM   H17S10916   1.614   1.308   4.971 -0.5904  1.4689 -0.8472
  107OSM   H17T10917   1.796   1.348   4.994  0.4896  1.4947  0.4201
  107OSM   C18S10918   1.674   1.510   4.924 -0.2844 -0.4467  0.5500
  107OSM   H18S10919   1.697   1.503   4.816  0.5739  0.0827  0.6901
  107OSM   H18T10920   1.730   1.596   4.967 -0.0164 -0.1359 -0.4040
  107OSM   H18U10921   1.566   1.533   4.933  0.0909  1.1558  1.3996
  107OSM    C1F10922   1.527   0.860   6.427 -0.5333  0.2253  0.0733
  107OSM     OF10923   1.406   0.876   6.424 -0.3028 -0.5177  0.2212
  107OSM    C2F10924   1.593   0.737   6.356  0.0797  0.2111 -0.4317
  107OSM    H2F10925   1.644   0.687   6.440 -0.1530  2.8636  1.4151
  107OSM    H2G10926   1.653   0.773   6.270  1.5574  1.0248  0.9003
  107OSM    C3F10927   1.484   0.626   6.316  0.2404 -0.3533 -0.2393
  107OSM    H3F10928   1.399   0.619   6.388 -0.7108  2.4186 -1.0003
  107OSM    H3G10929   1.529   0.526   6.297 -0.9370 -0.4941 -2.6707
  107OSM    C4F10930   1.427   0.639   6.169  0.0120 -0.2680  0.7342
  107OSM    H4F10931   1.354   0.722   6.182 -0.4761 -0.5122 -0.2744
  107OSM    H4G10932   1.361   0.552   6.149 -0.0450 -0.3536  1.2785
  107OSM    C5F10933   1.525   0.649   6.051 -0.0999  0.2698 -0.7650
  107OSM    H5F10934   1.610   0.579   6.065 -1.3886 -1.1514  0.3136
  107OSM    H5G10935   1.572   0.749   6.060 -0.1997  0.2511  0.0038
  107OSM    C6F10936   1.481   0.640   5.908 -0.1708 -0.1011  0.0179
  107OSM    H6F10937   1.395   0.709   5.897  0.0245  0.3550  1.1808
  107OSM    H6G10938   1.441   0.540   5.882  1.1706 -0.5542 -0.3914
  107OSM    C7F10939   1.584   0.674   5.799 -0.0995 -0.7698 -0.1427
  107OSM    H7F10940   1.678   0.619   5.821  0.2196 -0.3943 -0.5451
  107OSM    H7G10941   1.617   0.780   5.793  0.6399 -1.0794 -2.7264
  107OSM    C8F10942   1.546   0.622   5.661 -0.7767  0.9254  0.1293
  107OSM    H8F10943   1.536   0.512   5.673  1.5437  0.7040  0.4818
  107OSM    H8G10944   1.629   0.632   5.589 -1.1289  0.2375 -0.3785
  107OSM    C9F10945   1.412   0.681   5.616  0.1817 -0.4884 -0.0948
  107OSM    H9F10946   1.330   0.689   5.688 -0.6244  0.8634 -1.1145
  107OSM   C10F10947   1.375   0.717   5.490 -0.3387 -0.0008 -0.0026
  107OSM   H10F10948   1.270   0.735   5.464 -0.1128  3.7636  1.0760
  107OSM   C11F10949   1.469   0.706   5.376  1.0336 -0.0613 -0.8373
  107OSM   H11F10950   1.465   0.599   5.346 -1.2318 -0.5775  0.9831
  107OSM   H11G10951   1.569   0.742   5.408  1.3949 -0.7088 -1.2119
  107OSM   C12F10952   1.443   0.787   5.244 -0.2893 -1.4225 -0.2769
  107OSM   H12F10953   1.389   0.726   5.168  0.0053 -1.6783 -0.2835
  107OSM   H12G10954   1.535   0.809   5.184 -1.0113  0.4450 -0.7605
  107OSM   C13F10955   1.369   0.925   5.254  0.2885 -0.6690 -0.2514
  107OSM   H13F10956   1.442   0.994   5.303 -1.8232  1.2120  0.3955
  107OSM   H13G10957   1.278   0.918   5.318  1.5796 -0.5075  1.7024
  107OSM   C14F10958   1.322   0.985   5.121 -0.7387  0.2337  0.0599
  107OSM   H14F10959   1.263   1.074   5.150  0.4847  0.7586  0.9798
  107OSM   H14G10960   1.246   0.917   5.075 -2.6178  1.6239  0.9709
  107OSM   C15F10961   1.436   1.030   5.034 -0.4958 -0.9053  0.0476
  107OSM   H15F10962   1.495   0.941   5.004 -3.2345 -2.4175 -1.2045
  107OSM   H15G10963   1.494   1.097   5.102 -2.1714 -0.0974  0.7458
  107OSM   C16F10964   1.401   1.129   4.916 -0.2546  0.2112  0.2518
  107OSM   H16F10965   1.497   1.142   4.861 -0.8683 -0.2028 -0.9469
  107OSM   H16G10966   1.365   1.228   4.950 -0.6080 -0.2833  1.3751
  107OSM   C17F10967   1.299   1.070   4.810  0.2601 -0.0815 -0.1009
  107OSM   H17F10968   1.198   1.090   4.852  0.7580  2.7310  0.0021
  107OSM   H17G10969   1.318   0.961   4.803 -1.4580 -0.4902  0.9484
  107OSM   C18F10970   1.308   1.150   4.679 -0.0889 -0.1007 -0.4333
  107OSM   H18F10971   1.415   1.137   4.654 -0.2277 -1.4695 -0.3658
  107OSM   H18G10972   1.289   1.259   4.694  0.0402 -0.1405  0.0682
  107OSM   H18H10973   1.249   1.115   4.592 -0.7215  0.9568 -0.4497
  108OSM      N10974   2.138   6.864   7.083  0.5211 -0.6911 -0.1890
  108OSM    C1510975   2.219   6.739   7.082 -0.1900  0.1671 -0.1029
  108OSM   H15A10976   2.163   6.649   7.064 -1.3743  0.8264  0.1575
  108OSM   H15B10977   2.278   6.728   7.172  1.3696  1.0947 -0.9698
  108OSM   H15C10978   2.296   6.752   7.008  0.7435  3.0829  1.2074
  108OSM    C1410979   2.028   6.843   7.187 -0.9087 -0.2762  0.4175
  108OSM   H14A10980   1.981   6.745   7.179  0.5207 -0.9040 -0.9485
  108OSM   H14B10981   1.962   6.927   7.202  0.9956  1.2839  0.4478
  108OSM   H14C10982   2.078   6.838   7.283  1.6986  0.4315 -0.8005
  108OSM    C1310983   2.223   6.975   7.128  0.0481  0.0760  0.5045
  108OSM   H13A10984   2.305   6.984   7.059 -0.9757 -2.4560 -1.2092
  108OSM   H13B10985   2.266   6.960   7.227 -0.7670 -1.7087  0.6355
  108OSM   H13C10986   2.177   7.072   7.126 -0.1284 -0.0159 -1.6113
  108OSM    C1210987   2.069   6.884   6.950  0.2118  0.5629 -0.5529
  108OSM   H12A10988   1.989   6.957   6.957 -0.5442 -0.0795 -1.9314
  108OSM   H12B10989   2.011   6.797   6.923  0.4590  0.3746 -0.4778
  108OSM    C1110990   2.154   6.919   6.825  0.0738 -0.0059  0.4990
  108OSM   H11A10991   2.086   6.904   6.738  1.2945  0.5742 -0.5793
  108OSM   H11B10992   2.235   6.843   6.823 -0.1390 -0.2236 -0.6226
  108OSM      P10993   2.118   7.169   6.807  0.0538 -0.0895  0.1314
  108OSM    O1310994   1.991   7.157   6.877 -0.2258  0.5090 -0.1822
  108OSM    O1410995   2.190   7.292   6.845 -0.1588  0.3299 -0.4793
  108OSM    O1110996   2.093   7.185   6.653 -0.5711 -0.1076  0.1393
  108OSM    O1210997   2.216   7.051   6.824 -0.6710  0.3798  0.1158
  108OSM    C1S10998   2.205   7.171   6.565  0.5348  0.0034 -0.6227
  108OSM    H1S10999   2.238   7.065   6.559 -1.8194 -0.7183 -1.8426
  108OSM    H1T11000   2.288   7.236   6.601 -1.3597  0.8153  2.7311
  108OSM     NF11001   2.279   7.159   6.332  0.2618  0.0307 -0.3591
  108OSM    HNF11002   2.357   7.220   6.322  2.0951 -1.8602  1.6010
  108OSM    C2S11003   2.169   7.208   6.420  0.0884 -0.0521  0.0332
  108OSM    H2S11004   2.071   7.160   6.402  0.1893 -1.1136  2.1006
  108OSM    C3S11005   2.144   7.357   6.421 -0.1034  0.6967  0.2358
  108OSM    H3S11006   2.232   7.416   6.452  1.8601 -1.1850 -1.4331
  108OSM     O311007   2.035   7.406   6.502 -0.5013  0.1360  0.1813
  108OSM    HO311008   2.026   7.330   6.561  0.2734  0.2087  0.4108
  108OSM    C4S11009   2.105   7.404   6.289 -0.2534  0.1992  0.6329
  108OSM    H4S11010   2.021   7.348   6.245 -1.7711  2.3492  0.6313
  108OSM    C5S11011   2.155   7.505   6.217 -0.1815 -0.4435  0.3716
  108OSM    H5S11012   2.240   7.569   6.247  1.0276 -1.0348 -1.6262
  108OSM    C6S11013   2.107   7.535   6.080 -0.0946  1.1516  0.2914
  108OSM    H6S11014   2.197   7.543   6.016 -0.3724  0.1266 -0.2451
  108OSM    H6T11015   2.051   7.631   6.085 -1.3710  0.3546  2.9737
  108OSM    C7S11016   2.019   7.435   6.013  0.2631  0.8495 -0.8166
  108OSM    H7S11017   1.921   7.429   6.065  1.7017 -2.9038  1.9131
  108OSM    H7T11018   2.060   7.332   6.020 -1.6967  0.0845  0.0751
  108OSM    C8S11019   1.987   7.461   5.863  0.4062  0.2593  0.1032
  108OSM    H8S11020   2.011   7.568   5.843 -0.1304  0.2473 -0.6323
  108OSM    H8T11021   1.882   7.443   5.833  1.0633 -0.7665 -1.6964
  108OSM    C9S11022   2.068   7.380   5.761  0.6814  0.9001 -1.1896
  108OSM    H9S11023   2.015   7.283   5.753 -0.1304  1.3609 -1.5000
  108OSM    H9T11024   2.167   7.351   5.805 -0.6162 -1.3310  0.4642
  108OSM   C10S11025   2.078   7.439   5.622  0.5891 -0.1546 -0.1133
  108OSM   H10S11026   2.110   7.544   5.638  1.4567 -0.1164 -1.8962
  108OSM   H10T11027   1.974   7.450   5.585  0.6645  0.0895 -0.2506
  108OSM   C11S11028   2.165   7.357   5.526 -0.0953  0.1574 -0.4659
  108OSM   H11S11029   2.264   7.356   5.575 -0.5887 -1.6614  0.5930
  108OSM   H11T11030   2.175   7.410   5.428 -1.0973 -0.8569 -1.1539
  108OSM   C12S11031   2.126   7.211   5.505 -0.5408 -0.4955 -0.0803
  108OSM   H12S11032   2.024   7.209   5.463  0.0504 -1.1955 -1.5439
  108OSM   H12T11033   2.117   7.160   5.603 -0.1797  1.9715  1.3294
  108OSM   C13S11034   2.226   7.130   5.421  0.4634 -0.2308 -0.5061
  108OSM   H13S11035   2.200   7.022   5.429  1.6365 -0.5140 -0.2902
  108OSM   H13T11036   2.325   7.157   5.463  0.8021 -1.1244 -0.7022
  108OSM   C14S11037   2.218   7.158   5.275  0.3045  0.2260  0.0376
  108OSM   H14S11038   2.259   7.261   5.263 -0.5943  0.3745 -2.1491
  108OSM   H14T11039   2.113   7.143   5.242  0.5546  1.7866 -1.6207
  108OSM   C15S11040   2.292   7.061   5.181 -0.6701  0.4007 -0.8242
  108OSM   H15S11041   2.240   6.963   5.191 -0.7810  0.6206  1.2827
  108OSM   H15T11042   2.391   7.047   5.230 -0.8882  2.0640  0.1650
  108OSM   C16S11043   2.308   7.110   5.039 -0.3402 -0.6268 -0.6604
  108OSM   H16S11044   2.361   7.028   4.985 -0.2298 -1.1129  0.1603
  108OSM   H16T11045   2.360   7.208   5.045 -2.2433  0.4280 -0.8060
  108OSM   C17S11046   2.174   7.127   4.969 -0.2082  0.1435 -0.0173
  108OSM   H17S11047   2.104   7.197   5.021 -1.6939 -1.0922 -0.2972
  108OSM   H17T11048   2.117   7.033   4.955 -0.7674  0.4796 -0.0423
  108OSM   C18S11049   2.194   7.200   4.833  0.1638  0.0492  0.5910
  108OSM   H18S11050   2.209   7.307   4.862  1.1737 -0.1306  0.7767
  108OSM   H18T11051   2.106   7.170   4.773  0.3130 -1.5787  1.1391
  108OSM   H18U11052   2.281   7.157   4.778  2.1754  2.7952  1.4048
  108OSM    C1F11053   2.280   7.036   6.277 -0.3605 -0.2272  0.6064
  108OSM     OF11054   2.174   6.971   6.268  0.1118 -0.2313  0.1061
  108OSM    C2F11055   2.410   6.988   6.235 -0.7269  0.5865 -0.0897
  108OSM    H2F11056   2.466   6.916   6.298 -0.2876  0.6709 -0.3810
  108OSM    H2G11057   2.484   7.071   6.233 -1.1818  1.1160  1.9781
  108OSM    C3F11058   2.411   6.936   6.086  0.0605  0.1141 -0.3400
  108OSM    H3F11059   2.344   6.848   6.074  1.6310 -0.9143 -2.0093
  108OSM    H3G11060   2.517   6.907   6.066  0.6950  0.9478  1.5700
  108OSM    C4F11061   2.360   7.035   5.983  0.1843  0.0994 -0.7011
  108OSM    H4F11062   2.395   7.136   6.015  2.2623 -1.1960  1.4628
  108OSM    H4G11063   2.249   7.027   5.993  0.4629 -1.6406  1.6894
  108OSM    C5F11064   2.395   7.008   5.845  0.1530 -0.0082 -0.3300
  108OSM    H5F11065   2.494   7.054   5.825 -0.7920  1.6920 -1.3702
  108OSM    H5G11066   2.332   7.068   5.775  0.2693  1.1358  0.5069
  108OSM    C6F11067   2.396   6.857   5.815 -0.5335  0.1663 -1.0843
  108OSM    H6F11068   2.302   6.806   5.847  0.3349 -0.3415  0.8275
  108OSM    H6G11069   2.480   6.802   5.864 -1.4790  0.6459  1.2229
  108OSM    C7F11070   2.415   6.821   5.667 -0.1815 -0.6031 -0.2853
  108OSM    H7F11071   2.341   6.867   5.597  1.2989  0.1550 -1.4162
  108OSM    H7G11072   2.405   6.714   5.641 -0.0237 -0.7642  0.3129
  108OSM    C8F11073   2.559   6.871   5.613 -0.1911  0.3069 -0.8908
  108OSM    H8F11074   2.638   6.816   5.668  0.7967  1.2515 -1.3232
  108OSM    H8G11075   2.556   6.980   5.636  2.8835  0.4254 -0.5709
  108OSM    C9F11076   2.567   6.855   5.469 -0.4898 -0.0280  0.2786
  108OSM    H9F11077   2.490   6.914   5.418 -3.1184 -3.7092 -0.3822
  108OSM   C10F11078   2.660   6.798   5.398 -0.2484 -0.2826 -0.1248
  108OSM   H10F11079   2.642   6.802   5.289 -1.4715  0.4906  0.0830
  108OSM   C11F11080   2.777   6.719   5.455  0.2531 -0.0409 -0.2207
  108OSM   H11F11081   2.792   6.647   5.372  0.7719  2.8707 -2.8491
  108OSM   H11G11082   2.737   6.657   5.538  1.6019  2.4942  2.4967
  108OSM   C12F11083   2.884   6.803   5.522  0.0372  0.3745  0.6171
  108OSM   H12F11084   2.844   6.868   5.603 -1.8574 -0.3347  0.2958
  108OSM   H12G11085   2.917   6.862   5.433 -0.6062  0.1525  0.2239
  108OSM   C13F11086   2.985   6.697   5.560 -0.4579 -0.0135 -0.0225
  108OSM   H13F11087   3.015   6.663   5.458 -0.7446  1.8807 -0.7900
  108OSM   H13G11088   2.937   6.610   5.609  0.4194  0.1484  1.1715
  108OSM   C14F11089   3.100   6.754   5.642 -0.6158 -0.7977  0.2994
  108OSM   H14F11090   3.156   6.806   5.562 -0.4475 -0.3823  0.6793
  108OSM   H14G11091   3.172   6.681   5.684  0.7495 -0.3773 -1.2094
  108OSM   C15F11092   3.059   6.850   5.759 -0.1587 -0.5322 -0.2945
  108OSM   H15F11093   2.997   6.935   5.720  0.0536 -0.9383 -1.5867
  108OSM   H15G11094   3.146   6.913   5.787  1.5065 -0.3404 -5.0246
  108OSM   C16F11095   2.999   6.777   5.872 -0.0201  0.4043 -0.2468
  108OSM   H16F11096   3.081   6.729   5.929 -1.0365  0.5228  1.3646
  108OSM   H16G11097   2.929   6.697   5.839 -0.4045  0.8544 -0.5267
  108OSM   C17F11098   2.917   6.867   5.964 -0.2728  0.5554 -0.0040
  108OSM   H17F11099   2.974   6.961   5.976 -1.5473  1.1106  2.2016
  108OSM   H17G11100   2.918   6.810   6.060  2.5290  0.6284  0.0770
  108OSM   C18F11101   2.778   6.894   5.911  0.4189  0.7091 -0.4487
  108OSM   H18F11102   2.713   6.958   5.974 -0.5545  1.0299 -1.7144
  108OSM   H18G11103   2.725   6.796   5.910 -0.5499  1.2154 -0.0570
  108OSM   H18H11104   2.786   6.924   5.804  2.9051  0.0692 -0.5010
  109OSM      N11105   0.664   3.122   6.845 -0.3907  0.4752  0.6002
  109OSM    C1511106   0.737   3.194   6.948  0.1279 -0.2302 -0.9833
  109OSM   H15A11107   0.820   3.135   6.983  0.6420 -0.2677 -2.2108
  109OSM   H15B11108   0.675   3.227   7.030  1.0087  3.0467 -1.4698
  109OSM   H15C11109   0.772   3.290   6.911 -0.1886  0.0487 -0.5765
  109OSM    C1411110   0.615   2.997   6.906  0.1721  0.4023 -0.0741
  109OSM   H14A11111   0.548   2.939   6.845  0.9327 -1.5760  0.8975
  109OSM   H14B11112   0.555   3.010   6.996  1.6317 -1.9704  1.3323
  109OSM   H14C11113   0.694   2.926   6.924 -1.7762 -2.0402 -0.6395
  109OSM    C1311114   0.542   3.205   6.811  0.4344  0.1353  0.0714
  109OSM   H13A11115   0.506   3.173   6.715  2.0245 -2.7029  0.3118
  109OSM   H13B11116   0.579   3.307   6.810  1.2207 -0.1375 -1.7803
  109OSM   H13C11117   0.462   3.204   6.883 -0.4243 -0.8266 -0.8606
  109OSM    C1211118   0.753   3.101   6.729 -0.0098  0.0132  0.3045
  109OSM   H12A11119   0.843   3.043   6.743 -0.1362 -0.4711 -0.7366
  109OSM   H12B11120   0.780   3.196   6.686 -2.1594 -0.0360 -1.3154
  109OSM    C1111121   0.702   3.039   6.591 -0.4751  0.2168  0.3838
  109OSM   H11A11122   0.778   3.052   6.511 -0.0306  1.2725  0.9605
  109OSM   H11B11123   0.614   3.099   6.563  0.3940  0.9600 -0.8084
  109OSM      P11124   0.755   2.781   6.649 -0.0265  0.1591 -0.3109
  109OSM    O1311125   0.829   2.810   6.767 -0.0177 -0.6455 -0.2055
  109OSM    O1411126   0.679   2.656   6.647  0.0284 -0.3203 -0.3141
  109OSM    O1111127   0.859   2.779   6.530  0.7871  0.6778 -0.6921
  109OSM    O1211128   0.661   2.905   6.597  0.1280  0.1044 -0.9261
  109OSM    C1S11129   0.805   2.768   6.395 -0.6023 -0.0973 -0.7026
  109OSM    H1S11130   0.784   2.874   6.370 -1.3109 -0.1029 -0.1430
  109OSM    H1T11131   0.706   2.718   6.393  0.4698 -2.3567 -1.3885
  109OSM     NF11132   0.828   2.712   6.153 -0.2731  0.1915 -0.0158
  109OSM    HNF11133   0.808   2.623   6.112  1.5338 -0.9344  1.3927
  109OSM    C2S11134   0.890   2.704   6.289 -0.6142 -0.1361  0.0357
  109OSM    H2S11135   0.989   2.755   6.292  1.4351 -3.6916 -0.7663
  109OSM    C3S11136   0.930   2.561   6.346 -0.7715  0.1568  0.1715
  109OSM    H3S11137   0.839   2.501   6.365  0.5097 -1.7002  0.7578
  109OSM     O311138   1.006   2.568   6.462 -0.4426  0.5189  0.2857
  109OSM    HO311139   0.995   2.659   6.492  2.9600  2.2280 -2.9195
  109OSM    C4S11140   1.006   2.484   6.235  0.5966 -0.3495  0.0182
  109OSM    H4S11141   0.935   2.425   6.175  1.5810  0.9933 -2.6227
  109OSM    C5S11142   1.126   2.511   6.181  0.6243 -0.7822 -0.4204
  109OSM    H5S11143   1.189   2.589   6.226  0.0957 -0.5965  0.0132
  109OSM    C6S11144   1.167   2.453   6.043 -0.3436  0.4297 -0.4926
  109OSM    H6S11145   1.169   2.342   6.039  0.3729  0.4582 -1.1750
  109OSM    H6T11146   1.272   2.475   6.012 -0.0470 -0.2623 -0.0213
  109OSM    C7S11147   1.076   2.509   5.931  0.1958 -0.5793  0.7522
  109OSM    H7S11148   1.077   2.619   5.943  1.0343 -0.4058 -0.6332
  109OSM    H7T11149   0.971   2.476   5.947 -0.1106  0.2880  0.5888
  109OSM    C8S11150   1.118   2.463   5.791 -0.0976 -0.4685  0.2361
  109OSM    H8S11151   1.121   2.352   5.788  0.4930 -0.4376 -1.9644
  109OSM    H8T11152   1.223   2.498   5.783 -0.3880  0.6896  1.1526
  109OSM    C9S11153   1.028   2.507   5.682 -0.2367 -0.3926 -1.1280
  109OSM    H9S11154   1.040   2.618   5.678 -0.6092 -0.2633  0.4889
  109OSM    H9T11155   0.926   2.477   5.715  0.5316 -2.1677 -0.2251
  109OSM   C10S11156   1.080   2.448   5.555 -0.0024 -0.5241  0.4760
  109OSM   H10S11157   1.069   2.338   5.557  0.1584 -0.5357  0.8104
  109OSM   H10T11158   1.188   2.468   5.541  0.1950 -2.0807 -0.4753
  109OSM   C11S11159   0.993   2.500   5.433 -0.9007 -0.2907  0.2496
  109OSM   H11S11160   0.988   2.610   5.447 -3.2840 -0.0376 -1.9226
  109OSM   H11T11161   0.888   2.466   5.443 -0.7688 -0.5861  0.7042
  109OSM   C12S11162   1.054   2.451   5.300  0.0054  0.1905 -0.0143
  109OSM   H12S11163   1.030   2.343   5.290  2.6359 -0.5664  1.0186
  109OSM   H12T11164   1.164   2.464   5.303  0.3138 -0.9753 -2.9880
  109OSM   C13S11165   0.996   2.524   5.187 -0.2003 -0.1636 -0.3068
  109OSM   H13S11166   1.011   2.634   5.197  1.7663 -0.1354 -2.5439
  109OSM   H13T11167   0.886   2.512   5.196  0.0336 -1.9306  0.5456
  109OSM   C14S11168   1.031   2.481   5.049 -0.3662 -0.1185  0.0954
  109OSM   H14S11169   0.987   2.551   4.975 -1.4997 -1.6336 -0.7045
  109OSM   H14T11170   1.009   2.377   5.018  2.0234  0.5871 -5.1317
  109OSM   C15S11171   1.190   2.487   5.017 -0.0835  0.0361 -0.8330
  109OSM   H15S11172   1.242   2.407   5.075 -0.7510 -0.1297 -0.4481
  109OSM   H15T11173   1.237   2.580   5.056 -0.8289  0.6398 -1.3372
  109OSM   C16S11174   1.217   2.479   4.867  0.2842  0.3925 -0.0742
  109OSM   H16S11175   1.192   2.567   4.805  0.5281 -0.5336 -1.5325
  109OSM   H16T11176   1.155   2.394   4.831  1.4726 -0.2559 -0.6421
  109OSM   C17S11177   1.357   2.437   4.839  0.1384  0.6761  0.2242
  109OSM   H17S11178   1.393   2.360   4.910  1.0603 -0.3222 -1.2642
  109OSM   H17T11179   1.430   2.520   4.854  0.7313  0.2194 -0.0751
  109OSM   C18S11180   1.380   2.378   4.702  0.2270 -0.0827  0.8367
  109OSM   H18S11181   1.490   2.364   4.691 -0.0833 -3.5620  1.1341
  109OSM   H18T11182   1.338   2.440   4.620  1.3555 -0.5172 -0.0968
  109OSM   H18U11183   1.335   2.277   4.700 -0.9676  0.4006  1.9352
  109OSM    C1F11184   0.819   2.829   6.083  0.7631 -0.1891 -0.3596
  109OSM     OF11185   0.866   2.938   6.131 -0.3219 -0.0041 -0.4250
  109OSM    C2F11186   0.760   2.840   5.946  0.6501  0.2791 -0.3015
  109OSM    H2F11187   0.806   2.928   5.895 -0.0076  0.2174 -1.0213
  109OSM    H2G11188   0.655   2.877   5.951  1.5364  3.0170  0.1767
  109OSM    C3F11189   0.780   2.718   5.858 -0.0311 -0.0758  0.8410
  109OSM    H3F11190   0.737   2.627   5.904 -0.8520 -0.3019 -0.3184
  109OSM    H3G11191   0.886   2.688   5.842  0.3199  1.4661  0.0411
  109OSM    C4F11192   0.732   2.735   5.712  0.4712 -0.4583  0.4954
  109OSM    H4F11193   0.623   2.755   5.727  0.2406 -2.4333  1.7307
  109OSM    H4G11194   0.744   2.651   5.641 -0.7146  0.4138 -0.7990
  109OSM    C5F11195   0.794   2.860   5.638 -0.2798 -0.6296 -0.2053
  109OSM    H5F11196   0.904   2.847   5.637 -0.4925 -2.8373 -1.8739
  109OSM    H5G11197   0.766   2.959   5.680 -1.2039 -0.0224 -2.1292
  109OSM    C6F11198   0.769   2.862   5.481  0.2566 -0.2252 -0.0526
  109OSM    H6F11199   0.668   2.817   5.466  0.4426 -0.6877  0.0700
  109OSM    H6G11200   0.836   2.790   5.431  0.8809 -0.3497  0.9256
  109OSM    C7F11201   0.778   3.002   5.415 -0.7483 -0.3874  0.2760
  109OSM    H7F11202   0.880   3.046   5.420  0.2555 -2.6754  1.4932
  109OSM    H7G11203   0.717   3.078   5.468 -1.4203 -0.8064  0.1154
  109OSM    C8F11204   0.725   2.995   5.270 -0.4032  0.3320  0.2686
  109OSM    H8F11205   0.684   3.095   5.246  0.2069  0.4592 -0.2684
  109OSM    H8G11206   0.646   2.918   5.264  0.9817 -1.3585  2.1979
  109OSM    C9F11207   0.825   2.951   5.168  0.8874 -0.8247  0.5006
  109OSM    H9F11208   0.829   2.841   5.164  1.0786 -0.7911 -0.3153
  109OSM   C10F11209   0.914   3.022   5.095  0.5967 -0.1735  0.9362
  109OSM   H10F11210   0.984   2.964   5.032  0.6174 -0.9002  1.6218
  109OSM   C11F11211   0.940   3.164   5.110 -0.3487 -0.0065  0.4780
  109OSM   H11F11212   1.050   3.174   5.094 -0.6287  0.9536 -0.9996
  109OSM   H11G11213   0.911   3.202   5.211  0.6742  1.8107  0.1309
  109OSM   C12F11214   0.875   3.243   4.997  0.0874 -0.2702 -0.4707
  109OSM   H12F11215   0.902   3.350   5.015 -0.7444  0.0173 -0.8818
  109OSM   H12G11216   0.765   3.233   4.991  0.2875 -1.8096 -3.3546
  109OSM   C13F11217   0.913   3.206   4.857 -0.4776  0.6202  0.0246
  109OSM   H13F11218   0.849   3.119   4.830  1.3849 -0.5275 -0.8887
  109OSM   H13G11219   1.013   3.159   4.863 -1.0467 -0.6617 -0.1485
  109OSM   C14F11220   0.899   3.311   4.746  0.0269  0.0992 -0.0476
  109OSM   H14F11221   0.977   3.389   4.763  1.5395 -0.4492 -3.5949
  109OSM   H14G11222   0.800   3.355   4.766  0.1586 -0.4412  2.0299
  109OSM   C15F11223   0.926   3.263   4.597 -0.1083 -0.3412  0.1627
  109OSM   H15F11224   0.863   3.174   4.574 -0.0080 -0.0125 -1.5554
  109OSM   H15G11225   1.026   3.216   4.588  0.2679  0.6302 -1.0245
  109OSM   C16F11226   0.922   3.371   4.490  0.2661 -0.1405 -0.7045
  109OSM   H16F11227   1.005   3.438   4.522  1.3479 -0.9284 -1.7700
  109OSM   H16G11228   0.832   3.436   4.487 -0.1386 -0.7366 -2.2930
  109OSM   C17F11229   0.946   3.307   4.357  0.3948  0.4185  0.0448
  109OSM   H17F11230   0.872   3.225   4.341 -0.8134  1.4937  0.0013
  109OSM   H17G11231   1.049   3.266   4.349  1.0650  1.0367  3.7194
  109OSM   C18F11232   0.920   3.406   4.240  0.3984 -0.1353 -0.2130
  109OSM   H18F11233   0.946   3.354   4.145 -2.5849 -2.4510  0.0708
  109OSM   H18G11234   0.994   3.488   4.251 -1.4244  1.7013 -1.0001
  109OSM   H18H11235   0.817   3.447   4.243  0.3646 -0.2034  2.6019
  110OSM      N11236   2.068   5.037   7.027 -0.0076 -0.0785  0.3624
  110OSM    C1511237   2.065   5.046   6.878  0.4367  0.2932 -0.6466
  110OSM   H15A11238   2.026   5.142   6.847 -1.5624  0.7729  2.8345
  110OSM   H15B11239   2.008   4.968   6.830  1.9566 -1.9791  1.0732
  110OSM   H15C11240   2.169   5.035   6.851  0.7063 -0.0798  0.5008
  110OSM    C1411241   2.168   5.134   7.082 -0.1782  0.1991 -0.2306
  110OSM   H14A11242   2.147   5.238   7.060  1.5790  0.9248  1.2038
  110OSM   H14B11243   2.264   5.106   7.041  1.0188  2.4638  0.8255
  110OSM   H14C11244   2.180   5.130   7.190 -1.7185  0.6947 -0.0169
  110OSM    C1311245   1.936   5.079   7.086 -0.2734 -0.2316  0.1384
  110OSM   H13A11246   1.870   5.000   7.054 -0.3193  0.3786 -1.3740
  110OSM   H13B11247   1.898   5.175   7.052 -1.5578 -0.5418  0.6065
  110OSM   H13C11248   1.939   5.083   7.194  1.9733  0.1424  0.0933
  110OSM    C1211249   2.107   4.900   7.078  0.2910 -0.3053  0.2502
  110OSM   H12A11250   2.024   4.835   7.053  0.8676 -0.4506 -1.3626
  110OSM   H12B11251   2.109   4.894   7.186 -1.0502 -2.1685  0.2037
  110OSM    C1111252   2.243   4.840   7.032  0.0796  0.4888  0.0580
  110OSM   H11A11253   2.253   4.754   7.102 -1.4234  0.2762  0.0584
  110OSM   H11B11254   2.321   4.919   7.028 -0.6361  1.1653 -1.8198
  110OSM      P11255   2.155   4.655   6.877 -0.0148  0.3832 -0.1026
  110OSM    O1311256   2.257   4.549   6.911  0.0892  0.0495  0.4092
  110OSM    O1411257   2.019   4.638   6.942  0.1116  0.2068  0.1845
  110OSM    O1111258   2.126   4.658   6.716 -0.6980  0.2825  0.5804
  110OSM    O1211259   2.219   4.797   6.902 -0.0856 -0.0772  0.3452
  110OSM    C1S11260   2.094   4.792   6.660  0.6965  0.3271 -0.2622
  110OSM    H1S11261   2.177   4.864   6.672  1.9122 -0.8680 -1.2715
  110OSM    H1T11262   2.012   4.853   6.703  1.2286  0.0912  1.1555
  110OSM     NF11263   2.080   4.912   6.443 -0.3657  0.2984  0.5729
  110OSM    HNF11264   1.998   4.942   6.394 -0.9129  1.7068  2.2791
  110OSM    C2S11265   2.066   4.784   6.507 -0.6697 -0.2485 -0.2834
  110OSM    H2S11266   2.148   4.720   6.467  0.3747 -0.2026  1.6662
  110OSM    C3S11267   1.929   4.719   6.484  0.0028  0.1721 -0.4737
  110OSM    H3S11268   1.852   4.793   6.516 -0.5911 -0.0221 -1.4245
  110OSM     O311269   1.909   4.589   6.548  0.3156  0.8001 -0.0540
  110OSM    HO311270   1.990   4.572   6.597 -0.9477  0.6731  2.1419
  110OSM    C4S11271   1.890   4.693   6.339 -0.1719  0.5993  0.5721
  110OSM    H4S11272   1.934   4.610   6.281 -1.9972 -0.2498  0.3428
  110OSM    C5S11273   1.790   4.750   6.272 -0.0593  0.5028 -0.1539
  110OSM    H5S11274   1.732   4.832   6.316 -0.1646  1.2341 -1.5879
  110OSM    C6S11275   1.733   4.707   6.134  0.5069  1.0525 -0.3741
  110OSM    H6S11276   1.627   4.735   6.119 -0.1296 -1.7881 -2.0302
  110OSM    H6T11277   1.736   4.596   6.128  0.5251  1.1123 -2.1553
  110OSM    C7S11278   1.820   4.760   6.026 -0.3668 -0.2475 -0.2243
  110OSM    H7S11279   1.927   4.735   6.043 -0.1663  1.1842  0.7581
  110OSM    H7T11280   1.818   4.870   6.015 -0.4232 -0.3460 -1.2364
  110OSM    C8S11281   1.773   4.702   5.896 -0.2601  0.1653 -0.1486
  110OSM    H8S11282   1.678   4.756   5.873  0.5895  2.2896  1.0536
  110OSM    H8T11283   1.748   4.596   5.921 -2.4078  0.4933 -0.7099
  110OSM    C9S11284   1.858   4.716   5.771  0.5552 -0.2850 -0.2574
  110OSM    H9S11285   1.956   4.663   5.768  1.1410  0.7063  0.4628
  110OSM    H9T11286   1.893   4.821   5.771  3.2867 -1.1010 -1.1950
  110OSM   C10S11287   1.781   4.685   5.639 -0.3787 -0.5910 -0.0338
  110OSM   H10S11288   1.723   4.778   5.625  0.2950 -0.2551 -0.6728
  110OSM   H10T11289   1.714   4.600   5.667 -1.7242  0.5069  0.1885
  110OSM   C11S11290   1.878   4.662   5.517 -0.4507 -0.7417 -0.2344
  110OSM   H11S11291   1.942   4.573   5.539 -2.0270 -2.0107 -0.6316
  110OSM   H11T11292   1.923   4.759   5.489 -1.5596 -0.4578 -1.0809
  110OSM   C12S11293   1.804   4.635   5.378 -0.4470 -0.5920 -0.7569
  110OSM   H12S11294   1.707   4.689   5.374 -0.7877 -0.7687  2.4524
  110OSM   H12T11295   1.773   4.528   5.372 -0.1244 -0.6899 -0.6973
  110OSM   C13S11296   1.900   4.666   5.268  0.1714 -0.3390 -0.3850
  110OSM   H13S11297   2.001   4.626   5.293  0.1763  0.0893  0.2870
  110OSM   H13T11298   1.912   4.776   5.261  3.1809 -0.6597 -2.0355
  110OSM   C14S11299   1.866   4.602   5.134 -0.4210 -0.4162 -0.0072
  110OSM   H14S11300   1.774   4.654   5.103  0.4938  2.1000  1.2150
  110OSM   H14T11301   1.834   4.497   5.152 -0.8333 -0.3613 -0.4151
  110OSM   C15S11302   1.979   4.602   5.030 -0.3869  0.1405  0.5898
  110OSM   H15S11303   1.947   4.547   4.939 -2.5026 -0.1452  1.4511
  110OSM   H15T11304   2.066   4.548   5.075 -0.3585 -0.3957 -0.0935
  110OSM   C16S11305   2.035   4.740   4.996 -0.1066  0.3433  0.7834
  110OSM   H16S11306   2.109   4.772   5.073 -0.4301  2.3911  0.2995
  110OSM   H16T11307   1.959   4.820   5.000 -0.0533  0.4982 -0.7274
  110OSM   C17S11308   2.094   4.745   4.854 -0.4915 -0.3022 -0.0689
  110OSM   H17S11309   2.014   4.751   4.777  0.9155 -1.7694 -1.7459
  110OSM   H17T11310   2.163   4.662   4.826  3.1123  2.5565 -0.4852
  110OSM   C18S11311   2.194   4.859   4.836  0.2506 -0.0327 -0.3814
  110OSM   H18S11312   2.282   4.830   4.897 -0.9987 -0.0895  1.4905
  110OSM   H18T11313   2.156   4.958   4.871  1.7768  0.2580  0.5158
  110OSM   H18U11314   2.230   4.860   4.732 -1.2609 -1.4466 -0.9646
  110OSM    C1F11315   2.195   4.981   6.435  0.2105  0.1611 -0.1221
  110OSM     OF11316   2.309   4.945   6.468 -0.3332 -0.0003 -0.1707
  110OSM    C2F11317   2.182   5.122   6.374  0.4181  0.2617  0.2585
  110OSM    H2F11318   2.260   5.190   6.412 -0.7462  2.5273 -1.1890
  110OSM    H2G11319   2.090   5.173   6.408  3.0504  4.9971  1.1687
  110OSM    C3F11320   2.166   5.098   6.225 -0.4752  0.7145  0.2027
  110OSM    H3F11321   2.071   5.050   6.196 -1.4950  3.4033 -1.2729
  110OSM    H3G11322   2.250   5.037   6.185 -1.7661 -1.9269  1.2982
  110OSM    C4F11323   2.156   5.232   6.139  0.0727  0.1124  0.2280
  110OSM    H4F11324   2.244   5.290   6.172  1.0954 -0.9070 -0.6084
  110OSM    H4G11325   2.061   5.286   6.159  0.8870  1.9856 -0.7338
  110OSM    C5F11326   2.157   5.214   5.982 -0.0373  0.3117 -0.3397
  110OSM    H5F11327   2.079   5.143   5.947  1.6045 -0.5834 -2.4102
  110OSM    H5G11328   2.253   5.165   5.956 -0.2948 -0.0476 -0.6197
  110OSM    C6F11329   2.146   5.350   5.920 -0.0927  0.4308  0.3777
  110OSM    H6F11330   2.231   5.416   5.946 -0.2104  1.0993 -0.8758
  110OSM    H6G11331   2.056   5.401   5.962  0.2707 -0.3311  2.1924
  110OSM    C7F11332   2.143   5.343   5.771 -0.1631 -0.3644  0.0462
  110OSM    H7F11333   2.039   5.318   5.743 -0.0064 -1.3802  0.3209
  110OSM    H7G11334   2.210   5.263   5.734  0.8648  0.1497  0.7334
  110OSM    C8F11335   2.194   5.475   5.707  0.6133  0.0144  0.1927
  110OSM    H8F11336   2.194   5.466   5.596  0.1909  2.2593 -0.0326
  110OSM    H8G11337   2.302   5.484   5.733  0.5187  0.1463  0.5479
  110OSM    C9F11338   2.123   5.595   5.753  0.1851 -0.1090  0.7400
  110OSM    H9F11339   2.154   5.639   5.849 -1.9923 -0.7034  1.7865
  110OSM   C10F11340   2.014   5.635   5.692  0.3665  0.1862 -0.3514
  110OSM   H10F11341   1.958   5.717   5.740  2.4940  0.6465  1.5251
  110OSM   C11F11342   1.949   5.565   5.579 -0.5502  0.0820  0.9628
  110OSM   H11F11343   1.839   5.576   5.590 -0.7972 -0.6931 -0.4982
  110OSM   H11G11344   1.967   5.457   5.561  0.2342  0.6832 -2.6387
  110OSM   C12F11345   2.005   5.637   5.455  0.8064 -0.3047  0.7597
  110OSM   H12F11346   2.109   5.675   5.469  0.5163  0.6482  0.3858
  110OSM   H12G11347   1.942   5.727   5.441 -0.2678 -1.1110  0.2498
  110OSM   C13F11348   1.994   5.543   5.325  0.1113 -0.1712  0.2483
  110OSM   H13F11349   1.889   5.509   5.314 -0.1664  0.3275  1.2149
  110OSM   H13G11350   2.061   5.458   5.349  1.1055  0.7451  0.8416
  110OSM   C14F11351   2.022   5.606   5.188 -0.2173  0.6806 -0.6225
  110OSM   H14F11352   2.123   5.651   5.180 -0.8259  1.9769 -1.2378
  110OSM   H14G11353   1.948   5.684   5.161 -1.0259  0.3700  0.5952
  110OSM   C15F11354   2.005   5.496   5.084 -0.0752  0.1730 -0.2042
  110OSM   H15F11355   1.904   5.452   5.100 -0.2433  0.5975 -0.0943
  110OSM   H15G11356   2.073   5.410   5.100 -0.6563 -0.0623  1.1795
  110OSM   C16F11357   2.021   5.548   4.939  0.2105  0.1237 -0.4770
  110OSM   H16F11358   2.125   5.588   4.945  0.4789 -0.5428 -0.4859
  110OSM   H16G11359   1.961   5.641   4.938  1.0677  0.8333  2.7199
  110OSM   C17F11360   1.991   5.450   4.827 -0.0237  0.9802  0.6733
  110OSM   H17F11361   1.892   5.401   4.838  0.6579 -0.4844  0.4657
  110OSM   H17G11362   2.067   5.370   4.821  1.1324  1.4713  5.0068
  110OSM   C18F11363   1.972   5.518   4.691  0.0612  0.4829 -0.0430
  110OSM   H18F11364   2.054   5.592   4.674  1.2155 -1.1377 -1.9456
  110OSM   H18G11365   1.875   5.570   4.704 -1.4384 -1.7263 -1.6298
  110OSM   H18H11366   1.952   5.439   4.615 -0.3161 -0.1839  0.7407
  111OSM      N11367   5.341   5.012   6.994 -0.2153 -0.2756  0.6162
  111OSM    C1511368   5.332   5.087   7.123 -0.3425 -0.0078  0.4522
  111OSM   H15A11369   5.239   5.139   7.138 -0.4840 -0.8546  2.9160
  111OSM   H15B11370   5.414   5.157   7.125 -0.1100 -0.2559 -0.1578
  111OSM   H15C11371   5.341   5.011   7.199  0.6779 -0.5155 -0.1564
  111OSM    C1411372   5.447   4.908   7.003 -0.1144 -0.2052  0.0197
  111OSM   H14A11373   5.543   4.954   6.985 -0.2454  0.6316  1.3377
  111OSM   H14B11374   5.439   4.825   6.934 -2.1698 -0.0138 -0.0248
  111OSM   H14C11375   5.453   4.860   7.100 -1.9777 -0.4932  0.0194
  111OSM    C1311376   5.211   4.942   6.975  0.1638  0.0738  0.2813
  111OSM   H13A11377   5.134   5.008   7.013  0.4062 -0.6184  2.0567
  111OSM   H13B11378   5.199   4.852   7.033  1.0706  0.1081  0.5319
  111OSM   H13C11379   5.187   4.904   6.876  1.0429 -1.4745  0.6308
  111OSM    C1211380   5.362   5.111   6.878 -0.1594 -0.0476 -0.4997
  111OSM   H12A11381   5.452   5.166   6.899  0.3643 -1.2732  0.5826
  111OSM   H12B11382   5.280   5.182   6.885 -0.6174 -0.5975 -0.1730
  111OSM    C1111383   5.379   5.063   6.731  0.2611  0.5835  0.3036
  111OSM   H11A11384   5.477   5.010   6.733  0.7058  1.3614 -0.3912
  111OSM   H11B11385   5.398   5.147   6.661  1.6458  1.1800  1.3509
  111OSM      P11386   5.143   5.053   6.622 -0.4591 -0.2103 -0.1973
  111OSM    O1311387   5.035   4.955   6.594  0.2879 -0.1268  0.3335
  111OSM    O1411388   5.106   5.161   6.722  0.0245  0.1951  0.0017
  111OSM    O1111389   5.198   5.115   6.491  0.1321 -0.2682  0.0652
  111OSM    O1211390   5.275   4.977   6.681  0.5315  0.1351  0.0028
  111OSM    C1S11391   5.110   5.141   6.381  0.3693  0.0961  0.3857
  111OSM    H1S11392   5.039   5.224   6.400 -0.5685 -0.7425  0.6233
  111OSM    H1T11393   5.043   5.054   6.364  1.0197 -0.5558  1.0687
  111OSM     NF11394   5.122   5.232   6.158 -0.1654  0.4499  0.6720
  111OSM    HNF11395   5.094   5.169   6.086  3.0549 -2.1641  1.4565
  111OSM    C2S11396   5.199   5.164   6.262 -0.4841 -1.3485 -0.0061
  111OSM    H2S11397   5.270   5.236   6.307 -1.0493 -1.5531  1.2499
  111OSM    C3S11398   5.284   5.048   6.209  0.1435  0.1246 -0.0355
  111OSM    H3S11399   5.224   4.973   6.154 -1.8800 -1.4097  3.8408
  111OSM     O311400   5.346   4.953   6.302  0.8174  0.1073  0.0036
  111OSM    HO311401   5.305   4.975   6.386  0.9850 -1.7431  0.6119
  111OSM    C4S11402   5.389   5.103   6.111  0.4725  0.2244 -0.7320
  111OSM    H4S11403   5.336   5.146   6.025  0.8659  5.4488  1.2824
  111OSM    C5S11404   5.525   5.118   6.109  0.5613  0.3296 -0.3274
  111OSM    H5S11405   5.593   5.090   6.191 -0.6338 -0.6673  0.3543
  111OSM    C6S11406   5.608   5.156   5.985  0.7932 -0.2293 -0.4182
  111OSM    H6S11407   5.677   5.071   5.966  1.8477  0.4622  0.2203
  111OSM    H6T11408   5.671   5.242   6.015  2.0968 -0.3041 -2.7328
  111OSM    C7S11409   5.526   5.182   5.861  0.1610  0.0769  0.2967
  111OSM    H7S11410   5.467   5.275   5.869 -1.0552 -0.7543  1.4712
  111OSM    H7T11411   5.455   5.098   5.845 -0.6904  0.6321  1.0622
  111OSM    C8S11412   5.616   5.183   5.732  0.4968 -0.3201 -0.8557
  111OSM    H8S11413   5.687   5.098   5.729  0.8975  0.0166 -0.9327
  111OSM    H8T11414   5.676   5.276   5.734 -0.4863  0.3450  1.5477
  111OSM    C9S11415   5.530   5.204   5.614  1.0175  0.4033  0.2471
  111OSM    H9S11416   5.470   5.294   5.638  0.0494  0.0703 -0.8407
  111OSM    H9T11417   5.449   5.132   5.587  0.4195  1.4974 -1.0040
  111OSM   C10S11418   5.619   5.230   5.495 -0.4140  0.1587 -0.2592
  111OSM   H10S11419   5.706   5.286   5.535 -1.0035  2.0630 -1.5059
  111OSM   H10T11420   5.573   5.287   5.411 -0.0265  0.2306 -0.4270
  111OSM   C11S11421   5.672   5.099   5.439  0.7601 -0.0690 -0.6623
  111OSM   H11S11422   5.586   5.038   5.404  2.1309 -1.4827 -1.7300
  111OSM   H11T11423   5.722   5.047   5.524 -2.4997  0.5388  1.8000
  111OSM   C12S11424   5.778   5.115   5.329  0.0347 -0.4004 -0.3167
  111OSM   H12S11425   5.839   5.023   5.322  1.3301  0.3408  0.9319
  111OSM   H12T11426   5.848   5.192   5.367  1.5233 -2.0614  0.4473
  111OSM   C13S11427   5.708   5.148   5.190 -0.3137  1.2591 -0.3980
  111OSM   H13S11428   5.647   5.241   5.194 -0.8177  0.9381 -0.4480
  111OSM   H13T11429   5.638   5.065   5.166  1.1881 -0.3396  0.5361
  111OSM   C14S11430   5.804   5.156   5.074  0.9831  0.4176  0.6001
  111OSM   H14S11431   5.860   5.060   5.078 -3.3534 -2.3765  1.7787
  111OSM   H14T11432   5.877   5.239   5.083  1.8143  0.0481 -1.8634
  111OSM   C15S11433   5.743   5.166   4.930  0.0164 -0.0423 -0.2956
  111OSM   H15S11434   5.677   5.255   4.940  0.1831 -0.0056  0.5676
  111OSM   H15T11435   5.687   5.077   4.896  0.9307 -0.6929 -0.1375
  111OSM   C16S11436   5.839   5.218   4.822 -0.1663  0.3916  0.2107
  111OSM   H16S11437   5.899   5.136   4.779  0.0343  1.9412 -2.7196
  111OSM   H16T11438   5.920   5.279   4.868  0.4709  0.3204 -0.7868
  111OSM   C17S11439   5.767   5.282   4.703  0.1622  0.3393  0.0885
  111OSM   H17S11440   5.699   5.359   4.745 -0.1453 -0.4323  1.0504
  111OSM   H17T11441   5.696   5.212   4.652 -2.2322  1.9643  1.0005
  111OSM   C18S11442   5.862   5.337   4.607  0.3090 -0.1076  0.0086
  111OSM   H18S11443   5.943   5.263   4.589  0.2243  0.3382 -2.5194
  111OSM   H18T11444   5.909   5.431   4.645  0.0948 -0.2759  0.7149
  111OSM   H18U11445   5.812   5.365   4.512  2.1101  1.5493 -0.5291
  111OSM    C1F11446   5.074   5.350   6.173  0.9027 -0.2642 -0.2211
  111OSM     OF11447   5.120   5.436   6.258  0.4399 -0.0616  0.3170
  111OSM    C2F11448   4.951   5.379   6.096  0.3050  0.3491 -0.2531
  111OSM    H2F11449   4.871   5.423   6.160 -0.0210  0.7173 -0.9061
  111OSM    H2G11450   4.928   5.280   6.050  0.8271 -0.2519  0.7492
  111OSM    C3F11451   4.982   5.482   5.991 -0.6967  0.1547  0.0124
  111OSM    H3F11452   5.073   5.454   5.933 -1.7207 -0.7354 -1.2288
  111OSM    H3G11453   5.003   5.581   6.036 -2.8463  0.6368  0.0848
  111OSM    C4F11454   4.867   5.498   5.890 -0.1882  0.2415 -0.0775
  111OSM    H4F11455   4.783   5.543   5.947 -0.3743  0.0820 -0.2241
  111OSM    H4G11456   4.828   5.401   5.853  0.0227 -0.0550  0.4637
  111OSM    C5F11457   4.909   5.585   5.761  0.7710  0.5429  0.1679
  111OSM    H5F11458   4.992   5.524   5.719  0.8730  0.5485  0.3623
  111OSM    H5G11459   4.935   5.684   5.804  3.2888 -0.0886  0.2743
  111OSM    C6F11460   4.790   5.600   5.660  0.0817  0.8337  0.2514
  111OSM    H6F11461   4.713   5.656   5.717  0.6344  0.2765  1.6141
  111OSM    H6G11462   4.736   5.509   5.627 -1.0572  1.6620 -0.2188
  111OSM    C7F11463   4.833   5.696   5.542 -0.6734  0.5795  0.9722
  111OSM    H7F11464   4.905   5.771   5.582 -2.3913  1.9641  1.5964
  111OSM    H7G11465   4.743   5.747   5.503 -1.0960 -0.3080  0.7611
  111OSM    C8F11466   4.908   5.608   5.436 -0.1118 -0.2890  0.8134
  111OSM    H8F11467   4.834   5.534   5.397 -0.0165  0.4639 -0.8772
  111OSM    H8G11468   4.986   5.546   5.484  0.3393 -1.8704 -1.7688
  111OSM    C9F11469   4.989   5.690   5.331 -0.3655  0.3795 -0.2888
  111OSM    H9F11470   5.091   5.723   5.356  0.0711  0.8982 -2.5032
  111OSM   C10F11471   4.946   5.736   5.210 -0.1588 -0.0248 -0.1079
  111OSM   H10F11472   5.020   5.796   5.154 -0.2480  3.0332  2.7741
  111OSM   C11F11473   4.812   5.713   5.151 -0.1852  0.0808  0.0897
  111OSM   H11F11474   4.758   5.810   5.153 -0.0240  0.2764 -2.1960
  111OSM   H11G11475   4.757   5.640   5.213  1.0016 -0.6862  0.2816
  111OSM   C12F11476   4.792   5.671   5.004 -0.8279 -0.7805  0.1529
  111OSM   H12F11477   4.690   5.644   4.967 -1.1029  0.6345 -0.1707
  111OSM   H12G11478   4.863   5.587   4.987  0.2164  0.2880 -1.0131
  111OSM   C13F11479   4.823   5.785   4.913 -0.2400 -0.2908  0.2556
  111OSM   H13F11480   4.897   5.849   4.965 -1.4747  0.2335  1.4294
  111OSM   H13G11481   4.745   5.864   4.912  1.0340  1.0110  0.4081
  111OSM   C14F11482   4.861   5.750   4.772 -0.2887 -0.3327  0.4431
  111OSM   H14F11483   4.952   5.688   4.762  0.7919  1.5394 -3.2054
  111OSM   H14G11484   4.886   5.838   4.709 -1.1370  0.1577  0.7715
  111OSM   C15F11485   4.762   5.656   4.701 -0.1764 -0.6953 -0.3442
  111OSM   H15F11486   4.667   5.710   4.679  0.1651 -0.4225 -1.2077
  111OSM   H15G11487   4.736   5.571   4.767  0.9088  0.6441  1.9590
  111OSM   C16F11488   4.814   5.599   4.568 -0.3297  0.0908  0.3029
  111OSM   H16F11489   4.750   5.514   4.538  1.8721 -1.5578  0.0261
  111OSM   H16G11490   4.914   5.550   4.575 -0.0855  0.0741 -2.2754
  111OSM   C17F11491   4.818   5.678   4.438  0.3845  0.3760 -0.3750
  111OSM   H17F11492   4.899   5.754   4.444  1.1772 -0.4834 -0.0183
  111OSM   H17G11493   4.720   5.727   4.415 -0.1097  0.1919  1.2276
  111OSM   C18F11494   4.850   5.589   4.314  0.0327 -0.5370  0.5946
  111OSM   H18F11495   4.853   5.656   4.226 -2.0200 -0.2553  0.6744
  111OSM   H18G11496   4.779   5.511   4.281  0.9169 -1.2939  0.4637
  111OSM   H18H11497   4.945   5.538   4.341  0.4061 -0.3479 -0.3336
  112OSM      N11498   0.529   0.880   6.908 -0.6959  0.3812 -0.1352
  112OSM    C1511499   0.409   0.947   6.853 -0.4518 -0.1337  0.2748
  112OSM   H15A11500   0.381   0.923   6.751  1.8611  0.6450 -0.6111
  112OSM   H15B11501   0.427   1.053   6.855  1.4693 -0.4087  0.1525
  112OSM   H15C11502   0.325   0.917   6.913 -1.0212  0.6936 -0.0984
  112OSM    C1411503   0.563   0.935   7.046 -0.2925  0.6360  0.8536
  112OSM   H14A11504   0.563   1.043   7.045 -0.2664  0.6498  1.6745
  112OSM   H14B11505   0.662   0.908   7.079  1.2289  0.5833 -3.1927
  112OSM   H14C11506   0.479   0.901   7.105 -1.5598  0.0484 -1.2079
  112OSM    C1311507   0.500   0.738   6.937  0.2366 -0.1212  0.3626
  112OSM   H13A11508   0.420   0.728   7.008  0.4261  0.8665  0.7331
  112OSM   H13B11509   0.587   0.691   6.981  1.2301  1.3814  0.0908
  112OSM   H13C11510   0.464   0.684   6.850 -0.6338 -2.1243  1.9019
  112OSM    C1211511   0.648   0.885   6.824  0.0249  0.5481  0.3371
  112OSM   H12A11512   0.719   0.836   6.890 -1.3548 -1.4902  0.4170
  112OSM   H12B11513   0.690   0.983   6.810  0.1064  0.2272 -2.1030
  112OSM    C1111514   0.651   0.817   6.689 -0.1514 -0.0706  0.1760
  112OSM   H11A11515   0.749   0.841   6.645  0.0222 -0.1865  0.4985
  112OSM   H11B11516   0.584   0.869   6.618 -1.4262 -0.3705  1.0967
  112OSM      P11517   0.519   0.612   6.598 -0.4305  0.2410 -0.0532
  112OSM    O1311518   0.552   0.467   6.589  0.1575 -0.5436 -0.4209
  112OSM    O1411519   0.378   0.659   6.629  0.5764  0.2669  0.5847
  112OSM    O1111520   0.570   0.683   6.468 -0.0095 -0.6913 -0.4331
  112OSM    O1211521   0.617   0.683   6.698 -0.0482  0.2360 -0.1277
  112OSM    C1S11522   0.541   0.639   6.337  0.0980 -0.7368 -0.1951
  112OSM    H1S11523   0.442   0.680   6.305  0.6880  0.8063 -0.1114
  112OSM    H1T11524   0.538   0.529   6.327  0.3585 -0.6970 -0.6953
  112OSM     NF11525   0.601   0.642   6.108  0.1802  0.4249  0.8055
  112OSM    HNF11526   0.646   0.558   6.080 -0.9694  0.1628 -0.3323
  112OSM    C2S11527   0.648   0.681   6.230  0.3618 -0.3982 -0.3856
  112OSM    H2S11528   0.647   0.792   6.226  0.9888 -0.4067 -0.9612
  112OSM    C3S11529   0.796   0.643   6.273  0.4021 -0.5749  0.1575
  112OSM    H3S11530   0.802   0.533   6.259 -0.0309 -0.5345 -0.3805
  112OSM     O311531   0.840   0.658   6.409 -0.8087  0.0708  0.2655
  112OSM    HO311532   0.759   0.656   6.460 -1.3986 -1.7066 -0.6579
  112OSM    C4S11533   0.893   0.704   6.173  0.5125 -0.1521 -0.0426
  112OSM    H4S11534   0.919   0.640   6.088 -0.4409  0.9755 -1.2229
  112OSM    C5S11535   0.952   0.826   6.171 -0.6142 -0.1324 -0.2534
  112OSM    H5S11536   0.927   0.894   6.255 -2.0143  1.9668 -2.2498
  112OSM    C6S11537   1.037   0.876   6.054  0.5906  0.4608  0.8189
  112OSM    H6S11538   1.141   0.839   6.061  0.6546  0.2309 -1.0110
  112OSM    H6T11539   1.046   0.986   6.046  2.8738  0.2813  0.2436
  112OSM    C7S11540   0.984   0.811   5.918  0.3543 -0.1341  0.1206
  112OSM    H7S11541   0.873   0.806   5.921  0.3352 -0.0031 -0.2789
  112OSM    H7T11542   1.024   0.707   5.916  0.4573 -0.0852 -0.6681
  112OSM    C8S11543   1.030   0.885   5.792 -0.0544 -0.3372  0.3452
  112OSM    H8S11544   1.141   0.882   5.780 -0.1254 -1.4087 -0.0989
  112OSM    H8T11545   1.003   0.993   5.798 -0.7620 -0.4674 -0.4638
  112OSM    C9S11546   0.964   0.828   5.664 -0.1721 -0.4231  0.7703
  112OSM    H9S11547   0.856   0.804   5.662 -0.1811 -0.3899 -1.3966
  112OSM    H9T11548   1.015   0.730   5.650 -1.8293 -1.7752  3.4790
  112OSM   C10S11549   0.988   0.911   5.528 -0.0962 -0.3968 -0.4353
  112OSM   H10S11550   1.092   0.951   5.525 -0.2792  0.0437 -0.9747
  112OSM   H10T11551   0.920   0.998   5.536 -1.1940 -1.0973 -1.6823
  112OSM   C11S11552   0.965   0.833   5.404  0.2907 -0.1625  0.7555
  112OSM   H11S11553   0.869   0.778   5.408  1.1164 -1.9360 -1.4428
  112OSM   H11T11554   1.037   0.748   5.401 -1.3347 -1.5909 -1.3305
  112OSM   C12S11555   0.974   0.915   5.276 -0.0809 -0.3031  0.0284
  112OSM   H12S11556   1.074   0.964   5.276  0.4893 -1.3451  2.4569
  112OSM   H12T11557   0.897   0.994   5.283 -1.5795 -1.7032  0.0071
  112OSM   C13S11558   0.956   0.848   5.141 -0.0815  0.3707 -0.1232
  112OSM   H13S11559   0.867   0.781   5.142  1.8013 -2.3611 -1.0024
  112OSM   H13T11560   1.033   0.768   5.128 -1.5099 -0.8313 -1.8735
  112OSM   C14S11561   0.956   0.947   5.023 -0.2957 -0.2707 -1.1310
  112OSM   H14S11562   1.061   0.983   5.016  0.5072 -2.2471 -0.1737
  112OSM   H14T11563   0.881   1.029   5.028  0.6020  0.5480 -0.7533
  112OSM   C15S11564   0.925   0.881   4.888 -0.1728  0.1866  0.5382
  112OSM   H15S11565   0.903   0.965   4.819 -2.1224  1.2229  2.2861
  112OSM   H15T11566   0.821   0.844   4.900 -1.5725  3.1784 -1.1828
  112OSM   C16S11567   1.025   0.777   4.829  0.5338  0.2562  0.4756
  112OSM   H16S11568   1.021   0.685   4.892 -2.1002  0.2588  0.4485
  112OSM   H16T11569   1.130   0.809   4.839  0.5423  0.2065  0.5465
  112OSM   C17S11570   0.987   0.740   4.689  0.7926  0.1368 -0.2670
  112OSM   H17S11571   0.877   0.732   4.687  0.7840 -0.2424  1.1094
  112OSM   H17T11572   1.027   0.641   4.656 -0.7058  0.4060 -3.2894
  112OSM   C18S11573   1.033   0.856   4.600  0.2074 -0.4210  0.0809
  112OSM   H18S11574   0.968   0.865   4.510  1.1186 -0.9876 -0.6496
  112OSM   H18T11575   1.136   0.838   4.565  0.3598  1.4198 -0.5109
  112OSM   H18U11576   1.032   0.954   4.653  1.3621 -1.0273  1.2758
  112OSM    C1F11577   0.492   0.693   6.042 -0.9086 -0.9021 -0.1898
  112OSM     OF11578   0.453   0.802   6.088  0.3728  0.2835 -0.4655
  112OSM    C2F11579   0.429   0.631   5.931 -0.0208 -0.9510 -0.0721
  112OSM    H2F11580   0.449   0.522   5.922  0.7044 -0.8691  0.4785
  112OSM    H2G11581   0.467   0.680   5.838  2.6286  1.5946  2.1409
  112OSM    C3F11582   0.274   0.664   5.936  0.0340 -0.7561  0.1702
  112OSM    H3F11583   0.259   0.774   5.939  1.0333 -0.6226  0.6873
  112OSM    H3G11584   0.226   0.623   6.027  0.3405 -0.4892  0.4580
  112OSM    C4F11585   0.196   0.617   5.808 -0.1018 -0.3561 -0.2280
  112OSM    H4F11586   0.088   0.620   5.833  0.1828  0.1497  1.0155
  112OSM    H4G11587   0.236   0.517   5.779  3.0591  1.3459 -2.4360
  112OSM    C5F11588   0.215   0.708   5.693 -0.3786 -0.6094  0.6657
  112OSM    H5F11589   0.322   0.706   5.664  0.6470  2.9917  3.4666
  112OSM    H5G11590   0.197   0.815   5.717 -2.5245 -0.3504 -1.6227
  112OSM    C6F11591   0.122   0.677   5.576 -0.4349  1.1723  0.2442
  112OSM    H6F11592   0.018   0.676   5.615 -0.5622  2.1935 -0.0279
  112OSM    H6G11593   0.149   0.576   5.539 -0.0002  0.9703  1.0873
  112OSM    C7F11594   0.139   0.777   5.454  0.4882 -0.2980  0.5901
  112OSM    H7F11595   0.248   0.796   5.440  0.0501  2.1148 -0.0277
  112OSM    H7G11596   0.082   0.868   5.482 -0.4377 -0.8636  0.5920
  112OSM    C8F11597   0.078   0.715   5.323 -1.2682 -0.0087  0.2911
  112OSM    H8F11598   0.042   0.795   5.255 -0.6111 -0.2244 -0.3168
  112OSM    H8G11599  -0.007   0.657   5.365 -1.7327 -1.5053 -2.4921
  112OSM    C9F11600   0.176   0.621   5.269 -0.1976  0.2596  0.5389
  112OSM    H9F11601   0.237   0.557   5.335 -0.1032 -0.6887 -0.4356
  112OSM   C10F11602   0.205   0.608   5.143  0.0783  0.1268 -0.4011
  112OSM   H10F11603   0.276   0.534   5.103  2.0160  0.8311  1.5801
  112OSM   C11F11604   0.147   0.700   5.039 -0.3979 -0.2109 -0.1968
  112OSM   H11F11605   0.191   0.801   5.053 -1.1198 -0.0340  0.9078
  112OSM   H11G11606   0.037   0.709   5.054 -0.3214  2.8708 -0.7986
  112OSM   C12F11607   0.164   0.657   4.888  0.0974 -0.4300 -0.9357
  112OSM   H12F11608   0.274   0.648   4.879  0.2575  0.2389  0.1187
  112OSM   H12G11609   0.124   0.738   4.823 -0.1513  2.3410  2.3395
  112OSM   C13F11610   0.094   0.524   4.856 -0.4764 -0.0552 -0.3074
  112OSM   H13F11611  -0.006   0.529   4.905 -0.7843  0.5330 -0.9669
  112OSM   H13G11612   0.149   0.453   4.922  0.0731  0.1635 -0.5256
  112OSM   C14F11613   0.078   0.476   4.709 -0.7190 -0.7802  0.4201
  112OSM   H14F11614   0.062   0.366   4.708 -0.1651 -0.8728 -1.3931
  112OSM   H14G11615   0.171   0.487   4.649 -1.4659 -0.7921 -0.7758
  112OSM   C15F11616  -0.027   0.554   4.626  0.5660 -0.6836 -0.3396
  112OSM   H15F11617   0.005   0.657   4.598 -2.4412  0.5676  0.3965
  112OSM   H15G11618  -0.110   0.575   4.696  0.7343  0.0782 -0.3518
  112OSM   C16F11619  -0.065   0.476   4.498  0.4450 -0.0627 -0.6002
  112OSM   H16F11620  -0.140   0.402   4.532 -0.0125  1.2019  1.2824
  112OSM   H16G11621   0.029   0.426   4.467  1.8666  2.0450  0.0730
  112OSM   C17F11622  -0.123   0.566   4.395 -0.1760 -0.2572 -0.2692
  112OSM   H17F11623  -0.038   0.636   4.384  0.4516 -0.9893 -0.1647
  112OSM   H17G11624  -0.213   0.624   4.427  0.9225  1.0875  0.4892
  112OSM   C18F11625  -0.142   0.495   4.269  0.1121  0.1336  0.4141
  112OSM   H18F11626  -0.224   0.420   4.270  0.1868  0.0499  1.0310
  112OSM   H18G11627  -0.051   0.441   4.236 -1.0123  0.2670 -3.2606
  112OSM   H18H11628  -0.156   0.561   4.181  0.2837 -0.5012 -0.0858
  113OSM      N11629   0.058   3.321   6.710  0.5825  0.3517 -0.1237
  113OSM    C1511630   0.019   3.454   6.643  0.1045 -0.3791  0.4729
  113OSM   H15A11631   0.104   3.495   6.591  0.3540 -1.1751  0.2315
  113OSM   H15B11632   0.004   3.526   6.722  0.6475  1.7499 -1.2731
  113OSM   H15C11633  -0.072   3.444   6.585 -0.1792  1.6655  0.4778
  113OSM    C1411634   0.174   3.348   6.806  0.4142  0.2388 -0.6004
  113OSM   H14A11635   0.182   3.260   6.869 -0.3402  0.3159 -0.3932
  113OSM   H14B11636   0.148   3.424   6.878  1.4692 -0.0842  0.1511
  113OSM   H14C11637   0.268   3.376   6.760 -0.9042 -0.0625 -3.7270
  113OSM    C1311638  -0.059   3.269   6.791  0.0573 -0.7685 -0.4240
  113OSM   H13A11639  -0.080   3.330   6.877 -0.6939 -1.9837  0.2983
  113OSM   H13B11640  -0.037   3.172   6.834  1.2669  0.3995  1.7663
  113OSM   H13C11641  -0.143   3.266   6.723  2.3631 -0.1760 -3.5336
  113OSM    C1211642   0.097   3.219   6.604  0.2507  0.6535  0.3234
  113OSM   H12A11643   0.013   3.150   6.600 -0.6001  1.5715  1.4206
  113OSM   H12B11644   0.173   3.149   6.634 -2.0370 -2.6181 -0.8342
  113OSM    C1111645   0.133   3.266   6.456  0.5147  0.2166 -0.5134
  113OSM   H11A11646   0.041   3.305   6.407  1.9186  2.3908 -1.5362
  113OSM   H11B11647   0.164   3.177   6.397  0.4494 -0.9335  1.1140
  113OSM      P11648   0.386   3.312   6.470 -0.1685 -0.1260 -0.0256
  113OSM    O1311649   0.473   3.419   6.524 -0.0707  0.0382 -0.4174
  113OSM    O1411650   0.389   3.190   6.551  0.2412  0.5234 -0.3284
  113OSM    O1111651   0.426   3.285   6.317  0.5985 -0.0589  0.0577
  113OSM    O1211652   0.233   3.369   6.459  0.5106  0.7054  0.1035
  113OSM    C1S11653   0.415   3.397   6.237 -0.2446 -0.4320 -0.4902
  113OSM    H1S11654   0.514   3.447   6.245 -1.0549  1.0567  0.7414
  113OSM    H1T11655   0.345   3.478   6.268  0.7508  0.0982  0.4593
  113OSM     NF11656   0.244   3.325   6.060  0.0493  0.0780  0.4498
  113OSM    HNF11657   0.217   3.230   6.054 -0.5358  0.1513  1.6821
  113OSM    C2S11658   0.386   3.364   6.088  0.0621  0.4657 -0.1652
  113OSM    H2S11659   0.407   3.453   6.026  0.3939 -0.1626 -0.9712
  113OSM    C3S11660   0.490   3.259   6.042  0.4206 -0.5820  0.5830
  113OSM    H3S11661   0.485   3.164   6.100  2.5359 -0.9529  0.2224
  113OSM     O311662   0.629   3.290   6.040  0.7746  0.2541  0.7247
  113OSM    HO311663   0.629   3.386   6.052  0.7363  0.1282  1.8276
  113OSM    C4S11664   0.462   3.229   5.895 -0.9143  0.2835 -0.4864
  113OSM    H4S11665   0.472   3.318   5.832 -1.4676 -0.3328 -1.4798
  113OSM    C5S11666   0.426   3.118   5.842  0.0018 -0.1830 -0.9683
  113OSM    H5S11667   0.419   3.028   5.904  2.6685  1.2192  1.5808
  113OSM    C6S11668   0.406   3.098   5.697 -0.0878  0.4499  0.6761
  113OSM    H6S11669   0.298   3.086   5.673 -0.3710  1.6784  1.2238
  113OSM    H6T11670   0.462   3.007   5.671 -1.4535 -0.3001  0.2398
  113OSM    C7S11671   0.447   3.207   5.591  0.0834  0.1873  0.1986
  113OSM    H7S11672   0.558   3.214   5.592  0.3661 -2.9186  0.4816
  113OSM    H7T11673   0.401   3.306   5.614 -0.3896  0.2166 -0.8279
  113OSM    C8S11674   0.406   3.171   5.448  0.3229 -0.3921  0.2596
  113OSM    H8S11675   0.296   3.154   5.455  0.2710 -0.3647 -0.4274
  113OSM    H8T11676   0.464   3.089   5.402  0.7122  0.9054 -1.6796
  113OSM    C9S11677   0.421   3.292   5.352 -0.6044 -0.5786  0.2020
  113OSM    H9S11678   0.531   3.308   5.347 -0.5871 -1.0345 -2.7002
  113OSM    H9T11679   0.366   3.384   5.380  2.3430  1.0521  1.0859
  113OSM   C10S11680   0.381   3.246   5.208 -0.7822 -0.4150  0.6250
  113OSM   H10S11681   0.278   3.205   5.199 -1.6923  2.1363 -2.0129
  113OSM   H10T11682   0.453   3.166   5.178  1.3032  0.9040  1.8766
  113OSM   C11S11683   0.375   3.364   5.102 -0.4304  0.3167 -0.1999
  113OSM   H11S11684   0.470   3.422   5.098  0.1223 -0.3063  2.3655
  113OSM   H11T11685   0.297   3.433   5.140 -2.1872  0.2654 -3.3655
  113OSM   C12S11686   0.341   3.323   4.959 -0.0003 -0.6915  0.4374
  113OSM   H12S11687   0.239   3.280   4.947 -0.1080  0.0949 -2.0461
  113OSM   H12T11688   0.407   3.240   4.926 -1.3814 -1.2939 -0.9181
  113OSM   C13S11689   0.342   3.435   4.845 -0.4385 -0.2545 -0.2506
  113OSM   H13S11690   0.274   3.520   4.868 -0.4155 -0.5473  0.9771
  113OSM   H13T11691   0.297   3.381   4.759  2.1870 -2.9551 -0.1031
  113OSM   C14S11692   0.484   3.489   4.808  0.4559 -0.6138 -0.2664
  113OSM   H14S11693   0.538   3.394   4.794 -0.4732 -1.1854 -0.0806
  113OSM   H14T11694   0.532   3.553   4.885 -1.5455  1.1890 -0.4202
  113OSM   C15S11695   0.481   3.574   4.677  0.1897  0.6886 -0.3575
  113OSM   H15S11696   0.415   3.658   4.707  0.3672  0.2349  1.4223
  113OSM   H15T11697   0.426   3.521   4.596  1.4918 -2.6614  0.7748
  113OSM   C16S11698   0.624   3.620   4.630 -0.0521  0.3631 -0.2198
  113OSM   H16S11699   0.677   3.527   4.601 -0.8355 -0.0334 -0.4039
  113OSM   H16T11700   0.679   3.669   4.713  0.1523 -1.6883  0.9124
  113OSM   C17S11701   0.601   3.706   4.499 -0.6028 -0.1243 -0.4611
  113OSM   H17S11702   0.528   3.785   4.529 -1.6284 -0.5414 -1.7559
  113OSM   H17T11703   0.557   3.638   4.424  1.1383  2.6415 -4.3198
  113OSM   C18S11704   0.737   3.762   4.450  0.1141 -0.3429  0.2496
  113OSM   H18S11705   0.731   3.831   4.363 -2.2326  2.2585  2.3112
  113OSM   H18T11706   0.818   3.691   4.423  0.0300 -0.0822 -0.7405
  113OSM   H18U11707   0.780   3.815   4.537  1.9379  0.6773 -1.2004
  113OSM    C1F11708   0.144   3.415   6.061 -0.7080  0.1806  0.0026
  113OSM     OF11709   0.159   3.538   6.073  0.0929 -0.0290  0.1145
  113OSM    C2F11710   0.008   3.345   6.068 -0.2732  0.5389 -0.1412
  113OSM    H2F11711  -0.010   3.300   6.168 -0.8971 -0.5265 -0.7072
  113OSM    H2G11712   0.011   3.261   5.995 -1.0358  1.1615 -0.9159
  113OSM    C3F11713  -0.109   3.437   6.042  0.1847 -0.4490  0.2966
  113OSM    H3F11714  -0.103   3.530   6.102 -0.7321 -0.8009  0.9525
  113OSM    H3G11715  -0.209   3.389   6.053 -0.0663 -0.3213 -1.2162
  113OSM    C4F11716  -0.105   3.483   5.898 -0.3228  0.5617 -0.4341
  113OSM    H4F11717  -0.161   3.415   5.830  1.7969 -0.1847 -1.5288
  113OSM    H4G11718  -0.000   3.481   5.860 -0.5994  1.9600 -1.3357
  113OSM    C5F11719  -0.174   3.618   5.880  0.0118  0.3323 -0.0831
  113OSM    H5F11720  -0.127   3.685   5.955  0.2730 -1.4790  1.4496
  113OSM    H5G11721  -0.279   3.589   5.900  0.7244 -2.9283 -0.3433
  113OSM    C6F11722  -0.164   3.676   5.736  1.0454 -0.5952 -0.2859
  113OSM    H6F11723  -0.244   3.628   5.677  3.0848 -2.7387 -1.4547
  113OSM    H6G11724  -0.065   3.657   5.690  1.3523  1.0048 -0.3744
  113OSM    C7F11725  -0.183   3.828   5.732  0.0614 -0.6527 -0.3978
  113OSM    H7F11726  -0.097   3.892   5.763  0.6447 -0.4805 -2.2218
  113OSM    H7G11727  -0.267   3.842   5.803 -0.2944 -0.8741 -0.7726
  113OSM    C8F11728  -0.223   3.871   5.596 -0.4764  0.7811  0.7699
  113OSM    H8F11729  -0.250   3.979   5.600 -3.2857  0.1629  0.5670
  113OSM    H8G11730  -0.303   3.810   5.550 -0.1054  0.8981 -0.0585
  113OSM    C9F11731  -0.097   3.865   5.509 -0.2717  0.0951 -0.1114
  113OSM    H9F11732  -0.006   3.842   5.565  0.4864 -4.0671 -2.6145
  113OSM   C10F11733  -0.085   3.868   5.372  0.5187  0.0116  0.8926
  113OSM   H10F11734   0.014   3.853   5.327  0.6309 -0.3037  1.2440
  113OSM   C11F11735  -0.197   3.861   5.271 -0.0422  0.0068  0.5425
  113OSM   H11F11736  -0.291   3.913   5.298  0.5444  0.5930  1.5354
  113OSM   H11G11737  -0.222   3.754   5.252 -0.4495 -0.4639  3.3432
  113OSM   C12F11738  -0.146   3.903   5.130 -0.1383 -0.0893 -0.3199
  113OSM   H12F11739  -0.081   3.819   5.098 -0.1596 -0.5757  0.8482
  113OSM   H12G11740  -0.091   3.999   5.134  2.2731 -1.4041 -0.1324
  113OSM   C13F11741  -0.261   3.921   5.027  0.4432 -0.2877  0.3392
  113OSM   H13F11742  -0.333   3.992   5.074 -0.5065 -0.4046 -0.8900
  113OSM   H13G11743  -0.303   3.821   5.001  1.1059 -0.3254 -0.6234
  113OSM   C14F11744  -0.222   3.989   4.893  0.1947 -0.0657 -0.1086
  113OSM   H14F11745  -0.186   4.093   4.908 -0.8532  0.2178  0.5508
  113OSM   H14G11746  -0.317   4.002   4.837 -0.6818 -1.1403  1.0659
  113OSM   C15F11747  -0.121   3.905   4.806 -0.0124  0.3902 -0.0597
  113OSM   H15F11748  -0.181   3.817   4.773 -1.1122  1.4177 -0.8627
  113OSM   H15G11749  -0.049   3.871   4.883 -0.2203 -0.9008 -0.4040
  113OSM   C16F11750  -0.066   3.978   4.689 -1.1733 -0.3334 -0.0750
  113OSM   H16F11751  -0.000   4.063   4.717 -1.0252 -0.4230 -0.1540
  113OSM   H16G11752  -0.138   4.014   4.613 -1.1893 -0.2214 -0.0064
  113OSM   C17F11753   0.030   3.880   4.621  0.2225  0.9284  0.1196
  113OSM   H17F11754  -0.034   3.798   4.583 -1.4221  1.8317  0.8429
  113OSM   H17G11755   0.095   3.844   4.704 -1.3970  1.9738  1.9306
  113OSM   C18F11756   0.124   3.933   4.510  0.5227  0.1810 -0.1853
  113OSM   H18F11757   0.200   3.860   4.476  0.6085  1.0140 -1.9130
  113OSM   H18G11758   0.181   4.022   4.546 -1.2116  1.0871  0.4173
  113OSM   H18H11759   0.060   3.955   4.422 -1.6715 -3.0229  0.4415
  114OSM      N11760   5.636   1.808   7.257 -0.0216 -0.1596  0.0145
  114OSM    C1511761   5.487   1.796   7.261  0.5926 -0.0050 -0.3749
  114OSM   H15A11762   5.465   1.719   7.188  0.2984  2.0195 -2.5545
  114OSM   H15B11763   5.441   1.886   7.223  1.7972  0.2373 -1.3412
  114OSM   H15C11764   5.448   1.767   7.357 -1.6525  1.5191 -0.7462
  114OSM    C1411765   5.684   1.909   7.352  0.5996 -0.0401 -0.0920
  114OSM   H14A11766   5.624   1.998   7.341 -0.9830 -1.1330 -0.6671
  114OSM   H14B11767   5.785   1.944   7.337  0.4099  0.8309  0.6101
  114OSM   H14C11768   5.681   1.872   7.454  0.3473 -1.8803 -0.7317
  114OSM    C1311769   5.707   1.685   7.298 -0.5490  0.1290  0.5405
  114OSM   H13A11770   5.706   1.621   7.211  1.0955  0.2834  0.3638
  114OSM   H13B11771   5.665   1.624   7.377  2.3481 -1.9714  0.6212
  114OSM   H13C11772   5.808   1.710   7.330  0.4755 -3.3931  0.4629
  114OSM    C1211773   5.677   1.857   7.114  0.0914  0.1965 -0.2116
  114OSM   H12A11774   5.785   1.848   7.111  0.1521  0.0660  1.3210
  114OSM   H12B11775   5.660   1.963   7.107 -1.6679  0.2146  2.8286
  114OSM    C1111776   5.620   1.785   6.990 -0.4054 -0.2345 -0.5592
  114OSM   H11A11777   5.679   1.835   6.911  0.9004  1.5999  1.4509
  114OSM   H11B11778   5.513   1.808   6.970 -0.1422  0.4348 -1.2156
  114OSM      P11779   5.556   1.530   6.978  0.0531  0.2879  0.1559
  114OSM    O1311780   5.624   1.405   7.023  0.0404  0.3985 -0.0496
  114OSM    O1411781   5.432   1.565   7.051  0.3785 -0.0315  0.4483
  114OSM    O1111782   5.520   1.519   6.817 -0.1360  0.1391 -0.8617
  114OSM    O1211783   5.652   1.650   6.993  0.0457  0.1719  0.1354
  114OSM    C1S11784   5.628   1.527   6.723 -0.2193 -0.4525 -0.4508
  114OSM    H1S11785   5.706   1.452   6.748  0.6577  0.4184 -0.5165
  114OSM    H1T11786   5.673   1.628   6.716  2.1240 -1.5051 -1.7927
  114OSM     NF11787   5.697   1.443   6.501 -0.6545 -0.0874  0.7604
  114OSM    HNF11788   5.732   1.506   6.432 -1.8505  1.8137  1.8119
  114OSM    C2S11789   5.577   1.485   6.579  0.5206 -0.6062  0.1043
  114OSM    H2S11790   5.503   1.403   6.591  0.1812 -0.7170 -2.3502
  114OSM    C3S11791   5.496   1.611   6.524 -0.5956  0.1429 -0.3253
  114OSM    H3S11792   5.577   1.686   6.515 -1.1480  0.7450 -0.3575
  114OSM     O311793   5.397   1.659   6.619  0.1728  0.4574  0.3343
  114OSM    HO311794   5.413   1.603   6.695  1.0128 -0.9700 -0.8553
  114OSM    C4S11795   5.451   1.577   6.385  0.5334 -0.6507 -0.5537
  114OSM    H4S11796   5.507   1.619   6.301 -1.5971  0.3557 -1.5577
  114OSM    C5S11797   5.340   1.511   6.356  0.6925 -0.1223 -0.2459
  114OSM    H5S11798   5.274   1.479   6.438  0.2299  1.5996  0.0929
  114OSM    C6S11799   5.295   1.457   6.220 -0.1085  0.0438 -0.8641
  114OSM    H6S11800   5.199   1.508   6.199  0.0971  0.3565 -1.0617
  114OSM    H6T11801   5.266   1.350   6.230  0.5537  0.0699  1.9681
  114OSM    C7S11802   5.379   1.479   6.091  0.5683 -0.1657 -0.2881
  114OSM    H7S11803   5.479   1.433   6.106  1.5162  1.9186  0.1782
  114OSM    H7T11804   5.393   1.589   6.083  0.9234 -0.2420 -0.7748
  114OSM    C8S11805   5.322   1.425   5.957 -0.5708 -0.6550 -0.4672
  114OSM    H8S11806   5.219   1.465   5.944 -0.5972 -0.3131  0.7107
  114OSM    H8T11807   5.317   1.314   5.962 -0.1974 -0.6580 -0.1314
  114OSM    C9S11808   5.390   1.461   5.824 -0.0994  0.4730  0.1255
  114OSM    H9S11809   5.337   1.406   5.744  4.1880  0.8909 -3.4014
  114OSM    H9T11810   5.498   1.439   5.839 -0.7088 -1.1715  2.6475
  114OSM   C10S11811   5.385   1.613   5.789  0.4097 -0.3091 -0.3138
  114OSM   H10S11812   5.436   1.670   5.870 -1.9532  1.4786  0.0201
  114OSM   H10T11813   5.280   1.646   5.801  0.0619 -1.5425  0.1216
  114OSM   C11S11814   5.450   1.637   5.654 -0.1873 -0.5968  0.1757
  114OSM   H11S11815   5.403   1.573   5.577  0.2919  0.5121 -1.0860
  114OSM   H11T11816   5.560   1.618   5.654  0.2642  1.6678  1.2096
  114OSM   C12S11817   5.438   1.779   5.613 -0.3945 -0.3130 -0.0206
  114OSM   H12S11818   5.489   1.849   5.682  1.8556 -0.6385 -1.2724
  114OSM   H12T11819   5.328   1.798   5.615 -0.3550 -0.0751 -0.0623
  114OSM   C13S11820   5.483   1.799   5.468  0.2760  0.1298  0.6663
  114OSM   H13S11821   5.452   1.711   5.407 -1.8308  2.3951 -1.8191
  114OSM   H13T11822   5.594   1.810   5.461  0.0835  4.4590  1.4903
  114OSM   C14S11823   5.427   1.929   5.408  0.3686  0.1214  0.1510
  114OSM   H14S11824   5.467   2.013   5.468  1.5622 -1.0365  1.0260
  114OSM   H14T11825   5.316   1.939   5.416  0.2530  0.2406 -1.2813
  114OSM   C15S11826   5.466   1.944   5.259  0.5136  0.2437  0.2511
  114OSM   H15S11827   5.447   1.847   5.209 -0.3311  0.9789 -0.8882
  114OSM   H15T11828   5.576   1.963   5.256  0.6537 -0.4304  0.6775
  114OSM   C16S11829   5.389   2.051   5.190  0.1096 -0.0603  0.0359
  114OSM   H16S11830   5.420   2.149   5.232  0.5313 -0.1552 -0.0431
  114OSM   H16T11831   5.282   2.037   5.214 -0.4834  2.0294 -1.2145
  114OSM   C17S11832   5.419   2.050   5.042  0.0001  0.0600  0.3341
  114OSM   H17S11833   5.368   1.966   4.990  0.1916 -0.0332  0.2932
  114OSM   H17T11834   5.529   2.044   5.027  0.0402  1.8080 -0.3597
  114OSM   C18S11835   5.372   2.175   4.963  0.0716 -0.3972  0.2534
  114OSM   H18S11836   5.390   2.261   5.031  1.4678 -0.7599  0.3729
  114OSM   H18T11837   5.262   2.168   4.949  0.1004  0.8498 -0.7987
  114OSM   H18U11838   5.435   2.193   4.874 -0.3779  1.4949  0.2803
  114OSM    C1F11839   5.762   1.329   6.525 -0.0771 -0.3014 -0.0608
  114OSM     OF11840   5.717   1.247   6.607  0.4481 -0.1472 -0.0316
  114OSM    C2F11841   5.894   1.302   6.459 -0.7200 -0.0445  0.6243
  114OSM    H2F11842   5.922   1.203   6.500  1.0102  0.9955  2.1454
  114OSM    H2G11843   5.973   1.368   6.502 -0.1508 -0.4838  0.2630
  114OSM    C3F11844   5.879   1.302   6.305 -0.8828 -1.0282  0.1992
  114OSM    H3F11845   5.972   1.266   6.256 -0.0059 -0.4922  1.4499
  114OSM    H3G11846   5.845   1.402   6.269 -0.1228 -0.2168  1.6655
  114OSM    C4F11847   5.791   1.198   6.257  0.4990  0.4220  0.3622
  114OSM    H4F11848   5.681   1.208   6.265  0.4495  0.7191 -0.5460
  114OSM    H4G11849   5.818   1.101   6.303  0.4215  0.5196  0.6173
  114OSM    C5F11850   5.816   1.173   6.101  0.1609  0.6656  0.0132
  114OSM    H5F11851   5.737   1.100   6.071  0.1115 -0.2118  2.1362
  114OSM    H5G11852   5.911   1.117   6.094 -0.3303 -0.4217  1.4813
  114OSM    C6F11853   5.808   1.293   6.003 -0.4210  0.1743  0.1816
  114OSM    H6F11854   5.905   1.346   6.005  1.3279 -2.7800  2.1242
  114OSM    H6G11855   5.740   1.370   6.046 -2.8043 -0.6480 -1.8350
  114OSM    C7F11856   5.752   1.263   5.862 -0.0193 -0.1724  0.3846
  114OSM    H7F11857   5.645   1.232   5.869 -0.2065  0.4202  0.2830
  114OSM    H7G11858   5.803   1.177   5.813  0.0341 -0.0771  0.2710
  114OSM    C8F11859   5.758   1.382   5.761  0.1397  0.2299 -0.4767
  114OSM    H8F11860   5.866   1.406   5.747  0.5040 -1.1295 -0.1401
  114OSM    H8G11861   5.700   1.464   5.810 -2.8316 -2.0043  0.0339
  114OSM    C9F11862   5.694   1.342   5.630 -0.3806 -0.1722 -0.3693
  114OSM    H9F11863   5.599   1.287   5.642  0.1717 -1.6106 -2.0552
  114OSM   C10F11864   5.731   1.369   5.502 -0.4633 -0.3401  0.1869
  114OSM   H10F11865   5.664   1.331   5.423 -1.4634 -1.5290  1.5484
  114OSM   C11F11866   5.858   1.446   5.460 -0.2532  0.1231 -0.5546
  114OSM   H11F11867   5.909   1.380   5.387 -1.7341  0.0705 -1.5994
  114OSM   H11G11868   5.930   1.453   5.544 -2.1348 -5.1629  1.9785
  114OSM   C12F11869   5.844   1.588   5.402  0.5320 -0.6498  0.1311
  114OSM   H12F11870   5.936   1.639   5.438  1.9899 -2.6087 -0.6688
  114OSM   H12G11871   5.759   1.647   5.445 -2.7590 -4.1842 -0.9517
  114OSM   C13F11872   5.823   1.593   5.250 -0.5633  0.6471 -0.0764
  114OSM   H13F11873   5.727   1.540   5.229  1.0584 -2.1161 -0.9967
  114OSM   H13G11874   5.898   1.544   5.184 -0.3283  1.3896 -0.3793
  114OSM   C14F11875   5.806   1.739   5.199 -0.1184  0.1708 -0.4322
  114OSM   H14F11876   5.830   1.803   5.286 -1.3946 -0.9315  0.7715
  114OSM   H14G11877   5.699   1.757   5.174 -0.8494 -1.6314  1.1778
  114OSM   C15F11878   5.914   1.780   5.094  0.0656  0.1271 -0.1390
  114OSM   H15F11879   6.020   1.755   5.116  0.0840  0.0916 -0.2679
  114OSM   H15G11880   5.921   1.890   5.109 -0.1461  0.0501  0.5843
  114OSM   C16F11881   5.873   1.743   4.946  0.6522 -0.4017  0.6758
  114OSM   H16F11882   5.878   1.633   4.934 -0.3087 -0.5957  1.8176
  114OSM   H16G11883   5.942   1.809   4.890 -1.6420 -0.0900 -2.0032
  114OSM   C17F11884   5.733   1.794   4.902  0.1354  0.5529  0.7248
  114OSM   H17F11885   5.717   1.900   4.930 -0.1490  0.6840  0.0765
  114OSM   H17G11886   5.654   1.739   4.957 -0.6525  1.2883  0.3357
  114OSM   C18F11887   5.702   1.765   4.752 -0.1272 -0.5558  0.4975
  114OSM   H18F11888   5.616   1.827   4.719  2.3791  1.3939 -3.1063
  114OSM   H18G11889   5.693   1.656   4.732  0.9396 -0.9541  2.0364
  114OSM   H18H11890   5.787   1.787   4.683  0.1925 -0.0383  1.0447
  115OSM      N11891   2.798   3.156   6.649  0.5092 -0.2392  0.5882
  115OSM    C1511892   2.857   3.274   6.719  1.0703  0.4828 -0.7891
  115OSM   H15A11893   2.790   3.339   6.774 -0.0789  0.0094 -1.5820
  115OSM   H15B11894   2.906   3.331   6.642  0.4415 -1.1861 -2.4822
  115OSM   H15C11895   2.923   3.240   6.798 -1.3384  0.2894  1.2984
  115OSM    C1411896   2.910   3.076   6.585  0.1487  0.2478 -0.1110
  115OSM   H14A11897   2.972   3.033   6.662  0.9450 -2.3373 -2.0841
  115OSM   H14B11898   2.972   3.132   6.517  0.5588 -2.0088 -1.6976
  115OSM   H14C11899   2.872   2.994   6.526  1.6151 -1.6509  1.4601
  115OSM    C1311900   2.721   3.080   6.752 -0.4347  0.4344  0.1952
  115OSM   H13A11901   2.796   3.052   6.825 -0.4745  0.3191  0.1921
  115OSM   H13B11902   2.671   2.994   6.711  1.3615  0.2463 -1.7914
  115OSM   H13C11903   2.645   3.141   6.798 -1.7239 -0.1436 -1.0988
  115OSM    C1211904   2.697   3.194   6.541 -0.7540 -0.6910 -0.0171
  115OSM   H12A11905   2.612   3.240   6.590  1.5027  0.9205  2.7448
  115OSM   H12B11906   2.667   3.100   6.497 -2.0498 -0.4588  0.3359
  115OSM    C1111907   2.752   3.272   6.422 -0.3217 -0.2950  0.8118
  115OSM   H11A11908   2.673   3.276   6.344  0.6019  0.3067 -0.1225
  115OSM   H11B11909   2.839   3.217   6.380 -0.8987 -0.6398  0.0539
  115OSM      P11910   2.726   3.529   6.433 -0.4096  0.1600  0.0345
  115OSM    O1311911   2.614   3.528   6.532  0.2831 -0.1796  0.0652
  115OSM    O1411912   2.817   3.646   6.433  1.1023  0.2078  0.1423
  115OSM    O1111913   2.668   3.504   6.286  0.0454 -1.0029 -0.2064
  115OSM    O1211914   2.807   3.393   6.457 -0.5032  0.1117 -0.0718
  115OSM    C1S11915   2.760   3.471   6.184 -0.1736 -0.6980  0.3104
  115OSM    H1S11916   2.748   3.364   6.157  1.6206 -1.9454  3.7445
  115OSM    H1T11917   2.866   3.495   6.209 -0.6288  0.5939  1.0839
  115OSM     NF11918   2.851   3.518   5.948 -0.1008  0.1052  0.4016
  115OSM    HNF11919   2.921   3.587   5.929 -1.3829  1.8762  1.6970
  115OSM    C2S11920   2.747   3.552   6.050 -0.1262  0.2992  0.6169
  115OSM    H2S11921   2.655   3.510   6.004 -0.6594  1.1047  0.9277
  115OSM    C3S11922   2.728   3.703   6.065 -0.9100 -0.2044 -1.4403
  115OSM    H3S11923   2.818   3.743   6.116 -0.2335 -2.6348 -0.5861
  115OSM     O311924   2.610   3.725   6.140 -0.0849  0.0814 -0.0902
  115OSM    HO311925   2.607   3.648   6.198 -1.4987  1.4413  1.7908
  115OSM    C4S11926   2.717   3.761   5.928  0.4746 -0.2412 -0.8464
  115OSM    H4S11927   2.647   3.704   5.864 -0.4846 -1.2137  0.9900
  115OSM    C5S11928   2.783   3.866   5.884 -0.2089 -0.1736 -0.0122
  115OSM    H5S11929   2.857   3.915   5.949  0.0697 -0.7868  0.1389
  115OSM    C6S11930   2.757   3.924   5.744 -0.1195 -0.6905  0.3550
  115OSM    H6S11931   2.664   3.882   5.700 -0.7490  0.4646  0.5286
  115OSM    H6T11932   2.840   3.897   5.675 -0.9891 -1.1790 -0.5373
  115OSM    C7S11933   2.737   4.078   5.737 -0.2510 -0.2411 -0.8760
  115OSM    H7S11934   2.817   4.119   5.802 -2.1414  0.8319  0.9233
  115OSM    H7T11935   2.644   4.108   5.790 -0.7388  1.5565 -2.5948
  115OSM    C8S11936   2.725   4.138   5.600 -0.1256  0.0345  0.1518
  115OSM    H8S11937   2.825   4.128   5.551 -0.4562  1.1940 -0.8189
  115OSM    H8T11938   2.711   4.246   5.622  0.7839  0.1731  0.0773
  115OSM    C9S11939   2.607   4.080   5.511  0.1400 -0.3855 -0.3349
  115OSM    H9S11940   2.521   4.104   5.577 -1.3344 -1.5559 -1.7378
  115OSM    H9T11941   2.609   3.969   5.498 -1.2405 -0.2600 -2.0050
  115OSM   C10S11942   2.602   4.158   5.378  0.2695 -0.0606 -0.2542
  115OSM   H10S11943   2.701   4.136   5.331 -0.2538 -1.7668 -0.6337
  115OSM   H10T11944   2.586   4.266   5.398  0.3613  0.2463 -1.7285
  115OSM   C11S11945   2.507   4.099   5.279  0.1228 -0.1628  0.1424
  115OSM   H11S11946   2.440   4.185   5.259  2.8414  1.5029 -3.0524
  115OSM   H11T11947   2.453   4.018   5.332  0.5922  1.3558  3.1737
  115OSM   C12S11948   2.574   4.055   5.146 -0.2017  0.8496 -0.2590
  115OSM   H12S11949   2.637   3.967   5.174  0.3520  1.0002 -1.0038
  115OSM   H12T11950   2.638   4.132   5.098  0.9203 -0.3090 -0.6961
  115OSM   C13S11951   2.470   4.010   5.039  0.4335  0.8042 -0.0711
  115OSM   H13S11952   2.414   4.102   5.012  1.3317  1.7774  1.2659
  115OSM   H13T11953   2.400   3.941   5.091 -0.8767  2.4914  0.4666
  115OSM   C14S11954   2.543   3.949   4.918 -0.6976  0.6508 -0.0958
  115OSM   H14S11955   2.568   3.844   4.944 -2.0653  0.3523  0.0828
  115OSM   H14T11956   2.633   4.014   4.915 -1.1574  1.2452 -1.8768
  115OSM   C15S11957   2.455   3.946   4.791  0.1574  0.0143  0.2488
  115OSM   H15S11958   2.495   3.862   4.731  1.3801  1.3976 -0.9733
  115OSM   H15T11959   2.473   4.045   4.743 -1.6786 -0.2779 -1.1302
  115OSM   C16S11960   2.303   3.919   4.821 -0.2903 -0.5131  0.5804
  115OSM   H16S11961   2.265   4.005   4.879 -0.1079 -0.5544  0.7597
  115OSM   H16T11962   2.304   3.831   4.889  2.9010  1.7646  3.8281
  115OSM   C17S11963   2.223   3.900   4.690 -0.7332 -0.1869  1.2654
  115OSM   H17S11964   2.266   3.970   4.615 -2.3891  0.5508  0.9625
  115OSM   H17T11965   2.126   3.953   4.701 -2.3168 -2.2628 -1.6419
  115OSM   C18S11966   2.196   3.756   4.649  0.0216 -0.8385  0.4072
  115OSM   H18S11967   2.161   3.760   4.544  1.3603  2.5384 -0.0445
  115OSM   H18T11968   2.122   3.712   4.720 -0.8276  0.1873  0.1956
  115OSM   H18U11969   2.285   3.690   4.653 -0.7118 -1.8216  0.8985
  115OSM    C1F11970   2.866   3.400   5.890  0.0601  0.5761 -0.4006
  115OSM     OF11971   2.818   3.295   5.934 -0.1536 -0.2241 -0.2616
  115OSM    C2F11972   2.959   3.402   5.772 -0.1314  0.2983  0.1112
  115OSM    H2F11973   3.058   3.361   5.801  0.9194  1.7739 -1.2896
  115OSM    H2G11974   2.979   3.510   5.760 -1.4165  0.4224 -1.2165
  115OSM    C3F11975   2.901   3.332   5.651 -0.4523 -0.1170  0.2862
  115OSM    H3F11976   2.844   3.241   5.678  0.1769 -0.3046  1.0200
  115OSM    H3G11977   2.984   3.291   5.589 -1.7979 -0.8805 -1.0912
  115OSM    C4F11978   2.817   3.423   5.560  0.2390 -0.0544  0.7068
  115OSM    H4F11979   2.722   3.439   5.614  0.1618  2.2575  0.0060
  115OSM    H4G11980   2.792   3.366   5.469  1.5075 -0.2158  0.4349
  115OSM    C5F11981   2.885   3.560   5.511 -0.1871  0.6479 -0.3710
  115OSM    H5F11982   2.912   3.622   5.599  0.1014 -0.0218  0.0232
  115OSM    H5G11983   2.814   3.604   5.438  0.4203 -0.7835 -1.8873
  115OSM    C6F11984   3.007   3.528   5.428 -0.5589 -0.6269  0.7106
  115OSM    H6F11985   2.974   3.456   5.350 -0.9792 -0.8066  1.0492
  115OSM    H6G11986   3.091   3.482   5.483  0.7570  0.7094 -0.1095
  115OSM    C7F11987   3.069   3.650   5.356  0.3362 -0.0939  0.0515
  115OSM    H7F11988   3.151   3.600   5.300  0.0025 -0.5517 -0.0397
  115OSM    H7G11989   3.105   3.713   5.440 -0.3365  1.1082 -0.5446
  115OSM    C8F11990   2.976   3.737   5.263 -0.3382 -0.5574  0.5624
  115OSM    H8F11991   2.885   3.761   5.322 -0.7335 -1.2389  0.2510
  115OSM    H8G11992   2.937   3.683   5.173 -1.0972  1.5165 -0.4086
  115OSM    C9F11993   3.035   3.869   5.215 -0.6586 -0.2675 -0.4982
  115OSM    H9F11994   3.085   3.922   5.297  1.2046 -0.6371 -1.3407
  115OSM   C10F11995   3.029   3.916   5.091  0.3427  0.3297  0.0982
  115OSM   H10F11996   3.078   4.011   5.065 -0.1227  0.2469 -1.1201
  115OSM   C11F11997   2.969   3.839   4.975  0.5097 -0.5235 -0.3939
  115OSM   H11F11998   2.862   3.827   5.000  1.0332 -1.3526  1.6058
  115OSM   H11G11999   3.013   3.738   4.960  1.9380 -0.1044  0.6572
  115OSM   C12F12000   2.976   3.918   4.842  0.1681  0.3113  0.1904
  115OSM   H12F12001   2.960   4.025   4.866  0.9587  0.4356  0.1600
  115OSM   H12G12002   2.898   3.893   4.766  1.4157  1.0933 -1.3981
  115OSM   C13F12003   3.117   3.928   4.776  0.0090  0.1807 -0.4547
  115OSM   H13F12004   3.129   3.829   4.727 -0.1230 -0.0569 -0.0099
  115OSM   H13G12005   3.195   3.949   4.852  0.4416 -0.3928 -0.7299
  115OSM   C14F12006   3.123   4.035   4.661 -0.2025 -0.0069  0.3579
  115OSM   H14F12007   3.101   4.130   4.714 -4.8528 -0.4894 -0.2935
  115OSM   H14G12008   3.042   4.000   4.594  0.1372 -0.1660  0.0254
  115OSM   C15F12009   3.264   4.040   4.591  0.2048  0.5865 -0.2388
  115OSM   H15F12010   3.310   3.940   4.578  1.1988  0.9537  0.3070
  115OSM   H15G12011   3.342   4.087   4.654 -0.2877  0.1735  0.6951
  115OSM   C16F12012   3.267   4.126   4.461 -0.4019 -0.1534  0.1601
  115OSM   H16F12013   3.229   4.224   4.496  0.6616 -0.5567  2.6635
  115OSM   H16G12014   3.190   4.074   4.401  1.6239 -1.3245 -1.5794
  115OSM   C17F12015   3.413   4.135   4.404  0.0297  0.0146  0.3142
  115OSM   H17F12016   3.415   4.185   4.305 -0.8184  1.7694  1.1315
  115OSM   H17G12017   3.445   4.029   4.397  2.1825  0.7191 -1.6799
  115OSM   C18F12018   3.527   4.209   4.479 -0.0266  0.0465  0.6936
  115OSM   H18F12019   3.525   4.196   4.589  4.5081  0.4287  1.0458
  115OSM   H18G12020   3.511   4.317   4.456  0.2855  0.0502  0.4783
  115OSM   H18H12021   3.630   4.183   4.445 -0.6619 -0.3555 -1.0429
  116OSM      N12022   6.361   1.776   7.016 -0.1572  0.7587  0.2974
  116OSM    C1512023   6.372   1.630   7.055 -0.2387 -0.1411  0.0520
  116OSM   H15A12024   6.476   1.605   7.066  0.2990  2.2168  0.9165
  116OSM   H15B12025   6.326   1.570   6.978 -1.9724 -1.4729  2.0225
  116OSM   H15C12026   6.323   1.605   7.148 -1.5378 -1.7612 -1.0077
  116OSM    C1412027   6.218   1.820   7.022 -0.2227 -0.0922  0.1070
  116OSM   H14A12028   6.157   1.765   6.951  0.6945  1.2664 -1.7921
  116OSM   H14B12029   6.206   1.926   7.009  0.9795  0.1654  0.9884
  116OSM   H14C12030   6.176   1.813   7.122  0.3941 -0.6622  0.3357
  116OSM    C1312031   6.444   1.846   7.120 -0.0890 -0.3741  0.2802
  116OSM   H13A12032   6.523   1.778   7.148  0.2675 -0.6872 -1.3820
  116OSM   H13B12033   6.390   1.850   7.213 -0.3416 -1.6666  0.2016
  116OSM   H13C12034   6.486   1.937   7.080 -1.7258 -0.1816 -1.1526
  116OSM    C1212035   6.430   1.805   6.876  0.0022 -0.3068 -0.3658
  116OSM   H12A12036   6.522   1.749   6.873  0.8024  0.9595 -0.4968
  116OSM   H12B12037   6.451   1.910   6.865 -0.2114 -0.3907 -1.8037
  116OSM    C1112038   6.355   1.763   6.745 -0.5238 -0.5864  0.4665
  116OSM   H11A12039   6.421   1.788   6.660 -2.5787  0.2992 -0.9482
  116OSM   H11B12040   6.265   1.828   6.737 -0.2326 -0.3763 -1.4048
  116OSM      P12041   6.185   1.570   6.728  0.1138  0.4784  0.0207
  116OSM    O1312042   6.175   1.427   6.764 -0.4694  1.0814  0.2400
  116OSM    O1412043   6.097   1.655   6.801 -0.0214 -0.3908 -0.0466
  116OSM    O1112044   6.173   1.589   6.569 -0.5806 -0.3325  0.0668
  116OSM    O1212045   6.336   1.619   6.746  0.0747  0.1067  0.1174
  116OSM    C1S12046   6.287   1.565   6.481  0.1289 -0.0786  0.0397
  116OSM    H1S12047   6.333   1.469   6.511  3.3111  1.1294 -0.6272
  116OSM    H1T12048   6.352   1.654   6.470 -1.2056  0.7772 -1.2612
  116OSM     NF12049   6.343   1.489   6.253 -0.6244 -0.1430 -0.0607
  116OSM    HNF12050   6.400   1.552   6.201  1.6713  0.2185  2.6399
  116OSM    C2S12051   6.233   1.534   6.337 -0.3507 -0.0817 -0.0527
  116OSM    H2S12052   6.162   1.449   6.344  2.0060 -2.0891  1.0431
  116OSM    C3S12053   6.149   1.655   6.289  0.2508  0.5753  0.0811
  116OSM    H3S12054   6.209   1.746   6.309  1.8568 -0.5782  0.7295
  116OSM     O312055   6.034   1.685   6.367 -0.1764 -0.7697  0.3733
  116OSM    HO312056   6.052   1.641   6.450  1.1013 -0.7209  0.1410
  116OSM    C4S12057   6.125   1.663   6.139 -0.1101  0.3283 -0.2057
  116OSM    H4S12058   6.216   1.696   6.087 -0.3127 -0.8212 -1.3520
  116OSM    C5S12059   6.014   1.647   6.068  0.6599 -0.7465 -0.7091
  116OSM    H5S12060   5.917   1.627   6.116  1.6337 -1.3914  1.0545
  116OSM    C6S12061   6.005   1.649   5.923  0.0854 -0.2395  0.4429
  116OSM    H6S12062   5.900   1.669   5.891 -0.3803 -1.7266  0.9950
  116OSM    H6T12063   6.026   1.548   5.882 -2.2252 -0.1815 -1.1123
  116OSM    C7S12064   6.085   1.766   5.854 -0.1722  0.5873  0.2583
  116OSM    H7S12065   6.188   1.726   5.864 -0.7648 -1.2011 -0.3705
  116OSM    H7T12066   6.078   1.862   5.909  0.0185 -0.9836  3.2138
  116OSM    C8S12067   6.066   1.769   5.704  0.2595 -0.0225  0.0773
  116OSM    H8S12068   5.966   1.814   5.686 -0.0522  0.2986  2.2731
  116OSM    H8T12069   6.071   1.665   5.665  1.5055  0.4057 -0.9976
  116OSM    C9S12070   6.176   1.859   5.653  0.0107  0.4972 -0.3191
  116OSM    H9S12071   6.270   1.799   5.647 -0.3515 -0.0621 -0.5105
  116OSM    H9T12072   6.185   1.947   5.720 -3.5404 -0.2988  1.4227
  116OSM   C10S12073   6.152   1.916   5.512 -0.0023 -0.0325  0.1305
  116OSM   H10S12074   6.047   1.953   5.514 -0.5048 -1.4171  0.1170
  116OSM   H10T12075   6.152   1.830   5.442  0.5722 -1.0923  1.3871
  116OSM   C11S12076   6.246   2.031   5.479 -0.6063 -0.2153 -0.5124
  116OSM   H11S12077   6.351   1.996   5.487  0.1605  2.2089  1.1280
  116OSM   H11T12078   6.230   2.121   5.541  0.3258 -1.9380  2.4103
  116OSM   C12S12079   6.217   2.070   5.331 -0.4967  0.4220  0.9683
  116OSM   H12S12080   6.263   2.167   5.300 -1.2850  0.0474 -1.5595
  116OSM   H12T12081   6.110   2.099   5.329 -1.0028 -1.3553  1.1458
  116OSM   C13S12082   6.243   1.949   5.225 -0.1106 -0.2647  0.1131
  116OSM   H13S12083   6.158   1.877   5.232 -0.0611 -0.1711  3.2572
  116OSM   H13T12084   6.338   1.903   5.259  0.3031  0.2989 -0.2693
  116OSM   C14S12085   6.262   2.002   5.085  0.0306 -0.2278  0.4979
  116OSM   H14S12086   6.363   2.049   5.081  1.2405 -2.4222  2.6208
  116OSM   H14T12087   6.189   2.081   5.057  1.7109  1.8820  1.7670
  116OSM   C15S12088   6.267   1.883   4.989 -0.5367 -0.3951  0.0632
  116OSM   H15S12089   6.168   1.833   4.980 -0.9190  0.4839 -0.9584
  116OSM   H15T12090   6.349   1.820   5.027 -0.5963 -1.5653 -1.6296
  116OSM   C16S12091   6.301   1.928   4.843  0.5991 -0.2161  0.2670
  116OSM   H16S12092   6.342   1.835   4.798 -0.2155 -0.8532  0.8000
  116OSM   H16T12093   6.388   1.998   4.843 -0.3843  1.0525  0.6572
  116OSM   C17S12094   6.183   1.984   4.764  0.2101 -0.2179  0.0136
  116OSM   H17S12095   6.152   2.069   4.829 -1.4571 -1.6463  1.1745
  116OSM   H17T12096   6.098   1.914   4.746 -0.9675  1.2373 -0.2406
  116OSM   C18S12097   6.227   2.041   4.626  0.1248 -0.0188  0.7244
  116OSM   H18S12098   6.147   2.112   4.595  0.0302  0.2152  1.4737
  116OSM   H18T12099   6.233   1.966   4.544 -0.7947  1.1180 -0.4400
  116OSM   H18U12100   6.324   2.096   4.623  0.0920 -0.0056 -1.5345
  116OSM    C1F12101   6.399   1.375   6.265  0.2554  0.0511  0.0110
  116OSM     OF12102   6.355   1.293   6.344 -0.1311  0.1554 -0.5282
  116OSM    C2F12103   6.522   1.348   6.180  0.6598  0.0746 -0.1135
  116OSM    H2F12104   6.609   1.351   6.249 -0.0648  0.4064  0.8158
  116OSM    H2G12105   6.541   1.427   6.104  1.4044 -1.8876 -2.0486
  116OSM    C3F12106   6.517   1.207   6.118 -0.7363  0.0690  0.3148
  116OSM    H3F12107   6.563   1.133   6.187 -0.2250  0.5044  0.4566
  116OSM    H3G12108   6.592   1.199   6.037  0.2015  0.5871  1.1039
  116OSM    C4F12109   6.382   1.160   6.065  0.5852 -0.0052  0.0343
  116OSM    H4F12110   6.316   1.144   6.153 -0.8895 -0.0724 -1.0482
  116OSM    H4G12111   6.399   1.056   6.029 -1.1208 -0.2525 -0.1161
  116OSM    C5F12112   6.312   1.236   5.953  0.2227  0.2816  0.8466
  116OSM    H5F12113   6.294   1.339   5.988 -1.7436  0.4098 -0.3385
  116OSM    H5G12114   6.215   1.186   5.928  1.3513 -1.1002 -1.0656
  116OSM    C6F12115   6.394   1.237   5.825 -1.1720 -0.4198 -0.5072
  116OSM    H6F12116   6.447   1.139   5.820  1.5657  0.7677  2.1348
  116OSM    H6G12117   6.469   1.319   5.824 -0.3254 -1.1347  1.0068
  116OSM    C7F12118   6.315   1.250   5.700  0.2080 -0.3410 -0.4370
  116OSM    H7F12119   6.235   1.172   5.697 -1.7069  1.4301  1.1749
  116OSM    H7G12120   6.377   1.238   5.609 -0.9461 -0.6610 -1.2023
  116OSM    C8F12121   6.243   1.389   5.690 -0.3038 -0.7671  1.0034
  116OSM    H8F12122   6.187   1.415   5.782  0.0530 -1.2254  1.3578
  116OSM    H8G12123   6.161   1.372   5.617  2.3003  0.3695 -2.4820
  116OSM    C9F12124   6.335   1.504   5.647  0.6625 -0.2156 -0.0953
  116OSM    H9F12125   6.402   1.527   5.731  1.0740 -2.0405  0.1110
  116OSM   C10F12126   6.339   1.559   5.521 -0.1095  0.0206  0.1290
  116OSM   H10F12127   6.402   1.646   5.500  3.1919 -1.9839  1.0654
  116OSM   C11F12128   6.261   1.525   5.394  0.4316  0.1823  0.3667
  116OSM   H11F12129   6.184   1.605   5.389 -1.1589 -1.2777  0.4246
  116OSM   H11G12130   6.195   1.438   5.415  0.5468 -0.0663 -0.2751
  116OSM   C12F12131   6.343   1.509   5.274  0.3520 -0.0323  0.0570
  116OSM   H12F12132   6.401   1.414   5.275  2.2654  1.0801  1.7051
  116OSM   H12G12133   6.414   1.594   5.266  0.9410 -0.3893  1.2268
  116OSM   C13F12134   6.260   1.495   5.141 -0.0678  0.1123 -0.2161
  116OSM   H13F12135   6.335   1.480   5.060  1.7439  1.8165  1.0582
  116OSM   H13G12136   6.196   1.584   5.123 -3.1291 -2.2649 -2.2497
  116OSM   C14F12137   6.159   1.375   5.141  0.3474 -0.3888 -0.0855
  116OSM   H14F12138   6.117   1.362   5.039 -2.0030  0.5444  0.6735
  116OSM   H14G12139   6.067   1.410   5.194 -1.0631 -1.7481 -1.5061
  116OSM   C15F12140   6.197   1.237   5.190 -0.4747  0.6855 -0.4551
  116OSM   H15F12141   6.104   1.176   5.197 -0.2627  0.4988  1.0468
  116OSM   H15G12142   6.220   1.248   5.298 -0.7554  0.0365 -0.3281
  116OSM   C16F12143   6.315   1.162   5.125  0.1055 -0.3342  0.1698
  116OSM   H16F12144   6.362   1.092   5.197  3.9034  0.6096 -1.1407
  116OSM   H16G12145   6.396   1.238   5.113  0.9205 -0.6914  2.7888
  116OSM   C17F12146   6.295   1.098   4.991 -1.0224 -0.1978 -0.1134
  116OSM   H17F12147   6.386   1.036   4.974  0.2853  1.0720  1.8685
  116OSM   H17G12148   6.282   1.183   4.921 -1.3531 -0.4183 -0.3189
  116OSM   C18F12149   6.172   1.010   4.986 -0.4797  0.4579  0.3357
  116OSM   H18F12150   6.081   1.074   4.977 -0.4818  0.7091  1.9039
  116OSM   H18G12151   6.158   0.948   5.077  2.0216 -0.3984  0.2124
  116OSM   H18H12152   6.164   0.946   4.895 -0.0396  0.7244  0.1077
  117OSM      N12153   3.896   5.248   6.465 -0.5901  0.3840  0.0373
  117OSM    C1512154   3.877   5.395   6.446  0.7699 -0.0249  0.3608
  117OSM   H15A12155   3.937   5.452   6.515  3.2971  0.1633 -1.8143
  117OSM   H15B12156   3.771   5.412   6.439  0.2895 -2.6005  0.4164
  117OSM   H15C12157   3.903   5.416   6.343 -0.1567 -2.0050 -0.3480
  117OSM    C1412158   4.046   5.230   6.436 -0.3941  0.6222 -0.2804
  117OSM   H14A12159   4.074   5.272   6.340  0.8603  1.1738  0.2920
  117OSM   H14B12160   4.074   5.127   6.422 -0.1885  0.7314 -0.6948
  117OSM   H14C12161   4.115   5.274   6.506  2.8525 -2.4752 -1.2628
  117OSM    C1312162   3.871   5.205   6.606  0.1579  0.7897 -0.4037
  117OSM   H13A12163   3.887   5.102   6.632  1.3220  0.7927 -1.0307
  117OSM   H13B12164   3.769   5.229   6.629  1.0089  1.0794  3.8397
  117OSM   H13C12165   3.929   5.271   6.669 -0.7993  2.2307 -0.9801
  117OSM    C1212166   3.822   5.171   6.358  0.1759  0.1933 -0.0127
  117OSM   H12A12167   3.870   5.194   6.264 -0.6581  1.3365 -0.1857
  117OSM   H12B12168   3.719   5.202   6.371 -0.3316 -1.9835  1.8516
  117OSM    C1112169   3.817   5.015   6.367  0.0790  0.1389 -0.0603
  117OSM   H11A12170   3.778   4.981   6.269 -2.1086  1.6826  0.1833
  117OSM   H11B12171   3.734   4.989   6.437 -0.3943  1.5085 -0.0646
  117OSM      P12172   3.940   4.803   6.447 -0.1000  0.4397  0.3398
  117OSM    O1312173   4.053   4.784   6.544 -0.3300 -0.4215 -0.4546
  117OSM    O1412174   3.801   4.770   6.494 -0.8763 -0.7742  0.0753
  117OSM    O1112175   3.978   4.719   6.318  0.7823  0.0746  0.2915
  117OSM    O1212176   3.940   4.952   6.401  0.0031  0.1252 -0.2501
  117OSM    C1S12177   4.002   4.788   6.191 -0.2371 -1.0508 -0.3413
  117OSM    H1S12178   4.071   4.875   6.203 -1.2351 -0.4334  1.3064
  117OSM    H1T12179   3.906   4.826   6.151  0.0141 -2.3301 -2.3043
  117OSM     NF12180   4.108   4.767   5.969 -0.5196 -0.3415 -0.2239
  117OSM    HNF12181   4.043   4.782   5.894  1.0443  1.2955 -1.3381
  117OSM    C2S12182   4.063   4.690   6.083 -0.1513 -0.5432 -1.0705
  117OSM    H2S12183   4.150   4.642   6.132 -1.2192 -0.9786  0.4710
  117OSM    C3S12184   3.967   4.576   6.058  0.6274  0.4515  0.5716
  117OSM    H3S12185   3.884   4.616   5.996  2.5138  0.0747 -2.4242
  117OSM     O312186   3.899   4.531   6.175 -0.1214 -0.2572 -1.1022
  117OSM    HO312187   3.909   4.598   6.242 -0.9152 -0.4904 -0.7431
  117OSM    C4S12188   4.041   4.465   5.983 -0.6297  0.1749  0.3619
  117OSM    H4S12189   4.150   4.458   6.000 -0.0617  0.8055 -2.5216
  117OSM    C5S12190   3.994   4.401   5.874  0.4813 -0.1284  0.3666
  117OSM    H5S12191   3.896   4.433   5.836  0.8251 -0.5094 -0.8942
  117OSM    C6S12192   4.064   4.314   5.776  0.0121 -0.6075 -0.2530
  117OSM    H6S12193   4.021   4.212   5.770  0.1886 -0.6125 -3.9322
  117OSM    H6T12194   4.172   4.313   5.799  0.2029  1.3089 -0.8629
  117OSM    C7S12195   4.047   4.374   5.636 -0.6895 -0.4236 -0.3027
  117OSM    H7S12196   4.084   4.478   5.628 -0.0085 -0.6022  0.3801
  117OSM    H7T12197   3.941   4.374   5.603 -1.6254  2.4917  2.1798
  117OSM    C8S12198   4.117   4.304   5.522 -0.0580 -0.7735  0.3563
  117OSM    H8S12199   4.082   4.199   5.517 -0.6952 -0.5221 -2.7844
  117OSM    H8T12200   4.226   4.301   5.539  0.1867  0.1360 -0.9266
  117OSM    C9S12201   4.084   4.371   5.386 -0.0152  0.4094 -0.0077
  117OSM    H9S12202   4.092   4.480   5.405  0.5131  0.2773  0.5420
  117OSM    H9T12203   3.979   4.350   5.357 -0.4688  0.5374  1.4531
  117OSM   C10S12204   4.186   4.323   5.274  0.6617 -0.0948  0.0327
  117OSM   H10S12205   4.165   4.215   5.255  1.2693 -0.2980  0.4690
  117OSM   H10T12206   4.291   4.338   5.305  0.7369  1.0628 -0.7420
  117OSM   C11S12207   4.156   4.397   5.145  0.9406  0.6427 -0.2884
  117OSM   H11S12208   4.151   4.506   5.166 -2.0807  0.3150  1.3074
  117OSM   H11T12209   4.050   4.378   5.117  1.2540 -0.8728 -0.5609
  117OSM   C12S12210   4.232   4.361   5.019  0.1255  0.5408  0.2176
  117OSM   H12S12211   4.218   4.255   4.987  2.7160  0.8435 -2.4871
  117OSM   H12T12212   4.341   4.366   5.042  0.2125 -1.7075  0.5522
  117OSM   C13S12213   4.200   4.456   4.908 -0.3400 -0.0534 -0.2266
  117OSM   H13S12214   4.232   4.558   4.934  0.8706 -0.7776  1.2568
  117OSM   H13T12215   4.092   4.459   4.882 -0.8403  4.3464  1.5352
  117OSM   C14S12216   4.290   4.438   4.782 -0.1464 -0.1502 -0.4354
  117OSM   H14S12217   4.273   4.341   4.731  1.9690 -0.7571 -0.0832
  117OSM   H14T12218   4.391   4.448   4.829  0.0554  1.0122 -1.1026
  117OSM   C15S12219   4.273   4.543   4.668  0.1448 -0.5629 -0.3354
  117OSM   H15S12220   4.276   4.641   4.719  1.2797 -1.0801  0.6492
  117OSM   H15T12221   4.176   4.549   4.615  0.7505  2.3429 -1.2962
  117OSM   C16S12222   4.385   4.531   4.561  0.8362 -0.0309  0.0775
  117OSM   H16S12223   4.476   4.526   4.623  0.9094 -2.0635 -0.1436
  117OSM   H16T12224   4.379   4.614   4.486 -1.5043 -0.3544 -0.1949
  117OSM   C17S12225   4.391   4.391   4.488  0.3605  0.2801  0.2598
  117OSM   H17S12226   4.402   4.315   4.568 -0.0054  1.1499  1.1380
  117OSM   H17T12227   4.496   4.383   4.451 -0.2914 -0.0850 -1.6471
  117OSM   C18S12228   4.288   4.369   4.378  0.4296  0.0867  1.0245
  117OSM   H18S12229   4.316   4.438   4.296 -2.1816 -0.5735 -0.5029
  117OSM   H18T12230   4.185   4.389   4.413  0.1561 -2.0886  1.6115
  117OSM   H18U12231   4.295   4.265   4.340 -1.3525  0.6537 -1.0203
  117OSM    C1F12232   4.215   4.848   5.982 -0.2027 -0.4460  0.4824
  117OSM     OF12233   4.279   4.852   6.083  0.0116 -0.7426 -0.1369
  117OSM    C2F12234   4.256   4.906   5.852 -0.3447  0.1958  0.2296
  117OSM    H2F12235   4.190   4.993   5.830  1.2184  1.4766  0.4040
  117OSM    H2G12236   4.248   4.828   5.774  0.1493  0.5099 -0.1361
  117OSM    C3F12237   4.407   4.947   5.838  0.0644 -0.0166  0.9714
  117OSM    H3F12238   4.470   4.857   5.853  0.0208 -0.0225  1.1159
  117OSM    H3G12239   4.418   5.025   5.915 -2.8176  1.2268  0.2771
  117OSM    C4F12240   4.439   5.008   5.700  0.8673 -0.4683 -0.2825
  117OSM    H4F12241   4.419   4.936   5.618  1.7252 -1.3312  0.2318
  117OSM    H4G12242   4.547   5.033   5.689  0.8882 -0.4980 -0.1487
  117OSM    C5F12243   4.354   5.138   5.674  0.5167 -0.2030 -0.5222
  117OSM    H5F12244   4.339   5.194   5.768 -1.8321 -2.3308  0.4965
  117OSM    H5G12245   4.254   5.114   5.631 -0.4987  0.7425  1.2117
  117OSM    C6F12246   4.406   5.225   5.563  0.0301 -0.6094  0.4324
  117OSM    H6F12247   4.410   5.157   5.475 -1.2793  1.0007 -0.9407
  117OSM    H6G12248   4.517   5.236   5.566  0.1040 -1.3089  0.4636
  117OSM    C7F12249   4.324   5.354   5.538  0.0004  0.0970  0.2685
  117OSM    H7F12250   4.350   5.426   5.619  0.0881  0.4288 -0.0507
  117OSM    H7G12251   4.217   5.328   5.549 -0.0337  0.2959  0.4027
  117OSM    C8F12252   4.346   5.410   5.401  0.1308 -0.3067  0.8421
  117OSM    H8F12253   4.288   5.505   5.390 -1.4354 -1.2477  0.6937
  117OSM    H8G12254   4.304   5.342   5.324  1.7787 -0.7975  0.3267
  117OSM    C9F12255   4.495   5.436   5.374  0.2920  0.0531  0.3988
  117OSM    H9F12256   4.554   5.479   5.456  0.9650  0.3097 -0.2039
  117OSM   C10F12257   4.563   5.384   5.267  0.0877 -0.3402 -0.2696
  117OSM   H10F12258   4.671   5.404   5.262  0.4819 -2.0242  0.7055
  117OSM   C11F12259   4.518   5.293   5.150 -0.1798 -0.4122 -0.7592
  117OSM   H11F12260   4.415   5.251   5.158 -0.9464  1.6817  1.5918
  117OSM   H11G12261   4.579   5.201   5.143  0.1907 -0.4102  1.6098
  117OSM   C12F12262   4.512   5.369   5.023  0.2697 -0.1973  0.5756
  117OSM   H12F12263   4.617   5.396   4.999  0.7158 -1.7273  0.6496
  117OSM   H12G12264   4.461   5.467   5.037 -1.1821 -0.5798 -1.5109
  117OSM   C13F12265   4.452   5.282   4.913  0.2134  0.3315 -0.2343
  117OSM   H13F12266   4.352   5.253   4.952 -0.3037  0.4854 -1.3972
  117OSM   H13G12267   4.501   5.183   4.901  2.0073  0.9779  1.2560
  117OSM   C14F12268   4.450   5.348   4.774  1.0209 -0.2573 -0.8940
  117OSM   H14F12269   4.556   5.350   4.741  1.3397 -0.8468  0.0581
  117OSM   H14G12270   4.413   5.450   4.797  0.2933 -0.5292 -0.8472
  117OSM   C15F12271   4.342   5.296   4.676  0.4099 -0.0631  0.3406
  117OSM   H15F12272   4.253   5.259   4.731  0.2838  0.8996  0.8097
  117OSM   H15G12273   4.395   5.209   4.633 -0.2159 -0.5435  0.5263
  117OSM   C16F12274   4.301   5.395   4.566 -0.3758 -0.1584 -0.2264
  117OSM   H16F12275   4.226   5.458   4.618 -1.1726 -0.3544 -1.0947
  117OSM   H16G12276   4.247   5.353   4.478 -0.6308  0.1884 -0.2388
  117OSM   C17F12277   4.401   5.500   4.513 -0.5447  0.0291 -0.3037
  117OSM   H17F12278   4.473   5.444   4.450 -0.6012  0.3333 -0.6382
  117OSM   H17G12279   4.461   5.526   4.603 -2.5526 -0.3405  1.2340
  117OSM   C18F12280   4.337   5.618   4.445  0.2503  0.0198  0.0982
  117OSM   H18F12281   4.416   5.673   4.391 -0.5375  0.7880 -0.3012
  117OSM   H18G12282   4.279   5.685   4.512 -0.8514  0.5219 -1.3016
  117OSM   H18H12283   4.263   5.594   4.365  0.4731  0.6740 -0.3110
  118OSM      N12284   4.317   4.471   6.390 -0.0606 -0.3866 -0.0657
  118OSM    C1512285   4.398   4.570   6.312 -0.0344  1.0350 -0.1346
  118OSM   H15A12286   4.344   4.623   6.235 -2.7488 -2.8960 -1.2386
  118OSM   H15B12287   4.474   4.522   6.253  0.4042 -0.4354  1.5267
  118OSM   H15C12288   4.433   4.653   6.373 -0.0522  0.5132  0.6096
  118OSM    C1412289   4.237   4.548   6.492  0.6270  0.6364 -0.0996
  118OSM   H14A12290   4.302   4.610   6.551  0.0372 -0.2181  1.5318
  118OSM   H14B12291   4.177   4.484   6.555 -1.1631  0.1748 -2.1645
  118OSM   H14C12292   4.160   4.603   6.442 -1.1722 -2.4764 -1.0636
  118OSM    C1312293   4.222   4.402   6.303 -0.2689  0.3720  0.1245
  118OSM   H13A12294   4.159   4.474   6.253 -1.1985  1.3209  2.4833
  118OSM   H13B12295   4.166   4.331   6.362  0.8156  1.1587  2.2011
  118OSM   H13C12296   4.263   4.347   6.220 -1.8583 -0.9317  0.1559
  118OSM    C1212297   4.407   4.369   6.463  0.4942 -0.0739 -0.1110
  118OSM   H12A12298   4.457   4.302   6.395 -1.3420  0.9951 -2.6990
  118OSM   H12B12299   4.339   4.307   6.520  0.3426  1.6134  1.6615
  118OSM    C1112300   4.495   4.429   6.576  0.9655 -0.1016 -0.7675
  118OSM   H11A12301   4.441   4.481   6.658  0.1370 -1.1279 -0.6394
  118OSM   H11B12302   4.570   4.502   6.537  1.3396  1.3418  2.3121
  118OSM      P12303   4.700   4.265   6.623 -0.2016  0.1373  0.2106
  118OSM    O1312304   4.785   4.304   6.735 -0.0456  0.4876 -0.1524
  118OSM    O1412305   4.697   4.121   6.585 -0.0585 -0.2917  0.3901
  118OSM    O1112306   4.747   4.349   6.492 -0.3360  0.8624  0.4372
  118OSM    O1212307   4.554   4.319   6.640  0.0740  0.5276 -0.3273
  118OSM    C1S12308   4.818   4.266   6.392  0.6871 -0.6456 -0.8213
  118OSM    H1S12309   4.766   4.173   6.362  0.1362 -0.6054 -0.0166
  118OSM    H1T12310   4.913   4.223   6.431 -1.0928 -2.5238  1.7898
  118OSM     NF12311   4.868   4.262   6.148 -0.1237 -0.2876 -0.1250
  118OSM    HNF12312   4.958   4.227   6.122  0.9889  1.8432  0.5483
  118OSM    C2S12313   4.854   4.349   6.265 -0.4688  0.2464 -0.0814
  118OSM    H2S12314   4.762   4.409   6.248 -1.9320 -1.0185  2.6501
  118OSM    C3S12315   4.974   4.439   6.295  0.2479  0.9622 -0.4528
  118OSM    H3S12316   5.048   4.372   6.343 -2.6624 -1.0269  1.5928
  118OSM     O312317   4.954   4.524   6.402 -0.0277 -0.3464 -0.7475
  118OSM    HO312318   4.878   4.490   6.449  0.1243 -1.8135 -1.5098
  118OSM    C4S12319   4.997   4.528   6.180  1.0305  0.4550 -0.0492
  118OSM    H4S12320   4.920   4.605   6.166 -0.7230 -1.0152  1.1132
  118OSM    C5S12321   5.100   4.529   6.092 -0.1636  0.3002  0.4227
  118OSM    H5S12322   5.186   4.461   6.103  0.1945  0.4958 -0.9942
  118OSM    C6S12323   5.112   4.620   5.977  0.2579  0.0144 -0.2565
  118OSM    H6S12324   5.181   4.706   5.995  1.6066 -0.6664 -1.9075
  118OSM    H6T12325   5.012   4.659   5.951 -1.3238 -3.9682 -0.8283
  118OSM    C7S12326   5.159   4.543   5.852  0.4861 -0.0389  0.4595
  118OSM    H7S12327   5.102   4.450   5.831 -0.1934  0.8082 -1.7200
  118OSM    H7T12328   5.265   4.518   5.874  0.3638 -0.3636  0.6802
  118OSM    C8S12329   5.162   4.636   5.731 -0.0740 -0.3781  0.8011
  118OSM    H8S12330   5.233   4.720   5.751  0.1553  0.3050 -2.3879
  118OSM    H8T12331   5.060   4.679   5.715 -0.8737 -2.2908  0.5425
  118OSM    C9S12332   5.192   4.568   5.593 -0.4250 -0.4612 -0.3734
  118OSM    H9S12333   5.117   4.489   5.572 -0.4915 -0.3467 -0.5684
  118OSM    H9T12334   5.293   4.524   5.586  1.2617  3.3014 -4.7999
  118OSM   C10S12335   5.187   4.668   5.480 -0.3676 -0.2993 -0.0149
  118OSM   H10S12336   5.278   4.731   5.474 -0.5089 -0.1691 -0.9075
  118OSM   H10T12337   5.105   4.742   5.486 -0.9141 -0.8258 -0.7695
  118OSM   C11S12338   5.165   4.600   5.340  0.2823  0.8320  0.0345
  118OSM   H11S12339   5.062   4.557   5.339  0.6258 -0.0448  0.7512
  118OSM   H11T12340   5.234   4.513   5.333 -1.1039 -0.5797  2.5419
  118OSM   C12S12341   5.181   4.692   5.225  0.1753  0.1501 -0.4572
  118OSM   H12S12342   5.281   4.739   5.229 -0.2927  1.2867 -1.5616
  118OSM   H12T12343   5.103   4.771   5.223 -1.1301 -0.9279  2.2362
  118OSM   C13S12344   5.169   4.642   5.082 -0.3638  0.1339  0.2546
  118OSM   H13S12345   5.081   4.574   5.075 -1.5740  1.2941  2.9189
  118OSM   H13T12346   5.260   4.583   5.055  0.3237  0.6348  1.4204
  118OSM   C14S12347   5.162   4.756   4.978 -0.4132  0.0547  0.9373
  118OSM   H14S12348   5.256   4.815   4.980 -0.1592 -0.1744 -1.4860
  118OSM   H14T12349   5.072   4.819   4.992 -0.8039  0.1405 -1.5528
  118OSM   C15S12350   5.158   4.694   4.837 -0.8249  0.0470  0.8588
  118OSM   H15S12351   5.074   4.626   4.810  0.1222 -0.8877  0.2103
  118OSM   H15T12352   5.251   4.634   4.830 -0.3261  0.9643 -0.8756
  118OSM   C16S12353   5.162   4.794   4.721  0.4679 -0.1436 -0.5012
  118OSM   H16S12354   5.262   4.843   4.721 -0.5012  1.9733 -0.2601
  118OSM   H16T12355   5.090   4.878   4.735  1.0144  0.2611 -0.0878
  118OSM   C17S12356   5.145   4.747   4.577 -0.3871  0.4052  0.1954
  118OSM   H17S12357   5.130   4.837   4.514  0.6155  0.2578 -0.2629
  118OSM   H17T12358   5.058   4.679   4.567 -1.4652  1.7442  0.1109
  118OSM   C18S12359   5.274   4.690   4.522 -0.4626 -0.0517 -0.0990
  118OSM   H18S12360   5.367   4.750   4.533 -0.1431 -0.2021 -1.7250
  118OSM   H18T12361   5.263   4.671   4.413 -0.2710  0.4728 -0.2143
  118OSM   H18U12362   5.306   4.596   4.571 -2.6409 -1.3310 -1.0362
  118OSM    C1F12363   4.761   4.218   6.078  0.2631  0.3594 -1.2767
  118OSM     OF12364   4.648   4.243   6.108 -0.0566 -0.7617  0.0476
  118OSM    C2F12365   4.781   4.115   5.978 -0.1851 -0.4062 -0.0644
  118OSM    H2F12366   4.858   4.043   6.016 -1.1149 -1.9588 -1.0156
  118OSM    H2G12367   4.815   4.157   5.881 -1.6311  0.9362 -0.0120
  118OSM    C3F12368   4.657   4.034   5.943 -0.9442  0.0195 -0.2300
  118OSM    H3F12369   4.580   4.090   5.885 -1.0177 -0.9706 -1.1321
  118OSM    H3G12370   4.605   3.981   6.025 -0.7013 -2.1276 -1.3750
  118OSM    C4F12371   4.693   3.914   5.854  0.0237  0.4578  0.4842
  118OSM    H4F12372   4.592   3.868   5.848  0.2039  0.2473 -1.4081
  118OSM    H4G12373   4.766   3.845   5.903 -0.7087 -1.8451 -1.4271
  118OSM    C5F12374   4.749   3.954   5.714  0.0067  0.3852  0.3121
  118OSM    H5F12375   4.840   4.015   5.732  0.0204  0.2749  0.6212
  118OSM    H5G12376   4.669   4.016   5.669 -1.7220 -1.1455  1.1388
  118OSM    C6F12377   4.788   3.834   5.622  0.3621 -0.1507  1.0060
  118OSM    H6F12378   4.708   3.757   5.619 -0.3489  0.6012 -0.6425
  118OSM    H6G12379   4.879   3.791   5.670  0.1306 -2.0196 -0.1393
  118OSM    C7F12380   4.830   3.867   5.479 -0.8163 -0.5162  0.0293
  118OSM    H7F12381   4.846   3.977   5.477 -2.4542 -0.2311  0.9128
  118OSM    H7G12382   4.748   3.862   5.404  1.1261  2.6450 -2.5933
  118OSM    C8F12383   4.953   3.791   5.429 -0.6848  0.9542 -0.2803
  118OSM    H8F12384   5.037   3.802   5.501 -0.3825 -0.5121 -0.3746
  118OSM    H8G12385   4.992   3.837   5.335 -1.8991  0.5491 -1.0113
  118OSM    C9F12386   4.926   3.639   5.415 -0.0140 -0.6212 -0.6523
  118OSM    H9F12387   4.941   3.576   5.503  1.5902 -0.2508 -0.6337
  118OSM   C10F12388   4.862   3.583   5.318 -0.7210 -0.3834 -0.3117
  118OSM   H10F12389   4.844   3.476   5.333  1.6244 -0.7282  0.4205
  118OSM   C11F12390   4.825   3.642   5.188 -0.5160  0.2129  0.9387
  118OSM   H11F12391   4.796   3.748   5.199  0.6169  0.6740 -0.2511
  118OSM   H11G12392   4.739   3.585   5.148  1.3966 -0.5472 -2.5193
  118OSM   C12F12393   4.947   3.644   5.090  0.7059  0.4320  0.9000
  118OSM   H12F12394   5.027   3.708   5.131  1.3978  0.4851 -0.4806
  118OSM   H12G12395   4.914   3.701   5.000 -1.4048 -3.1149 -0.8049
  118OSM   C13F12396   5.004   3.504   5.039 -0.2172 -0.0126 -0.7055
  118OSM   H13F12397   4.928   3.447   4.982  1.3808 -1.5824 -1.3790
  118OSM   H13G12398   5.044   3.442   5.121 -1.2074  0.3003  0.0262
  118OSM   C14F12399   5.126   3.526   4.953 -0.4745  0.0022 -0.5587
  118OSM   H14F12400   5.197   3.577   5.021 -0.5772 -1.7364  0.9209
  118OSM   H14G12401   5.105   3.588   4.863  1.9517 -0.6186 -1.6483
  118OSM   C15F12402   5.188   3.387   4.917 -0.4910  0.3895  0.2968
  118OSM   H15F12403   5.127   3.338   4.838 -0.4126 -0.7743  0.9342
  118OSM   H15G12404   5.186   3.311   4.998  0.8523 -1.1186 -1.0005
  118OSM   C16F12405   5.332   3.411   4.862  0.5032 -0.7739  0.0102
  118OSM   H16F12406   5.396   3.459   4.939 -0.8169  0.3939  0.4189
  118OSM   H16G12407   5.324   3.481   4.777 -3.0971 -1.3828 -0.3204
  118OSM   C17F12408   5.398   3.284   4.816 -0.5548  0.1222 -0.5925
  118OSM   H17F12409   5.323   3.204   4.794  2.1334 -2.9380  0.5378
  118OSM   H17G12410   5.454   3.244   4.903 -1.0309 -2.8093 -1.5074
  118OSM   C18F12411   5.498   3.305   4.705 -0.7977  0.2912 -0.1828
  118OSM   H18F12412   5.563   3.217   4.689 -0.9090 -0.2070  1.9004
  118OSM   H18G12413   5.551   3.403   4.708 -0.1273 -0.0809  0.6242
  118OSM   H18H12414   5.441   3.313   4.610  0.2458  0.6861 -0.7935
  119OSM      N12415   4.269   6.103   6.449  0.5139  0.2841 -0.0226
  119OSM    C1512416   4.303   5.970   6.517  0.7104  0.4413 -0.1458
  119OSM   H15A12417   4.334   5.982   6.620  1.4603  0.2822 -0.3461
  119OSM   H15B12418   4.385   5.931   6.458  0.0909  1.0635 -1.4586
  119OSM   H15C12419   4.222   5.899   6.510  1.2123 -0.6856  3.3515
  119OSM    C1412420   4.216   6.066   6.317  0.2719 -0.5778  0.8942
  119OSM   H14A12421   4.175   6.145   6.256  0.7720 -1.6879 -0.9544
  119OSM   H14B12422   4.145   5.985   6.316 -0.0003 -0.3547  1.6524
  119OSM   H14C12423   4.294   6.023   6.255  0.2960  2.9414 -1.8689
  119OSM    C1312424   4.157   6.168   6.523 -0.0039  0.1592 -0.7151
  119OSM   H13A12425   4.087   6.098   6.568 -0.8145  1.5460  0.2724
  119OSM   H13B12426   4.096   6.238   6.469  1.4347  0.7290 -1.6467
  119OSM   H13C12427   4.198   6.211   6.613  0.8497 -0.7913 -0.6325
  119OSM    C1212428   4.383   6.201   6.434  0.5914  0.2951  0.6662
  119OSM   H12A12429   4.432   6.227   6.527  0.6900 -0.0688  0.7162
  119OSM   H12B12430   4.342   6.292   6.392  1.3444  1.1091  1.6195
  119OSM    C1112431   4.495   6.159   6.337 -0.4474  0.5730  0.3124
  119OSM   H11A12432   4.568   6.243   6.336 -0.4446  0.5704 -0.3740
  119OSM   H11B12433   4.453   6.147   6.235  0.2078  0.0976  0.0882
  119OSM      P12434   4.683   6.018   6.473  0.1156  0.3245 -0.0215
  119OSM    O1312435   4.651   6.057   6.611  0.0684  0.1910  0.3623
  119OSM    O1412436   4.721   5.873   6.460  0.4694  0.3245  0.8450
  119OSM    O1112437   4.793   6.113   6.418  0.6272  0.1601 -0.6309
  119OSM    O1212438   4.551   6.033   6.380  0.4989  0.5989  0.6331
  119OSM    C1S12439   4.869   6.082   6.301  0.1095  0.2105 -0.0549
  119OSM    H1S12440   4.808   6.025   6.227  1.8032 -0.9313 -0.6429
  119OSM    H1T12441   4.957   6.021   6.331 -0.1875 -0.3982 -0.3943
  119OSM     NF12442   4.953   6.193   6.098 -0.3541 -0.4074 -0.2052
  119OSM    HNF12443   5.046   6.220   6.076 -0.9512  2.8288  0.6997
  119OSM    C2S12444   4.903   6.214   6.237 -0.8806 -0.4242 -0.1650
  119OSM    H2S12445   4.812   6.276   6.230 -0.4743  0.4188  1.4192
  119OSM    C3S12446   5.013   6.284   6.325  0.3444  0.2231  0.1336
  119OSM    H3S12447   5.099   6.214   6.330 -0.3846 -0.8960 -1.7270
  119OSM     O312448   4.971   6.312   6.460 -0.1900  0.2944 -0.6184
  119OSM    HO312449   4.905   6.242   6.469  1.5543 -1.4689 -0.7698
  119OSM    C4S12450   5.058   6.415   6.268  0.1142  0.0099 -0.6297
  119OSM    H4S12451   4.985   6.498   6.270  0.0722 -0.0073 -1.1838
  119OSM    C5S12452   5.170   6.444   6.205 -0.2783 -0.4946  0.0037
  119OSM    H5S12453   5.234   6.356   6.190 -1.5467 -1.6845  1.3429
  119OSM    C6S12454   5.235   6.573   6.163 -0.0851  0.7105 -0.5510
  119OSM    H6S12455   5.336   6.582   6.208  0.5252 -0.7793 -1.5320
  119OSM    H6T12456   5.176   6.662   6.192  0.0535  1.1476 -1.5496
  119OSM    C7S12457   5.265   6.586   6.014 -0.1501 -0.0015  0.9886
  119OSM    H7S12458   5.342   6.510   5.987 -1.5581 -0.6313 -1.5581
  119OSM    H7T12459   5.314   6.684   5.997 -1.4287  0.6056  0.6924
  119OSM    C8S12460   5.148   6.574   5.923  0.3712 -0.4551  0.0555
  119OSM    H8S12461   5.083   6.653   5.967  1.2044 -0.3772  1.1681
  119OSM    H8T12462   5.097   6.478   5.943 -0.5191  0.1723  0.9493
  119OSM    C9S12463   5.165   6.586   5.773 -0.7315 -0.5780  0.8672
  119OSM    H9S12464   5.216   6.499   5.727 -0.3679  0.0598  0.0153
  119OSM    H9T12465   5.236   6.667   5.744  0.4398 -2.0003 -0.3805
  119OSM   C10S12466   5.036   6.623   5.690  0.1254  0.4431 -0.2069
  119OSM   H10S12467   4.999   6.718   5.733 -0.2982  0.7121 -1.1355
  119OSM   H10T12468   4.971   6.533   5.700  2.3881 -1.0871  1.7125
  119OSM   C11S12469   5.078   6.657   5.546 -0.3971 -0.3622  0.6153
  119OSM   H11S12470   5.166   6.726   5.548  0.2801 -1.2097  2.7135
  119OSM   H11T12471   4.992   6.695   5.488  0.0999 -2.2691 -1.4943
  119OSM   C12S12472   5.121   6.544   5.451  0.1571  0.4112  0.5293
  119OSM   H12S12473   5.046   6.462   5.453  0.0585  0.5039  0.6557
  119OSM   H12T12474   5.218   6.509   5.491 -0.3174 -0.1346  1.2315
  119OSM   C13S12475   5.128   6.591   5.303  0.9975  0.4320 -0.0565
  119OSM   H13S12476   5.172   6.692   5.289  1.2743  0.3507  0.2109
  119OSM   H13T12477   5.021   6.593   5.272  0.8860 -4.1152 -0.7702
  119OSM   C14S12478   5.186   6.482   5.205  0.1619 -0.8022 -0.4390
  119OSM   H14S12479   5.124   6.392   5.222 -0.5548 -0.7637 -2.5903
  119OSM   H14T12480   5.291   6.460   5.235 -0.6330 -2.9220  0.9824
  119OSM   C15S12481   5.190   6.523   5.062  0.0414  0.3189  0.3647
  119OSM   H15S12482   5.257   6.453   5.007 -1.2175  0.6617 -1.6970
  119OSM   H15T12483   5.228   6.628   5.062 -0.5868  0.6224 -2.3522
  119OSM   C16S12484   5.056   6.514   4.986 -0.0161  0.5900  0.9573
  119OSM   H16S12485   4.960   6.547   5.030 -0.4557  2.1788 -1.0436
  119OSM   H16T12486   5.036   6.406   4.968  1.8718  0.0930  1.6343
  119OSM   C17S12487   5.075   6.584   4.849 -0.1038 -0.6224  0.0510
  119OSM   H17S12488   5.169   6.555   4.798  0.7640  0.5685  0.9185
  119OSM   H17T12489   5.079   6.692   4.874 -2.0362 -0.6959  0.8466
  119OSM   C18S12490   4.952   6.581   4.752  0.0464  0.2818  0.2176
  119OSM   H18S12491   4.858   6.611   4.804 -1.5400 -0.3899 -2.1342
  119OSM   H18T12492   4.937   6.480   4.709 -0.9444  1.0953 -1.4345
  119OSM   H18U12493   4.963   6.655   4.670  1.6726  0.3651  0.4724
  119OSM    C1F12494   4.871   6.169   5.999  0.0905  0.3886  0.4521
  119OSM     OF12495   4.757   6.130   6.023 -0.5319  0.0668 -0.2226
  119OSM    C2F12496   4.911   6.193   5.860  0.2081 -0.3851  0.1245
  119OSM    H2F12497   4.979   6.107   5.840 -0.4608 -1.1564  1.1001
  119OSM    H2G12498   4.952   6.296   5.863  1.3138 -0.8325  1.7903
  119OSM    C3F12499   4.795   6.182   5.751 -0.9557 -0.0250 -0.2669
  119OSM    H3F12500   4.704   6.242   5.772 -1.7896 -1.1061 -0.7308
  119OSM    H3G12501   4.756   6.079   5.761  0.4595 -0.4119  2.0729
  119OSM    C4F12502   4.837   6.207   5.606  0.7068  0.0286 -0.0741
  119OSM    H4F12503   4.920   6.140   5.577  1.3037  0.3524  0.8571
  119OSM    H4G12504   4.875   6.311   5.591 -0.2256  0.2174 -1.3739
  119OSM    C5F12505   4.727   6.180   5.507  0.0811  0.2596  0.3211
  119OSM    H5F12506   4.634   6.236   5.529 -1.5377 -2.2145  0.1681
  119OSM    H5G12507   4.702   6.073   5.526  1.2318 -0.2891 -1.0764
  119OSM    C6F12508   4.777   6.203   5.363 -0.1221  0.2828 -0.0616
  119OSM    H6F12509   4.874   6.149   5.363 -0.0485  0.0333  4.1102
  119OSM    H6G12510   4.793   6.310   5.338  1.0473 -0.0294 -0.7081
  119OSM    C7F12511   4.691   6.131   5.265 -0.5775  0.4896  0.8328
  119OSM    H7F12512   4.586   6.167   5.268 -0.8599  0.0207 -1.6071
  119OSM    H7G12513   4.694   6.023   5.289  0.7035  0.2853 -0.1567
  119OSM    C8F12514   4.723   6.141   5.113  0.4507 -0.3242  0.7634
  119OSM    H8F12515   4.648   6.083   5.054  0.3402 -0.1835  0.7664
  119OSM    H8G12516   4.808   6.078   5.080  0.0095  0.0462 -1.2326
  119OSM    C9F12517   4.741   6.284   5.058  0.3221 -0.2756 -1.0098
  119OSM    H9F12518   4.846   6.316   5.071 -0.3308  0.7823  3.2204
  119OSM   C10F12519   4.643   6.367   5.002 -0.8019  0.1467  0.8959
  119OSM   H10F12520   4.668   6.470   4.974  0.1508 -0.0595  0.9165
  119OSM   C11F12521   4.504   6.335   4.981  0.0168  0.4141 -0.0845
  119OSM   H11F12522   4.439   6.387   5.055 -0.4309  0.4839 -0.5247
  119OSM   H11G12523   4.484   6.226   4.993  0.6926  0.2919 -0.0458
  119OSM   C12F12524   4.436   6.375   4.848 -0.4290  0.3016  0.0116
  119OSM   H12F12525   4.337   6.328   4.834  0.2991 -1.5465  0.7456
  119OSM   H12G12526   4.499   6.334   4.766 -0.0242  0.1449  0.3954
  119OSM   C13F12527   4.419   6.534   4.827  0.1190  0.6919 -0.3258
  119OSM   H13F12528   4.519   6.581   4.818 -0.6941  2.6912  0.2959
  119OSM   H13G12529   4.363   6.573   4.915 -0.5796  1.3396 -1.0380
  119OSM   C14F12530   4.338   6.580   4.703  0.2059 -0.1907  0.2918
  119OSM   H14F12531   4.325   6.688   4.683 -3.7107 -0.3462  1.3486
  119OSM   H14G12532   4.236   6.538   4.716  0.3064 -1.0527 -1.3716
  119OSM   C15F12533   4.396   6.532   4.566  0.3903 -0.2101 -0.4667
  119OSM   H15F12534   4.377   6.424   4.551 -0.5214 -0.4668  2.0495
  119OSM   H15G12535   4.502   6.561   4.555  0.3919 -0.3726 -0.8823
  119OSM   C16F12536   4.332   6.592   4.440  0.0948  0.3691  0.1070
  119OSM   H16F12537   4.396   6.569   4.353 -2.0607  0.4261 -1.5850
  119OSM   H16G12538   4.332   6.703   4.451  1.0999  0.3213  0.7022
  119OSM   C17F12539   4.188   6.544   4.426  0.4740 -0.4915 -0.5914
  119OSM   H17F12540   4.126   6.604   4.496  1.1530 -0.8290  0.3274
  119OSM   H17G12541   4.181   6.439   4.462  1.3755 -0.5478 -0.5377
  119OSM   C18F12542   4.136   6.556   4.281  0.1380 -0.3699 -0.1286
  119OSM   H18F12543   4.031   6.527   4.261 -0.8588  1.2946  2.2027
  119OSM   H18G12544   4.208   6.514   4.207 -1.1765  0.2142 -1.7869
  119OSM   H18H12545   4.126   6.665   4.261  0.4805 -0.4062 -0.5190
  120OSM      N12546   1.921   6.032   7.121  0.2178 -0.2389  0.0128
  120OSM    C1512547   1.855   5.959   7.241  0.1570  1.0239  0.3692
  120OSM   H15A12548   1.852   6.022   7.329 -0.2941  1.1945  0.2337
  120OSM   H15B12549   1.913   5.873   7.269 -1.3343 -0.1587 -0.0573
  120OSM   H15C12550   1.752   5.935   7.221  0.8422 -1.7314 -0.1768
  120OSM    C1412551   2.067   6.030   7.152  0.5160  0.2596 -0.7952
  120OSM   H14A12552   2.119   6.108   7.098 -0.8276  2.8681  1.4256
  120OSM   H14B12553   2.113   5.936   7.125  2.4712  0.5994  1.0555
  120OSM   H14C12554   2.078   6.056   7.256 -0.4998  1.9434 -1.0661
  120OSM    C1312555   1.896   5.950   7.001  0.3668 -0.2643 -0.3952
  120OSM   H13A12556   1.882   5.845   7.021  0.1439  0.0742  1.3909
  120OSM   H13B12557   1.980   5.970   6.936  3.2751  3.1919  3.8184
  120OSM   H13C12558   1.801   5.978   6.958  0.1888  0.0816  0.2155
  120OSM    C1212559   1.871   6.175   7.092 -0.3371 -0.0784 -0.2515
  120OSM   H12A12560   1.905   6.236   7.174  0.1831 -0.6049 -0.0664
  120OSM   H12B12561   1.763   6.181   7.089 -0.4132 -1.2458 -0.3289
  120OSM    C1112562   1.922   6.237   6.961  0.0515 -0.5116  0.4124
  120OSM   H11A12563   1.863   6.328   6.935  0.3039 -0.3938  0.2404
  120OSM   H11B12564   1.896   6.170   6.876  0.9285 -1.8897  1.1896
  120OSM      P12565   2.136   6.384   7.021  0.1337  0.5329 -0.2403
  120OSM    O1312566   2.053   6.438   7.123 -0.4004  0.0209  0.7948
  120OSM    O1412567   2.282   6.367   7.045  0.3957  0.0506  0.4770
  120OSM    O1112568   2.118   6.479   6.901  0.2008 -0.4337  0.5150
  120OSM    O1212569   2.069   6.254   6.955  0.2388 -0.2129  0.3157
  120OSM    C1S12570   2.146   6.447   6.763  0.5167  0.3894  0.5070
  120OSM    H1S12571   2.197   6.352   6.735 -0.3664  0.4630 -1.5361
  120OSM    H1T12572   2.219   6.522   6.725 -0.3442  1.5065  0.9952
  120OSM     NF12573   2.046   6.405   6.537  0.4060 -0.7739 -0.3261
  120OSM    HNF12574   2.033   6.478   6.470 -0.4028 -0.2246  0.4019
  120OSM    C2S12575   2.013   6.449   6.674 -0.1530  0.8758  0.4215
  120OSM    H2S12576   1.950   6.365   6.708  1.1904 -0.8056 -1.0445
  120OSM    C3S12577   1.946   6.589   6.682  0.3606  0.0419 -0.8659
  120OSM    H3S12578   2.012   6.659   6.627 -0.7652 -0.8904 -3.6091
  120OSM     O312579   1.920   6.637   6.812 -0.3739  0.1093  0.3094
  120OSM    HO312580   1.971   6.573   6.863  0.9717  0.8084 -0.1056
  120OSM    C4S12581   1.823   6.587   6.602  0.8125 -0.3840  0.3308
  120OSM    H4S12582   1.815   6.672   6.533 -1.3646  0.2563  1.2682
  120OSM    C5S12583   1.704   6.530   6.642  0.2834 -0.7339  0.2391
  120OSM    H5S12584   1.701   6.478   6.738  3.4175  0.8361  1.3256
  120OSM    C6S12585   1.569   6.555   6.580 -0.5700 -0.1164  0.1321
  120OSM    H6S12586   1.515   6.631   6.641 -1.6454  0.5467 -1.5716
  120OSM    H6T12587   1.510   6.461   6.580 -2.1238  0.7978  1.2262
  120OSM    C7S12588   1.573   6.599   6.431 -0.1592  0.0734 -0.0947
  120OSM    H7S12589   1.627   6.518   6.377 -0.4472  0.1355 -0.4899
  120OSM    H7T12590   1.627   6.693   6.410 -1.8817  0.6094 -2.7055
  120OSM    C8S12591   1.436   6.622   6.371 -0.3774 -0.3817 -0.0262
  120OSM    H8S12592   1.399   6.716   6.418  0.8866  0.2528 -0.2510
  120OSM    H8T12593   1.362   6.545   6.402 -0.8324  0.4901  1.1677
  120OSM    C9S12594   1.445   6.649   6.219  0.0587 -0.7823 -0.6080
  120OSM    H9S12595   1.468   6.557   6.160  1.6338 -1.3566  0.8095
  120OSM    H9T12596   1.533   6.717   6.215  0.6512 -1.3861  1.3001
  120OSM   C10S12597   1.330   6.728   6.155 -0.5606 -0.2283  0.4941
  120OSM   H10S12598   1.329   6.828   6.204  1.9801 -0.2671  0.7876
  120OSM   H10T12599   1.231   6.678   6.162 -0.2021 -0.9756  0.3410
  120OSM   C11S12600   1.361   6.762   6.009 -0.2658 -0.0293  0.0455
  120OSM   H11S12601   1.469   6.785   5.994 -0.3480  1.7841  1.7969
  120OSM   H11T12602   1.302   6.851   5.978 -1.7568 -1.3593 -1.0792
  120OSM   C12S12603   1.318   6.651   5.910  0.5514  0.3254 -0.5045
  120OSM   H12S12604   1.217   6.611   5.936  0.3659  1.9412  1.5706
  120OSM   H12T12605   1.387   6.564   5.916  0.6944  0.4818  0.2265
  120OSM   C13S12606   1.309   6.696   5.761 -0.9803  0.1938 -0.1032
  120OSM   H13S12607   1.241   6.782   5.742 -2.1711 -0.5587  0.5890
  120OSM   H13T12608   1.260   6.615   5.704  0.2648 -0.9192  0.3722
  120OSM   C14S12609   1.451   6.719   5.711 -0.2854 -0.3836 -1.1301
  120OSM   H14S12610   1.519   6.633   5.727  1.7125  1.2891 -0.0918
  120OSM   H14T12611   1.495   6.797   5.778 -1.7001  0.1910 -0.8383
  120OSM   C15S12612   1.462   6.765   5.571 -0.2971  0.1469  0.7480
  120OSM   H15S12613   1.563   6.795   5.537 -1.1905  1.2884 -1.0470
  120OSM   H15T12614   1.391   6.848   5.549 -1.7541 -1.3038 -0.2364
  120OSM   C16S12615   1.438   6.654   5.468  0.8399 -0.1546  0.6028
  120OSM   H16S12616   1.348   6.591   5.484 -0.9172  1.3473 -2.4805
  120OSM   H16T12617   1.524   6.583   5.465 -1.1804 -2.7585  0.1991
  120OSM   C17S12618   1.427   6.713   5.319  0.1754 -1.1938 -0.9872
  120OSM   H17S12619   1.460   6.638   5.244 -2.2618 -2.2100 -1.1616
  120OSM   H17T12620   1.486   6.807   5.310 -0.3299 -0.8047 -0.3559
  120OSM   C18S12621   1.277   6.746   5.291 -0.4077  0.4651 -0.2826
  120OSM   H18S12622   1.246   6.851   5.306  0.1070  0.3984  1.4431
  120OSM   H18T12623   1.206   6.686   5.351 -0.8335  2.3387  1.1997
  120OSM   H18U12624   1.273   6.726   5.182  0.6743  1.7388 -0.5832
  120OSM    C1F12625   2.080   6.282   6.493 -0.5826 -0.2536 -0.7929
  120OSM     OF12626   2.102   6.189   6.571  0.7721  0.3800  0.2989
  120OSM    C2F12627   2.091   6.262   6.348  0.1091  0.7475 -0.2323
  120OSM    H2F12628   2.160   6.341   6.310 -1.1041  2.6557  1.3409
  120OSM    H2G12629   1.990   6.291   6.313  0.7638  2.3634 -0.9177
  120OSM    C3F12630   2.130   6.117   6.302 -0.9958  0.7880 -0.4807
  120OSM    H3F12631   2.051   6.050   6.341  0.6792 -0.2875  1.2370
  120OSM    H3G12632   2.217   6.076   6.357 -1.0785  0.2252 -0.7631
  120OSM    C4F12633   2.145   6.095   6.150 -0.5117  0.0418 -0.1182
  120OSM    H4F12634   2.158   5.985   6.139 -0.0727  0.0049  0.6472
  120OSM    H4G12635   2.232   6.157   6.118 -0.1798 -0.1261  0.4396
  120OSM    C5F12636   2.019   6.134   6.078 -0.1972 -0.3317  0.5924
  120OSM    H5F12637   1.995   6.238   6.107  0.3254 -0.3570  1.1413
  120OSM    H5G12638   1.939   6.061   6.105  1.3350 -2.1497  0.4984
  120OSM    C6F12639   2.052   6.114   5.927  0.5023 -0.3963 -0.0591
  120OSM    H6F12640   2.042   6.006   5.899 -0.8362 -0.0430 -1.0544
  120OSM    H6G12641   2.148   6.166   5.909 -0.7280  2.3814  0.8974
  120OSM    C7F12642   1.949   6.181   5.834 -0.2480  0.0144 -0.6443
  120OSM    H7F12643   1.960   6.284   5.876  0.5200 -0.5320  0.5802
  120OSM    H7G12644   1.850   6.138   5.861 -0.2818 -0.3463 -1.3267
  120OSM    C8F12645   1.983   6.149   5.689  0.2726  0.6129  0.8438
  120OSM    H8F12646   1.985   6.040   5.672 -1.4299  0.7123 -0.2831
  120OSM    H8G12647   2.080   6.195   5.660 -0.9947  1.7030 -2.1036
  120OSM    C9F12648   1.889   6.219   5.593 -0.0701  0.0876 -1.5766
  120OSM    H9F12649   1.850   6.310   5.641 -1.2432 -1.2623  0.1580
  120OSM   C10F12650   1.831   6.168   5.484 -0.1901 -0.4625 -0.0129
  120OSM   H10F12651   1.769   6.240   5.429 -1.5601 -1.1035  0.6380
  120OSM   C11F12652   1.864   6.038   5.418  0.1495  0.5925 -0.5286
  120OSM   H11F12653   1.772   5.991   5.377 -0.8253 -0.7559  2.8782
  120OSM   H11G12654   1.915   5.960   5.478  0.4993 -1.1768 -2.9666
  120OSM   C12F12655   1.957   6.045   5.289  0.0197  0.5260 -0.3850
  120OSM   H12F12656   1.960   5.947   5.237  0.2169  1.9327 -3.2249
  120OSM   H12G12657   2.059   6.068   5.325  0.6911  0.0184 -1.8905
  120OSM   C13F12658   1.923   6.154   5.185 -0.1768 -0.6509  0.3649
  120OSM   H13F12659   1.947   6.249   5.238 -3.5886  1.4454 -1.4661
  120OSM   H13G12660   1.814   6.161   5.165 -0.4247 -1.6528  1.2535
  120OSM   C14F12661   2.010   6.136   5.054  0.5457 -0.3654  0.1363
  120OSM   H14F12662   2.113   6.109   5.084  1.0489 -0.4103 -1.5308
  120OSM   H14G12663   2.007   6.229   4.993  1.3651 -1.1754 -1.1788
  120OSM   C15F12664   1.967   6.022   4.956 -0.9157 -0.1902 -0.0347
  120OSM   H15F12665   1.884   6.067   4.897 -0.9254 -0.2622 -0.0760
  120OSM   H15G12666   1.927   5.930   5.004 -0.1823 -1.8503 -2.4172
  120OSM   C16F12667   2.069   5.982   4.849 -0.1996 -0.7322  0.1727
  120OSM   H16F12668   2.079   6.071   4.783 -0.5745 -0.8807 -0.0909
  120OSM   H16G12669   2.024   5.903   4.786  2.1160 -1.8175 -0.1962
  120OSM   C17F12670   2.200   5.938   4.915  0.4014  0.0141 -0.3281
  120OSM   H17F12671   2.178   5.863   4.994  0.0264  1.7021  1.2402
  120OSM   H17G12672   2.260   6.018   4.964  1.0163  1.3539 -3.0087
  120OSM   C18F12673   2.297   5.874   4.810  0.4387  0.1279  0.0315
  120OSM   H18F12674   2.254   5.775   4.783 -1.4459  0.4277  1.6959
  120OSM   H18G12675   2.398   5.865   4.856  0.7708  4.3444  0.4479
  120OSM   H18H12676   2.295   5.940   4.721 -2.4209  0.4458  0.2336
  121OSM      N12677   4.939   2.549   6.946  1.0779 -0.7275 -0.0547
  121OSM    C1512678   4.993   2.476   7.061  0.1532  0.0997  0.5075
  121OSM   H15A12679   5.092   2.516   7.075  0.2607  0.4460 -1.0987
  121OSM   H15B12680   5.000   2.370   7.039  1.5401  0.0796  0.9331
  121OSM   H15C12681   4.928   2.475   7.148  0.0721 -0.6140  0.4509
  121OSM    C1412682   4.788   2.547   6.963 -0.0776  0.5392 -0.3428
  121OSM   H14A12683   4.748   2.449   6.983  0.3529  0.6222  1.0734
  121OSM   H14B12684   4.727   2.577   6.878 -2.0861  1.0382  1.1833
  121OSM   H14C12685   4.759   2.614   7.043  0.0360 -1.2477  1.2457
  121OSM    C1312686   4.973   2.696   6.949 -0.2519  0.3395  0.1363
  121OSM   H13A12687   5.077   2.695   6.978  0.7422 -0.4919 -3.0289
  121OSM   H13B12688   4.927   2.756   7.026  0.7662  0.6068  0.5473
  121OSM   H13C12689   4.949   2.739   6.853  0.0744 -0.8794 -0.5093
  121OSM    C1212690   4.981   2.499   6.816  0.2004 -0.3286 -0.0977
  121OSM   H12A12691   5.085   2.527   6.813  0.7546 -2.3257 -1.0982
  121OSM   H12B12692   4.933   2.547   6.731  0.4572 -2.6959 -1.6876
  121OSM    C1112693   4.963   2.346   6.793 -0.2304  0.1886  0.2446
  121OSM   H11A12694   4.961   2.332   6.683  0.5390 -0.7625  0.3425
  121OSM   H11B12695   4.861   2.310   6.819 -1.1488 -1.8437 -5.0490
  121OSM      P12696   5.219   2.269   6.852 -0.1943  0.1068  0.3219
  121OSM    O1312697   5.271   2.406   6.841  0.5099  0.1511 -0.6936
  121OSM    O1412698   5.275   2.188   6.959 -0.1232 -0.2931 -0.8590
  121OSM    O1112699   5.251   2.187   6.724  0.3944 -0.5320  0.1465
  121OSM    O1212700   5.058   2.264   6.865  0.1216 -0.0857 -0.4611
  121OSM    C1S12701   5.244   2.049   6.706  0.4484 -0.0908 -0.1558
  121OSM    H1S12702   5.140   2.016   6.728 -0.0588  1.6873  0.2084
  121OSM    H1T12703   5.320   1.999   6.770  0.1604  0.2605  0.4632
  121OSM     NF12704   5.199   1.870   6.538 -0.0314  0.1431 -0.2827
  121OSM    HNF12705   5.263   1.794   6.551 -2.2707 -2.0122 -1.1167
  121OSM    C2S12706   5.255   2.010   6.552  0.3716  0.7414  0.4082
  121OSM    H2S12707   5.184   2.079   6.502  0.1793 -0.2560 -0.7456
  121OSM    C3S12708   5.394   2.026   6.494 -0.3349 -0.0388 -0.2528
  121OSM    H3S12709   5.466   1.961   6.549  0.6864 -0.1281 -1.6511
  121OSM     O312710   5.438   2.154   6.523  0.1551 -0.6934 -0.1938
  121OSM    HO312711   5.379   2.191   6.589 -1.2848 -2.6064 -0.3285
  121OSM    C4S12712   5.403   1.984   6.345  0.9730 -0.9239 -0.7242
  121OSM    H4S12713   5.320   2.022   6.284  1.1375  0.8907  0.1159
  121OSM    C5S12714   5.508   1.930   6.279  0.8551 -0.2183 -0.6114
  121OSM    H5S12715   5.609   1.915   6.320  1.0975  2.7413  0.0434
  121OSM    C6S12716   5.502   1.910   6.134  0.1575  0.0678 -0.4271
  121OSM    H6S12717   5.401   1.929   6.093 -0.2778 -0.2461  0.4864
  121OSM    H6T12718   5.530   1.803   6.122  0.4131  0.0773  0.0488
  121OSM    C7S12719   5.596   2.003   6.056  0.3171 -0.2706 -0.3178
  121OSM    H7S12720   5.693   2.000   6.109  0.0475 -1.5421  0.1339
  121OSM    H7T12721   5.561   2.109   6.065  0.8044 -0.0184 -1.3197
  121OSM    C8S12722   5.607   1.968   5.906  0.3724 -0.3481 -0.2840
  121OSM    H8S12723   5.505   1.996   5.872  0.0918 -1.4985 -0.4353
  121OSM    H8T12724   5.634   1.862   5.883  1.6553  0.1753 -1.3116
  121OSM    C9S12725   5.721   2.044   5.839  0.1460 -0.2293  0.5620
  121OSM    H9S12726   5.810   2.028   5.903  0.4628 -2.2690 -0.3328
  121OSM    H9T12727   5.700   2.153   5.852  0.1730 -0.1537  0.0124
  121OSM   C10S12728   5.716   2.007   5.694 -0.4501  0.6751 -0.6987
  121OSM   H10S12729   5.609   2.020   5.667 -1.3978 -3.0709  0.5493
  121OSM   H10T12730   5.744   1.900   5.677  2.9478  1.1829  0.8416
  121OSM   C11S12731   5.795   2.102   5.606 -0.6953  0.6026 -0.6758
  121OSM   H11S12732   5.904   2.087   5.624 -0.4720  1.9922 -0.7294
  121OSM   H11T12733   5.767   2.206   5.634  0.9141  1.0279 -0.5538
  121OSM   C12S12734   5.784   2.082   5.460 -0.7675 -0.7212  0.0810
  121OSM   H12S12735   5.674   2.068   5.459 -0.7988 -0.7694  2.0096
  121OSM   H12T12736   5.822   1.986   5.419 -2.2406 -0.4934 -2.0132
  121OSM   C13S12737   5.844   2.194   5.378  0.4062 -0.7630  0.1550
  121OSM   H13S12738   5.954   2.195   5.391  0.2833  0.4580  1.3659
  121OSM   H13T12739   5.798   2.291   5.407  1.6532 -0.0049 -0.3221
  121OSM   C14S12740   5.818   2.175   5.226 -0.0154  0.2449 -0.3294
  121OSM   H14S12741   5.709   2.170   5.202 -0.3442 -0.5369  1.1722
  121OSM   H14T12742   5.854   2.076   5.189  0.2426  0.3604 -0.3836
  121OSM   C15S12743   5.877   2.285   5.129 -0.3231 -0.9140  0.1162
  121OSM   H15S12744   5.976   2.323   5.162  0.0558 -0.5294 -1.3940
  121OSM   H15T12745   5.814   2.376   5.144 -0.0296 -0.4899 -1.1173
  121OSM   C16S12746   5.887   2.261   4.985 -0.4167  0.6487 -0.7459
  121OSM   H16S12747   5.786   2.241   4.943 -0.8179  1.2586 -0.1023
  121OSM   H16T12748   5.944   2.166   4.976 -3.2895 -1.3069  0.1548
  121OSM   C17S12749   5.960   2.384   4.913 -0.2438  0.4266 -0.3693
  121OSM   H17S12750   5.909   2.471   4.959  0.8447  1.2502 -0.6769
  121OSM   H17T12751   5.948   2.375   4.803  0.8636  0.1810 -0.4875
  121OSM   C18S12752   6.107   2.403   4.940  0.3321 -0.5772  0.0039
  121OSM   H18S12753   6.124   2.407   5.049  0.0339 -0.8828  0.0635
  121OSM   H18T12754   6.169   2.493   4.920 -0.0525  0.3942  2.7937
  121OSM   H18U12755   6.164   2.319   4.894  1.3128 -0.1867  0.4864
  121OSM    C1F12756   5.067   1.856   6.523 -0.8705  0.9789 -0.4345
  121OSM     OF12757   4.991   1.939   6.557 -0.3648 -0.0442  0.0141
  121OSM    C2F12758   5.025   1.719   6.477  0.2396  0.3498  0.6131
  121OSM    H2F12759   4.936   1.697   6.540 -0.7044  0.8285 -0.5224
  121OSM    H2G12760   5.101   1.647   6.514  1.8125  1.3222 -0.5741
  121OSM    C3F12761   4.997   1.705   6.324 -0.6052 -0.0089  0.4300
  121OSM    H3F12762   5.086   1.697   6.259 -0.0106  1.2423  1.0543
  121OSM    H3G12763   4.935   1.792   6.291 -0.4275  0.2776  0.8469
  121OSM    C4F12764   4.914   1.578   6.289  0.6647  0.7082 -0.4991
  121OSM    H4F12765   4.834   1.567   6.365  1.1109  0.9859  0.0075
  121OSM    H4G12766   4.986   1.495   6.305 -1.6239 -1.1155  0.9176
  121OSM    C5F12767   4.854   1.584   6.150  0.0705 -0.2546  0.5261
  121OSM    H5F12768   4.835   1.483   6.107  1.0705  0.0060 -0.5774
  121OSM    H5G12769   4.931   1.624   6.082  1.3125 -0.5842  1.6995
  121OSM    C6F12770   4.726   1.658   6.129 -0.0726 -0.0056 -0.2858
  121OSM    H6F12771   4.721   1.763   6.165 -0.5888  0.1167 -0.6865
  121OSM    H6G12772   4.645   1.595   6.172  0.0119  0.5351  0.6930
  121OSM    C7F12773   4.705   1.683   5.978  0.1969  0.2620  0.6301
  121OSM    H7F12774   4.792   1.738   5.936 -1.5511  1.8171 -1.2089
  121OSM    H7G12775   4.616   1.750   5.973 -0.9274 -1.2757 -2.3196
  121OSM    C8F12776   4.677   1.561   5.892 -0.2368  0.2584 -0.5252
  121OSM    H8F12777   4.588   1.506   5.928 -0.1713 -0.4002 -1.3488
  121OSM    H8G12778   4.767   1.496   5.900  0.1709  0.9007  0.3138
  121OSM    C9F12779   4.670   1.579   5.743  0.5202 -0.2475  0.0089
  121OSM    H9F12780   4.635   1.680   5.717 -1.3328 -0.7643  0.3562
  121OSM   C10F12781   4.662   1.479   5.650  0.0469 -0.2445  0.4392
  121OSM   H10F12782   4.653   1.508   5.544 -0.4112  1.4217  0.9012
  121OSM   C11F12783   4.700   1.336   5.682  0.0790 -0.0072 -0.0144
  121OSM   H11F12784   4.651   1.308   5.777 -1.3627  0.9948 -0.4264
  121OSM   H11G12785   4.809   1.313   5.688  0.2407  0.8398  0.4779
  121OSM   C12F12786   4.629   1.234   5.575 -0.4886  0.0362 -0.2478
  121OSM   H12F12787   4.526   1.265   5.549 -0.4648 -1.0063 -1.6730
  121OSM   H12G12788   4.633   1.134   5.624  1.9188  0.6631  1.0091
  121OSM   C13F12789   4.694   1.223   5.429  0.0007 -0.3896  0.4181
  121OSM   H13F12790   4.771   1.143   5.434  0.1938 -0.1304  3.3900
  121OSM   H13G12791   4.734   1.321   5.398 -0.0570 -0.2135  0.9017
  121OSM   C14F12792   4.595   1.182   5.316  0.3513 -0.0047 -0.4102
  121OSM   H14F12793   4.501   1.241   5.326  1.9152  2.8773 -1.4743
  121OSM   H14G12794   4.559   1.077   5.316  1.4116 -0.3722  0.0604
  121OSM   C15F12795   4.656   1.214   5.178 -0.0322  0.3464  0.1653
  121OSM   H15F12796   4.708   1.312   5.184  0.1321  0.2636  0.0944
  121OSM   H15G12797   4.571   1.224   5.107 -0.9795 -1.7389  0.9023
  121OSM   C16F12798   4.756   1.107   5.122  0.1606 -0.3806  0.3187
  121OSM   H16F12799   4.691   1.022   5.092  0.7208  0.0950 -2.5577
  121OSM   H16G12800   4.825   1.068   5.200 -2.5402  0.0223  3.1256
  121OSM   C17F12801   4.830   1.156   4.991  0.1563  0.1316 -0.8354
  121OSM   H17F12802   4.884   1.247   5.025 -1.5329  0.6208  0.6850
  121OSM   H17G12803   4.759   1.189   4.912  2.3232  0.2022 -2.8797
  121OSM   C18F12804   4.917   1.053   4.922  0.7458  0.3371  0.5234
  121OSM   H18F12805   5.017   1.034   4.966  1.5806  1.9354 -0.5807
  121OSM   H18G12806   4.936   1.064   4.813  0.9044  2.0446  0.6886
  121OSM   H18H12807   4.864   0.956   4.934 -1.5645  1.4968  0.2046
  122OSM      N12808   3.804   4.450   6.656 -0.3090  0.0407 -0.1392
  122OSM    C1512809   3.693   4.556   6.665  0.2421  0.7313  1.0655
  122OSM   H15A12810   3.730   4.654   6.637  0.6849  0.9233  2.2660
  122OSM   H15B12811   3.677   4.570   6.771 -0.3595 -0.3256  1.1230
  122OSM   H15C12812   3.607   4.519   6.612  0.0642  0.0445  1.8265
  122OSM    C1412813   3.750   4.328   6.707  0.4504  0.2401  0.0073
  122OSM   H14A12814   3.729   4.338   6.813  0.5135  0.9034 -0.0379
  122OSM   H14B12815   3.825   4.250   6.698  0.8268  0.6866 -0.7897
  122OSM   H14C12816   3.671   4.282   6.651  0.6551 -0.8175  0.5623
  122OSM    C1312817   3.845   4.434   6.517 -0.0921 -0.3451 -0.4024
  122OSM   H13A12818   3.768   4.380   6.463 -0.3219  0.0425 -0.4639
  122OSM   H13B12819   3.933   4.371   6.511  1.2257  1.2134  1.3192
  122OSM   H13C12820   3.857   4.531   6.472 -2.4001 -0.0233 -0.4282
  122OSM    C1212821   3.921   4.483   6.751 -0.1267  0.0682 -0.3906
  122OSM   H12A12822   3.873   4.487   6.848  0.5211  0.2983 -0.0696
  122OSM   H12B12823   3.960   4.584   6.741  0.5117 -0.1013  0.2403
  122OSM    C1112824   4.047   4.387   6.764 -0.2054 -0.3080 -0.4115
  122OSM   H11A12825   4.017   4.308   6.837 -1.1413  0.0462 -0.3953
  122OSM   H11B12826   4.128   4.448   6.809 -1.5177  1.8162 -0.8019
  122OSM      P12827   4.090   4.175   6.607 -0.2049  0.1114 -0.3391
  122OSM    O1312828   4.228   4.138   6.625 -0.6313  0.2826 -0.5918
  122OSM    O1412829   3.991   4.097   6.683 -0.0739  0.3496 -0.7812
  122OSM    O1112830   4.055   4.172   6.450 -0.0540  0.5483 -0.8073
  122OSM    O1212831   4.087   4.331   6.633 -0.0318 -0.0971  0.2878
  122OSM    C1S12832   3.960   4.064   6.412  0.3559 -0.1101 -0.6385
  122OSM    H1S12833   3.859   4.104   6.434 -0.4793 -2.4481  0.0775
  122OSM    H1T12834   3.962   3.971   6.472  2.4500  0.2934  0.0119
  122OSM     NF12835   3.836   3.953   6.224 -0.2065  0.0595 -0.1069
  122OSM    HNF12836   3.847   3.854   6.218  0.5730  0.1486 -0.3011
  122OSM    C2S12837   3.958   4.029   6.263  0.2565 -0.0678 -0.3065
  122OSM    H2S12838   3.938   4.126   6.212 -3.6282 -0.6121 -0.1627
  122OSM    C3S12839   4.092   3.971   6.215  0.9684 -0.1599  0.5461
  122OSM    H3S12840   4.107   3.874   6.266  0.3255 -0.1379  0.7842
  122OSM     O312841   4.207   4.044   6.250 -0.5588  0.3900  0.1012
  122OSM    HO312842   4.167   4.112   6.305 -1.0881 -0.0894  0.3256
  122OSM    C4S12843   4.085   3.956   6.061  0.6912 -0.3649 -0.2769
  122OSM    H4S12844   4.073   4.050   6.005  2.5140  0.2688  0.3316
  122OSM    C5S12845   4.117   3.850   5.986 -0.1688 -0.2314 -0.5677
  122OSM    H5S12846   4.148   3.758   6.038 -0.0916 -0.0107 -0.2191
  122OSM    C6S12847   4.119   3.851   5.838  0.5802 -0.1770 -0.5074
  122OSM    H6S12848   4.045   3.925   5.802  0.5340 -0.7739 -1.6876
  122OSM    H6T12849   4.087   3.752   5.799 -1.1860  1.1860 -2.7085
  122OSM    C7S12850   4.252   3.886   5.775 -0.3645  0.1198  0.1462
  122OSM    H7S12851   4.337   3.818   5.794 -0.8287 -1.1861 -2.0821
  122OSM    H7T12852   4.273   3.980   5.829 -2.2294  0.3473  0.5504
  122OSM    C8S12853   4.244   3.940   5.627 -0.4868  1.1273 -0.2405
  122OSM    H8S12854   4.163   4.015   5.615 -0.6717  0.8694 -0.6229
  122OSM    H8T12855   4.225   3.867   5.546  1.3874  1.1763 -0.7688
  122OSM    C9S12856   4.381   4.005   5.593  0.6283  0.3842 -0.0097
  122OSM    H9S12857   4.445   3.914   5.590 -1.7422 -1.3513 -0.8546
  122OSM    H9T12858   4.425   4.063   5.676  1.1104 -3.4116  2.6121
  122OSM   C10S12859   4.387   4.059   5.450  0.0676 -0.3490 -0.9228
  122OSM   H10S12860   4.295   4.118   5.431 -1.3346 -2.4751 -1.0956
  122OSM   H10T12861   4.389   3.976   5.375  1.8895 -1.5359  0.3463
  122OSM   C11S12862   4.511   4.144   5.421  0.3948  0.0261  0.7935
  122OSM   H11S12863   4.595   4.093   5.473 -0.9445 -1.3350  1.7166
  122OSM   H11T12864   4.502   4.239   5.478 -2.0755  1.1007 -1.1666
  122OSM   C12S12865   4.545   4.165   5.270 -0.5537  0.2109 -0.5116
  122OSM   H12S12866   4.630   4.237   5.275  0.0255 -0.5522  1.5844
  122OSM   H12T12867   4.476   4.220   5.202  1.6990  2.9949 -0.7862
  122OSM   C13S12868   4.570   4.038   5.190  0.2834 -0.1949 -0.0806
  122OSM   H13S12869   4.469   4.002   5.164 -0.4403  1.7142 -0.1099
  122OSM   H13T12870   4.607   3.961   5.261 -0.9579 -0.3056  0.4619
  122OSM   C14S12871   4.667   4.052   5.075  0.0891 -0.1295 -0.4123
  122OSM   H14S12872   4.646   3.960   5.015  0.4557 -1.0820  0.8702
  122OSM   H14T12873   4.774   4.042   5.102 -0.3303 -3.4234  0.5031
  122OSM   C15S12874   4.629   4.171   4.980 -0.2314 -0.3379  0.6431
  122OSM   H15S12875   4.654   4.268   5.029  0.6855 -0.2248 -0.0373
  122OSM   H15T12876   4.519   4.173   4.965 -0.2100 -2.3751 -0.1696
  122OSM   C16S12877   4.700   4.162   4.845 -0.2623 -0.5786  0.1410
  122OSM   H16S12878   4.667   4.066   4.802 -1.3677 -0.0505 -0.2173
  122OSM   H16T12879   4.811   4.166   4.855  0.0606  0.4916 -2.8686
  122OSM   C17S12880   4.664   4.271   4.750 -0.4980 -0.5909 -0.3961
  122OSM   H17S12881   4.696   4.371   4.786  0.9807 -1.3292  0.4214
  122OSM   H17T12882   4.554   4.284   4.736 -0.3417  2.7380  0.6153
  122OSM   C18S12883   4.725   4.246   4.609  0.0050  0.0800 -0.1457
  122OSM   H18S12884   4.700   4.326   4.536  0.2719  2.0547  1.8257
  122OSM   H18T12885   4.697   4.143   4.576 -1.1104 -0.0844  1.2172
  122OSM   H18U12886   4.835   4.258   4.608  0.0799 -0.5196  0.2485
  122OSM    C1F12887   3.711   4.001   6.227  0.1269 -0.5409 -0.5439
  122OSM     OF12888   3.702   4.125   6.243 -0.3977 -0.0040  0.4418
  122OSM    C2F12889   3.593   3.912   6.203 -0.5189 -0.3541 -0.0089
  122OSM    H2F12890   3.502   3.935   6.262 -1.6957  2.8892 -2.7092
  122OSM    H2G12891   3.617   3.804   6.199 -2.5789 -0.9639  1.9146
  122OSM    C3F12892   3.538   3.956   6.063  0.3282  0.8642 -0.2813
  122OSM    H3F12893   3.535   4.066   6.049  0.0107  0.8470 -0.3560
  122OSM    H3G12894   3.431   3.927   6.060  0.3082  0.7335  1.1615
  122OSM    C4F12895   3.614   3.884   5.945 -0.0851  0.0661 -0.4753
  122OSM    H4F12896   3.571   3.785   5.919  0.3713 -0.6873  1.5012
  122OSM    H4G12897   3.713   3.858   5.988 -1.1225  0.8664  2.7025
  122OSM    C5F12898   3.626   3.976   5.825  0.0765 -0.0115  0.3924
  122OSM    H5F12899   3.676   4.071   5.853  0.8279  0.2214 -1.6144
  122OSM    H5G12900   3.528   3.998   5.777  1.2814  1.5776 -1.4577
  122OSM    C6F12901   3.714   3.927   5.709  0.3822  0.3061 -0.1592
  122OSM    H6F12902   3.672   3.828   5.681 -0.0097  0.5328 -0.3967
  122OSM    H6G12903   3.818   3.913   5.745  0.4195  0.9708  0.0160
  122OSM    C7F12904   3.716   4.035   5.594 -0.1367  0.2461 -0.2161
  122OSM    H7F12905   3.773   4.128   5.615 -0.6455  0.3084  0.9648
  122OSM    H7G12906   3.613   4.075   5.577 -0.9446 -1.7014 -0.2261
  122OSM    C8F12907   3.759   3.966   5.463 -0.0811 -0.1368  0.3093
  122OSM    H8F12908   3.734   4.043   5.386  0.4274 -0.2617  0.0156
  122OSM    H8G12909   3.684   3.886   5.445 -1.1261  1.3439 -2.5638
  122OSM    C9F12910   3.903   3.939   5.453  0.5862 -0.7238 -1.0419
  122OSM    H9F12911   3.947   3.899   5.545 -1.2558  0.3094  0.3572
  122OSM   C10F12912   3.968   3.949   5.339  0.2333 -0.1943  0.2326
  122OSM   H10F12913   4.076   3.928   5.340 -0.2556 -3.3096 -1.1489
  122OSM   C11F12914   3.909   3.991   5.205  0.3203  0.2773 -0.1664
  122OSM   H11F12915   3.911   4.102   5.192  0.4288  0.3984  0.8029
  122OSM   H11G12916   3.801   3.967   5.195  0.6214 -0.2393 -2.9084
  122OSM   C12F12917   3.963   3.923   5.076 -0.5811 -0.6220  0.0147
  122OSM   H12F12918   3.892   3.943   4.993  1.1869  0.5437 -1.2860
  122OSM   H12G12919   3.985   3.815   5.088  0.3693 -0.1964  2.7283
  122OSM   C13F12920   4.095   3.990   5.023 -0.3072  0.7130 -0.2364
  122OSM   H13F12921   4.171   3.988   5.104 -1.9876  1.7320  1.4145
  122OSM   H13G12922   4.079   4.097   5.001 -0.4414  0.9772  1.0969
  122OSM   C14F12923   4.154   3.909   4.909 -0.0229  0.0335 -0.3554
  122OSM   H14F12924   4.073   3.894   4.835  2.1657 -2.6534 -2.3969
  122OSM   H14G12925   4.195   3.816   4.953 -0.7990 -0.8519 -1.4668
  122OSM   C15F12926   4.268   3.990   4.841  0.0373 -0.1000  0.2055
  122OSM   H15F12927   4.348   4.005   4.916 -0.0212 -3.6646  1.1421
  122OSM   H15G12928   4.232   4.091   4.811  0.6039 -0.0082 -0.1712
  122OSM   C16F12929   4.317   3.924   4.709 -0.1776  0.3677 -0.2749
  122OSM   H16F12930   4.395   3.848   4.731  0.7359  1.4352  0.3040
  122OSM   H16G12931   4.361   4.005   4.646 -2.6278  0.3440 -2.1606
  122OSM   C17F12932   4.201   3.869   4.616  0.4440 -0.1322  0.0802
  122OSM   H17F12933   4.107   3.927   4.611 -0.7801 -1.3673  4.5227
  122OSM   H17G12934   4.189   3.764   4.651  3.4119 -0.8792 -0.8378
  122OSM   C18F12935   4.251   3.870   4.466  0.4596 -0.1815 -0.5835
  122OSM   H18F12936   4.280   3.972   4.434 -0.0550  0.0569 -0.3045
  122OSM   H18G12937   4.173   3.834   4.396  0.3780 -1.9018  0.3271
  122OSM   H18H12938   4.348   3.816   4.460  0.6350  0.1016 -0.3215
  123OSM      N12939   4.897   2.183   2.495  0.5522  0.5464 -0.2274
  123OSM    C1512940   4.948   2.128   2.366  0.1941  0.7051  0.7107
  123OSM   H15A12941   4.876   2.151   2.288  1.0756 -1.9310 -1.0200
  123OSM   H15B12942   4.968   2.022   2.368  0.1957  0.5554 -2.3843
  123OSM   H15C12943   5.044   2.171   2.342  0.5167 -0.8504 -1.0781
  123OSM    C1412944   5.009   2.171   2.596  0.4918 -0.1707  0.4245
  123OSM   H14A12945   5.047   2.071   2.600  0.6736 -0.0965  0.5441
  123OSM   H14B12946   4.976   2.194   2.696 -1.9417 -0.1037 -0.3107
  123OSM   H14C12947   5.092   2.232   2.563  1.9789 -3.1706 -1.9248
  123OSM    C1312948   4.850   2.320   2.475 -0.3647 -0.4073 -0.1276
  123OSM   H13A12949   4.928   2.382   2.435 -2.1779  2.6261  0.6163
  123OSM   H13B12950   4.806   2.359   2.566 -1.0619  1.9638 -1.3851
  123OSM   H13C12951   4.765   2.336   2.410 -0.5596  1.5044  0.5110
  123OSM    C1212952   4.775   2.098   2.545  0.0578 -0.6947 -0.2367
  123OSM   H12A12953   4.734   2.150   2.630  3.5744  0.8337  0.7105
  123OSM   H12B12954   4.816   2.006   2.584  0.0009 -0.2739  0.8693
  123OSM    C1112955   4.664   2.078   2.441 -0.1377  0.3566 -0.6315
  123OSM   H11A12956   4.602   1.996   2.483 -3.3126  0.0672 -5.2064
  123OSM   H11B12957   4.707   2.037   2.348  2.2653  0.8345  0.2100
  123OSM      P12958   4.440   2.209   2.386  0.0565 -0.0045 -0.2807
  123OSM    O1312959   4.411   2.349   2.341 -0.9503  0.0383 -0.1733
  123OSM    O1412960   4.398   2.102   2.294 -0.6025 -0.0625  0.1143
  123OSM    O1112961   4.371   2.186   2.527  0.4675  1.1534 -0.0917
  123OSM    O1212962   4.594   2.199   2.414  0.7403 -0.6292 -0.0132
  123OSM    C1S12963   4.431   2.228   2.652 -0.3325 -0.3712  0.2350
  123OSM    H1S12964   4.401   2.334   2.664  1.1912  0.1884 -0.6081
  123OSM    H1T12965   4.540   2.245   2.646 -0.3399 -0.3754  0.0855
  123OSM     NF12966   4.435   2.199   2.901  0.1685 -0.5890  0.1349
  123OSM    HNF12967   4.467   2.129   2.965 -1.3643 -1.6796 -0.2249
  123OSM    C2S12968   4.380   2.143   2.776 -0.0978 -0.8422 -0.2244
  123OSM    H2S12969   4.271   2.158   2.786 -0.0341 -0.8100  0.4672
  123OSM    C3S12970   4.413   1.992   2.746 -0.0565 -0.0647  0.7548
  123OSM    H3S12971   4.522   1.987   2.729 -0.1784 -0.3188  0.0231
  123OSM     O312972   4.350   1.943   2.626  0.0034 -0.1500  0.5727
  123OSM    HO312973   4.310   2.021   2.587 -0.6044  0.6910  2.7267
  123OSM    C4S12974   4.388   1.907   2.868  0.3358  0.3815  0.3476
  123OSM    H4S12975   4.474   1.887   2.934  0.4943  0.5226  0.1837
  123OSM    C5S12976   4.273   1.848   2.904  0.0026  0.1664 -0.1774
  123OSM    H5S12977   4.183   1.856   2.842  0.9856  1.1805 -1.5283
  123OSM    C6S12978   4.264   1.749   3.016  0.0323 -0.3626 -0.4577
  123OSM    H6S12979   4.359   1.738   3.072 -1.0824  0.6277  1.7712
  123OSM    H6T12980   4.241   1.646   2.981 -1.1319 -0.6640  1.0799
  123OSM    C7S12981   4.148   1.779   3.112  0.5974  0.5790 -0.0696
  123OSM    H7S12982   4.137   1.690   3.178  0.7066  1.0391  0.5847
  123OSM    H7T12983   4.051   1.784   3.058  0.1301 -0.4485  0.6444
  123OSM    C8S12984   4.158   1.905   3.198  0.5205  0.8014 -0.1646
  123OSM    H8S12985   4.058   1.924   3.241  0.7481  1.9017 -0.0920
  123OSM    H8T12986   4.189   1.995   3.141  0.3667  2.1650  1.7998
  123OSM    C9S12987   4.263   1.890   3.296  0.5622 -0.2217 -0.3643
  123OSM    H9S12988   4.359   1.839   3.273  0.1140 -1.2773  0.0719
  123OSM    H9T12989   4.219   1.818   3.369 -0.5326  0.3028 -0.4786
  123OSM   C10S12990   4.289   2.023   3.366 -0.9530  0.0360 -0.3581
  123OSM   H10S12991   4.197   2.075   3.399  0.4870  2.4497  0.1005
  123OSM   H10T12992   4.348   2.086   3.295  1.0403 -1.6327 -0.3071
  123OSM   C11S12993   4.370   1.997   3.500 -0.2524  0.4408  0.5579
  123OSM   H11S12994   4.465   1.950   3.467 -1.2516 -0.6649 -0.8681
  123OSM   H11T12995   4.312   1.920   3.556 -0.6926 -0.2722 -0.8264
  123OSM   C12S12996   4.381   2.124   3.586  0.0134 -0.6788  0.1081
  123OSM   H12S12997   4.279   2.143   3.626 -0.4641 -3.2231  0.2984
  123OSM   H12T12998   4.393   2.203   3.509 -2.4824  0.2631  0.5727
  123OSM   C13S12999   4.490   2.119   3.692 -0.1399 -0.5525 -0.0692
  123OSM   H13S13000   4.500   2.227   3.717 -2.7591 -0.6238  1.8470
  123OSM   H13T13001   4.574   2.065   3.646 -0.4266 -1.8652  0.8788
  123OSM   C14S13002   4.446   2.047   3.821 -0.1873  0.3395 -0.4448
  123OSM   H14S13003   4.382   1.960   3.797  1.2733 -0.6021 -1.0563
  123OSM   H14T13004   4.372   2.110   3.876 -0.6188  0.8417 -1.5636
  123OSM   C15S13005   4.549   2.015   3.920 -0.1170  0.5530 -0.9072
  123OSM   H15S13006   4.627   2.094   3.914  0.8049 -0.2438  0.0284
  123OSM   H15T13007   4.599   1.919   3.894 -0.5345  0.6193 -1.9851
  123OSM   C16S13008   4.493   2.008   4.071 -0.5334 -0.9681  0.1128
  123OSM   H16S13009   4.393   1.959   4.066 -1.9193  1.6914  0.3018
  123OSM   H16T13010   4.462   2.109   4.105  0.3925 -0.9810  1.0390
  123OSM   C17S13011   4.593   1.935   4.161  0.2026  0.4007  0.7180
  123OSM   H17S13012   4.690   1.989   4.156  1.0991 -1.1273  0.8997
  123OSM   H17T13013   4.611   1.832   4.124 -0.1036  1.0133 -1.2583
  123OSM   C18S13014   4.566   1.934   4.315 -0.2269  0.2293 -0.4962
  123OSM   H18S13015   4.463   1.913   4.350 -0.5599  2.5600  0.0638
  123OSM   H18T13016   4.593   2.037   4.346  2.0977 -0.8382  1.3351
  123OSM   H18U13017   4.639   1.867   4.365  1.2537  2.6468  0.7557
  123OSM    C1F13018   4.421   2.324   2.937 -0.9600 -0.0354 -0.3448
  123OSM     OF13019   4.328   2.395   2.881 -0.0069  0.7901 -0.5541
  123OSM    C2F13020   4.512   2.373   3.041  0.0355  0.2453  1.0404
  123OSM    H2F13021   4.587   2.444   3.001  1.7959 -1.1396  1.7182
  123OSM    H2G13022   4.570   2.282   3.069 -0.3283 -0.3667 -0.1490
  123OSM    C3F13023   4.441   2.421   3.166  0.1164  0.4935 -0.5076
  123OSM    H3F13024   4.370   2.342   3.200 -2.5785  2.4129 -1.3621
  123OSM    H3G13025   4.377   2.511   3.150 -0.3138  0.0687 -1.2392
  123OSM    C4F13026   4.539   2.448   3.274 -0.5301  0.3947 -0.6341
  123OSM    H4F13027   4.604   2.533   3.246 -0.2543  0.5495  0.4223
  123OSM    H4G13028   4.596   2.356   3.298  1.8188  1.7429 -0.7977
  123OSM    C5F13029   4.471   2.492   3.405  0.1064 -0.0876  0.2539
  123OSM    H5F13030   4.400   2.412   3.437  2.0768 -0.9628  2.7899
  123OSM    H5G13031   4.417   2.587   3.389  1.3703  0.5995 -0.0200
  123OSM    C6F13032   4.571   2.523   3.511  0.4832  0.3919 -0.6770
  123OSM    H6F13033   4.635   2.609   3.481  1.0911 -0.0954 -0.7857
  123OSM    H6G13034   4.641   2.438   3.528 -1.1431 -1.0136 -0.6937
  123OSM    C7F13035   4.497   2.569   3.638  0.1577  0.1986  0.1365
  123OSM    H7F13036   4.438   2.482   3.676 -0.4476 -0.0322 -1.2530
  123OSM    H7G13037   4.421   2.649   3.627 -0.5132 -0.2285  1.4724
  123OSM    C8F13038   4.608   2.598   3.739 -0.4589 -0.6066  0.3002
  123OSM    H8F13039   4.671   2.680   3.699  3.2676 -2.6763  1.5203
  123OSM    H8G13040   4.660   2.501   3.749 -0.2664 -0.6799 -1.2262
  123OSM    C9F13041   4.526   2.636   3.865 -0.0933  0.0478  0.6378
  123OSM    H9F13042   4.472   2.732   3.863 -0.0137  0.0934 -0.5909
  123OSM   C10F13043   4.505   2.571   3.975  0.2707 -0.4385  0.5894
  123OSM   H10F13044   4.442   2.609   4.057 -0.7306  0.7164 -0.6604
  123OSM   C11F13045   4.557   2.438   4.019 -0.2623 -0.3800 -0.0847
  123OSM   H11F13046   4.621   2.390   3.942 -1.9971 -1.8027 -0.6975
  123OSM   H11G13047   4.473   2.366   4.019  1.0682 -1.9955 -0.4600
  123OSM   C12F13048   4.630   2.452   4.155  0.4517  0.4413 -0.7274
  123OSM   H12F13049   4.571   2.506   4.232  0.3534  0.4569 -0.8132
  123OSM   H12G13050   4.722   2.511   4.135  2.6471 -1.9514  1.4759
  123OSM   C13F13051   4.672   2.314   4.199 -0.0175  0.9669  0.0602
  123OSM   H13F13052   4.744   2.282   4.121  0.2730  0.1840  0.6444
  123OSM   H13G13053   4.585   2.246   4.205  1.3396 -1.0547 -1.7061
  123OSM   C14F13054   4.749   2.331   4.326 -0.2784  0.0135  0.0243
  123OSM   H14F13055   4.760   2.228   4.366 -3.0305  0.3965  2.0572
  123OSM   H14G13056   4.689   2.402   4.388 -1.3985  0.0104 -1.0264
  123OSM   C15F13057   4.890   2.383   4.313 -0.3696  0.2761 -0.5394
  123OSM   H15F13058   4.889   2.486   4.271 -0.4367 -0.5180 -2.6291
  123OSM   H15G13059   4.962   2.311   4.269  0.5347  0.2709  0.8787
  123OSM   C16F13060   4.940   2.409   4.461  0.2627 -0.3041  0.3774
  123OSM   H16F13061   4.908   2.318   4.516 -1.7713 -0.4934 -1.0159
  123OSM   H16G13062   4.898   2.495   4.518  0.0105 -1.0125  1.2905
  123OSM   C17F13063   5.091   2.427   4.466  0.4188  0.6328  0.7460
  123OSM   H17F13064   5.119   2.510   4.398  1.6559  0.3086  0.8269
  123OSM   H17G13065   5.139   2.343   4.411 -0.7424  0.4414 -0.0092
  123OSM   C18F13066   5.125   2.449   4.610  0.0634  0.3777 -0.1600
  123OSM   H18F13067   5.074   2.538   4.652  0.9080  0.1540  1.3884
  123OSM   H18G13068   5.236   2.444   4.611  0.0206 -1.0170 -0.4006
  123OSM   H18H13069   5.093   2.361   4.670 -2.5215  0.1150 -1.7474
  124OSM      N13070   4.668   4.688   1.814 -0.5106  0.5954 -0.2298
  124OSM    C1513071   4.529   4.710   1.768  0.0204  0.2500 -0.4754
  124OSM   H15A13072   4.507   4.751   1.670  1.7115 -0.9994 -1.4291
  124OSM   H15B13073   4.494   4.781   1.842  1.6530  0.6098 -0.0066
  124OSM   H15C13074   4.475   4.617   1.777 -0.7378  0.7833  0.7767
  124OSM    C1413075   4.739   4.628   1.697  0.8382 -0.1582 -0.1182
  124OSM   H14A13076   4.843   4.604   1.716  0.4738  0.2569  2.8756
  124OSM   H14B13077   4.737   4.694   1.611 -0.4163  1.2646  0.9406
  124OSM   H14C13078   4.690   4.534   1.679  1.0847 -0.3422  0.1678
  124OSM    C1313079   4.724   4.826   1.824  0.2270 -0.1390  0.0003
  124OSM   H13A13080   4.680   4.880   1.906 -1.5037  0.9364 -1.5570
  124OSM   H13B13081   4.706   4.883   1.734 -0.3364 -1.1473 -0.5471
  124OSM   H13C13082   4.827   4.829   1.856  1.0125 -4.1518 -1.5986
  124OSM    C1213083   4.694   4.605   1.938 -0.6677 -0.0072  0.7479
  124OSM   H12A13084   4.801   4.600   1.953 -0.7549 -1.4384  1.0368
  124OSM   H12B13085   4.664   4.503   1.924  1.1399 -0.4768  0.0482
  124OSM    C1113086   4.639   4.660   2.075  0.1630  0.8128  0.0280
  124OSM   H11A13087   4.701   4.746   2.109 -0.2047  0.8472  0.6367
  124OSM   H11B13088   4.669   4.578   2.145 -1.4222  0.1509 -0.0332
  124OSM      P13089   4.391   4.576   2.124  0.3118  0.3581 -0.0184
  124OSM    O1313090   4.267   4.661   2.144 -0.6549  1.0064  0.5408
  124OSM    O1413091   4.387   4.467   2.026 -0.1921 -0.0775  0.4490
  124OSM    O1113092   4.420   4.528   2.266  0.0071  0.1082  0.1548
  124OSM    O1213093   4.498   4.686   2.079 -0.1248 -0.4175 -0.4884
  124OSM    C1S13094   4.470   4.613   2.378  0.3565  0.4195  0.5887
  124OSM    H1S13095   4.404   4.702   2.384  1.8244  1.8250 -2.1462
  124OSM    H1T13096   4.573   4.649   2.355 -0.2451  1.0389 -1.3157
  124OSM     NF13097   4.555   4.632   2.606 -0.3126  0.3868  0.3968
  124OSM    HNF13098   4.653   4.615   2.619 -0.1949  0.8354  0.1272
  124OSM    C2S13099   4.485   4.539   2.517 -0.1442  0.5387  0.4099
  124OSM    H2S13100   4.378   4.529   2.548  0.3578  0.4922  2.2423
  124OSM    C3S13101   4.547   4.400   2.491 -0.5568  0.0085 -0.4887
  124OSM    H3S13102   4.652   4.416   2.462 -0.0720 -1.0073  0.5971
  124OSM     O313103   4.489   4.313   2.399 -0.0025  0.2504 -0.0459
  124OSM    HO313104   4.427   4.368   2.352  0.9518 -1.6804 -3.9884
  124OSM    C4S13105   4.553   4.333   2.625  0.2083 -0.5429  0.1719
  124OSM    H4S13106   4.457   4.293   2.661 -0.4323  1.8115  1.2723
  124OSM    C5S13107   4.663   4.292   2.682 -0.8773  1.0764 -0.1592
  124OSM    H5S13108   4.763   4.321   2.647 -0.4094 -0.5404 -0.2652
  124OSM    C6S13109   4.669   4.222   2.814  0.1146  0.3819 -0.3146
  124OSM    H6S13110   4.773   4.188   2.833 -0.0886  0.8001  1.7752
  124OSM    H6T13111   4.596   4.139   2.826  1.2999 -0.5545  0.7013
  124OSM    C7S13112   4.645   4.320   2.934  0.7355 -0.4722  0.0443
  124OSM    H7S13113   4.538   4.346   2.922  1.2026  1.6444 -0.1033
  124OSM    H7T13114   4.707   4.412   2.923 -0.6360  0.5609  0.6621
  124OSM    C8S13115   4.657   4.256   3.070 -0.6359  0.0959 -0.0705
  124OSM    H8S13116   4.762   4.222   3.085 -0.2817  0.6390 -1.2661
  124OSM    H8T13117   4.607   4.158   3.053 -1.0975 -0.0838  1.9721
  124OSM    C9S13118   4.620   4.348   3.183  0.0485  0.4195  0.3105
  124OSM    H9S13119   4.640   4.294   3.278  1.5462 -1.6373 -1.1022
  124OSM    H9T13120   4.513   4.379   3.189 -0.2171 -0.4811  0.4087
  124OSM   C10S13121   4.706   4.475   3.185 -0.0799 -0.8940 -0.2943
  124OSM   H10S13122   4.668   4.536   3.099 -0.9197  0.2835  0.8722
  124OSM   H10T13123   4.816   4.461   3.179  0.1526 -0.5316  2.1718
  124OSM   C11S13124   4.685   4.578   3.299 -0.7658 -0.4113  0.4964
  124OSM   H11S13125   4.580   4.612   3.293 -0.7825 -0.3099  1.2192
  124OSM   H11T13126   4.745   4.668   3.273 -0.7072 -1.5201 -3.8309
  124OSM   C12S13127   4.737   4.538   3.437 -0.2787 -0.1110 -0.8974
  124OSM   H12S13128   4.848   4.532   3.438 -0.2947 -1.4486  1.9222
  124OSM   H12T13129   4.708   4.434   3.465 -0.9737 -0.1155 -1.5834
  124OSM   C13S13130   4.706   4.641   3.551 -0.8717  0.0847  0.2470
  124OSM   H13S13131   4.601   4.632   3.586 -0.6414  1.4695  1.4072
  124OSM   H13T13132   4.709   4.742   3.504 -1.4377  1.4334  2.8823
  124OSM   C14S13133   4.805   4.647   3.666  0.0768  0.1408 -0.0852
  124OSM   H14S13134   4.914   4.651   3.646 -0.0655 -2.5749 -2.0087
  124OSM   H14T13135   4.781   4.548   3.711 -0.6557 -0.8708 -2.4884
  124OSM   C15S13136   4.773   4.764   3.762  0.0839  0.6259 -0.5465
  124OSM   H15S13137   4.665   4.762   3.789  0.2740 -0.2652  0.1837
  124OSM   H15T13138   4.764   4.857   3.702 -1.5924 -0.5923 -2.2777
  124OSM   C16S13139   4.876   4.776   3.871  0.3125  0.3438  0.0741
  124OSM   H16S13140   4.977   4.801   3.832  0.0824 -0.7189 -1.2803
  124OSM   H16T13141   4.882   4.678   3.924 -3.3627 -1.4557 -2.3814
  124OSM   C17S13142   4.828   4.883   3.964 -0.8096  0.4292 -0.8847
  124OSM   H17S13143   4.720   4.859   3.974 -0.3146 -0.9652  3.2820
  124OSM   H17T13144   4.856   4.984   3.926  0.1444  0.3456 -0.4341
  124OSM   C18S13145   4.893   4.865   4.106 -1.0862  0.5078  0.6057
  124OSM   H18S13146   4.868   4.943   4.182  1.1842 -1.0008  3.0799
  124OSM   H18T13147   5.004   4.867   4.102 -1.1108  0.1578 -0.7485
  124OSM   H18U13148   4.865   4.769   4.154  0.1076  0.4036  1.1497
  124OSM    C1F13149   4.506   4.753   2.644  0.0550  0.1403 -0.5382
  124OSM     OF13150   4.390   4.790   2.624  0.0493 -0.9122 -0.0762
  124OSM    C2F13151   4.606   4.845   2.710 -0.5647 -0.4628 -0.3153
  124OSM    H2F13152   4.583   4.944   2.664 -4.0635 -0.5267  0.9724
  124OSM    H2G13153   4.700   4.804   2.668 -0.2867 -0.6455  0.4733
  124OSM    C3F13154   4.596   4.852   2.862 -0.0211  0.3917  0.3325
  124OSM    H3F13155   4.595   4.752   2.909  0.1036 -0.2922 -1.0732
  124OSM    H3G13156   4.496   4.893   2.890 -0.9764 -2.3024  1.2056
  124OSM    C4F13157   4.714   4.924   2.938  0.3163  0.3005  0.2805
  124OSM    H4F13158   4.715   5.026   2.894  0.4583  0.2546  0.1736
  124OSM    H4G13159   4.816   4.882   2.924  0.1862 -0.1698  0.7275
  124OSM    C5F13160   4.681   4.938   3.088  0.2647 -0.7437  0.9155
  124OSM    H5F13161   4.653   4.838   3.127 -0.6588 -0.6421  0.5504
  124OSM    H5G13162   4.593   5.006   3.095  0.4794 -0.2851 -0.5723
  124OSM    C6F13163   4.791   5.007   3.173 -0.1992  0.2360  0.0246
  124OSM    H6F13164   4.820   5.099   3.119 -0.5400  0.3212 -0.0157
  124OSM    H6G13165   4.880   4.940   3.185  0.4749  1.3947  1.9817
  124OSM    C7F13166   4.740   5.047   3.313 -0.2559 -0.5938 -0.6663
  124OSM    H7F13167   4.728   4.952   3.370  1.1428  0.1711  0.9897
  124OSM    H7G13168   4.646   5.105   3.317 -0.7424 -1.2944  3.5425
  124OSM    C8F13169   4.846   5.135   3.381  0.6002  0.3106  1.0887
  124OSM    H8F13170   4.870   5.228   3.325 -1.3313  0.2324  0.0469
  124OSM    H8G13171   4.924   5.057   3.377 -0.9158 -1.2070 -1.4692
  124OSM    C9F13172   4.814   5.164   3.529  0.1575  0.0369 -0.2608
  124OSM    H9F13173   4.716   5.197   3.567  1.4712  0.3270  3.2452
  124OSM   C10F13174   4.911   5.162   3.624 -0.1142 -1.0983  0.8341
  124OSM   H10F13175   4.889   5.185   3.730 -1.0544 -0.4597  0.5174
  124OSM   C11F13176   5.061   5.129   3.602  0.0240 -0.1316 -0.0448
  124OSM   H11F13177   5.091   5.119   3.496  0.6318  0.3061  0.0782
  124OSM   H11G13178   5.089   5.034   3.652  2.2191  1.4322  1.9556
  124OSM   C12F13179   5.154   5.244   3.654  0.4124  0.2937  0.0870
  124OSM   H12F13180   5.117   5.342   3.616  0.8881  1.4314  2.3767
  124OSM   H12G13181   5.252   5.222   3.606 -0.7503 -2.6372 -1.2301
  124OSM   C13F13182   5.185   5.243   3.803 -0.4107 -0.1890  0.3556
  124OSM   H13F13183   5.246   5.152   3.820 -0.7079 -0.1444  1.7850
  124OSM   H13G13184   5.088   5.230   3.855  0.7358 -1.7641  2.2155
  124OSM   C14F13185   5.264   5.359   3.876 -0.0044  0.1504 -0.1379
  124OSM   H14F13186   5.272   5.326   3.982 -0.0105 -1.5858 -0.6476
  124OSM   H14G13187   5.195   5.446   3.878 -0.8268 -0.5065  0.8197
  124OSM   C15F13188   5.404   5.387   3.822  0.3959 -0.2376  0.1972
  124OSM   H15F13189   5.383   5.454   3.736 -0.1681  0.2017  0.6712
  124OSM   H15G13190   5.448   5.294   3.779  1.5038 -1.4021  3.5311
  124OSM   C16F13191   5.502   5.450   3.914  0.3167  0.1313 -0.0258
  124OSM   H16F13192   5.587   5.482   3.850 -1.4146  1.1139 -1.9232
  124OSM   H16G13193   5.535   5.383   3.996 -2.0850  0.0105  0.9298
  124OSM   C17F13194   5.446   5.575   3.989  0.4067 -0.1983  0.6601
  124OSM   H17F13195   5.374   5.538   4.065 -0.2496 -4.2793 -1.6733
  124OSM   H17G13196   5.380   5.627   3.917 -0.0146 -0.2653  0.9968
  124OSM   C18F13197   5.552   5.676   4.027  0.0359  0.0566  0.1478
  124OSM   H18F13198   5.632   5.620   4.078 -0.5546 -1.9517 -1.0283
  124OSM   H18G13199   5.508   5.747   4.100 -1.4847 -0.6487 -0.0422
  124OSM   H18H13200   5.592   5.730   3.938  2.6811  1.7118  2.1847
  125OSM      N13201   6.131   1.439   2.017  0.3592 -0.3837 -0.3838
  125OSM    C1513202   6.129   1.446   1.868  0.3756 -0.1819  0.4832
  125OSM   H15A13203   6.221   1.409   1.825  0.0902 -1.8286  1.1978
  125OSM   H15B13204   6.116   1.548   1.834  0.0816  0.2918  1.9469
  125OSM   H15C13205   6.052   1.378   1.835 -1.1725  0.5644  2.3895
  125OSM    C1413206   6.183   1.304   2.065 -0.1380 -0.9139 -0.2341
  125OSM   H14A13207   6.277   1.281   2.016  0.5258  3.1174 -1.1838
  125OSM   H14B13208   6.106   1.227   2.063 -0.4818 -0.5684 -0.5085
  125OSM   H14C13209   6.205   1.319   2.169  1.0775 -0.0109 -0.6029
  125OSM    C1313210   6.236   1.539   2.054 -0.2337 -0.3045  0.5887
  125OSM   H13A13211   6.202   1.639   2.031 -0.7593 -0.3177  1.2948
  125OSM   H13B13212   6.323   1.530   1.989  1.2122  0.5349  2.3224
  125OSM   H13C13213   6.266   1.546   2.158  0.5404 -0.2988  0.3776
  125OSM    C1213214   5.994   1.469   2.076  0.6300 -0.0512  0.5367
  125OSM   H12A13215   5.981   1.568   2.035 -0.0709 -1.4415 -2.9488
  125OSM   H12B13216   5.997   1.467   2.184 -2.2310 -0.8870  0.6734
  125OSM    C1113217   5.878   1.371   2.036  0.1797 -0.2943 -0.1022
  125OSM   H11A13218   5.877   1.373   1.925  4.7168  3.1152 -0.4140
  125OSM   H11B13219   5.784   1.411   2.079  0.6393  0.2233  0.4341
  125OSM      P13220   5.817   1.168   2.183 -0.0740  0.6139  0.2462
  125OSM    O1313221   5.674   1.213   2.171 -0.1566 -0.5779 -0.3119
  125OSM    O1413222   5.847   1.027   2.161  0.4093  0.6485 -0.0799
  125OSM    O1113223   5.858   1.219   2.324  0.2357 -0.3453  0.6055
  125OSM    O1213224   5.906   1.242   2.083  0.0244 -0.0984 -0.3062
  125OSM    C1S13225   6.000   1.204   2.364  0.7488 -0.1011  0.6338
  125OSM    H1S13226   6.062   1.249   2.284 -0.1595  1.2119  0.6234
  125OSM    H1T13227   6.012   1.095   2.379  0.5353 -0.7039 -2.7911
  125OSM     NF13228   6.156   1.322   2.531  0.7069 -0.1306  1.1393
  125OSM    HNF13229   6.214   1.257   2.580  0.7750 -1.0977 -0.1814
  125OSM    C2S13230   6.020   1.283   2.504 -0.1155  0.0989 -0.3745
  125OSM    H2S13231   5.955   1.373   2.502 -2.0928 -1.2085  1.1494
  125OSM    C3S13232   5.957   1.199   2.618 -0.3613 -0.2463 -0.0687
  125OSM    H3S13233   6.009   1.102   2.635 -0.1960 -0.2490 -0.5832
  125OSM     O313234   5.825   1.149   2.590  0.0008 -0.7453  0.3046
  125OSM    HO313235   5.816   1.162   2.495 -1.8007  1.3238  0.6934
  125OSM    C4S13236   5.967   1.272   2.758  0.5563  0.8407  0.1441
  125OSM    H4S13237   6.064   1.260   2.809 -1.0011 -2.6374  2.7581
  125OSM    C5S13238   5.866   1.341   2.821 -0.1153  0.6244 -0.0051
  125OSM    H5S13239   5.769   1.348   2.771 -0.3087 -2.2074 -0.1594
  125OSM    C6S13240   5.884   1.411   2.952  0.2037  0.1868 -0.7205
  125OSM    H6S13241   5.784   1.407   3.000  0.2637 -1.2022 -0.6711
  125OSM    H6T13242   5.900   1.520   2.937  0.2910  0.4463  1.0508
  125OSM    C7S13243   5.997   1.370   3.046 -0.0085  0.1822 -0.0801
  125OSM    H7S13244   6.096   1.379   2.996 -1.1700  0.9417 -2.4464
  125OSM    H7T13245   5.978   1.265   3.075  1.2035 -0.5010 -1.5876
  125OSM    C8S13246   6.017   1.454   3.175  0.1176 -0.3331 -0.3564
  125OSM    H8S13247   6.067   1.550   3.148  4.3784 -1.7718  1.6086
  125OSM    H8T13248   6.088   1.403   3.243  0.6329  1.5268  0.5570
  125OSM    C9S13249   5.889   1.491   3.257 -0.7259  0.1447 -0.0122
  125OSM    H9S13250   5.824   1.401   3.264  2.1323 -2.1103 -0.4149
  125OSM    H9T13251   5.837   1.577   3.211  1.9911  0.8447 -1.9713
  125OSM   C10S13252   5.933   1.552   3.388  0.1740 -0.6458 -0.1397
  125OSM   H10S13253   5.923   1.662   3.400 -0.9052 -0.7143 -0.3329
  125OSM   H10T13254   6.035   1.524   3.421  0.0170 -0.4007  0.5757
  125OSM   C11S13255   5.845   1.493   3.502 -0.2630 -0.3624  0.5107
  125OSM   H11S13256   5.861   1.384   3.515  1.6498 -0.1696 -0.0023
  125OSM   H11T13257   5.740   1.512   3.471 -0.6891 -0.2762  1.9426
  125OSM   C12S13258   5.876   1.557   3.641  0.2044  0.6391 -0.4071
  125OSM   H12S13259   5.792   1.522   3.704 -0.0552 -0.9931 -1.5999
  125OSM   H12T13260   5.868   1.667   3.622  1.7306  1.1731  1.7051
  125OSM   C13S13261   6.001   1.506   3.705 -0.4202 -0.0860 -0.1623
  125OSM   H13S13262   6.090   1.543   3.649 -0.1754  0.0098  0.2849
  125OSM   H13T13263   6.021   1.398   3.719 -0.5238 -0.0138  0.5710
  125OSM   C14S13264   6.031   1.566   3.843  1.0028 -0.1454 -0.3667
  125OSM   H14S13265   5.944   1.555   3.912  1.7142  0.0249  0.5744
  125OSM   H14T13266   6.058   1.674   3.836  2.7817 -0.4882  0.6538
  125OSM   C15S13267   6.153   1.518   3.916  0.9190 -0.0094  0.2747
  125OSM   H15S13268   6.245   1.558   3.868  0.2439  2.8658  1.1778
  125OSM   H15T13269   6.154   1.408   3.929  3.3598 -0.0177  0.5129
  125OSM   C16S13270   6.151   1.564   4.063 -0.0371  0.0538 -0.7220
  125OSM   H16S13271   6.090   1.497   4.126  2.5471 -0.0248  1.8937
  125OSM   H16T13272   6.110   1.667   4.055 -3.5977 -1.1747  0.2112
  125OSM   C17S13273   6.292   1.557   4.131 -0.5904 -0.0116 -0.0018
  125OSM   H17S13274   6.364   1.602   4.059 -0.3451 -0.6248 -0.1437
  125OSM   H17T13275   6.329   1.453   4.119  0.1933  0.3670 -0.9950
  125OSM   C18S13276   6.306   1.606   4.275  0.5094 -0.6509 -0.2983
  125OSM   H18S13277   6.218   1.574   4.333  0.9053  0.5799  1.0533
  125OSM   H18T13278   6.308   1.716   4.262 -2.4255 -0.6717 -1.5153
  125OSM   H18U13279   6.401   1.569   4.320 -0.0440 -0.7552  0.8184
  125OSM    C1F13280   6.214   1.410   2.461  0.0248  0.0715 -0.1893
  125OSM     OF13281   6.163   1.485   2.377  0.1556  0.1538 -0.3180
  125OSM    C2F13282   6.358   1.425   2.480 -0.1025 -0.3554 -0.6060
  125OSM    H2F13283   6.391   1.505   2.410  1.1650  1.9409  2.3611
  125OSM    H2G13284   6.408   1.326   2.481  0.8218  0.0741 -1.8069
  125OSM    C3F13285   6.376   1.498   2.621  0.2977  0.3904  0.0752
  125OSM    H3F13286   6.485   1.515   2.627  0.8248 -2.4109 -0.3073
  125OSM    H3G13287   6.358   1.431   2.707  0.3298  0.3556  0.0551
  125OSM    C4F13288   6.306   1.633   2.641 -0.4350 -0.2292 -0.9381
  125OSM    H4F13289   6.201   1.621   2.677 -0.5839 -0.4545 -1.4309
  125OSM    H4G13290   6.299   1.678   2.540  3.4242 -0.5656 -1.4931
  125OSM    C5F13291   6.373   1.717   2.753  0.0264 -0.6554  0.2183
  125OSM    H5F13292   6.457   1.777   2.712 -0.3493 -0.0250  0.3691
  125OSM    H5G13293   6.414   1.654   2.835 -2.3466 -1.0885  1.1375
  125OSM    C6F13294   6.272   1.814   2.812 -0.4232 -0.4912 -0.1234
  125OSM    H6F13295   6.176   1.814   2.756 -0.0601  0.8015 -0.8068
  125OSM    H6G13296   6.317   1.916   2.818 -1.7486  0.0741  1.2072
  125OSM    C7F13297   6.252   1.781   2.966 -0.3697  0.5440  0.1829
  125OSM    H7F13298   6.339   1.721   2.999  0.6434 -0.2693 -3.4433
  125OSM    H7G13299   6.179   1.698   2.970 -1.3170  1.3799  0.6484
  125OSM    C8F13300   6.232   1.898   3.061 -0.2880 -0.1804  0.3217
  125OSM    H8F13301   6.314   1.969   3.036 -0.4994  0.7260  2.0637
  125OSM    H8G13302   6.236   1.874   3.169 -1.5694 -0.6663  0.2747
  125OSM    C9F13303   6.105   1.978   3.037 -0.7181 -0.5797 -0.4371
  125OSM    H9F13304   6.109   2.039   2.945 -0.3732  0.4010  0.2058
  125OSM   C10F13305   5.993   1.982   3.113  0.3413 -0.4149 -0.0650
  125OSM   H10F13306   5.908   2.048   3.091  0.0960  0.0250  2.0347
  125OSM   C11F13307   5.963   1.903   3.238 -0.0511  0.0472 -0.9223
  125OSM   H11F13308   6.057   1.871   3.288  0.7631  0.0336 -2.4036
  125OSM   H11G13309   5.902   1.815   3.208 -1.1111  0.9070 -1.3145
  125OSM   C12F13310   5.885   1.974   3.353  0.0283  0.4643  0.4231
  125OSM   H12F13311   5.840   1.897   3.421 -0.0136 -0.8695 -1.0612
  125OSM   H12G13312   5.797   2.024   3.308 -0.0747 -0.1100 -0.0172
  125OSM   C13F13313   5.964   2.075   3.432  0.3232 -0.6940  0.1306
  125OSM   H13F13314   5.979   2.172   3.380  1.6982 -0.4954  0.8596
  125OSM   H13G13315   6.065   2.039   3.460  1.0292  2.1553  1.6198
  125OSM   C14F13316   5.889   2.107   3.556 -0.4036  0.0131 -0.4554
  125OSM   H14F13317   5.832   2.021   3.596  2.1103 -0.7830  1.6873
  125OSM   H14G13318   5.819   2.190   3.532  0.0143  0.6622  0.5208
  125OSM   C15F13319   5.989   2.146   3.673  0.2947 -0.6623  0.1313
  125OSM   H15F13320   6.035   2.245   3.652  1.0300 -0.7336  1.3233
  125OSM   H15G13321   6.077   2.079   3.678  1.5442  0.9456  0.6067
  125OSM   C16F13322   5.913   2.158   3.803 -0.1283  0.0440  0.2897
  125OSM   H16F13323   5.815   2.207   3.784 -0.5127 -1.3631 -1.5179
  125OSM   H16G13324   5.977   2.216   3.873 -1.4035  0.3244  1.2812
  125OSM   C17F13325   5.879   2.017   3.856 -1.1000 -0.4738 -0.2029
  125OSM   H17F13326   5.842   1.953   3.773 -1.6140 -0.1953 -0.1932
  125OSM   H17G13327   5.800   2.045   3.928 -0.3749 -0.9755  0.8054
  125OSM   C18F13328   5.993   1.933   3.929 -0.0368  0.5976 -0.0345
  125OSM   H18F13329   6.063   1.980   4.001  0.1914 -1.1669  0.9690
  125OSM   H18G13330   6.057   1.893   3.847  0.7228  2.5115 -0.4217
  125OSM   H18H13331   5.944   1.845   3.976  1.2697 -0.8172 -1.2030
  126OSM      N13332   6.094   5.589   2.045 -0.7151  0.6898 -0.2949
  126OSM    C1513333   6.045   5.723   2.006 -0.0853  0.0050  0.9473
  126OSM   H15A13334   6.117   5.803   1.996 -0.6246  0.4107  0.1590
  126OSM   H15B13335   5.965   5.764   2.066  0.6397 -0.4321  2.2401
  126OSM   H15C13336   5.995   5.708   1.911  0.0942  0.5906  0.7529
  126OSM    C1413337   5.977   5.494   2.029  1.0754 -0.2635  0.2715
  126OSM   H14A13338   5.922   5.508   1.937  0.2373  1.9486  1.0471
  126OSM   H14B13339   5.900   5.520   2.101  1.0411  0.1344  0.0947
  126OSM   H14C13340   6.013   5.394   2.046  1.7993  0.4785  4.2962
  126OSM    C1313341   6.199   5.544   1.952 -0.4342  0.4465  0.6853
  126OSM   H13A13342   6.256   5.461   1.990 -1.5031 -0.6452 -0.0215
  126OSM   H13B13343   6.273   5.619   1.927  1.7857 -1.7658  0.1371
  126OSM   H13C13344   6.165   5.509   1.855 -0.1758  1.0410  0.3722
  126OSM    C1213345   6.155   5.584   2.185  0.0127 -0.3812  0.4611
  126OSM   H12A13346   6.248   5.636   2.167 -0.2109 -0.5317 -1.2747
  126OSM   H12B13347   6.179   5.480   2.201  0.1539 -0.5763 -0.8707
  126OSM    C1113348   6.079   5.653   2.298  0.5883  1.0563  0.3467
  126OSM   H11A13349   6.040   5.755   2.275 -0.6135  0.2738 -1.2642
  126OSM   H11B13350   6.162   5.649   2.372  1.0522 -0.5581 -0.2338
  126OSM      P13351   5.988   5.441   2.422  0.7357  0.3544 -0.4954
  126OSM    O1313352   5.889   5.339   2.371  0.4668 -0.4804 -0.7207
  126OSM    O1413353   6.129   5.397   2.413 -0.0611  0.2217  0.4329
  126OSM    O1113354   5.945   5.479   2.568  0.0074  0.0883  0.6441
  126OSM    O1213355   5.969   5.570   2.333 -0.2257  0.0073  0.0264
  126OSM    C1S13356   5.853   5.587   2.583  0.3878 -0.2724  0.5165
  126OSM    H1S13357   5.751   5.563   2.546  0.2422  0.5988  0.3310
  126OSM    H1T13358   5.893   5.684   2.544  1.4491 -1.2615 -0.9579
  126OSM     NF13359   5.758   5.744   2.747  0.5941  0.2001  0.2741
  126OSM    HNF13360   5.789   5.839   2.755 -2.1514  1.3658 -1.1883
  126OSM    C2S13361   5.849   5.630   2.733  0.8645  0.0403  0.3330
  126OSM    H2S13362   5.804   5.543   2.785 -1.5407  1.4788  0.8304
  126OSM    C3S13363   5.996   5.656   2.787 -0.3670  0.1108 -0.4025
  126OSM    H3S13364   6.052   5.735   2.732  1.3349 -0.6992  0.1061
  126OSM     O313365   6.082   5.540   2.774  0.0401  0.2906  0.3470
  126OSM    HO313366   6.041   5.491   2.703 -0.3504  2.9176 -1.3876
  126OSM    C4S13367   6.005   5.708   2.925  0.8189 -0.1711  0.1383
  126OSM    H4S13368   5.992   5.817   2.930  1.3561 -0.0900 -0.1584
  126OSM    C5S13369   5.994   5.635   3.039  0.3218  0.6334  0.0575
  126OSM    H5S13370   5.986   5.525   3.038  1.4373  0.4477  2.7455
  126OSM    C6S13371   5.981   5.701   3.172  0.1786 -0.3900  0.0027
  126OSM    H6S13372   6.075   5.676   3.226 -0.4948 -1.2763  0.7990
  126OSM    H6T13373   5.900   5.654   3.232  0.2874 -0.0307  0.4391
  126OSM    C7S13374   5.962   5.852   3.185  0.3563 -0.2696  0.0336
  126OSM    H7S13375   5.865   5.887   3.146  0.8046  0.1888 -0.6962
  126OSM    H7T13376   6.037   5.906   3.124  0.9074  1.2165  1.9201
  126OSM    C8S13377   5.970   5.894   3.334 -0.1474  0.7917  0.4621
  126OSM    H8S13378   5.965   6.004   3.342 -0.7537  0.6678  1.9804
  126OSM    H8T13379   6.062   5.850   3.379 -0.1571  0.0959 -0.1853
  126OSM    C9S13380   5.840   5.872   3.416  0.1287 -0.0982 -0.2842
  126OSM    H9S13381   5.797   5.770   3.410  1.3893 -0.6622 -0.1278
  126OSM    H9T13382   5.775   5.954   3.380  1.5195  1.4933  0.6781
  126OSM   C10S13383   5.848   5.890   3.568 -0.3555 -0.6836 -0.3091
  126OSM   H10S13384   5.746   5.869   3.608  0.2042 -0.1354  1.4690
  126OSM   H10T13385   5.883   5.988   3.605  0.4856 -1.8005  2.0135
  126OSM   C11S13386   5.941   5.786   3.641  0.4574  0.2275  0.1979
  126OSM   H11S13387   6.049   5.792   3.615 -0.3985  1.0086 -3.9551
  126OSM   H11T13388   5.911   5.691   3.593 -2.3865  1.7057 -1.1767
  126OSM   C12S13389   5.904   5.756   3.784 -0.1051 -0.1645 -0.1085
  126OSM   H12S13390   5.888   5.648   3.801 -0.0680  0.0828  1.7103
  126OSM   H12T13391   5.808   5.806   3.809  0.3561  0.0861  1.2786
  126OSM   C13S13392   5.994   5.809   3.895 -0.4827 -0.0879  0.1546
  126OSM   H13S13393   6.095   5.840   3.863  0.0457 -0.6102  1.2772
  126OSM   H13T13394   6.008   5.732   3.974 -1.7982 -1.5183 -0.9471
  126OSM   C14S13395   5.928   5.927   3.970 -0.0457 -0.0564 -0.1153
  126OSM   H14S13396   5.839   5.899   4.030  0.7765  0.3500  1.3548
  126OSM   H14T13397   5.886   6.009   3.909  0.9511  0.6107  0.0749
  126OSM   C15S13398   6.034   6.003   4.053 -0.4219  0.0580  0.2115
  126OSM   H15S13399   6.087   6.069   3.981  0.2419 -0.7534 -0.0614
  126OSM   H15T13400   6.108   5.930   4.091 -0.6210 -1.6252 -2.3541
  126OSM   C16S13401   5.981   6.092   4.170 -0.4816  0.2122  0.1001
  126OSM   H16S13402   5.915   6.029   4.233 -0.3241  0.0069  0.0610
  126OSM   H16T13403   5.926   6.178   4.125  1.1156  0.8055 -0.7775
  126OSM   C17S13404   6.092   6.135   4.258 -0.3277 -0.1966 -0.3446
  126OSM   H17S13405   6.073   6.243   4.279  2.2829  0.6080 -1.7394
  126OSM   H17T13406   6.192   6.129   4.212 -1.2960 -0.2546 -2.5551
  126OSM   C18S13407   6.068   6.065   4.393 -0.3685  0.0120  0.0598
  126OSM   H18S13408   6.072   5.956   4.375  1.0881 -0.3953  2.4020
  126OSM   H18T13409   5.967   6.085   4.436  0.6648  2.8689  1.4625
  126OSM   H18U13410   6.154   6.096   4.456  0.8186 -0.4747 -1.2714
  126OSM    C1F13411   5.623   5.730   2.727  0.7921  0.0563 -0.4060
  126OSM     OF13412   5.573   5.627   2.685  0.1624  0.8617 -0.0030
  126OSM    C2F13413   5.546   5.850   2.767  0.2696  0.0228  0.1505
  126OSM    H2F13414   5.544   5.922   2.682 -0.9364 -0.4585 -0.2440
  126OSM    H2G13415   5.589   5.910   2.850  0.3377  0.9163 -0.5142
  126OSM    C3F13416   5.399   5.804   2.799 -0.3482 -0.0772 -0.0608
  126OSM    H3F13417   5.354   5.756   2.709  0.9908  0.1519 -0.8807
  126OSM    H3G13418   5.349   5.901   2.818  0.5626  0.5891 -0.9823
  126OSM    C4F13419   5.382   5.715   2.926 -0.1078 -0.0234 -0.0910
  126OSM    H4F13420   5.407   5.613   2.892  0.7322  0.3932 -0.7772
  126OSM    H4G13421   5.276   5.702   2.957  0.0882 -0.8558  0.2472
  126OSM    C5F13422   5.479   5.747   3.036  0.9075  0.6065  0.2246
  126OSM    H5F13423   5.463   5.851   3.072  1.9087  0.9264 -0.2310
  126OSM    H5G13424   5.586   5.723   3.018  0.8363  0.4168  0.0505
  126OSM    C6F13425   5.441   5.659   3.161 -0.0554 -0.5576  0.2716
  126OSM    H6F13426   5.466   5.552   3.145  0.1384 -0.5453  0.4941
  126OSM    H6G13427   5.332   5.657   3.183  0.1989 -0.9856  1.5726
  126OSM    C7F13428   5.501   5.708   3.289  0.2141  0.6528  0.2051
  126OSM    H7F13429   5.511   5.818   3.295 -3.2621  1.0838  0.1694
  126OSM    H7G13430   5.603   5.665   3.304  0.5759  1.1572 -0.7057
  126OSM    C8F13431   5.408   5.677   3.413 -0.6175 -0.0537  0.4582
  126OSM    H8F13432   5.373   5.573   3.398  0.6701 -0.7174  1.7349
  126OSM    H8G13433   5.326   5.752   3.410  0.6202  1.3424 -0.2191
  126OSM    C9F13434   5.485   5.669   3.546 -1.0089  0.0027 -0.1216
  126OSM    H9F13435   5.558   5.588   3.555  1.4367  1.9436 -1.2938
  126OSM   C10F13436   5.476   5.757   3.648 -0.3730 -0.5728 -0.1544
  126OSM   H10F13437   5.551   5.747   3.728 -0.8897 -2.5406  0.1409
  126OSM   C11F13438   5.393   5.878   3.664 -0.2314 -0.6595  0.4847
  126OSM   H11F13439   5.356   5.912   3.564  1.0365  1.9728  0.8245
  126OSM   H11G13440   5.452   5.965   3.700  0.0581 -1.4711  2.0249
  126OSM   C12F13441   5.278   5.864   3.766 -0.9900  0.4760  0.7424
  126OSM   H12F13442   5.236   5.967   3.772  2.3360  2.1935 -1.9283
  126OSM   H12G13443   5.320   5.851   3.868  0.3732  0.3615  0.1822
  126OSM   C13F13444   5.175   5.754   3.728 -0.2899  0.5058  0.3568
  126OSM   H13F13445   5.235   5.663   3.709 -1.9387 -0.0878 -2.6489
  126OSM   H13G13446   5.128   5.779   3.630 -2.6227 -0.3066  1.2105
  126OSM   C14F13447   5.062   5.719   3.822 -0.7921  0.3328 -0.0926
  126OSM   H14F13448   5.001   5.807   3.850 -0.6709 -0.1661  1.9359
  126OSM   H14G13449   5.103   5.682   3.919 -0.3386  2.3198  0.5255
  126OSM   C15F13450   4.963   5.615   3.775 -0.4402  0.4975 -0.2373
  126OSM   H15F13451   5.029   5.534   3.738 -0.4413  0.4511 -0.1407
  126OSM   H15G13452   4.913   5.656   3.685 -1.5627  3.1199  1.4524
  126OSM   C16F13453   4.872   5.566   3.890  0.6597  0.2873  0.6912
  126OSM   H16F13454   4.818   5.653   3.932 -0.0318 -1.0684  2.7633
  126OSM   H16G13455   4.935   5.538   3.977  0.3248 -0.2599  0.7597
  126OSM   C17F13456   4.780   5.449   3.850  0.0214 -0.0680 -0.1885
  126OSM   H17F13457   4.856   5.380   3.808 -0.6264  0.0152 -1.5260
  126OSM   H17G13458   4.710   5.461   3.765 -0.2241  0.3139  0.0652
  126OSM   C18F13459   4.708   5.380   3.966 -0.0717 -0.1322 -0.0063
  126OSM   H18F13460   4.618   5.434   4.001  0.2372 -0.7913  1.9621
  126OSM   H18G13461   4.772   5.373   4.057 -0.4713 -1.4190  0.2050
  126OSM   H18H13462   4.689   5.275   3.935 -0.9803 -0.3695  1.2712
  127OSM      N13463   4.432   3.710   1.998  0.1562 -0.0400 -0.1556
  127OSM    C1513464   4.284   3.684   2.023  0.0890  0.4864  0.1101
  127OSM   H15A13465   4.270   3.636   2.119  0.6843  0.9980  0.4566
  127OSM   H15B13466   4.243   3.617   1.948  0.9848 -1.5838  1.3587
  127OSM   H15C13467   4.227   3.773   2.042  0.4334  0.4166  1.6001
  127OSM    C1413468   4.513   3.583   2.008  0.6528  0.3510  0.6411
  127OSM   H14A13469   4.618   3.609   2.010  0.6961  0.2632  3.2707
  127OSM   H14B13470   4.494   3.518   1.924 -0.3588 -0.8340  1.7569
  127OSM   H14C13471   4.489   3.532   2.100  1.7078 -1.3391  0.0249
  127OSM    C1313472   4.434   3.754   1.851  0.4040 -0.6536 -0.2503
  127OSM   H13A13473   4.394   3.669   1.797 -3.1094 -0.2572  1.4544
  127OSM   H13B13474   4.535   3.765   1.814  0.4300  0.4405  0.1027
  127OSM   H13C13475   4.369   3.839   1.835 -1.2917 -1.8696 -0.0668
  127OSM    C1213476   4.477   3.820   2.083  0.3302 -0.2378  0.1773
  127OSM   H12A13477   4.421   3.909   2.057  0.8052  0.2762  0.9006
  127OSM   H12B13478   4.583   3.835   2.068  0.8626 -1.9293  1.8968
  127OSM    C1113479   4.466   3.799   2.240 -0.1277  0.9628 -0.0891
  127OSM   H11A13480   4.360   3.796   2.271 -1.3538  1.4598 -3.7440
  127OSM   H11B13481   4.518   3.881   2.294  1.3983 -1.1764  1.8955
  127OSM      P13482   4.664   3.666   2.346  0.2004 -0.2155  0.0116
  127OSM    O1313483   4.715   3.529   2.321 -0.0523 -0.1707 -0.0500
  127OSM    O1413484   4.749   3.785   2.291 -0.0889 -0.2296 -0.6281
  127OSM    O1113485   4.629   3.692   2.499 -0.4147 -0.2367 -0.6281
  127OSM    O1213486   4.522   3.672   2.278 -0.2495 -0.1857 -0.1993
  127OSM    C1S13487   4.513   3.631   2.548  0.1112  0.2533 -0.5916
  127OSM    H1S13488   4.523   3.520   2.540 -0.0819  0.2295 -0.5186
  127OSM    H1T13489   4.418   3.661   2.500 -0.0278 -2.2085 -2.0543
  127OSM     NF13490   4.394   3.571   2.751 -0.4336  0.5730  0.0144
  127OSM    HNF13491   4.303   3.613   2.757 -0.7030 -0.1133  0.8082
  127OSM    C2S13492   4.502   3.649   2.701  0.1303 -0.5759  0.1740
  127OSM    H2S13493   4.595   3.626   2.757  0.6953  2.1985  0.5348
  127OSM    C3S13494   4.488   3.801   2.729  0.0437  0.5758 -0.6153
  127OSM    H3S13495   4.394   3.833   2.679  0.6623  2.0157 -0.9108
  127OSM     O313496   4.598   3.880   2.678  0.0702 -0.1040 -0.0797
  127OSM    HO313497   4.632   3.822   2.610  2.9833 -0.3960  1.4728
  127OSM    C4S13498   4.448   3.831   2.868 -0.2155 -0.1079 -0.3451
  127OSM    H4S13499   4.339   3.818   2.875 -0.1187 -1.5650 -1.2594
  127OSM    C5S13500   4.521   3.877   2.967 -0.7100 -0.1226 -0.5247
  127OSM    H5S13501   4.631   3.885   2.958 -0.6092 -1.6752 -0.9599
  127OSM    C6S13502   4.472   3.904   3.106  0.0359 -0.1913 -0.8385
  127OSM    H6S13503   4.522   3.999   3.136 -1.3162 -0.1457  1.4714
  127OSM    H6T13504   4.514   3.825   3.172 -2.7507 -0.7216  0.4073
  127OSM    C7S13505   4.316   3.932   3.146 -0.6260  0.4144  0.4954
  127OSM    H7S13506   4.261   3.844   3.105 -0.3092  0.0553  0.8358
  127OSM    H7T13507   4.274   4.019   3.091 -1.9394 -0.0987  0.6415
  127OSM    C8S13508   4.296   3.958   3.297 -0.1008  0.7861 -0.2519
  127OSM    H8S13509   4.336   3.863   3.340 -2.5269 -0.2248 -0.0338
  127OSM    H8T13510   4.187   3.962   3.319 -0.0762  1.1480 -0.1936
  127OSM    C9S13511   4.355   4.088   3.343 -0.2473 -0.5732  0.2560
  127OSM    H9S13512   4.309   4.175   3.291 -0.7518 -0.8166  0.2905
  127OSM    H9T13513   4.466   4.097   3.334 -0.2793  0.2770  0.6422
  127OSM   C10S13514   4.338   4.105   3.500 -0.4029  0.2610 -0.1253
  127OSM   H10S13515   4.361   4.014   3.560 -0.9932 -0.4161 -0.9162
  127OSM   H10T13516   4.228   4.118   3.504 -0.6400 -1.4191 -0.2527
  127OSM   C11S13517   4.431   4.214   3.560 -0.1936  0.5657 -0.1706
  127OSM   H11S13518   4.425   4.299   3.488 -0.8706 -0.3782 -1.2644
  127OSM   H11T13519   4.530   4.164   3.551 -1.1859 -1.0700 -3.7515
  127OSM   C12S13520   4.404   4.247   3.705  0.1929  0.5059  0.1782
  127OSM   H12S13521   4.406   4.151   3.761 -1.5589  0.8202  0.8426
  127OSM   H12T13522   4.300   4.285   3.716 -0.1908 -0.8383  1.3937
  127OSM   C13S13523   4.512   4.350   3.749  0.0753 -0.1989 -0.2828
  127OSM   H13S13524   4.524   4.440   3.685 -1.7064 -0.6643 -1.3545
  127OSM   H13T13525   4.608   4.298   3.730  1.1519  1.3257  0.6994
  127OSM   C14S13526   4.518   4.367   3.896 -0.2674  0.1226  0.4977
  127OSM   H14S13527   4.539   4.270   3.945 -0.4977  0.8725  2.1707
  127OSM   H14T13528   4.422   4.399   3.943 -1.4683  0.6878 -2.1673
  127OSM   C15S13529   4.615   4.476   3.948 -1.0057 -0.1454 -0.0040
  127OSM   H15S13530   4.577   4.574   3.912  0.2099  0.1683 -0.5073
  127OSM   H15T13531   4.716   4.460   3.904 -1.0051  0.5789 -0.2850
  127OSM   C16S13532   4.639   4.486   4.097 -0.0779  0.4440  0.4357
  127OSM   H16S13533   4.543   4.479   4.154 -0.3640 -1.0814 -0.1856
  127OSM   H16T13534   4.673   4.590   4.117  0.4670  0.3474  0.0131
  127OSM   C17S13535   4.740   4.388   4.159 -0.1438 -0.1462 -0.5421
  127OSM   H17S13536   4.721   4.282   4.131  1.5650 -0.6786  0.1698
  127OSM   H17T13537   4.731   4.395   4.270 -1.3703 -1.3131 -0.5393
  127OSM   C18S13538   4.884   4.421   4.131 -0.3340 -0.6269 -0.3865
  127OSM   H18S13539   4.952   4.333   4.135  1.2024  0.5627  0.3909
  127OSM   H18T13540   4.911   4.485   4.217 -0.5705  1.1173 -1.5561
  127OSM   H18U13541   4.899   4.482   4.040  1.7664  1.6366  1.3383
  127OSM    C1F13542   4.404   3.440   2.784  0.3821  0.1307  0.5962
  127OSM     OF13543   4.506   3.382   2.766 -0.8254  0.0915  0.5324
  127OSM    C2F13544   4.287   3.378   2.858  0.6602  0.3200 -0.0955
  127OSM    H2F13545   4.279   3.282   2.802  1.1046  0.2395 -0.0241
  127OSM    H2G13546   4.195   3.436   2.839  0.2518 -0.7414 -1.5458
  127OSM    C3F13547   4.311   3.342   3.003 -0.2963 -0.1363 -1.2089
  127OSM    H3F13548   4.394   3.270   3.017 -0.0922  0.0550 -1.4080
  127OSM    H3G13549   4.225   3.285   3.043 -0.3496  2.0704  2.2192
  127OSM    C4F13550   4.332   3.464   3.099 -0.1720 -0.0185  0.5237
  127OSM    H4F13551   4.253   3.539   3.077 -1.1526 -0.5204  2.1168
  127OSM    H4G13552   4.434   3.502   3.078 -0.9968  2.2980  0.3803
  127OSM    C5F13553   4.311   3.432   3.242 -1.1194  0.3104  0.1227
  127OSM    H5F13554   4.355   3.336   3.276 -0.8366  0.1572 -0.6608
  127OSM    H5G13555   4.202   3.420   3.257 -0.8731 -2.3494  0.3005
  127OSM    C6F13556   4.379   3.540   3.331  0.6593 -0.3193 -0.6385
  127OSM    H6F13557   4.335   3.641   3.313  1.8285  0.3092 -0.0473
  127OSM    H6G13558   4.487   3.535   3.309  0.5863 -2.2763 -0.7598
  127OSM    C7F13559   4.366   3.508   3.478  0.0978  0.3831 -0.7209
  127OSM    H7F13560   4.417   3.412   3.502  0.6862  0.6382 -0.9266
  127OSM    H7G13561   4.256   3.500   3.489 -0.1448  2.5733 -1.1024
  127OSM    C8F13562   4.421   3.627   3.553 -0.0406  0.3046  0.3843
  127OSM    H8F13563   4.369   3.721   3.525  0.5993  0.2750 -0.9728
  127OSM    H8G13564   4.525   3.640   3.515  0.2317 -1.4572  0.4206
  127OSM    C9F13565   4.424   3.595   3.700 -1.2837  0.0410 -0.8733
  127OSM    H9F13566   4.515   3.550   3.740 -1.4785  0.1330 -0.3178
  127OSM   C10F13567   4.344   3.636   3.793  0.1791  0.3534 -0.2766
  127OSM   H10F13568   4.368   3.613   3.898  0.8087  1.3569 -0.1784
  127OSM   C11F13569   4.210   3.713   3.786 -0.0559  0.4856 -0.5888
  127OSM   H11F13570   4.161   3.705   3.686  0.6502 -0.5148 -0.8736
  127OSM   H11G13571   4.231   3.822   3.798  0.1681  0.4189 -0.3673
  127OSM   C12F13572   4.108   3.674   3.887  0.1089  0.2547 -0.0738
  127OSM   H12F13573   4.011   3.722   3.862  0.6842  0.4328 -2.1603
  127OSM   H12G13574   4.134   3.710   3.989  1.1928  1.4486 -0.7449
  127OSM   C13F13575   4.069   3.522   3.882 -0.3326 -0.4048 -0.6029
  127OSM   H13F13576   3.999   3.507   3.966  1.2390 -2.6147  0.4090
  127OSM   H13G13577   4.159   3.469   3.921 -1.0918 -0.6938  0.8019
  127OSM   C14F13578   4.007   3.467   3.755 -0.6277 -0.8427 -0.6694
  127OSM   H14F13579   4.084   3.463   3.674 -0.9369 -2.8332 -0.9218
  127OSM   H14G13580   3.921   3.531   3.727 -1.1987 -0.1066  2.4502
  127OSM   C15F13581   3.961   3.327   3.784  0.4859  0.6641  0.4444
  127OSM   H15F13582   3.888   3.334   3.868 -0.6394  2.6747 -0.6065
  127OSM   H15G13583   4.040   3.257   3.817 -0.9526 -1.1184  0.2544
  127OSM   C16F13584   3.881   3.271   3.661 -0.4175  0.0466 -0.4105
  127OSM   H16F13585   3.784   3.322   3.645 -0.8389 -0.2653  0.9686
  127OSM   H16G13586   3.855   3.167   3.691  0.0949 -0.0545 -0.3045
  127OSM   C17F13587   3.967   3.257   3.539 -0.6134 -0.6063  0.5671
  127OSM   H17F13588   3.987   3.356   3.493 -1.3852  0.2928  2.0685
  127OSM   H17G13589   3.910   3.206   3.458 -1.6827 -0.8627  1.4455
  127OSM   C18F13590   4.097   3.182   3.555  0.1728  0.1915 -0.4032
  127OSM   H18F13591   4.082   3.072   3.561  1.7636 -0.0995 -1.2230
  127OSM   H18G13592   4.153   3.220   3.643  0.0538  0.6124 -0.5063
  127OSM   H18H13593   4.164   3.193   3.467  0.3075  1.4438 -0.1651
  128OSM      N13594   4.012   1.029   2.429 -0.0160  0.7740  0.1112
  128OSM    C1513595   4.051   1.127   2.329  0.1600  0.1479 -0.0358
  128OSM   H15A13596   4.137   1.084   2.279 -0.7848 -0.2540 -1.3909
  128OSM   H15B13597   4.078   1.227   2.359  0.4760  0.0714 -0.0613
  128OSM   H15C13598   3.969   1.143   2.260  1.7975 -1.7537 -2.6075
  128OSM    C1413599   3.930   1.080   2.536  0.2345  0.2141  0.8896
  128OSM   H14A13600   3.984   1.147   2.601 -1.1271  1.2850  0.9650
  128OSM   H14B13601   3.877   1.002   2.589  0.1757 -1.9363 -2.1225
  128OSM   H14C13602   3.856   1.147   2.494 -0.9375 -0.6831  1.4703
  128OSM    C1313603   3.922   0.928   2.364  0.0170 -0.1007  0.5938
  128OSM   H13A13604   3.850   0.974   2.299  0.6769  2.2947  1.4578
  128OSM   H13B13605   3.873   0.862   2.434 -1.6675  0.5149  0.0249
  128OSM   H13C13606   3.983   0.869   2.297 -0.5936 -1.1062  0.8959
  128OSM    C1213607   4.134   0.958   2.489  0.2473  0.4799  0.4313
  128OSM   H12A13608   4.105   0.887   2.565  0.4319  1.5466  1.5530
  128OSM   H12B13609   4.180   1.042   2.541 -1.8731  2.0038 -0.0311
  128OSM    C1113610   4.232   0.892   2.392  0.2561  0.4124 -0.3406
  128OSM   H11A13611   4.186   0.822   2.319  0.5128  2.4388 -2.6004
  128OSM   H11B13612   4.307   0.832   2.447  1.7073  0.2366 -2.3833
  128OSM      P13613   4.434   1.045   2.333 -0.4851 -0.4315 -0.0884
  128OSM    O1313614   4.532   0.968   2.247  0.2388  0.4117  0.2844
  128OSM    O1413615   4.424   1.190   2.312  0.3510  0.1425 -0.2673
  128OSM    O1113616   4.457   1.015   2.485 -0.4906  0.2493 -0.1764
  128OSM    O1213617   4.299   0.984   2.314 -0.2219 -0.1953 -0.4602
  128OSM    C1S13618   4.426   1.115   2.580  0.0203 -0.1552  0.7513
  128OSM    H1S13619   4.329   1.159   2.546  0.6307 -1.9137 -4.0122
  128OSM    H1T13620   4.505   1.191   2.597  0.3114 -0.2488 -0.1393
  128OSM     NF13621   4.347   1.158   2.820  0.3921  0.0140 -0.2983
  128OSM    HNF13622   4.404   1.213   2.881  0.8248 -1.1074  0.3343
  128OSM    C2S13623   4.409   1.060   2.729 -0.1581 -0.0473  0.7505
  128OSM    H2S13624   4.342   0.971   2.720  0.6185 -0.5061 -1.1745
  128OSM    C3S13625   4.539   0.998   2.785 -0.1214  0.9282 -0.3205
  128OSM    H3S13626   4.621   1.072   2.784  1.3853 -0.6263 -2.5135
  128OSM     O313627   4.591   0.895   2.697  0.4713 -0.2097 -0.2041
  128OSM    HO313628   4.542   0.916   2.617 -1.4292  1.7905  1.3580
  128OSM    C4S13629   4.523   0.948   2.924  0.5617  0.1627 -0.0088
  128OSM    H4S13630   4.562   1.018   3.000 -0.5594 -0.4265  1.1434
  128OSM    C5S13631   4.483   0.830   2.968 -0.2501  0.2906  0.7503
  128OSM    H5S13632   4.459   0.751   2.896 -1.9177  0.8925  0.6003
  128OSM    C6S13633   4.470   0.785   3.109  0.9457  0.2926 -0.7535
  128OSM    H6S13634   4.495   0.683   3.146 -3.3994 -1.3527 -1.7350
  128OSM    H6T13635   4.361   0.794   3.130  0.9065 -0.5140 -0.5778
  128OSM    C7S13636   4.530   0.875   3.219  0.4195  0.5667 -0.0196
  128OSM    H7S13637   4.495   0.980   3.218  0.1318  0.4924  1.0434
  128OSM    H7T13638   4.641   0.874   3.205  0.7014 -1.1005  1.9329
  128OSM    C8S13639   4.498   0.822   3.361  0.0487 -0.3220 -0.0245
  128OSM    H8S13640   4.558   0.730   3.377 -1.1174 -0.6662  3.2104
  128OSM    H8T13641   4.390   0.796   3.367 -0.2592 -0.0651 -2.8779
  128OSM    C9S13642   4.526   0.924   3.470  0.8556 -0.2476 -0.3343
  128OSM    H9S13643   4.456   1.008   3.450  2.6683  1.1026 -1.3369
  128OSM    H9T13644   4.618   0.982   3.449  0.2275  0.4974 -1.1140
  128OSM   C10S13645   4.498   0.872   3.614 -0.1462 -0.3624  0.6584
  128OSM   H10S13646   4.591   0.814   3.635 -0.1494 -0.1745  1.1886
  128OSM   H10T13647   4.417   0.797   3.616 -0.1610 -0.4112 -0.5522
  128OSM   C11S13648   4.491   0.983   3.712 -0.1243 -0.9955  0.3004
  128OSM   H11S13649   4.419   1.059   3.675 -0.9171 -1.0603  1.6506
  128OSM   H11T13650   4.590   1.033   3.709 -0.5984 -0.0630 -0.1484
  128OSM   C12S13651   4.452   0.938   3.854  0.4768  0.3124 -0.6552
  128OSM   H12S13652   4.498   0.839   3.875 -2.0933 -1.0226 -0.9368
  128OSM   H12T13653   4.347   0.915   3.879  0.9442  0.2085  1.4569
  128OSM   C13S13654   4.498   1.030   3.970 -0.4110 -0.0234 -0.1671
  128OSM   H13S13655   4.449   1.129   3.958  0.4923  0.3830 -0.5106
  128OSM   H13T13656   4.606   1.038   3.947 -0.3212 -3.4098 -1.5491
  128OSM   C14S13657   4.463   0.982   4.113 -0.2273 -0.3823 -0.3515
  128OSM   H14S13658   4.508   0.882   4.133 -2.2680 -1.4062 -0.5717
  128OSM   H14T13659   4.353   0.966   4.117 -0.1934 -0.4115  2.4001
  128OSM   C15S13660   4.501   1.077   4.224 -0.2004 -1.1470 -1.0044
  128OSM   H15S13661   4.432   1.164   4.226  1.2721  0.0370 -0.5401
  128OSM   H15T13662   4.606   1.111   4.217  0.1862 -1.3888  2.0479
  128OSM   C16S13663   4.479   1.013   4.364  0.5035 -0.3834 -0.1889
  128OSM   H16S13664   4.537   0.920   4.350  0.3542 -0.1248 -3.0669
  128OSM   H16T13665   4.371   0.996   4.384  0.8445 -0.3162  1.9498
  128OSM   C17S13666   4.522   1.100   4.482 -0.1564 -0.5538  0.1821
  128OSM   H17S13667   4.525   1.038   4.574 -0.7761 -0.7672  0.0611
  128OSM   H17T13668   4.452   1.182   4.506  0.1575 -0.3581  0.4356
  128OSM   C18S13669   4.660   1.167   4.478  0.3300  0.1831  0.0904
  128OSM   H18S13670   4.657   1.257   4.413  0.3333  0.4472  0.4540
  128OSM   H18T13671   4.734   1.100   4.431  0.2014 -2.0104  2.7429
  128OSM   H18U13672   4.687   1.192   4.583  0.2282  2.4613 -0.3758
  128OSM    C1F13673   4.226   1.205   2.794  0.1054  0.3711 -0.2883
  128OSM     OF13674   4.144   1.137   2.733  0.3097 -1.5656 -0.1932
  128OSM    C2F13675   4.196   1.333   2.845  0.2159 -0.7166 -0.2849
  128OSM    H2F13676   4.211   1.410   2.766 -1.4825  1.4972  1.4171
  128OSM    H2G13677   4.265   1.335   2.932 -0.7121 -1.8880  0.5089
  128OSM    C3F13678   4.055   1.336   2.891  0.4173  0.4148  0.0349
  128OSM    H3F13679   4.010   1.237   2.918 -0.3530  0.6446 -0.3682
  128OSM    H3G13680   3.983   1.372   2.815 -0.8175 -2.1626 -0.1323
  128OSM    C4F13681   4.035   1.434   3.011 -0.1004  0.1617  0.1005
  128OSM    H4F13682   4.068   1.536   2.979 -1.5908  0.6844  0.1450
  128OSM    H4G13683   4.104   1.401   3.091 -3.4007 -3.1832  1.8539
  128OSM    C5F13684   3.900   1.427   3.072 -0.0652 -0.7739  0.3063
  128OSM    H5F13685   3.875   1.322   3.096 -1.0715 -0.9248 -1.2047
  128OSM    H5G13686   3.824   1.460   2.997  2.5372 -1.4413 -2.8750
  128OSM    C6F13687   3.891   1.510   3.200 -0.4435 -0.2439 -0.1098
  128OSM    H6F13688   3.910   1.615   3.166  0.2462 -0.9623 -2.0886
  128OSM    H6G13689   3.978   1.498   3.267  0.6738  1.8101 -1.0697
  128OSM    C7F13690   3.754   1.505   3.270 -0.6212 -0.4855 -0.8020
  128OSM    H7F13691   3.766   1.415   3.333  2.1308  0.6563  0.4686
  128OSM    H7G13692   3.671   1.484   3.199 -1.1349 -0.5798 -0.1819
  128OSM    C8F13693   3.710   1.624   3.367 -0.0407  0.8387  0.6612
  128OSM    H8F13694   3.599   1.636   3.371 -0.4717 -2.6282  3.5156
  128OSM    H8G13695   3.756   1.715   3.322 -0.0056  0.3419 -0.3174
  128OSM    C9F13696   3.759   1.595   3.509 -0.3559  0.5665 -0.6237
  128OSM    H9F13697   3.708   1.516   3.566 -0.6404  0.3233 -1.2056
  128OSM   C10F13698   3.863   1.658   3.571  0.0143  0.0237  0.3846
  128OSM   H10F13699   3.913   1.623   3.663  1.3315  2.2962  0.6174
  128OSM   C11F13700   3.961   1.764   3.514  0.0981  0.4759  0.5067
  128OSM   H11F13701   3.930   1.775   3.408  0.2784  0.2315  0.4273
  128OSM   H11G13702   4.063   1.721   3.517 -0.1425 -0.1187  0.2696
  128OSM   C12F13703   3.978   1.894   3.586 -0.7517  0.2814  0.0831
  128OSM   H12F13704   3.877   1.937   3.604 -0.7902 -0.4992  1.9343
  128OSM   H12G13705   4.025   1.970   3.521  1.4198 -1.4261 -0.4418
  128OSM   C13F13706   4.049   1.887   3.722  0.5242 -0.7052 -0.6322
  128OSM   H13F13707   4.159   1.883   3.704  0.7955  1.8753  0.0961
  128OSM   H13G13708   4.027   1.788   3.767  4.7858 -1.5677 -0.0153
  128OSM   C14F13709   4.024   2.005   3.819 -0.5873 -0.1317 -0.3965
  128OSM   H14F13710   3.915   2.027   3.819 -0.4583  0.5172 -0.1668
  128OSM   H14G13711   4.072   2.098   3.781 -0.6217  0.4985  1.0443
  128OSM   C15F13712   4.078   1.986   3.956  0.0634  0.2556  0.4502
  128OSM   H15F13713   4.189   1.996   3.958 -0.1270  3.6311  0.6091
  128OSM   H15G13714   4.054   1.883   3.988 -0.7834  0.0693 -0.7100
  128OSM   C16F13715   4.018   2.085   4.053  0.6509 -0.1871 -0.2997
  128OSM   H16F13716   3.908   2.099   4.052  0.9143  2.2970 -0.4139
  128OSM   H16G13717   4.050   2.185   4.017 -1.6224  1.2077  1.2311
  128OSM   C17F13718   4.070   2.060   4.192  0.4997  0.1973 -0.1770
  128OSM   H17F13719   4.180   2.074   4.200  0.2651  1.2118  1.9066
  128OSM   H17G13720   4.038   1.957   4.219  0.1721  0.0468 -1.0973
  128OSM   C18F13721   4.003   2.165   4.293 -0.1179 -0.2565 -0.1081
  128OSM   H18F13722   3.893   2.148   4.293  0.2112 -2.7665  1.0248
  128OSM   H18G13723   4.039   2.257   4.243  0.0175 -0.0233  0.4054
  128OSM   H18H13724   4.053   2.145   4.390  2.1441 -0.9624 -1.3616
  129OSM      N13725   1.036   0.242   2.242 -0.5172 -0.0541 -0.0122
  129OSM    C1513726   1.087   0.104   2.229 -0.0131  0.1300 -0.6588
  129OSM   H15A13727   1.090   0.066   2.330  1.7838  2.2970  0.1849
  129OSM   H15B13728   1.186   0.101   2.185 -0.3255 -0.3961 -1.3563
  129OSM   H15C13729   1.005   0.054   2.180 -1.2670 -0.5025  1.9223
  129OSM    C1413730   0.902   0.241   2.298  0.1860 -0.7488 -0.3762
  129OSM   H14A13731   0.839   0.198   2.221 -0.9287 -2.5343  1.4216
  129OSM   H14B13732   0.865   0.340   2.319 -1.9990 -1.6225  0.1876
  129OSM   H14C13733   0.888   0.184   2.388  0.7379  1.7125  1.3593
  129OSM    C1313734   1.127   0.312   2.343 -0.6250  0.2841 -0.7165
  129OSM   H13A13735   1.102   0.412   2.375  1.3569  0.4269  0.5579
  129OSM   H13B13736   1.222   0.325   2.292 -0.3947  1.3172 -0.0529
  129OSM   H13C13737   1.137   0.246   2.427 -0.1640  0.4206 -0.6612
  129OSM    C1213738   1.031   0.312   2.104  0.3178  0.0337  0.3238
  129OSM   H12A13739   0.970   0.253   2.037 -0.4707  1.4936 -0.2943
  129OSM   H12B13740   1.126   0.322   2.054 -1.7098 -0.6375 -4.2145
  129OSM    C1113741   0.964   0.452   2.110 -0.7720  1.0647  0.2922
  129OSM   H11A13742   0.982   0.499   2.011 -0.0875 -0.0387 -0.1292
  129OSM   H11B13743   1.033   0.501   2.182 -1.0055 -1.0068  2.0174
  129OSM      P13744   0.717   0.426   2.046  0.3930 -0.2419 -0.3444
  129OSM    O1313745   0.718   0.527   1.939 -0.0815 -0.8780 -0.3200
  129OSM    O1413746   0.743   0.281   2.015 -0.2186  0.2526 -0.5269
  129OSM    O1113747   0.577   0.444   2.125 -0.6320  0.4328  0.0748
  129OSM    O1213748   0.824   0.463   2.148 -0.7565 -0.0802  0.0348
  129OSM    C1S13749   0.562   0.393   2.260  0.0486 -0.1075 -0.4431
  129OSM    H1S13750   0.660   0.356   2.298  1.1040  1.7915 -1.1618
  129OSM    H1T13751   0.496   0.305   2.268 -0.0609  0.1178  2.1373
  129OSM     NF13752   0.507   0.440   2.491 -0.3644 -0.4058 -0.1086
  129OSM    HNF13753   0.419   0.415   2.529  0.7327 -2.0586  1.5237
  129OSM    C2S13754   0.515   0.502   2.363 -0.0685  0.2802  0.4997
  129OSM    H2S13755   0.594   0.581   2.361 -0.7584  0.9846  0.3009
  129OSM    C3S13756   0.385   0.561   2.310 -0.2784  0.8570 -0.3536
  129OSM    H3S13757   0.315   0.475   2.297  1.7803 -0.6580 -2.1158
  129OSM     O313758   0.406   0.629   2.187  0.2254  0.1176 -0.2728
  129OSM    HO313759   0.499   0.617   2.164  0.0161 -1.4600 -0.4044
  129OSM    C4S13760   0.321   0.655   2.410 -0.2304  0.2731  0.1239
  129OSM    H4S13761   0.386   0.740   2.434  1.2043 -1.0936  1.3316
  129OSM    C5S13762   0.198   0.648   2.469  0.3676  0.0734  0.0810
  129OSM    H5S13763   0.143   0.557   2.441 -1.9396  0.8517  1.7599
  129OSM    C6S13764   0.138   0.737   2.572  0.2110 -0.6138 -0.2312
  129OSM    H6S13765   0.143   0.701   2.677 -1.2426 -1.2295 -0.3435
  129OSM    H6T13766   0.029   0.735   2.549 -0.0454  0.3231  0.8209
  129OSM    C7S13767   0.179   0.887   2.564  0.0154 -0.4461 -0.2269
  129OSM    H7S13768   0.164   0.919   2.459 -0.5595  1.0857  0.2909
  129OSM    H7T13769   0.289   0.880   2.577  0.1100 -2.1898 -1.6623
  129OSM    C8S13770   0.119   0.988   2.667 -0.2985 -0.3013  0.5421
  129OSM    H8S13771   0.009   0.983   2.680 -0.2887  0.2564  0.8837
  129OSM    H8T13772   0.137   1.095   2.641 -2.5868 -0.3584 -1.5879
  129OSM    C9S13773   0.174   0.973   2.810 -0.0977  0.5219  0.0872
  129OSM    H9S13774   0.285   0.972   2.801 -0.1064  0.8962 -0.1000
  129OSM    H9T13775   0.139   0.873   2.841 -0.8230  0.4763 -0.8387
  129OSM   C10S13776   0.135   1.084   2.907  0.0496 -0.3352 -0.8005
  129OSM   H10S13777   0.027   1.073   2.926  0.1472  1.1701  0.8729
  129OSM   H10T13778   0.158   1.186   2.870 -2.3642  0.6020  0.0883
  129OSM   C11S13779   0.196   1.062   3.043  0.1320 -0.0240 -0.3998
  129OSM   H11S13780   0.178   0.958   3.079 -0.9964 -0.5303 -2.2595
  129OSM   H11T13781   0.148   1.129   3.118  2.0029 -1.3482  2.1363
  129OSM   C12S13782   0.344   1.109   3.052 -0.3394  0.3131  0.2988
  129OSM   H12S13783   0.363   1.218   3.040  0.2906  0.2439  0.6048
  129OSM   H12T13784   0.402   1.048   2.979 -0.9159  0.5444 -0.3570
  129OSM   C13S13785   0.408   1.078   3.193 -0.1888 -0.0461  0.6328
  129OSM   H13S13786   0.384   0.973   3.221  0.0203 -0.7508 -1.6012
  129OSM   H13T13787   0.347   1.136   3.266  1.0215  2.7041 -0.4185
  129OSM   C14S13788   0.556   1.107   3.200  0.2942 -0.6776 -0.2070
  129OSM   H14S13789   0.557   1.218   3.202 -1.1914 -0.6083 -1.1350
  129OSM   H14T13790   0.611   1.086   3.107 -1.1365  2.8454 -2.0292
  129OSM   C15S13791   0.619   1.041   3.318 -1.1286 -0.6550  0.0681
  129OSM   H15S13792   0.725   1.072   3.324 -0.2353 -3.4945  0.2242
  129OSM   H15T13793   0.619   0.930   3.318 -1.7089 -0.6801  1.2392
  129OSM   C16S13794   0.554   1.083   3.452  0.1050  0.0128  0.3141
  129OSM   H16S13795   0.454   1.035   3.457  0.8162 -1.5310  0.2503
  129OSM   H16T13796   0.532   1.192   3.455 -2.4196 -0.4332  0.4025
  129OSM   C17S13797   0.628   1.018   3.575  0.0993 -0.1293  0.7497
  129OSM   H17S13798   0.594   1.070   3.668  1.1156  1.1060  0.4638
  129OSM   H17T13799   0.738   1.032   3.564 -0.0165 -0.2003 -0.6206
  129OSM   C18S13800   0.596   0.865   3.594  0.5093 -0.0834 -1.0591
  129OSM   H18S13801   0.591   0.834   3.700 -0.6993 -1.7805 -1.5579
  129OSM   H18T13802   0.681   0.809   3.550  3.3775  0.3562  3.3595
  129OSM   H18U13803   0.503   0.825   3.547 -0.1053  0.7534 -0.5870
  129OSM    C1F13804   0.614   0.419   2.566  0.5086 -0.5090  0.0824
  129OSM     OF13805   0.724   0.443   2.524 -0.2038 -0.2824 -0.4795
  129OSM    C2F13806   0.604   0.372   2.706 -0.0125 -0.2242  0.7158
  129OSM    H2F13807   0.540   0.284   2.688 -0.8595  0.4769  0.2253
  129OSM    H2G13808   0.555   0.451   2.766 -1.5229 -0.0207 -0.7211
  129OSM    C3F13809   0.736   0.325   2.778 -0.1752 -0.6220 -0.3213
  129OSM    H3F13810   0.811   0.408   2.783  0.4929 -1.2874  1.6579
  129OSM    H3G13811   0.784   0.240   2.725  0.2412 -0.2320 -0.5834
  129OSM    C4F13812   0.703   0.271   2.923  0.2710  0.1466 -0.5768
  129OSM    H4F13813   0.630   0.340   2.971  2.4212 -0.3970  4.0333
  129OSM    H4G13814   0.796   0.258   2.981 -0.3316  0.5506  0.5023
  129OSM    C5F13815   0.624   0.143   2.917 -0.1122  0.5356 -0.3174
  129OSM    H5F13816   0.677   0.071   2.853 -0.7264 -1.0710  0.9201
  129OSM    H5G13817   0.521   0.156   2.877  0.3434  1.3553 -1.2706
  129OSM    C6F13818   0.620   0.084   3.061  0.2731  0.6775  0.1665
  129OSM    H6F13819   0.586   0.161   3.133  0.7805 -2.1644  3.7324
  129OSM    H6G13820   0.722   0.053   3.093 -0.5174  0.0241  2.2204
  129OSM    C7F13821   0.529  -0.039   3.082 -0.1211 -0.0951  0.4446
  129OSM    H7F13822   0.566  -0.089   3.174 -0.4275 -1.0191  0.0794
  129OSM    H7G13823   0.546  -0.106   2.995  0.0099 -0.4300  0.7246
  129OSM    C8F13824   0.378   0.004   3.079 -0.2099 -0.3516  0.0905
  129OSM    H8F13825   0.322  -0.091   3.088  1.1205 -1.3417 -1.4757
  129OSM    H8G13826   0.354   0.041   2.977  0.2741 -1.8160 -0.5836
  129OSM    C9F13827   0.331   0.107   3.174  0.3110 -1.0391  0.2929
  129OSM    H9F13828   0.373   0.207   3.156 -1.0813 -0.4039  0.4086
  129OSM   C10F13829   0.213   0.108   3.253 -0.8267  0.1910 -0.3264
  129OSM   H10F13830   0.197   0.199   3.314  1.5531 -1.6195  3.4289
  129OSM   C11F13831   0.113  -0.008   3.272 -0.1497  1.1632 -0.2793
  129OSM   H11F13832   0.094  -0.063   3.178  0.6202  0.3107  0.0500
  129OSM   H11G13833   0.017   0.032   3.310  0.2747  1.3498  0.6213
  129OSM   C12F13834   0.161  -0.107   3.379  0.0711  0.0538  0.5248
  129OSM   H12F13835   0.198  -0.056   3.471  0.6852  3.6145 -1.4830
  129OSM   H12G13836   0.245  -0.167   3.340  0.2527  0.6233  0.0388
  129OSM   C13F13837   0.037  -0.196   3.416  0.2352  0.6703 -0.3016
  129OSM   H13F13838   0.004  -0.247   3.323  0.4749 -0.8184  0.4007
  129OSM   H13G13839  -0.052  -0.142   3.454 -1.8800 -0.9660 -2.5886
  129OSM   C14F13840   0.077  -0.305   3.520 -0.2424  0.4202 -0.8043
  129OSM   H14F13841   0.151  -0.373   3.473 -1.1041  0.0560 -1.6837
  129OSM   H14G13842  -0.009  -0.375   3.530 -0.0936  0.5278  2.3922
  129OSM   C15F13843   0.114  -0.250   3.667 -0.4452  0.0588 -0.4331
  129OSM   H15F13844   0.028  -0.189   3.703 -0.7386  0.8068 -2.2895
  129OSM   H15G13845   0.197  -0.177   3.658 -0.0874 -0.5510 -2.5856
  129OSM   C16F13846   0.135  -0.358   3.763  0.0706  1.0769 -0.1254
  129OSM   H16F13847   0.202  -0.438   3.725  0.4118  0.0055  2.5430
  129OSM   H16G13848   0.041  -0.415   3.781  0.6026 -0.3853 -1.6973
  129OSM   C17F13849   0.188  -0.316   3.906  0.0478  0.0111  0.1070
  129OSM   H17F13850   0.124  -0.236   3.948  1.5615  0.6206  1.3685
  129OSM   H17G13851   0.291  -0.276   3.896 -0.3887  1.0067 -0.5486
  129OSM   C18F13852   0.197  -0.441   4.000  0.2307  0.4546  0.1230
  129OSM   H18F13853   0.227  -0.535   3.948  0.7331  0.6816 -0.0043
  129OSM   H18G13854   0.099  -0.471   4.043  1.4549 -0.5950  2.3202
  129OSM   H18H13855   0.267  -0.435   4.086  1.1684 -0.5502 -0.5410
  130OSM      N13856   5.708   2.831   2.572 -0.1838 -0.0507  0.0424
  130OSM    C1513857   5.618   2.728   2.516  0.4644  0.4274  0.4975
  130OSM   H15A13858   5.527   2.742   2.572  0.0618  0.3190 -0.1196
  130OSM   H15B13859   5.648   2.625   2.524  0.5605  0.2857 -1.3054
  130OSM   H15C13860   5.589   2.742   2.413 -1.9864  0.3298  1.1110
  130OSM    C1413861   5.721   2.778   2.715  0.8240 -0.5378  0.0296
  130OSM   H14A13862   5.752   2.675   2.708 -1.7252 -1.4187  0.5352
  130OSM   H14B13863   5.625   2.777   2.765 -0.2905 -1.2896 -1.9903
  130OSM   H14C13864   5.780   2.839   2.782  0.9399  0.7760 -1.2256
  130OSM    C1313865   5.844   2.828   2.504  1.2666 -0.0598  0.4603
  130OSM   H13A13866   5.913   2.891   2.557 -0.4685 -0.3403  3.2942
  130OSM   H13B13867   5.828   2.860   2.402  1.1272 -0.3039  0.4054
  130OSM   H13C13868   5.895   2.734   2.506  0.5701 -0.4339  1.5537
  130OSM    C1213869   5.638   2.969   2.564 -0.0750  0.5845 -0.5799
  130OSM   H12A13870   5.599   2.971   2.464 -1.9607  1.3602  0.1310
  130OSM   H12B13871   5.716   3.045   2.563  0.5320 -0.0311 -0.7489
  130OSM    C1113872   5.522   3.008   2.656  0.6141 -0.0121 -0.1326
  130OSM   H11A13873   5.473   3.101   2.621 -0.8512 -0.2567  1.1711
  130OSM   H11B13874   5.548   3.014   2.764  0.3283  1.3468 -0.1269
  130OSM      P13875   5.277   2.903   2.564  0.1989 -0.0882  0.5556
  130OSM    O1313876   5.298   2.943   2.424  0.5324  0.0333  0.0308
  130OSM    O1413877   5.208   2.772   2.588 -0.4333 -0.4744  0.5204
  130OSM    O1113878   5.189   3.026   2.619  0.3656  0.3264  0.3067
  130OSM    O1213879   5.416   2.902   2.651 -0.1090 -0.3440  0.3438
  130OSM    C1S13880   5.116   3.017   2.743  0.2932  0.2970  0.4083
  130OSM    H1S13881   5.085   2.916   2.777 -0.2908  0.1157 -0.6384
  130OSM    H1T13882   5.015   3.061   2.732  0.4053  0.5391  0.3374
  130OSM     NF13883   5.134   3.062   2.998 -0.1470  0.1040 -0.0466
  130OSM    HNF13884   5.072   3.124   3.044 -1.4819 -1.6076  0.5335
  130OSM    C2S13885   5.186   3.090   2.862 -0.1663  0.0118 -0.1798
  130OSM    H2S13886   5.293   3.061   2.863  0.1282  1.0237  1.7803
  130OSM    C3S13887   5.185   3.240   2.832 -0.8888 -0.6105 -0.8988
  130OSM    H3S13888   5.077   3.268   2.824 -0.4318  2.0025  0.9533
  130OSM     O313889   5.241   3.285   2.713 -0.3246 -0.2597 -0.6755
  130OSM    HO313890   5.278   3.213   2.661 -0.2864  0.6792 -2.0225
  130OSM    C4S13891   5.240   3.321   2.951  1.0166 -0.6134  0.6230
  130OSM    H4S13892   5.165   3.348   3.027  0.8853  0.6617  0.0724
  130OSM    C5S13893   5.363   3.369   2.969 -0.7213  0.1140 -0.3109
  130OSM    H5S13894   5.443   3.345   2.897 -0.2172  1.0852 -0.0911
  130OSM    C6S13895   5.408   3.454   3.093  0.2206  0.0609  1.0568
  130OSM    H6S13896   5.469   3.541   3.060  0.9679 -1.4858 -2.0855
  130OSM    H6T13897   5.474   3.390   3.156 -0.8119 -1.1446  0.9685
  130OSM    C7S13898   5.293   3.494   3.186 -0.2805  0.1791 -0.2972
  130OSM    H7S13899   5.255   3.396   3.221  0.3078 -0.4858 -1.4742
  130OSM    H7T13900   5.206   3.550   3.144 -0.7287  0.2208  0.6523
  130OSM    C8S13901   5.331   3.595   3.297 -0.2834  0.1908 -0.1716
  130OSM    H8S13902   5.350   3.695   3.252  2.1932  0.9265  2.2461
  130OSM    H8T13903   5.428   3.564   3.342  0.0759  0.7566 -0.5465
  130OSM    C9S13904   5.235   3.608   3.415  0.4225  0.2527  0.5026
  130OSM    H9S13905   5.236   3.514   3.475  0.0681 -0.1121 -0.0655
  130OSM    H9T13906   5.141   3.626   3.361  0.6339 -0.2443 -0.0414
  130OSM   C10S13907   5.276   3.716   3.519 -0.5737 -0.6904  1.0315
  130OSM   H10S13908   5.197   3.792   3.536 -2.1808 -1.9765 -0.3498
  130OSM   H10T13909   5.360   3.766   3.465  0.4835 -2.8855  0.5296
  130OSM   C11S13910   5.320   3.659   3.657  0.6277  0.0021  0.0169
  130OSM   H11S13911   5.403   3.588   3.634  0.3060 -0.0710 -0.9727
  130OSM   H11T13912   5.234   3.601   3.697 -0.1901  1.9355  1.2000
  130OSM   C12S13913   5.350   3.756   3.767 -0.4092 -0.4544  0.7745
  130OSM   H12S13914   5.257   3.817   3.778 -0.4627 -0.6389  1.4204
  130OSM   H12T13915   5.437   3.819   3.739 -0.5265 -0.6537 -0.0536
  130OSM   C13S13916   5.390   3.688   3.903 -1.2567 -0.5510  0.4273
  130OSM   H13S13917   5.492   3.647   3.886 -0.5495  0.8688  1.0555
  130OSM   H13T13918   5.320   3.606   3.929 -1.3472  0.0882  2.3483
  130OSM   C14S13919   5.404   3.792   4.020 -0.1423 -0.9203 -0.2877
  130OSM   H14S13920   5.328   3.872   4.008  1.2561  0.5277  0.1936
  130OSM   H14T13921   5.506   3.835   4.006  0.9608 -2.9310  0.9563
  130OSM   C15S13922   5.407   3.727   4.160  0.4986 -0.5913 -1.0754
  130OSM   H15S13923   5.456   3.627   4.152  2.9976  0.4258  0.5060
  130OSM   H15T13924   5.304   3.707   4.195  1.2839 -0.5189  1.4718
  130OSM   C16S13925   5.469   3.809   4.274 -0.0678 -0.3252  1.1307
  130OSM   H16S13926   5.422   3.909   4.287 -1.3786 -0.9161  1.0024
  130OSM   H16T13927   5.575   3.828   4.246 -0.1101 -2.1170 -0.4772
  130OSM   C17S13928   5.476   3.732   4.409 -1.0580 -0.2949 -0.4747
  130OSM   H17S13929   5.378   3.697   4.447 -0.3191 -1.1663  0.7078
  130OSM   H17T13930   5.515   3.804   4.484 -0.7563 -1.9889  1.0819
  130OSM   C18S13931   5.568   3.616   4.406 -0.0182 -0.4966 -0.0487
  130OSM   H18S13932   5.523   3.538   4.340 -1.0217 -1.5647  1.8213
  130OSM   H18T13933   5.588   3.580   4.509 -0.0791  0.8033  0.4373
  130OSM   H18U13934   5.668   3.646   4.367  0.0163  2.1469  1.8312
  130OSM    C1F13935   5.145   2.947   3.068  0.5607  0.0409 -0.5745
  130OSM     OF13936   5.209   2.851   3.027  0.0082 -0.1818 -0.4475
  130OSM    C2F13937   5.051   2.949   3.184 -0.1161  0.0401  0.4841
  130OSM    H2F13938   4.945   2.939   3.153 -0.8538 -2.5149  3.3842
  130OSM    H2G13939   5.070   3.040   3.243  0.8938  0.7588 -0.8800
  130OSM    C3F13940   5.072   2.826   3.276  0.2644 -0.2618 -0.5034
  130OSM    H3F13941   5.176   2.794   3.302  0.8926  1.5486 -0.6767
  130OSM    H3G13942   5.024   2.740   3.225 -0.5091 -0.3971  0.4274
  130OSM    C4F13943   4.988   2.845   3.402  0.1472 -0.0318  0.0213
  130OSM    H4F13944   4.970   2.745   3.447 -1.4658  0.7923  1.2798
  130OSM    H4G13945   4.890   2.891   3.380  0.4975  0.7497  0.0389
  130OSM    C5F13946   5.067   2.925   3.504  0.1645 -1.1400  0.0291
  130OSM    H5F13947   5.106   3.012   3.446  1.4609 -2.1945 -0.7355
  130OSM    H5G13948   5.149   2.863   3.546 -1.3936 -2.5290  1.1283
  130OSM    C6F13949   4.971   2.972   3.615 -0.4375 -1.0660  0.1331
  130OSM    H6F13950   4.889   3.026   3.561  1.0668  2.4940  1.1087
  130OSM    H6G13951   5.021   3.036   3.690 -1.5439  0.2050 -0.1651
  130OSM    C7F13952   4.916   2.855   3.699 -0.0815  0.0803  0.5674
  130OSM    H7F13953   5.003   2.800   3.742 -0.0285 -0.1241  0.2022
  130OSM    H7G13954   4.858   2.792   3.629  0.5275 -0.2165  0.3248
  130OSM    C8F13955   4.820   2.895   3.821 -0.5601  0.4531 -0.7974
  130OSM    H8F13956   4.797   2.796   3.865 -0.3408 -0.8051 -3.3309
  130OSM    H8G13957   4.727   2.940   3.780 -0.5591  0.2175 -1.0639
  130OSM    C9F13958   4.874   2.997   3.924 -0.5767  0.1542  0.6594
  130OSM    H9F13959   4.884   3.099   3.884 -1.7191 -0.4010 -1.1992
  130OSM   C10F13960   4.913   2.962   4.043 -0.0629  0.7032  0.4339
  130OSM   H10F13961   4.966   3.040   4.101  1.7931  1.6836 -2.3832
  130OSM   C11F13962   4.885   2.826   4.115 -0.0636  0.0024 -0.2146
  130OSM   H11F13963   4.866   2.741   4.047  0.6444  0.2931 -0.7861
  130OSM   H11G13964   4.803   2.832   4.190  1.2389  0.2167  1.2472
  130OSM   C12F13965   5.011   2.770   4.186 -0.4364 -0.0977 -0.2449
  130OSM   H12F13966   5.083   2.734   4.110  1.8213  1.8237  0.8502
  130OSM   H12G13967   4.977   2.684   4.247  0.9046 -0.1467  0.4728
  130OSM   C13F13968   5.079   2.861   4.286  0.4957 -0.5009  0.2281
  130OSM   H13F13969   5.006   2.884   4.366 -0.1278 -1.0731 -0.1630
  130OSM   H13G13970   5.118   2.954   4.240 -0.8890 -1.0313 -2.1955
  130OSM   C14F13971   5.200   2.798   4.363  0.7258 -0.9709  0.8171
  130OSM   H14F13972   5.174   2.732   4.448  0.5208 -0.6384  1.0146
  130OSM   H14G13973   5.250   2.886   4.409 -0.5902  0.1236  0.2141
  130OSM   C15F13974   5.307   2.738   4.284  0.7297  0.2374  0.2386
  130OSM   H15F13975   5.343   2.806   4.205  3.2093  0.0632  1.1366
  130OSM   H15G13976   5.250   2.656   4.234 -0.3319  1.8382 -1.2912
  130OSM   C16F13977   5.411   2.671   4.367  0.0055  0.3119  0.5766
  130OSM   H16F13978   5.493   2.628   4.305  1.2621  0.8955  1.7763
  130OSM   H16G13979   5.356   2.598   4.429  1.0398 -1.2229 -0.2523
  130OSM   C17F13980   5.489   2.774   4.459 -0.5636  0.1868  0.4850
  130OSM   H17F13981   5.424   2.828   4.531 -0.7698  0.2317  0.2685
  130OSM   H17G13982   5.530   2.861   4.403 -2.3228  1.3938  0.9969
  130OSM   C18F13983   5.598   2.703   4.535 -0.0230  0.2283 -0.2736
  130OSM   H18F13984   5.635   2.771   4.615 -0.7486 -0.7885  0.9628
  130OSM   H18G13985   5.690   2.681   4.476 -0.7562  3.3444 -2.8566
  130OSM   H18H13986   5.562   2.607   4.577 -1.3323  1.0480  0.5450
  131OSM      N13987   5.476   0.491   2.042  0.0529  0.1891  0.5714
  131OSM    C1513988   5.419   0.630   2.019  0.3321  0.3098  0.6145
  131OSM   H15A13989   5.387   0.643   1.917  2.8452  0.6550 -0.1975
  131OSM   H15B13990   5.482   0.715   2.038 -0.1113  0.3555  2.0195
  131OSM   H15C13991   5.326   0.650   2.070  1.3032  0.8790  2.2307
  131OSM    C1413992   5.374   0.390   1.988  0.5732 -0.6998  0.6047
  131OSM   H14A13993   5.397   0.288   2.013 -1.9736 -1.2584  1.0001
  131OSM   H14B13994   5.374   0.398   1.881  1.3042  0.7964  0.6865
  131OSM   H14C13995   5.282   0.404   2.044  0.5020  0.1774  0.2869
  131OSM    C1313996   5.605   0.480   1.963  0.8066 -0.4891  0.6365
  131OSM   H13A13997   5.594   0.519   1.862 -0.6414 -1.0365  0.5581
  131OSM   H13B13998   5.621   0.373   1.960 -0.6174 -0.7951  2.3829
  131OSM   H13C13999   5.677   0.535   2.021  0.4457  1.6068 -0.7510
  131OSM    C1214000   5.496   0.463   2.189  0.4119 -0.4386 -0.4394
  131OSM   H12A14001   5.566   0.536   2.225  0.7438 -0.3584 -1.2265
  131OSM   H12B14002   5.547   0.367   2.193  0.4717 -0.3833  0.2697
  131OSM    C1114003   5.372   0.449   2.279  0.0799  0.1248  0.3830
  131OSM   H11A14004   5.296   0.529   2.266 -0.7618 -0.7107  0.0506
  131OSM   H11B14005   5.404   0.473   2.382 -0.2620  1.4509  0.1967
  131OSM      P14006   5.163   0.284   2.247  0.4745  0.0672 -0.0858
  131OSM    O1314007   5.099   0.399   2.176 -0.2941 -0.2519  0.1728
  131OSM    O1414008   5.142   0.145   2.196  0.6631  0.3571  0.4148
  131OSM    O1114009   5.121   0.287   2.394  0.1601  0.4535  0.0081
  131OSM    O1214010   5.320   0.310   2.264  0.9430  0.3241 -0.3613
  131OSM    C1S14011   5.101   0.409   2.471  0.2900 -0.5813 -0.0576
  131OSM    H1S14012   5.003   0.457   2.448  0.4756 -0.6710 -1.1180
  131OSM    H1T14013   5.175   0.485   2.438 -0.0146 -0.9974 -1.8203
  131OSM     NF14014   5.071   0.485   2.708  0.1605 -0.9897 -0.2226
  131OSM    HNF14015   5.138   0.542   2.755 -0.0916 -2.4525  2.0193
  131OSM    C2S14016   5.120   0.381   2.628  0.2725 -0.1220  0.3569
  131OSM    H2S14017   5.066   0.291   2.665  0.6766  0.2066  1.8017
  131OSM    C3S14018   5.273   0.355   2.657 -0.1067 -0.2216 -0.2338
  131OSM    H3S14019   5.330   0.445   2.624  1.2235  0.3046  3.0678
  131OSM     O314020   5.323   0.242   2.585  0.2593 -0.2702  0.0341
  131OSM    HO314021   5.265   0.242   2.509  1.0099 -1.0110 -0.5662
  131OSM    C4S14022   5.297   0.333   2.801 -0.6203 -0.0368  0.3427
  131OSM    H4S14023   5.337   0.420   2.855 -0.3076  0.8524 -1.2661
  131OSM    C5S14024   5.294   0.219   2.873  0.5381  0.1028 -0.2357
  131OSM    H5S14025   5.255   0.129   2.823  3.2353 -0.0702 -2.2528
  131OSM    C6S14026   5.329   0.188   3.023  0.4650 -0.1351  0.6951
  131OSM    H6S14027   5.432   0.148   3.009  0.7509  1.0027 -0.7044
  131OSM    H6T14028   5.265   0.105   3.058  0.8302 -0.7896 -0.1326
  131OSM    C7S14029   5.332   0.299   3.129  0.1498  0.2059 -0.4478
  131OSM    H7S14030   5.251   0.373   3.111  1.2375  1.2706 -1.2020
  131OSM    H7T14031   5.431   0.350   3.135  0.3220 -0.0725 -0.8795
  131OSM    C8S14032   5.307   0.246   3.266 -0.2365  0.2954  0.5678
  131OSM    H8S14033   5.384   0.167   3.277 -0.1714 -0.1397 -2.1703
  131OSM    H8T14034   5.211   0.191   3.274  0.5240 -1.0888  0.3990
  131OSM    C9S14035   5.306   0.350   3.383 -0.8257  0.1533 -0.4310
  131OSM    H9S14036   5.217   0.415   3.374 -0.0857  0.8923 -4.1025
  131OSM    H9T14037   5.399   0.411   3.378 -1.6048  1.3740 -0.2499
  131OSM   C10S14038   5.287   0.279   3.519 -0.7187  0.8116  0.1624
  131OSM   H10S14039   5.363   0.198   3.516  0.4414  1.6916  2.7870
  131OSM   H10T14040   5.183   0.243   3.533  0.1443 -1.4809  1.0230
  131OSM   C11S14041   5.323   0.372   3.632  0.6296 -0.3025  0.0603
  131OSM   H11S14042   5.256   0.460   3.622 -0.7585 -1.3157  0.0286
  131OSM   H11T14043   5.425   0.414   3.617 -0.0558  1.1360 -0.8099
  131OSM   C12S14044   5.311   0.305   3.773  0.5589  0.3707  0.4111
  131OSM   H12S14045   5.390   0.228   3.774  0.6888  0.5038  0.3130
  131OSM   H12T14046   5.215   0.249   3.779  1.6217 -1.5541  0.0225
  131OSM   C13S14047   5.336   0.398   3.892 -0.3136 -0.1197  0.3765
  131OSM   H13S14048   5.276   0.489   3.874  2.7617  1.9475 -0.1077
  131OSM   H13T14049   5.437   0.432   3.860 -0.9760  2.2589  0.6370
  131OSM   C14S14050   5.334   0.326   4.022 -0.5053 -0.3778 -0.3900
  131OSM   H14S14051   5.419   0.254   4.027  0.7394  1.1389  1.5679
  131OSM   H14T14052   5.250   0.257   4.046  2.7203 -4.2500  1.1132
  131OSM   C15S14053   5.339   0.433   4.136 -0.5939 -0.1699 -0.2659
  131OSM   H15S14054   5.265   0.516   4.144  2.0373  2.1163  3.1144
  131OSM   H15T14055   5.438   0.478   4.115 -0.1211 -1.7221 -1.5711
  131OSM   C16S14056   5.339   0.370   4.284 -0.0596 -0.1650  0.4323
  131OSM   H16S14057   5.420   0.295   4.277  1.2765  1.2930 -0.5895
  131OSM   H16T14058   5.236   0.334   4.303 -0.3529  0.2186 -0.3724
  131OSM   C17S14059   5.385   0.471   4.384  0.1220 -0.1768 -0.2188
  131OSM   H17S14060   5.458   0.534   4.328  0.4018 -2.2271 -2.3144
  131OSM   H17T14061   5.446   0.423   4.463 -1.5607 -2.6663 -0.3271
  131OSM   C18S14062   5.274   0.554   4.451  0.0780  0.2965 -0.2080
  131OSM   H18S14063   5.196   0.487   4.491  1.2210 -1.0825 -0.1971
  131OSM   H18T14064   5.237   0.621   4.370  0.1975  0.1303 -0.4025
  131OSM   H18U14065   5.320   0.610   4.535  2.0651  1.2154 -1.8251
  131OSM    C1F14066   4.950   0.538   2.698 -0.2583  0.5637 -0.0130
  131OSM     OF14067   4.863   0.477   2.635 -0.0179 -0.2801  0.3983
  131OSM    C2F14068   4.916   0.665   2.764  0.6189 -0.3625 -0.1952
  131OSM    H2F14069   4.862   0.733   2.696 -1.1847  0.6873  2.1500
  131OSM    H2G14070   5.004   0.724   2.796 -0.0975  0.4807  0.2457
  131OSM    C3F14071   4.814   0.638   2.880 -0.9449 -0.0151  0.0242
  131OSM    H3F14072   4.721   0.601   2.831 -0.8045 -2.8623  1.7298
  131OSM    H3G14073   4.777   0.733   2.924 -0.2810  1.4445 -2.3508
  131OSM    C4F14074   4.871   0.543   2.979 -0.6012  0.0061  0.0686
  131OSM    H4F14075   4.899   0.443   2.941 -0.3134 -0.1224  0.6135
  131OSM    H4G14076   4.789   0.532   3.053 -0.0892 -2.6004  0.3218
  131OSM    C5F14077   4.983   0.598   3.066  0.1914  0.4225 -0.0500
  131OSM    H5F14078   4.979   0.707   3.046 -0.8704  0.3133 -0.5032
  131OSM    H5G14079   5.076   0.550   3.030  0.6051  1.2197 -0.0802
  131OSM    C6F14080   4.973   0.564   3.212  0.0154 -0.8438  0.0050
  131OSM    H6F14081   5.066   0.597   3.262 -1.1938  0.9961  1.1280
  131OSM    H6G14082   4.974   0.453   3.217 -0.5449 -0.9010 -0.8902
  131OSM    C7F14083   4.876   0.633   3.303  0.5071  0.2340  0.3532
  131OSM    H7F14084   4.775   0.614   3.263 -0.9077  0.1685  3.6156
  131OSM    H7G14085   4.890   0.744   3.303  0.9649  0.2101  2.2326
  131OSM    C8F14086   4.877   0.570   3.440 -0.2085 -0.1538  0.4013
  131OSM    H8F14087   4.880   0.460   3.426  1.3080 -0.1693  0.7477
  131OSM    H8G14088   4.781   0.592   3.492 -0.6170 -0.5318 -0.1858
  131OSM    C9F14089   4.995   0.626   3.522 -0.2777 -0.0984 -0.5116
  131OSM    H9F14090   5.086   0.650   3.466 -1.1218  0.7182 -1.5629
  131OSM   C10F14091   5.006   0.648   3.658  0.5901  0.1931 -0.5492
  131OSM   H10F14092   5.096   0.701   3.693  0.0745 -0.2480  1.6035
  131OSM   C11F14093   4.900   0.607   3.758 -0.0703  0.3838 -0.8328
  131OSM   H11F14094   4.835   0.526   3.719 -0.7800  0.2521  0.5552
  131OSM   H11G14095   4.851   0.704   3.784 -1.3756 -0.0868 -1.4227
  131OSM   C12F14096   4.972   0.569   3.892 -0.1692 -0.5466  0.0583
  131OSM   H12F14097   5.042   0.651   3.919 -0.6986  0.0233 -0.2955
  131OSM   H12G14098   5.026   0.473   3.879 -2.5065 -1.8597 -0.5019
  131OSM   C13F14099   4.884   0.535   4.009  0.2038 -0.3207 -0.5281
  131OSM   H13F14100   4.821   0.451   3.970  1.1286 -1.3207  0.0735
  131OSM   H13G14101   4.803   0.607   4.034 -0.9334 -2.1398  1.4635
  131OSM   C14F14102   4.960   0.524   4.144 -0.3247  0.0332  0.3731
  131OSM   H14F14103   5.020   0.614   4.170  0.5100 -0.4595  0.1922
  131OSM   H14G14104   5.035   0.444   4.125 -0.1644  0.6986 -2.1256
  131OSM   C15F14105   4.868   0.482   4.251 -0.0619 -0.2905 -0.2457
  131OSM   H15F14106   4.799   0.405   4.210 -2.0696  1.4389 -0.3463
  131OSM   H15G14107   4.806   0.569   4.282 -1.4484 -0.9120 -1.1626
  131OSM   C16F14108   4.935   0.425   4.383  0.3547  0.4384 -0.6147
  131OSM   H16F14109   4.978   0.517   4.429 -0.0540  1.4503 -2.1942
  131OSM   H16G14110   5.012   0.352   4.351 -2.6100 -2.3113 -2.0534
  131OSM   C17F14111   4.839   0.339   4.471  0.1739  0.0254  0.2602
  131OSM   H17F14112   4.811   0.254   4.405  0.8721 -0.2489  0.3132
  131OSM   H17G14113   4.747   0.394   4.500  1.2391  2.1923 -0.2432
  131OSM   C18F14114   4.919   0.298   4.596 -0.9102 -0.1580 -0.5601
  131OSM   H18F14115   5.026   0.283   4.570 -0.7073  0.6689 -0.2087
  131OSM   H18G14116   4.889   0.206   4.652  2.8998 -1.6141 -0.6063
  131OSM   H18H14117   4.911   0.383   4.667  0.2232  0.3194 -0.9865
  132OSM      N14118   2.863   0.867   1.869  0.6222  0.0069 -0.5305
  132OSM    C1514119   2.761   0.784   1.795  0.0548  0.3325  0.3784
  132OSM   H15A14120   2.807   0.686   1.792 -2.7293 -1.0542 -0.7145
  132OSM   H15B14121   2.741   0.817   1.694  1.3669  0.5161  0.1530
  132OSM   H15C14122   2.663   0.780   1.840 -0.0160 -1.3635  0.1682
  132OSM    C1414123   2.982   0.900   1.786  0.7664  0.2980 -0.3890
  132OSM   H14A14124   3.033   0.811   1.752 -2.0879 -0.9420 -1.7436
  132OSM   H14B14125   3.046   0.971   1.834 -0.4784  0.6283  0.8455
  132OSM   H14C14126   2.947   0.949   1.696 -0.5282  0.6409  0.2736
  132OSM    C1314127   2.795   1.001   1.908 -0.7519  0.4684  0.5870
  132OSM   H13A14128   2.791   1.074   1.828  0.3032  1.1007  1.0915
  132OSM   H13B14129   2.869   1.040   1.976 -0.6809  3.3748 -0.9767
  132OSM   H13C14130   2.708   0.996   1.972 -0.1057 -0.5803  1.4197
  132OSM    C1214131   2.911   0.801   2.001  0.1341  0.3118 -0.2314
  132OSM   H12A14132   2.975   0.722   1.965  0.8521 -0.5290  2.6283
  132OSM   H12B14133   2.822   0.758   2.045  0.4453  1.6223  1.8179
  132OSM    C1114134   2.983   0.881   2.115  0.2948  0.3407  0.1659
  132OSM   H11A14135   3.002   0.809   2.198  2.2452  0.4998 -0.0973
  132OSM   H11B14136   2.901   0.947   2.152 -0.6255 -0.6558 -0.0174
  132OSM      P14137   3.235   0.863   2.068  0.5549  0.0496  0.0325
  132OSM    O1314138   3.224   0.782   1.947 -0.0898  0.5530 -0.3763
  132OSM    O1414139   3.350   0.955   2.076 -0.1848 -0.5003  0.1293
  132OSM    O1114140   3.229   0.769   2.189  0.3594  0.1217 -0.0459
  132OSM    O1214141   3.101   0.951   2.075 -0.5014 -0.0154 -0.1741
  132OSM    C1S14142   3.232   0.831   2.319 -0.0997 -1.1825 -0.2299
  132OSM    H1S14143   3.199   0.937   2.318 -0.6001 -1.3274  0.3759
  132OSM    H1T14144   3.337   0.830   2.356  0.7958 -0.7849 -2.5486
  132OSM     NF14145   3.128   0.827   2.542  0.3085 -0.0332 -0.2374
  132OSM    HNF14146   3.190   0.803   2.616 -0.5015  0.7728  0.7229
  132OSM    C2S14147   3.142   0.750   2.422  0.2099  0.5607 -0.1062
  132OSM    H2S14148   3.038   0.732   2.388 -0.8777 -2.1150  3.8809
  132OSM    C3S14149   3.200   0.612   2.440  0.4599 -0.1404 -0.2782
  132OSM    H3S14150   3.310   0.617   2.450  0.4724  2.5355 -0.8848
  132OSM     O314151   3.177   0.535   2.324  0.2654 -0.1294  0.1294
  132OSM    HO314152   3.161   0.597   2.253  1.4213 -0.5981 -0.5806
  132OSM    C4S14153   3.128   0.554   2.566 -0.0744 -0.0497 -0.0429
  132OSM    H4S14154   3.020   0.579   2.565  0.2302  1.3702 -1.7572
  132OSM    C5S14155   3.188   0.496   2.671 -0.1987 -0.2602 -0.3397
  132OSM    H5S14156   3.297   0.490   2.665 -0.0977 -0.2718  1.2475
  132OSM    C6S14157   3.111   0.441   2.796  0.0257 -0.5091  0.6005
  132OSM    H6S14158   3.169   0.474   2.884  0.7162  0.3841 -0.1750
  132OSM    H6T14159   3.112   0.330   2.801  1.7627 -0.6949 -1.7846
  132OSM    C7S14160   2.972   0.498   2.812 -0.9482  0.2446 -0.1777
  132OSM    H7S14161   2.899   0.461   2.738 -2.1568  0.2520  0.9785
  132OSM    H7T14162   2.984   0.608   2.805 -2.6743  0.3693 -1.8524
  132OSM    C8S14163   2.911   0.454   2.946  0.1406  0.0635 -0.9359
  132OSM    H8S14164   2.916   0.344   2.935  0.0023  0.2639 -3.9271
  132OSM    H8T14165   2.805   0.489   2.950  0.1573  0.1690 -1.3397
  132OSM    C9S14166   2.990   0.495   3.066 -0.2243 -0.3211 -0.5450
  132OSM    H9S14167   3.006   0.605   3.072  0.3761 -0.4840  1.3057
  132OSM    H9T14168   3.094   0.458   3.064 -0.3079 -0.5847 -0.0328
  132OSM   C10S14169   2.922   0.462   3.200 -0.2371 -0.1564 -0.9991
  132OSM   H10S14170   2.894   0.354   3.203  1.3716 -0.6467 -2.1830
  132OSM   H10T14171   2.830   0.519   3.223  0.9377  0.7938  1.7132
  132OSM   C11S14172   3.018   0.494   3.312 -0.4445 -0.6696  0.2513
  132OSM   H11S14173   3.030   0.604   3.299 -0.3927 -0.8469 -1.5821
  132OSM   H11T14174   3.106   0.427   3.308  0.2160  0.1082  1.3148
  132OSM   C12S14175   2.939   0.484   3.445 -0.7904 -0.4167 -0.9055
  132OSM   H12S14176   2.901   0.381   3.460  0.8376 -0.7559  1.3425
  132OSM   H12T14177   2.855   0.555   3.437 -0.4526  0.0654 -0.2260
  132OSM   C13S14178   3.023   0.510   3.571  0.6658  0.0753  0.6457
  132OSM   H13S14179   3.064   0.612   3.581  2.0977 -0.2874 -1.0740
  132OSM   H13T14180   3.096   0.431   3.599 -0.4822 -0.8447  1.1815
  132OSM   C14S14181   2.923   0.522   3.691 -0.0893  0.4008 -0.0650
  132OSM   H14S14182   2.875   0.421   3.695  2.0625 -0.7625 -1.6179
  132OSM   H14T14183   2.852   0.605   3.668 -1.8287 -1.1256 -0.5046
  132OSM   C15S14184   2.997   0.549   3.820  0.7490 -0.5375  0.2042
  132OSM   H15S14185   3.039   0.652   3.817 -1.9936  0.6400  0.1261
  132OSM   H15T14186   3.078   0.473   3.826  1.6235  0.3505  0.0054
  132OSM   C16S14187   2.912   0.538   3.948  1.0559  0.3845 -0.5821
  132OSM   H16S14188   2.876   0.432   3.953 -0.6252  0.8907 -1.1325
  132OSM   H16T14189   2.819   0.599   3.946 -0.3735 -1.6103  0.2423
  132OSM   C17S14190   2.983   0.577   4.079 -0.0037  0.4095 -0.4810
  132OSM   H17S14191   3.032   0.674   4.057 -0.2586  0.5535 -0.4204
  132OSM   H17T14192   3.067   0.505   4.089 -0.1182  0.5453  2.5169
  132OSM   C18S14193   2.910   0.573   4.211 -0.0694  0.6838  0.7013
  132OSM   H18S14194   2.848   0.663   4.227  0.7366  1.0183  2.1941
  132OSM   H18T14195   2.985   0.572   4.293  0.3948 -3.3948  0.4691
  132OSM   H18U14196   2.854   0.478   4.227  1.7620 -0.4163  0.9795
  132OSM    C1F14197   3.054   0.942   2.558 -0.4096  0.5429 -0.2876
  132OSM     OF14198   2.993   0.995   2.467  0.3775 -0.2068 -0.1080
  132OSM    C2F14199   3.057   1.007   2.688 -0.5926  0.0041  0.3015
  132OSM    H2F14200   2.959   1.059   2.703  0.3474  1.4958  1.7336
  132OSM    H2G14201   3.131   1.090   2.690  2.2679 -2.3659 -1.0175
  132OSM    C3F14202   3.091   0.912   2.806 -0.6328  1.0533 -0.7506
  132OSM    H3F14203   3.193   0.873   2.787 -1.6115 -3.3655  1.6864
  132OSM    H3G14204   3.015   0.832   2.820  0.4744  0.3163  1.3429
  132OSM    C4F14205   3.101   0.981   2.942  0.5590  0.3448 -0.2586
  132OSM    H4F14206   3.003   1.029   2.959  0.2468 -0.3630 -0.0229
  132OSM    H4G14207   3.167   1.070   2.931  0.2369  0.6154 -0.0104
  132OSM    C5F14208   3.153   0.888   3.056 -0.1129 -0.3982 -0.3630
  132OSM    H5F14209   3.250   0.838   3.036  0.0875 -1.1652  2.2239
  132OSM    H5G14210   3.083   0.802   3.060  0.3471 -0.7510  0.3000
  132OSM    C6F14211   3.162   0.970   3.188 -0.2196 -0.2748 -0.0692
  132OSM    H6F14212   3.071   1.026   3.217 -0.4310  0.4568 -2.0007
  132OSM    H6G14213   3.242   1.046   3.179  0.0106 -0.4752  0.2757
  132OSM    C7F14214   3.207   0.879   3.301 -0.6751 -0.9236 -0.6774
  132OSM    H7F14215   3.294   0.818   3.270  0.1558 -1.0058  1.5821
  132OSM    H7G14216   3.125   0.813   3.335 -1.1674  0.8348  1.8573
  132OSM    C8F14217   3.255   0.958   3.429  0.4297  0.4905 -0.2079
  132OSM    H8F14218   3.161   1.009   3.460  0.9018 -0.0658  2.3909
  132OSM    H8G14219   3.322   1.041   3.396 -2.9437  3.0004 -1.3788
  132OSM    C9F14220   3.304   0.873   3.545  0.4920  0.0023  0.0390
  132OSM    H9F14221   3.380   0.793   3.539 -0.3892 -0.8284 -0.5062
  132OSM   C10F14222   3.248   0.880   3.669 -0.5937  0.3158 -0.3425
  132OSM   H10F14223   3.299   0.829   3.753 -1.1874  0.4179  0.0829
  132OSM   C11F14224   3.133   0.965   3.724  0.4843  0.6704 -0.6586
  132OSM   H11F14225   3.062   0.899   3.779  0.4264  0.2491 -1.2224
  132OSM   H11G14226   3.085   1.026   3.645  0.5541 -0.0741 -1.2904
  132OSM   C12F14227   3.183   1.077   3.822 -0.6666  0.1750 -0.8560
  132OSM   H12F14228   3.121   1.170   3.819  3.0262  2.9906  0.8452
  132OSM   H12G14229   3.280   1.115   3.784 -0.5874  0.0684 -0.7582
  132OSM   C13F14230   3.206   1.029   3.963  0.1405  0.2522  0.3366
  132OSM   H13F14231   3.258   1.113   4.013  1.8978 -0.2821 -0.5145
  132OSM   H13G14232   3.285   0.951   3.957  1.2192  1.4457 -2.3329
  132OSM   C14F14233   3.082   0.994   4.043 -0.2913  0.0864  0.2685
  132OSM   H14F14234   3.033   0.903   4.002 -0.0509  1.3417 -3.0194
  132OSM   H14G14235   3.014   1.082   4.039 -0.4455 -0.0944 -2.0648
  132OSM   C15F14236   3.129   0.970   4.187  0.0938  0.7631 -0.3812
  132OSM   H15F14237   3.144   1.075   4.220  0.9862  0.9465 -1.3226
  132OSM   H15G14238   3.229   0.923   4.192  0.2329  1.1670  1.4334
  132OSM   C16F14239   3.028   0.898   4.288 -0.7871 -0.5667  0.2320
  132OSM   H16F14240   3.038   0.791   4.261  1.8297 -0.4543  0.4315
  132OSM   H16G14241   2.932   0.934   4.245 -0.0764  0.6602 -0.4143
  132OSM   C17F14242   3.062   0.922   4.435 -0.1227 -0.2199 -0.4046
  132OSM   H17F14243   3.082   1.030   4.453 -1.1352  0.0690 -0.9189
  132OSM   H17G14244   3.141   0.851   4.468 -0.4963 -1.2909 -1.7535
  132OSM   C18F14245   2.941   0.881   4.514 -0.4488 -0.1137 -0.2261
  132OSM   H18F14246   2.951   0.931   4.612 -0.6676 -0.3609 -0.0763
  132OSM   H18G14247   2.937   0.773   4.541 -1.9625  0.2080  0.9192
  132OSM   H18H14248   2.854   0.914   4.453  0.0623  1.5167 -0.1178
  133OSM      N14249   1.610   2.058   2.112 -0.1964  0.2606 -0.0176
  133OSM    C1514250   1.475   2.022   2.052  0.2839 -0.1112  0.2171
  133OSM   H15A14251   1.472   2.023   1.944 -2.1053 -1.5116  0.2000
  133OSM   H15B14252   1.395   2.088   2.083 -0.9100 -1.1040 -0.6198
  133OSM   H15C14253   1.447   1.923   2.083  2.0768 -0.1273  2.0084
  133OSM    C1414254   1.639   2.198   2.069 -0.4837  0.2870 -0.3988
  133OSM   H14A14255   1.573   2.274   2.107 -0.0461  0.7313 -0.5148
  133OSM   H14B14256   1.662   2.210   1.964  0.4685  0.7379 -0.1526
  133OSM   H14C14257   1.728   2.234   2.118 -1.3570 -0.7840  2.1583
  133OSM    C1314258   1.602   2.052   2.260 -0.3252  0.3757 -0.2880
  133OSM   H13A14259   1.502   2.084   2.283 -0.3756 -0.1860  0.3008
  133OSM   H13B14260   1.673   2.112   2.315 -0.9541 -2.0762  3.5754
  133OSM   H13C14261   1.616   1.951   2.297  0.7894  0.8980  0.7806
  133OSM    C1214262   1.721   1.968   2.068  0.3234  0.0303  0.2181
  133OSM   H12A14263   1.815   2.010   2.099 -0.5157  0.4342  2.4172
  133OSM   H12B14264   1.719   1.970   1.960 -1.9371 -0.0183  0.2162
  133OSM    C1114265   1.716   1.820   2.115 -0.4119 -0.5357 -1.5738
  133OSM   H11A14266   1.713   1.797   2.224 -2.5322 -1.8757 -1.8572
  133OSM   H11B14267   1.809   1.765   2.089 -0.0163 -1.3523  1.2358
  133OSM      P14268   1.507   1.672   2.101 -0.1852  0.2362  0.0093
  133OSM    O1314269   1.385   1.756   2.100  0.6393  0.0262 -0.0288
  133OSM    O1414270   1.502   1.537   2.031 -0.8136 -0.3516  0.1313
  133OSM    O1114271   1.540   1.633   2.257  0.1175  0.1692  0.3912
  133OSM    O1214272   1.616   1.765   2.037  0.3933 -0.0818 -0.2695
  133OSM    C1S14273   1.430   1.563   2.320  0.1040 -0.1064 -0.1129
  133OSM    H1S14274   1.418   1.462   2.276 -2.1912  0.0410  0.0711
  133OSM    H1T14275   1.335   1.619   2.307 -0.5512  0.4163  5.0155
  133OSM     NF14276   1.357   1.472   2.534 -0.2875  0.9086 -0.1047
  133OSM    HNF14277   1.277   1.508   2.581 -0.0326  0.0859  1.0230
  133OSM    C2S14278   1.451   1.558   2.469  0.2796  0.5188 -0.4708
  133OSM    H2S14279   1.547   1.506   2.491 -0.6740 -0.7038  0.9839
  133OSM    C3S14280   1.465   1.703   2.519 -0.7611 -0.5699  0.4288
  133OSM    H3S14281   1.366   1.751   2.505 -1.7074 -1.7566  2.6450
  133OSM     O314282   1.555   1.795   2.448  0.2329 -0.8151 -0.6131
  133OSM    HO314283   1.560   1.731   2.376 -0.4272 -2.0833  0.4381
  133OSM    C4S14284   1.492   1.725   2.667 -0.2681 -0.0165  1.0322
  133OSM    H4S14285   1.403   1.762   2.720 -2.0579 -0.5819 -1.4274
  133OSM    C5S14286   1.607   1.699   2.739  0.0916 -0.3349  0.1189
  133OSM    H5S14287   1.699   1.697   2.679 -0.8400  1.0057 -1.4310
  133OSM    C6S14288   1.640   1.740   2.884  0.8712  0.7751 -0.4266
  133OSM    H6S14289   1.561   1.811   2.917 -0.8847 -1.7650  1.1778
  133OSM    H6T14290   1.732   1.798   2.909 -0.9072  2.3743  3.0786
  133OSM    C7S14291   1.643   1.609   2.975  0.0037  0.1347  0.5844
  133OSM    H7S14292   1.743   1.569   2.950  0.6706  1.7163  0.5946
  133OSM    H7T14293   1.567   1.538   2.937  0.6751  0.6419 -1.8817
  133OSM    C8S14294   1.615   1.649   3.121 -0.0423  0.2441  0.6698
  133OSM    H8S14295   1.520   1.705   3.132  0.1317  0.1990  2.7369
  133OSM    H8T14296   1.694   1.721   3.148  1.5731 -1.0889 -0.3077
  133OSM    C9S14297   1.629   1.519   3.202 -0.2451 -0.6767 -0.3639
  133OSM    H9S14298   1.718   1.461   3.170  1.4075  1.1969  0.6538
  133OSM    H9T14299   1.540   1.453   3.191 -0.0950 -1.1076  0.8136
  133OSM   C10S14300   1.652   1.554   3.348  0.2535 -0.4855 -0.3979
  133OSM   H10S14301   1.576   1.623   3.388  0.1064 -1.9568  2.0757
  133OSM   H10T14302   1.750   1.606   3.359 -0.4233  0.6192  0.7057
  133OSM   C11S14303   1.655   1.424   3.441 -0.2902 -0.1704  0.5265
  133OSM   H11S14304   1.717   1.342   3.399 -1.1984 -0.8223  0.4290
  133OSM   H11T14305   1.554   1.376   3.438  0.3025 -1.4339  0.2018
  133OSM   C12S14306   1.700   1.454   3.582 -0.0132  1.1369  0.1693
  133OSM   H12S14307   1.632   1.531   3.624 -0.9207  0.6097 -0.3182
  133OSM   H12T14308   1.803   1.497   3.579 -0.0109  1.2523  1.3092
  133OSM   C13S14309   1.706   1.339   3.681  0.1771 -0.2219  0.5018
  133OSM   H13S14310   1.774   1.364   3.765  2.9497  3.0081 -2.3720
  133OSM   H13T14311   1.752   1.250   3.632  2.7051  0.2853  1.7499
  133OSM   C14S14312   1.562   1.299   3.731  0.6994  0.6096 -0.1420
  133OSM   H14S14313   1.490   1.305   3.646 -0.0020 -1.9156  0.1896
  133OSM   H14T14314   1.538   1.389   3.791  0.9854  1.3873 -1.1626
  133OSM   C15S14315   1.547   1.168   3.808  0.3997 -0.2112  0.0225
  133OSM   H15S14316   1.576   1.076   3.752  2.0921  1.1129 -1.3831
  133OSM   H15T14317   1.440   1.152   3.835 -0.3945  2.6895 -1.1158
  133OSM   C16S14318   1.619   1.167   3.946  0.5748 -0.3403  0.2903
  133OSM   H16S14319   1.729   1.172   3.934  0.9676 -1.1154  2.9755
  133OSM   H16T14320   1.608   1.073   4.005 -4.2507  0.0007  0.3574
  133OSM   C17S14321   1.590   1.280   4.040  0.2859  0.0677  0.3710
  133OSM   H17S14322   1.479   1.281   4.049  0.3469  0.7200  1.2287
  133OSM   H17T14323   1.635   1.365   3.984  3.0327 -1.2762  0.3932
  133OSM   C18S14324   1.651   1.278   4.181  0.3572 -0.3083  0.6131
  133OSM   H18S14325   1.618   1.375   4.225 -2.6134 -0.4124 -1.1004
  133OSM   H18T14326   1.760   1.264   4.190  0.5619  1.1420  0.7259
  133OSM   H18U14327   1.596   1.195   4.231 -2.1209  1.8451  1.7740
  133OSM    C1F14328   1.352   1.345   2.513  0.9178 -0.3208 -0.3157
  133OSM     OF14329   1.419   1.286   2.426 -0.1791 -0.2564 -0.0312
  133OSM    C2F14330   1.241   1.273   2.591  0.0254  0.7402 -0.0010
  133OSM    H2F14331   1.138   1.312   2.572  0.0867  0.2326 -1.4891
  133OSM    H2G14332   1.270   1.297   2.695 -1.0161  1.2500  0.1859
  133OSM    C3F14333   1.240   1.115   2.580  0.1612 -0.1039 -0.2677
  133OSM    H3F14334   1.332   1.068   2.622  0.7555  1.2666  0.0171
  133OSM    H3G14335   1.228   1.070   2.479 -2.4386 -0.8370  0.2984
  133OSM    C4F14336   1.116   1.063   2.653  0.5582  0.1737 -0.6728
  133OSM    H4F14337   1.117   0.952   2.643 -1.8106  0.0306  0.1874
  133OSM    H4G14338   1.023   1.096   2.602 -0.1927  1.1409  1.2568
  133OSM    C5F14339   1.106   1.099   2.798  0.4216 -0.1966 -0.6294
  133OSM    H5F14340   1.156   1.194   2.829 -0.2579 -0.0560  0.0568
  133OSM    H5G14341   1.170   1.018   2.838 -0.2399 -0.6625 -0.5012
  133OSM    C6F14342   0.968   1.089   2.868 -0.0460  0.5257  0.1353
  133OSM    H6F14343   0.924   0.989   2.846  0.7743 -0.3529  2.2323
  133OSM    H6G14344   0.901   1.163   2.821 -1.9822 -0.8880  0.5512
  133OSM    C7F14345   0.971   1.129   3.017 -0.0048  0.2390  0.0342
  133OSM    H7F14346   0.873   1.161   3.056 -0.9266 -0.7970 -1.3278
  133OSM    H7G14347   1.021   1.228   3.013 -0.9932  0.8928  2.5699
  133OSM    C8F14348   1.034   1.035   3.106  0.1227 -0.3328 -0.3826
  133OSM    H8F14349   1.065   1.093   3.196 -1.1697  0.4252 -0.4071
  133OSM    H8G14350   1.131   1.010   3.059  2.2676  3.5462  1.4639
  133OSM    C9F14351   0.941   0.922   3.149  0.2203  0.1947  0.0169
  133OSM    H9F14352   0.879   0.880   3.068  1.8054 -3.6592  0.6172
  133OSM   C10F14353   0.922   0.882   3.280 -0.1248  0.0658 -0.2958
  133OSM   H10F14354   0.857   0.797   3.301  3.6286 -2.8171  0.7024
  133OSM   C11F14355   1.004   0.932   3.397  0.4760  0.2273 -0.1410
  133OSM   H11F14356   0.973   1.036   3.423 -0.6326  0.6858 -2.9250
  133OSM   H11G14357   1.111   0.944   3.367  0.8628 -1.5681  0.4089
  133OSM   C12F14358   0.998   0.834   3.516 -0.4164  0.3567 -0.3708
  133OSM   H12F14359   0.892   0.823   3.548 -0.3810 -3.9429 -1.1924
  133OSM   H12G14360   1.053   0.872   3.605  0.8049 -2.9414  0.4047
  133OSM   C13F14361   1.043   0.690   3.482 -1.1694  0.3270  0.2555
  133OSM   H13F14362   1.152   0.711   3.487 -1.4053  2.1638 -1.1908
  133OSM   H13G14363   1.031   0.659   3.376 -0.5656 -2.4677  0.9009
  133OSM   C14F14364   1.002   0.578   3.579 -0.0549  0.1953  0.3406
  133OSM   H14F14365   0.899   0.548   3.549 -0.6090  1.9038  0.3896
  133OSM   H14G14366   0.996   0.624   3.680 -1.8851 -1.0080  0.8283
  133OSM   C15F14367   1.086   0.449   3.576  0.4170  0.0099  0.1890
  133OSM   H15F14368   1.189   0.488   3.595  0.0602  0.7121  0.7043
  133OSM   H15G14369   1.084   0.391   3.482  0.5548  0.2411  0.0429
  133OSM   C16F14370   1.052   0.345   3.683 -0.1484  0.2251 -0.1803
  133OSM   H16F14371   1.134   0.271   3.691  1.6886  2.2362  0.7708
  133OSM   H16G14372   0.957   0.289   3.668  1.3586 -1.6739 -4.1382
  133OSM   C17F14373   1.053   0.397   3.825  0.0835 -0.0010 -0.2748
  133OSM   H17F14374   0.995   0.492   3.831  0.7714  0.4534 -0.6313
  133OSM   H17G14375   1.156   0.431   3.849 -0.4577  0.5192  1.5160
  133OSM   C18F14376   1.010   0.295   3.928 -0.4351  0.4318  0.0193
  133OSM   H18F14377   1.003   0.338   4.030  0.5281 -1.3387  0.9021
  133OSM   H18G14378   1.095   0.226   3.949  0.8801  2.2954  1.1153
  133OSM   H18H14379   0.915   0.245   3.899 -0.2223 -0.8857  1.4569
  134OSM      N14380   1.911   3.968   1.859 -0.1795  0.1581 -1.1779
  134OSM    C1514381   1.859   3.839   1.814 -0.5624  0.6438  0.4173
  134OSM   H15A14382   1.926   3.755   1.828  1.0322  1.6355 -0.8592
  134OSM   H15B14383   1.854   3.846   1.707 -0.4183  2.8441  0.5124
  134OSM   H15C14384   1.764   3.810   1.856 -0.9159 -1.4235 -1.6185
  134OSM    C1414385   2.045   3.996   1.798  0.2702  0.0367  0.7457
  134OSM   H14A14386   2.122   3.920   1.797 -0.0594 -0.3117 -0.5792
  134OSM   H14B14387   2.079   4.087   1.845  0.9994  0.3332 -0.3188
  134OSM   H14C14388   2.033   4.020   1.693 -0.5774 -0.7878  0.6422
  134OSM    C1314389   1.816   4.076   1.824  0.7173 -0.9896  0.1706
  134OSM   H13A14390   1.848   4.169   1.869  3.1341 -0.4723 -2.3717
  134OSM   H13B14391   1.716   4.063   1.863  0.0966  1.3637 -0.4952
  134OSM   H13C14392   1.813   4.107   1.721 -1.0074 -1.8304 -0.0727
  134OSM    C1214393   1.921   3.953   2.009  0.8489  0.2046 -0.2944
  134OSM   H12A14394   1.996   3.876   2.025  1.0838 -0.1004 -2.5407
  134OSM   H12B14395   1.828   3.912   2.044  0.2868 -0.2257 -2.1652
  134OSM    C1114396   1.967   4.074   2.098  0.6537 -0.6921  0.6404
  134OSM   H11A14397   1.979   4.048   2.206 -1.0112  0.2949  1.1017
  134OSM   H11B14398   1.899   4.162   2.095  1.2527 -0.2066  1.0322
  134OSM      P14399   2.220   4.052   2.099 -0.1386 -0.2975 -0.1561
  134OSM    O1314400   2.197   3.908   2.098  0.3687 -0.4100  0.0754
  134OSM    O1414401   2.327   4.106   2.017 -0.2312  0.0044  0.2488
  134OSM    O1114402   2.241   4.097   2.249 -0.3784  0.1126 -0.2172
  134OSM    O1214403   2.093   4.124   2.053  0.7265 -0.5911 -0.1106
  134OSM    C1S14404   2.229   4.238   2.286 -0.2693  0.3974  0.7395
  134OSM    H1S14405   2.134   4.289   2.260  0.0167  0.6755  0.2314
  134OSM    H1T14406   2.317   4.293   2.247 -1.3436  0.2657 -2.0782
  134OSM     NF14407   2.191   4.354   2.508  0.1799  0.8931 -0.3155
  134OSM    HNF14408   2.250   4.413   2.563 -0.3739  1.3574 -0.2065
  134OSM    C2S14409   2.248   4.239   2.440 -0.1635 -0.8931  0.5276
  134OSM    H2S14410   2.182   4.157   2.474  0.1029 -1.8596 -1.1633
  134OSM    C3S14411   2.399   4.210   2.482  0.4122  0.3755 -0.4546
  134OSM    H3S14412   2.461   4.295   2.447  1.0702 -0.3024 -0.9703
  134OSM     O314413   2.452   4.106   2.405 -0.5299 -0.4280  0.0560
  134OSM    HO314414   2.397   4.110   2.326  1.1149  0.9711 -1.0784
  134OSM    C4S14415   2.414   4.187   2.634 -0.1488  0.0211  0.1600
  134OSM    H4S14416   2.446   4.280   2.683  2.7568  0.1125 -1.6788
  134OSM    C5S14417   2.415   4.068   2.705  0.1627  0.2505  0.5137
  134OSM    H5S14418   2.401   3.976   2.646  1.0592  0.4699 -0.0644
  134OSM    C6S14419   2.427   4.051   2.852 -0.2618  0.7776 -0.7117
  134OSM    H6S14420   2.509   3.982   2.881 -2.2930 -0.6251  2.1726
  134OSM    H6T14421   2.339   3.999   2.893 -0.0903  2.3381  1.8634
  134OSM    C7S14422   2.442   4.176   2.938  0.1884 -0.7940 -0.1712
  134OSM    H7S14423   2.367   4.253   2.910 -0.3670 -0.2273  2.5566
  134OSM    H7T14424   2.540   4.225   2.922 -0.5882 -0.0907 -3.4504
  134OSM    C8S14425   2.425   4.151   3.089 -0.3645  0.4200  0.1351
  134OSM    H8S14426   2.342   4.079   3.106 -0.7296  0.4690 -1.3223
  134OSM    H8T14427   2.406   4.238   3.156  4.6914  0.7548  1.5981
  134OSM    C9S14428   2.546   4.081   3.152  0.0236 -0.0985  0.6169
  134OSM    H9S14429   2.636   4.144   3.155  0.5261 -0.6074 -1.8237
  134OSM    H9T14430   2.578   3.995   3.088  0.0656 -1.1447  1.9919
  134OSM   C10S14431   2.511   4.008   3.284  1.3434 -0.2922 -0.3173
  134OSM   H10S14432   2.602   3.953   3.315  0.0340 -1.3235  1.9117
  134OSM   H10T14433   2.423   3.941   3.274  0.0777  1.5329 -2.3838
  134OSM   C11S14434   2.478   4.109   3.405  0.7291 -0.4179 -0.3622
  134OSM   H11S14435   2.376   4.148   3.386  0.3242 -0.9199  0.6972
  134OSM   H11T14436   2.566   4.177   3.402  0.4490  0.4140  3.9608
  134OSM   C12S14437   2.483   4.059   3.544  0.0003  0.0278  0.1967
  134OSM   H12S14438   2.580   4.012   3.572 -0.0792  0.8616  2.0613
  134OSM   H12T14439   2.403   3.983   3.559  1.4420 -1.3100  1.5472
  134OSM   C13S14440   2.454   4.163   3.652 -0.0017 -0.4962  0.4748
  134OSM   H13S14441   2.370   4.231   3.627  0.9565  0.8187  0.7022
  134OSM   H13T14442   2.538   4.236   3.657 -0.1918 -0.2942  0.7411
  134OSM   C14S14443   2.444   4.104   3.790 -0.1456 -0.1974  0.0095
  134OSM   H14S14444   2.543   4.065   3.822 -1.7281 -3.8625  0.9957
  134OSM   H14T14445   2.378   4.015   3.798 -2.9623  1.6487 -0.8156
  134OSM   C15S14446   2.401   4.208   3.889 -0.2435  0.0032 -0.1780
  134OSM   H15S14447   2.293   4.232   3.897 -0.1568  0.6366 -0.8657
  134OSM   H15T14448   2.435   4.305   3.847 -2.4976  0.1670 -1.7875
  134OSM   C16S14449   2.456   4.187   4.035 -0.2580  0.2424 -0.1765
  134OSM   H16S14450   2.566   4.201   4.040 -0.1461 -0.9397  2.3496
  134OSM   H16T14451   2.433   4.085   4.073 -1.6175  0.9393  0.9492
  134OSM   C17S14452   2.395   4.278   4.141  0.3613 -0.7327 -0.2740
  134OSM   H17S14453   2.359   4.371   4.092  0.8377 -0.0509  0.6356
  134OSM   H17T14454   2.472   4.312   4.213  0.6019 -1.7648 -0.0230
  134OSM   C18S14455   2.279   4.216   4.225 -0.2712 -0.3232 -0.1940
  134OSM   H18S14456   2.310   4.114   4.256  0.3399  0.6993  2.9048
  134OSM   H18T14457   2.185   4.214   4.166  1.2544  0.1900 -2.7826
  134OSM   H18U14458   2.245   4.277   4.312 -0.4687 -0.9748  0.1882
  134OSM    C1F14459   2.063   4.377   2.497  0.5818  0.0030  0.0950
  134OSM     OF14460   1.987   4.297   2.446 -0.2478 -0.8258 -0.2208
  134OSM    C2F14461   2.006   4.508   2.534  0.3407 -0.4815 -0.6075
  134OSM    H2F14462   1.942   4.537   2.448 -1.6194 -3.5292 -0.3268
  134OSM    H2G14463   2.089   4.579   2.555 -1.0893  0.9132  0.6175
  134OSM    C3F14464   1.916   4.490   2.648 -0.0354 -0.0327  0.1078
  134OSM    H3F14465   1.959   4.428   2.730 -3.4350 -1.5394  0.9528
  134OSM    H3G14466   1.824   4.433   2.622  0.9261 -2.5297  1.8168
  134OSM    C4F14467   1.866   4.622   2.713 -0.3114  0.4673 -0.2623
  134OSM    H4F14468   1.814   4.678   2.632 -0.1829  0.5332 -0.2996
  134OSM    H4G14469   1.940   4.695   2.750 -0.4083  0.2231  0.4195
  134OSM    C5F14470   1.766   4.578   2.821 -0.1712 -0.0763 -0.4350
  134OSM    H5F14471   1.698   4.496   2.790 -0.2407 -0.8814  1.6710
  134OSM    H5G14472   1.702   4.663   2.854 -1.0230 -1.0568  0.4991
  134OSM    C6F14473   1.837   4.537   2.950 -0.7199  0.6690  0.2987
  134OSM    H6F14474   1.905   4.618   2.983 -0.1492  1.5744 -2.7970
  134OSM    H6G14475   1.899   4.446   2.934 -2.8969 -0.5742 -1.5497
  134OSM    C7F14476   1.729   4.505   3.060  0.7182 -0.1651  0.0340
  134OSM    H7F14477   1.673   4.417   3.022  3.2380 -2.7690  1.9824
  134OSM    H7G14478   1.657   4.589   3.076  2.6702  1.6423 -0.1678
  134OSM    C8F14479   1.784   4.460   3.197 -0.7220 -0.7663 -0.3056
  134OSM    H8F14480   1.833   4.551   3.238  0.4917 -1.9149  0.8815
  134OSM    H8G14481   1.869   4.389   3.182  0.8014  0.2471  2.7501
  134OSM    C9F14482   1.675   4.406   3.284  0.4288 -0.3292  0.5960
  134OSM    H9F14483   1.614   4.326   3.238 -0.0615 -0.7184  1.8901
  134OSM   C10F14484   1.647   4.442   3.411 -0.0527 -0.3987 -0.0615
  134OSM   H10F14485   1.572   4.380   3.463  2.4224 -1.7843  2.1157
  134OSM   C11F14486   1.727   4.530   3.505 -0.7517 -0.1134 -0.1503
  134OSM   H11F14487   1.686   4.633   3.498 -1.2122 -0.1451  1.5258
  134OSM   H11G14488   1.824   4.548   3.454 -2.5785  3.5385 -2.7518
  134OSM   C12F14489   1.742   4.481   3.650 -0.0814  0.7361  0.4356
  134OSM   H12F14490   1.645   4.488   3.705 -0.0140  0.3740  0.6048
  134OSM   H12G14491   1.808   4.559   3.691  0.7251  1.8563 -2.6956
  134OSM   C13F14492   1.800   4.346   3.666 -0.1199  0.0504  0.2505
  134OSM   H13F14493   1.883   4.342   3.592  0.3661  0.9150  0.7279
  134OSM   H13G14494   1.741   4.257   3.636 -0.7754  0.3137  0.7281
  134OSM   C14F14495   1.856   4.342   3.797 -0.0691  0.0223 -0.5011
  134OSM   H14F14496   1.920   4.431   3.814 -0.0937  0.4426 -2.3587
  134OSM   H14G14497   1.924   4.254   3.802  0.5761  0.5689  2.6881
  134OSM   C15F14498   1.757   4.326   3.912  0.3551  0.2196  0.2237
  134OSM   H15F14499   1.696   4.418   3.918 -1.1944 -0.8127  1.1091
  134OSM   H15G14500   1.815   4.330   4.007  1.1856 -1.7390 -0.1424
  134OSM   C16F14501   1.684   4.192   3.908  0.0693 -0.7829  0.1947
  134OSM   H16F14502   1.757   4.110   3.922  0.2259 -0.7888 -0.6114
  134OSM   H16G14503   1.618   4.193   3.819  0.5801  0.6539 -0.1938
  134OSM   C17F14504   1.573   4.176   4.023 -0.7977  0.6215  0.4209
  134OSM   H17F14505   1.607   4.217   4.121 -1.3549  1.8165  0.1399
  134OSM   H17G14506   1.564   4.068   4.044  0.2620 -0.2783 -3.0712
  134OSM   C18F14507   1.435   4.217   3.975 -0.2706 -0.3746 -0.5273
  134OSM   H18F14508   1.360   4.199   4.055  1.1334 -0.0399  0.9453
  134OSM   H18G14509   1.407   4.156   3.887 -1.0132 -1.0740  0.1824
  134OSM   H18H14510   1.425   4.324   3.946 -2.3716 -0.5139 -0.4752
  135OSM      N14511   2.450   1.756   1.690  0.2838  0.6071 -0.0251
  135OSM    C1514512   2.513   1.891   1.671  0.6356 -0.1413 -0.4732
  135OSM   H15A14513   2.497   1.928   1.571  0.5702 -1.3927 -0.9393
  135OSM   H15B14514   2.620   1.880   1.670  1.2460  3.9838 -0.0986
  135OSM   H15C14515   2.477   1.966   1.740 -0.3501 -1.3032  0.3268
  135OSM    C1414516   2.297   1.760   1.651 -0.4082  0.2417  0.1286
  135OSM   H14A14517   2.262   1.855   1.689 -1.7115  0.1421 -0.7818
  135OSM   H14B14518   2.245   1.673   1.689 -0.3616  0.2627  0.2420
  135OSM   H14C14519   2.281   1.757   1.545  1.8657 -2.9294 -0.2824
  135OSM    C1314520   2.534   1.670   1.599 -0.2832 -0.2137 -0.0115
  135OSM   H13A14521   2.520   1.721   1.505 -2.0655  1.5139  1.1231
  135OSM   H13B14522   2.495   1.570   1.586 -1.3696  0.0049  1.3809
  135OSM   H13C14523   2.639   1.673   1.624 -0.6194 -2.4288  2.0314
  135OSM    C1214524   2.476   1.725   1.838  0.1806 -0.0440  0.3489
  135OSM   H12A14525   2.579   1.743   1.863  0.5085  0.6827 -1.4291
  135OSM   H12B14526   2.447   1.623   1.859  0.6374 -0.3289 -0.3858
  135OSM    C1114527   2.395   1.805   1.943  0.3754  0.2047  0.1744
  135OSM   H11A14528   2.415   1.769   2.046  1.6569  1.2587  0.3231
  135OSM   H11B14529   2.287   1.784   1.927  0.2763  0.4861  0.4652
  135OSM      P14530   2.306   2.054   1.943  0.3906 -0.3361  0.3324
  135OSM    O1314531   2.312   2.118   1.811  0.0460  0.7102 -0.8393
  135OSM    O1414532   2.175   2.000   1.987  0.2325  0.1549  0.5796
  135OSM    O1114533   2.351   2.157   2.060 -0.1781 -0.2017 -0.7668
  135OSM    O1214534   2.423   1.944   1.944  0.6040 -0.3820  0.7991
  135OSM    C1S14535   2.445   2.116   2.163 -0.0037  0.7055 -0.2476
  135OSM    H1S14536   2.545   2.147   2.125  1.4328 -1.9660  1.0367
  135OSM    H1T14537   2.450   2.007   2.186 -1.9239  0.8409  1.0115
  135OSM     NF14538   2.544   2.226   2.369 -0.1050  0.1468 -0.3751
  135OSM    HNF14539   2.570   2.164   2.443  2.7422  1.2640 -0.3026
  135OSM    C2S14540   2.420   2.196   2.301  0.0989  0.7885 -0.0757
  135OSM    H2S14541   2.383   2.296   2.269  0.9341  1.4711  1.0185
  135OSM    C3S14542   2.299   2.139   2.377 -0.5385 -0.1226  0.6913
  135OSM    H3S14543   2.327   2.032   2.387  0.3281 -0.1604 -1.7290
  135OSM     O314544   2.178   2.136   2.305  0.7177 -0.1897 -0.4365
  135OSM    HO314545   2.206   2.175   2.222 -2.3260  0.7853 -1.1345
  135OSM    C4S14546   2.279   2.188   2.515 -0.3023 -0.6605 -0.9712
  135OSM    H4S14547   2.344   2.136   2.587  0.8547  2.0788  0.1143
  135OSM    C5S14548   2.191   2.274   2.557  0.2858  0.0247 -0.6889
  135OSM    H5S14549   2.125   2.321   2.482 -0.5340 -1.1918 -0.7553
  135OSM    C6S14550   2.175   2.316   2.699  0.2087  0.1193  0.5160
  135OSM    H6S14551   2.149   2.228   2.762  0.8313 -1.0437 -0.7888
  135OSM    H6T14552   2.094   2.392   2.706 -1.4614 -1.2879 -2.0541
  135OSM    C7S14553   2.299   2.368   2.776  0.1370  0.2768  0.6035
  135OSM    H7S14554   2.371   2.426   2.714 -1.2910  1.1045 -0.3436
  135OSM    H7T14555   2.358   2.281   2.808  0.5561  0.3127 -0.0520
  135OSM    C8S14556   2.271   2.448   2.900  0.5419  0.8949  0.1021
  135OSM    H8S14557   2.198   2.389   2.960  1.1981 -0.7422 -0.6566
  135OSM    H8T14558   2.231   2.550   2.879 -1.7789  0.0658  0.1279
  135OSM    C9S14559   2.386   2.469   3.006  0.4244  0.5493  0.2117
  135OSM    H9S14560   2.454   2.544   2.961  1.3552 -0.4555 -0.1042
  135OSM    H9T14561   2.433   2.369   3.017  1.9085  1.0262 -1.3627
  135OSM   C10S14562   2.327   2.529   3.134  0.1038 -0.0902 -0.0197
  135OSM   H10S14563   2.251   2.454   3.165  1.7184 -1.6069  0.4665
  135OSM   H10T14564   2.282   2.628   3.110 -1.2877 -0.5554  0.5402
  135OSM   C11S14565   2.426   2.533   3.257  0.1863 -0.3778  0.3698
  135OSM   H11S14566   2.359   2.570   3.337 -0.0117 -1.8183  0.9083
  135OSM   H11T14567   2.502   2.609   3.229 -0.0053 -0.1235  0.5448
  135OSM   C12S14568   2.499   2.402   3.292  0.4550  0.0306  0.3381
  135OSM   H12S14569   2.434   2.312   3.297 -0.7773  0.9553  2.6995
  135OSM   H12T14570   2.516   2.421   3.400  3.9889  1.3249 -0.3304
  135OSM   C13S14571   2.631   2.382   3.220  0.4054 -0.5665  0.0354
  135OSM   H13S14572   2.619   2.367   3.110  1.8872  0.4341 -0.2876
  135OSM   H13T14573   2.665   2.287   3.267 -1.1565 -0.9276  0.5095
  135OSM   C14S14574   2.733   2.498   3.240 -0.4638  0.4880  0.0259
  135OSM   H14S14575   2.706   2.591   3.184 -3.5457 -0.1618  0.2505
  135OSM   H14T14576   2.826   2.466   3.189 -1.5875  1.0751 -2.5408
  135OSM   C15S14577   2.760   2.526   3.389  0.0920 -0.3727  0.0872
  135OSM   H15S14578   2.665   2.560   3.435 -0.5218 -1.4348 -0.3646
  135OSM   H15T14579   2.828   2.614   3.383 -2.0541  1.2883 -1.7278
  135OSM   C16S14580   2.818   2.410   3.469 -0.1405  0.0015 -0.0164
  135OSM   H16S14581   2.916   2.378   3.428 -0.2616 -0.4152  0.0106
  135OSM   H16T14582   2.736   2.335   3.473  0.9195 -1.2658 -0.9503
  135OSM   C17S14583   2.844   2.451   3.614  0.6997 -0.0450 -0.2869
  135OSM   H17S14584   2.883   2.355   3.654 -1.9460 -0.6873  1.0051
  135OSM   H17T14585   2.752   2.481   3.669  2.1202 -0.0313  2.2224
  135OSM   C18S14586   2.933   2.570   3.624  0.0003  0.3359  0.1586
  135OSM   H18S14587   2.874   2.656   3.587 -2.3897 -1.6649 -0.9093
  135OSM   H18T14588   3.024   2.553   3.562 -0.1259  0.4963 -0.0740
  135OSM   H18U14589   2.965   2.586   3.729 -1.1196  0.2734  0.5216
  135OSM    C1F14590   2.637   2.312   2.335 -0.9282 -0.0844 -0.2817
  135OSM     OF14591   2.638   2.368   2.225  0.0601 -0.2547  0.3230
  135OSM    C2F14592   2.735   2.344   2.432  0.0536 -0.2732  0.3712
  135OSM    H2F14593   2.786   2.436   2.395  0.5304 -0.8119 -0.3341
  135OSM    H2G14594   2.815   2.266   2.433 -2.6602 -3.2817 -0.8525
  135OSM    C3F14595   2.693   2.357   2.577 -0.3457  0.4030 -0.5014
  135OSM    H3F14596   2.674   2.257   2.622  0.2281  1.5595  2.5563
  135OSM    H3G14597   2.607   2.426   2.588  1.1741  2.1158  1.5779
  135OSM    C4F14598   2.826   2.390   2.666 -0.3380  0.7941 -0.7616
  135OSM    H4F14599   2.875   2.482   2.629 -0.5144  1.0309 -0.4113
  135OSM    H4G14600   2.896   2.308   2.639 -2.3034 -1.2604  0.0807
  135OSM    C5F14601   2.795   2.394   2.819 -0.3823  0.2311 -0.4330
  135OSM    H5F14602   2.764   2.294   2.858 -1.5711  0.3473 -1.0273
  135OSM    H5G14603   2.716   2.466   2.849 -0.2094 -0.0048  0.6661
  135OSM    C6F14604   2.917   2.446   2.894 -0.2874  0.0813  0.1201
  135OSM    H6F14605   3.012   2.409   2.849  1.2622  2.5374  1.1273
  135OSM    H6G14606   2.924   2.395   2.993  1.0411 -0.3667 -0.1825
  135OSM    C7F14607   2.926   2.598   2.909 -0.1931  0.1303 -0.1330
  135OSM    H7F14608   2.839   2.636   2.968  1.1325  1.8505  0.8163
  135OSM    H7G14609   2.920   2.635   2.805 -3.3643 -2.9130 -1.2400
  135OSM    C8F14610   3.055   2.640   2.986 -0.1701  0.4810 -0.7606
  135OSM    H8F14611   3.134   2.582   2.934 -1.4168 -0.7710 -1.3231
  135OSM    H8G14612   3.069   2.583   3.081 -0.6571 -1.4381 -1.7838
  135OSM    C9F14613   3.108   2.783   2.987 -0.3366  0.1735 -0.2518
  135OSM    H9F14614   3.064   2.849   2.912  0.6952 -0.0239 -1.0545
  135OSM   C10F14615   3.195   2.828   3.080 -0.3333 -0.1551 -0.3779
  135OSM   H10F14616   3.227   2.933   3.074 -0.1917 -0.1000  1.0343
  135OSM   C11F14617   3.257   2.747   3.192  0.6232  0.2954  0.4831
  135OSM   H11F14618   3.365   2.769   3.209  1.3567  0.9691 -3.7966
  135OSM   H11G14619   3.269   2.640   3.164  1.2831  0.5811 -0.3920
  135OSM   C12F14620   3.164   2.760   3.316 -1.0253 -0.7596  0.1501
  135OSM   H12F14621   3.215   2.702   3.396  0.5948  0.2969 -0.0566
  135OSM   H12G14622   3.072   2.700   3.306  0.2864 -2.7867 -0.2526
  135OSM   C13F14623   3.148   2.903   3.353 -0.0858 -0.1667  0.1354
  135OSM   H13F14624   3.087   2.960   3.279  2.1001  2.2668  0.0329
  135OSM   H13G14625   3.251   2.946   3.349 -0.2426  0.2428  0.4113
  135OSM   C14F14626   3.075   2.924   3.481 -0.5212 -0.1073  0.2716
  135OSM   H14F14627   3.139   2.878   3.559 -2.8686 -0.4881  2.0897
  135OSM   H14G14628   2.982   2.865   3.490 -0.6260 -0.1435 -0.8387
  135OSM   C15F14629   3.055   3.067   3.529 -0.4565 -0.2480 -0.1731
  135OSM   H15F14630   3.008   3.076   3.629  0.8978  1.5435  0.3635
  135OSM   H15G14631   2.985   3.116   3.458 -0.4679 -1.1466 -0.7912
  135OSM   C16F14632   3.188   3.138   3.528  0.5619 -0.0131 -0.2546
  135OSM   H16F14633   3.242   3.140   3.430  2.3098  0.6373  0.6725
  135OSM   H16G14634   3.248   3.086   3.605 -0.7419 -1.4690 -0.1743
  135OSM   C17F14635   3.173   3.289   3.555 -0.8181 -1.0095 -0.3146
  135OSM   H17F14636   3.273   3.337   3.542  0.2169 -3.2953 -1.1853
  135OSM   H17G14637   3.132   3.311   3.656 -1.3029  1.0961 -0.9154
  135OSM   C18F14638   3.086   3.372   3.462  0.3784 -0.3894 -0.6989
  135OSM   H18F14639   3.137   3.370   3.363 -1.0416  0.9458 -1.5151
  135OSM   H18G14640   3.084   3.476   3.501  0.7468 -0.8200  0.5240
  135OSM   H18H14641   2.984   3.328   3.456  0.7574 -1.2048 -1.2905
  136OSM      N14642   6.735   4.725   1.939 -0.8406 -0.8610  0.2105
  136OSM    C1514643   6.877   4.700   1.910 -0.9960 -0.1967 -0.3914
  136OSM   H15A14644   6.883   4.601   1.869  0.0165 -0.2331 -0.1963
  136OSM   H15B14645   6.937   4.690   2.000 -2.1026 -0.6120  0.3237
  136OSM   H15C14646   6.909   4.766   1.830 -1.8338 -2.0509 -2.3373
  136OSM    C1414647   6.725   4.835   2.037 -0.3409 -0.2669 -0.3278
  136OSM   H14A14648   6.776   4.810   2.129 -2.3580 -0.6033  0.7621
  136OSM   H14B14649   6.620   4.856   2.051 -1.0719 -2.3038 -2.1193
  136OSM   H14C14650   6.771   4.915   1.981 -0.6199 -1.3800 -2.2477
  136OSM    C1314651   6.667   4.781   1.814  0.3772 -0.0826  0.3279
  136OSM   H13A14652   6.734   4.823   1.740 -0.4454 -0.5832 -0.7222
  136OSM   H13B14653   6.597   4.858   1.841  2.3451  1.5444  1.1024
  136OSM   H13C14654   6.612   4.706   1.760  1.4702 -0.8370  0.2271
  136OSM    C1214655   6.670   4.606   1.994 -0.4384  0.7343 -0.1348
  136OSM   H12A14656   6.564   4.623   2.000 -0.4112  1.0213 -0.4465
  136OSM   H12B14657   6.720   4.576   2.085  0.5367 -1.9783 -1.4326
  136OSM    C1114658   6.684   4.476   1.898 -0.7535 -0.1210  0.3077
  136OSM   H11A14659   6.639   4.501   1.800 -1.0670  2.2618  0.9964
  136OSM   H11B14660   6.628   4.392   1.946  0.3522 -0.7693  0.4853
  136OSM      P14661   6.894   4.354   1.986  0.0117 -0.4609  0.0116
  136OSM    O1314662   6.822   4.223   2.005  0.4754  0.6129  0.1180
  136OSM    O1414663   7.034   4.355   1.953  0.3675 -0.3803  0.4407
  136OSM    O1114664   6.877   4.430   2.123  0.0722 -0.0670 -0.6114
  136OSM    O1214665   6.815   4.438   1.879 -0.4990  0.3610  0.0008
  136OSM    C1S14666   6.995   4.465   2.201  0.5158 -0.3303  0.3460
  136OSM    H1S14667   7.040   4.559   2.162  0.2856  0.4469  1.8634
  136OSM    H1T14668   7.062   4.377   2.210 -1.2314 -1.5430  2.3707
  136OSM     NF14669   7.073   4.569   2.420  0.0845 -0.0687 -0.1287
  136OSM    HNF14670   7.120   4.519   2.493 -0.7703 -0.0267  0.4653
  136OSM    C2S14671   6.962   4.509   2.353  0.5012  0.3393  0.0102
  136OSM    H2S14672   6.891   4.593   2.360  0.4105  0.1878  1.1018
  136OSM    C3S14673   6.907   4.381   2.420  0.3326 -0.4020 -0.0450
  136OSM    H3S14674   7.003   4.326   2.426  1.3169  1.2427 -0.2201
  136OSM     O314675   6.820   4.294   2.350 -0.2631 -0.1866 -0.2780
  136OSM    HO314676   6.821   4.327   2.260  2.2654 -1.5996 -0.8497
  136OSM    C4S14677   6.854   4.390   2.557  0.1204  0.1855 -0.1562
  136OSM    H4S14678   6.766   4.454   2.566 -1.7047 -2.1632 -0.2392
  136OSM    C5S14679   6.881   4.306   2.661  0.1653 -0.0361  0.1508
  136OSM    H5S14680   6.953   4.225   2.640  0.9242  0.6743 -0.0359
  136OSM    C6S14681   6.814   4.329   2.795 -0.6972 -0.7050  0.3766
  136OSM    H6S14682   6.727   4.398   2.789  0.5314  0.9055  0.5041
  136OSM    H6T14683   6.895   4.366   2.861  0.6610 -0.1943 -1.4906
  136OSM    C7S14684   6.769   4.205   2.874  0.2365  0.2519 -0.7468
  136OSM    H7S14685   6.828   4.112   2.866 -2.9708 -2.3177  2.2535
  136OSM    H7T14686   6.674   4.181   2.822  0.2714  0.7754 -1.0595
  136OSM    C8S14687   6.746   4.231   3.021  0.3644  0.4359 -0.2512
  136OSM    H8S14688   6.705   4.140   3.070  0.7878  0.1880 -0.3501
  136OSM    H8T14689   6.666   4.308   3.024 -1.6796 -1.5780 -0.3943
  136OSM    C9S14690   6.870   4.268   3.105  0.1741 -0.4633  0.0018
  136OSM    H9S14691   6.905   4.363   3.059 -3.4436  0.5206 -0.9902
  136OSM    H9T14692   6.937   4.180   3.092  1.4203  0.3472  0.6735
  136OSM   C10S14693   6.842   4.303   3.256  0.8915  0.2787 -0.2987
  136OSM   H10S14694   6.819   4.204   3.300  0.5566  1.0082  1.2430
  136OSM   H10T14695   6.756   4.373   3.246  2.1644  2.1095  0.9188
  136OSM   C11S14696   6.943   4.376   3.339 -0.1451  0.5282 -0.4918
  136OSM   H11S14697   6.954   4.484   3.315  3.0462  0.8310  1.7663
  136OSM   H11T14698   7.042   4.328   3.325 -0.9170 -1.5164  0.6216
  136OSM   C12S14699   6.910   4.356   3.491  0.2804 -0.2610  0.3352
  136OSM   H12S14700   6.910   4.247   3.515 -3.1178 -0.2772  0.7558
  136OSM   H12T14701   6.811   4.398   3.519  0.0507 -0.6546  0.1168
  136OSM   C13S14702   7.011   4.421   3.581 -0.4811  0.3836  0.1157
  136OSM   H13S14703   7.037   4.522   3.543 -1.6888  0.2077 -1.2749
  136OSM   H13T14704   7.106   4.364   3.579  0.1146  1.2760  1.5864
  136OSM   C14S14705   6.978   4.463   3.728 -0.6021  0.0502 -0.4987
  136OSM   H14S14706   6.887   4.527   3.726 -0.0652  0.8087 -1.5637
  136OSM   H14T14707   7.054   4.526   3.779 -1.3578  0.7907 -0.2505
  136OSM   C15S14708   6.953   4.336   3.822  0.2998  0.2977  0.8056
  136OSM   H15S14709   7.048   4.280   3.833  0.6296  0.6686 -0.0175
  136OSM   H15T14710   6.877   4.283   3.760 -3.3537  4.2922  1.3693
  136OSM   C16S14711   6.870   4.373   3.941  0.4445 -0.7186 -0.5252
  136OSM   H16S14712   6.792   4.438   3.896  0.7976  1.1931  1.4421
  136OSM   H16T14713   6.938   4.440   3.999  2.6217 -0.8241 -2.7620
  136OSM   C17S14714   6.810   4.261   4.028  1.0264  0.4188 -0.5289
  136OSM   H17S14715   6.753   4.190   3.964  0.5375  0.3213  0.0027
  136OSM   H17T14716   6.746   4.298   4.111  1.1722  1.6520 -0.9408
  136OSM   C18S14717   6.914   4.172   4.106  0.4593 -0.4848  0.3148
  136OSM   H18S14718   6.979   4.240   4.165  0.6671 -0.3071 -0.1113
  136OSM   H18T14719   6.988   4.134   4.031  0.4945 -0.0501  0.1287
  136OSM   H18U14720   6.869   4.087   4.162 -1.8058 -0.0480 -0.7509
  136OSM    C1F14721   7.123   4.689   2.392 -0.4655  0.6875  0.1977
  136OSM     OF14722   7.081   4.757   2.297 -0.0354 -0.2005 -0.1958
  136OSM    C2F14723   7.243   4.726   2.474 -0.1088  0.1065 -0.9895
  136OSM    H2F14724   7.331   4.748   2.410  1.2307  0.9584  1.0191
  136OSM    H2G14725   7.270   4.635   2.533 -2.0593  1.1271  1.6872
  136OSM    C3F14726   7.215   4.847   2.573  0.3719 -0.6839 -0.3775
  136OSM    H3F14727   7.118   4.819   2.617 -0.2797  1.3591 -0.3887
  136OSM    H3G14728   7.197   4.941   2.517  0.1768 -0.7731 -0.4637
  136OSM    C4F14729   7.314   4.863   2.682 -0.4201 -0.0066 -0.7254
  136OSM    H4F14730   7.286   4.942   2.755 -1.3716 -0.4407 -0.6143
  136OSM    H4G14731   7.417   4.882   2.645  0.4802  2.3779  2.5314
  136OSM    C5F14732   7.334   4.732   2.770 -1.1582 -0.2870  0.9127
  136OSM    H5F14733   7.419   4.764   2.835  0.1447  0.8880 -1.2613
  136OSM    H5G14734   7.350   4.636   2.717 -0.0925 -0.0497  0.7866
  136OSM    C6F14735   7.217   4.722   2.869 -0.4655 -0.1155 -0.2825
  136OSM    H6F14736   7.133   4.712   2.798 -0.4613 -0.4552 -0.2376
  136OSM    H6G14737   7.206   4.815   2.929  0.4300 -1.0589  1.4156
  136OSM    C7F14738   7.247   4.597   2.968  0.5177 -0.0786  0.7233
  136OSM    H7F14739   7.355   4.597   2.994  0.7762 -2.4790 -0.1032
  136OSM    H7G14740   7.238   4.500   2.914 -2.2437 -1.1368  2.8351
  136OSM    C8F14741   7.162   4.585   3.090  0.5357 -0.8536  0.1057
  136OSM    H8F14742   7.185   4.488   3.139 -0.6175 -0.4859  1.4316
  136OSM    H8G14743   7.056   4.583   3.055 -0.7442 -0.3687  3.5165
  136OSM    C9F14744   7.183   4.697   3.190 -0.1508 -0.4186 -0.5969
  136OSM    H9F14745   7.140   4.792   3.155  0.7367  0.5735  0.9084
  136OSM   C10F14746   7.262   4.684   3.306  0.0533 -0.2545 -0.1238
  136OSM   H10F14747   7.266   4.765   3.380 -0.7832 -0.4920  0.1895
  136OSM   C11F14748   7.310   4.545   3.347 -0.2671 -0.1467  0.0325
  136OSM   H11F14749   7.395   4.501   3.289 -0.0161 -1.4600  1.3310
  136OSM   H11G14750   7.231   4.468   3.343  0.2751 -0.7565  0.7078
  136OSM   C12F14751   7.357   4.537   3.500 -0.7097  0.0678  0.6215
  136OSM   H12F14752   7.405   4.437   3.512 -0.9235 -0.3104 -1.2754
  136OSM   H12G14753   7.268   4.527   3.565 -2.3683 -1.4275 -1.7130
  136OSM   C13F14754   7.471   4.629   3.528 -0.3604  0.2264  0.6189
  136OSM   H13F14755   7.435   4.733   3.514 -2.7143 -0.7770 -1.4726
  136OSM   H13G14756   7.556   4.618   3.457 -1.5545 -1.8188 -0.5912
  136OSM   C14F14757   7.518   4.609   3.673 -0.0937  0.2292  0.7617
  136OSM   H14F14758   7.613   4.665   3.679 -0.3713  0.9149 -0.7534
  136OSM   H14G14759   7.539   4.501   3.688  3.5124  0.5659 -0.8470
  136OSM   C15F14760   7.424   4.672   3.775  0.7480 -0.3974 -0.4726
  136OSM   H15F14761   7.354   4.740   3.722 -0.0933  0.1372  1.2319
  136OSM   H15G14762   7.487   4.738   3.839  0.4958 -1.3912  0.8416
  136OSM   C16F14763   7.348   4.570   3.864  0.7752 -0.5084 -0.0045
  136OSM   H16F14764   7.422   4.505   3.914  0.4593 -0.4490  0.5546
  136OSM   H16G14765   7.276   4.520   3.795  1.0863 -0.4253 -0.3922
  136OSM   C17F14766   7.259   4.640   3.970 -0.4670  0.0778 -0.7073
  136OSM   H17F14767   7.177   4.686   3.911 -0.1529 -2.2773 -3.2049
  136OSM   H17G14768   7.324   4.722   4.007  1.6655 -1.2812 -1.2778
  136OSM   C18F14769   7.212   4.543   4.085  0.8575 -0.1107  0.1819
  136OSM   H18F14770   7.295   4.477   4.118  1.7634  0.4964 -0.7925
  136OSM   H18G14771   7.130   4.482   4.041 -0.3641 -0.3925  2.6637
  136OSM   H18H14772   7.177   4.596   4.176  1.8050 -0.5667  0.8300
  137OSM      N14773   4.120   5.276   2.108  0.1902  0.6707 -0.1949
  137OSM    C1514774   4.005   5.266   2.020  0.3750  0.0874 -0.4939
  137OSM   H15A14775   3.931   5.333   2.061 -0.0977 -1.4538  1.3301
  137OSM   H15B14776   3.969   5.164   2.021  0.2590  0.1306  0.1547
  137OSM   H15C14777   4.018   5.302   1.919  2.5414 -0.9781 -0.6491
  137OSM    C1414778   4.226   5.197   2.047  0.0040 -0.1103 -0.4481
  137OSM   H14A14779   4.317   5.197   2.105  1.5633  0.4642 -2.7649
  137OSM   H14B14780   4.256   5.245   1.955  0.2223  3.0594  1.1473
  137OSM   H14C14781   4.202   5.094   2.025 -1.9719  0.2214 -0.0681
  137OSM    C1314782   4.164   5.420   2.123  0.0824 -0.2061 -1.2243
  137OSM   H13A14783   4.238   5.419   2.202  1.1877 -2.1731 -2.1942
  137OSM   H13B14784   4.088   5.483   2.166  0.9371  0.3499 -0.4978
  137OSM   H13C14785   4.191   5.458   2.025 -2.6196 -0.3780 -2.1012
  137OSM    C1214786   4.091   5.229   2.253 -0.5264 -0.1167 -0.1552
  137OSM   H12A14787   4.177   5.236   2.318  1.1923 -1.5525 -2.1686
  137OSM   H12B14788   4.069   5.125   2.233  0.7509 -0.2975 -0.7216
  137OSM    C1114789   3.967   5.305   2.316  0.7629  0.6386  0.5964
  137OSM   H11A14790   3.988   5.414   2.331  0.7204  0.5297  1.5058
  137OSM   H11B14791   3.966   5.253   2.414 -3.3513 -0.4692  0.1285
  137OSM      P14792   3.725   5.197   2.330  0.0748 -0.3228 -0.2071
  137OSM    O1314793   3.619   5.165   2.232 -0.1913  0.0882 -0.3390
  137OSM    O1414794   3.792   5.080   2.399  0.7106 -0.4503  0.2906
  137OSM    O1114795   3.668   5.295   2.439 -0.3611 -0.1715  0.2368
  137OSM    O1214796   3.835   5.280   2.257  0.2795 -0.1762 -0.1071
  137OSM    C1S14797   3.632   5.431   2.397  0.4211 -0.4679 -0.3446
  137OSM    H1S14798   3.528   5.430   2.360 -0.6757  2.4454  2.2249
  137OSM    H1T14799   3.701   5.478   2.324  1.3070  0.0305  0.7679
  137OSM     NF14800   3.531   5.640   2.492 -0.1652 -0.5641 -0.6685
  137OSM    HNF14801   3.561   5.722   2.444 -1.9290  0.0721 -0.7296
  137OSM    C2S14802   3.621   5.526   2.519  0.0307 -0.0110 -0.5789
  137OSM    H2S14803   3.574   5.467   2.600 -0.1363  1.8941  0.7826
  137OSM    C3S14804   3.759   5.572   2.561  0.1388 -0.1246  0.2144
  137OSM    H3S14805   3.784   5.622   2.465 -0.1624 -0.0145  0.1936
  137OSM     O314806   3.855   5.473   2.575 -0.2665  0.5151  0.3495
  137OSM    HO314807   3.817   5.394   2.536  1.4293 -0.1614 -0.0139
  137OSM    C4S14808   3.761   5.663   2.685 -0.2021  0.5529 -0.5626
  137OSM    H4S14809   3.777   5.769   2.662  1.0670  0.4678 -0.1367
  137OSM    C5S14810   3.744   5.621   2.812  0.6548 -0.5981  0.0242
  137OSM    H5S14811   3.734   5.515   2.842  2.1537 -0.5968  0.6182
  137OSM    C6S14812   3.733   5.720   2.925 -0.0109  0.4219  1.0901
  137OSM    H6S14813   3.628   5.721   2.959 -0.4495 -0.4783 -0.1815
  137OSM    H6T14814   3.760   5.824   2.895 -1.0967  0.4994  0.3264
  137OSM    C7S14815   3.805   5.687   3.059  0.1138  0.9427 -0.5030
  137OSM    H7S14816   3.909   5.656   3.036 -0.2263  0.3069 -1.2229
  137OSM    H7T14817   3.753   5.602   3.107  0.3834  0.5602 -0.8859
  137OSM    C8S14818   3.806   5.799   3.159 -0.2119  0.1930 -0.1880
  137OSM    H8S14819   3.702   5.818   3.191 -0.9392  1.4977 -3.0228
  137OSM    H8T14820   3.853   5.890   3.116 -0.8833  0.3669 -0.5555
  137OSM    C9S14821   3.875   5.748   3.295 -0.1238  1.0498  0.0758
  137OSM    H9S14822   3.983   5.757   3.270  0.2230  1.0779  1.5106
  137OSM    H9T14823   3.865   5.640   3.320  3.5694  0.3927 -0.7100
  137OSM   C10S14824   3.844   5.827   3.417  0.4805  0.0431 -0.1285
  137OSM   H10S14825   3.737   5.838   3.447  0.2548  1.5513 -1.3407
  137OSM   H10T14826   3.868   5.933   3.393  0.2352  0.5821  1.8067
  137OSM   C11S14827   3.936   5.781   3.525  0.6141 -0.0733 -0.2710
  137OSM   H11S14828   4.042   5.783   3.495  1.9802  2.1249  3.8426
  137OSM   H11T14829   3.924   5.675   3.559  1.1882 -0.1377 -0.2569
  137OSM   C12S14830   3.912   5.867   3.646 -0.5734 -0.6605 -1.4158
  137OSM   H12S14831   3.922   5.972   3.610  0.0355  0.3516  1.4349
  137OSM   H12T14832   4.003   5.857   3.709 -1.8879 -1.6141  0.4094
  137OSM   C13S14833   3.780   5.849   3.727 -0.7480  0.5972 -0.0342
  137OSM   H13S14834   3.783   5.757   3.789 -0.4709  0.2440 -0.5671
  137OSM   H13T14835   3.691   5.851   3.661 -1.8827  2.1259  1.4614
  137OSM   C14S14836   3.752   5.963   3.830 -0.0863  1.0887 -0.2891
  137OSM   H14S14837   3.841   6.003   3.883  0.4504 -1.5237  0.9506
  137OSM   H14T14838   3.697   5.914   3.913  0.5713  1.5716  0.4398
  137OSM   C15S14839   3.670   6.086   3.788  0.2987 -0.8563 -0.0689
  137OSM   H15S14840   3.575   6.043   3.748  0.4928  0.0141 -1.5670
  137OSM   H15T14841   3.710   6.147   3.704  0.6355 -1.3516 -0.2743
  137OSM   C16S14842   3.630   6.180   3.914 -0.7336 -0.6005  0.5212
  137OSM   H16S14843   3.710   6.256   3.930  0.3573 -1.6368  0.2165
  137OSM   H16T14844   3.618   6.119   4.006 -2.2480 -2.0873 -0.6016
  137OSM   C17S14845   3.501   6.263   3.883 -0.0595  0.5430  0.4347
  137OSM   H17S14846   3.423   6.186   3.863  0.3429  0.7568 -2.2793
  137OSM   H17T14847   3.519   6.317   3.787  0.7274  0.4911  0.5451
  137OSM   C18S14848   3.481   6.363   3.997 -0.4775  0.4542 -0.1699
  137OSM   H18S14849   3.465   6.305   4.091 -2.2950 -0.3312 -0.9075
  137OSM   H18T14850   3.387   6.420   3.980  0.8085  2.9410  0.6674
  137OSM   H18U14851   3.566   6.433   4.012 -0.2423  0.5259 -1.6375
  137OSM    C1F14852   3.401   5.621   2.502  0.7653 -0.0766 -0.0207
  137OSM     OF14853   3.352   5.524   2.558  0.0378 -0.2304  0.4889
  137OSM    C2F14854   3.317   5.738   2.463 -0.0250 -0.2496 -0.7291
  137OSM    H2F14855   3.236   5.709   2.393 -2.1442  1.4125  0.8684
  137OSM    H2G14856   3.384   5.813   2.416  0.8663 -0.8194 -0.3978
  137OSM    C3F14857   3.255   5.799   2.584  0.1827 -0.1881 -0.3422
  137OSM    H3F14858   3.199   5.724   2.643 -0.6399  1.6302  1.3370
  137OSM    H3G14859   3.189   5.885   2.559 -1.2351 -0.6396  1.6037
  137OSM    C4F14860   3.361   5.851   2.681  0.8048 -0.4251  0.6841
  137OSM    H4F14861   3.440   5.774   2.690  0.8043 -0.7333 -1.4090
  137OSM    H4G14862   3.304   5.872   2.774  0.5458  1.9450  0.0679
  137OSM    C5F14863   3.427   5.982   2.639 -0.1836 -0.3602 -0.7367
  137OSM    H5F14864   3.349   6.056   2.610 -0.8897  0.2686  2.4476
  137OSM    H5G14865   3.494   5.960   2.553  1.0730 -0.8114  0.3278
  137OSM    C6F14866   3.521   6.038   2.753  0.5274  0.1497  0.8559
  137OSM    H6F14867   3.596   5.961   2.778 -0.7442 -1.0033  1.2533
  137OSM    H6G14868   3.456   6.051   2.842  1.1421  2.4520  1.0231
  137OSM    C7F14869   3.591   6.164   2.700  0.8212  0.1899 -0.6163
  137OSM    H7F14870   3.526   6.246   2.664  1.4026  0.8331 -0.2321
  137OSM    H7G14871   3.658   6.167   2.612 -0.5851  0.7545 -1.7022
  137OSM    C8F14872   3.676   6.235   2.813 -0.1095  0.8988 -0.1916
  137OSM    H8F14873   3.595   6.282   2.873  0.3945  3.3610 -1.3252
  137OSM    H8G14874   3.737   6.315   2.767 -1.7001  1.4438 -1.4797
  137OSM    C9F14875   3.755   6.138   2.903  0.7447  0.0783 -0.3867
  137OSM    H9F14876   3.803   6.056   2.848  1.3344  0.6468 -0.7448
  137OSM   C10F14877   3.768   6.145   3.040  0.1967 -0.4302 -0.1066
  137OSM   H10F14878   3.840   6.084   3.097  0.3983 -0.1874 -0.1001
  137OSM   C11F14879   3.700   6.258   3.120  0.0544  0.4712 -0.1851
  137OSM   H11F14880   3.592   6.236   3.128  0.1155  0.6642  1.3527
  137OSM   H11G14881   3.699   6.355   3.065  0.3245  0.4167 -0.2894
  137OSM   C12F14882   3.736   6.284   3.269 -0.1279 -0.4595  0.2396
  137OSM   H12F14883   3.838   6.328   3.281 -1.2459  1.8925  1.8114
  137OSM   H12G14884   3.738   6.183   3.316  0.8364 -0.2054  0.7746
  137OSM   C13F14885   3.632   6.377   3.331  0.1976  0.0886 -0.4572
  137OSM   H13F14886   3.534   6.331   3.309  1.0088 -1.8546 -0.1758
  137OSM   H13G14887   3.626   6.480   3.288 -1.4783 -0.0481 -0.5982
  137OSM   C14F14888   3.666   6.406   3.479  0.1417 -0.3678 -0.3983
  137OSM   H14F14889   3.771   6.439   3.473 -0.3419  2.6683  3.4069
  137OSM   H14G14890   3.668   6.309   3.534 -0.7408 -0.0398  0.2357
  137OSM   C15F14891   3.560   6.500   3.543 -0.4234 -0.4793  0.4471
  137OSM   H15F14892   3.465   6.444   3.555 -0.1343 -1.2881 -0.8553
  137OSM   H15G14893   3.535   6.572   3.461 -0.9526 -0.3541  0.7100
  137OSM   C16F14894   3.608   6.589   3.655 -0.4069 -0.3947 -0.3382
  137OSM   H16F14895   3.703   6.632   3.618 -0.2635  1.0859  1.6396
  137OSM   H16G14896   3.624   6.513   3.735 -2.3925 -1.6400 -1.0234
  137OSM   C17F14897   3.513   6.690   3.713 -0.2768 -0.1081 -0.9506
  137OSM   H17F14898   3.416   6.651   3.749  0.0424  0.1524  0.2309
  137OSM   H17G14899   3.502   6.774   3.641  0.4810  2.0693  1.2933
  137OSM   C18F14900   3.596   6.748   3.827  0.4412  0.2877  0.2201
  137OSM   H18F14901   3.583   6.687   3.920 -2.1228  0.2669 -0.0933
  137OSM   H18G14902   3.563   6.848   3.863  0.9784  0.2299  0.8993
  137OSM   H18H14903   3.706   6.759   3.811  0.9908 -2.0134  1.8084
  138OSM      N14904   3.193   4.893   2.406  0.4542  0.2605  0.4053
  138OSM    C1514905   3.188   5.033   2.351  0.0422  0.1121 -0.1552
  138OSM   H15A14906   3.217   5.038   2.247 -1.2507 -0.6108 -0.5655
  138OSM   H15B14907   3.242   5.103   2.413 -1.0123  1.0878 -0.3055
  138OSM   H15C14908   3.085   5.065   2.352  1.2322  4.6049  1.2200
  138OSM    C1414909   3.331   4.841   2.389  0.7025  0.0224  0.1275
  138OSM   H14A14910   3.329   4.733   2.391 -0.8270 -0.0158 -1.4759
  138OSM   H14B14911   3.393   4.869   2.473  1.5435 -0.7543 -0.2143
  138OSM   H14C14912   3.379   4.883   2.302  0.6668 -1.4401 -0.6252
  138OSM    C1314913   3.150   4.891   2.544 -0.1615  0.4269  0.1340
  138OSM   H13A14914   3.157   4.790   2.582  3.1857  1.2948  2.3642
  138OSM   H13B14915   3.051   4.931   2.558 -0.5920 -0.5442 -0.1088
  138OSM   H13C14916   3.218   4.941   2.611  1.6650  0.5737 -1.7132
  138OSM    C1214917   3.085   4.812   2.329 -0.4592 -0.6284 -0.4040
  138OSM   H12A14918   3.103   4.711   2.360  0.7441 -0.6827 -1.1783
  138OSM   H12B14919   3.112   4.807   2.224 -0.7149  2.8234 -0.7749
  138OSM    C1114920   2.936   4.852   2.341 -0.0451 -0.7426 -0.8397
  138OSM   H11A14921   2.909   4.813   2.442 -0.4489  1.5066 -0.0234
  138OSM   H11B14922   2.872   4.801   2.266 -2.9496  1.1452  0.1646
  138OSM      P14923   2.794   5.056   2.255 -0.7553 -0.3625  0.1839
  138OSM    O1314924   2.849   5.149   2.155 -0.5600 -0.1194 -0.3008
  138OSM    O1414925   2.696   4.953   2.210 -0.2490 -0.7415  0.3199
  138OSM    O1114926   2.717   5.141   2.371  0.0078  0.0445 -0.4944
  138OSM    O1214927   2.918   4.994   2.330  0.1174  0.0215  0.1579
  138OSM    C1S14928   2.789   5.156   2.493 -0.5655  0.4937 -0.1202
  138OSM    H1S14929   2.871   5.230   2.482 -0.3920  0.3549  0.2093
  138OSM    H1T14930   2.828   5.058   2.528 -0.1750  0.8545  0.4634
  138OSM     NF14931   2.794   5.239   2.725 -0.0017 -0.6130 -0.0547
  138OSM    HNF14932   2.800   5.183   2.808  1.2852  0.8908  0.9385
  138OSM    C2S14933   2.706   5.202   2.618  0.1280  0.4493  0.0884
  138OSM    H2S14934   2.646   5.284   2.574 -0.6353 -0.9617 -1.6486
  138OSM    C3S14935   2.608   5.085   2.645 -0.6170  0.5505  0.1792
  138OSM    H3S14936   2.669   5.006   2.695  0.0483  0.7652 -0.2847
  138OSM     O314937   2.545   5.033   2.527 -0.0174 -0.5130 -0.2386
  138OSM    HO314938   2.596   5.076   2.458 -0.9157 -0.3318 -0.8091
  138OSM    C4S14939   2.506   5.131   2.751 -0.8010 -0.1482 -0.5057
  138OSM    H4S14940   2.534   5.110   2.855 -0.9648 -0.8008 -0.5872
  138OSM    C5S14941   2.383   5.178   2.719 -0.5121  0.0326  0.2181
  138OSM    H5S14942   2.350   5.194   2.616 -1.7627  1.8380  0.8466
  138OSM    C6S14943   2.272   5.202   2.821  0.1762  0.7502 -0.5016
  138OSM    H6S14944   2.187   5.139   2.787 -0.4556 -0.0802  2.3710
  138OSM    H6T14945   2.237   5.307   2.815 -0.5525  0.5124 -0.4873
  138OSM    C7S14946   2.298   5.167   2.970  0.5264 -0.2250  0.2241
  138OSM    H7S14947   2.384   5.229   3.004  0.1896  0.9569 -0.9811
  138OSM    H7T14948   2.320   5.058   2.977  2.7817 -0.0304 -2.2786
  138OSM    C8S14949   2.180   5.210   3.056  0.9139 -0.4184 -0.4067
  138OSM    H8S14950   2.091   5.160   3.011  0.0547 -1.2275  1.9971
  138OSM    H8T14951   2.164   5.320   3.054  1.0346 -0.4085 -0.7839
  138OSM    C9S14952   2.200   5.173   3.201 -0.1320  0.0897 -0.1618
  138OSM    H9S14953   2.293   5.215   3.245 -2.0650  2.5988  1.8890
  138OSM    H9T14954   2.197   5.064   3.222  0.7618 -0.1756 -1.2789
  138OSM   C10S14955   2.088   5.233   3.289  0.9879  0.1779 -0.0421
  138OSM   H10S14956   1.990   5.216   3.241  1.6408 -1.4277 -0.8809
  138OSM   H10T14957   2.102   5.343   3.294  0.0961  0.2379  1.7293
  138OSM   C11S14958   2.084   5.188   3.439  0.3825 -0.2210 -0.1992
  138OSM   H11S14959   2.121   5.084   3.452  0.8852 -0.0193  0.0348
  138OSM   H11T14960   1.977   5.190   3.469  1.0862  1.5021  2.5608
  138OSM   C12S14961   2.161   5.280   3.540 -0.2403  0.4389 -0.2406
  138OSM   H12S14962   2.117   5.380   3.522 -1.5563  0.0979  1.0029
  138OSM   H12T14963   2.271   5.281   3.523 -0.0614  0.5284  0.9001
  138OSM   C13S14964   2.132   5.230   3.683  0.0805 -0.4113 -0.1223
  138OSM   H13S14965   2.171   5.128   3.706  3.1314  0.5104 -0.7878
  138OSM   H13T14966   2.022   5.241   3.693 -0.1126 -1.1559 -1.1954
  138OSM   C14S14967   2.209   5.313   3.786  0.5410  0.1966  0.0447
  138OSM   H14S14968   2.179   5.420   3.780  1.7427  0.5517  0.2149
  138OSM   H14T14969   2.315   5.301   3.756  1.9695 -2.2614  4.9619
  138OSM   C15S14970   2.183   5.254   3.933  0.0970 -0.7740 -0.2850
  138OSM   H15S14971   2.247   5.164   3.930  0.7880 -0.2726 -1.3910
  138OSM   H15T14972   2.073   5.239   3.941  0.2675 -2.6465 -1.0607
  138OSM   C16S14973   2.234   5.356   4.045  0.0339  0.4478  0.0663
  138OSM   H16S14974   2.166   5.444   4.038 -2.0064 -0.9637  1.0124
  138OSM   H16T14975   2.340   5.374   4.017  0.0977 -0.3457 -0.2196
  138OSM   C17S14976   2.227   5.304   4.192 -0.2580 -0.5245 -0.5545
  138OSM   H17S14977   2.293   5.215   4.197 -0.9955 -1.0054  1.8171
  138OSM   H17T14978   2.122   5.270   4.211 -0.9095  0.1969 -2.5558
  138OSM   C18S14979   2.269   5.411   4.300  0.1857  0.1393  1.0991
  138OSM   H18S14980   2.379   5.421   4.293  0.1853 -0.8549 -0.8485
  138OSM   H18T14981   2.243   5.373   4.401 -0.4993 -1.5681  0.3193
  138OSM   H18U14982   2.222   5.509   4.274  0.4543 -0.6133 -2.8411
  138OSM    C1F14983   2.869   5.353   2.706  0.8075  0.5122  0.0259
  138OSM     OF14984   2.828   5.430   2.618 -0.8466  0.0221  0.3409
  138OSM    C2F14985   2.989   5.370   2.800  0.1172  0.8598  0.3547
  138OSM    H2F14986   3.075   5.337   2.738 -0.8824 -0.0649 -0.5871
  138OSM    H2G14987   2.976   5.299   2.885 -0.5421  2.6045  1.7664
  138OSM    C3F14988   3.002   5.518   2.849  0.7915  0.5221 -0.4430
  138OSM    H3F14989   2.917   5.542   2.916  0.4021  0.0862 -0.7805
  138OSM    H3G14990   2.998   5.585   2.761 -2.3431  0.1031 -0.7209
  138OSM    C4F14991   3.131   5.547   2.929 -0.0399  0.3545 -0.6030
  138OSM    H4F14992   3.218   5.515   2.868  0.5300  1.5586 -0.4541
  138OSM    H4G14993   3.132   5.490   3.024  2.3595 -1.1973 -1.4586
  138OSM    C5F14994   3.154   5.691   2.954  0.1205  0.3890  0.4254
  138OSM    H5F14995   3.059   5.726   2.999 -0.4956  0.1502 -0.6433
  138OSM    H5G14996   3.156   5.729   2.849 -0.6975  0.5679  0.4693
  138OSM    C6F14997   3.274   5.726   3.036 -0.5172 -0.1079  0.7098
  138OSM    H6F14998   3.371   5.716   2.982 -0.9072 -2.0764  0.3000
  138OSM    H6G14999   3.274   5.658   3.123  1.1847 -2.4288 -1.0030
  138OSM    C7F15000   3.260   5.866   3.099  0.5143 -0.4847  0.1768
  138OSM    H7F15001   3.175   5.856   3.169  1.2981  0.2580  1.2652
  138OSM    H7G15002   3.226   5.935   3.018  1.5860  1.6604  1.4805
  138OSM    C8F15003   3.393   5.921   3.159  0.2622  0.3862 -0.2881
  138OSM    H8F15004   3.361   6.024   3.186  0.6126  0.6229 -0.7868
  138OSM    H8G15005   3.464   5.920   3.074  2.0231  1.4630  1.0871
  138OSM    C9F15006   3.431   5.827   3.275  0.4786 -0.5219  0.2001
  138OSM    H9F15007   3.426   5.720   3.255  1.6661 -0.4358 -0.6457
  138OSM   C10F15008   3.461   5.862   3.401  0.0238 -0.2425 -0.3848
  138OSM   H10F15009   3.472   5.782   3.475 -1.6526  0.7489  1.0218
  138OSM   C11F15010   3.463   6.004   3.452  0.5882 -0.5301 -0.0467
  138OSM   H11F15011   3.430   6.075   3.373 -0.0898  0.0223  0.7192
  138OSM   H11G15012   3.568   6.029   3.479  0.9368 -1.1710 -0.7511
  138OSM   C12F15013   3.369   6.025   3.574  0.2647  0.2145  0.0677
  138OSM   H12F15014   3.379   6.133   3.601  1.5904  0.4192 -1.1225
  138OSM   H12G15015   3.411   5.964   3.657  1.3695 -0.0170 -0.6448
  138OSM   C13F15016   3.221   6.002   3.554  0.1181 -0.1573 -0.7888
  138OSM   H13F15017   3.188   6.028   3.451  0.9009  1.1546 -0.7332
  138OSM   H13G15018   3.162   6.066   3.623  0.1691 -2.0555  1.1052
  138OSM   C14F15019   3.174   5.857   3.596  0.0004 -0.1593 -0.0228
  138OSM   H14F15020   3.160   5.853   3.706  1.4746  1.6741  0.2948
  138OSM   H14G15021   3.257   5.785   3.584  1.9221  2.0347 -0.5997
  138OSM   C15F15022   3.051   5.815   3.513  1.0421  0.1774  0.0528
  138OSM   H15F15023   3.072   5.837   3.406  0.3741 -1.7606 -0.5209
  138OSM   H15G15024   2.969   5.884   3.542  0.4465 -0.8305  0.8054
  138OSM   C16F15025   3.003   5.668   3.516 -0.2450 -0.6616  0.4406
  138OSM   H16F15026   3.080   5.614   3.458 -0.0122  1.4460 -1.3578
  138OSM   H16G15027   2.903   5.651   3.471 -0.5668 -1.2099  1.3335
  138OSM   C17F15028   3.002   5.612   3.656 -0.3669  0.0535 -0.0695
  138OSM   H17F15029   3.103   5.611   3.702  0.8369  0.9152 -2.5057
  138OSM   H17G15030   2.985   5.502   3.653  0.6489 -0.0995 -1.7617
  138OSM   C18F15031   2.917   5.681   3.764  0.6541 -0.1684  0.2344
  138OSM   H18F15032   2.906   5.623   3.859  0.1429 -0.8167 -0.2036
  138OSM   H18G15033   2.812   5.692   3.729  0.5274  1.0715  0.9627
  138OSM   H18H15034   2.958   5.780   3.793  0.9527 -0.3674  0.4943
  139OSM      N15035   4.196   3.127   2.383 -0.1946  0.1650 -0.3513
  139OSM    C1515036   4.157   3.252   2.324 -0.1312 -0.0664  0.4015
  139OSM   H15A15037   4.082   3.236   2.248  1.7163  0.6574 -1.6913
  139OSM   H15B15038   4.246   3.288   2.276 -0.0117  1.7031  1.8485
  139OSM   H15C15039   4.133   3.323   2.402  0.7597 -0.0857  0.7013
  139OSM    C1415040   4.230   3.032   2.270  0.7169  0.0915  0.2643
  139OSM   H14A15041   4.155   3.029   2.193  1.0627  3.5948 -0.3935
  139OSM   H14B15042   4.237   2.928   2.296 -1.1406  0.0865  0.8486
  139OSM   H14C15043   4.324   3.056   2.222  1.2416 -1.5568  0.4204
  139OSM    C1315044   4.314   3.155   2.460 -0.0341 -0.7066  0.6625
  139OSM   H13A15045   4.300   3.214   2.550 -2.3543  0.4634 -0.3812
  139OSM   H13B15046   4.381   3.213   2.398 -0.0005 -1.7561 -0.3056
  139OSM   H13C15047   4.359   3.065   2.498  0.6224 -0.3916  0.6449
  139OSM    C1215048   4.091   3.081   2.479  0.4409 -0.6125  0.4095
  139OSM   H12A15049   4.101   2.974   2.489 -0.3470 -0.7104  0.2559
  139OSM   H12B15050   3.989   3.091   2.444 -0.3408 -1.1577  2.3575
  139OSM    C1115051   4.080   3.144   2.631  0.2936  0.0866  0.5103
  139OSM   H11A15052   4.171   3.116   2.688  0.2159  0.0306  0.6043
  139OSM   H11B15053   3.993   3.086   2.667  1.3026 -1.8362 -0.0288
  139OSM      P15054   3.925   3.351   2.624 -0.1097 -0.0078  0.4247
  139OSM    O1315055   3.929   3.492   2.573  0.0205  0.0349 -0.3797
  139OSM    O1415056   3.827   3.262   2.556  0.0242 -0.1428  0.3699
  139OSM    O1115057   3.883   3.374   2.768 -0.2426 -0.5086 -0.2692
  139OSM    O1215058   4.070   3.287   2.641 -0.3774 -0.5027  0.4614
  139OSM    C1S15059   3.855   3.278   2.868 -0.2241  0.0699  0.3995
  139OSM    H1S15060   3.900   3.181   2.837  1.1772  0.5736  0.7841
  139OSM    H1T15061   3.744   3.266   2.869 -0.7565  3.7939  0.9197
  139OSM     NF15062   3.878   3.210   3.102  0.4540  0.1178  0.1373
  139OSM    HNF15063   3.808   3.230   3.170  0.8335  1.4984  0.1525
  139OSM    C2S15064   3.906   3.318   3.008 -0.4287 -0.8305  1.0216
  139OSM    H2S15065   4.015   3.327   2.990 -0.6187  0.3661  0.4168
  139OSM    C3S15066   3.840   3.461   3.049 -0.2894  0.2889  0.5925
  139OSM    H3S15067   3.731   3.444   3.057 -0.2296  0.7672  3.2095
  139OSM     O315068   3.836   3.557   2.940  0.1151  0.0958 -0.4219
  139OSM    HO315069   3.803   3.506   2.866  1.1022 -1.0368 -0.1103
  139OSM    C4S15070   3.876   3.508   3.189 -0.4731  0.6859 -0.0406
  139OSM    H4S15071   3.815   3.472   3.273  0.1395 -0.3103 -0.0192
  139OSM    C5S15072   3.981   3.592   3.218  0.3176  0.1162  0.0086
  139OSM    H5S15073   4.032   3.636   3.130 -0.9238 -0.5312 -1.0749
  139OSM    C6S15074   4.027   3.650   3.352  0.8403 -0.1847 -1.1428
  139OSM    H6S15075   4.137   3.666   3.344  0.6334  0.8593 -2.2732
  139OSM    H6T15076   4.008   3.582   3.438 -0.9219  2.3253  0.5992
  139OSM    C7S15077   3.958   3.783   3.378  0.4031 -0.3023  0.3075
  139OSM    H7S15078   3.848   3.770   3.379  0.5519 -2.3207  2.9926
  139OSM    H7T15079   3.982   3.851   3.293 -0.4307 -0.9300 -0.4586
  139OSM    C8S15080   4.002   3.860   3.506  0.2180  0.3420 -0.1380
  139OSM    H8S15081   4.110   3.854   3.533  0.7807 -1.3152 -2.4496
  139OSM    H8T15082   3.939   3.816   3.586 -0.4899  0.9807 -0.3299
  139OSM    C9S15083   3.952   4.007   3.506 -0.3565 -0.2409  0.3042
  139OSM    H9S15084   3.845   4.009   3.475 -0.5092  0.8681  0.8830
  139OSM    H9T15085   4.008   4.070   3.433 -0.9209  1.4475  1.2792
  139OSM   C10S15086   3.978   4.078   3.644 -0.2675  0.2369  0.1568
  139OSM   H10S15087   4.083   4.099   3.674 -0.6481  0.6867  1.2393
  139OSM   H10T15088   3.918   4.030   3.725  1.0216  0.3234  1.1949
  139OSM   C11S15089   3.913   4.221   3.628 -0.2316 -0.4533 -0.6337
  139OSM   H11S15090   3.811   4.200   3.592 -0.1278 -0.6179 -0.8358
  139OSM   H11T15091   3.966   4.269   3.543  0.2090  0.6916  0.2495
  139OSM   C12S15092   3.936   4.307   3.755  0.3756  0.3850  0.0819
  139OSM   H12S15093   4.041   4.342   3.749  0.4234  0.1199 -0.8098
  139OSM   H12T15094   3.911   4.249   3.846 -0.2441  1.8645  0.8969
  139OSM   C13S15095   3.860   4.435   3.753 -0.5347 -0.9476 -0.7322
  139OSM   H13S15096   3.753   4.415   3.730 -0.7438  1.4390 -2.1840
  139OSM   H13T15097   3.895   4.496   3.667  0.0799 -0.2811 -0.0278
  139OSM   C14S15098   3.865   4.509   3.888  0.1718 -0.0132  0.0489
  139OSM   H14S15099   3.811   4.604   3.870 -0.6445 -0.1820  1.4716
  139OSM   H14T15100   3.974   4.529   3.901  0.3206 -1.5510  1.5854
  139OSM   C15S15101   3.797   4.427   3.995  0.1153 -0.6736  0.0956
  139OSM   H15S15102   3.870   4.347   4.021  0.3203 -0.2184  0.9660
  139OSM   H15T15103   3.702   4.374   3.974 -0.5899  0.4141  0.4507
  139OSM   C16S15104   3.777   4.515   4.122 -0.0877 -0.1722  0.1638
  139OSM   H16S15105   3.730   4.613   4.099  2.4842  1.4563  1.3072
  139OSM   H16T15106   3.874   4.531   4.174  1.0683 -3.6480 -0.6388
  139OSM   C17S15107   3.678   4.461   4.223  0.1475  0.5561 -0.5519
  139OSM   H17S15108   3.714   4.363   4.263  0.2880  0.7647 -0.1615
  139OSM   H17T15109   3.585   4.431   4.171 -0.4793  1.2618  0.1380
  139OSM   C18S15110   3.661   4.552   4.344 -0.1948 -0.4555  1.1708
  139OSM   H18S15111   3.565   4.543   4.399 -0.1440  0.2548  1.3862
  139OSM   H18T15112   3.666   4.655   4.303 -0.7160 -0.7971  0.2004
  139OSM   H18U15113   3.738   4.544   4.423 -1.0205  0.9717  2.1621
  139OSM    C1F15114   3.942   3.091   3.106  0.6522  0.0529  1.0421
  139OSM     OF15115   4.042   3.073   3.038  0.2948  0.2024  0.3546
  139OSM    C2F15116   3.898   2.987   3.205  0.2451  0.7848 -0.5103
  139OSM    H2F15117   3.799   2.951   3.168 -0.6377  1.6672  0.8898
  139OSM    H2G15118   3.862   3.034   3.299 -0.0394  0.2983 -0.3685
  139OSM    C3F15119   3.998   2.872   3.231  0.9333  0.2585  0.0016
  139OSM    H3F15120   4.027   2.821   3.136 -0.3956  0.0082 -0.2887
  139OSM    H3G15121   3.937   2.794   3.282  1.5659  0.1896  0.6579
  139OSM    C4F15122   4.117   2.899   3.320  0.3705 -0.4002 -0.0030
  139OSM    H4F15123   4.079   2.946   3.413 -1.4142  0.6604 -1.1958
  139OSM    H4G15124   4.180   2.973   3.266  0.9998  1.0600  2.5440
  139OSM    C5F15125   4.190   2.774   3.358  0.1558 -0.0006  0.0084
  139OSM    H5F15126   4.293   2.797   3.393 -0.2613  0.3443  1.0623
  139OSM    H5G15127   4.200   2.720   3.261 -2.8698  1.4542 -1.2668
  139OSM    C6F15128   4.122   2.691   3.461 -0.0705 -0.6169 -1.1904
  139OSM    H6F15129   4.171   2.592   3.455 -1.1943 -1.2534 -0.2115
  139OSM    H6G15130   4.014   2.679   3.436 -0.2938 -0.1839 -0.4667
  139OSM    C7F15131   4.127   2.755   3.604 -0.3477 -0.0338  0.4047
  139OSM    H7F15132   4.085   2.858   3.610 -0.3036 -0.0893  2.0942
  139OSM    H7G15133   4.233   2.777   3.631 -0.0747  0.1212 -0.7199
  139OSM    C8F15134   4.074   2.667   3.714 -0.1761  0.0307  0.0834
  139OSM    H8F15135   4.101   2.727   3.803  0.8275 -0.4200  0.0976
  139OSM    H8G15136   4.138   2.577   3.719  0.9065  0.7767  0.0172
  139OSM    C9F15137   3.929   2.632   3.710  0.7746 -0.0680 -0.4210
  139OSM    H9F15138   3.868   2.705   3.655  0.3894 -1.0857 -1.3809
  139OSM   C10F15139   3.867   2.516   3.741 -0.7512  0.3249  0.2224
  139OSM   H10F15140   3.759   2.503   3.722 -1.5883  0.7220  3.9397
  139OSM   C11F15141   3.921   2.402   3.820  0.5078 -0.2859  0.1310
  139OSM   H11F15142   4.014   2.437   3.870 -0.6856  2.5782  0.5379
  139OSM   H11G15143   3.939   2.315   3.754  0.5908 -0.6519  0.6264
  139OSM   C12F15144   3.805   2.366   3.919  0.2345  0.1250  0.8257
  139OSM   H12F15145   3.844   2.292   3.993  0.2685 -0.4941  0.2021
  139OSM   H12G15146   3.722   2.307   3.874  0.3123  1.2061 -0.7955
  139OSM   C13F15147   3.740   2.473   4.009  0.2520  0.0260  0.1678
  139OSM   H13F15148   3.636   2.438   4.025 -0.2496 -0.1015 -2.7777
  139OSM   H13G15149   3.751   2.571   3.958  0.5340  0.8487  1.7502
  139OSM   C14F15150   3.823   2.488   4.139  0.3053  0.4530  0.5311
  139OSM   H14F15151   3.817   2.395   4.199 -0.7747 -0.0722 -0.3657
  139OSM   H14G15152   3.773   2.557   4.210 -2.0213  1.9431 -2.3661
  139OSM   C15F15153   3.969   2.539   4.119 -0.6307  0.3441  0.0077
  139OSM   H15F15154   3.968   2.621   4.045  1.0617  0.6446  0.2682
  139OSM   H15G15155   4.046   2.465   4.088 -1.7092 -1.9357  2.2809
  139OSM   C16F15156   4.019   2.609   4.248 -0.0885 -0.1532  1.1369
  139OSM   H16F15157   4.025   2.532   4.328 -0.7188 -2.2498 -0.7515
  139OSM   H16G15158   3.941   2.682   4.279  0.0828  1.3790 -1.6685
  139OSM   C17F15159   4.155   2.682   4.247 -0.4552  0.4476  0.0805
  139OSM   H17F15160   4.228   2.600   4.227 -1.0660  0.5723 -3.2330
  139OSM   H17G15161   4.166   2.734   4.345 -2.7219  0.3432  0.4359
  139OSM   C18F15162   4.159   2.797   4.140  0.0059 -0.4781 -0.1267
  139OSM   H18F15163   4.264   2.831   4.132  0.0536 -0.7085 -0.5144
  139OSM   H18G15164   4.113   2.890   4.178  0.1204 -0.8673  1.0080
  139OSM   H18H15165   4.136   2.768   4.035 -0.7123 -0.6828  0.0834
  140OSM      N15166   2.341   5.021   2.110 -0.0035  0.7624  0.4049
  140OSM    C1515167   2.203   5.070   2.081  0.2267  0.0734 -0.7818
  140OSM   H15A15168   2.205   5.139   1.998  0.8121  0.8121 -0.1548
  140OSM   H15B15169   2.169   5.120   2.170  2.2618 -3.2619  2.1515
  140OSM   H15C15170   2.139   4.985   2.058  1.2983 -0.6483 -1.1433
  140OSM    C1415171   2.351   4.914   2.208  0.1240 -0.2456  0.2337
  140OSM   H14A15172   2.310   4.942   2.304  0.2256 -0.2615  0.2824
  140OSM   H14B15173   2.454   4.888   2.229 -0.1378  0.4763  2.7571
  140OSM   H14C15174   2.298   4.830   2.165 -0.1870  0.2293 -0.3139
  140OSM    C1315175   2.392   4.966   1.978  0.3084  0.1767 -0.8460
  140OSM   H13A15176   2.426   5.042   1.909  1.3002 -1.0091 -1.7122
  140OSM   H13B15177   2.312   4.916   1.925 -0.9510  0.6314  0.5724
  140OSM   H13C15178   2.473   4.898   1.999  1.1056  1.1422 -0.7481
  140OSM    C1215179   2.443   5.134   2.145 -1.0040  0.5428 -0.7394
  140OSM   H12A15180   2.434   5.202   2.062 -1.8594  2.1041  0.5768
  140OSM   H12B15181   2.542   5.093   2.157 -1.0063  0.7221 -0.0621
  140OSM    C1115182   2.415   5.225   2.277  0.3156  0.5433 -0.3484
  140OSM   H11A15183   2.493   5.301   2.296  1.4416 -0.7503  0.4497
  140OSM   H11B15184   2.410   5.153   2.362  1.9458  1.9103  0.9624
  140OSM      P15185   2.248   5.399   2.181  0.5622 -0.5874 -0.3983
  140OSM    O1315186   2.370   5.457   2.117  0.1323 -0.0901 -0.8383
  140OSM    O1415187   2.138   5.354   2.095 -0.5020 -0.2215  0.4207
  140OSM    O1115188   2.192   5.518   2.267 -0.6837  0.3677 -0.1375
  140OSM    O1215189   2.285   5.282   2.277 -0.1529  0.8514 -0.2250
  140OSM    C1S15190   2.087   5.497   2.362 -0.0705 -0.7675 -0.0341
  140OSM    H1S15191   2.028   5.408   2.333  0.3926 -1.0709 -0.0477
  140OSM    H1T15192   2.025   5.589   2.350  1.8227  0.5617 -0.0856
  140OSM     NF15193   2.022   5.429   2.605 -0.0786  0.4241  0.8103
  140OSM    HNF15194   1.986   5.488   2.677 -1.9630 -0.7578  0.9082
  140OSM    C2S15195   2.126   5.477   2.517 -0.2578 -0.0354  0.5856
  140OSM    H2S15196   2.196   5.391   2.514  1.6722  1.2721  3.7097
  140OSM    C3S15197   2.214   5.602   2.561  0.0629 -0.8336  0.2066
  140OSM    H3S15198   2.137   5.677   2.589 -0.1739  0.3020 -3.0629
  140OSM     O315199   2.288   5.662   2.460 -0.0737 -0.4296  0.2212
  140OSM    HO315200   2.249   5.611   2.388  0.1060  0.0404 -0.2147
  140OSM    C4S15201   2.286   5.581   2.697  0.2676  0.4662 -0.2459
  140OSM    H4S15202   2.231   5.631   2.778 -0.4306 -1.4127  0.4805
  140OSM    C5S15203   2.414   5.537   2.712  0.0750  0.1881  0.2034
  140OSM    H5S15204   2.464   5.503   2.621 -1.7346 -2.6639  0.1165
  140OSM    C6S15205   2.483   5.526   2.844 -0.0661 -0.3771 -0.2940
  140OSM    H6S15206   2.584   5.573   2.848 -0.5646  0.8421 -1.3890
  140OSM    H6T15207   2.492   5.419   2.873  1.4125  0.2917  2.0362
  140OSM    C7S15208   2.410   5.590   2.973  0.2595  0.1407 -0.0809
  140OSM    H7S15209   2.314   5.536   2.981  0.9304 -1.2211 -0.7336
  140OSM    H7T15210   2.400   5.700   2.960  0.2065  0.9971  5.2225
  140OSM    C8S15211   2.483   5.557   3.109 -0.2439 -0.0367  0.1180
  140OSM    H8S15212   2.571   5.624   3.100  0.2214  0.1036  4.0009
  140OSM    H8T15213   2.510   5.450   3.122  0.8496  0.3809  1.5296
  140OSM    C9S15214   2.409   5.614   3.230 -0.2195  0.4210 -0.3138
  140OSM    H9S15215   2.308   5.568   3.228  0.3023 -0.7675 -2.0605
  140OSM    H9T15216   2.400   5.724   3.222 -1.2529  0.3794  0.1840
  140OSM   C10S15217   2.473   5.570   3.362  0.0843 -0.2787  0.3210
  140OSM   H10S15218   2.577   5.607   3.371  0.2119 -0.5939  0.1513
  140OSM   H10T15219   2.477   5.460   3.379 -1.7140 -0.6025 -1.0785
  140OSM   C11S15220   2.396   5.633   3.482 -0.1593  0.3403  0.3027
  140OSM   H11S15221   2.296   5.586   3.493 -0.3551  0.0361 -2.0842
  140OSM   H11T15222   2.385   5.742   3.462  2.1044  0.7166  0.7775
  140OSM   C12S15223   2.476   5.606   3.609 -0.3893  0.6662 -0.4401
  140OSM   H12S15224   2.585   5.629   3.603 -0.2794  0.1459 -0.5550
  140OSM   H12T15225   2.479   5.497   3.633  1.5416  0.7498 -0.0823
  140OSM   C13S15226   2.424   5.681   3.728 -0.3446 -0.5261 -0.1870
  140OSM   H13S15227   2.320   5.658   3.760 -1.1142 -0.6156 -2.5734
  140OSM   H13T15228   2.397   5.785   3.703  0.1318 -0.0490  1.1917
  140OSM   C14S15229   2.522   5.658   3.850 -0.4569  0.0196  0.1575
  140OSM   H14S15230   2.605   5.730   3.831 -1.0365  0.9159  0.9137
  140OSM   H14T15231   2.562   5.554   3.849 -0.4275  0.0165  1.0120
  140OSM   C15S15232   2.462   5.698   3.990 -0.2676  0.3064  0.0188
  140OSM   H15S15233   2.550   5.696   4.058 -0.1829 -1.8794 -0.1054
  140OSM   H15T15234   2.396   5.613   4.016  0.8758 -1.7969 -3.3146
  140OSM   C16S15235   2.389   5.832   4.004 -0.0233 -0.1670  0.3292
  140OSM   H16S15236   2.288   5.821   3.958 -0.5649  1.0843  1.1922
  140OSM   H16T15237   2.444   5.918   3.961 -0.6556  1.1078  2.0126
  140OSM   C17S15238   2.355   5.862   4.152  0.2008 -0.0690 -0.0379
  140OSM   H17S15239   2.451   5.854   4.209  0.1487 -1.6313 -0.1500
  140OSM   H17T15240   2.299   5.778   4.198  1.8319 -0.0516  2.1242
  140OSM   C18S15241   2.279   5.991   4.170 -1.0500 -1.0196 -0.5725
  140OSM   H18S15242   2.268   6.023   4.275 -1.3414 -3.7253  0.2995
  140OSM   H18T15243   2.176   5.990   4.127 -1.8325  1.0027  1.1014
  140OSM   H18U15244   2.341   6.065   4.115 -0.3609 -1.4856 -0.4301
  140OSM    C1F15245   1.952   5.322   2.585  0.5381  0.1554 -0.4300
  140OSM     OF15246   1.970   5.253   2.487 -0.1781 -0.5424 -0.5677
  140OSM    C2F15247   1.844   5.290   2.686  1.1391 -0.3789  0.0999
  140OSM    H2F15248   1.743   5.270   2.643 -0.6863 -1.1110  4.2871
  140OSM    H2G15249   1.819   5.376   2.751 -0.2606 -0.4928 -0.2463
  140OSM    C3F15250   1.883   5.179   2.782 -0.3657  0.0725 -0.0525
  140OSM    H3F15251   1.983   5.203   2.824 -1.3486 -2.4536  4.3107
  140OSM    H3G15252   1.899   5.076   2.743 -0.0777 -0.0970  0.5046
  140OSM    C4F15253   1.799   5.166   2.913 -0.1261  0.2735 -0.1836
  140OSM    H4F15254   1.690   5.171   2.892 -0.7747  1.7441  2.9157
  140OSM    H4G15255   1.831   5.255   2.971  0.6739 -0.4434  0.4901
  140OSM    C5F15256   1.825   5.044   3.001 -0.1849  0.5290  0.1318
  140OSM    H5F15257   1.934   5.028   3.014 -0.4895 -1.4566  0.5124
  140OSM    H5G15258   1.796   4.955   2.942  3.6720  0.1636 -1.4463
  140OSM    C6F15259   1.739   5.053   3.128 -0.1238  0.2462 -0.0018
  140OSM    H6F15260   1.633   5.021   3.118  0.2202 -0.5095 -1.5266
  140OSM    H6G15261   1.742   5.157   3.168 -0.7198  0.7479 -1.2106
  140OSM    C7F15262   1.799   4.957   3.243  0.1542  0.2226  0.5661
  140OSM    H7F15263   1.905   4.986   3.228 -0.2348  0.8321 -1.3557
  140OSM    H7G15264   1.781   4.849   3.222 -1.9794  0.0604  2.8213
  140OSM    C8F15265   1.740   4.981   3.384  0.3193  0.0075  0.7397
  140OSM    H8F15266   1.632   4.958   3.392  0.3057 -1.3847 -2.0322
  140OSM    H8G15267   1.748   5.090   3.402  0.4551  0.2255 -0.5285
  140OSM    C9F15268   1.806   4.890   3.480 -0.4755 -1.1871 -0.0135
  140OSM    H9F15269   1.886   4.829   3.434  1.6005 -0.2775  2.1378
  140OSM   C10F15270   1.791   4.895   3.618 -0.3017  0.5986  0.2501
  140OSM   H10F15271   1.852   4.826   3.679  1.7681  2.3489  0.2901
  140OSM   C11F15272   1.693   4.981   3.692  0.3153 -0.9592  0.4428
  140OSM   H11F15273   1.641   5.046   3.618  1.1437 -1.5219 -0.6775
  140OSM   H11G15274   1.746   5.049   3.762 -1.7914  2.0786 -0.7076
  140OSM   C12F15275   1.585   4.903   3.770  0.7496  0.6022  0.5737
  140OSM   H12F15276   1.510   4.853   3.704  1.3623 -0.1564  0.4312
  140OSM   H12G15277   1.534   4.992   3.812  0.4644  0.4568  0.5396
  140OSM   C13F15278   1.628   4.804   3.878 -1.1289  0.0262  0.1346
  140OSM   H13F15279   1.687   4.862   3.951  0.8922 -2.2346  0.4024
  140OSM   H13G15280   1.695   4.720   3.851  0.9657  0.7540  2.6549
  140OSM   C14F15281   1.504   4.741   3.927 -0.3802  0.5597 -0.0509
  140OSM   H14F15282   1.459   4.679   3.847  0.8666  2.1726 -2.1270
  140OSM   H14G15283   1.438   4.829   3.946  1.0893  1.3675  1.5974
  140OSM   C15F15284   1.520   4.650   4.056 -0.2424  0.5453  0.3425
  140OSM   H15F15285   1.598   4.696   4.121  1.2692 -1.4977  0.1027
  140OSM   H15G15286   1.570   4.553   4.033  1.8431  2.0381 -1.8735
  140OSM   C16F15287   1.389   4.619   4.131  0.6402 -0.0610  0.8363
  140OSM   H16F15288   1.313   4.581   4.060  0.5344 -0.2866  1.0696
  140OSM   H16G15289   1.362   4.718   4.175  0.3957  0.5736 -0.7048
  140OSM   C17F15290   1.399   4.521   4.250 -0.3078 -0.5400 -0.7762
  140OSM   H17F15291   1.468   4.565   4.326 -0.7047  0.6862 -1.1076
  140OSM   H17G15292   1.445   4.424   4.222 -2.5412 -1.5218 -1.2042
  140OSM   C18F15293   1.252   4.494   4.296  0.1535  0.0662  0.4934
  140OSM   H18F15294   1.201   4.436   4.215 -1.1554 -1.0496  2.0538
  140OSM   H18G15295   1.191   4.586   4.310 -1.7890 -1.1695  0.5843
  140OSM   H18H15296   1.255   4.442   4.394 -0.5235  0.8830  0.9546
  141OSM      N15297   4.289   6.450   2.257 -0.1188 -0.1892  0.1476
  141OSM    C1515298   4.224   6.549   2.344 -0.2007 -0.8654 -0.3160
  141OSM   H15A15299   4.153   6.500   2.409 -0.8389 -0.3495 -0.6085
  141OSM   H15B15300   4.179   6.630   2.288  1.9490  1.4802  1.1077
  141OSM   H15C15301   4.294   6.592   2.415  0.2773 -1.3012 -0.5176
  141OSM    C1415302   4.197   6.407   2.151  0.2794  0.7557  0.4172
  141OSM   H14A15303   4.251   6.331   2.097  1.4750  0.7482  1.5681
  141OSM   H14B15304   4.180   6.496   2.092 -2.3769  1.0003  1.4210
  141OSM   H14C15305   4.105   6.375   2.197 -0.0090  3.2918  1.8259
  141OSM    C1315306   4.412   6.516   2.199  0.3014 -0.1106 -0.1328
  141OSM   H13A15307   4.478   6.556   2.274  0.8423 -0.8698 -0.1857
  141OSM   H13B15308   4.379   6.593   2.131  0.6177  1.1706  1.1220
  141OSM   H13C15309   4.470   6.436   2.155 -2.7667 -2.0438 -1.0003
  141OSM    C1215310   4.333   6.333   2.336  0.2077 -0.9767  0.4601
  141OSM   H12A15311   4.249   6.303   2.397  0.8710 -1.5041  1.1328
  141OSM   H12B15312   4.415   6.363   2.399  0.8850 -0.1683 -0.7577
  141OSM    C1115313   4.384   6.203   2.250 -0.2846  0.4821  0.9132
  141OSM   H11A15314   4.303   6.154   2.192  0.9050 -0.1287 -0.2711
  141OSM   H11B15315   4.422   6.127   2.322  0.3975  0.1555  0.2169
  141OSM      P15316   4.624   6.184   2.156 -0.2630 -0.3614 -0.0019
  141OSM    O1315317   4.613   6.048   2.092  0.1674  0.3095  0.2194
  141OSM    O1415318   4.717   6.278   2.093 -0.1895  0.2201  0.2989
  141OSM    O1115319   4.654   6.183   2.308 -0.1721  0.3103 -0.4078
  141OSM    O1215320   4.489   6.251   2.153  0.4544  0.0594 -0.4797
  141OSM    C1S15321   4.780   6.186   2.374  0.8657  0.4999  0.0877
  141OSM    H1S15322   4.874   6.182   2.315  2.1805  0.6176  2.0844
  141OSM    H1T15323   4.784   6.095   2.437  1.6657  0.2701 -0.2897
  141OSM     NF15324   4.929   6.313   2.532 -0.0406 -0.3591 -0.2893
  141OSM    HNF15325   4.942   6.294   2.629  0.4181  0.0452 -0.2664
  141OSM    C2S15326   4.801   6.308   2.470  0.2333 -0.3634 -0.0271
  141OSM    H2S15327   4.785   6.399   2.409  2.1294 -0.6581 -1.0330
  141OSM    C3S15328   4.691   6.316   2.572  0.0207  0.4355 -0.1469
  141OSM    H3S15329   4.720   6.240   2.648 -1.4136  0.0943  0.0955
  141OSM     O315330   4.563   6.282   2.529  0.3228 -0.0893  0.3454
  141OSM    HO315331   4.585   6.252   2.440  4.6921 -0.7871  1.3906
  141OSM    C4S15332   4.693   6.449   2.643 -0.0385 -0.1449 -0.1453
  141OSM    H4S15333   4.662   6.537   2.583 -1.4616 -0.9120 -0.5685
  141OSM    C5S15334   4.740   6.467   2.766  0.2691  0.0476 -0.5060
  141OSM    H5S15335   4.787   6.382   2.818  1.6155  2.2995  2.2298
  141OSM    C6S15336   4.751   6.595   2.844 -0.0940  0.1102  0.0882
  141OSM    H6S15337   4.735   6.680   2.773  3.7728  0.7117 -0.2554
  141OSM    H6T15338   4.855   6.607   2.878 -0.8579  0.0766  2.5989
  141OSM    C7S15339   4.645   6.591   2.954 -0.6560  0.2589  0.4132
  141OSM    H7S15340   4.651   6.493   3.005  1.1856  0.3377  0.4307
  141OSM    H7T15341   4.542   6.603   2.915 -0.2455  0.4848 -0.6481
  141OSM    C8S15342   4.656   6.711   3.050 -0.1855  0.2941 -0.4431
  141OSM    H8S15343   4.612   6.805   3.011 -1.3614  0.4919  1.2470
  141OSM    H8T15344   4.763   6.728   3.073 -0.0481  1.0218 -1.5841
  141OSM    C9S15345   4.585   6.686   3.180  0.0318  0.0068 -0.3067
  141OSM    H9S15346   4.619   6.586   3.215 -3.0007 -1.1046 -0.2295
  141OSM    H9T15347   4.474   6.688   3.171 -0.0041 -0.2274  0.0644
  141OSM   C10S15348   4.613   6.778   3.301 -0.1939  0.3412 -0.0991
  141OSM   H10S15349   4.581   6.877   3.263 -0.4704 -0.3012 -1.6162
  141OSM   H10T15350   4.724   6.782   3.309 -0.1211 -1.9919  0.6849
  141OSM   C11S15351   4.556   6.739   3.437 -0.4143 -0.0036 -0.2506
  141OSM   H11S15352   4.585   6.634   3.462 -0.2445  0.3663  1.2010
  141OSM   H11T15353   4.445   6.742   3.439 -0.4001  0.0603  0.5350
  141OSM   C12S15354   4.599   6.833   3.555 -0.2311  0.2772  0.5275
  141OSM   H12S15355   4.561   6.937   3.540 -0.0494  0.0450 -1.9775
  141OSM   H12T15356   4.710   6.837   3.567  0.0954 -0.3352 -1.7830
  141OSM   C13S15357   4.541   6.785   3.687  0.5057  0.3667  0.0268
  141OSM   H13S15358   4.577   6.681   3.680 -0.4119  0.0215  0.3129
  141OSM   H13T15359   4.430   6.790   3.688  0.3568 -1.7341  2.3811
  141OSM   C14S15360   4.604   6.852   3.810 -0.2626  0.4178  0.0330
  141OSM   H14S15361   4.611   6.963   3.809 -0.3941  0.4246 -0.3065
  141OSM   H14T15362   4.710   6.819   3.812 -0.1186  0.7041 -1.6103
  141OSM   C15S15363   4.538   6.818   3.943 -0.1304  0.4837 -0.3485
  141OSM   H15S15364   4.606   6.858   4.021 -0.7370  2.4362 -0.7708
  141OSM   H15T15365   4.542   6.707   3.953  1.9590  0.5947  0.4549
  141OSM   C16S15366   4.400   6.874   3.968  0.3754  0.3829  1.0640
  141OSM   H16S15367   4.326   6.823   3.902  0.5431  1.5876 -0.0983
  141OSM   H16T15368   4.409   6.982   3.947 -1.0297  0.2372 -0.5185
  141OSM   C17S15369   4.348   6.856   4.108 -0.3277  0.1963 -0.1869
  141OSM   H17S15370   4.433   6.880   4.176 -1.1793  0.5371  0.7895
  141OSM   H17T15371   4.331   6.748   4.123  0.3042  0.2040  0.6458
  141OSM   C18S15372   4.232   6.939   4.143  0.6209  0.1652 -0.4568
  141OSM   H18S15373   4.222   6.958   4.252 -0.3243  0.3206 -0.5540
  141OSM   H18T15374   4.138   6.886   4.116  0.5592 -0.0704  0.2066
  141OSM   H18U15375   4.233   7.038   4.093  2.9734  0.6518  0.4403
  141OSM    C1F15376   5.033   6.338   2.453 -0.0132  0.3317 -0.3352
  141OSM     OF15377   5.021   6.379   2.337  0.0044 -0.6403 -0.9379
  141OSM    C2F15378   5.170   6.323   2.508 -0.0082 -1.0960 -0.1681
  141OSM    H2F15379   5.167   6.225   2.562  0.3173 -1.5022 -0.8813
  141OSM    H2G15380   5.188   6.401   2.586  2.1673 -0.6619 -1.0291
  141OSM    C3F15381   5.292   6.318   2.412 -0.1572  0.1448  0.4971
  141OSM    H3F15382   5.304   6.396   2.334  0.7139 -0.1067  0.3678
  141OSM    H3G15383   5.279   6.229   2.347 -0.4190  0.9321 -0.5541
  141OSM    C4F15384   5.428   6.301   2.485  0.1807  0.2895  0.0012
  141OSM    H4F15385   5.503   6.278   2.407 -0.9413 -1.6661 -0.5606
  141OSM    H4G15386   5.411   6.209   2.545 -2.1957 -0.1187 -1.2126
  141OSM    C5F15387   5.469   6.415   2.574  0.3195  0.4999  0.7860
  141OSM    H5F15388   5.388   6.468   2.629  1.1400  0.1441  2.4019
  141OSM    H5G15389   5.521   6.490   2.510  2.8221  0.9479  3.1608
  141OSM    C6F15390   5.569   6.374   2.689  0.7385  0.5341 -0.1531
  141OSM    H6F15391   5.606   6.454   2.758  0.9460  1.1387 -0.9519
  141OSM    H6G15392   5.660   6.339   2.635 -0.3891  0.1238 -1.8578
  141OSM    C7F15393   5.523   6.254   2.777  0.5529  0.2676 -0.1522
  141OSM    H7F15394   5.617   6.222   2.827  0.4901  0.5932  0.1772
  141OSM    H7G15395   5.507   6.164   2.713 -1.8616  0.7940 -0.3927
  141OSM    C8F15396   5.416   6.281   2.875 -0.1313 -0.5227 -0.0287
  141OSM    H8F15397   5.328   6.319   2.819  0.0741 -0.4522 -0.3056
  141OSM    H8G15398   5.444   6.373   2.931 -1.3258  0.1926 -0.5512
  141OSM    C9F15399   5.387   6.172   2.972  0.9371 -0.3753  0.2973
  141OSM    H9F15400   5.304   6.108   2.936 -0.3111  1.4623 -0.2096
  141OSM   C10F15401   5.444   6.160   3.088 -0.3443  0.1911 -0.0371
  141OSM   H10F15402   5.405   6.078   3.150 -1.1776  0.5208 -0.1124
  141OSM   C11F15403   5.542   6.247   3.165 -0.1085  1.3489  0.2696
  141OSM   H11F15404   5.571   6.323   3.089  0.7605  1.6039  0.8408
  141OSM   H11G15405   5.637   6.195   3.187 -0.6160 -0.1382 -0.8895
  141OSM   C12F15406   5.485   6.306   3.299 -1.1893 -0.7146 -0.0695
  141OSM   H12F15407   5.386   6.351   3.281 -1.3594 -0.7177  0.7867
  141OSM   H12G15408   5.554   6.387   3.331  0.1019 -2.2471  1.3010
  141OSM   C13F15409   5.473   6.213   3.421 -0.7009 -0.1394  0.2733
  141OSM   H13F15410   5.576   6.181   3.448 -1.1791 -1.2273  0.9315
  141OSM   H13G15411   5.413   6.119   3.410 -3.3774  1.3377  1.3006
  141OSM   C14F15412   5.422   6.282   3.538  0.3373 -0.6576 -0.5438
  141OSM   H14F15413   5.462   6.385   3.549 -0.7350 -0.2968  0.2040
  141OSM   H14G15414   5.465   6.233   3.628 -0.6834 -1.8346 -0.6626
  141OSM   C15F15415   5.267   6.293   3.540 -0.2305  0.3055 -0.7195
  141OSM   H15F15416   5.233   6.190   3.515 -0.8939  0.2153  0.4541
  141OSM   H15G15417   5.221   6.366   3.470  1.0951  1.4507 -0.4178
  141OSM   C16F15418   5.227   6.318   3.687  0.3085  0.0320  0.0394
  141OSM   H16F15419   5.275   6.238   3.747 -2.4299 -1.5517  0.3107
  141OSM   H16G15420   5.116   6.315   3.694  0.2778 -0.7015 -0.6230
  141OSM   C17F15421   5.255   6.465   3.737 -0.3060  0.4705 -0.4094
  141OSM   H17F15422   5.170   6.526   3.699 -0.1437 -0.9719 -3.4394
  141OSM   H17G15423   5.344   6.516   3.694  0.1817 -0.2702 -0.2902
  141OSM   C18F15424   5.260   6.466   3.890  0.0522 -0.3397  0.1164
  141OSM   H18F15425   5.181   6.404   3.938 -1.5922 -0.5974 -2.7107
  141OSM   H18G15426   5.246   6.569   3.930 -1.4135 -0.3699 -0.2610
  141OSM   H18H15427   5.358   6.431   3.927 -0.3599 -1.1287  0.4803
  142OSM      N15428   5.073   1.184   2.121 -0.1028 -0.2799  0.3168
  142OSM    C1515429   5.050   1.262   1.994 -0.3191 -0.4530  0.6379
  142OSM   H15A15430   5.130   1.326   1.959 -1.0618  1.4228  2.2177
  142OSM   H15B15431   4.969   1.332   2.003 -0.2404 -0.3527  0.5713
  142OSM   H15C15432   5.011   1.203   1.913 -0.6320 -0.7151  0.9730
  142OSM    C1415433   5.118   1.278   2.234  0.8479  0.7161  0.9170
  142OSM   H14A15434   5.050   1.362   2.233 -0.0645 -0.0219 -0.4087
  142OSM   H14B15435   5.217   1.317   2.214  0.1946  2.5401  0.9947
  142OSM   H14C15436   5.101   1.237   2.332 -2.3059  1.0001  0.5865
  142OSM    C1315437   4.952   1.120   2.177  0.2609  0.2728 -0.1438
  142OSM   H13A15438   4.990   1.060   2.258 -0.8179 -1.5726 -0.9467
  142OSM   H13B15439   4.901   1.058   2.105 -1.8256  0.9667  0.6522
  142OSM   H13C15440   4.876   1.194   2.199  0.9885  1.2653 -0.9008
  142OSM    C1215441   5.186   1.087   2.099  0.0093 -0.2897 -0.1482
  142OSM   H12A15442   5.272   1.142   2.062 -2.0210  1.1414 -3.1788
  142OSM   H12B15443   5.155   1.022   2.019  1.4519  0.1440 -1.1073
  142OSM    C1115444   5.247   1.011   2.227  0.0736  0.2336  0.3003
  142OSM   H11A15445   5.294   1.078   2.302 -1.7928  0.2836  1.4880
  142OSM   H11B15446   5.329   0.942   2.198 -1.0352 -0.9483 -0.1116
  142OSM      P15447   5.134   0.793   2.273 -0.3985  0.2554  0.1818
  142OSM    O1315448   5.006   0.754   2.321  0.4411  0.2537 -0.1378
  142OSM    O1415449   5.168   0.766   2.132 -1.1570  0.1262 -0.0419
  142OSM    O1115450   5.252   0.742   2.361 -0.5441  0.6250 -0.0637
  142OSM    O1215451   5.143   0.944   2.291  0.2701 -0.7870 -0.0429
  142OSM    C1S15452   5.285   0.796   2.488  0.4373  0.3393  0.1041
  142OSM    H1S15453   5.217   0.748   2.561  1.1246  0.4744  0.8504
  142OSM    H1T15454   5.271   0.905   2.505 -0.2732 -0.1483  3.4285
  142OSM     NF15455   5.463   0.778   2.664 -0.3149  0.6372 -0.6441
  142OSM    HNF15456   5.530   0.850   2.681  1.3648 -1.1083  0.6268
  142OSM    C2S15457   5.426   0.753   2.529 -0.5738  0.5487 -0.0292
  142OSM    H2S15458   5.428   0.642   2.528  0.4817  0.5610 -0.2600
  142OSM    C3S15459   5.532   0.803   2.425 -0.0166  0.2714  0.3503
  142OSM    H3S15460   5.533   0.914   2.423 -1.2168  0.4151 -4.6418
  142OSM     O315461   5.504   0.746   2.298 -0.4501 -0.3905 -0.0079
  142OSM    HO315462   5.412   0.723   2.317 -0.3699 -0.1370  0.7258
  142OSM    C4S15463   5.671   0.761   2.464  0.2394  0.0897 -0.3837
  142OSM    H4S15464   5.689   0.662   2.507  1.4175 -0.4165 -1.9189
  142OSM    C5S15465   5.773   0.848   2.470 -0.7581 -0.7054  0.6859
  142OSM    H5S15466   5.758   0.953   2.441  1.1680 -1.0456 -1.9053
  142OSM    C6S15467   5.906   0.814   2.526 -0.5722  0.3655  0.2929
  142OSM    H6S15468   5.956   0.913   2.536 -2.6470  1.6951 -1.5697
  142OSM    H6T15469   5.970   0.748   2.464 -1.3890  0.3803 -0.5893
  142OSM    C7S15470   5.923   0.749   2.663 -0.7088  0.2747 -0.2440
  142OSM    H7S15471   6.032   0.735   2.678 -0.9722 -2.8721 -0.4566
  142OSM    H7T15472   5.875   0.648   2.661  1.2697 -0.7595  1.3731
  142OSM    C8S15473   5.867   0.832   2.779 -0.2812 -0.3450  0.3533
  142OSM    H8S15474   5.765   0.853   2.741  1.6825  2.3830 -4.3798
  142OSM    H8T15475   5.908   0.935   2.771 -0.7852 -0.2603 -1.8549
  142OSM    C9S15476   5.871   0.755   2.906  0.4298  0.3662 -0.0190
  142OSM    H9S15477   5.971   0.710   2.921  0.5589 -0.6038 -3.1154
  142OSM    H9T15478   5.807   0.664   2.894  0.4740  0.4081 -0.6317
  142OSM   C10S15479   5.822   0.831   3.022  0.1523 -0.1595 -0.2908
  142OSM   H10S15480   5.715   0.853   3.005 -0.4012 -1.3792  1.3249
  142OSM   H10T15481   5.885   0.922   3.032  0.6481 -0.3586 -1.4204
  142OSM   C11S15482   5.826   0.744   3.148 -0.0531 -0.3603  0.8448
  142OSM   H11S15483   5.925   0.694   3.156 -0.2809 -1.0428 -0.3784
  142OSM   H11T15484   5.750   0.664   3.147 -0.2746 -0.1593 -0.5647
  142OSM   C12S15485   5.802   0.831   3.279  0.2197  0.2026  0.1369
  142OSM   H12S15486   5.707   0.888   3.274  1.1246  1.6390 -1.7418
  142OSM   H12T15487   5.881   0.909   3.292 -1.3235  1.7378  0.5926
  142OSM   C13S15488   5.802   0.747   3.399  0.3525  0.0964  0.5231
  142OSM   H13S15489   5.872   0.662   3.381  2.0672  0.9829  2.6117
  142OSM   H13T15490   5.703   0.697   3.410  0.2685  0.0437 -0.3526
  142OSM   C14S15491   5.844   0.815   3.538 -0.1105 -0.1984  0.8086
  142OSM   H14S15492   5.769   0.895   3.558  0.9456  0.5770  1.8342
  142OSM   H14T15493   5.942   0.867   3.548  0.2195 -0.6833  0.1711
  142OSM   C15S15494   5.837   0.710   3.654  0.8740 -0.2789  0.1466
  142OSM   H15S15495   5.897   0.622   3.624 -0.1448 -0.4002 -1.6875
  142OSM   H15T15496   5.734   0.669   3.659  2.4427 -4.7721  0.6721
  142OSM   C16S15497   5.879   0.778   3.785  0.4878 -0.4470  1.3431
  142OSM   H16S15498   5.808   0.860   3.809  1.4773  0.7552  0.3164
  142OSM   H16T15499   5.980   0.817   3.762 -0.2202  1.6238  1.5199
  142OSM   C17S15500   5.892   0.683   3.906  0.4510  0.1514  0.3040
  142OSM   H17S15501   5.966   0.604   3.880  0.6226 -0.1076  1.5195
  142OSM   H17T15502   5.800   0.633   3.942 -0.1159  1.0167  0.1013
  142OSM   C18S15503   5.946   0.759   4.030 -0.0460  0.4805  0.3449
  142OSM   H18S15504   5.983   0.681   4.100 -0.1627  0.2113  0.1105
  142OSM   H18T15505   5.857   0.811   4.072 -0.9639 -2.1714  1.9034
  142OSM   H18U15506   6.018   0.830   3.984  0.7541 -0.6455 -0.2005
  142OSM    C1F15507   5.401   0.734   2.771 -0.4417 -0.3909 -0.2335
  142OSM     OF15508   5.304   0.663   2.760  0.3814  0.8817  0.3753
  142OSM    C2F15509   5.463   0.784   2.908  0.5366  0.2055 -0.4162
  142OSM    H2F15510   5.469   0.893   2.887 -1.5922  0.3938 -0.2506
  142OSM    H2G15511   5.566   0.742   2.915  0.4224  0.0029  0.0752
  142OSM    C3F15512   5.372   0.743   3.026  0.1718  0.6261 -0.6128
  142OSM    H3F15513   5.369   0.632   3.027  1.5417  0.5534  1.4755
  142OSM    H3G15514   5.269   0.785   3.021  0.1760  0.8064  0.4032
  142OSM    C4F15515   5.434   0.801   3.161 -0.2895 -0.5166 -0.0454
  142OSM    H4F15516   5.421   0.911   3.168 -3.1653 -0.8671  1.4569
  142OSM    H4G15517   5.542   0.775   3.161  0.0948  0.9269 -1.4884
  142OSM    C5F15518   5.375   0.738   3.282  0.2425  0.0349  0.5921
  142OSM    H5F15519   5.424   0.638   3.286 -1.4623 -1.0274 -2.4111
  142OSM    H5G15520   5.264   0.732   3.281  0.1225  1.5032  1.2952
  142OSM    C6F15521   5.408   0.829   3.412 -0.7629  0.9023  0.5337
  142OSM    H6F15522   5.339   0.916   3.418 -0.4742  1.4318 -2.3094
  142OSM    H6G15523   5.509   0.870   3.391 -1.2053  1.3753 -0.8228
  142OSM    C7F15524   5.413   0.749   3.544 -0.2654 -0.1582  0.3439
  142OSM    H7F15525   5.484   0.665   3.528  2.1489  1.8577 -0.1968
  142OSM    H7G15526   5.309   0.718   3.566 -0.7716 -0.3944 -2.1254
  142OSM    C8F15527   5.491   0.823   3.661  0.6965  0.6608  0.7859
  142OSM    H8F15528   5.560   0.897   3.615  0.2123  2.0676  2.2454
  142OSM    H8G15529   5.555   0.756   3.723 -0.7626 -0.6359  0.9552
  142OSM    C9F15530   5.396   0.908   3.738 -0.7988 -0.3907 -0.1331
  142OSM    H9F15531   5.372   1.005   3.690  1.4952  0.3513  0.1095
  142OSM   C10F15532   5.352   0.879   3.862  0.3386  0.2439 -0.5365
  142OSM   H10F15533   5.289   0.938   3.930  0.9977 -1.4738  1.6784
  142OSM   C11F15534   5.402   0.749   3.933  0.3443 -0.4021 -0.3220
  142OSM   H11F15535   5.430   0.676   3.854 -0.7889  0.5187 -1.6278
  142OSM   H11G15536   5.310   0.705   3.976 -0.5285  2.1702  0.6364
  142OSM   C12F15537   5.508   0.774   4.046  0.4135  0.2633 -1.1535
  142OSM   H12F15538   5.601   0.817   4.003  0.6014 -0.1182 -1.1322
  142OSM   H12G15539   5.551   0.679   4.084 -1.7994  0.4088  2.1525
  142OSM   C13F15540   5.453   0.854   4.164 -1.1943  0.0112  0.1601
  142OSM   H13F15541   5.353   0.813   4.190 -1.4613  0.7101  0.2571
  142OSM   H13G15542   5.441   0.956   4.122  0.2903 -1.0083 -3.0499
  142OSM   C14F15543   5.545   0.872   4.286  0.1460 -1.0022  0.3929
  142OSM   H14F15544   5.646   0.880   4.240  0.9281 -0.8534  2.0596
  142OSM   H14G15545   5.549   0.787   4.356 -0.0981 -1.0750  0.3199
  142OSM   C15F15546   5.522   0.998   4.373 -0.5422 -0.3511  0.1888
  142OSM   H15F15547   5.532   1.091   4.313 -1.3041 -0.3648  0.0289
  142OSM   H15G15548   5.597   1.004   4.455  1.7731  1.8561 -1.9219
  142OSM   C16F15549   5.384   1.003   4.443  0.0748  0.2469 -0.1706
  142OSM   H16F15550   5.376   0.915   4.511  1.2212 -1.5254 -2.1776
  142OSM   H16G15551   5.296   0.987   4.376 -0.8360  1.2820  0.7482
  142OSM   C17F15552   5.372   1.129   4.534 -0.8692 -0.0724  0.7396
  142OSM   H17F15553   5.330   1.217   4.481  0.8235  0.7650  0.7071
  142OSM   H17G15554   5.469   1.156   4.582  0.0290 -0.2910 -0.8919
  142OSM   C18F15555   5.269   1.107   4.646 -0.3458 -0.0987 -0.1443
  142OSM   H18F15556   5.167   1.080   4.611  0.0365  0.3717 -1.6772
  142OSM   H18G15557   5.269   1.192   4.717 -3.4753 -1.0042  1.1170
  142OSM   H18H15558   5.302   1.026   4.714 -1.0208 -0.0351  0.2751
  143OSM      N15559   5.751   6.692   1.775 -0.2474  0.7698 -0.6173
  143OSM    C1515560   5.754   6.690   1.624  0.0651  0.2401 -0.8659
  143OSM   H15A15561   5.838   6.633   1.586  1.0018  0.6070  0.5613
  143OSM   H15B15562   5.759   6.791   1.587 -0.2571  1.0953  1.2662
  143OSM   H15C15563   5.668   6.629   1.601 -0.9053  1.2997 -0.1388
  143OSM    C1415564   5.777   6.549   1.819  0.6008  0.1866  0.1207
  143OSM   H14A15565   5.681   6.498   1.823 -1.4608  3.7859  2.1312
  143OSM   H14B15566   5.827   6.532   1.913  1.2981 -1.0131 -0.4442
  143OSM   H14C15567   5.835   6.503   1.741  0.2535  0.4405 -0.2924
  143OSM    C1315568   5.877   6.765   1.810  0.2076 -0.2268 -0.8146
  143OSM   H13A15569   5.883   6.766   1.918 -1.3856 -0.7681 -0.6912
  143OSM   H13B15570   5.860   6.869   1.787 -0.8340  0.7072  3.3133
  143OSM   H13C15571   5.962   6.715   1.767 -1.0260 -1.3376 -2.0913
  143OSM    C1215572   5.621   6.745   1.835  0.0029  0.2800  0.2409
  143OSM   H12A15573   5.535   6.691   1.800 -0.1540  0.5452  0.2090
  143OSM   H12B15574   5.612   6.845   1.795  0.2766 -0.3474 -1.4351
  143OSM    C1115575   5.621   6.753   1.989  0.1135 -0.3718 -0.8661
  143OSM   H11A15576   5.638   6.653   2.034 -1.5194 -0.4427 -0.3357
  143OSM   H11B15577   5.527   6.787   2.036  0.3896 -0.4981 -0.2179
  143OSM      P15578   5.717   6.999   2.024  0.1732 -0.0143  0.3224
  143OSM    O1315579   5.843   7.041   1.960  0.0804 -0.3050 -0.2023
  143OSM    O1415580   5.592   7.035   1.954  0.3661 -0.5530 -0.2188
  143OSM    O1115581   5.713   7.049   2.173  0.1251 -0.2732 -0.0628
  143OSM    O1215582   5.727   6.842   2.036 -0.1015  0.2685 -0.5030
  143OSM    C1S15583   5.598   7.015   2.254 -0.5584  0.0214  1.3522
  143OSM    H1S15584   5.599   6.904   2.252 -0.0427  0.0258  0.8092
  143OSM    H1T15585   5.502   7.068   2.239  0.0051  1.8704  3.7290
  143OSM     NF15586   5.522   6.975   2.478  0.3052  0.1544  0.0833
  143OSM    HNF15587   5.457   7.034   2.526  0.5862 -0.6224  1.4908
  143OSM    C2S15588   5.629   7.036   2.401 -0.1409 -0.0863 -0.6440
  143OSM    H2S15589   5.725   6.982   2.416  0.4242  0.4274 -2.2502
  143OSM    C3S15590   5.653   7.193   2.427 -0.1044  0.2602  0.4606
  143OSM    H3S15591   5.553   7.240   2.429  0.4168  1.3715  1.1410
  143OSM     O315592   5.726   7.254   2.330  0.0487  0.1909  0.4323
  143OSM    HO315593   5.734   7.179   2.271 -1.0219  1.2217 -1.0741
  143OSM    C4S15594   5.717   7.195   2.561 -0.4010 -0.3180 -0.3595
  143OSM    H4S15595   5.820   7.156   2.559 -0.3047 -0.0456 -0.9421
  143OSM    C5S15596   5.688   7.251   2.680  0.4034  0.0955 -0.0010
  143OSM    H5S15597   5.591   7.299   2.703  1.1780  0.7747  2.1067
  143OSM    C6S15598   5.772   7.229   2.806  0.6233 -0.3624  0.6312
  143OSM    H6S15599   5.860   7.298   2.803 -1.1869  2.0626 -0.9995
  143OSM    H6T15600   5.799   7.121   2.811  2.1837 -0.0078  0.6105
  143OSM    C7S15601   5.689   7.257   2.936 -0.1930  0.4082  0.2961
  143OSM    H7S15602   5.601   7.189   2.935 -0.0545  0.2170 -1.3327
  143OSM    H7T15603   5.645   7.358   2.930 -1.9218 -0.2356  1.3012
  143OSM    C8S15604   5.772   7.256   3.063 -0.0555  0.4785  0.5683
  143OSM    H8S15605   5.840   7.343   3.059 -0.3474  0.7452  1.3290
  143OSM    H8T15606   5.836   7.165   3.067  0.3099  0.5842 -1.6606
  143OSM    C9S15607   5.688   7.256   3.194  0.0100  0.1408 -0.1492
  143OSM    H9S15608   5.622   7.167   3.195 -0.1376  0.1305 -3.0676
  143OSM    H9T15609   5.622   7.346   3.188 -0.5419 -0.1363  1.2520
  143OSM   C10S15610   5.773   7.249   3.319 -0.1821  0.3386  0.3826
  143OSM   H10S15611   5.839   7.339   3.316 -0.6702  0.6983  0.1998
  143OSM   H10T15612   5.831   7.155   3.316 -0.9912 -0.1689  0.1775
  143OSM   C11S15613   5.694   7.268   3.454 -0.5625  0.2232  0.6300
  143OSM   H11S15614   5.617   7.188   3.461 -1.6361  1.3771  2.4985
  143OSM   H11T15615   5.655   7.371   3.457 -0.4347  0.3339 -0.8040
  143OSM   C12S15616   5.777   7.245   3.579  0.1430  0.3371 -0.2039
  143OSM   H12S15617   5.865   7.311   3.596 -0.2595  0.8486 -0.0727
  143OSM   H12T15618   5.818   7.142   3.577  0.9663  0.6573 -0.2215
  143OSM   C13S15619   5.698   7.250   3.714  0.4628 -0.7834 -0.3042
  143OSM   H13S15620   5.617   7.174   3.718  0.7470 -1.0281  2.0057
  143OSM   H13T15621   5.645   7.348   3.713  2.4251  0.3369 -0.6645
  143OSM   C14S15622   5.799   7.228   3.824 -0.6261 -0.2660 -0.1797
  143OSM   H14S15623   5.888   7.292   3.810 -0.1638 -0.2861  2.2546
  143OSM   H14T15624   5.846   7.128   3.814  2.6914  0.8715  2.3127
  143OSM   C15S15625   5.722   7.244   3.955 -0.1687 -0.0589  0.2322
  143OSM   H15S15626   5.644   7.165   3.968 -0.6524  0.3311 -0.2448
  143OSM   H15T15627   5.670   7.342   3.944 -1.8004 -1.0979 -2.2426
  143OSM   C16S15628   5.820   7.256   4.075  0.0609 -0.3021  0.2502
  143OSM   H16S15629   5.905   7.312   4.031  0.4799 -1.3980 -0.3891
  143OSM   H16T15630   5.853   7.154   4.103 -1.1303 -0.8608 -0.2789
  143OSM   C17S15631   5.749   7.322   4.187  0.4635 -0.5872 -0.3000
  143OSM   H17S15632   5.656   7.263   4.203  1.3077 -1.8126  0.2373
  143OSM   H17T15633   5.735   7.431   4.166  2.7950  0.0387  1.0888
  143OSM   C18S15634   5.809   7.310   4.320 -0.5026 -0.0073 -0.5446
  143OSM   H18S15635   5.803   7.212   4.373 -0.5367  0.4598  0.3282
  143OSM   H18T15636   5.754   7.372   4.394  1.7103  0.1559  1.0877
  143OSM   H18U15637   5.916   7.338   4.310 -0.8028  0.4139 -3.3799
  143OSM    C1F15638   5.513   6.842   2.492 -0.6978 -0.0076  0.4291
  143OSM     OF15639   5.602   6.761   2.459 -0.1080 -0.7986  0.4296
  143OSM    C2F15640   5.381   6.790   2.537  0.3336 -0.2485  0.4917
  143OSM    H2F15641   5.353   6.706   2.471  0.4169  1.3661 -1.7100
  143OSM    H2G15642   5.309   6.874   2.520  0.0870 -0.4332  0.6267
  143OSM    C3F15643   5.388   6.744   2.680  0.4057 -0.1606  0.0277
  143OSM    H3F15644   5.428   6.824   2.745  0.8450 -0.2079 -0.1783
  143OSM    H3G15645   5.467   6.666   2.689  0.4846 -0.0440  0.3816
  143OSM    C4F15646   5.256   6.698   2.736 -0.6497  0.1650  0.6630
  143OSM    H4F15647   5.219   6.606   2.687  2.1292 -0.5310 -0.2577
  143OSM    H4G15648   5.176   6.774   2.722 -1.0918 -0.5343 -0.8369
  143OSM    C5F15649   5.278   6.655   2.882 -0.4507  0.2851  0.7089
  143OSM    H5F15650   5.304   6.737   2.953 -0.3609 -1.5522  2.9334
  143OSM    H5G15651   5.361   6.582   2.875 -0.1774  0.7060 -0.5326
  143OSM    C6F15652   5.152   6.581   2.923 -0.0538  0.0578 -0.3844
  143OSM    H6F15653   5.164   6.490   2.860 -0.0172  0.9795 -1.7515
  143OSM    H6G15654   5.071   6.647   2.885 -0.1141  1.0792  1.3879
  143OSM    C7F15655   5.154   6.541   3.070 -0.2192  0.6619 -0.4656
  143OSM    H7F15656   5.250   6.486   3.080 -0.5862 -0.0388 -0.7412
  143OSM    H7G15657   5.067   6.478   3.098  1.1351 -0.9769  0.2383
  143OSM    C8F15658   5.140   6.663   3.164 -0.3887  0.5629 -0.1497
  143OSM    H8F15659   5.044   6.709   3.132 -1.1590 -1.3396 -0.7125
  143OSM    H8G15660   5.228   6.731   3.154 -0.5828  0.8086 -0.2023
  143OSM    C9F15661   5.155   6.630   3.312 -0.1070 -0.0266 -0.1631
  143OSM    H9F15662   5.259   6.635   3.349 -0.2611  0.9753  0.1711
  143OSM   C10F15663   5.059   6.592   3.398 -0.3314 -0.2079 -0.3630
  143OSM   H10F15664   5.091   6.585   3.503  1.3387  2.9767 -0.5128
  143OSM   C11F15665   4.912   6.572   3.368 -0.4818  0.2293 -0.4315
  143OSM   H11F15666   4.884   6.612   3.269 -0.1832  1.3657 -0.0756
  143OSM   H11G15667   4.849   6.620   3.446 -0.9688 -1.0373 -0.0133
  143OSM   C12F15668   4.878   6.414   3.372  0.8438 -0.9218  0.2024
  143OSM   H12F15669   4.962   6.362   3.320  0.9180 -0.6504  0.0423
  143OSM   H12G15670   4.785   6.407   3.311 -0.1181 -1.1867  1.6656
  143OSM   C13F15671   4.860   6.352   3.511  0.0458 -0.7431  0.0868
  143OSM   H13F15672   4.954   6.383   3.560 -0.1631  1.8000 -0.9875
  143OSM   H13G15673   4.860   6.242   3.494  2.8469 -0.3457 -4.0604
  143OSM   C14F15674   4.740   6.385   3.592 -0.0405 -0.1418 -0.1025
  143OSM   H14F15675   4.647   6.351   3.542 -0.9738  1.4037  0.5018
  143OSM   H14G15676   4.739   6.495   3.610 -3.4394 -0.1522  0.4151
  143OSM   C15F15677   4.750   6.339   3.739 -0.3841  0.3362  0.8419
  143OSM   H15F15678   4.840   6.371   3.796 -0.2629 -1.0974  1.5130
  143OSM   H15G15679   4.746   6.228   3.741 -1.9332  0.3294 -0.4613
  143OSM   C16F15680   4.633   6.386   3.825 -0.0905 -1.0888 -0.3391
  143OSM   H16F15681   4.540   6.389   3.764 -1.2200  0.3063  1.3605
  143OSM   H16G15682   4.636   6.495   3.847 -3.8663 -0.4271 -2.1013
  143OSM   C17F15683   4.599   6.318   3.960  1.0497  0.2647 -0.0569
  143OSM   H17F15684   4.692   6.315   4.021 -0.6231 -1.8284  2.6302
  143OSM   H17G15685   4.570   6.217   3.922 -0.1699 -0.5292  2.7694
  143OSM   C18F15686   4.483   6.368   4.039  0.0336 -0.0222  0.6172
  143OSM   H18F15687   4.508   6.468   4.080  0.6515 -1.0341  2.8764
  143OSM   H18G15688   4.455   6.303   4.125 -1.3046  0.1705  0.3522
  143OSM   H18H15689   4.398   6.389   3.970  2.1767  0.6364 -1.9695
  144OSM      N15690   4.309   0.305   1.944  0.0689 -0.3316  0.1443
  144OSM    C1515691   4.189   0.224   1.921  0.1964 -0.2313  0.9801
  144OSM   H15A15692   4.188   0.120   1.953  0.4051 -0.6785 -0.3997
  144OSM   H15B15693   4.165   0.230   1.816  1.3611  0.5356  0.7361
  144OSM   H15C15694   4.107   0.263   1.980  1.6246  3.2010  0.9457
  144OSM    C1415695   4.266   0.457   1.935  0.2443  0.2071  0.2259
  144OSM   H14A15696   4.223   0.471   1.837  1.7593 -1.5189 -0.7486
  144OSM   H14B15697   4.351   0.522   1.936 -0.0977  0.6593  0.2267
  144OSM   H14C15698   4.200   0.491   2.013 -0.3454 -1.6881  0.6127
  144OSM    C1315699   4.349   0.295   2.091 -0.5465  0.4538 -0.2292
  144OSM   H13A15700   4.338   0.197   2.133 -0.9406  0.2209 -0.8506
  144OSM   H13B15701   4.293   0.356   2.161 -0.0865  0.3232  0.2532
  144OSM   H13C15702   4.456   0.309   2.097 -0.5110 -0.4551  1.7357
  144OSM    C1215703   4.428   0.269   1.852 -0.2969 -0.3392  0.7291
  144OSM   H12A15704   4.502   0.346   1.866  1.2200 -1.6278  0.0783
  144OSM   H12B15705   4.393   0.294   1.753 -0.9984  0.1069  1.0781
  144OSM    C1115706   4.482   0.122   1.850 -0.0098 -0.3148 -0.2959
  144OSM   H11A15707   4.580   0.130   1.797 -0.9883 -0.3352 -2.1878
  144OSM   H11B15708   4.412   0.064   1.786  0.1582 -0.1175 -0.6660
  144OSM      P15709   4.481  -0.075   2.010 -0.3009  0.3084 -0.1060
  144OSM    O1315710   4.341  -0.093   2.041 -0.1098 -0.2572  0.0536
  144OSM    O1415711   4.533  -0.158   1.894  0.2491 -0.1122  0.1243
  144OSM    O1115712   4.566  -0.115   2.144 -0.0975 -0.6024 -0.0580
  144OSM    O1215713   4.517   0.073   1.984 -0.0249  0.0287  0.3430
  144OSM    C1S15714   4.515  -0.034   2.259  0.2672  0.1174  0.1694
  144OSM    H1S15715   4.411  -0.066   2.282 -0.7820  0.8278 -3.0748
  144OSM    H1T15716   4.514   0.076   2.246 -0.1607  0.3564  1.9560
  144OSM     NF15717   4.536  -0.039   2.507  0.3243 -0.0605 -0.3380
  144OSM    HNF15718   4.542   0.054   2.542 -0.3077 -0.5876  1.2385
  144OSM    C2S15719   4.602  -0.068   2.378  0.3119  0.4716  0.2129
  144OSM    H2S15720   4.615  -0.178   2.377 -3.3464 -0.0819  0.5878
  144OSM    C3S15721   4.744  -0.006   2.356 -0.6316 -0.7682 -0.1708
  144OSM    H3S15722   4.752   0.098   2.319  0.3699  0.5507  3.3976
  144OSM     O315723   4.813  -0.077   2.246  0.1015  0.3157 -0.4319
  144OSM    HO315724   4.744  -0.124   2.197 -1.2721  1.1976  0.5664
  144OSM    C4S15725   4.824  -0.021   2.485 -0.0362 -0.3697 -0.2481
  144OSM    H4S15726   4.831  -0.113   2.544 -0.3014  0.3030  0.8626
  144OSM    C5S15727   4.872   0.084   2.554  0.1268  0.1308 -0.4789
  144OSM    H5S15728   4.849   0.188   2.525 -1.1504  0.2564  0.8636
  144OSM    C6S15729   4.941   0.062   2.688  0.4183  0.2639  0.2921
  144OSM    H6S15730   5.044   0.104   2.684  2.0829 -3.4434 -0.9512
  144OSM    H6T15731   4.948  -0.047   2.709 -1.2868  0.4442  2.1211
  144OSM    C7S15732   4.869   0.113   2.811  0.1943 -0.1605  0.0978
  144OSM    H7S15733   4.767   0.067   2.810  0.3334 -0.4999 -1.3739
  144OSM    H7T15734   4.837   0.219   2.803  0.5866  0.1445  2.0222
  144OSM    C8S15735   4.938   0.092   2.945 -0.0171 -0.3090  0.3807
  144OSM    H8S15736   5.042   0.127   2.933 -0.1479  0.1996  0.7220
  144OSM    H8T15737   4.937  -0.018   2.965 -1.7394 -0.3489  0.2628
  144OSM    C9S15738   4.864   0.154   3.067 -0.3004  0.3864  0.2277
  144OSM    H9S15739   4.758   0.122   3.058 -0.3714  0.9379 -1.1228
  144OSM    H9T15740   4.863   0.265   3.070  0.2865  0.3683  1.8540
  144OSM   C10S15741   4.929   0.094   3.193  0.0407 -0.3751  0.1239
  144OSM   H10S15742   5.038   0.103   3.173  0.5448 -1.3062  2.1437
  144OSM   H10T15743   4.904  -0.014   3.192 -3.0518  0.2550 -0.1753
  144OSM   C11S15744   4.897   0.173   3.329  0.2564  0.2961  0.1965
  144OSM   H11S15745   4.791   0.207   3.341  0.7314  1.2120  2.1388
  144OSM   H11T15746   4.956   0.266   3.332 -0.6874  0.9394 -0.5661
  144OSM   C12S15747   4.926   0.085   3.451  0.5006 -0.1511 -0.4386
  144OSM   H12S15748   5.029   0.045   3.443  1.0211  1.0912 -0.2180
  144OSM   H12T15749   4.878  -0.015   3.456  0.7828 -0.2859 -0.3495
  144OSM   C13S15750   4.908   0.164   3.581 -0.0605 -0.7106  0.1956
  144OSM   H13S15751   4.800   0.189   3.582  0.4781  1.7989  0.1451
  144OSM   H13T15752   4.951   0.266   3.574 -0.9942 -0.1851  1.6935
  144OSM   C14S15753   4.939   0.084   3.704  0.1214  0.4322  0.5174
  144OSM   H14S15754   5.049   0.072   3.701  0.0442 -0.9700  1.8649
  144OSM   H14T15755   4.901  -0.020   3.696 -0.9792  0.9182 -1.0558
  144OSM   C15S15756   4.909   0.168   3.831 -0.8804  0.6827  0.0244
  144OSM   H15S15757   4.800   0.186   3.837 -1.3342 -1.8800  0.8251
  144OSM   H15T15758   4.963   0.265   3.844  2.4196 -0.9753 -0.2562
  144OSM   C16S15759   4.942   0.087   3.955 -0.6375 -0.0494  0.1061
  144OSM   H16S15760   5.053   0.086   3.949 -0.7285 -0.5801 -3.6628
  144OSM   H16T15761   4.891  -0.011   3.944 -1.2527  0.3043 -0.2889
  144OSM   C17S15762   4.889   0.151   4.089  0.2064 -0.6067 -0.1747
  144OSM   H17S15763   4.781   0.176   4.084  0.3593  0.3118  0.8143
  144OSM   H17T15764   4.938   0.250   4.094  0.7092 -0.7683 -1.3830
  144OSM   C18S15765   4.908   0.068   4.211 -0.6960 -0.1306 -0.6530
  144OSM   H18S15766   4.813   0.078   4.269 -1.8508 -1.1096 -2.2946
  144OSM   H18T15767   4.993   0.099   4.276 -0.2246  1.5013 -2.0045
  144OSM   H18U15768   4.926  -0.039   4.185  0.1881 -0.0922 -0.2305
  144OSM    C1F15769   4.435  -0.115   2.555 -0.2679 -0.4574 -0.1509
  144OSM     OF15770   4.408  -0.229   2.515 -0.0973 -0.8440 -1.2188
  144OSM    C2F15771   4.344  -0.066   2.657  0.6306  0.1057  0.0699
  144OSM    H2F15772   4.343   0.045   2.648 -0.3848  0.1764  0.8286
  144OSM    H2G15773   4.384  -0.091   2.757  1.2968  0.8869  0.0110
  144OSM    C3F15774   4.198  -0.115   2.634 -0.3186 -0.2181 -0.0076
  144OSM    H3F15775   4.189  -0.221   2.666 -1.1755  0.2305  1.3498
  144OSM    H3G15776   4.171  -0.104   2.527 -2.1293 -2.7447  0.1065
  144OSM    C4F15777   4.093  -0.037   2.715  0.2782  0.1351 -0.1291
  144OSM    H4F15778   3.993  -0.078   2.690 -0.4233  1.1427  0.9396
  144OSM    H4G15779   4.094   0.070   2.688 -0.2466  0.3973  0.8721
  144OSM    C5F15780   4.109  -0.026   2.870 -0.3306 -0.0758 -0.0846
  144OSM    H5F15781   4.205   0.026   2.895 -0.4710  0.4230 -0.5667
  144OSM    H5G15782   4.108  -0.124   2.922 -0.1589 -0.0354 -0.0018
  144OSM    C6F15783   3.990   0.044   2.939  0.5070  0.4370  0.3238
  144OSM    H6F15784   3.901  -0.018   2.917  0.4588  0.2369  1.0267
  144OSM    H6G15785   3.970   0.143   2.893 -1.2399 -0.4148 -0.8332
  144OSM    C7F15786   4.014   0.064   3.087  0.6149  0.5849  0.0781
  144OSM    H7F15787   4.118   0.045   3.121  0.4607  0.3921  0.4455
  144OSM    H7G15788   3.952  -0.018   3.130 -0.6812  2.3252  1.7051
  144OSM    C8F15789   3.956   0.194   3.140  0.0454  0.7405  0.3577
  144OSM    H8F15790   3.960   0.177   3.250  0.7737 -1.1121  0.0748
  144OSM    H8G15791   3.847   0.200   3.118  0.2442 -0.9134 -1.2521
  144OSM    C9F15792   4.034   0.317   3.108 -0.0391 -0.1432  0.7020
  144OSM    H9F15793   4.116   0.293   3.039  0.5301  0.3679  1.1916
  144OSM   C10F15794   4.004   0.436   3.155  1.0034  0.1496 -0.6590
  144OSM   H10F15795   4.064   0.524   3.125  1.8262  0.0463  0.6162
  144OSM   C11F15796   3.905   0.464   3.265  0.0005 -0.3250  0.4488
  144OSM   H11F15797   3.838   0.377   3.278 -1.7264  1.0436  1.2381
  144OSM   H11G15798   3.837   0.545   3.232  0.3051 -0.1318  0.2845
  144OSM   C12F15799   3.963   0.490   3.406  0.1328 -0.6696  0.0756
  144OSM   H12F15800   4.022   0.400   3.437  2.1914  1.1717  1.8280
  144OSM   H12G15801   3.880   0.505   3.477  0.0312 -0.7649 -0.0222
  144OSM   C13F15802   4.053   0.612   3.412 -0.6077  0.5300  0.1533
  144OSM   H13F15803   4.066   0.658   3.312 -0.6080  2.9996  1.2280
  144OSM   H13G15804   4.158   0.580   3.430 -0.4668  0.4525 -0.7687
  144OSM   C14F15805   4.006   0.709   3.516 -0.1977  0.1658  0.3583
  144OSM   H14F15806   3.899   0.731   3.495 -0.3274 -1.9067 -1.6410
  144OSM   H14G15807   4.061   0.804   3.496  1.0070 -0.2827  1.4364
  144OSM   C15F15808   4.017   0.667   3.658  0.6053  0.0634 -0.6253
  144OSM   H15F15809   4.119   0.625   3.673 -0.5224 -2.1572  1.6224
  144OSM   H15G15810   3.943   0.587   3.683  1.4997 -0.5317  0.1851
  144OSM   C16F15811   3.990   0.780   3.760 -0.2380  0.4960 -0.2518
  144OSM   H16F15812   3.880   0.798   3.757 -0.2490  0.5080  0.2260
  144OSM   H16G15813   4.040   0.876   3.737 -3.9828  2.5581 -0.5973
  144OSM   C17F15814   4.037   0.743   3.900 -0.6089 -0.1938 -1.0022
  144OSM   H17F15815   4.147   0.742   3.894 -0.6275  0.6831 -1.5477
  144OSM   H17G15816   3.991   0.644   3.924  1.5177 -1.1942 -0.8792
  144OSM   C18F15817   3.992   0.833   4.021  0.2423  0.8273 -0.1708
  144OSM   H18F15818   4.035   0.794   4.116 -1.3040 -2.4595 -0.6781
  144OSM   H18G15819   3.881   0.834   4.024  0.1689 -0.2004 -1.4397
  144OSM   H18H15820   4.032   0.936   4.007  1.9074 -0.0137 -2.1464
  145SAPE     N15821   6.672   2.649   6.393 -0.1434  0.1721 -0.2778
  145SAPE   HN115822   6.686   2.687   6.297  1.0605  0.3909 -0.0308
  145SAPE   HN215823   6.760   2.606   6.428 -0.1145 -0.2157 -0.8243
  145SAPE   HN315824   6.606   2.570   6.382 -1.3119  0.8475  1.4785
  145SAPE   C1215825   6.625   2.754   6.489  0.5306 -0.0087  0.1830
  145SAPE  H12A15826   6.705   2.828   6.513 -0.4051  1.4289 -0.9205
  145SAPE  H12B15827   6.583   2.700   6.576  0.7970 -0.6340 -0.0707
  145SAPE   C1115828   6.507   2.836   6.427 -0.0723  0.1111  0.4154
  145SAPE  H11A15829   6.533   2.867   6.323  0.0332  1.7099  0.8875
  145SAPE  H11B15830   6.501   2.928   6.488  0.8010 -1.0121  2.2828
  145SAPE     P15831   6.256   2.803   6.358  0.1882  0.2473 -1.0126
  145SAPE   O1315832   6.151   2.710   6.394 -0.1626  0.2823 -0.4599
  145SAPE   O1415833   6.225   2.948   6.374 -0.1342 -0.3437 -0.1044
  145SAPE   O1215834   6.381   2.768   6.438 -0.2653 -0.2447 -0.2113
  145SAPE   O1115835   6.287   2.783   6.204 -0.3159  0.1186 -0.1675
  145SAPE    C115836   6.334   2.655   6.155  0.3848  0.6633  0.1525
  145SAPE    HA15837   6.444   2.646   6.140  0.4349  0.5978  0.5623
  145SAPE    HB15838   6.303   2.569   6.218  0.5967 -0.8609 -1.7221
  145SAPE    C215839   6.277   2.636   6.007 -0.3312  0.4796 -0.1717
  145SAPE    HS15840   6.337   2.696   5.936  0.8050 -1.8380 -1.2975
  145SAPE   O2115841   6.139   2.666   5.995  0.1059 -0.4141  0.0453
  145SAPE   C2115842   6.115   2.796   5.977 -0.0992  0.9504 -0.5091
  145SAPE   O2215843   6.200   2.877   5.951 -0.0195 -0.3329  0.0659
  145SAPE   C2215844   5.966   2.820   5.998  0.2754  0.2675 -0.1150
  145SAPE   H2R15845   5.917   2.723   5.978  1.9657 -0.3329 -1.6335
  145SAPE   H2S15846   5.944   2.853   6.102 -0.2799  0.1342 -0.1906
  145SAPE    C315847   6.297   2.488   5.971 -0.1557  0.3283 -0.3013
  145SAPE    HX15848   6.246   2.419   6.041 -1.9994  4.0409  2.3195
  145SAPE    HY15849   6.405   2.477   5.997 -0.8033 -1.3789  1.9268
  145SAPE   O3115850   6.273   2.465   5.832  0.6067  0.4996 -0.2249
  145SAPE   C3115851   6.370   2.499   5.747 -0.3828  0.2909 -0.2557
  145SAPE   O3215852   6.475   2.548   5.774 -0.1709  0.0163  0.1613
  145SAPE   C3215853   6.323   2.471   5.607 -0.0825  0.0489  0.0120
  145SAPE   H2X15854   6.256   2.554   5.577  1.1030  1.4168  1.0553
  145SAPE   H2Y15855   6.264   2.376   5.611  0.5103 -0.2740  2.6087
  145SAPE   C2315856   5.902   2.927   5.901  0.8836  0.0256  0.1730
  145SAPE   H3R15857   5.973   3.011   5.884  0.4026  0.1578 -1.3475
  145SAPE   H3S15858   5.815   2.966   5.957 -0.2750  0.7151 -1.9764
  145SAPE   C2415859   5.851   2.862   5.770  0.2735 -0.4765 -0.8959
  145SAPE   H4R15860   5.780   2.787   5.813 -0.9122  1.4633  0.6888
  145SAPE   H4S15861   5.935   2.806   5.724  1.5133  0.9576 -0.4378
  145SAPE   C2515862   5.788   2.966   5.683  0.9090  0.4377  0.2578
  145SAPE   H5R15863   5.856   3.052   5.671  1.1462  0.4818  1.7382
  145SAPE   C2615864   5.658   2.981   5.649  0.3198 -0.0675  0.1235
  145SAPE   H6R15865   5.621   3.059   5.580 -0.8311 -0.2546  0.5006
  145SAPE   C2715866   5.551   2.882   5.690 -1.6772 -0.5811  0.0197
  145SAPE   H7R15867   5.532   2.901   5.798 -0.4735 -0.1763  0.1812
  145SAPE   H7S15868   5.581   2.775   5.679 -0.7877 -0.3282 -0.1514
  145SAPE   C2815869   5.420   2.907   5.620 -0.4393  0.1102  0.2643
  145SAPE   H8R15870   5.382   3.008   5.638 -1.4988 -0.3989  1.0291
  145SAPE   C2915871   5.335   2.824   5.556  0.3118  0.3503 -0.8038
  145SAPE   H9R15872   5.241   2.861   5.514 -0.1003  0.7123  0.3984
  145SAPE  C21015873   5.355   2.676   5.529  0.1151 -0.6990  0.5847
  145SAPE  H10R15874   5.253   2.634   5.541  0.2638 -1.9145 -1.7859
  145SAPE  H10S15875   5.419   2.628   5.607  0.0777 -1.7871 -0.0354
  145SAPE  C21115876   5.410   2.637   5.397 -0.1379  0.9735  0.1978
  145SAPE  H11R15877   5.516   2.611   5.413 -0.0679  1.1615  0.0560
  145SAPE  C21215878   5.347   2.617   5.282  0.3622  0.1593 -0.7955
  145SAPE  H12R15879   5.418   2.606   5.198  0.7106  2.5553 -0.8783
  145SAPE  C21315880   5.194   2.629   5.261 -0.8190 -0.5384 -0.0844
  145SAPE  H13R15881   5.167   2.727   5.217 -1.7174  0.6931  2.9356
  145SAPE  H13S15882   5.142   2.634   5.359 -0.4937  0.1949  0.0555
  145SAPE  C21415883   5.151   2.515   5.170  0.2390 -1.1229 -0.3102
  145SAPE  H14R15884   5.172   2.415   5.211 -0.4004 -0.9034  0.5706
  145SAPE  C21515885   5.095   2.525   5.046  0.0579 -0.1586 -0.1800
  145SAPE  H15R15886   5.058   2.431   5.003 -0.8896  0.1840 -0.1317
  145SAPE  C21615887   5.048   2.650   4.981 -0.1584 -0.6069 -0.2576
  145SAPE  H16R15888   5.016   2.727   5.055 -1.4361 -0.5696 -0.8269
  145SAPE  H16S15889   4.958   2.633   4.918 -0.2402  0.4766 -0.4584
  145SAPE  C21715890   5.161   2.716   4.914  0.1208  0.0169  1.1109
  145SAPE  H17R15891   5.191   2.649   4.831 -0.5388  0.9048  0.1285
  145SAPE  H17S15892   5.238   2.726   4.994  0.7064 -0.4520  0.6155
  145SAPE  C21815893   5.118   2.850   4.860 -0.2366 -0.5611  0.2904
  145SAPE  H18R15894   5.089   2.920   4.941 -0.5174 -0.0946 -0.2063
  145SAPE  H18S15895   5.021   2.827   4.810 -0.1637 -2.4625  0.9255
  145SAPE  C21915896   5.218   2.901   4.750 -0.8105 -0.2387 -0.2741
  145SAPE  H19R15897   5.250   2.821   4.680 -0.9011  1.0751 -1.9055
  145SAPE  H19S15898   5.313   2.939   4.793 -0.8874  1.1594 -1.2424
  145SAPE  C22015899   5.169   3.010   4.646  0.1621  0.1264 -0.2257
  145SAPE  H20R15900   5.144   3.101   4.704 -1.2584  0.1547 -0.8482
  145SAPE  H20S15901   5.076   2.984   4.590 -0.1840 -3.0650  1.5866
  145SAPE  H20T15902   5.249   3.029   4.571  0.5200 -0.7405 -0.0776
  145SAPE   C3315903   6.436   2.448   5.508 -0.2207 -0.0639  0.5134
  145SAPE   H3X15904   6.503   2.363   5.532 -0.1817 -0.5445 -1.1716
  145SAPE   H3Y15905   6.499   2.538   5.526 -0.5940  0.5482 -1.1319
  145SAPE   C3415906   6.395   2.438   5.358  0.1064  0.0465 -0.3781
  145SAPE   H4X15907   6.374   2.543   5.329  2.9245  0.7598 -0.1516
  145SAPE   H4Y15908   6.302   2.376   5.352 -1.5079  2.2434  0.5952
  145SAPE   C3515909   6.508   2.383   5.261 -0.3257  0.5257 -0.0707
  145SAPE   H5X15910   6.524   2.273   5.272  4.3220  1.0864  1.0550
  145SAPE   H5Y15911   6.610   2.422   5.281  1.0024 -1.5132 -2.3227
  145SAPE   C3615912   6.478   2.426   5.116 -0.5307  0.3485  0.0232
  145SAPE   H6X15913   6.476   2.536   5.105  0.2106  0.2662 -1.0636
  145SAPE   H6Y15914   6.378   2.388   5.085 -0.6218  1.4525 -1.0802
  145SAPE   C3715915   6.597   2.378   5.021  0.2432 -0.4885 -0.8007
  145SAPE   H7X15916   6.689   2.386   5.084 -1.2132  1.6187  1.2176
  145SAPE   H7Y15917   6.601   2.451   4.938 -0.5054  0.9228  0.3752
  145SAPE   C3815918   6.566   2.234   4.977 -0.7504  0.1017 -0.3506
  145SAPE   H8X15919   6.480   2.244   4.908  0.9478 -1.7640 -2.8834
  145SAPE   H8Y15920   6.542   2.171   5.065 -3.3045 -0.6675 -1.5062
  145SAPE   C3915921   6.676   2.162   4.892  0.2717  0.6218  0.0722
  145SAPE   H9X15922   6.657   2.053   4.886  0.0277  0.6498  0.3286
  145SAPE   H9Y15923   6.771   2.167   4.950  0.7671 -0.5708 -0.6080
  145SAPE  C31015924   6.688   2.211   4.754 -0.0689 -0.4448  0.4170
  145SAPE  H10X15925   6.675   2.321   4.749 -1.4336 -0.6359 -1.1528
  145SAPE  H10Y15926   6.602   2.171   4.697 -0.0847 -1.7225  1.2827
  145SAPE  C31115927   6.820   2.154   4.692  0.4143  0.3886  0.3752
  145SAPE  H11X15928   6.805   2.154   4.582  4.3185  0.0871 -0.3223
  145SAPE  H11Y15929   6.839   2.048   4.721 -0.2977 -0.6830 -2.7395
  145SAPE  C31215930   6.939   2.240   4.735 -0.2572 -0.1656  0.4461
  145SAPE  H12X15931   6.939   2.238   4.846 -3.0231  1.0513  0.5550
  145SAPE  H12Y15932   6.923   2.345   4.701  0.1741 -0.3377 -0.3098
  145SAPE  C31315933   7.073   2.189   4.673  0.2529 -0.2140  0.2563
  145SAPE  H13X15934   7.062   2.168   4.565 -2.1294  0.2182  0.3444
  145SAPE  H13Y15935   7.105   2.098   4.728 -1.4127 -0.2101  1.3188
  145SAPE  C31415936   7.175   2.296   4.691 -0.6186  0.0059  0.3765
  145SAPE  H14X15937   7.205   2.322   4.795 -0.6064  0.9740  0.1462
  145SAPE  H14Y15938   7.125   2.389   4.656  0.2770  0.7338  1.0052
  145SAPE  C31515939   7.295   2.284   4.609 -0.0572 -0.1873 -0.4187
  145SAPE  H15X15940   7.348   2.381   4.597  0.2748  0.0676  2.4086
  145SAPE  H15Y15941   7.261   2.251   4.509 -1.0854  0.9479 -0.4713
  145SAPE  C31615942   7.401   2.188   4.670  0.3358  0.2816  0.7577
  145SAPE  H16X15943   7.477   2.152   4.596 -0.6485  0.7659 -0.5337
  145SAPE  H16Y15944   7.350   2.107   4.726  1.7734 -0.3035  1.2487
  145SAPE  C31715945   7.478   2.258   4.782 -0.5481 -0.6710 -0.7212
  145SAPE  H17X15946   7.413   2.300   4.863 -2.1360  1.9797 -3.1635
  145SAPE  H17Y15947   7.539   2.345   4.750  1.3552 -1.6310  0.1657
  145SAPE  C31815948   7.596   2.177   4.847  0.7945  0.3683  0.1011
  145SAPE  H18X15949   7.670   2.144   4.771 -0.0789  2.5360 -1.7671
  145SAPE  H18Y15950   7.558   2.088   4.903 -0.4416  0.6463 -0.2669
  145SAPE  H18Z15951   7.651   2.233   4.926 -0.3573 -0.1294  1.2931
  146SAPE     N15952   4.524   1.693   6.772  0.6807  1.0411 -0.5637
  146SAPE   HN115953   4.563   1.605   6.810  0.5442  0.7574 -1.0634
  146SAPE   HN215954   4.539   1.777   6.832 -1.2814  0.1281  1.2865
  146SAPE   HN315955   4.421   1.685   6.762  0.6254 -0.9813  0.9875
  146SAPE   C1215956   4.586   1.702   6.633 -0.8433 -0.3719  0.2005
  146SAPE  H12A15957   4.537   1.631   6.564  0.9685 -0.8065 -0.7010
  146SAPE  H12B15958   4.690   1.664   6.640 -1.2192 -1.1523  2.2948
  146SAPE   C1115959   4.566   1.838   6.562  0.3797  0.2799  0.6766
  146SAPE  H11A15960   4.458   1.844   6.535  0.2036 -1.7449  0.7520
  146SAPE  H11B15961   4.624   1.827   6.468 -0.1176 -0.0788  0.4061
  146SAPE     P15962   4.524   2.084   6.639 -0.1872 -0.0247 -0.7300
  146SAPE   O1315963   4.379   2.052   6.665  0.0866 -0.3154  0.1487
  146SAPE   O1415964   4.584   2.188   6.727  0.3000 -0.1863  0.2623
  146SAPE   O1215965   4.610   1.950   6.642 -0.0887 -0.0326  0.3708
  146SAPE   O1115966   4.532   2.127   6.484  0.7053  0.3199  0.2346
  146SAPE    C115967   4.660   2.143   6.414 -0.2554  0.5611 -0.0084
  146SAPE    HA15968   4.733   2.077   6.466  0.4400  0.9309 -0.4991
  146SAPE    HB15969   4.660   2.115   6.306 -0.4833  1.2514 -0.1922
  146SAPE    C215970   4.717   2.286   6.419  0.1006 -0.5757 -0.1999
  146SAPE    HS15971   4.706   2.325   6.523  2.4410 -0.5107  0.0710
  146SAPE   O2115972   4.630   2.360   6.329  0.1862 -0.0056  0.4988
  146SAPE   C2115973   4.646   2.487   6.331  0.3190 -0.4952 -0.2050
  146SAPE   O2215974   4.736   2.543   6.394 -0.7946 -0.4118  0.1538
  146SAPE   C2215975   4.538   2.556   6.250  0.1565 -0.1540 -0.2898
  146SAPE   H2R15976   4.451   2.561   6.319  1.2208  0.4035  1.0519
  146SAPE   H2S15977   4.560   2.662   6.227 -2.4999  0.6921  0.7150
  146SAPE    C315978   4.863   2.283   6.364 -0.2266 -0.2875 -0.5873
  146SAPE    HX15979   4.920   2.220   6.436  1.5265  4.0419  2.2089
  146SAPE    HY15980   4.921   2.377   6.367  0.4702 -0.7304  0.2511
  146SAPE   O3115981   4.864   2.229   6.233 -0.0469  0.6189 -0.6345
  146SAPE   C3115982   4.978   2.174   6.187  0.6261  0.1363  0.1261
  146SAPE   O3215983   5.080   2.162   6.247  0.2304 -0.2420 -0.0036
  146SAPE   C3215984   4.959   2.145   6.036  0.0725 -0.7261 -0.8278
  146SAPE   H2X15985   5.002   2.230   5.979 -0.8765  2.3357  2.6356
  146SAPE   H2Y15986   4.852   2.145   6.006  0.6170 -0.6420 -2.8942
  146SAPE   C2315987   4.508   2.499   6.109  0.0734  0.3877 -0.1492
  146SAPE   H3R15988   4.416   2.551   6.073  0.8127  2.1160  0.3626
  146SAPE   H3S15989   4.472   2.394   6.122 -0.2477  0.3341 -1.3653
  146SAPE   C2415990   4.621   2.507   6.008 -0.0662  0.1675 -0.0321
  146SAPE   H4R15991   4.706   2.453   6.055  0.5744  0.9449 -0.2613
  146SAPE   H4S15992   4.639   2.616   5.994 -2.5599  0.9422  1.9413
  146SAPE   C2515993   4.589   2.445   5.875  0.5001 -0.1377  0.1465
  146SAPE   H5R15994   4.632   2.345   5.865  1.4643  0.3260 -0.5629
  146SAPE   C2615995   4.519   2.500   5.776 -0.4631 -0.6470  0.1884
  146SAPE   H6R15996   4.506   2.440   5.684  2.6175 -1.7961  0.3808
  146SAPE   C2715997   4.455   2.634   5.782 -0.0470 -0.8555  0.4603
  146SAPE   H7R15998   4.464   2.694   5.689 -0.0644  1.3683  1.8103
  146SAPE   H7S15999   4.523   2.691   5.849  0.6391 -1.4808  0.2994
  146SAPE   C2816000   4.314   2.633   5.840 -0.4054  0.2577 -0.5985
  146SAPE   H8R16001   4.287   2.579   5.932  0.5295  0.4190 -0.2166
  146SAPE   C2916002   4.216   2.703   5.783  1.1764  0.2332 -0.2299
  146SAPE   H9R16003   4.122   2.699   5.841  1.5527 -2.7161  0.3290
  146SAPE  C21016004   4.210   2.794   5.664  0.0708  0.4205 -0.1749
  146SAPE  H10R16005   4.316   2.823   5.650  0.5205 -1.5582 -1.3679
  146SAPE  H10S16006   4.148   2.884   5.685  2.9691  2.2261  1.1247
  146SAPE  C21116007   4.150   2.710   5.553 -0.1009  0.1525  0.0354
  146SAPE  H11R16008   4.050   2.666   5.570  0.1869 -1.1354 -1.4418
  146SAPE  C21216009   4.216   2.674   5.441  0.4565 -0.2308  0.1664
  146SAPE  H12R16010   4.149   2.625   5.369 -0.2540 -0.2568  0.8240
  146SAPE  C21316011   4.351   2.718   5.388  0.6940  0.9942  0.4513
  146SAPE  H13R16012   4.421   2.631   5.389  1.8365  1.8219  3.6907
  146SAPE  H13S16013   4.400   2.788   5.458 -1.3177  0.5874  2.3896
  146SAPE  C21416014   4.332   2.780   5.250  0.6864 -1.0946 -0.1298
  146SAPE  H14R16015   4.315   2.705   5.172 -0.0224 -2.5813  1.3862
  146SAPE  C21516016   4.353   2.907   5.206 -0.2953  0.2324  0.2619
  146SAPE  H15R16017   4.352   2.925   5.098  0.1608 -0.0434  0.2068
  146SAPE  C21616018   4.392   3.023   5.290 -0.1570 -0.6250  0.1972
  146SAPE  H16R16019   4.453   2.988   5.376  0.1707 -1.7544 -0.4759
  146SAPE  H16S16020   4.307   3.085   5.325 -0.5020 -0.9040 -0.1461
  146SAPE  C21716021   4.478   3.114   5.201  0.6977 -0.3835 -0.6774
  146SAPE  H17R16022   4.500   3.205   5.261  0.0234 -1.8627  1.9575
  146SAPE  H17S16023   4.423   3.147   5.110 -1.8251  0.3870  1.0197
  146SAPE  C21816024   4.614   3.055   5.170  0.1883  0.4325 -0.5166
  146SAPE  H18R16025   4.598   2.959   5.117 -1.2012 -0.1309  0.8467
  146SAPE  H18S16026   4.669   3.035   5.264 -1.4602 -1.1065  0.1809
  146SAPE  C21916027   4.704   3.142   5.083  0.0046  0.3179 -1.5421
  146SAPE  H19R16028   4.758   3.212   5.149  0.4575 -0.5107 -1.0236
  146SAPE  H19S16029   4.632   3.206   5.028 -1.4141  0.5591  0.4844
  146SAPE  C22016030   4.797   3.071   4.987  0.2853 -0.2897 -0.1059
  146SAPE  H20R16031   4.850   2.984   5.031  0.4132 -0.5209 -0.7079
  146SAPE  H20S16032   4.878   3.141   4.958  0.8326 -0.4075  1.1045
  146SAPE  H20T16033   4.735   3.046   4.898 -0.5834  3.4811 -0.7129
  146SAPE   C3316034   5.015   2.005   5.994  0.0930  0.0109 -0.3286
  146SAPE   H3X16035   4.983   1.938   6.076 -1.9328  0.8697 -0.3596
  146SAPE   H3Y16036   5.126   2.008   5.999  0.2359 -2.4860 -0.4384
  146SAPE   C3416037   4.966   1.974   5.855  0.1526  0.4407  0.4909
  146SAPE   H4X16038   4.999   2.059   5.792 -0.3090  0.0730 -0.2484
  146SAPE   H4Y16039   4.855   1.973   5.849  0.1381  1.0400  0.5111
  146SAPE   C3516040   5.042   1.843   5.810 -0.4382  0.1346  0.6599
  146SAPE   H5X16041   5.025   1.764   5.886  0.4509  0.7398  1.5049
  146SAPE   H5Y16042   5.147   1.877   5.813 -1.3187  3.0189  1.9140
  146SAPE   C3616043   4.992   1.791   5.666 -0.2585 -0.5154 -0.2889
  146SAPE   H6X16044   5.041   1.861   5.596  1.8563 -0.8748  0.7555
  146SAPE   H6Y16045   4.882   1.803   5.662 -0.4995 -1.5621  1.8373
  146SAPE   C3716046   5.049   1.659   5.615  0.3842  0.0864  0.3357
  146SAPE   H7X16047   5.003   1.582   5.681 -1.0691  1.3125  0.8179
  146SAPE   H7Y16048   5.160   1.663   5.617  0.5523 -1.4363 -2.3028
  146SAPE   C3816049   5.020   1.628   5.468  0.0621  0.5203  0.0213
  146SAPE   H8X16050   5.080   1.684   5.393 -1.9808  2.2593 -0.3998
  146SAPE   H8Y16051   4.920   1.671   5.447  1.0565  1.7432 -2.6800
  146SAPE   C3916052   5.015   1.481   5.444  0.2404 -0.2610 -0.0232
  146SAPE   H9X16053   5.022   1.466   5.334 -0.3396  4.3904 -0.8916
  146SAPE   H9Y16054   4.916   1.438   5.471  0.5568  0.0077  1.7334
  146SAPE  C31016055   5.138   1.405   5.500 -0.0896  0.3710 -0.1367
  146SAPE  H10X16056   5.147   1.410   5.611 -0.7190 -0.8880 -0.0044
  146SAPE  H10Y16057   5.238   1.449   5.482 -0.2965  1.2385  0.7343
  146SAPE  C31116058   5.151   1.260   5.466  0.0747 -0.2728  0.5105
  146SAPE  H11X16059   5.048   1.217   5.461 -0.1763  0.4787 -2.0199
  146SAPE  H11Y16060   5.210   1.197   5.536 -0.6283 -2.8132 -1.0304
  146SAPE  C31216061   5.219   1.233   5.332 -0.2419 -0.8300  0.3893
  146SAPE  H12X16062   5.163   1.281   5.248 -0.0050  1.6052  1.5466
  146SAPE  H12Y16063   5.216   1.123   5.312  3.7425 -0.7963 -1.3243
  146SAPE  C31316064   5.366   1.281   5.322 -0.3832 -0.0088 -0.5489
  146SAPE  H13X16065   5.422   1.215   5.392 -1.1645  0.6487  0.7308
  146SAPE  H13Y16066   5.387   1.382   5.363 -0.2237 -1.3851  3.1092
  146SAPE  C31416067   5.417   1.268   5.175 -0.4778  0.4540 -0.2682
  146SAPE  H14X16068   5.330   1.304   5.116 -0.1476  0.3813 -0.8057
  146SAPE  H14Y16069   5.437   1.161   5.153  3.0536  0.8788  0.3026
  146SAPE  C31516070   5.541   1.348   5.139 -0.5130 -0.2124 -0.0674
  146SAPE  H15X16071   5.627   1.317   5.202 -0.1407  0.9998  0.0528
  146SAPE  H15Y16072   5.527   1.457   5.157  0.3802 -0.0937 -0.0429
  146SAPE  C31616073   5.571   1.319   4.992  0.5091 -0.2224  0.6979
  146SAPE  H16X16074   5.489   1.369   4.937  2.4790  0.4954 -1.7652
  146SAPE  H16Y16075   5.555   1.209   4.980 -1.9104  0.2212 -0.6977
  146SAPE  C31716076   5.711   1.367   4.950 -0.1649 -0.1268  0.7643
  146SAPE  H17X16077   5.719   1.477   4.961 -1.3587 -0.0086  0.6718
  146SAPE  H17Y16078   5.721   1.354   4.840  1.4369 -2.1155  1.0886
  146SAPE  C31816079   5.832   1.289   5.010  0.4874 -0.4115 -0.4202
  146SAPE  H18X16080   5.815   1.197   4.950  2.0579  0.4488 -2.2799
  146SAPE  H18Y16081   5.827   1.280   5.120  1.0367 -1.5955 -0.4838
  146SAPE  H18Z16082   5.932   1.326   4.979 -0.7126  1.4064 -2.4995
  147SAPE     N16083   5.625   6.349   6.905  0.3994 -0.0360 -0.2329
  147SAPE   HN116084   5.649   6.439   6.952  0.9371 -0.0095 -0.5471
  147SAPE   HN216085   5.693   6.278   6.940  0.7488  0.5509  0.2957
  147SAPE   HN316086   5.661   6.364   6.809  1.6286  1.9334  0.4644
  147SAPE   C1216087   5.479   6.310   6.907 -0.1792 -0.2682 -0.3892
  147SAPE  H12A16088   5.462   6.201   6.924  0.5571 -0.0468  2.2355
  147SAPE  H12B16089   5.438   6.328   6.805  0.9830 -1.7133 -1.1578
  147SAPE   C1116090   5.399   6.385   7.017 -1.1849 -0.1733  0.2727
  147SAPE  H11A16091   5.435   6.367   7.121 -0.0951  0.2371 -0.0249
  147SAPE  H11B16092   5.296   6.345   7.029 -0.5594 -1.6194  1.0246
  147SAPE     P16093   5.280   6.579   6.904 -0.2225 -0.2398 -0.3545
  147SAPE   O1316094   5.198   6.458   6.870 -0.1026  0.1457 -0.0086
  147SAPE   O1416095   5.205   6.688   6.983  0.3710 -0.1168 -0.0950
  147SAPE   O1216096   5.395   6.527   6.998 -0.2976  0.2563 -0.4762
  147SAPE   O1116097   5.346   6.649   6.778  0.3599 -0.1119 -0.0272
  147SAPE    C116098   5.475   6.697   6.785 -0.3050 -0.7008 -0.1027
  147SAPE    HA16099   5.510   6.741   6.881  2.5103  1.8903 -2.1129
  147SAPE    HB16100   5.541   6.609   6.767  0.7461 -0.0737  0.5819
  147SAPE    C216101   5.508   6.815   6.684  0.1084 -0.3322 -0.4007
  147SAPE    HS16102   5.482   6.907   6.739 -0.9029 -0.8541  0.0172
  147SAPE   O2116103   5.449   6.808   6.558 -0.4454 -0.4360 -0.0748
  147SAPE   C2116104   5.416   6.919   6.493  0.3199  0.8183  0.1275
  147SAPE   O2216105   5.424   7.032   6.530 -0.4268  0.0219  0.1419
  147SAPE   C2216106   5.338   6.875   6.364 -0.0225  0.1940 -0.0964
  147SAPE   H2R16107   5.398   6.793   6.319 -1.7869 -0.3132 -1.6267
  147SAPE   H2S16108   5.248   6.820   6.397  0.6264 -1.2959 -0.7038
  147SAPE    C316109   5.662   6.831   6.675 -0.3222 -0.0397  0.2743
  147SAPE    HX16110   5.704   6.741   6.627 -0.0053 -0.4937  1.3721
  147SAPE    HY16111   5.695   6.825   6.781 -2.4536 -1.8533  0.9088
  147SAPE   O3116112   5.714   6.953   6.611  0.1425  0.1039 -0.2151
  147SAPE   C3116113   5.761   6.948   6.486 -0.7853 -0.3812 -0.3159
  147SAPE   O3216114   5.733   6.868   6.400 -0.5074  0.0531  0.2339
  147SAPE   C3216115   5.857   7.058   6.456 -0.1138 -1.1004 -0.2709
  147SAPE   H2X16116   5.928   7.066   6.541  0.2193 -0.5828 -0.5910
  147SAPE   H2Y16117   5.804   7.156   6.456 -0.9897 -1.4678  3.0100
  147SAPE   C2316118   5.312   6.983   6.260  0.2684 -0.7520 -1.0876
  147SAPE   H3R16119   5.237   7.052   6.306  1.4713 -1.5992  2.4371
  147SAPE   H3S16120   5.268   6.937   6.169 -1.1172  1.2693 -1.5117
  147SAPE   C2416121   5.438   7.057   6.217 -0.3876  0.0193 -0.0848
  147SAPE   H4R16122   5.507   7.084   6.300  2.3044 -0.9179 -1.8802
  147SAPE   H4S16123   5.400   7.153   6.176 -0.0384 -0.6224 -2.0338
  147SAPE   C2516124   5.535   6.996   6.119 -0.2786 -0.3421 -1.0607
  147SAPE   H5R16125   5.636   6.970   6.156 -0.4124 -1.1663 -1.2512
  147SAPE   C2616126   5.520   7.007   5.986 -0.7989  1.0557 -0.5000
  147SAPE   H6R16127   5.585   6.936   5.933  0.2012  0.6119  1.2450
  147SAPE   C2716128   5.400   7.053   5.912 -0.2712  0.0887  0.7106
  147SAPE   H7R16129   5.424   7.156   5.879 -2.8185 -0.5736 -4.0564
  147SAPE   H7S16130   5.312   7.060   5.979 -1.0175  1.1016 -0.3343
  147SAPE   C2816131   5.352   6.979   5.784 -1.4483 -0.3497 -0.7384
  147SAPE   H8R16132   5.364   6.870   5.788 -1.4998 -0.3170  1.1343
  147SAPE   C2916133   5.305   7.043   5.674  0.4324  0.2091  0.1577
  147SAPE   H9R16134   5.258   6.985   5.593 -1.0913  0.5344  0.7706
  147SAPE  C21016135   5.303   7.201   5.656  0.2415  0.7511 -0.1738
  147SAPE  H10R16136   5.398   7.248   5.688  0.9299  0.2844 -1.4973
  147SAPE  H10S16137   5.241   7.252   5.733  1.9978  1.9326  0.4976
  147SAPE  C21116138   5.276   7.267   5.515  0.7532  1.5696 -0.7017
  147SAPE  H11R16139   5.357   7.237   5.447  0.2679 -0.6140 -0.3939
  147SAPE  C21216140   5.173   7.346   5.484 -0.3266 -0.3047  0.4881
  147SAPE  H12R16141   5.182   7.384   5.382  1.8865 -3.1484 -0.5146
  147SAPE  C21316142   5.067   7.401   5.572  0.2295 -0.0734  0.8943
  147SAPE  H13R16143   5.074   7.350   5.671 -0.8409 -0.0893  0.9781
  147SAPE  H13S16144   4.972   7.374   5.521  0.9603  0.9916 -1.1377
  147SAPE  C21416145   5.075   7.554   5.574  0.0092 -0.2439 -0.1653
  147SAPE  H14R16146   5.134   7.600   5.654 -1.0472 -0.4432  0.7534
  147SAPE  C21516147   5.015   7.634   5.490  0.1784  0.4816 -0.2149
  147SAPE  H15R16148   5.038   7.741   5.506  1.3467  0.0054  1.6719
  147SAPE  C21616149   4.928   7.588   5.376 -0.4664  0.1780 -0.5723
  147SAPE  H16R16150   4.934   7.478   5.366 -1.5770 -0.0763  1.1109
  147SAPE  H16S16151   4.954   7.632   5.277  0.6460 -0.7374 -0.6987
  147SAPE  C21716152   4.786   7.619   5.404  0.3376  0.7549 -0.3647
  147SAPE  H17R16153   4.774   7.720   5.447  0.3312  0.4609  0.3301
  147SAPE  H17S16154   4.755   7.551   5.486 -0.4859 -1.2198 -2.2007
  147SAPE  C21816155   4.697   7.578   5.286 -0.3630  0.3439  0.0333
  147SAPE  H18R16156   4.753   7.517   5.211  0.4989  1.3904 -0.2028
  147SAPE  H18S16157   4.660   7.667   5.231 -2.9980 -0.1672  0.8662
  147SAPE  C21916158   4.564   7.523   5.332  0.1245 -0.5792 -0.2893
  147SAPE  H19R16159   4.482   7.543   5.260 -0.5003 -2.1672 -0.0619
  147SAPE  H19S16160   4.537   7.572   5.428 -1.1323  1.1588 -1.4868
  147SAPE  C22016161   4.566   7.370   5.348  0.4193 -0.0915 -0.8638
  147SAPE  H20R16162   4.466   7.324   5.349  1.6373 -2.9650  0.7451
  147SAPE  H20S16163   4.610   7.345   5.447  1.5496  1.4981 -0.9058
  147SAPE  H20T16164   4.632   7.323   5.272 -0.0414 -0.9171 -0.7637
  147SAPE   C3316165   5.927   7.046   6.324  0.0816 -0.0637  0.2405
  147SAPE   H3X16166   5.855   7.067   6.242 -0.2947 -3.0826 -0.2871
  147SAPE   H3Y16167   5.973   6.946   6.314 -0.7890 -0.6818  2.1075
  147SAPE   C3416168   6.036   7.155   6.320  0.5978 -0.5576 -0.2328
  147SAPE   H4X16169   6.080   7.146   6.421 -1.1503 -0.0588  0.6192
  147SAPE   H4Y16170   5.995   7.257   6.307  1.4956 -0.0846  0.5831
  147SAPE   C3516171   6.144   7.132   6.220  0.0461 -0.4926  0.2069
  147SAPE   H5X16172   6.166   7.023   6.222 -3.3516 -1.3205  2.8495
  147SAPE   H5Y16173   6.242   7.183   6.235  0.8610 -1.8822 -0.2098
  147SAPE   C3616174   6.084   7.145   6.080  0.3183  0.1128 -0.1654
  147SAPE   H6X16175   5.995   7.211   6.086  0.2277 -0.1276  1.7912
  147SAPE   H6Y16176   6.046   7.044   6.055 -3.6717  1.1409  1.0025
  147SAPE   C3716177   6.175   7.208   5.972  0.0318 -0.3490 -0.7545
  147SAPE   H7X16178   6.254   7.132   5.956  0.7419 -0.0646  1.1147
  147SAPE   H7Y16179   6.241   7.295   5.995  1.2918 -1.6666  0.8243
  147SAPE   C3816180   6.104   7.230   5.844  0.4988 -0.1598  0.2868
  147SAPE   H8X16181   6.025   7.303   5.871  1.3800 -0.1592  3.2093
  147SAPE   H8Y16182   6.047   7.143   5.806 -0.9637  0.2728  1.3879
  147SAPE   C3916183   6.197   7.287   5.734 -0.3025  0.0687  0.6327
  147SAPE   H9X16184   6.257   7.204   5.690  0.2404  1.4623 -1.4003
  147SAPE   H9Y16185   6.276   7.356   5.772  0.5491  0.1615 -1.1867
  147SAPE  C31016186   6.114   7.348   5.623 -0.4062 -0.3648  0.4496
  147SAPE  H10X16187   6.062   7.435   5.666 -1.2653 -0.4984 -0.2847
  147SAPE  H10Y16188   6.028   7.285   5.591  0.6184 -0.7337 -1.8642
  147SAPE  C31116189   6.199   7.376   5.505  0.2380  0.5651  0.4402
  147SAPE  H11X16190   6.273   7.298   5.476 -0.9403 -1.3106  2.1163
  147SAPE  H11Y16191   6.250   7.473   5.524 -0.9174  1.1477  0.6704
  147SAPE  C31216192   6.112   7.394   5.381  0.3565 -0.3277  0.7021
  147SAPE  H12X16193   6.040   7.476   5.401  0.0812 -0.7666  1.5983
  147SAPE  H12Y16194   6.060   7.297   5.370  1.0621 -0.7182  0.7358
  147SAPE  C31316195   6.194   7.431   5.258  0.1928 -0.8566  0.3575
  147SAPE  H13X16196   6.273   7.355   5.236 -0.5803 -1.8746  1.0090
  147SAPE  H13Y16197   6.246   7.529   5.267  0.1561 -1.0201  3.0599
  147SAPE  C31416198   6.099   7.428   5.132 -0.5482 -0.2789 -0.1734
  147SAPE  H14X16199   6.011   7.489   5.160  0.5215  0.9579  0.6323
  147SAPE  H14Y16200   6.068   7.323   5.115  0.1092 -0.5907  0.4678
  147SAPE  C31516201   6.161   7.499   5.012  0.6151  0.4742  0.2130
  147SAPE  H15X16202   6.249   7.443   4.975  0.2260 -0.5437  0.7989
  147SAPE  H15Y16203   6.188   7.600   5.051  1.8006  0.2395  0.0373
  147SAPE  C31616204   6.070   7.524   4.895 -0.0690  0.2142  0.4634
  147SAPE  H16X16205   5.975   7.576   4.919  0.2701  0.3519  1.5800
  147SAPE  H16Y16206   6.030   7.427   4.860  2.5541 -0.9280  0.3513
  147SAPE  C31716207   6.137   7.581   4.770 -0.3313 -0.4805 -0.4307
  147SAPE  H17X16208   6.215   7.508   4.740 -1.4777 -0.7904 -2.9111
  147SAPE  H17Y16209   6.183   7.680   4.790  0.1673 -0.7817 -0.0645
  147SAPE  C31816210   6.033   7.597   4.663  0.0770  0.1922 -0.3703
  147SAPE  H18X16211   5.963   7.671   4.707  0.8142  1.8201 -1.8387
  147SAPE  H18Y16212   5.990   7.498   4.637  1.1644 -0.0634 -1.2668
  147SAPE  H18Z16213   6.068   7.644   4.569 -1.6169 -1.2259 -1.7710
  148SAPE     N16214   6.688   6.402   6.701 -0.1921 -0.3084 -0.3841
  148SAPE   HN116215   6.709   6.491   6.749  2.0890 -0.5136 -0.8941
  148SAPE   HN216216   6.614   6.346   6.749  2.6814 -1.4104  3.2065
  148SAPE   HN316217   6.771   6.343   6.721 -0.5955 -1.0416 -0.8314
  148SAPE   C1216218   6.659   6.412   6.552  0.1082 -0.0623 -0.5891
  148SAPE  H12A16219   6.749   6.449   6.499  0.4297 -0.3647 -0.2638
  148SAPE  H12B16220   6.582   6.490   6.538 -1.1616 -1.1043  0.2867
  148SAPE   C1116221   6.615   6.273   6.502 -0.1409  0.1662  0.5165
  148SAPE  H11A16222   6.696   6.198   6.513 -1.0500 -0.9002  0.0255
  148SAPE  H11B16223   6.597   6.286   6.393  1.1694 -1.2960  0.0923
  148SAPE     P16224   6.357   6.235   6.531 -0.1392  0.0729 -0.3850
  148SAPE   O1316225   6.271   6.158   6.625 -0.4096 -0.6593  0.2416
  148SAPE   O1416226   6.340   6.383   6.520 -0.5996 -0.1188  0.3177
  148SAPE   O1216227   6.505   6.213   6.573 -0.3741  0.0074 -0.3403
  148SAPE   O1116228   6.349   6.177   6.385  0.6223 -0.5939  0.0679
  148SAPE    C116229   6.286   6.054   6.359  0.1549 -0.5635 -0.2791
  148SAPE    HA16230   6.190   6.047   6.414 -0.9568  0.1210 -2.0627
  148SAPE    HB16231   6.259   6.047   6.252  1.4229 -3.0399 -0.5334
  148SAPE    C216232   6.359   5.920   6.391 -1.2936 -0.1165 -0.0388
  148SAPE    HS16233   6.373   5.911   6.501 -0.5563 -0.3391 -0.1464
  148SAPE   O2116234   6.487   5.918   6.317 -0.1684 -0.0443  0.1690
  148SAPE   C2116235   6.582   5.857   6.384 -0.3482 -0.2416  0.4271
  148SAPE   O2216236   6.565   5.824   6.504 -0.7716  0.0985  0.2336
  148SAPE   C2216237   6.716   5.857   6.317  0.1009  0.5081  0.2013
  148SAPE   H2R16238   6.793   5.874   6.395  0.5572  0.1939 -0.1692
  148SAPE   H2S16239   6.732   5.755   6.277 -3.0000 -0.6116  1.5476
  148SAPE    C316240   6.266   5.806   6.336  1.0344  0.4321  0.3549
  148SAPE    HX16241   6.164   5.834   6.371  1.6066  2.1258  0.7484
  148SAPE    HY16242   6.305   5.714   6.384 -1.6148 -1.8078 -1.4235
  148SAPE   O3116243   6.255   5.791   6.193  0.0271 -0.1963  0.0528
  148SAPE   C3116244   6.343   5.717   6.127  0.4626  0.3716  0.0492
  148SAPE   O3216245   6.436   5.647   6.164 -0.3110 -0.2101 -0.7047
  148SAPE   C3216246   6.299   5.737   5.982 -0.3267 -0.3675 -0.7134
  148SAPE   H2X16247   6.228   5.822   5.975 -2.1506 -1.4955  2.3188
  148SAPE   H2Y16248   6.229   5.654   5.959 -0.5368  0.3525 -2.9679
  148SAPE   C2316249   6.733   5.955   6.200 -0.1329  0.1238  0.7406
  148SAPE   H3R16250   6.715   6.059   6.234  1.5561  1.2749 -1.5663
  148SAPE   H3S16251   6.655   5.929   6.125  0.1286  2.1746 -0.3082
  148SAPE   C2416252   6.870   5.946   6.123 -0.3014  0.4476 -0.5458
  148SAPE   H4R16253   6.943   5.958   6.206  0.4810 -1.4515 -0.9194
  148SAPE   H4S16254   6.888   6.041   6.068  1.4764 -0.3072 -1.3234
  148SAPE   C2516255   6.900   5.830   6.032 -0.1043 -0.5922 -0.4144
  148SAPE   H5R16256   6.913   5.736   6.088 -0.9127 -0.7713 -0.5197
  148SAPE   C2616257   6.864   5.828   5.902  0.6040 -0.4853  0.2448
  148SAPE   H6R16258   6.888   5.740   5.841 -0.9934  0.3779 -1.7668
  148SAPE   C2716259   6.810   5.948   5.822  0.1032  0.3004 -0.8045
  148SAPE   H7R16260   6.890   5.988   5.758 -1.3686 -1.7084 -4.1671
  148SAPE   H7S16261   6.775   6.030   5.889  0.9041 -0.3014  0.3747
  148SAPE   C2816262   6.698   5.902   5.729  1.0425  0.4940  0.5366
  148SAPE   H8R16263   6.620   5.833   5.764 -1.1532  1.7356 -1.5719
  148SAPE   C2916264   6.675   5.951   5.606  1.4097  0.1115 -0.0117
  148SAPE   H9R16265   6.585   5.920   5.551  0.7016 -1.2486  1.8391
  148SAPE  C21016266   6.759   6.055   5.543  0.3767  0.1836 -0.6576
  148SAPE  H10R16267   6.816   6.002   5.463  2.0154  1.6728 -0.5344
  148SAPE  H10S16268   6.843   6.095   5.604 -0.6878  0.3190  0.7938
  148SAPE  C21116269   6.691   6.181   5.499 -0.3067 -0.8703 -0.0541
  148SAPE  H11R16270   6.719   6.263   5.565  2.2736 -0.8189 -1.1203
  148SAPE  C21216271   6.629   6.221   5.384  0.9520 -0.1676  0.7455
  148SAPE  H12R16272   6.585   6.319   5.360  0.7103 -0.3328  0.5191
  148SAPE  C21316273   6.588   6.129   5.276  0.7172 -0.4301 -0.1535
  148SAPE  H13R16274   6.661   6.046   5.266  3.0851  1.7511 -2.1752
  148SAPE  H13S16275   6.592   6.190   5.183 -1.3721 -0.1125 -0.0933
  148SAPE  C21416276   6.447   6.068   5.284 -0.4514  0.5333  0.1371
  148SAPE  H14R16277   6.377   6.114   5.355 -1.5218 -0.4789 -0.2214
  148SAPE  C21516278   6.419   5.951   5.219  0.8371  0.1825 -0.2755
  148SAPE  H15R16279   6.318   5.909   5.230 -0.1350  2.4847  0.1385
  148SAPE  C21616280   6.501   5.872   5.123  0.2651  0.3445  0.1898
  148SAPE  H16R16281   6.494   5.764   5.147  2.4956 -0.1739 -1.1602
  148SAPE  H16S16282   6.609   5.900   5.128  0.3136  0.0461  0.9478
  148SAPE  C21716283   6.462   5.902   4.983 -0.8054  0.5078 -0.3829
  148SAPE  H17R16284   6.481   6.010   4.964 -2.7721  0.8967 -0.3764
  148SAPE  H17S16285   6.352   5.883   4.981 -0.6933 -0.5317  1.3541
  148SAPE  C21816286   6.522   5.812   4.874 -0.3451 -0.4831  0.6458
  148SAPE  H18R16287   6.513   5.706   4.909 -0.5989 -0.3136  1.1009
  148SAPE  H18S16288   6.629   5.835   4.853 -0.5346 -1.5625 -1.8447
  148SAPE  C21916289   6.456   5.824   4.732  0.0731 -0.0622 -0.7052
  148SAPE  H19R16290   6.347   5.821   4.754  0.5353  1.5935  2.4639
  148SAPE  H19S16291   6.477   5.733   4.672 -3.4703 -0.7711 -1.1152
  148SAPE  C22016292   6.492   5.949   4.655  0.0635 -0.2021  0.4326
  148SAPE  H20R16293   6.603   5.956   4.661  0.1373 -1.8200  2.4697
  148SAPE  H20S16294   6.449   6.035   4.711 -1.0204 -1.1023  1.0314
  148SAPE  H20T16295   6.446   5.954   4.554  0.5038  0.6773  0.2706
  148SAPE   C3316296   6.407   5.756   5.879 -0.0358  0.1901 -0.1442
  148SAPE   H3X16297   6.495   5.700   5.917 -0.8508 -0.0257  1.5194
  148SAPE   H3Y16298   6.424   5.866   5.876 -0.7861  0.3068 -0.4036
  148SAPE   C3416299   6.382   5.700   5.734 -0.0409 -0.0683  0.0231
  148SAPE   H4X16300   6.380   5.589   5.734 -0.3592 -0.1398 -2.8895
  148SAPE   H4Y16301   6.470   5.733   5.675  0.2549 -1.2826 -0.2565
  148SAPE   C3516302   6.250   5.749   5.665 -0.2330 -0.2345 -0.6172
  148SAPE   H5X16303   6.234   5.858   5.682  0.8328 -0.2334  0.5720
  148SAPE   H5Y16304   6.166   5.690   5.708 -0.3620  0.3746  0.0102
  148SAPE   C3616305   6.257   5.746   5.514  0.1148 -0.1490 -0.6844
  148SAPE   H6X16306   6.348   5.799   5.481  2.1473 -1.7351  1.9305
  148SAPE   H6Y16307   6.168   5.798   5.474 -0.0613  0.3058  0.2760
  148SAPE   C3716308   6.280   5.602   5.454 -0.4303  0.0074 -0.0575
  148SAPE   H7X16309   6.186   5.556   5.491  0.3392 -0.4795  1.3797
  148SAPE   H7Y16310   6.368   5.550   5.498 -0.5013 -0.6779 -0.7015
  148SAPE   C3816311   6.277   5.601   5.303 -0.6148  0.7662 -0.5965
  148SAPE   H8X16312   6.372   5.645   5.265  1.3509 -3.6188 -1.4390
  148SAPE   H8Y16313   6.198   5.668   5.265 -0.6729  1.6021  0.9302
  148SAPE   C3916314   6.248   5.463   5.233 -0.1846 -0.5392  0.8124
  148SAPE   H9X16315   6.139   5.441   5.237 -0.8073  1.8334 -0.8494
  148SAPE   H9Y16316   6.306   5.373   5.261  0.8792 -0.1367 -0.0530
  148SAPE  C31016317   6.289   5.475   5.077 -0.2490 -0.6534 -0.5028
  148SAPE  H10X16318   6.396   5.504   5.071  0.2041 -1.7702  1.5018
  148SAPE  H10Y16319   6.228   5.561   5.042 -0.1402 -0.7814 -1.0256
  148SAPE  C31116320   6.251   5.350   4.999 -0.0475  0.3417 -0.2565
  148SAPE  H11X16321   6.154   5.311   5.037 -1.1632  1.3364 -1.9456
  148SAPE  H11Y16322   6.325   5.271   5.023 -1.8788 -0.7131  2.4437
  148SAPE  C31216323   6.234   5.368   4.851  0.7333 -0.3736 -0.2880
  148SAPE  H12X16324   6.175   5.460   4.828 -0.1575 -0.2587  2.1652
  148SAPE  H12Y16325   6.193   5.281   4.795 -0.9599  0.1275  0.0998
  148SAPE  C31316326   6.368   5.382   4.789  0.3486  0.4047 -0.4636
  148SAPE  H13X16327   6.418   5.285   4.808 -0.1775 -0.2265 -2.0742
  148SAPE  H13Y16328   6.423   5.473   4.820 -0.4539  0.2202  1.7234
  148SAPE  C31416329   6.360   5.383   4.634 -0.6056 -0.3873 -0.0341
  148SAPE  H14X16330   6.320   5.291   4.585 -0.4124  0.0672 -1.0643
  148SAPE  H14Y16331   6.464   5.394   4.597 -0.7953  0.0565 -0.4461
  148SAPE  C31516332   6.281   5.505   4.573 -0.1415 -0.9038  0.5020
  148SAPE  H15X16333   6.290   5.592   4.641  0.5857  0.2135 -0.9794
  148SAPE  H15Y16334   6.176   5.474   4.557 -0.6559  1.8244 -2.3775
  148SAPE  C31616335   6.313   5.542   4.426 -0.3509 -0.4116 -0.0417
  148SAPE  H16X16336   6.223   5.591   4.383 -0.2460  1.3819  1.6401
  148SAPE  H16Y16337   6.329   5.449   4.367 -2.4172 -0.4017 -0.6717
  148SAPE  C31716338   6.430   5.644   4.417 -0.0302  0.0224  0.1582
  148SAPE  H17X16339   6.516   5.608   4.477 -1.6166 -1.7985  1.4605
  148SAPE  H17Y16340   6.392   5.732   4.471 -0.2235 -0.3940  0.7067
  148SAPE  C31816341   6.481   5.694   4.279 -0.3897  0.1799  0.0161
  148SAPE  H18X16342   6.528   5.794   4.284 -2.4027  1.1557  0.1210
  148SAPE  H18Y16343   6.400   5.717   4.207 -0.8845  0.5404  0.6756
  148SAPE  H18Z16344   6.556   5.626   4.232  1.4458  2.2718 -0.2657
  149SAPE     N16345   2.048   2.776   6.730  0.1313 -0.1342  0.6036
  149SAPE   HN116346   1.949   2.751   6.707  0.8906 -1.2919 -1.7502
  149SAPE   HN216347   2.103   2.731   6.654  0.1938 -0.6909  0.9763
  149SAPE   HN316348   2.083   2.742   6.822 -1.7137 -2.7210  0.4777
  149SAPE   C1216349   2.041   2.923   6.713  0.6089 -0.0595 -0.3467
  149SAPE  H12A16350   1.935   2.952   6.726  0.0842 -0.8487 -2.6323
  149SAPE  H12B16351   2.074   2.946   6.610  1.2581  1.8775  0.2381
  149SAPE   C1116352   2.141   2.988   6.804 -0.1438  0.2179 -0.3223
  149SAPE  H11A16353   2.125   2.961   6.911  1.1127 -2.4754 -0.7473
  149SAPE  H11B16354   2.127   3.098   6.796 -0.5113  0.2836  0.9042
  149SAPE     P16355   2.355   3.007   6.650 -0.3318 -0.7196  0.5029
  149SAPE   O1316356   2.385   3.144   6.693 -0.7054 -0.1645 -0.0027
  149SAPE   O1416357   2.476   2.925   6.610 -0.1462  0.0846 -0.2097
  149SAPE   O1216358   2.273   2.941   6.771  0.6636 -0.2027 -0.4038
  149SAPE   O1116359   2.261   3.010   6.534  0.0029 -0.2781  0.8450
  149SAPE    C116360   2.269   2.942   6.416 -0.5548  0.4484  0.6457
  149SAPE    HA16361   2.326   2.847   6.419  0.8590  1.2561  0.4202
  149SAPE    HB16362   2.167   2.904   6.391 -1.1897  1.7873  1.0745
  149SAPE    C216363   2.340   3.025   6.299  0.6039  0.1075  0.0274
  149SAPE    HS16364   2.442   3.030   6.344  0.6636 -1.0237  0.0365
  149SAPE   O2116365   2.286   3.157   6.286 -0.0574  0.6556  0.5986
  149SAPE   C2116366   2.365   3.256   6.244  0.3326  0.0032 -0.1168
  149SAPE   O2216367   2.479   3.240   6.209  0.0589  1.1049 -1.0271
  149SAPE   C2216368   2.293   3.381   6.242  0.0275  0.4137  0.6197
  149SAPE   H2R16369   2.217   3.367   6.322  0.1328 -0.3291  0.5981
  149SAPE   H2S16370   2.370   3.457   6.269 -0.6420  1.8132 -1.1970
  149SAPE    C316371   2.355   2.947   6.165 -0.0120 -0.7417  0.0257
  149SAPE    HX16372   2.371   2.839   6.189 -1.0990 -0.6998  1.0357
  149SAPE    HY16373   2.441   2.980   6.104 -0.4911  1.2478  0.3776
  149SAPE   O3116374   2.235   2.960   6.075 -0.0817 -0.0166  0.4418
  149SAPE   C3116375   2.143   2.873   6.096  0.4273  0.4238  0.0372
  149SAPE   O3216376   2.135   2.799   6.193  0.0402  0.2106  0.0706
  149SAPE   C3216377   2.034   2.885   5.989 -0.0034  0.2344 -0.8235
  149SAPE   H2X16378   2.006   2.992   5.989 -0.8365  0.0294 -0.7816
  149SAPE   H2Y16379   1.953   2.819   6.028 -0.4224  1.1198 -0.1515
  149SAPE   C2316380   2.234   3.428   6.111  0.4648  0.6392  0.2240
  149SAPE   H3R16381   2.312   3.419   6.033  1.5110  1.1202  1.1812
  149SAPE   H3S16382   2.199   3.533   6.125 -2.4171 -0.3345  1.0524
  149SAPE   C2416383   2.123   3.341   6.055 -0.1220  0.0300 -0.0508
  149SAPE   H4R16384   2.053   3.339   6.141  0.8774  2.1549  0.8894
  149SAPE   H4S16385   2.171   3.241   6.047  0.9988  0.6034 -0.7566
  149SAPE   C2516386   2.082   3.391   5.918 -0.7864  0.3117 -0.6263
  149SAPE   H5R16387   2.024   3.485   5.917 -0.6409  0.5201  2.5632
  149SAPE   C2616388   2.130   3.343   5.803  0.5025 -0.0819 -0.3386
  149SAPE   H6R16389   2.097   3.387   5.707  1.0941  4.5918  1.3319
  149SAPE   C2716390   2.215   3.226   5.784 -0.7495  0.0242  0.0790
  149SAPE   H7R16391   2.215   3.199   5.676  0.4794  0.0302  0.0627
  149SAPE   H7S16392   2.173   3.143   5.845 -0.5022 -1.3421 -1.5171
  149SAPE   C2816393   2.361   3.235   5.824 -0.7106  0.4115  0.0590
  149SAPE   H8R16394   2.374   3.245   5.933 -1.1278 -1.3171  0.3009
  149SAPE   C2916395   2.469   3.221   5.743 -0.0344  0.6390 -0.6457
  149SAPE   H9R16396   2.570   3.223   5.787  0.3311 -2.9925 -1.0573
  149SAPE  C21016397   2.467   3.196   5.596  0.3921 -0.0214 -0.3379
  149SAPE  H10R16398   2.391   3.119   5.571  1.1341 -0.6882 -0.6296
  149SAPE  H10S16399   2.561   3.143   5.568  0.3812  1.4006 -3.4819
  149SAPE  C21116400   2.413   3.300   5.507 -0.0763  0.4498  0.1669
  149SAPE  H11R16401   2.368   3.387   5.556 -3.3062  0.5625 -2.6594
  149SAPE  C21216402   2.421   3.301   5.371 -0.0388 -0.0689  0.4972
  149SAPE  H12R16403   2.385   3.385   5.309  2.8809  1.6613  0.9632
  149SAPE  C21316404   2.486   3.204   5.276 -0.9380  0.2039 -0.0294
  149SAPE  H13R16405   2.555   3.138   5.333 -1.9016 -0.9738 -0.2050
  149SAPE  H13S16406   2.550   3.250   5.198 -0.6969  0.0513  0.0744
  149SAPE  C21416407   2.391   3.101   5.215 -0.1454  1.1529  0.4486
  149SAPE  H14R16408   2.379   3.006   5.269 -0.9789  0.2320 -1.2880
  149SAPE  C21516409   2.353   3.116   5.086  0.1786 -0.1326 -0.1526
  149SAPE  H15R16410   2.298   3.030   5.046 -1.0110  1.1358 -1.4214
  149SAPE  C21616411   2.367   3.230   4.989  0.2165 -0.5329 -0.1120
  149SAPE  H16R16412   2.474   3.242   4.965  0.1235 -1.8400 -1.3171
  149SAPE  H16S16413   2.339   3.320   5.048  4.1358  0.3378  0.7120
  149SAPE  C21716414   2.279   3.201   4.864 -0.0971 -0.5399 -0.1615
  149SAPE  H17R16415   2.172   3.197   4.895  0.8522 -2.1460  3.4048
  149SAPE  H17S16416   2.311   3.100   4.831  2.0662  0.8129 -2.5570
  149SAPE  C21816417   2.308   3.301   4.753 -0.1928 -0.2163  0.3916
  149SAPE  H18R16418   2.409   3.286   4.708  0.5775  1.4258  1.5182
  149SAPE  H18S16419   2.306   3.403   4.796 -0.1505 -0.0186 -0.0611
  149SAPE  C21916420   2.195   3.291   4.652  0.7814 -0.0044  0.2560
  149SAPE  H19R16421   2.098   3.304   4.704  0.5826  1.9873 -0.5295
  149SAPE  H19S16422   2.197   3.187   4.610  1.8215  0.2638 -0.4065
  149SAPE  C22016423   2.202   3.374   4.527 -0.6682  0.5063 -0.5250
  149SAPE  H20R16424   2.176   3.479   4.551  2.3184  1.3538 -0.6355
  149SAPE  H20S16425   2.144   3.329   4.442 -0.1778 -0.2119 -0.4911
  149SAPE  H20T16426   2.310   3.379   4.502 -0.5834 -1.2737 -0.6692
  149SAPE   C3316427   2.077   2.844   5.857  0.4741 -0.2253  0.3080
  149SAPE   H3X16428   2.117   2.742   5.872  1.1427 -0.2599 -1.4763
  149SAPE   H3Y16429   2.161   2.906   5.818  0.3396  0.5529  1.2198
  149SAPE   C3416430   1.964   2.850   5.748  0.0113  0.0430  0.5430
  149SAPE   H4X16431   1.931   2.956   5.746  0.6382  0.2348  0.1930
  149SAPE   H4Y16432   1.882   2.782   5.779 -0.3751  1.3382  2.5181
  149SAPE   C3516433   2.039   2.834   5.613 -0.2665 -0.1310  0.4585
  149SAPE   H5X16434   2.080   2.732   5.626 -0.6260 -0.2867  0.3887
  149SAPE   H5Y16435   2.120   2.908   5.598 -0.2269 -0.6002 -2.1535
  149SAPE   C3616436   1.939   2.847   5.500  0.0837 -0.3554  0.1736
  149SAPE   H6X16437   1.858   2.774   5.518  0.6611 -0.9618  0.3618
  149SAPE   H6Y16438   1.985   2.802   5.410 -0.2069  0.6476 -0.4918
  149SAPE   C3716439   1.881   2.984   5.476 -0.3028  0.3113 -0.7744
  149SAPE   H7X16440   1.857   3.035   5.572  2.7720  2.2400 -0.8784
  149SAPE   H7Y16441   1.791   2.997   5.413 -0.4780 -0.3097 -0.6659
  149SAPE   C3816442   1.989   3.081   5.410  0.0785 -0.1421 -0.7026
  149SAPE   H8X16443   2.008   3.028   5.315 -0.1485 -3.6201  1.0388
  149SAPE   H8Y16444   2.081   3.088   5.471  0.2421 -0.2980 -0.9350
  149SAPE   C3916445   1.938   3.224   5.383 -0.2682  0.1767 -0.1940
  149SAPE   H9X16446   1.916   3.269   5.482  0.4536  0.3097 -0.0889
  149SAPE   H9Y16447   1.840   3.227   5.331 -0.6832  3.0347  0.5870
  149SAPE  C31016448   2.044   3.299   5.298 -0.3609 -0.7528  0.8458
  149SAPE  H10X16449   2.101   3.230   5.232 -0.4227  0.0768 -0.1113
  149SAPE  H10Y16450   2.119   3.347   5.364 -0.3710  0.0442  0.2892
  149SAPE  C31116451   1.973   3.404   5.207 -0.6027 -0.3359  0.0189
  149SAPE  H11X16452   1.901   3.465   5.265 -1.0469  1.5980 -2.4039
  149SAPE  H11Y16453   1.919   3.341   5.133 -0.1227 -0.3144 -0.3548
  149SAPE  C31216454   2.071   3.486   5.125  0.4643 -0.2634 -0.0095
  149SAPE  H12X16455   2.127   3.402   5.078 -1.8974 -1.0088 -1.6505
  149SAPE  H12Y16456   2.133   3.547   5.194 -0.4301 -0.2958  0.8417
  149SAPE  C31316457   2.011   3.570   5.018  0.2545  0.2196 -0.2188
  149SAPE  H13X16458   1.947   3.510   4.950  1.5185 -0.7543 -0.5973
  149SAPE  H13Y16459   2.090   3.617   4.955 -0.7106 -0.8988 -2.3729
  149SAPE  C31416460   1.915   3.680   5.074 -0.4349  0.2284  0.7585
  149SAPE  H14X16461   1.964   3.743   5.151  0.9929 -1.5189  1.3682
  149SAPE  H14Y16462   1.828   3.636   5.127 -0.6233  0.8107  0.9397
  149SAPE  C31516463   1.853   3.763   4.967  0.5379 -0.3668 -0.0414
  149SAPE  H15X16464   1.933   3.820   4.916  0.2721  0.8685  0.8820
  149SAPE  H15Y16465   1.783   3.840   5.006 -0.1248 -0.8146 -0.3159
  149SAPE  C31616466   1.765   3.689   4.864 -0.1493  0.6970  0.2608
  149SAPE  H16X16467   1.669   3.655   4.906 -1.5153  2.7482 -1.0211
  149SAPE  H16Y16468   1.826   3.606   4.822 -1.1980  0.4714 -0.8400
  149SAPE  C31716469   1.729   3.769   4.739  0.0686 -0.0664 -0.0939
  149SAPE  H17X16470   1.699   3.869   4.779  2.2618  0.8491 -0.6040
  149SAPE  H17Y16471   1.634   3.734   4.692 -0.2753  0.0200  0.5131
  149SAPE  C31816472   1.835   3.797   4.634 -0.7875 -1.0412  0.0726
  149SAPE  H18X16473   1.880   3.702   4.600 -0.7532 -1.2648  0.7167
  149SAPE  H18Y16474   1.922   3.854   4.673 -0.9332 -0.5464 -0.3108
  149SAPE  H18Z16475   1.795   3.861   4.552 -0.0831  0.2540  0.6970
  150SAPE     N16476   4.640   3.876   6.481  0.4595 -0.2257  1.0685
  150SAPE   HN116477   4.693   3.961   6.509  0.0337  0.5241 -0.2912
  150SAPE   HN216478   4.544   3.893   6.517  1.1766  0.8071  2.6141
  150SAPE   HN316479   4.685   3.792   6.521  1.5899 -0.6006 -0.8424
  150SAPE   C1216480   4.635   3.861   6.335  0.1903 -0.8393 -0.5445
  150SAPE  H12A16481   4.588   3.954   6.297 -2.0678 -1.3533  0.7520
  150SAPE  H12B16482   4.566   3.776   6.320  0.6303 -1.4623  0.7991
  150SAPE   C1116483   4.774   3.836   6.273  0.1554 -0.3795 -0.9499
  150SAPE  H11A16484   4.759   3.812   6.165 -1.6418 -1.3289 -0.5277
  150SAPE  H11B16485   4.827   3.755   6.328  0.1760  0.9582  1.0988
  150SAPE     P16486   5.007   3.963   6.284 -0.0323 -0.3549 -0.0658
  150SAPE   O1316487   5.045   4.064   6.180  0.1117  0.0721 -0.0406
  150SAPE   O1416488   5.055   3.987   6.419  0.5269 -0.4161 -0.0784
  150SAPE   O1216489   4.849   3.952   6.298  0.7983 -0.5129  0.4591
  150SAPE   O1116490   5.047   3.822   6.224 -0.5149  0.3467 -0.1929
  150SAPE    C116491   5.173   3.786   6.169  0.1486 -0.4693 -0.0982
  150SAPE    HA16492   5.237   3.876   6.177 -1.4567  0.5895  1.6260
  150SAPE    HB16493   5.227   3.702   6.220  0.3130 -1.2325 -1.4717
  150SAPE    C216494   5.170   3.733   6.020 -0.1407 -0.0786  0.3489
  150SAPE    HS16495   5.163   3.825   5.958  0.7416 -0.7336 -0.7767
  150SAPE   O2116496   5.056   3.646   5.998  0.1354  0.6153 -0.6511
  150SAPE   C2116497   5.013   3.618   5.877  0.7074 -0.1692 -0.1031
  150SAPE   O2216498   5.073   3.656   5.778  0.0497 -1.1601 -0.2842
  150SAPE   C2216499   4.886   3.528   5.894  0.7883  0.0794  0.4733
  150SAPE   H2R16500   4.903   3.445   5.966  1.5256 -0.5280 -0.3802
  150SAPE   H2S16501   4.801   3.580   5.943  0.1219 -0.1677 -0.4055
  150SAPE    C316502   5.304   3.675   5.973 -0.9671 -0.1484 -0.8150
  150SAPE    HX16503   5.298   3.646   5.866 -0.8911 -0.7511 -0.6618
  150SAPE    HY16504   5.317   3.584   6.035 -0.8940 -0.5370 -1.3869
  150SAPE   O3116505   5.411   3.770   5.994 -0.6624 -0.2877 -0.0377
  150SAPE   C3116506   5.535   3.725   5.997  0.3333  0.0256  0.2878
  150SAPE   O3216507   5.567   3.607   5.985  0.2362  0.1921 -0.6390
  150SAPE   C3216508   5.643   3.837   6.020  0.7538 -0.3848 -0.6380
  150SAPE   H2X16509   5.709   3.811   6.106  1.8728  0.7891 -1.1056
  150SAPE   H2Y16510   5.597   3.938   6.028  1.8932  0.1356 -0.3071
  150SAPE   C2316511   4.822   3.480   5.760  0.1550 -0.1908  0.1331
  150SAPE   H3R16512   4.818   3.573   5.699 -0.7953  0.6770  1.4662
  150SAPE   H3S16513   4.718   3.443   5.772 -0.1466  1.1635  2.3816
  150SAPE   C2416514   4.904   3.367   5.695 -0.1851 -0.1367  0.7010
  150SAPE   H4R16515   5.012   3.393   5.685  0.5948 -3.5422 -1.2934
  150SAPE   H4S16516   4.867   3.361   5.591  0.7108 -0.1979  0.3769
  150SAPE   C2516517   4.899   3.237   5.764  0.3203 -0.5444  0.1779
  150SAPE   H5R16518   4.833   3.237   5.853 -0.9698  1.8060 -0.6870
  150SAPE   C2616519   4.969   3.132   5.730 -0.0730 -0.8250 -0.1038
  150SAPE   H6R16520   4.964   3.051   5.804  0.7274 -1.5484 -0.8135
  150SAPE   C2716521   5.068   3.127   5.613  0.3226  0.2499 -0.2819
  150SAPE   H7R16522   5.157   3.074   5.654  0.3512 -0.7703 -1.6226
  150SAPE   H7S16523   5.105   3.226   5.580  0.4713  0.2507 -0.1168
  150SAPE   C2816524   5.011   3.052   5.496 -0.3497  0.0871 -0.0993
  150SAPE   H8R16525   4.919   2.992   5.509  0.5647 -2.0701 -2.6522
  150SAPE   C2916526   5.056   3.054   5.368 -0.3070  0.0941 -0.2909
  150SAPE   H9R16527   5.010   2.987   5.293 -0.0320 -0.5373  0.0946
  150SAPE  C21016528   5.189   3.120   5.317 -0.0713  0.4828 -0.0099
  150SAPE  H10R16529   5.271   3.104   5.391  0.6944  2.3705 -0.3979
  150SAPE  H10S16530   5.184   3.231   5.323  3.3725  0.6597  2.8584
  150SAPE  C21116531   5.246   3.075   5.183 -0.1179 -0.0654 -0.3013
  150SAPE  H11R16532   5.182   3.009   5.123 -0.7776  0.0179  0.2883
  150SAPE  C21216533   5.367   3.110   5.140  0.1202  1.1989 -0.2931
  150SAPE  H12R16534   5.401   3.056   5.050 -2.6889 -0.9314 -0.1968
  150SAPE  C21316535   5.476   3.185   5.214  0.1412  0.1318  0.4417
  150SAPE  H13R16536   5.433   3.260   5.285  2.4497 -0.8713  3.0986
  150SAPE  H13S16537   5.546   3.248   5.157  0.9468 -1.2645 -0.1525
  150SAPE  C21416538   5.549   3.094   5.309  0.2262  0.4108 -0.6959
  150SAPE  H14R16539   5.525   3.110   5.415 -1.3923 -1.8774 -0.6332
  150SAPE  C21516540   5.632   2.987   5.276 -0.1870 -0.0800 -0.3357
  150SAPE  H15R16541   5.684   2.933   5.356  1.3096  2.1462  0.2621
  150SAPE  C21616542   5.674   2.934   5.140 -0.2614  0.2277  0.7121
  150SAPE  H16R16543   5.783   2.943   5.123 -0.5335  0.3921 -1.2663
  150SAPE  H16S16544   5.622   2.990   5.059 -1.6947 -0.0398  1.4192
  150SAPE  C21716545   5.641   2.789   5.122 -0.1892 -0.1057 -0.9246
  150SAPE  H17R16546   5.536   2.769   5.152  0.5139 -0.3096  1.6268
  150SAPE  H17S16547   5.695   2.724   5.194 -0.3475 -0.4598 -1.1257
  150SAPE  C21816548   5.656   2.734   4.983 -0.1045 -0.3410  0.6944
  150SAPE  H18R16549   5.761   2.750   4.951 -0.6442  2.3630 -0.0038
  150SAPE  H18S16550   5.595   2.791   4.910  2.8677  1.4912 -0.5444
  150SAPE  C21916551   5.627   2.576   4.989 -0.1745 -0.1667  0.5952
  150SAPE  H19R16552   5.532   2.543   5.035 -0.2375 -1.3077 -0.3057
  150SAPE  H19S16553   5.710   2.532   5.047  0.3470  0.5664  0.4261
  150SAPE  C22016554   5.631   2.520   4.845 -0.0997  0.3321 -0.5036
  150SAPE  H20R16555   5.605   2.412   4.849 -2.2948  0.3870 -5.7523
  150SAPE  H20S16556   5.729   2.528   4.794  1.1989  0.8540  1.8784
  150SAPE  H20T16557   5.554   2.573   4.785 -0.3631  0.5526  0.0162
  150SAPE   C3316558   5.740   3.826   5.901  0.6823 -0.0300  0.3552
  150SAPE   H3X16559   5.764   3.720   5.877 -0.3688  0.4099 -3.2596
  150SAPE   H3Y16560   5.836   3.875   5.928  1.5906  0.4798 -3.2497
  150SAPE   C3416561   5.679   3.891   5.778 -0.6095  0.0456  0.9123
  150SAPE   H4X16562   5.647   3.995   5.801 -3.9684 -0.0019 -2.6106
  150SAPE   H4Y16563   5.590   3.829   5.754 -0.7136 -0.0340  1.4976
  150SAPE   C3516564   5.772   3.896   5.650  0.3610  0.1213 -0.0618
  150SAPE   H5X16565   5.819   3.800   5.619  0.5494  0.1777  0.0473
  150SAPE   H5Y16566   5.839   3.981   5.677 -0.3782  0.5088  0.5929
  150SAPE   C3616567   5.674   3.944   5.539  0.5166  0.5485  0.5057
  150SAPE   H6X16568   5.612   4.029   5.574  0.3801  0.6356  0.0573
  150SAPE   H6Y16569   5.602   3.860   5.527 -0.3353  1.3438 -0.0559
  150SAPE   C3716570   5.745   3.969   5.407  0.6005  0.5037 -0.1694
  150SAPE   H7X16571   5.813   4.056   5.422  0.8681  1.0658 -3.8273
  150SAPE   H7Y16572   5.670   4.004   5.333  0.3665  1.9657  0.7285
  150SAPE   C3816573   5.817   3.844   5.346 -0.0204  0.8595 -0.2731
  150SAPE   H8X16574   5.752   3.753   5.348  2.9891 -1.4497 -0.4297
  150SAPE   H8Y16575   5.905   3.823   5.410 -1.8089 -0.8867  1.7830
  150SAPE   C3916576   5.860   3.868   5.202  0.3451  0.1075  1.3046
  150SAPE   H9X16577   5.892   3.975   5.199  2.5979 -0.4106  3.2066
  150SAPE   H9Y16578   5.786   3.839   5.125  0.6103 -0.8998  1.4160
  150SAPE  C31016579   5.984   3.783   5.173  0.0656  0.2192  1.1835
  150SAPE  H10X16580   5.947   3.680   5.154 -0.3576  0.4654  0.6333
  150SAPE  H10Y16581   6.046   3.767   5.264  2.5214 -2.9181 -0.8122
  150SAPE  C31116582   6.062   3.831   5.049  0.7797 -0.0316  0.4570
  150SAPE  H11X16583   6.078   3.941   5.052 -1.2467  0.4076 -2.0169
  150SAPE  H11Y16584   5.992   3.828   4.963  0.9816  1.0435  0.2443
  150SAPE  C31216585   6.177   3.744   4.994 -0.4912 -0.3071  0.3565
  150SAPE  H12X16586   6.170   3.635   5.011 -2.2997 -0.1084  1.0599
  150SAPE  H12Y16587   6.264   3.763   5.060 -1.1626  1.0465  0.8954
  150SAPE  C31316588   6.206   3.760   4.841 -0.4146 -0.5421  0.3376
  150SAPE  H13X16589   6.217   3.866   4.810  1.6261 -0.4110  1.3255
  150SAPE  H13Y16590   6.119   3.715   4.789 -1.7279  0.4558  1.6053
  150SAPE  C31416591   6.334   3.689   4.798 -0.4461 -0.0486  0.5610
  150SAPE  H14X16592   6.354   3.596   4.855  3.1554  0.2914  0.0786
  150SAPE  H14Y16593   6.425   3.746   4.827  0.5059 -0.5051 -1.3708
  150SAPE  C31516594   6.334   3.629   4.649 -0.3287  0.2546 -0.1387
  150SAPE  H15X16595   6.258   3.549   4.639 -0.2557  0.3053 -1.2659
  150SAPE  H15Y16596   6.428   3.570   4.642 -1.0263 -0.9067  0.0385
  150SAPE  C31616597   6.339   3.726   4.528 -0.2628  0.1245  0.2795
  150SAPE  H16X16598   6.241   3.773   4.502 -1.2510 -1.5930  0.6772
  150SAPE  H16Y16599   6.372   3.670   4.438  0.8759  0.0245  0.7443
  150SAPE  C31716600   6.442   3.839   4.560 -0.2546 -0.3515  0.0736
  150SAPE  H17X16601   6.544   3.796   4.566  0.6236  1.7391  1.0795
  150SAPE  H17Y16602   6.417   3.893   4.654  0.1396 -0.2423  0.1157
  150SAPE  C31816603   6.437   3.952   4.458  0.2901 -0.4290 -0.5819
  150SAPE  H18X16604   6.338   4.002   4.462  0.3696 -0.2015 -1.2802
  150SAPE  H18Y16605   6.456   3.922   4.353 -0.2416 -3.3718  0.0643
  150SAPE  H18Z16606   6.523   4.016   4.486  0.7946 -0.5458 -1.8186
  151SAPE     N16607   3.545   1.364   6.737  0.2815 -0.0209 -0.5447
  151SAPE   HN116608   3.596   1.314   6.812  0.4898  0.8679 -0.0822
  151SAPE   HN216609   3.568   1.464   6.755 -0.0091 -0.1116  0.3352
  151SAPE   HN316610   3.443   1.348   6.743  0.0013  1.4357 -1.2190
  151SAPE   C1216611   3.582   1.346   6.591  0.6850  0.1016 -0.0595
  151SAPE  H12A16612   3.500   1.394   6.533 -0.7869 -2.5805 -0.3534
  151SAPE  H12B16613   3.575   1.237   6.569  0.4824  0.0328  0.3403
  151SAPE   C1116614   3.717   1.407   6.554 -0.1411 -0.0327 -0.2374
  151SAPE  H11A16615   3.698   1.516   6.541 -0.2840  0.4112  2.8760
  151SAPE  H11B16616   3.756   1.372   6.456  0.3140 -0.9497  0.2633
  151SAPE     P16617   3.907   1.269   6.669  0.0396  0.7638 -0.3575
  151SAPE   O1316618   4.018   1.294   6.770  1.3531  0.1304  0.1377
  151SAPE   O1416619   3.834   1.141   6.685  0.2806 -0.0365 -0.5246
  151SAPE   O1216620   3.804   1.390   6.666  0.0432 -0.4794  0.2970
  151SAPE   O1116621   3.975   1.282   6.528 -0.3871  0.2062 -0.2147
  151SAPE    C116622   3.972   1.176   6.428 -0.1731 -0.6872  0.1438
  151SAPE    HA16623   3.888   1.106   6.442  0.9350 -1.9345  0.7587
  151SAPE    HB16624   3.948   1.223   6.330  0.2838  0.3191  0.5007
  151SAPE    C216625   4.104   1.102   6.419 -0.1159 -0.4760  0.2547
  151SAPE    HS16626   4.130   1.052   6.515  0.3485  1.1133  0.9833
  151SAPE   O2116627   4.198   1.206   6.389 -0.4311 -0.4384 -0.0382
  151SAPE   C2116628   4.322   1.180   6.429 -0.8433  0.3197  1.0168
  151SAPE   O2216629   4.354   1.083   6.496 -0.9872 -0.4285  0.0376
  151SAPE   C2216630   4.413   1.292   6.379  0.8158 -0.0999  0.0385
  151SAPE   H2R16631   4.370   1.392   6.395 -1.2249 -0.6954 -1.3276
  151SAPE   H2S16632   4.508   1.281   6.436  2.6117  0.7193 -2.5584
  151SAPE    C316633   4.098   1.004   6.295 -0.3554  0.8023  0.2808
  151SAPE    HX16634   4.081   1.065   6.203  0.6852  0.0823 -0.4116
  151SAPE    HY16635   4.018   0.928   6.308  1.2822 -1.2856 -1.1192
  151SAPE   O3116636   4.221   0.943   6.262 -0.2481 -0.5794  0.2135
  151SAPE   C3116637   4.245   0.834   6.338 -0.7720  0.4380 -0.0135
  151SAPE   O3216638   4.181   0.801   6.431 -0.2122  0.2064 -0.0999
  151SAPE   C3216639   4.376   0.761   6.292  0.1490 -0.6264 -0.2041
  151SAPE   H2X16640   4.394   0.679   6.365  2.6115  0.8050  0.9515
  151SAPE   H2Y16641   4.455   0.838   6.302 -1.1497  0.7849 -0.4323
  151SAPE   C2316642   4.433   1.274   6.226 -0.3684  0.6010 -0.1601
  151SAPE   H3R16643   4.486   1.366   6.194  0.1795  1.4631  2.9020
  151SAPE   H3S16644   4.331   1.285   6.184 -1.1412  0.0127  1.4733
  151SAPE   C2416645   4.503   1.141   6.189  0.6539 -0.1251 -0.1271
  151SAPE   H4R16646   4.439   1.057   6.224  2.1055 -0.7693  1.1264
  151SAPE   H4S16647   4.602   1.126   6.237  1.0047  1.5121 -0.3027
  151SAPE   C2516648   4.526   1.136   6.040  0.0665 -0.2042 -0.3111
  151SAPE   H5R16649   4.631   1.155   6.012  0.2821 -0.0147  0.6013
  151SAPE   C2616650   4.438   1.109   5.946  0.4205  0.2012  0.6228
  151SAPE   H6R16651   4.462   1.121   5.840 -2.6258 -1.9661 -0.4516
  151SAPE   C2716652   4.285   1.083   5.963  0.2235 -0.7598 -0.1352
  151SAPE   H7R16653   4.244   1.103   6.065  0.2450  0.0659 -0.2824
  151SAPE   H7S16654   4.270   0.974   5.948 -1.9129 -0.3720 -1.1356
  151SAPE   C2816655   4.199   1.166   5.869 -0.2643 -0.3461  0.0234
  151SAPE   H8R16656   4.154   1.257   5.912 -1.2607 -0.4140 -0.8336
  151SAPE   C2916657   4.179   1.145   5.736 -0.0246  0.8900 -0.0241
  151SAPE   H9R16658   4.109   1.209   5.680 -0.7664  0.0633 -0.0675
  151SAPE  C21016659   4.230   1.029   5.657 -0.0073 -0.4027 -0.2014
  151SAPE  H10R16660   4.255   0.947   5.727 -0.7207 -1.0833 -0.7266
  151SAPE  H10S16661   4.320   1.067   5.603 -0.0824  0.4195  0.2296
  151SAPE  C21116662   4.119   0.996   5.564 -0.4013 -0.2900  0.2521
  151SAPE  H11R16663   4.022   0.979   5.613 -0.0544 -0.9268  0.7174
  151SAPE  C21216664   4.121   1.002   5.431 -0.3335  0.3809 -0.1042
  151SAPE  H12R16665   4.041   0.954   5.373 -0.7330  0.2051  0.5856
  151SAPE  C21316666   4.232   1.035   5.344 -0.3724 -0.2547  0.0536
  151SAPE  H13R16667   4.274   0.940   5.304 -0.5908 -1.1237  1.8181
  151SAPE  H13S16668   4.309   1.102   5.388 -0.5171  0.6522 -1.0189
  151SAPE  C21416669   4.173   1.122   5.229  0.3652  0.0739 -0.3478
  151SAPE  H14R16670   4.105   1.205   5.251 -0.7737 -1.0698  0.6245
  151SAPE  C21516671   4.201   1.109   5.097 -0.7612  0.4153  0.5481
  151SAPE  H15R16672   4.164   1.175   5.017  2.6070 -0.6185 -2.0738
  151SAPE  C21616673   4.314   1.022   5.039  1.0596 -0.2050 -0.5918
  151SAPE  H16R16674   4.388   1.010   5.121 -0.8639 -1.4056  1.0798
  151SAPE  H16S16675   4.355   1.068   4.947 -1.5370  1.1196 -1.2025
  151SAPE  C21716676   4.263   0.886   4.991 -0.0626 -0.3083 -0.8125
  151SAPE  H17R16677   4.167   0.897   4.937 -1.2862 -3.3415  0.4897
  151SAPE  H17S16678   4.235   0.824   5.079  0.6399  0.3190 -0.1253
  151SAPE  C21816679   4.368   0.811   4.898  0.0991  0.0026 -0.3716
  151SAPE  H18R16680   4.383   0.865   4.803  0.0632  0.7457  0.0366
  151SAPE  H18S16681   4.313   0.719   4.868 -0.1122 -0.1355  0.4102
  151SAPE  C21916682   4.509   0.786   4.958 -0.4170 -0.5867  0.7122
  151SAPE  H19R16683   4.498   0.740   5.059  0.5115  0.3214  1.2499
  151SAPE  H19S16684   4.547   0.890   4.974 -0.5967 -0.0279 -2.0085
  151SAPE  C22016685   4.620   0.726   4.875  0.3962  0.9423  0.4526
  151SAPE  H20R16686   4.715   0.766   4.915 -0.9511  2.0047  2.8321
  151SAPE  H20S16687   4.613   0.750   4.767  2.8364  1.0806  0.2812
  151SAPE  H20T16688   4.621   0.616   4.887 -1.1856  0.9931  1.3462
  151SAPE   C3316689   4.370   0.711   6.148 -0.3140 -1.0359  0.3692
  151SAPE   H3X16690   4.455   0.640   6.139  0.4974 -0.1031  0.5070
  151SAPE   H3Y16691   4.374   0.789   6.069  0.2223 -1.3926  0.0295
  151SAPE   C3416692   4.240   0.628   6.133 -0.1522  0.8577 -0.1028
  151SAPE   H4X16693   4.150   0.692   6.130 -1.8922 -1.3386  1.4117
  151SAPE   H4Y16694   4.221   0.553   6.213  0.6023  1.2044  0.4075
  151SAPE   C3516695   4.240   0.544   6.001  0.2779  0.4543 -0.2826
  151SAPE   H5X16696   4.144   0.488   5.998  0.3045  0.1905  2.0806
  151SAPE   H5Y16697   4.317   0.464   6.005  1.5381  1.4489 -2.6945
  151SAPE   C3616698   4.258   0.640   5.877 -0.3628  0.8361 -0.4732
  151SAPE   H6X16699   4.362   0.674   5.862 -0.1944  0.5725  0.1038
  151SAPE   H6Y16700   4.196   0.730   5.899  0.6709  1.4046  0.1888
  151SAPE   C3716701   4.219   0.558   5.756 -0.0441 -0.6575 -0.3041
  151SAPE   H7X16702   4.110   0.536   5.769 -0.5224  1.6185 -0.0106
  151SAPE   H7Y16703   4.267   0.458   5.766  0.6952 -0.0936  3.1760
  151SAPE   C3816704   4.229   0.623   5.618  0.6138 -0.1375  0.1191
  151SAPE   H8X16705   4.336   0.645   5.596  0.6643  0.8321  1.2379
  151SAPE   H8Y16706   4.185   0.725   5.626  2.2295  0.9675 -3.0862
  151SAPE   C3916707   4.166   0.542   5.502 -0.6652  0.2399  0.1264
  151SAPE   H9X16708   4.069   0.493   5.526  0.5742 -3.0346 -0.9058
  151SAPE   H9Y16709   4.226   0.449   5.497 -1.4502 -0.3796  1.6557
  151SAPE  C31016710   4.160   0.612   5.364  0.0705  0.0054 -0.8143
  151SAPE  H10X16711   4.267   0.634   5.342  0.2298  2.0826  1.4525
  151SAPE  H10Y16712   4.106   0.707   5.384 -0.4552 -0.8405  2.5199
  151SAPE  C31116713   4.091   0.527   5.250  0.6072  0.3008  0.4547
  151SAPE  H11X16714   3.990   0.500   5.287 -0.1441  1.9929 -0.2854
  151SAPE  H11Y16715   4.148   0.432   5.239 -0.2856 -0.2329  0.3327
  151SAPE  C31216716   4.076   0.603   5.121  0.1668  0.0081 -0.2915
  151SAPE  H12X16717   4.179   0.606   5.079  0.8896  0.2067  1.4137
  151SAPE  H12Y16718   4.040   0.707   5.136 -0.6215 -0.2345 -0.5032
  151SAPE  C31316719   3.981   0.520   5.030 -0.0994  0.4271  0.4512
  151SAPE  H13X16720   3.874   0.530   5.057 -0.4421 -1.4884 -0.0891
  151SAPE  H13Y16721   4.000   0.411   5.040 -1.1914  0.1314 -0.4855
  151SAPE  C31416722   4.004   0.552   4.877 -0.0188  0.2281 -0.2999
  151SAPE  H14X16723   4.114   0.558   4.864  0.1053  2.3774  1.1948
  151SAPE  H14Y16724   3.964   0.655   4.863 -0.0869  0.2423 -0.0075
  151SAPE  C31516725   3.935   0.453   4.779 -0.3029 -0.0825  0.6544
  151SAPE  H15X16726   3.828   0.453   4.807  0.4640 -0.6911  4.0794
  151SAPE  H15Y16727   3.977   0.350   4.786 -1.8093 -0.8041 -0.4011
  151SAPE  C31616728   3.941   0.511   4.631  0.4663 -0.5807 -0.8975
  151SAPE  H16X16729   3.862   0.462   4.570  0.3475  1.0085 -2.0716
  151SAPE  H16Y16730   4.043   0.502   4.588  0.5511  0.8808 -1.0391
  151SAPE  C31716731   3.893   0.656   4.621 -0.3354  0.7112  0.2175
  151SAPE  H17X16732   3.957   0.729   4.676 -0.1942  1.3952 -0.8241
  151SAPE  H17Y16733   3.797   0.673   4.674 -0.1760  0.6162  0.5427
  151SAPE  C31816734   3.872   0.709   4.478  0.1150  0.0129 -0.0578
  151SAPE  H18X16735   3.863   0.819   4.486 -0.9692  0.0017 -0.8573
  151SAPE  H18Y16736   3.783   0.663   4.430  0.5617 -0.6972 -0.2225
  151SAPE  H18Z16737   3.955   0.674   4.412 -1.5713 -0.9085 -1.8174
  152SAPE     N16738   4.090   2.129   6.740  0.0719 -0.0548  0.3859
  152SAPE   HN116739   4.184   2.142   6.782 -0.2547  1.0398  0.8157
  152SAPE   HN216740   4.056   2.220   6.701 -2.6481 -1.1478 -0.0584
  152SAPE   HN316741   4.017   2.106   6.811 -0.9092 -1.6513 -1.0536
  152SAPE   C1216742   4.098   2.022   6.633 -0.2683  0.2289  0.1800
  152SAPE  H12A16743   4.163   1.939   6.668 -0.7321 -0.4999 -0.6582
  152SAPE  H12B16744   4.158   2.057   6.547  0.1568  0.8553  0.7158
  152SAPE   C1116745   3.952   1.985   6.604 -0.3585 -0.8061  0.2120
  152SAPE  H11A16746   3.942   1.922   6.513 -1.2880 -0.3445 -0.0235
  152SAPE  H11B16747   3.897   2.076   6.570  0.5840 -0.9762 -1.9341
  152SAPE     P16748   3.890   1.759   6.724  0.2702  0.5917  0.3766
  152SAPE   O1316749   3.941   1.721   6.855 -0.3530  0.4500  0.1375
  152SAPE   O1416750   3.756   1.711   6.685 -0.0399 -0.1495 -0.1866
  152SAPE   O1216751   3.894   1.920   6.721 -0.4653 -0.2941 -0.0839
  152SAPE   O1116752   3.998   1.735   6.612 -0.1947  1.1034  0.0143
  152SAPE    C116753   3.957   1.665   6.484 -0.1479 -0.3721 -0.1020
  152SAPE    HA16754   3.917   1.564   6.503  3.2136 -1.5511  1.6377
  152SAPE    HB16755   3.877   1.728   6.440  1.1627  1.0569 -0.5338
  152SAPE    C216756   4.079   1.660   6.391 -0.2941  0.0009  0.1492
  152SAPE    HS16757   4.166   1.619   6.447  2.2536  2.4593 -1.7099
  152SAPE   O2116758   4.108   1.794   6.345  0.0705  0.1323 -0.0457
  152SAPE   C2116759   4.235   1.810   6.305  0.8573  0.2953 -0.0690
  152SAPE   O2216760   4.318   1.722   6.294  0.4759 -0.0217  0.0213
  152SAPE   C2216761   4.251   1.954   6.242 -0.0846 -0.0936  0.1968
  152SAPE   H2R16762   4.174   1.970   6.164 -0.6450  1.3236  0.9885
  152SAPE   H2S16763   4.231   2.022   6.328 -0.4642 -1.4078  1.1842
  152SAPE    C316764   4.037   1.568   6.270  0.4036 -0.8701 -0.3143
  152SAPE    HX16765   3.943   1.607   6.226  0.4143  0.8392  1.0893
  152SAPE    HY16766   3.999   1.472   6.312  1.6568 -1.4962 -0.5578
  152SAPE   O3116767   4.148   1.532   6.182 -0.0755  0.1082 -0.2090
  152SAPE   C3116768   4.135   1.564   6.059 -0.1220 -0.1144  0.0873
  152SAPE   O3216769   4.039   1.615   6.003 -1.1038  0.0132  0.1640
  152SAPE   C3216770   4.269   1.542   5.992  0.1214 -0.3426 -0.8305
  152SAPE   H2X16771   4.306   1.437   5.990  0.0705 -0.4087  0.7622
  152SAPE   H2Y16772   4.339   1.589   6.064 -1.1708  0.6371 -0.1812
  152SAPE   C2316773   4.393   1.982   6.186  0.4892 -0.1379 -0.4923
  152SAPE   H3R16774   4.469   1.947   6.259 -1.5492 -1.4944  1.1108
  152SAPE   H3S16775   4.405   2.091   6.171  1.4468 -0.0194  0.9683
  152SAPE   C2416776   4.417   1.918   6.051 -0.2985 -0.1612  0.6211
  152SAPE   H4R16777   4.419   1.808   6.068  1.4504 -0.2827 -0.2087
  152SAPE   H4S16778   4.519   1.936   6.012 -0.1365 -0.5875  0.8408
  152SAPE   C2516779   4.313   1.954   5.943  0.5592 -0.3235  1.0089
  152SAPE   H5R16780   4.210   1.917   5.956  0.5786 -0.9554 -0.3702
  152SAPE   C2616781   4.336   2.038   5.839 -0.3969 -0.3962 -0.0750
  152SAPE   H6R16782   4.271   2.039   5.750 -1.0323 -0.2289  0.3823
  152SAPE   C2716783   4.471   2.099   5.802 -0.1578  0.4695  0.2939
  152SAPE   H7R16784   4.513   2.163   5.882 -0.0777 -1.3389  1.7624
  152SAPE   H7S16785   4.452   2.167   5.716 -1.8624 -1.1137 -0.6422
  152SAPE   C2816786   4.566   1.998   5.740  0.3622  0.2790  0.0441
  152SAPE   H8R16787   4.621   1.961   5.827  0.0425  1.1786  0.6448
  152SAPE   C2916788   4.570   1.940   5.616 -0.3896  1.2102 -0.0812
  152SAPE   H9R16789   4.636   1.852   5.605 -0.6914  1.2428 -3.0262
  152SAPE  C21016790   4.490   1.975   5.494  0.4363 -0.3593  0.3561
  152SAPE  H10R16791   4.559   1.979   5.407 -3.1285 -1.0181 -2.7510
  152SAPE  H10S16792   4.437   2.073   5.503 -0.2990 -0.8061  1.0621
  152SAPE  C21116793   4.386   1.881   5.444  1.1932  0.3608 -1.5051
  152SAPE  H11R16794   4.289   1.881   5.496  2.2397 -0.8133  0.5991
  152SAPE  C21216795   4.394   1.799   5.348 -0.2449 -0.9685  0.5108
  152SAPE  H12R16796   4.307   1.736   5.325 -0.0060 -0.1793 -3.2194
  152SAPE  C21316797   4.510   1.787   5.249 -0.4237 -0.5550 -0.2631
  152SAPE  H13R16798   4.592   1.733   5.301  1.8641  0.6719 -2.3340
  152SAPE  H13S16799   4.559   1.882   5.220 -3.4537  1.1259 -0.2598
  152SAPE  C21416800   4.476   1.709   5.120  0.1855 -0.3563 -0.7314
  152SAPE  H14R16801   4.491   1.601   5.132 -2.1108 -0.6354  0.1280
  152SAPE  C21516802   4.412   1.764   5.015 -0.1782 -0.2113 -0.0317
  152SAPE  H15R16803   4.374   1.695   4.938  0.1388 -3.0011  2.1316
  152SAPE  C21616804   4.368   1.912   5.001  0.0514 -0.8431  0.2954
  152SAPE  H16R16805   4.424   1.985   5.063 -3.2656 -0.5097  3.2215
  152SAPE  H16S16806   4.260   1.924   5.026 -0.0960 -0.5383 -0.4478
  152SAPE  C21716807   4.381   1.945   4.847 -0.1897  0.1863  0.3677
  152SAPE  H17R16808   4.479   1.918   4.804  0.0198 -0.9537  1.5204
  152SAPE  H17S16809   4.366   2.055   4.845 -0.8546  0.1603  2.1047
  152SAPE  C21816810   4.268   1.896   4.764  0.5958 -0.0979  0.5464
  152SAPE  H18R16811   4.170   1.927   4.803  0.9813  0.6444  0.9309
  152SAPE  H18S16812   4.276   1.785   4.763 -1.5981 -0.3069 -0.8022
  152SAPE  C21916813   4.271   1.951   4.617 -0.3725  0.7032 -0.9427
  152SAPE  H19R16814   4.364   1.939   4.557 -0.2350  3.9240 -1.5745
  152SAPE  H19S16815   4.257   2.061   4.626  0.9345  0.9603 -1.8447
  152SAPE  C22016816   4.152   1.891   4.533 -0.6741 -0.7849  0.2614
  152SAPE  H20R16817   4.054   1.929   4.569 -1.3198 -2.0359 -0.1324
  152SAPE  H20S16818   4.157   1.781   4.521 -0.1009 -0.5480 -2.0997
  152SAPE  H20T16819   4.169   1.930   4.430 -4.0088 -0.6255 -0.3468
  152SAPE   C3316820   4.274   1.604   5.853 -0.1139 -0.0627  0.2891
  152SAPE   H3X16821   4.379   1.621   5.823 -0.0390  0.0332  0.5999
  152SAPE   H3Y16822   4.218   1.700   5.861 -1.0800 -0.6341  0.5991
  152SAPE   C3416823   4.205   1.517   5.745  0.9937  0.5499  0.0208
  152SAPE   H4X16824   4.101   1.496   5.779  1.0896 -0.0389 -0.0342
  152SAPE   H4Y16825   4.248   1.415   5.732 -0.7941 -0.1581 -0.6297
  152SAPE   C3516826   4.187   1.578   5.608 -0.4553  0.4652  0.1336
  152SAPE   H5X16827   4.289   1.605   5.574  0.0054 -0.5262  0.6807
  152SAPE   H5Y16828   4.147   1.681   5.610  1.3912  1.2049  1.0783
  152SAPE   C3616829   4.130   1.471   5.512 -0.0150  0.0719  0.3955
  152SAPE   H6X16830   4.030   1.429   5.539  0.1531 -0.1804  0.6356
  152SAPE   H6Y16831   4.190   1.379   5.532  1.1269  0.9878  1.2921
  152SAPE   C3716832   4.128   1.511   5.364  0.5173 -0.3958  0.1964
  152SAPE   H7X16833   4.081   1.428   5.308 -0.3261  0.3774 -0.2647
  152SAPE   H7Y16834   4.231   1.524   5.324  0.4923  2.1605  0.7948
  152SAPE   C3816835   4.030   1.633   5.331 -0.6095 -0.0643 -0.6077
  152SAPE   H8X16836   4.082   1.720   5.374 -2.6611  0.9928 -0.1249
  152SAPE   H8Y16837   3.928   1.627   5.375 -0.3848 -1.5940 -0.2247
  152SAPE   C3916838   4.023   1.663   5.184 -0.3884  0.7049  0.3267
  152SAPE   H9X16839   3.955   1.601   5.122  1.1241 -2.3534  1.5673
  152SAPE   H9Y16840   4.122   1.667   5.132 -0.6854  2.1001 -0.1802
  152SAPE  C31016841   3.961   1.800   5.158 -0.2475  0.1246  0.1586
  152SAPE  H10X16842   4.031   1.880   5.191  0.4222 -0.3875 -0.0034
  152SAPE  H10Y16843   3.865   1.812   5.212 -0.2861  2.2813 -0.2913
  152SAPE  C31116844   3.927   1.820   5.016  0.4193  0.1873  0.8154
  152SAPE  H11X16845   4.002   1.767   4.953 -0.8072  0.6945 -1.1580
  152SAPE  H11Y16846   3.934   1.927   4.987  2.0455  0.1775  1.0688
  152SAPE  C31216847   3.795   1.749   4.972  0.3427  0.0733 -0.2197
  152SAPE  H12X16848   3.704   1.800   5.012 -1.1788 -1.2256 -1.8243
  152SAPE  H12Y16849   3.788   1.651   5.022  0.0233  0.3850  0.3620
  152SAPE  C31316850   3.780   1.730   4.817  0.0410  0.1432  0.0654
  152SAPE  H13X16851   3.864   1.667   4.781 -1.1294 -1.9244  0.7779
  152SAPE  H13Y16852   3.787   1.824   4.758  0.5102 -0.1165 -0.2992
  152SAPE  C31416853   3.650   1.670   4.773  0.0460  0.0369 -0.3707
  152SAPE  H14X16854   3.572   1.737   4.814  0.3670  0.2046 -0.0339
  152SAPE  H14Y16855   3.639   1.570   4.820  1.5670  0.1240  0.2203
  152SAPE  C31516856   3.653   1.655   4.616  0.1404  0.1657  0.0420
  152SAPE  H15X16857   3.741   1.594   4.586 -0.3863  0.0831 -1.4119
  152SAPE  H15Y16858   3.653   1.759   4.579 -1.0041  0.6119  1.2023
  152SAPE  C31616859   3.534   1.579   4.559  0.0992  0.2341 -0.2931
  152SAPE  H16X16860   3.442   1.637   4.580  0.5743  0.7893  0.3043
  152SAPE  H16Y16861   3.528   1.481   4.611 -1.0246  0.5263  0.1388
  152SAPE  C31716862   3.535   1.553   4.409 -0.0367  0.5532  1.1047
  152SAPE  H17X16863   3.513   1.650   4.360 -1.8902 -0.5721 -0.3990
  152SAPE  H17Y16864   3.450   1.485   4.388  2.0235 -1.2791 -2.2273
  152SAPE  C31816865   3.661   1.477   4.350  0.1519  0.4565  0.8012
  152SAPE  H18X16866   3.657   1.472   4.240  3.2906 -1.0209  0.6489
  152SAPE  H18Y16867   3.671   1.377   4.397  3.7863 -0.4627 -1.5939
  152SAPE  H18Z16868   3.755   1.531   4.375  0.8483  0.4812 -1.6315
  153SAPE     N16869   5.479   2.574   6.773  0.3408 -0.3411 -0.3211
  153SAPE   HN116870   5.447   2.479   6.800  2.5496 -0.5956  1.7524
  153SAPE   HN216871   5.571   2.582   6.820  0.3876 -0.4483 -0.3926
  153SAPE   HN316872   5.412   2.649   6.799  1.8593  1.6182 -1.7173
  153SAPE   C1216873   5.479   2.569   6.619 -0.0924  0.1925 -0.4368
  153SAPE  H12A16874   5.383   2.619   6.592 -1.4830 -2.4573 -0.7711
  153SAPE  H12B16875   5.465   2.463   6.590  0.2831 -0.2359  0.8575
  153SAPE   C1116876   5.609   2.631   6.564 -0.0224 -0.2510  0.0284
  153SAPE  H11A16877   5.573   2.654   6.461  0.2962  1.2272  0.2216
  153SAPE  H11B16878   5.688   2.553   6.561 -1.2771 -1.6039  0.9585
  153SAPE     P16879   5.791   2.815   6.624  0.4179  0.1064  0.2179
  153SAPE   O1316880   5.800   2.951   6.681  0.7074 -0.4279  0.2086
  153SAPE   O1416881   5.885   2.713   6.679 -0.3166  0.4497  0.8129
  153SAPE   O1216882   5.642   2.756   6.638 -0.2898 -0.1917  0.4331
  153SAPE   O1116883   5.802   2.830   6.466 -0.1305  0.3073  0.1570
  153SAPE    C116884   5.764   2.949   6.394  0.1854  0.1903  0.3425
  153SAPE    HA16885   5.769   3.044   6.452  1.4328 -1.2973  2.8463
  153SAPE    HB16886   5.846   2.962   6.320  0.1225 -1.0252  0.0304
  153SAPE    C216887   5.625   2.930   6.328 -0.1469  0.7992 -0.6860
  153SAPE    HS16888   5.558   2.881   6.401  0.3688  1.8405  0.5316
  153SAPE   O2116889   5.644   2.843   6.222 -0.1693  0.2555 -0.0194
  153SAPE   C2116890   5.531   2.791   6.169 -0.5216  0.4106  0.0836
  153SAPE   O2216891   5.423   2.818   6.215  0.1642 -0.0413 -0.4254
  153SAPE   C2216892   5.558   2.684   6.056  0.0835  0.0630 -0.3228
  153SAPE   H2R16893   5.637   2.731   5.994  0.5715  1.5033  1.2880
  153SAPE   H2S16894   5.602   2.587   6.087 -0.4222 -0.6990 -1.9192
  153SAPE    C316895   5.560   3.061   6.289 -0.3267 -0.1269  0.2911
  153SAPE    HX16896   5.568   3.133   6.373 -1.9706  1.4600 -0.8129
  153SAPE    HY16897   5.453   3.044   6.265 -0.2818  0.2291 -0.1726
  153SAPE   O3116898   5.610   3.109   6.167 -0.1891 -0.6169 -0.2438
  153SAPE   C3116899   5.693   3.207   6.167  0.1601 -0.3123  0.2688
  153SAPE   O3216900   5.763   3.241   6.269  0.1292 -0.3854  0.0042
  153SAPE   C3216901   5.702   3.274   6.026 -0.2362 -0.0057  0.4271
  153SAPE   H2X16902   5.614   3.340   6.011  0.9224  0.8802 -3.4039
  153SAPE   H2Y16903   5.701   3.200   5.943 -2.7517  1.5336 -1.0506
  153SAPE   C2316904   5.418   2.662   5.987  0.3099  0.1201  0.7114
  153SAPE   H3R16905   5.391   2.760   5.940  1.6791  0.2332  0.1249
  153SAPE   H3S16906   5.335   2.647   6.060 -1.3908  3.0082 -0.4256
  153SAPE   C2416907   5.432   2.557   5.879 -0.2312  0.1135  0.4489
  153SAPE   H4R16908   5.513   2.581   5.808  0.1191 -1.2651  0.3529
  153SAPE   H4S16909   5.342   2.576   5.816  0.1986  0.8836  0.0589
  153SAPE   C2516910   5.433   2.415   5.925  0.2237 -0.6489  0.2429
  153SAPE   H5R16911   5.501   2.398   6.010 -0.8253 -0.1236  1.2116
  153SAPE   C2616912   5.363   2.313   5.877  0.6781 -0.4220 -0.2700
  153SAPE   H6R16913   5.377   2.218   5.931 -0.1119  1.8470  4.3575
  153SAPE   C2716914   5.262   2.313   5.762  0.7645 -0.4582 -0.4376
  153SAPE   H7R16915   5.201   2.404   5.783  0.6205 -0.2374 -1.7650
  153SAPE   H7S16916   5.192   2.227   5.772  0.4811 -0.5528 -2.7762
  153SAPE   C2816917   5.324   2.317   5.620  0.4077  0.6227 -0.3653
  153SAPE   H8R16918   5.417   2.375   5.604  0.2757  0.6495 -1.0913
  153SAPE   C2916919   5.277   2.243   5.520  0.0739 -0.1707 -0.2031
  153SAPE   H9R16920   5.312   2.253   5.416 -0.0857 -1.3197 -0.3832
  153SAPE  C21016921   5.162   2.145   5.521  0.0450  0.7939 -0.5121
  153SAPE  H10R16922   5.175   2.078   5.608  0.8366 -0.0058 -1.2198
  153SAPE  H10S16923   5.169   2.075   5.435 -3.1003 -3.0924  2.0595
  153SAPE  C21116924   5.021   2.207   5.530 -0.5422  0.0269  0.1589
  153SAPE  H11R16925   5.015   2.295   5.596 -0.9857 -0.9904  1.5330
  153SAPE  C21216926   4.906   2.153   5.469 -0.3542  0.1258 -0.5341
  153SAPE  H12R16927   4.819   2.216   5.493 -1.4328 -1.8198  0.8269
  153SAPE  C21316928   4.898   2.036   5.372  0.0049  0.4909 -0.4085
  153SAPE  H13R16929   4.850   1.959   5.435  1.3781 -0.3847 -0.3994
  153SAPE  H13S16930   4.998   1.999   5.342  1.4244  2.3739  1.6698
  153SAPE  C21416931   4.823   2.072   5.250  0.5785  0.6742 -0.1884
  153SAPE  H14R16932   4.790   2.177   5.240 -0.2812  0.2917 -1.6696
  153SAPE  C21516933   4.824   2.007   5.131 -0.4950  0.0544  0.3378
  153SAPE  H15R16934   4.766   2.041   5.044 -1.1980 -2.2836 -0.1814
  153SAPE  C21616935   4.871   1.863   5.114 -0.1203  0.2915 -0.5899
  153SAPE  H16R16936   4.818   1.816   5.028 -1.0181  0.1926 -0.0016
  153SAPE  H16S16937   4.858   1.791   5.198 -0.6291 -1.9111 -2.4395
  153SAPE  C21716938   5.017   1.857   5.071 -0.4221 -0.5499 -0.5533
  153SAPE  H17R16939   5.066   1.904   5.159  0.0115 -0.8490 -0.6340
  153SAPE  H17S16940   5.024   1.921   4.981 -0.1342  0.0265 -0.1270
  153SAPE  C21816941   5.062   1.720   5.034 -0.5485  0.5608  0.4752
  153SAPE  H18R16942   4.992   1.667   4.966  0.9191  1.3851 -1.8121
  153SAPE  H18S16943   5.052   1.672   5.134 -3.5543  0.4973  0.2343
  153SAPE  C21916944   5.198   1.728   4.974 -0.8050  0.8660 -0.2611
  153SAPE  H19R16945   5.264   1.759   5.058 -1.8347 -1.2797  1.4224
  153SAPE  H19S16946   5.209   1.802   4.892  2.0290  0.1251 -0.6577
  153SAPE  C22016947   5.245   1.595   4.919 -1.1142  1.0449  0.0114
  153SAPE  H20R16948   5.229   1.509   4.987 -2.6862  0.3906 -1.1282
  153SAPE  H20S16949   5.353   1.609   4.897 -1.0043  0.8467  0.4264
  153SAPE  H20T16950   5.192   1.564   4.827 -0.4251  0.1740 -0.0988
  153SAPE   C3316951   5.832   3.361   6.013  0.3239 -0.1698 -0.1828
  153SAPE   H3X16952   5.922   3.301   6.037  0.1320 -0.3931 -0.0143
  153SAPE   H3Y16953   5.828   3.446   6.085 -0.8964 -1.0213  0.7953
  153SAPE   C3416954   5.843   3.420   5.872 -0.3807  0.1377 -0.0858
  153SAPE   H4X16955   5.928   3.490   5.885 -0.6970 -0.0934  5.0955
  153SAPE   H4Y16956   5.755   3.469   5.825 -0.2509 -0.1469 -0.6367
  153SAPE   C3516957   5.893   3.309   5.777  0.0717 -0.4044  0.5788
  153SAPE   H5X16958   5.810   3.236   5.767  2.0922 -2.7462  0.0399
  153SAPE   H5Y16959   5.964   3.244   5.832 -0.2805 -1.3497 -0.0492
  153SAPE   C3616960   5.947   3.359   5.641 -0.5625  0.2050  0.1261
  153SAPE   H6X16961   5.985   3.278   5.576  0.2573  0.5244  0.2013
  153SAPE   H6Y16962   6.032   3.424   5.671 -0.5548  0.6539 -0.8263
  153SAPE   C3716963   5.846   3.456   5.576 -0.1229  0.0188 -0.1871
  153SAPE   H7X16964   5.851   3.559   5.617  1.1989  0.0378 -0.3301
  153SAPE   H7Y16965   5.746   3.412   5.593  0.7912 -2.1944 -0.1025
  153SAPE   C3816966   5.866   3.465   5.426  0.4107 -0.2440 -0.1423
  153SAPE   H8X16967   5.959   3.417   5.389  0.6945 -2.1270  2.7035
  153SAPE   H8Y16968   5.877   3.572   5.401  0.7700 -0.8561 -2.9577
  153SAPE   C3916969   5.758   3.406   5.350 -0.0616  0.1304 -0.0653
  153SAPE   H9X16970   5.668   3.464   5.377 -0.0453  0.3630 -0.5004
  153SAPE   H9Y16971   5.747   3.298   5.374 -0.9128  0.3150  0.3841
  153SAPE  C31016972   5.773   3.420   5.196  0.0140 -0.4348 -0.4475
  153SAPE  H10X16973   5.805   3.523   5.167  1.8407 -1.2268 -1.4160
  153SAPE  H10Y16974   5.673   3.413   5.150 -0.1860 -0.0171 -0.0926
  153SAPE  C31116975   5.858   3.317   5.128 -0.5447 -0.2140 -0.7800
  153SAPE  H11X16976   5.838   3.218   5.174  1.1937 -0.6554 -0.9027
  153SAPE  H11Y16977   5.965   3.345   5.143 -1.3355  2.0547  1.2659
  153SAPE  C31216978   5.820   3.302   4.982  0.4416  0.0523  0.1754
  153SAPE  H12X16979   5.710   3.298   4.976  0.3411  0.0104  1.6891
  153SAPE  H12Y16980   5.857   3.204   4.944 -1.8077 -0.8452  0.1533
  153SAPE  C31316981   5.878   3.410   4.889 -0.8737 -0.2633  0.0498
  153SAPE  H13X16982   5.975   3.442   4.932 -0.6949  1.6173 -1.6111
  153SAPE  H13Y16983   5.813   3.499   4.880 -0.6759 -0.1467 -0.2366
  153SAPE  C31416984   5.886   3.346   4.747  0.1034  0.3506  0.3372
  153SAPE  H14X16985   5.787   3.299   4.730  0.6611 -1.7628  2.4487
  153SAPE  H14Y16986   5.972   3.277   4.744 -0.3213 -0.2638  1.6613
  153SAPE  C31516987   5.910   3.456   4.640  0.2397  0.4456  0.2685
  153SAPE  H15X16988   6.014   3.492   4.651 -0.0337  1.8477 -1.4268
  153SAPE  H15Y16989   5.842   3.543   4.652  2.1654  2.5163 -2.6328
  153SAPE  C31616990   5.888   3.396   4.494 -0.1533  0.1295 -0.1806
  153SAPE  H16X16991   5.778   3.386   4.489 -0.1535  0.7662 -3.0551
  153SAPE  H16Y16992   5.927   3.292   4.497 -0.4793 -0.0368 -1.2531
  153SAPE  C31716993   5.943   3.471   4.379 -0.1538 -1.0220 -0.1209
  153SAPE  H17X16994   6.054   3.480   4.383 -0.3058  2.1818 -0.8009
  153SAPE  H17Y16995   5.913   3.577   4.392  0.7701 -0.6806 -0.6744
  153SAPE  C31816996   5.903   3.412   4.246  0.2799  0.2569  0.0876
  153SAPE  H18X16997   5.949   3.462   4.158  2.6617 -1.7202  0.1075
  153SAPE  H18Y16998   5.793   3.424   4.236  0.3071 -0.4810 -1.2352
  153SAPE  H18Z16999   5.924   3.303   4.245  0.7748  0.3468 -1.0921
  154SAPE     N17000   1.162   0.918   6.546 -0.2280 -1.2131  0.4485
  154SAPE   HN117001   1.249   0.912   6.490 -0.2359 -1.5983  0.4796
  154SAPE   HN217002   1.126   1.016   6.540 -0.6997 -1.4592 -1.2110
  154SAPE   HN317003   1.184   0.898   6.646  2.2533 -0.5992  0.1112
  154SAPE   C1217004   1.064   0.808   6.522  0.5968 -0.5772 -0.2607
  154SAPE  H12A17005   1.016   0.815   6.422  1.1320 -1.6215 -0.6179
  154SAPE  H12B17006   0.987   0.826   6.600  0.4465 -2.2404  0.0159
  154SAPE   C1117007   1.132   0.672   6.533 -0.1009 -0.2382 -0.0956
  154SAPE  H11A17008   1.218   0.674   6.462  0.3737  2.1979  0.4629
  154SAPE  H11B17009   1.054   0.594   6.523 -0.3263  0.0230 -0.3861
  154SAPE     P17010   1.299   0.538   6.693  0.1521  0.0542  0.0502
  154SAPE   O1317011   1.430   0.595   6.724  0.5551  0.1734 -0.2144
  154SAPE   O1417012   1.239   0.457   6.800 -0.0278  0.3999 -0.5599
  154SAPE   O1217013   1.196   0.661   6.663  0.4418  0.2722  0.9627
  154SAPE   O1117014   1.308   0.460   6.555  0.1376  0.3868 -0.0498
  154SAPE    C117015   1.421   0.367   6.542  0.5125 -0.8353  0.1000
  154SAPE    HA17016   1.428   0.337   6.436  0.9641 -2.5203  0.5818
  154SAPE    HB17017   1.522   0.403   6.572 -0.2701 -0.2162  2.2124
  154SAPE    C217018   1.409   0.230   6.616 -0.9973  0.2418  0.0519
  154SAPE    HS17019   1.409   0.248   6.725  1.5564 -1.6096  0.4351
  154SAPE   O2117020   1.527   0.149   6.577 -0.1012 -0.0388  0.3963
  154SAPE   C2117021   1.626   0.171   6.660  0.2641 -0.1823  1.0866
  154SAPE   O2217022   1.622   0.240   6.760 -0.2007 -0.1980 -0.2787
  154SAPE   C2217023   1.749   0.082   6.621  0.3037  0.4732  0.5788
  154SAPE   H2R17024   1.814   0.078   6.711 -0.9183 -2.5271  1.4462
  154SAPE   H2S17025   1.701  -0.017   6.611 -0.4446  0.5694  2.6068
  154SAPE    C317026   1.286   0.143   6.572  0.2048  0.2871  0.0819
  154SAPE    HX17027   1.202   0.191   6.626 -0.4206 -0.5680 -0.1062
  154SAPE    HY17028   1.289   0.037   6.605 -0.7469  0.0154 -0.6528
  154SAPE   O3117029   1.263   0.146   6.424 -0.9175  0.5407 -0.0674
  154SAPE   C3117030   1.147   0.198   6.390  0.0064 -0.4234 -0.4845
  154SAPE   O3217031   1.053   0.227   6.462  0.1367  0.0447  0.4573
  154SAPE   C3217032   1.155   0.246   6.236  0.0400  0.1751  0.0417
  154SAPE   H2X17033   1.153   0.157   6.170  0.2255 -0.0982  0.3997
  154SAPE   H2Y17034   1.248   0.307   6.230 -0.1929  0.8992  2.5787
  154SAPE   C2317035   1.827   0.129   6.506  0.3035 -0.1513  0.5856
  154SAPE   H3R17036   1.918   0.066   6.498  1.5425  1.3345  2.0335
  154SAPE   H3S17037   1.859   0.235   6.516 -1.6335  0.2915  3.0739
  154SAPE   C2417038   1.755   0.112   6.366  0.1842 -0.0223 -0.5481
  154SAPE   H4R17039   1.675   0.188   6.362 -1.6808 -1.8303  0.7075
  154SAPE   H4S17040   1.712   0.010   6.369  1.0663 -0.4193 -1.0011
  154SAPE   C2517041   1.854   0.125   6.260 -0.2652 -0.2034  0.5272
  154SAPE   H5R17042   1.934   0.050   6.256  2.4229  2.4564  1.0729
  154SAPE   C2617043   1.849   0.211   6.157  0.1373  0.0468 -0.3082
  154SAPE   H6R17044   1.921   0.202   6.074 -0.8231  0.7467 -1.2505
  154SAPE   C2717045   1.741   0.312   6.125 -0.5023 -0.3949  0.1701
  154SAPE   H7R17046   1.770   0.355   6.027 -1.0571 -0.6598 -0.1176
  154SAPE   H7S17047   1.745   0.396   6.198 -1.9748 -0.6871  0.6232
  154SAPE   C2817048   1.595   0.267   6.103  0.4853  0.0118  0.0464
  154SAPE   H8R17049   1.537   0.273   6.196 -0.0618  3.4988 -0.3675
  154SAPE   C2917050   1.543   0.208   5.996  0.2683  0.2230  0.7180
  154SAPE   H9R17051   1.435   0.191   6.007  0.0662  1.1307  0.2621
  154SAPE  C21017052   1.612   0.172   5.862  0.8176 -0.5902 -0.0397
  154SAPE  H10R17053   1.532   0.129   5.798 -0.8926  3.1458 -0.6756
  154SAPE  H10S17054   1.684   0.090   5.882 -0.2897 -1.2890  1.2960
  154SAPE  C21117055   1.676   0.284   5.784 -0.0275  0.0631  0.0932
  154SAPE  H11R17056   1.680   0.380   5.839  1.8791 -0.3904  0.8405
  154SAPE  C21217057   1.699   0.282   5.652  0.4059 -0.1112  0.6506
  154SAPE  H12R17058   1.743   0.366   5.596 -0.9547  0.1725 -0.0460
  154SAPE  C21317059   1.669   0.161   5.563 -0.3896 -0.2655 -0.1699
  154SAPE  H13R17060   1.586   0.191   5.495  0.2044 -0.4548 -1.0039
  154SAPE  H13S17061   1.640   0.073   5.624  2.0785 -2.0045 -1.3382
  154SAPE  C21417062   1.788   0.126   5.479 -0.4196  0.8663 -0.1320
  154SAPE  H14R17063   1.870   0.082   5.537  0.1656 -1.5328 -2.5706
  154SAPE  C21517064   1.803   0.147   5.347  0.4962  0.1425  0.6082
  154SAPE  H15R17065   1.900   0.141   5.296  0.4117  3.2492 -0.1555
  154SAPE  C21617066   1.697   0.209   5.261 -0.2773  0.2084  0.8521
  154SAPE  H16R17067   1.606   0.152   5.291 -1.2635  1.9485  1.3103
  154SAPE  H16S17068   1.715   0.183   5.154  0.8571 -1.6771  1.4631
  154SAPE  C21717069   1.664   0.364   5.259  0.7583  0.4542 -0.2206
  154SAPE  H17R17070   1.651   0.420   5.354 -1.7603  1.1334 -0.8831
  154SAPE  H17S17071   1.571   0.369   5.199  0.2932 -0.6272  0.3787
  154SAPE  C21817072   1.759   0.447   5.177  0.6611  0.1336 -0.1435
  154SAPE  H18R17073   1.708   0.543   5.156 -0.5948  0.3690  3.2388
  154SAPE  H18S17074   1.788   0.384   5.091 -0.6163  1.0908 -1.3081
  154SAPE  C21917075   1.885   0.480   5.254 -0.2910  0.0681 -0.0396
  154SAPE  H19R17076   1.952   0.391   5.247  0.1204  0.2941  0.8770
  154SAPE  H19S17077   1.873   0.493   5.364 -0.2316  0.0731 -0.0334
  154SAPE  C22017078   1.971   0.594   5.197  0.0800  0.5024 -0.0761
  154SAPE  H20R17079   2.071   0.591   5.245 -0.3335  0.3751  0.7833
  154SAPE  H20S17080   1.927   0.694   5.217  2.1445  1.5954 -0.6899
  154SAPE  H20T17081   1.985   0.582   5.087  0.4230  2.7028 -0.3207
  154SAPE   C3317082   1.031   0.331   6.209  0.2929 -0.5885  0.0540
  154SAPE   H3X17083   1.041   0.429   6.262  1.2991 -0.4600 -0.3583
  154SAPE   H3Y17084   0.947   0.273   6.255  1.5399 -1.4469  1.3200
  154SAPE   C3417085   1.002   0.368   6.063 -0.2341 -0.2483  0.3561
  154SAPE   H4X17086   0.909   0.429   6.055  0.1468  0.1120 -3.0507
  154SAPE   H4Y17087   0.969   0.273   6.017 -1.4545 -0.9382  2.5329
  154SAPE   C3517088   1.132   0.427   5.995  0.6638 -0.0556 -0.3356
  154SAPE   H5X17089   1.230   0.388   6.031  0.0808 -0.8563  0.4376
  154SAPE   H5Y17090   1.140   0.536   6.017  1.8033 -0.0353 -0.7892
  154SAPE   C3617091   1.120   0.405   5.839  0.4839  0.2422 -0.6246
  154SAPE   H6X17092   1.170   0.489   5.785 -0.3028  0.3528 -1.1918
  154SAPE   H6Y17093   1.014   0.419   5.809  0.6162  1.3615 -0.6215
  154SAPE   C3717094   1.175   0.271   5.782  0.5134  0.4797 -0.3966
  154SAPE   H7X17095   1.119   0.196   5.841  0.5533  0.6272 -0.1716
  154SAPE   H7Y17096   1.281   0.261   5.815  0.0720 -0.9566  0.6886
  154SAPE   C3817097   1.174   0.254   5.633  0.9695  0.4223 -0.2332
  154SAPE   H8X17098   1.072   0.289   5.610  0.3343 -0.2165  1.4525
  154SAPE   H8Y17099   1.186   0.146   5.608 -2.2250 -0.2365  0.6803
  154SAPE   C3917100   1.294   0.330   5.549 -0.6516  1.0896  0.0068
  154SAPE   H9X17101   1.391   0.276   5.550 -0.7336  0.8762 -1.3886
  154SAPE   H9Y17102   1.306   0.432   5.590  2.7705  0.8963 -0.2049
  154SAPE  C31017103   1.253   0.368   5.403  0.2067 -0.0067  0.4528
  154SAPE  H10X17104   1.327   0.434   5.353  1.3975 -1.5297  0.1404
  154SAPE  H10Y17105   1.157   0.424   5.407 -0.5042 -1.0405 -1.1581
  154SAPE  C31117106   1.253   0.244   5.317 -0.5777  0.7446 -0.4122
  154SAPE  H11X17107   1.199   0.161   5.368  0.4552  0.6144  0.4913
  154SAPE  H11Y17108   1.358   0.209   5.308 -0.4636  0.8392  0.4915
  154SAPE  C31217109   1.196   0.269   5.173 -0.8438  0.1575  0.5245
  154SAPE  H12X17110   1.094   0.314   5.176 -0.0752  1.9938  0.3143
  154SAPE  H12Y17111   1.193   0.176   5.112 -1.2621 -0.3047  1.2262
  154SAPE  C31317112   1.284   0.363   5.092  0.3220  0.0802 -0.4226
  154SAPE  H13X17113   1.394   0.351   5.095  0.3631 -0.0228 -1.8988
  154SAPE  H13Y17114   1.268   0.471   5.115 -2.5731 -0.5295  0.9213
  154SAPE  C31417115   1.262   0.342   4.941  0.0668  0.2493 -0.4352
  154SAPE  H14X17116   1.160   0.303   4.920  0.1481 -0.6247  0.7041
  154SAPE  H14Y17117   1.343   0.273   4.912 -0.9535 -2.2818  2.2556
  154SAPE  C31517118   1.294   0.461   4.861 -0.0040  0.1920  0.7130
  154SAPE  H15X17119   1.392   0.505   4.891  1.0397 -0.0295 -2.1134
  154SAPE  H15Y17120   1.210   0.530   4.883 -1.5942 -0.9307 -1.5368
  154SAPE  C31617121   1.295   0.431   4.708 -0.2075  0.1720  0.4142
  154SAPE  H16X17122   1.192   0.438   4.668 -0.4928  1.3530  1.3064
  154SAPE  H16Y17123   1.334   0.329   4.689 -0.9452 -0.2913  1.2993
  154SAPE  C31717124   1.383   0.524   4.627  0.3802 -0.1974 -0.0371
  154SAPE  H17X17125   1.480   0.546   4.678 -0.4456  2.0837  0.6523
  154SAPE  H17Y17126   1.331   0.622   4.624 -0.0949 -0.4773 -2.7407
  154SAPE  C31817127   1.414   0.467   4.478 -0.0813 -0.9772 -0.3060
  154SAPE  H18X17128   1.468   0.370   4.472  1.2186 -0.2337 -0.9311
  154SAPE  H18Y17129   1.471   0.539   4.416 -0.3874 -0.8473 -0.4435
  154SAPE  H18Z17130   1.318   0.452   4.424  0.6586  1.0073 -2.3321
  155SAPE     N17131   2.868   1.612   6.699  0.5575  0.2046 -0.0273
  155SAPE   HN117132   2.858   1.637   6.598  0.1297 -1.1184 -0.3310
  155SAPE   HN217133   2.827   1.517   6.707  0.6556  0.2251  0.7629
  155SAPE   HN317134   2.832   1.680   6.769 -1.0996 -1.5822  0.9564
  155SAPE   C1217135   3.012   1.597   6.732 -1.1589 -0.0992 -0.3140
  155SAPE  H12A17136   3.023   1.573   6.840  2.6495  0.1022 -0.5334
  155SAPE  H12B17137   3.060   1.695   6.711 -0.7090  0.0387  1.2224
  155SAPE   C1117138   3.064   1.489   6.633  0.9822  0.2868 -0.0203
  155SAPE  H11A17139   3.170   1.513   6.611  1.1085 -0.1865  0.0774
  155SAPE  H11B17140   3.028   1.499   6.529  1.5457 -0.6388 -0.3104
  155SAPE     P17141   2.925   1.270   6.689  0.4962  0.3033  0.3861
  155SAPE   O1317142   2.925   1.156   6.784  0.0967 -0.7835  0.6081
  155SAPE   O1417143   2.808   1.362   6.688  0.5626  0.1498  0.6792
  155SAPE   O1217144   3.064   1.361   6.696 -0.5853  0.5441 -0.4825
  155SAPE   O1117145   2.925   1.210   6.538  0.0268 -0.0461  0.7362
  155SAPE    C117146   3.011   1.102   6.505  0.3575  0.0958  0.3031
  155SAPE    HA17147   3.114   1.106   6.546 -0.3331 -0.6130  2.1825
  155SAPE    HB17148   2.975   1.010   6.555 -1.4853 -1.0522 -2.8065
  155SAPE    C217149   3.025   1.083   6.356 -0.0285  0.4665 -0.4116
  155SAPE    HS17150   3.102   1.007   6.334  0.6639  1.9643 -3.6981
  155SAPE   O2117151   3.058   1.202   6.283 -0.5850 -0.3434  0.2974
  155SAPE   C2117152   3.174   1.250   6.316 -0.3665  0.3875  0.7025
  155SAPE   O2217153   3.264   1.192   6.365  0.1339  0.3701 -0.4883
  155SAPE   C2217154   3.189   1.385   6.249 -0.0193  0.0805 -0.4500
  155SAPE   H2R17155   3.091   1.439   6.245  1.4679  2.9108 -1.9515
  155SAPE   H2S17156   3.254   1.449   6.312 -0.5262  2.7895 -2.4499
  155SAPE    C317157   2.885   1.022   6.309 -0.9167  0.7693  0.3772
  155SAPE    HX17158   2.817   1.109   6.301 -0.1236  1.4570  1.0497
  155SAPE    HY17159   2.851   0.950   6.387 -1.0796 -1.6605 -1.8005
  155SAPE   O3117160   2.900   0.954   6.183 -0.2372 -0.4741 -0.7367
  155SAPE   C3117161   2.784   0.928   6.129  0.6224  0.8236 -0.0087
  155SAPE   O3217162   2.678   0.918   6.189 -0.1005 -0.3765 -0.4023
  155SAPE   C3217163   2.804   0.924   5.971 -0.0420  0.4882 -0.7204
  155SAPE   H2X17164   2.879   0.846   5.949  1.1577  1.3789  0.0803
  155SAPE   H2Y17165   2.850   1.020   5.939 -0.9009  1.7451  1.5155
  155SAPE   C2317166   3.237   1.372   6.101  0.2939 -0.0156  0.4136
  155SAPE   H3R17167   3.152   1.327   6.046 -1.7327 -0.1778  3.4146
  155SAPE   H3S17168   3.323   1.302   6.104  0.6119  0.3238 -0.4690
  155SAPE   C2417169   3.284   1.505   6.054  0.2037 -0.2886  0.9252
  155SAPE   H4R17170   3.342   1.486   5.960  1.6032 -2.2269  2.1032
  155SAPE   H4S17171   3.344   1.560   6.129  1.1231 -1.4747  1.0773
  155SAPE   C2517172   3.171   1.607   6.016  0.2229  0.6195  0.2764
  155SAPE   H5R17173   3.109   1.647   6.098  0.0372  0.5151  0.1891
  155SAPE   C2617174   3.127   1.641   5.891 -0.0578  0.0768 -0.1082
  155SAPE   H6R17175   3.034   1.698   5.881  0.3483  0.5576 -1.3611
  155SAPE   C2717176   3.181   1.601   5.751 -0.3630 -0.5133 -1.1994
  155SAPE   H7R17177   3.254   1.519   5.765 -0.7395 -0.9734 -1.8676
  155SAPE   H7S17178   3.245   1.676   5.700 -1.2806 -0.2854 -2.0442
  155SAPE   C2817179   3.072   1.544   5.663  0.1961  0.0516  0.3841
  155SAPE   H8R17180   2.971   1.541   5.707  0.1107 -1.9676  0.1336
  155SAPE   C2917181   3.096   1.496   5.544 -0.0025  0.0077  0.2856
  155SAPE   H9R17182   3.010   1.482   5.476 -1.0782  0.5887  1.4752
  155SAPE  C21017183   3.230   1.503   5.461  0.3712  0.2994 -0.2625
  155SAPE  H10R17184   3.278   1.403   5.454 -2.3174 -1.1049 -0.2224
  155SAPE  H10S17185   3.311   1.564   5.505 -0.0514  0.4856  0.2704
  155SAPE  C21117186   3.209   1.552   5.324  0.4709 -1.2400 -0.1289
  155SAPE  H11R17187   3.204   1.662   5.315 -1.4085 -1.3654 -1.1946
  155SAPE  C21217188   3.188   1.470   5.212 -0.1113 -0.2819  0.8712
  155SAPE  H12R17189   3.191   1.517   5.112  1.6647  2.0287  1.9034
  155SAPE  C21317190   3.160   1.321   5.207 -0.2526 -0.4385 -0.0342
  155SAPE  H13R17191   3.087   1.294   5.286  2.2517 -2.1531  1.7949
  155SAPE  H13S17192   3.251   1.280   5.255  1.0631  1.2467 -0.9614
  155SAPE  C21417193   3.118   1.254   5.076  0.1087 -0.3956 -0.0198
  155SAPE  H14R17194   3.030   1.303   5.031 -1.0166 -2.4812 -0.2069
  155SAPE  C21517195   3.172   1.152   5.011  0.1740  0.2850 -0.6120
  155SAPE  H15R17196   3.127   1.121   4.916  3.2924 -0.0344 -2.0832
  155SAPE  C21617197   3.287   1.062   5.049  0.3670 -0.7006 -0.1568
  155SAPE  H16R17198   3.247   0.959   5.057  0.8807 -0.9397 -0.6494
  155SAPE  H16S17199   3.337   1.090   5.144  0.0900  2.7220 -0.8774
  155SAPE  C21717200   3.397   1.068   4.933 -0.1519  0.0286 -0.3833
  155SAPE  H17R17201   3.479   0.996   4.954 -2.4006 -2.2937  0.9034
  155SAPE  H17S17202   3.446   1.168   4.929 -0.1640 -0.0185 -2.2707
  155SAPE  C21817203   3.346   1.032   4.792 -0.3550  0.3753 -0.8251
  155SAPE  H18R17204   3.287   1.118   4.753 -1.0091  0.9924  1.3779
  155SAPE  H18S17205   3.272   0.949   4.795 -0.2545  0.2845 -0.8427
  155SAPE  C21917206   3.462   0.992   4.699  0.6177 -0.2643 -0.2945
  155SAPE  H19R17207   3.416   0.946   4.609 -0.8572  0.0227  0.2715
  155SAPE  H19S17208   3.526   0.919   4.752  2.3797  1.1320 -0.4015
  155SAPE  C22017209   3.555   1.106   4.659  0.0747  0.0426  0.2238
  155SAPE  H20R17210   3.623   1.120   4.746  2.1352  1.2288 -1.4822
  155SAPE  H20S17211   3.503   1.203   4.646 -1.8563 -0.9646  0.0714
  155SAPE  H20T17212   3.618   1.083   4.570  0.9841  1.4013  0.4997
  155SAPE   C3317213   2.667   0.913   5.898 -0.2738 -0.2824 -0.0781
  155SAPE   H3X17214   2.622   1.013   5.916  0.7592  0.0039  1.1073
  155SAPE   H3Y17215   2.605   0.833   5.945  2.3752 -1.3765  1.8243
  155SAPE   C3417216   2.695   0.883   5.750  0.1165  0.4673 -0.1924
  155SAPE   H4X17217   2.745   0.785   5.737 -0.4699  0.1908 -0.3893
  155SAPE   H4Y17218   2.769   0.953   5.705  0.0442  0.3568 -0.4819
  155SAPE   C3517219   2.570   0.866   5.663 -0.3106 -0.4663  0.3426
  155SAPE   H5X17220   2.532   0.968   5.644 -0.3166 -0.4488  0.4527
  155SAPE   H5Y17221   2.497   0.806   5.722 -1.1501 -0.2163 -0.4170
  155SAPE   C3617222   2.593   0.794   5.524 -0.4678 -0.0147  0.1664
  155SAPE   H6X17223   2.627   0.693   5.554  0.4603  0.4283  0.6727
  155SAPE   H6Y17224   2.679   0.832   5.464 -0.4271 -0.2798  0.0568
  155SAPE   C3717225   2.466   0.784   5.444 -0.7327 -0.5976 -0.7618
  155SAPE   H7X17226   2.433   0.887   5.416  3.6304  1.1600 -0.1102
  155SAPE   H7Y17227   2.386   0.743   5.510 -1.2535  0.9213 -0.3994
  155SAPE   C3817228   2.491   0.722   5.303 -0.1081  0.0920  0.4786
  155SAPE   H8X17229   2.530   0.620   5.322  1.0462  0.3853 -0.2114
  155SAPE   H8Y17230   2.575   0.779   5.259 -1.1179  1.5979  0.4123
  155SAPE   C3917231   2.369   0.720   5.216  0.1344 -0.3527 -0.0240
  155SAPE   H9X17232   2.311   0.815   5.206 -1.6196 -1.3489  0.2300
  155SAPE   H9Y17233   2.284   0.656   5.249  0.0148 -0.0058  0.3702
  155SAPE  C31017234   2.395   0.697   5.070  0.8235  0.8927 -0.1871
  155SAPE  H10X17235   2.441   0.597   5.053 -0.5069  0.4361 -1.3235
  155SAPE  H10Y17236   2.475   0.764   5.032  2.3701 -0.3520  0.7803
  155SAPE  C31117237   2.265   0.710   4.987 -0.1897 -0.8548  0.1538
  155SAPE  H11X17238   2.227   0.813   5.006  2.0849  0.5035 -2.1041
  155SAPE  H11Y17239   2.199   0.626   5.018  1.0072 -2.3808 -1.2808
  155SAPE  C31217240   2.295   0.707   4.838  0.0482 -0.2487 -0.3676
  155SAPE  H12X17241   2.316   0.600   4.816  0.5354  0.1059 -1.7120
  155SAPE  H12Y17242   2.389   0.764   4.823  0.1987 -0.6241 -0.8938
  155SAPE  C31317243   2.195   0.768   4.748  0.5322 -0.5505 -0.0214
  155SAPE  H13X17244   2.147   0.860   4.789  0.8757 -0.6066  0.5199
  155SAPE  H13Y17245   2.104   0.706   4.732 -0.5701  0.8416  0.6169
  155SAPE  C31417246   2.252   0.789   4.607  0.4840  0.3731  0.0219
  155SAPE  H14X17247   2.275   0.689   4.564  1.2421  0.1897  0.8306
  155SAPE  H14Y17248   2.347   0.846   4.614  0.6490  0.2017 -0.6929
  155SAPE  C31517249   2.152   0.859   4.518  0.3855 -0.5388  0.4186
  155SAPE  H15X17250   2.107   0.928   4.593  0.1517 -2.4510  2.1026
  155SAPE  H15Y17251   2.068   0.799   4.478  1.0825  0.6867 -3.2546
  155SAPE  C31617252   2.208   0.931   4.395 -0.3325 -0.2573 -0.3236
  155SAPE  H16X17253   2.269   0.855   4.342  2.5145 -1.4930  4.1496
  155SAPE  H16Y17254   2.271   1.016   4.428 -0.3910 -0.9593  1.7312
  155SAPE  C31717255   2.106   0.986   4.289  0.1875 -1.0560  0.5161
  155SAPE  H17X17256   2.042   1.061   4.339 -0.1219 -0.4394 -0.7576
  155SAPE  H17Y17257   2.052   0.896   4.251 -1.0739  0.1516 -0.6563
  155SAPE  C31817258   2.180   1.055   4.167  0.3636  0.0721 -0.0502
  155SAPE  H18X17259   2.225   0.979   4.099 -1.1260  0.9376 -2.0933
  155SAPE  H18Y17260   2.257   1.127   4.201 -1.1963  1.3689  0.8405
  155SAPE  H18Z17261   2.102   1.116   4.117 -0.1285  0.8587  1.6068
  156SAPE     N17262   0.423   2.941   6.465 -0.1763 -0.6944  0.6583
  156SAPE   HN117263   0.383   3.021   6.519 -4.3695 -1.1550 -1.3825
  156SAPE   HN217264   0.358   2.860   6.473  1.7475 -2.2688  0.8249
  156SAPE   HN317265   0.509   2.915   6.517 -0.2986  1.8346  2.3346
  156SAPE   C1217266   0.437   2.977   6.323 -0.2141  0.4632 -0.2958
  156SAPE  H12A17267   0.518   3.053   6.318 -1.2379  1.6738  0.7520
  156SAPE  H12B17268   0.345   3.032   6.293 -1.0793 -0.9086 -0.2460
  156SAPE   C1117269   0.460   2.861   6.234 -0.5711  0.1651 -0.2711
  156SAPE  H11A17270   0.567   2.834   6.238 -0.9492 -1.3488  0.1055
  156SAPE  H11B17271   0.448   2.884   6.126  2.1210 -0.6363 -0.8000
  156SAPE     P17272   0.403   2.611   6.191 -0.1292  0.1046  0.3691
  156SAPE   O1317273   0.523   2.542   6.253  0.1305  0.5357  0.3675
  156SAPE   O1417274   0.277   2.540   6.191  0.2899  0.3438  0.5500
  156SAPE   O1217275   0.383   2.746   6.268  0.7876 -0.9843  0.2438
  156SAPE   O1117276   0.439   2.645   6.042  0.1948 -0.7615 -0.9721
  156SAPE    C117277   0.368   2.569   5.940  0.4223  0.1275 -0.2148
  156SAPE    HA17278   0.432   2.565   5.849  3.4498 -2.7488  1.8176
  156SAPE    HB17279   0.340   2.465   5.966 -2.6785  0.2714 -2.5008
  156SAPE    C217280   0.233   2.639   5.887  0.0962 -0.0494  0.1320
  156SAPE    HS17281   0.159   2.600   5.960  0.8103  0.2134  1.0258
  156SAPE   O2117282   0.205   2.595   5.749  0.0721  0.3024 -0.0852
  156SAPE   C2117283   0.145   2.472   5.742  0.2474  0.7047 -0.6748
  156SAPE   O2217284   0.123   2.399   5.834  0.0274  0.0691  0.0328
  156SAPE   C2217285   0.104   2.448   5.600 -0.1105 -0.2369  0.2264
  156SAPE   H2R17286   0.098   2.543   5.542  1.4031  0.0967  0.5755
  156SAPE   H2S17287   0.191   2.392   5.560 -1.0222 -0.7631 -1.1021
  156SAPE    C317288   0.254   2.790   5.879 -0.1831  0.1052  0.4202
  156SAPE    HX17289   0.352   2.806   5.829 -0.3465 -0.0487  0.0483
  156SAPE    HY17290   0.248   2.825   5.984 -0.3232 -0.0026  0.4480
  156SAPE   O3117291   0.158   2.863   5.798  0.4352 -0.0033  0.0896
  156SAPE   C3117292   0.034   2.865   5.842  0.1080 -0.1464  0.6463
  156SAPE   O3217293  -0.002   2.836   5.955  0.2346 -0.2440  0.3728
  156SAPE   C3217294  -0.063   2.916   5.734 -0.2091  0.3898 -0.2977
  156SAPE   H2X17295  -0.151   2.849   5.738 -1.0754  1.5142  0.0625
  156SAPE   H2Y17296  -0.005   2.903   5.641  2.0303  0.2409  1.0325
  156SAPE   C2317297  -0.030   2.366   5.593  0.9441  0.7168 -0.6529
  156SAPE   H3R17298  -0.110   2.424   5.644  1.7321  0.0413  1.4780
  156SAPE   H3S17299  -0.029   2.265   5.637  0.0594  1.6838  1.7574
  156SAPE   C2417300  -0.080   2.361   5.449 -0.6020  0.0073  0.0031
  156SAPE   H4R17301  -0.086   2.465   5.411 -1.7858 -0.2941 -0.6808
  156SAPE   H4S17302  -0.182   2.320   5.445 -1.5155  2.0292  1.0159
  156SAPE   C2517303   0.007   2.275   5.361 -0.3241 -0.0885 -0.5429
  156SAPE   H5R17304  -0.005   2.168   5.386  0.7203 -0.3802 -1.2405
  156SAPE   C2617305   0.068   2.318   5.252 -0.6401 -0.0885 -0.8206
  156SAPE   H6R17306   0.118   2.230   5.208 -0.3964 -2.7707  4.0874
  156SAPE   C2717307   0.087   2.461   5.195  0.5852 -0.1253  0.3088
  156SAPE   H7R17308   0.131   2.523   5.276  0.3040 -0.1476  0.4775
  156SAPE   H7S17309  -0.007   2.510   5.163 -0.6773 -2.0046  0.9833
  156SAPE   C2817310   0.177   2.462   5.074 -0.2934  1.5859 -0.2020
  156SAPE   H8R17311   0.283   2.437   5.093 -0.0799  1.0230 -1.9220
  156SAPE   C2917312   0.149   2.521   4.963  0.5816 -0.9455  0.8051
  156SAPE   H9R17313   0.223   2.511   4.882 -0.6880 -0.6499 -0.4371
  156SAPE  C21017314   0.011   2.577   4.930  0.6166 -0.0231  0.2143
  156SAPE  H10R17315  -0.007   2.664   4.997  2.0715 -0.4672  1.2184
  156SAPE  H10S17316  -0.075   2.514   4.963  0.4089  0.3896  0.4768
  156SAPE  C21117317  -0.025   2.622   4.793  0.1432  0.2462  1.1793
  156SAPE  H11R17318  -0.130   2.597   4.774  0.2407 -0.4469  1.5324
  156SAPE  C21217319   0.050   2.673   4.696 -0.3118  0.8650  0.3700
  156SAPE  H12R17320   0.001   2.706   4.603  0.8498  0.0119 -0.5871
  156SAPE  C21317321   0.192   2.725   4.704 -0.4300  0.7061  0.5982
  156SAPE  H13R17322   0.260   2.699   4.620 -0.4670  1.0931  0.4451
  156SAPE  H13S17323   0.243   2.692   4.797  1.6091  2.1255  0.0640
  156SAPE  C21417324   0.174   2.878   4.719 -0.1209  0.1633  0.1727
  156SAPE  H14R17325   0.139   2.922   4.625  0.7170 -1.5639 -1.0093
  156SAPE  C21517326   0.213   2.956   4.827  0.1431 -0.4921 -1.3576
  156SAPE  H15R17327   0.196   3.065   4.835 -3.6548 -1.0742  1.6072
  156SAPE  C21617328   0.277   2.908   4.956  0.8432 -0.0709  0.4794
  156SAPE  H16R17329   0.365   2.972   4.974 -0.9143  3.3765 -1.9210
  156SAPE  H16S17330   0.311   2.803   4.956  2.1726  0.2706 -2.2023
  156SAPE  C21717331   0.173   2.917   5.075  0.5872 -0.4344 -0.0608
  156SAPE  H17R17332   0.083   2.855   5.054  0.5547 -1.1074  1.8687
  156SAPE  H17S17333   0.133   3.017   5.102 -0.1568 -0.1004 -2.1791
  156SAPE  C21817334   0.243   2.858   5.199  1.0165 -0.5421 -0.2846
  156SAPE  H18R17335   0.326   2.927   5.226 -0.3009  1.4428 -1.0755
  156SAPE  H18S17336   0.276   2.757   5.164 -0.6453 -1.8679  1.7375
  156SAPE  C21917337   0.152   2.838   5.329 -0.5036 -0.3383  0.0240
  156SAPE  H19R17338   0.063   2.782   5.293 -0.1436  0.2359 -1.9121
  156SAPE  H19S17339   0.122   2.942   5.352  0.1832 -0.2635  0.6235
  156SAPE  C22017340   0.219   2.774   5.452 -0.0372  0.3801 -0.3876
  156SAPE  H20R17341   0.151   2.756   5.538  0.9628 -1.1491  0.1290
  156SAPE  H20S17342   0.312   2.824   5.487 -0.0220 -1.0726  1.8611
  156SAPE  H20T17343   0.256   2.677   5.414 -1.9091 -0.4607 -0.1615
  156SAPE   C3317344  -0.114   3.060   5.765  0.3283  0.2794 -0.6611
  156SAPE   H3X17345  -0.149   3.068   5.870  3.1007 -2.6049  0.6457
  156SAPE   H3Y17346  -0.194   3.084   5.691  0.0809  0.3385 -0.3743
  156SAPE   C3417347  -0.004   3.158   5.726 -0.4992  0.0462  0.0815
  156SAPE   H4X17348   0.090   3.140   5.782 -0.6895  0.0842  0.4188
  156SAPE   H4Y17349  -0.029   3.259   5.766  0.4185  1.1714 -2.0217
  156SAPE   C3517350   0.024   3.193   5.578  0.2670  0.0730 -0.2671
  156SAPE   H5X17351   0.038   3.095   5.527 -0.0550  1.5085 -3.3506
  156SAPE   H5Y17352   0.112   3.261   5.581 -0.4002  0.9538 -0.3618
  156SAPE   C3617353  -0.092   3.268   5.515  0.2312 -0.2465 -0.1058
  156SAPE   H6X17354  -0.123   3.356   5.575  1.7597  0.4293 -0.2719
  156SAPE   H6Y17355  -0.171   3.191   5.518  0.3432 -0.3382  0.6655
  156SAPE   C3717356  -0.061   3.315   5.370 -0.0058  0.2008  0.3268
  156SAPE   H7X17357  -0.049   3.228   5.303  0.1854  0.5507 -0.0926
  156SAPE   H7Y17358   0.030   3.377   5.375  0.4265 -0.2785 -1.2322
  156SAPE   C3817359  -0.178   3.398   5.314  0.1539  0.3279 -0.6891
  156SAPE   H8X17360  -0.215   3.462   5.397  1.5877 -0.2106  0.4111
  156SAPE   H8Y17361  -0.257   3.327   5.280 -0.4362  0.8872 -0.5253
  156SAPE   C3917362  -0.144   3.491   5.200  0.8030 -0.3007  1.0442
  156SAPE   H9X17363  -0.067   3.567   5.225  0.4861  1.0118 -1.5894
  156SAPE   H9Y17364  -0.232   3.550   5.167  0.8305  0.2103  1.8603
  156SAPE  C31017365  -0.106   3.412   5.073 -0.1779  0.5999  0.2878
  156SAPE  H10X17366  -0.185   3.338   5.050  0.8757 -1.3423  2.4708
  156SAPE  H10Y17367  -0.016   3.350   5.094 -0.0931  1.1949  1.8734
  156SAPE  C31117368  -0.087   3.502   4.948 -0.3054 -0.1389 -0.2871
  156SAPE  H11X17369  -0.001   3.570   4.965 -0.4825  0.3868 -1.3497
  156SAPE  H11Y17370  -0.179   3.564   4.936 -3.3619 -4.1684  0.1423
  156SAPE  C31217371  -0.050   3.426   4.818 -0.4503  0.1601 -0.1738
  156SAPE  H12X17372  -0.134   3.362   4.785  0.2145 -1.3297  0.8984
  156SAPE  H12Y17373   0.034   3.357   4.843 -1.9659 -1.2668  1.1994
  156SAPE  C31317374  -0.014   3.520   4.702 -0.7262 -0.3613 -0.0403
  156SAPE  H13X17375   0.088   3.559   4.720 -0.3536 -0.8922 -0.9083
  156SAPE  H13Y17376  -0.081   3.608   4.695 -0.0132  0.1754 -0.2128
  156SAPE  C31417377   0.003   3.462   4.562 -0.5542 -0.1387 -0.6152
  156SAPE  H14X17378   0.056   3.365   4.566  1.5288  0.9600 -0.3786
  156SAPE  H14Y17379   0.075   3.531   4.513 -0.6099  1.2543  1.1653
  156SAPE  C31517380  -0.134   3.461   4.492 -0.3372 -0.6605  0.2101
  156SAPE  H15X17381  -0.156   3.570   4.490  2.6646  0.0915  1.6965
  156SAPE  H15Y17382  -0.216   3.416   4.553  0.0561 -1.0119  0.4878
  156SAPE  C31617383  -0.126   3.405   4.344  0.0875  0.0610  0.7222
  156SAPE  H16X17384  -0.104   3.297   4.358 -0.5951 -0.0813  0.7158
  156SAPE  H16Y17385  -0.029   3.434   4.297  0.9314  0.1318  2.4320
  156SAPE  C31717386  -0.244   3.430   4.250 -0.5085  0.2771  0.1271
  156SAPE  H17X17387  -0.257   3.540   4.248  2.1960  0.6711 -2.3210
  156SAPE  H17Y17388  -0.336   3.387   4.295  0.9652 -3.3381  0.0787
  156SAPE  C31817389  -0.223   3.372   4.110 -0.7863 -0.2667 -0.3801
  156SAPE  H18X17390  -0.255   3.267   4.098 -1.0353 -0.0045 -2.3835
  156SAPE  H18Y17391  -0.118   3.368   4.075 -0.3918 -1.5639  0.8899
  156SAPE  H18Z17392  -0.277   3.441   4.041  0.5273  0.0468 -1.1267
  157SAPE     N17393   5.976   0.112   6.855 -0.3514 -0.1744  0.6047
  157SAPE   HN117394   5.926   0.199   6.826  1.5372  0.6559 -0.2845
  157SAPE   HN217395   6.065   0.150   6.891 -1.3754  2.0458  0.9635
  157SAPE   HN317396   5.982   0.050   6.771 -1.9389  4.1181 -3.1296
  157SAPE   C1217397   5.923   0.028   6.969  0.1923 -0.3218 -0.3041
  157SAPE  H12A17398   6.006  -0.031   7.012  0.4865 -0.0182 -0.4571
  157SAPE  H12B17399   5.844  -0.036   6.924  0.1369 -1.3977  1.2541
  157SAPE   C1117400   5.867   0.121   7.082  0.2768 -0.9210 -0.4674
  157SAPE  H11A17401   5.952   0.181   7.123 -1.5027  1.4801 -0.1119
  157SAPE  H11B17402   5.813   0.052   7.150 -4.0004  0.8277 -1.8056
  157SAPE     P17403   5.622   0.195   7.047 -0.4883 -0.7069 -0.0537
  157SAPE   O1317404   5.593   0.054   7.034  0.1274  0.7164  0.6904
  157SAPE   O1417405   5.591   0.249   7.181  0.1726  0.4436 -0.1602
  157SAPE   O1217406   5.773   0.221   7.022 -0.2034 -0.2317 -0.3284
  157SAPE   O1117407   5.534   0.286   6.938 -0.7033 -0.3287  0.0938
  157SAPE    C117408   5.580   0.286   6.798  1.4644  0.4397  1.0234
  157SAPE    HA17409   5.683   0.248   6.779  1.6498  1.3662  0.0332
  157SAPE    HB17410   5.521   0.205   6.751  2.3066 -0.1156  0.9097
  157SAPE    C217411   5.549   0.419   6.722 -0.1893 -0.0924  0.0187
  157SAPE    HS17412   5.625   0.492   6.757 -1.4047  1.7602 -1.0315
  157SAPE   O2117413   5.421   0.465   6.762 -0.7977  0.0722 -0.0194
  157SAPE   C2117414   5.418   0.599   6.773  0.4872 -0.2788 -0.8111
  157SAPE   O2217415   5.510   0.678   6.769 -0.1122  0.0108  0.1933
  157SAPE   C2217416   5.272   0.648   6.801 -0.1271 -0.2220  0.0555
  157SAPE   H2R17417   5.220   0.567   6.857 -0.5573  0.8579  1.2498
  157SAPE   H2S17418   5.279   0.742   6.859  0.0665 -0.6804  0.7948
  157SAPE    C317419   5.560   0.404   6.567  0.0395  0.4490 -0.4958
  157SAPE    HX17420   5.456   0.387   6.533  0.0557  0.3089 -0.4770
  157SAPE    HY17421   5.613   0.310   6.539  0.2891  0.4058  0.1096
  157SAPE   O3117422   5.607   0.525   6.508 -0.2357 -0.0272  0.8779
  157SAPE   C3117423   5.737   0.541   6.499 -0.1762  0.0792  0.3059
  157SAPE   O3217424   5.815   0.462   6.550 -0.0856 -0.1091 -0.0604
  157SAPE   C3217425   5.783   0.671   6.438 -0.3358  0.6438 -0.0720
  157SAPE   H2X17426   5.893   0.676   6.428 -0.3977  1.0940 -0.6032
  157SAPE   H2Y17427   5.746   0.756   6.500 -0.4738 -1.5339  3.0816
  157SAPE   C2317428   5.195   0.671   6.667  0.0312  0.3258 -1.0291
  157SAPE   H3R17429   5.235   0.751   6.602 -0.8765  1.2957 -0.4271
  157SAPE   H3S17430   5.090   0.698   6.693 -0.1506 -0.0664 -1.3342
  157SAPE   C2417431   5.181   0.533   6.590 -0.1276 -0.3381  0.0304
  157SAPE   H4R17432   5.160   0.457   6.669 -1.7910  1.2884  1.2283
  157SAPE   H4S17433   5.278   0.500   6.546 -1.0370  0.0822 -2.4456
  157SAPE   C2517434   5.078   0.534   6.481 -0.1313  0.4482  0.6091
  157SAPE   H5R17435   4.992   0.594   6.513  0.2901  0.4687  1.7499
  157SAPE   C2617436   5.089   0.493   6.354  0.1100  0.7400 -0.1486
  157SAPE   H6R17437   4.998   0.499   6.293 -0.0530  0.0522  0.0183
  157SAPE   C2717438   5.206   0.425   6.283  0.0322  0.0512  0.6561
  157SAPE   H7R17439   5.167   0.350   6.211  0.7459 -0.1090  0.4236
  157SAPE   H7S17440   5.270   0.365   6.351  1.7285 -0.0579 -0.9532
  157SAPE   C2817441   5.293   0.531   6.211 -0.4750 -0.0424 -0.4802
  157SAPE   H8R17442   5.381   0.559   6.270 -0.9559  1.8264 -0.5799
  157SAPE   C2917443   5.274   0.590   6.089  0.7284 -0.0162  0.5524
  157SAPE   H9R17444   5.338   0.671   6.050 -1.3151  0.4339 -2.1410
  157SAPE  C21017445   5.160   0.551   5.995  0.4418 -0.1143  0.0709
  157SAPE  H10R17446   5.132   0.445   6.012 -2.5164  0.5239 -0.3098
  157SAPE  H10S17447   5.178   0.573   5.888  1.5638  0.7567  0.4093
  157SAPE  C21117448   5.042   0.634   6.025 -0.1236  0.5260  0.4053
  157SAPE  H11R17449   4.962   0.577   6.075 -0.7919  3.0808  2.4906
  157SAPE  C21217450   5.017   0.765   5.995 -0.4737  0.1427 -0.7224
  157SAPE  H12R17451   4.924   0.809   6.032  0.0806  2.4730 -1.8736
  157SAPE  C21317452   5.110   0.867   5.931 -0.6499 -0.3640 -0.2649
  157SAPE  H13R17453   5.162   0.830   5.840  2.7601  1.2507  0.8285
  157SAPE  H13S17454   5.200   0.883   5.996  0.9767  0.7058 -2.6490
  157SAPE  C21417455   5.038   0.996   5.895 -0.1770  0.2154  0.0837
  157SAPE  H14R17456   5.089   1.079   5.945 -0.9558  1.2030 -0.6948
  157SAPE  C21517457   4.937   1.013   5.807 -0.2401  0.0673 -0.3505
  157SAPE  H15R17458   4.905   1.114   5.776 -1.5445 -0.6415 -1.3917
  157SAPE  C21617459   4.862   0.904   5.736  0.5260  0.3319 -0.6080
  157SAPE  H16R17460   4.915   0.807   5.745 -1.1589 -0.7888 -2.1096
  157SAPE  H16S17461   4.848   0.924   5.628 -0.5695 -0.4107 -0.6163
  157SAPE  C21717462   4.731   0.883   5.814  0.3770 -1.0179 -0.1425
  157SAPE  H17R17463   4.665   0.970   5.793  3.0409  0.4225 -3.3880
  157SAPE  H17S17464   4.749   0.868   5.923 -1.7762 -2.6624  0.0605
  157SAPE  C21817465   4.655   0.757   5.782  0.4699  0.6313  0.0771
  157SAPE  H18R17466   4.633   0.754   5.673  1.2575  1.5100 -0.1212
  157SAPE  H18S17467   4.555   0.762   5.829 -0.0153 -1.5773 -0.5929
  157SAPE  C21917468   4.721   0.626   5.836 -0.0019  0.5124 -0.0517
  157SAPE  H19R17469   4.766   0.645   5.935 -1.6913  1.0362  0.6375
  157SAPE  H19S17470   4.797   0.598   5.759  0.6449  1.1693  0.3362
  157SAPE  C22017471   4.633   0.501   5.835 -0.0408  0.1472 -0.5421
  157SAPE  H20R17472   4.696   0.409   5.838  0.9550  0.8200  0.2554
  157SAPE  H20S17473   4.569   0.496   5.745  0.0298 -0.4003 -0.5664
  157SAPE  H20T17474   4.569   0.499   5.926 -0.4571  0.1083 -0.8333
  157SAPE   C3317475   5.710   0.696   6.305  0.1957 -0.2424 -0.4305
  157SAPE   H3X17476   5.715   0.804   6.278 -0.6504  0.2138  1.1537
  157SAPE   H3Y17477   5.602   0.670   6.316 -0.2874  1.6521 -0.4096
  157SAPE   C3417478   5.761   0.603   6.193  0.0366  0.0822 -0.1116
  157SAPE   H4X17479   5.755   0.501   6.237 -0.0905  0.3709  0.5498
  157SAPE   H4Y17480   5.865   0.626   6.159 -0.6737  2.7492 -0.7177
  157SAPE   C3517481   5.672   0.607   6.061  0.3787 -0.2630  0.2225
  157SAPE   H5X17482   5.660   0.714   6.033  1.0180  0.0275  0.9953
  157SAPE   H5Y17483   5.570   0.565   6.070 -0.2777  1.6457  3.5968
  157SAPE   C3617484   5.732   0.539   5.940 -0.0749  0.0007 -0.4110
  157SAPE   H6X17485   5.751   0.433   5.969 -0.4036  0.5141  1.8995
  157SAPE   H6Y17486   5.831   0.586   5.923 -0.2485  0.3286 -0.5152
  157SAPE   C3717487   5.647   0.554   5.819 -0.1880  0.2159  0.1085
  157SAPE   H7X17488   5.611   0.658   5.811  2.8347  1.4847  1.3915
  157SAPE   H7Y17489   5.573   0.473   5.839  0.9429 -1.1758 -1.1429
  157SAPE   C3817490   5.736   0.515   5.702  0.2140  0.5099 -0.2309
  157SAPE   H8X17491   5.782   0.415   5.715  1.7580  1.2822  0.6368
  157SAPE   H8Y17492   5.829   0.574   5.689  1.2474 -0.8678  0.6162
  157SAPE   C3917493   5.647   0.510   5.576  1.2015  0.5449 -0.2685
  157SAPE   H9X17494   5.639   0.615   5.539 -0.5645  0.2339 -0.8616
  157SAPE   H9Y17495   5.548   0.467   5.601  0.8380 -0.2088 -2.7107
  157SAPE  C31017496   5.707   0.424   5.458  0.5682 -0.3776  0.5076
  157SAPE  H10X17497   5.692   0.319   5.492 -1.2185  0.4116  2.4010
  157SAPE  H10Y17498   5.817   0.431   5.443  0.3526 -1.2475 -1.8558
  157SAPE  C31117499   5.635   0.455   5.321 -0.6641  0.2105 -0.6244
  157SAPE  H11X17500   5.629   0.565   5.314  0.0005  0.3012  0.1220
  157SAPE  H11Y17501   5.534   0.412   5.339 -1.2245  2.6772  3.2233
  157SAPE  C31217502   5.706   0.375   5.213 -0.3198  0.0607  1.1288
  157SAPE  H12X17503   5.690   0.268   5.236 -0.2239 -0.3092 -0.4116
  157SAPE  H12Y17504   5.816   0.393   5.220 -0.4791  0.7905  1.8649
  157SAPE  C31317505   5.664   0.424   5.068  0.9096  0.2725 -0.0175
  157SAPE  H13X17506   5.652   0.534   5.069  0.3088  0.2406  2.0537
  157SAPE  H13Y17507   5.559   0.385   5.061  0.3169  1.6833  0.6766
  157SAPE  C31417508   5.738   0.356   4.953  0.4234  0.5468  0.2426
  157SAPE  H14X17509   5.726   0.248   4.975  0.1894  1.0077  2.6443
  157SAPE  H14Y17510   5.844   0.389   4.951  0.5820  0.2481 -3.4110
  157SAPE  C31517511   5.674   0.377   4.812 -0.3428 -0.2724 -0.1191
  157SAPE  H15X17512   5.644   0.484   4.811  2.0957  0.4833  0.4117
  157SAPE  H15Y17513   5.574   0.329   4.803 -0.0556 -0.6071 -1.9350
  157SAPE  C31617514   5.753   0.352   4.689 -0.3887  0.1192 -0.0853
  157SAPE  H16X17515   5.851   0.405   4.692 -0.5522  0.4714 -0.9055
  157SAPE  H16Y17516   5.692   0.377   4.600 -3.0964 -2.5360  0.8555
  157SAPE  C31717517   5.778   0.203   4.674 -0.5491 -0.3594 -0.8085
  157SAPE  H17X17518   5.806   0.153   4.770 -1.8595  0.2875 -0.0617
  157SAPE  H17Y17519   5.865   0.202   4.605  0.4976  0.3141  0.4446
  157SAPE  C31817520   5.668   0.119   4.609  0.8373 -0.4872  0.0562
  157SAPE  H18X17521   5.654   0.167   4.510  1.4268  0.0567  0.2348
  157SAPE  H18Y17522   5.568   0.124   4.657  1.7774 -0.8639  2.1411
  157SAPE  H18Z17523   5.699   0.013   4.595  0.3690 -0.4006 -2.0118
  158SAPE     N17524   1.049   5.856   6.706  0.6264  0.0195 -0.0746
  158SAPE   HN117525   1.035   5.837   6.605  0.2139  1.6652 -0.3566
  158SAPE   HN217526   0.960   5.893   6.746  1.2544  1.1731  0.2806
  158SAPE   HN317527   1.126   5.925   6.697  1.4975 -0.6323  1.8499
  158SAPE   C1217528   1.088   5.730   6.777  0.1082  0.1937 -0.3041
  158SAPE  H12A17529   0.988   5.686   6.798 -0.1378  2.1177  3.3931
  158SAPE  H12B17530   1.130   5.748   6.878 -1.3701 -3.5552  1.1547
  158SAPE   C1117531   1.178   5.659   6.682 -0.3055 -0.2602  0.5452
  158SAPE  H11A17532   1.217   5.565   6.727  0.0403  0.0123  0.8167
  158SAPE  H11B17533   1.258   5.733   6.665 -1.2261  0.5138 -0.6014
  158SAPE     P17534   1.131   5.512   6.471  0.6706 -0.2165 -0.0144
  158SAPE   O1317535   1.143   5.403   6.563  0.3312 -0.1942 -0.0846
  158SAPE   O1417536   1.027   5.505   6.367  0.5336 -0.1119  0.2066
  158SAPE   O1217537   1.102   5.637   6.558  0.4034 -0.0199 -0.1570
  158SAPE   O1117538   1.271   5.554   6.411  0.2030 -0.4437 -0.2786
  158SAPE    C117539   1.309   5.679   6.359  0.4199  0.0752  0.0431
  158SAPE    HA17540   1.265   5.764   6.416  1.1809  1.2603 -1.0861
  158SAPE    HB17541   1.418   5.688   6.338  1.2191  0.1489  3.5484
  158SAPE    C217542   1.244   5.686   6.216  0.5871 -0.0797  0.4649
  158SAPE    HS17543   1.134   5.691   6.236  0.3160 -0.4360 -0.8560
  158SAPE   O2117544   1.285   5.567   6.146  0.9758  0.2664  0.2154
  158SAPE   C2117545   1.198   5.512   6.067 -0.4582  0.4828 -0.1082
  158SAPE   O2217546   1.088   5.558   6.041  0.0652 -0.2428 -0.0833
  158SAPE   C2217547   1.254   5.374   6.018  0.2281  0.0331  0.6228
  158SAPE   H2R17548   1.364   5.364   6.034  0.5055 -0.5475 -1.4465
  158SAPE   H2S17549   1.213   5.293   6.081 -1.0072  2.3823  3.0576
  158SAPE    C317550   1.298   5.806   6.134  0.1108 -0.7349  0.9429
  158SAPE    HX17551   1.400   5.777   6.102 -0.9058 -1.0344 -2.4086
  158SAPE    HY17552   1.300   5.895   6.201 -1.4797  1.2842 -1.4836
  158SAPE   O3117553   1.216   5.830   6.018 -0.4456  0.3218 -0.6898
  158SAPE   C3117554   1.086   5.865   6.034 -0.5524 -0.5876  0.2668
  158SAPE   O3217555   1.032   5.898   6.140  0.2760  0.0988  0.2170
  158SAPE   C3217556   1.011   5.859   5.902  0.0185 -0.1019  0.5213
  158SAPE   H2X17557   1.050   5.769   5.850  0.5514  0.0440  0.6658
  158SAPE   H2Y17558   1.022   5.957   5.852  1.9907 -0.4621  0.1794
  158SAPE   C2317559   1.216   5.336   5.867 -0.2120 -0.3801  0.2421
  158SAPE   H3R17560   1.105   5.330   5.859 -0.4108  2.3530  0.1347
  158SAPE   H3S17561   1.253   5.232   5.850  0.6855  0.0680 -0.6598
  158SAPE   C2417562   1.282   5.425   5.762 -0.4498  0.3199 -0.5693
  158SAPE   H4R17563   1.393   5.427   5.775 -0.5597 -0.1641  0.5748
  158SAPE   H4S17564   1.246   5.529   5.768 -1.9804 -0.2168  0.0726
  158SAPE   C2517565   1.253   5.372   5.626  0.3146 -0.1132  0.4205
  158SAPE   H5R17566   1.313   5.288   5.588 -0.5685  0.0608 -1.4443
  158SAPE   C2617567   1.190   5.436   5.527 -0.4443 -0.4864  0.4681
  158SAPE   H6R17568   1.209   5.392   5.429 -0.0473  0.4347  0.1155
  158SAPE   C2717569   1.104   5.564   5.527  0.8800  0.2264 -0.5513
  158SAPE   H7R17570   1.164   5.658   5.520  0.8388  0.3803  0.8885
  158SAPE   H7S17571   1.051   5.572   5.624 -1.6685 -1.1764 -1.7293
  158SAPE   C2817572   0.997   5.564   5.417 -0.8283  0.0670 -0.3963
  158SAPE   H8R17573   0.897   5.527   5.442 -0.5319 -1.4170 -1.2501
  158SAPE   C2917574   1.011   5.642   5.303 -0.0747 -0.2537 -0.2658
  158SAPE   H9R17575   0.928   5.635   5.231 -0.9691  0.1650  0.7143
  158SAPE  C21017576   1.127   5.738   5.266  0.0534 -0.2688 -0.0021
  158SAPE  H10R17577   1.193   5.682   5.197  1.1321  0.2387  0.5860
  158SAPE  H10S17578   1.185   5.770   5.355  0.6277 -0.1379 -0.4226
  158SAPE  C21117579   1.069   5.857   5.187  0.7606 -0.3907 -0.0112
  158SAPE  H11R17580   1.055   5.944   5.253  0.5837  0.1249 -0.7178
  158SAPE  C21217581   1.047   5.871   5.061  0.4460  0.6232  0.0701
  158SAPE  H12R17582   1.004   5.964   5.019 -0.0153  0.7555  0.8163
  158SAPE  C21317583   1.078   5.768   4.956 -0.0333  0.0563 -0.5284
  158SAPE  H13R17584   1.000   5.757   4.878  1.4976  2.2012 -2.5165
  158SAPE  H13S17585   1.058   5.672   5.007 -0.6071  0.9693  1.0428
  158SAPE  C21417586   1.210   5.782   4.883  0.8613  0.1010 -0.7369
  158SAPE  H14R17587   1.273   5.872   4.888  2.6266 -1.1360  0.2919
  158SAPE  C21517588   1.241   5.690   4.790 -1.0941  0.9205 -0.9512
  158SAPE  H15R17589   1.332   5.693   4.728 -0.2965  0.6098  0.1756
  158SAPE  C21617590   1.160   5.565   4.765 -0.1049  0.1098 -0.5892
  158SAPE  H16R17591   1.140   5.552   4.657  0.1895 -1.9439 -0.4268
  158SAPE  H16S17592   1.060   5.569   4.812  0.4244 -1.0613  0.7166
  158SAPE  C21717593   1.229   5.430   4.812 -0.2093  0.2102  0.5623
  158SAPE  H17R17594   1.323   5.407   4.759 -0.2932  0.9859  0.0583
  158SAPE  H17S17595   1.160   5.347   4.787  3.5024 -2.3433 -2.2708
  158SAPE  C21817596   1.258   5.425   4.961 -0.2799 -0.1410  0.4233
  158SAPE  H18R17597   1.170   5.424   5.028  2.2825  1.5182  4.1746
  158SAPE  H18S17598   1.322   5.514   4.981 -1.2074  1.1771 -2.0828
  158SAPE  C21917599   1.340   5.304   5.008 -0.6417 -0.7702 -0.2660
  158SAPE  H19R17600   1.284   5.221   4.959 -1.8718  0.0888 -0.3874
  158SAPE  H19S17601   1.325   5.299   5.118 -1.0524 -1.5614 -0.3545
  158SAPE  C22017602   1.486   5.312   4.962 -0.6562 -0.6097  0.0251
  158SAPE  H20R17603   1.483   5.319   4.851 -0.7005 -1.4143 -0.0253
  158SAPE  H20S17604   1.538   5.217   4.984  1.1265  0.4857  0.7598
  158SAPE  H20T17605   1.531   5.406   5.002 -3.2436  0.5632  0.3919
  158SAPE   C3317606   0.857   5.851   5.933 -0.0226 -0.0892 -0.3717
  158SAPE   H3X17607   0.827   5.881   6.036 -0.2735  0.7531 -0.6821
  158SAPE   H3Y17608   0.821   5.746   5.930 -0.3776  0.0197 -0.0329
  158SAPE   C3417609   0.778   5.910   5.822  0.1186  0.5533 -1.3283
  158SAPE   H4X17610   0.822   6.010   5.797  3.2439 -0.3279  0.1585
  158SAPE   H4Y17611   0.673   5.909   5.856  0.1747  0.7594 -1.1467
  158SAPE   C3517612   0.787   5.830   5.692  0.5221  0.2996 -0.1216
  158SAPE   H5X17613   0.751   5.728   5.718 -0.2192  0.8318  1.0484
  158SAPE   H5Y17614   0.892   5.819   5.659 -0.5014  0.3186 -3.7925
  158SAPE   C3617615   0.689   5.892   5.584 -0.2703  0.3729  0.3256
  158SAPE   H6X17616   0.698   6.002   5.590 -0.0133  0.4059 -0.5247
  158SAPE   H6Y17617   0.589   5.861   5.619 -0.3112  2.5860  2.4164
  158SAPE   C3717618   0.715   5.840   5.434 -0.3590 -0.3714 -0.1424
  158SAPE   H7X17619   0.707   5.729   5.432 -1.3636 -0.3585  1.2993
  158SAPE   H7Y17620   0.820   5.873   5.419 -1.2802  2.4457 -0.9231
  158SAPE   C3817621   0.622   5.911   5.331 -1.0404  0.2738  0.1083
  158SAPE   H8X17622   0.642   6.020   5.345 -1.8623  0.8358 -2.5452
  158SAPE   H8Y17623   0.513   5.900   5.350 -1.0873 -0.5246 -0.6160
  158SAPE   C3917624   0.663   5.881   5.185  0.0794 -0.8159  0.5026
  158SAPE   H9X17625   0.678   5.772   5.166  1.4353 -0.4882 -0.3998
  158SAPE   H9Y17626   0.755   5.937   5.160 -0.6486  0.2331  0.1199
  158SAPE  C31017627   0.558   5.944   5.089 -0.0040  0.5739  0.2665
  158SAPE  H10X17628   0.542   6.050   5.119 -2.9082  0.2915 -0.0767
  158SAPE  H10Y17629   0.460   5.893   5.100  0.3162  0.1720  1.4851
  158SAPE  C31117630   0.607   5.924   4.940 -1.0734  0.0502 -0.3221
  158SAPE  H11X17631   0.618   5.817   4.910 -0.6848  0.8143 -3.2167
  158SAPE  H11Y17632   0.710   5.960   4.920 -1.2827  0.3141 -0.9611
  158SAPE  C31217633   0.508   5.979   4.836  0.1200 -0.6251  0.1779
  158SAPE  H12X17634   0.486   6.083   4.867  0.2128 -0.9290  1.3087
  158SAPE  H12Y17635   0.415   5.919   4.844 -0.5185  0.4767  1.4902
  158SAPE  C31317636   0.575   5.968   4.703 -0.1133  0.3588 -0.3426
  158SAPE  H13X17637   0.624   5.869   4.694  2.2505  1.2098  1.9873
  158SAPE  H13Y17638   0.661   6.038   4.704 -0.5083  0.8521  0.9988
  158SAPE  C31417639   0.474   5.999   4.587  0.2033  0.0094 -1.1580
  158SAPE  H14X17640   0.440   6.104   4.601  0.8441 -0.0251  1.2666
  158SAPE  H14Y17641   0.378   5.944   4.594 -0.0787  0.1867 -3.0878
  158SAPE  C31517642   0.523   5.981   4.447 -0.3851  0.2365  0.1170
  158SAPE  H15X17643   0.502   5.877   4.416 -0.3157 -0.0482  0.9991
  158SAPE  H15Y17644   0.631   6.002   4.432  0.1565 -2.2197  0.1674
  158SAPE  C31617645   0.465   6.085   4.345 -0.5416 -0.2659 -0.7331
  158SAPE  H16X17646   0.482   6.181   4.398 -1.5914 -0.7730  0.5618
  158SAPE  H16Y17647   0.358   6.062   4.326  0.0221 -2.1626 -1.8549
  158SAPE  C31717648   0.555   6.097   4.222 -0.1766  0.7468 -0.2397
  158SAPE  H17X17649   0.567   5.995   4.177  0.6577  0.6961  0.0845
  158SAPE  H17Y17650   0.657   6.131   4.252  0.4727 -1.7006  0.5517
  158SAPE  C31817651   0.498   6.188   4.113  0.0368  0.3442 -0.3661
  158SAPE  H18X17652   0.516   6.294   4.140  1.5047  0.4406 -1.6217
  158SAPE  H18Y17653   0.391   6.169   4.090  0.0981  1.0272 -1.2851
  158SAPE  H18Z17654   0.557   6.175   4.020 -0.4290  4.1724 -1.3668
  159SAPE     N17655   1.445   3.281   2.069 -0.4175  0.5351 -0.0219
  159SAPE   HN117656   1.515   3.278   2.146  0.4755  1.5146 -0.7628
  159SAPE   HN217657   1.487   3.354   2.007  0.8594 -0.7231 -0.7141
  159SAPE   HN317658   1.350   3.316   2.092  0.0216  3.7180 -2.4241
  159SAPE   C1217659   1.435   3.143   2.003 -0.4579 -0.6537 -0.0137
  159SAPE  H12A17660   1.535   3.100   1.982  1.5530  3.2922  0.5308
  159SAPE  H12B17661   1.386   3.163   1.905 -0.5363  3.7020  0.7043
  159SAPE   C1117662   1.339   3.050   2.072 -0.2563 -0.4910  0.6331
  159SAPE  H11A17663   1.313   2.985   1.985 -1.9263 -0.4624  1.0808
  159SAPE  H11B17664   1.246   3.087   2.119 -0.9354 -0.7035 -0.4970
  159SAPE     P17665   1.341   2.870   2.253  0.0489 -0.4094  0.2473
  159SAPE   O1317666   1.244   2.804   2.164 -0.0542 -0.5946  0.1918
  159SAPE   O1417667   1.435   2.784   2.329 -0.2002 -0.0136  0.2849
  159SAPE   O1217668   1.418   2.977   2.170  0.3544  0.2955 -0.4400
  159SAPE   O1117669   1.271   2.964   2.357 -0.0262  0.1434  0.0406
  159SAPE    C117670   1.335   3.080   2.419 -0.2768 -0.1473  0.1582
  159SAPE    HA17671   1.444   3.072   2.396 -0.4587 -1.4687 -0.3207
  159SAPE    HB17672   1.298   3.174   2.374  0.2109 -0.1084 -0.1773
  159SAPE    C217673   1.322   3.069   2.577 -0.1836 -0.6978  1.0326
  159SAPE    HS17674   1.404   3.126   2.625  0.5987 -2.2003  1.5371
  159SAPE   O2117675   1.336   2.933   2.622 -0.2884 -0.2111 -0.7514
  159SAPE   C2117676   1.465   2.896   2.654  0.5037 -0.0488  1.0423
  159SAPE   O2217677   1.568   2.953   2.627 -0.2534 -0.0457 -0.3184
  159SAPE   C2217678   1.475   2.751   2.718  0.2045 -0.2994  0.1166
  159SAPE   H2R17679   1.371   2.712   2.715  0.3469 -0.6287 -1.1553
  159SAPE   H2S17680   1.544   2.684   2.662  1.0043  0.8075 -0.2654
  159SAPE    C317681   1.196   3.132   2.636 -0.0309 -0.2290 -0.5626
  159SAPE    HX17682   1.110   3.074   2.597 -0.1237 -0.0713 -0.5905
  159SAPE    HY17683   1.176   3.237   2.606 -1.2833 -0.3305 -0.1277
  159SAPE   O3117684   1.203   3.130   2.781  0.3562 -0.3179  0.2983
  159SAPE   C3117685   1.139   3.029   2.841 -0.1677  0.2854 -0.1087
  159SAPE   O3217686   1.067   2.939   2.796  0.6684  0.2796  0.1444
  159SAPE   C3217687   1.184   3.042   2.986 -0.2383  0.2510 -0.2395
  159SAPE   H2X17688   1.130   3.120   3.042 -0.5088 -0.6650  0.8077
  159SAPE   H2Y17689   1.291   3.069   2.990 -0.9562  3.2175  1.6830
  159SAPE   C2317690   1.525   2.751   2.864 -0.3215 -0.2522  0.0856
  159SAPE   H3R17691   1.477   2.824   2.932 -0.9926 -1.7184  1.2486
  159SAPE   H3S17692   1.633   2.773   2.850  0.2306 -1.9696  1.2334
  159SAPE   C2417693   1.525   2.610   2.925 -0.0996  0.2472  0.5889
  159SAPE   H4R17694   1.592   2.596   3.013 -0.2825  0.9972  0.8523
  159SAPE   H4S17695   1.565   2.544   2.845 -1.0151  1.6392 -1.0846
  159SAPE   C2517696   1.387   2.565   2.954 -0.0468  0.1043  0.6732
  159SAPE   H5R17697   1.329   2.546   2.863  0.7071  0.5892  0.0770
  159SAPE   C2617698   1.329   2.552   3.072 -0.3442 -0.7908  0.1731
  159SAPE   H6R17699   1.233   2.498   3.073 -0.5898 -0.3959  2.3051
  159SAPE   C2717700   1.389   2.562   3.207  0.0367  0.0186  0.6623
  159SAPE   H7R17701   1.303   2.549   3.276 -0.6376  0.4328 -0.0833
  159SAPE   H7S17702   1.434   2.663   3.219  1.9045 -0.6305 -0.4776
  159SAPE   C2817703   1.492   2.459   3.239 -0.5644 -0.9577 -0.5671
  159SAPE   H8R17704   1.552   2.422   3.155  1.0142  1.0510 -0.4012
  159SAPE   C2917705   1.510   2.408   3.364 -1.0348  0.0950 -0.0364
  159SAPE   H9R17706   1.581   2.328   3.386 -2.0233 -1.2827 -1.6444
  159SAPE  C21017707   1.427   2.431   3.492  0.3435  0.4333 -0.1347
  159SAPE  H10R17708   1.395   2.537   3.487  3.0335  1.2913 -0.5559
  159SAPE  H10S17709   1.485   2.419   3.586 -0.8674  1.7538  0.8212
  159SAPE  C21117710   1.308   2.337   3.505  0.4150 -0.0396 -0.1781
  159SAPE  H11R17711   1.287   2.288   3.409  3.0109  1.3691 -1.5836
  159SAPE  C21217712   1.237   2.316   3.615  0.0220 -0.0707 -0.3044
  159SAPE  H12R17713   1.154   2.244   3.608  0.4893 -0.5955 -0.6199
  159SAPE  C21317714   1.269   2.365   3.750 -0.0779 -0.4649 -0.7163
  159SAPE  H13R17715   1.310   2.468   3.751  0.5387 -0.7003 -1.1096
  159SAPE  H13S17716   1.354   2.300   3.783  0.0436 -1.2812 -2.5134
  159SAPE  C21417717   1.164   2.350   3.854 -0.2283  0.1406 -0.0744
  159SAPE  H14R17718   1.086   2.428   3.857 -0.5859 -0.2188  0.1802
  159SAPE  C21517719   1.147   2.233   3.928 -0.4527 -0.0716  0.0802
  159SAPE  H15R17720   1.055   2.220   3.987 -1.8885  1.4089 -1.6552
  159SAPE  C21617721   1.235   2.116   3.927 -0.2616  0.4298 -0.0794
  159SAPE  H16R17722   1.317   2.126   3.853 -0.6937  1.5302 -0.4276
  159SAPE  H16S17723   1.172   2.030   3.895 -0.2767  0.3640  0.1275
  159SAPE  C21717724   1.295   2.098   4.065  0.3392 -0.3900  0.0068
  159SAPE  H17R17725   1.327   2.195   4.108 -2.0421  0.6810 -0.4966
  159SAPE  H17S17726   1.384   2.033   4.051  1.2634  0.9369 -0.5381
  159SAPE  C21817727   1.203   2.034   4.176  0.7482 -0.6885  0.0584
  159SAPE  H18R17728   1.174   1.939   4.127 -0.2887 -0.7350  0.7391
  159SAPE  H18S17729   1.110   2.095   4.176 -1.1342 -3.3639  0.3500
  159SAPE  C21917730   1.244   2.019   4.322 -0.2756 -0.2185 -0.0763
  159SAPE  H19R17731   1.248   2.119   4.370  3.1354  0.7864 -2.1104
  159SAPE  H19S17732   1.346   1.976   4.329 -0.1703  0.2384  1.4494
  159SAPE  C22017733   1.148   1.930   4.395 -0.7445  0.4497 -0.3398
  159SAPE  H20R17734   1.125   1.833   4.347 -4.7176  0.3411  1.3636
  159SAPE  H20S17735   1.049   1.981   4.399 -0.5012  0.9648 -0.8662
  159SAPE  H20T17736   1.183   1.915   4.500 -0.8837  1.8339 -0.0738
  159SAPE   C3317737   1.158   2.912   3.070  0.7175 -0.8379 -0.2539
  159SAPE   H3X17738   1.212   2.824   3.031  2.8270  0.3599 -0.2173
  159SAPE   H3Y17739   1.050   2.887   3.072  0.8496 -1.3994 -0.0029
  159SAPE   C3417740   1.186   2.949   3.213  0.2532  0.2754  0.4381
  159SAPE   H4X17741   1.130   3.035   3.256 -1.6843 -0.0603 -1.2677
  159SAPE   H4Y17742   1.293   2.981   3.218  1.5824 -3.5708 -0.1100
  159SAPE   C3517743   1.163   2.829   3.302 -0.5383  0.2048 -1.1835
  159SAPE   H5X17744   1.247   2.761   3.276  1.5147  1.6763  1.0635
  159SAPE   H5Y17745   1.073   2.765   3.297 -0.8007  0.1840  1.8874
  159SAPE   C3617746   1.160   2.875   3.451 -0.4725  0.3136 -0.4543
  159SAPE   H6X17747   1.220   2.968   3.461 -1.8641  1.5355 -2.6826
  159SAPE   H6Y17748   1.196   2.800   3.525  1.9020  0.5765 -1.2617
  159SAPE   C3717749   1.026   2.930   3.496  0.6443 -0.2652  0.1642
  159SAPE   H7X17750   0.947   2.863   3.456  0.5367  1.4483 -2.7521
  159SAPE   H7Y17751   1.007   3.029   3.451 -0.7950  0.8617  2.9782
  159SAPE   C3817752   1.008   2.953   3.648 -0.4380  0.0072  0.5642
  159SAPE   H8X17753   0.951   3.046   3.667 -2.4165 -1.4409  2.1163
  159SAPE   H8Y17754   1.105   2.982   3.694 -0.0256  0.5686 -0.6107
  159SAPE   C3917755   0.961   2.826   3.717 -0.0490 -0.0323 -0.4263
  159SAPE   H9X17756   1.027   2.739   3.700  2.6771  1.5345  1.3260
  159SAPE   H9Y17757   0.858   2.796   3.689 -1.4577  1.6194  2.5120
  159SAPE  C31017758   0.948   2.848   3.867 -0.3498  0.4499 -0.3669
  159SAPE  H10X17759   0.869   2.925   3.884 -0.0966  1.1123 -2.0024
  159SAPE  H10Y17760   1.035   2.893   3.919 -1.5051  1.8407  0.4588
  159SAPE  C31117761   0.917   2.709   3.932  0.6857 -0.1196 -0.3163
  159SAPE  H11X17762   0.949   2.634   3.856  1.1637 -0.8055  0.5475
  159SAPE  H11Y17763   0.807   2.695   3.934  0.5089  1.1564 -0.3429
  159SAPE  C31217764   0.998   2.684   4.060  0.9270  0.1476  0.1224
  159SAPE  H12X17765   0.976   2.591   4.116  0.9363  0.7753  1.1926
  159SAPE  H12Y17766   0.967   2.770   4.124 -0.0308 -1.1689  1.4787
  159SAPE  C31317767   1.147   2.683   4.016 -0.1472  0.4184 -0.6871
  159SAPE  H13X17768   1.192   2.785   4.017 -1.7297  1.1760 -1.7973
  159SAPE  H13Y17769   1.154   2.639   3.914  0.5413 -0.8365 -0.1137
  159SAPE  C31417770   1.233   2.600   4.117  0.1195  0.2028 -0.0519
  159SAPE  H14X17771   1.210   2.492   4.120  0.9620  0.0234  0.1240
  159SAPE  H14Y17772   1.214   2.647   4.215  1.5239  2.4060 -0.7558
  159SAPE  C31517773   1.382   2.615   4.093 -0.6002 -0.0891  0.6156
  159SAPE  H15X17774   1.412   2.720   4.075  1.1343 -0.8683 -1.4767
  159SAPE  H15Y17775   1.409   2.555   4.003 -2.5186  1.5496 -1.1420
  159SAPE  C31617776   1.462   2.572   4.215  0.7256 -0.6291  0.5280
  159SAPE  H16X17777   1.437   2.469   4.249  1.3717 -1.3396 -1.0594
  159SAPE  H16Y17778   1.449   2.653   4.291  1.0749 -1.0406  1.0359
  159SAPE  C31717779   1.608   2.562   4.184 -0.8083 -0.6268  0.0698
  159SAPE  H17X17780   1.611   2.487   4.102 -0.0879 -1.4219  0.8032
  159SAPE  H17Y17781   1.656   2.521   4.275 -1.0005 -0.7155  0.1304
  159SAPE  C31817782   1.686   2.695   4.154 -0.1481 -0.0026  0.4013
  159SAPE  H18X17783   1.686   2.775   4.230  0.5797  1.1897 -0.8140
  159SAPE  H18Y17784   1.626   2.743   4.073  1.1438 -0.6867 -1.0126
  159SAPE  H18Z17785   1.789   2.678   4.115  0.3196 -0.4668  1.7960
  160SAPE     N17786   1.691   2.832   2.403 -0.5718 -0.0668 -0.7604
  160SAPE   HN117787   1.699   2.919   2.346  0.5145 -0.4099 -1.1601
  160SAPE   HN217788   1.611   2.782   2.357  0.3070 -0.2376 -2.1606
  160SAPE   HN317789   1.659   2.859   2.498  0.3483  1.2150 -0.7876
  160SAPE   C1217790   1.837   2.783   2.402  0.5198  0.2793  0.0527
  160SAPE  H12A17791   1.895   2.869   2.441  3.1552 -1.0366 -0.7354
  160SAPE  H12B17792   1.868   2.758   2.299  2.5241  0.3694  0.6014
  160SAPE   C1117793   1.843   2.666   2.503 -0.4653  0.5064  0.3602
  160SAPE  H11A17794   1.817   2.696   2.607  1.3522  1.4308  0.5914
  160SAPE  H11B17795   1.951   2.637   2.501 -1.1489 -2.3016 -0.5006
  160SAPE     P17796   1.798   2.455   2.352 -0.0427 -0.1577  0.3186
  160SAPE   O1317797   1.687   2.455   2.253  0.4390 -0.7979  0.1833
  160SAPE   O1417798   1.934   2.483   2.302  0.5697 -0.0578  0.6930
  160SAPE   O1217799   1.753   2.555   2.472 -0.2351 -0.4635  0.4374
  160SAPE   O1117800   1.807   2.317   2.427 -0.5804  0.1372  0.1240
  160SAPE    C117801   1.724   2.291   2.536  0.3776 -0.5993 -0.2335
  160SAPE    HA17802   1.706   2.384   2.594  1.6201 -0.0928 -0.6312
  160SAPE    HB17803   1.631   2.240   2.503 -0.9957  1.9030 -0.4702
  160SAPE    C217804   1.785   2.198   2.644  0.0384  0.1331  0.6414
  160SAPE    HS17805   1.858   2.246   2.711  0.6347 -1.2526  1.0299
  160SAPE   O2117806   1.833   2.077   2.577 -0.3899 -0.0941 -0.4346
  160SAPE   C2117807   1.915   2.001   2.649  0.2434 -0.1140 -0.1039
  160SAPE   O2217808   1.960   2.025   2.765  0.3179 -0.8157 -0.3482
  160SAPE   C2217809   1.924   1.872   2.576 -0.8779 -0.7381  0.3020
  160SAPE   H2R17810   1.822   1.854   2.537 -0.6888 -2.1062  0.3872
  160SAPE   H2S17811   1.992   1.886   2.489 -1.4211  0.2138  0.0180
  160SAPE    C317812   1.663   2.159   2.734  0.3496  0.2577  0.4505
  160SAPE    HX17813   1.591   2.095   2.678 -0.8371  2.1727 -0.2848
  160SAPE    HY17814   1.597   2.244   2.761 -3.0390 -1.9998 -0.0732
  160SAPE   O3117815   1.697   2.091   2.853 -0.0939 -0.4558  0.2534
  160SAPE   C3117816   1.739   2.178   2.951  0.5103 -0.2648 -0.5069
  160SAPE   O3217817   1.745   2.303   2.937  0.2177  0.4943  0.2603
  160SAPE   C3217818   1.757   2.103   3.074  0.4975  0.3700  0.1905
  160SAPE   H2X17819   1.674   2.033   3.099  0.4354 -0.4497 -2.1504
  160SAPE   H2Y17820   1.763   2.168   3.164  1.3592  0.4058  0.1218
  160SAPE   C2317821   1.977   1.754   2.661 -0.1059  0.2705  0.3543
  160SAPE   H3R17822   1.958   1.665   2.598 -1.8200  0.8101  0.0466
  160SAPE   H3S17823   1.916   1.745   2.754 -0.8992  0.6627 -0.1135
  160SAPE   C2417824   2.121   1.766   2.714  0.0301 -0.5374  0.2755
  160SAPE   H4R17825   2.119   1.838   2.798 -1.9798 -0.6608  0.3833
  160SAPE   H4S17826   2.183   1.817   2.636 -0.2847 -1.2269 -0.4421
  160SAPE   C2517827   2.181   1.636   2.749 -0.1299  0.0598 -0.8007
  160SAPE   H5R17828   2.224   1.582   2.663  1.5472 -0.1822  0.1519
  160SAPE   C2617829   2.197   1.576   2.869  0.0431 -0.4614  0.0113
  160SAPE   H6R17830   2.247   1.478   2.876  2.3144  0.5418 -1.1612
  160SAPE   C2717831   2.138   1.638   2.993 -0.6667  0.7951  0.0036
  160SAPE   H7R17832   2.106   1.744   2.983 -0.5392  0.9536  1.1217
  160SAPE   H7S17833   2.219   1.654   3.067  0.1145  1.4916 -0.9728
  160SAPE   C2817834   2.026   1.565   3.069  0.6730 -0.8449  0.4754
  160SAPE   H8R17835   1.938   1.550   3.006  0.3327  0.2026  0.6775
  160SAPE   C2917836   2.038   1.508   3.190  0.0251  0.4042  0.2298
  160SAPE   H9R17837   1.950   1.453   3.227  0.2519  0.5418  0.9883
  160SAPE  C21017838   2.167   1.494   3.271  0.3171  0.1959 -0.1432
  160SAPE  H10R17839   2.256   1.489   3.204  0.1876 -1.4853 -0.2103
  160SAPE  H10S17840   2.174   1.393   3.315 -2.8018  0.0745  0.2595
  160SAPE  C21117841   2.180   1.606   3.370 -0.0801  0.6766 -0.0138
  160SAPE  H11R17842   2.155   1.710   3.341 -1.3009  0.3337 -0.2610
  160SAPE  C21217843   2.218   1.585   3.495 -0.2335 -0.3967  0.1627
  160SAPE  H12R17844   2.226   1.674   3.559  0.4007  0.1196 -0.6047
  160SAPE  C21317845   2.252   1.445   3.553 -0.2004 -0.6762 -0.4401
  160SAPE  H13R17846   2.322   1.451   3.639 -0.9792 -0.9974  0.2211
  160SAPE  H13S17847   2.303   1.374   3.483  0.0399 -1.7880  0.8193
  160SAPE  C21417848   2.122   1.379   3.610 -0.3874  0.7361  0.9347
  160SAPE  H14R17849   2.067   1.313   3.540 -1.5057  1.8810  0.6865
  160SAPE  C21517850   2.085   1.387   3.741 -0.5420  0.9764  0.1086
  160SAPE  H15R17851   1.988   1.340   3.767  0.6992 -1.1023  1.2551
  160SAPE  C21617852   2.155   1.461   3.850 -0.1154 -0.1197  0.3337
  160SAPE  H16R17853   2.076   1.476   3.927  0.6947  1.2674  0.9323
  160SAPE  H16S17854   2.180   1.565   3.818 -3.1910  0.3288 -0.9025
  160SAPE  C21717855   2.272   1.381   3.912  0.7838 -0.4990  0.8357
  160SAPE  H17R17856   2.363   1.399   3.851  0.1836  1.5027  0.4559
  160SAPE  H17S17857   2.241   1.275   3.924 -0.2729 -0.1478  1.3252
  160SAPE  C21817858   2.312   1.434   4.046 -0.1084  0.5124  0.2751
  160SAPE  H18R17859   2.215   1.422   4.099 -0.6030 -2.5904 -1.1255
  160SAPE  H18S17860   2.336   1.542   4.039 -1.2968  0.6743 -3.5461
  160SAPE  C21917861   2.415   1.345   4.110  0.1384  0.0896 -1.4531
  160SAPE  H19R17862   2.521   1.353   4.076  0.9194 -4.0461 -0.5177
  160SAPE  H19S17863   2.383   1.239   4.116 -0.8951  0.4533  2.8986
  160SAPE  C22017864   2.426   1.381   4.261 -0.4880  0.3905 -0.6708
  160SAPE  H20R17865   2.325   1.382   4.306 -0.4982  0.3054 -0.6936
  160SAPE  H20S17866   2.484   1.476   4.272  1.7056 -0.8307 -1.0346
  160SAPE  H20T17867   2.486   1.311   4.323 -0.4418  2.8584  2.3125
  160SAPE   C3317868   1.881   2.012   3.074  0.2547 -0.2487 -1.3690
  160SAPE   H3X17869   1.965   2.055   3.015  1.4331 -1.4783 -0.6535
  160SAPE   H3Y17870   1.869   1.922   3.010 -0.2703 -1.3341  0.1844
  160SAPE   C3417871   1.937   1.972   3.212 -0.2641  0.3142  0.2999
  160SAPE   H4X17872   1.972   2.067   3.258  2.7542  0.3829 -1.8745
  160SAPE   H4Y17873   2.026   1.911   3.189  0.2001  1.8359 -2.2590
  160SAPE   C3517874   1.849   1.891   3.308 -0.3552  0.1918  0.6888
  160SAPE   H5X17875   1.848   1.785   3.275  3.8968 -0.1312  1.0331
  160SAPE   H5Y17876   1.746   1.928   3.321 -0.7423 -0.9109  0.8999
  160SAPE   C3617877   1.909   1.889   3.452 -0.1093 -0.2467  0.4306
  160SAPE   H6X17878   2.001   1.951   3.446  0.1397 -0.3883  2.2598
  160SAPE   H6Y17879   1.933   1.786   3.486 -0.6958 -0.0990  1.3438
  160SAPE   C3717880   1.822   1.946   3.553  0.5361 -0.5665 -0.3383
  160SAPE   H7X17881   1.722   1.896   3.555 -0.4487  1.2777  1.4791
  160SAPE   H7Y17882   1.816   2.054   3.531  2.3991 -0.3356  0.1241
  160SAPE   C3817883   1.884   1.943   3.690  0.3281  0.3470 -0.4894
  160SAPE   H8X17884   1.836   2.025   3.748 -1.3281 -1.9259  1.5583
  160SAPE   H8Y17885   1.992   1.959   3.671  0.5329 -1.1594 -0.6863
  160SAPE   C3917886   1.856   1.814   3.767 -0.0970 -0.5832 -0.1234
  160SAPE   H9X17887   1.901   1.728   3.712 -2.8686 -1.6996 -0.8134
  160SAPE   H9Y17888   1.746   1.795   3.762 -0.4734  0.9646  1.5050
  160SAPE  C31017889   1.894   1.819   3.916 -0.1776  0.2794  0.5558
  160SAPE  H10X17890   1.867   1.917   3.963  0.5412 -0.8589  3.5577
  160SAPE  H10Y17891   2.003   1.801   3.910 -0.0341  0.8447  1.2959
  160SAPE  C31117892   1.841   1.694   3.995 -0.1365 -0.3175  0.3870
  160SAPE  H11X17893   1.859   1.604   3.932 -1.2731  0.0929 -0.5563
  160SAPE  H11Y17894   1.731   1.704   4.008 -0.2628  0.1081 -0.9404
  160SAPE  C31217895   1.919   1.669   4.126  0.7142  0.1731 -0.3766
  160SAPE  H12X17896   1.879   1.747   4.196  1.3172  0.9413 -0.8670
  160SAPE  H12Y17897   2.029   1.672   4.112  0.7175  0.1314 -0.3606
  160SAPE  C31317898   1.885   1.535   4.201 -0.4174 -0.2157  0.2574
  160SAPE  H13X17899   1.922   1.444   4.149  2.3527  1.3915 -0.7793
  160SAPE  H13Y17900   1.775   1.520   4.201 -0.5364  0.4744  1.8712
  160SAPE  C31417901   1.924   1.528   4.350 -0.0444 -0.0384 -0.5003
  160SAPE  H14X17902   1.860   1.604   4.400  1.6269  1.4277 -0.4955
  160SAPE  H14Y17903   2.029   1.560   4.369  0.7965 -2.4540 -0.8126
  160SAPE  C31517904   1.922   1.390   4.422  0.4652 -0.6406  0.1643
  160SAPE  H15X17905   1.979   1.311   4.369 -0.0312 -1.5390  0.9402
  160SAPE  H15Y17906   1.816   1.359   4.406  0.4811  0.3577 -2.3555
  160SAPE  C31617907   1.960   1.379   4.567 -0.0925 -0.6812 -0.0196
  160SAPE  H16X17908   1.916   1.464   4.624  0.3210  1.7401 -3.0265
  160SAPE  H16Y17909   2.068   1.396   4.585 -0.2242  0.7219 -0.4611
  160SAPE  C31717910   1.938   1.232   4.607 -0.2431 -0.4826  0.0522
  160SAPE  H17X17911   1.980   1.172   4.524  0.6758  0.0421  0.1242
  160SAPE  H17Y17912   1.829   1.214   4.621 -0.1535 -0.7614  0.4090
  160SAPE  C31817913   2.009   1.195   4.734  0.5496 -0.1514  0.2373
  160SAPE  H18X17914   2.003   1.084   4.739  0.2830 -0.1089  1.1411
  160SAPE  H18Y17915   1.962   1.240   4.825  1.0566 -2.3847  1.6929
  160SAPE  H18Z17916   2.117   1.219   4.731  0.1139  2.1482  1.0810
  161SAPE     N17917   4.256   2.606   2.711  0.6711  0.4620 -0.8306
  161SAPE   HN117918   4.334   2.605   2.642  1.6171  0.5991  0.2207
  161SAPE   HN217919   4.276   2.511   2.749  0.6053  0.5833 -0.4930
  161SAPE   HN317920   4.160   2.604   2.672  0.0260 -2.7474  0.6035
  161SAPE   C1217921   4.271   2.714   2.814 -0.5377 -0.0502  0.0303
  161SAPE  H12A17922   4.226   2.680   2.910  2.7745 -1.5720  1.2068
  161SAPE  H12B17923   4.223   2.804   2.770 -0.5622  0.1635  0.4881
  161SAPE   C1117924   4.418   2.746   2.844 -0.0577  0.0730  0.2277
  161SAPE  H11A17925   4.458   2.653   2.891 -1.2712  1.2562  3.9290
  161SAPE  H11B17926   4.413   2.824   2.923  0.0095  2.5900 -2.1029
  161SAPE     P17927   4.601   2.885   2.717  0.1105  0.3962 -0.1376
  161SAPE   O1317928   4.724   2.808   2.684  0.6631  0.8109 -0.2967
  161SAPE   O1417929   4.559   2.990   2.621  0.0164  0.2353  0.3999
  161SAPE   O1217930   4.491   2.772   2.730 -0.0466  0.5240 -0.1591
  161SAPE   O1117931   4.615   2.945   2.859  0.1430  0.0393 -0.7339
  161SAPE    C117932   4.695   3.063   2.885  0.6070  0.3783  0.8645
  161SAPE    HA17933   4.796   3.054   2.840  0.4967 -2.0057  0.9514
  161SAPE    HB17934   4.641   3.154   2.850 -0.6739 -0.2606  1.1124
  161SAPE    C217935   4.710   3.113   3.030 -0.0668  0.1342  0.1540
  161SAPE    HS17936   4.805   3.072   3.068 -0.3168  2.1147  3.3125
  161SAPE   O2117937   4.603   3.060   3.116 -0.5741 -0.1208 -0.2090
  161SAPE   C2117938   4.611   2.932   3.147  0.2846  0.6850  0.0870
  161SAPE   O2217939   4.702   2.855   3.120 -0.7279 -0.2871 -0.1548
  161SAPE   C2217940   4.499   2.910   3.240 -0.5972  0.1950 -0.0801
  161SAPE   H2R17941   4.405   2.898   3.182 -0.1617  0.3598 -0.8228
  161SAPE   H2S17942   4.522   2.812   3.288 -0.4987  0.3258  0.1414
  161SAPE    C317943   4.720   3.270   3.041  0.4471 -0.0592  0.6233
  161SAPE    HX17944   4.613   3.293   3.026  0.3421 -0.8539  0.0815
  161SAPE    HY17945   4.779   3.317   2.959 -0.8190 -1.7469 -1.3753
  161SAPE   O3117946   4.749   3.314   3.176  0.4026 -0.1173  0.8775
  161SAPE   C3117947   4.864   3.272   3.232  0.6405 -0.4179  0.5684
  161SAPE   O3217948   4.961   3.226   3.171 -0.3704  0.0718  0.0677
  161SAPE   C3217949   4.854   3.301   3.380 -0.2306 -0.2826  0.0086
  161SAPE   H2X17950   4.803   3.214   3.426 -0.3484 -0.0986  0.2346
  161SAPE   H2Y17951   4.785   3.388   3.387 -0.7424 -0.5051 -1.8116
  161SAPE   C2317952   4.476   3.017   3.347 -0.4946 -0.5488 -0.6409
  161SAPE   H3R17953   4.367   3.022   3.366  0.0188 -1.0714  3.3982
  161SAPE   H3S17954   4.511   3.118   3.319 -2.1343  0.5924  1.2255
  161SAPE   C2417955   4.545   2.990   3.483 -0.1466 -0.5578  0.2022
  161SAPE   H4R17956   4.651   2.960   3.472  1.4137  3.5116  2.0976
  161SAPE   H4S17957   4.490   2.909   3.534 -2.8639 -0.4674 -2.3213
  161SAPE   C2517958   4.543   3.116   3.566  0.2337  0.5296 -0.3794
  161SAPE   H5R17959   4.570   3.209   3.513 -0.0380  0.8404  0.0213
  161SAPE   C2617960   4.505   3.121   3.695 -0.3958 -0.2258 -0.0802
  161SAPE   H6R17961   4.499   3.221   3.739  0.4169 -0.1820 -0.0612
  161SAPE   C2717962   4.443   3.013   3.785 -0.1850 -0.2390 -0.0396
  161SAPE   H7R17963   4.530   2.964   3.833 -0.5878  0.5163  1.5435
  161SAPE   H7S17964   4.379   2.939   3.733 -2.6901  1.5764  0.2945
  161SAPE   C2817965   4.369   3.062   3.905 -0.3835 -0.6883  1.1426
  161SAPE   H8R17966   4.266   3.097   3.889  0.4874  0.9679 -1.3844
  161SAPE   C2917967   4.403   3.050   4.034 -0.6273  0.4669  0.0959
  161SAPE   H9R17968   4.325   3.079   4.107  0.3462  0.5896  1.1069
  161SAPE  C21017969   4.535   3.009   4.089  0.4159 -0.4020 -0.2269
  161SAPE  H10R17970   4.617   3.069   4.044  1.3703 -1.7249 -0.2985
  161SAPE  H10S17971   4.563   2.904   4.067 -0.5597 -0.4375 -1.4590
  161SAPE  C21117972   4.539   3.031   4.238 -0.4329  0.3221  0.9610
  161SAPE  H11R17973   4.536   3.139   4.260  1.5363  0.6708 -0.2622
  161SAPE  C21217974   4.546   2.939   4.341 -0.1397 -0.0689  0.1062
  161SAPE  H12R17975   4.543   2.976   4.445 -0.8872 -3.0918  1.2678
  161SAPE  C21317976   4.548   2.787   4.338 -0.0901  0.0501  0.8509
  161SAPE  H13R17977   4.580   2.760   4.235  0.7217  0.7442  0.9135
  161SAPE  H13S17978   4.441   2.756   4.333 -0.1385  0.3153  0.1327
  161SAPE  C21417979   4.617   2.710   4.447 -0.1647 -0.5559  0.4728
  161SAPE  H14R17980   4.702   2.651   4.409  0.1979  0.4413 -0.3251
  161SAPE  C21517981   4.597   2.712   4.576  0.6349 -0.5577 -0.5816
  161SAPE  H15R17982   4.668   2.669   4.648 -0.0434  0.9254  1.0547
  161SAPE  C21617983   4.478   2.779   4.642  0.0160  0.0669  0.4274
  161SAPE  H16R17984   4.407   2.708   4.690  1.7545 -1.1010  1.3687
  161SAPE  H16S17985   4.421   2.835   4.565 -2.2325 -1.5998  0.7902
  161SAPE  C21717986   4.525   2.880   4.747 -0.2393 -0.5444 -0.1644
  161SAPE  H17R17987   4.616   2.940   4.727 -0.4534  0.1687  0.8870
  161SAPE  H17S17988   4.558   2.826   4.839  0.5170  1.8297  1.0460
  161SAPE  C21817989   4.415   2.983   4.793  0.1275 -0.6906 -0.0308
  161SAPE  H18R17990   4.446   3.034   4.887 -1.5919  1.3994 -0.5027
  161SAPE  H18S17991   4.318   2.929   4.802 -0.5327 -0.1010 -2.5712
  161SAPE  C21917992   4.400   3.097   4.690  0.1608  0.3318 -0.1130
  161SAPE  H19R17993   4.346   3.075   4.595 -0.2703  0.7140  0.0426
  161SAPE  H19S17994   4.500   3.118   4.647 -0.1406 -2.7674 -2.7560
  161SAPE  C22017995   4.348   3.226   4.751  0.1490 -0.0553 -0.4663
  161SAPE  H20R17996   4.261   3.195   4.813 -0.0724 -1.6546 -1.5145
  161SAPE  H20S17997   4.315   3.300   4.676 -3.8174  1.4180  2.3909
  161SAPE  H20T17998   4.433   3.269   4.808  0.8023  0.7523 -2.0026
  161SAPE   C3317999   4.989   3.337   3.436 -0.4662 -0.2882  0.0879
  161SAPE   H3X18000   5.049   3.400   3.368 -0.4045 -0.3556  0.0798
  161SAPE   H3Y18001   5.043   3.241   3.452  0.7313  0.4682  0.7629
  161SAPE   C3418002   4.991   3.415   3.574  0.5398 -0.0465 -0.2786
  161SAPE   H4X18003   4.945   3.515   3.557 -1.0436  0.0104  3.4312
  161SAPE   H4Y18004   5.091   3.425   3.623 -0.4919 -0.5912  2.0522
  161SAPE   C3518005   4.907   3.346   3.684  0.0020  0.2936  0.1755
  161SAPE   H5X18006   4.957   3.258   3.730  1.3189  0.7947 -0.2407
  161SAPE   H5Y18007   4.812   3.308   3.641 -0.1665 -1.1051  1.6515
  161SAPE   C3618008   4.860   3.444   3.790 -0.0846 -0.6066  0.6845
  161SAPE   H6X18009   4.815   3.523   3.725  1.1782  0.7441  1.3788
  161SAPE   H6Y18010   4.950   3.493   3.835  0.1845  1.5325 -1.9375
  161SAPE   C3718011   4.766   3.388   3.892  0.0174  0.2578 -0.2035
  161SAPE   H7X18012   4.829   3.316   3.949  0.8445 -0.2114 -1.6675
  161SAPE   H7Y18013   4.684   3.335   3.839 -2.1192  1.4389  1.7192
  161SAPE   C3818014   4.707   3.493   3.983  0.1383  0.0748 -0.2726
  161SAPE   H8X18015   4.652   3.571   3.925 -0.4907  1.0510  1.5622
  161SAPE   H8Y18016   4.788   3.544   4.040 -0.9451 -0.6258  1.9917
  161SAPE   C3918017   4.609   3.432   4.081 -0.2107  0.4377 -1.0084
  161SAPE   H9X18018   4.667   3.340   4.104 -0.4048  0.2957 -1.0790
  161SAPE   H9Y18019   4.509   3.409   4.038 -0.1424  1.5284 -1.7713
  161SAPE  C31018020   4.589   3.520   4.209 -0.5087  0.2063  0.8032
  161SAPE  H10X18021   4.548   3.617   4.174  2.1162  0.7078 -1.1789
  161SAPE  H10Y18022   4.693   3.537   4.244 -0.0613  0.7935 -0.7716
  161SAPE  C31118023   4.517   3.463   4.334  0.1609 -0.0520  0.1228
  161SAPE  H11X18024   4.572   3.376   4.376  1.2997  1.3287  1.6546
  161SAPE  H11Y18025   4.414   3.431   4.309 -0.6831  1.0475  1.9544
  161SAPE  C31218026   4.494   3.569   4.438 -0.2614 -0.3507 -0.4752
  161SAPE  H12X18027   4.433   3.534   4.524 -0.2033  1.2258  0.2352
  161SAPE  H12Y18028   4.439   3.657   4.398  0.1882  0.1725  0.0399
  161SAPE  C31318029   4.627   3.618   4.500 -0.3849  0.6834 -0.1941
  161SAPE  H13X18030   4.678   3.682   4.425 -2.1592  0.5619 -1.5718
  161SAPE  H13Y18031   4.684   3.525   4.519 -0.1236  1.2167  1.9395
  161SAPE  C31418032   4.612   3.693   4.633  0.5312 -0.1929  0.2061
  161SAPE  H14X18033   4.535   3.638   4.691  0.9114  0.4000  1.3000
  161SAPE  H14Y18034   4.562   3.791   4.611  0.1254 -0.6534 -1.0124
  161SAPE  C31518035   4.737   3.700   4.712  0.3694  0.6836 -0.2602
  161SAPE  H15X18036   4.774   3.597   4.729  0.8642  0.8688 -0.2229
  161SAPE  H15Y18037   4.717   3.747   4.810  0.1273  2.9297 -1.3147
  161SAPE  C31618038   4.845   3.783   4.630 -0.1512 -0.3233 -1.0599
  161SAPE  H16X18039   4.791   3.879   4.617 -1.0179 -0.5574  0.4974
  161SAPE  H16Y18040   4.868   3.740   4.530  0.8548  0.5686 -1.2233
  161SAPE  C31718041   4.975   3.798   4.705  0.3933 -0.1224 -1.3904
  161SAPE  H17X18042   5.064   3.767   4.645  2.5054  0.3536  1.2672
  161SAPE  H17Y18043   4.959   3.719   4.782 -3.4441  2.0386  0.3152
  161SAPE  C31818044   4.997   3.937   4.767  0.5163 -0.0400  0.4361
  161SAPE  H18X18045   5.099   3.936   4.811  1.0307 -0.9222 -0.7241
  161SAPE  H18Y18046   4.922   3.969   4.842 -0.1449  0.4146 -0.4064
  161SAPE  H18Z18047   4.995   4.006   4.680  0.5645 -0.6086 -0.0198
  162SAPE     N18048   6.764   5.594   1.761 -0.3649 -0.2602 -0.2446
  162SAPE   HN118049   6.663   5.583   1.740 -0.9190  1.8849  0.9616
  162SAPE   HN218050   6.777   5.587   1.864 -0.0377  0.9571 -0.1890
  162SAPE   HN318051   6.789   5.691   1.732 -0.5292  0.4077  1.6913
  162SAPE   C1218052   6.849   5.499   1.688  0.3143 -0.2179 -0.3590
  162SAPE  H12A18053   6.954   5.503   1.723 -0.1169  3.2087  0.8753
  162SAPE  H12B18054   6.846   5.524   1.580  4.1820 -1.1641 -0.8547
  162SAPE   C1118055   6.796   5.359   1.724  0.3381 -0.3324 -0.0824
  162SAPE  H11A18056   6.862   5.284   1.675  1.4884 -0.3860  1.4568
  162SAPE  H11B18057   6.693   5.349   1.684  1.0538 -3.0806 -1.4963
  162SAPE     P18058   6.743   5.198   1.922 -0.2659 -0.2049  0.2303
  162SAPE   O1318059   6.603   5.181   1.878 -0.5809 -0.1380  0.5850
  162SAPE   O1418060   6.835   5.094   1.875  0.3688 -0.0918  0.6776
  162SAPE   O1218061   6.802   5.338   1.871 -0.2809  0.5082  0.4778
  162SAPE   O1118062   6.751   5.202   2.084 -0.4443  0.1421  0.1485
  162SAPE    C118063   6.867   5.267   2.140 -1.1881 -0.1736 -0.1290
  162SAPE    HA18064   6.956   5.202   2.131 -1.2118 -0.4410  1.2933
  162SAPE    HB18065   6.887   5.364   2.089 -1.3671 -0.3996 -0.6305
  162SAPE    C218066   6.847   5.299   2.292  0.6007 -0.3451  0.1903
  162SAPE    HS18067   6.948   5.338   2.318  1.2787 -2.2067  0.5151
  162SAPE   O2118068   6.825   5.182   2.371  0.2778 -0.5790  0.0442
  162SAPE   C2118069   6.912   5.087   2.373  0.0695  0.9434  0.4716
  162SAPE   O2218070   7.028   5.093   2.329  0.0966 -0.2166  0.0449
  162SAPE   C2218071   6.866   4.965   2.454 -0.0838  0.1488  0.2220
  162SAPE   H2R18072   6.803   4.904   2.386 -1.6757  2.3341 -0.3760
  162SAPE   H2S18073   6.962   4.915   2.477  0.3447  1.4916  1.5156
  162SAPE    C318074   6.739   5.406   2.324 -0.0680 -0.1550 -0.2254
  162SAPE    HX18075   6.642   5.360   2.294  0.2413 -0.3382 -0.9720
  162SAPE    HY18076   6.746   5.491   2.253 -1.8524 -0.7839 -1.2215
  162SAPE   O3118077   6.746   5.457   2.459 -0.4520  0.1200 -0.5796
  162SAPE   C3118078   6.647   5.408   2.535 -0.1336 -0.2681 -0.0050
  162SAPE   O3218079   6.567   5.321   2.503  0.3512 -0.2471 -0.1595
  162SAPE   C3218080   6.649   5.478   2.667  0.3170  0.7057  0.1478
  162SAPE   H2X18081   6.598   5.576   2.667  0.8205  0.9845  0.8952
  162SAPE   H2Y18082   6.756   5.501   2.687  0.7724 -0.5317 -0.7711
  162SAPE   C2318083   6.788   4.994   2.582 -0.0561 -0.3091 -0.7321
  162SAPE   H3R18084   6.716   5.079   2.577  0.8742  1.1929  4.6141
  162SAPE   H3S18085   6.861   5.046   2.648  1.3062 -0.6025 -1.9429
  162SAPE   C2418086   6.716   4.871   2.637  0.1278 -0.5345 -0.2237
  162SAPE   H4R18087   6.637   4.845   2.564  0.9066 -3.6633 -0.1015
  162SAPE   H4S18088   6.661   4.912   2.725  0.5807 -0.3915 -0.0019
  162SAPE   C2518089   6.818   4.761   2.667  0.2935 -0.4177 -0.2176
  162SAPE   H5R18090   6.862   4.710   2.580  1.0393  0.6489 -0.4916
  162SAPE   C2618091   6.871   4.728   2.788  0.3789  0.1632  0.6485
  162SAPE   H6R18092   6.932   4.637   2.800 -1.1883 -0.8592  1.0999
  162SAPE   C2718093   6.830   4.794   2.921  0.6882  0.6553  0.4772
  162SAPE   H7R18094   6.867   4.719   2.995  2.2026 -0.2857 -1.1739
  162SAPE   H7S18095   6.719   4.796   2.931  0.7507 -0.7663  2.1135
  162SAPE   C2818096   6.870   4.937   2.944 -0.1769 -0.4494  0.3100
  162SAPE   H8R18097   6.880   4.989   2.847  2.3661 -2.8371 -0.8425
  162SAPE   C2918098   6.864   5.012   3.061  0.4716  0.3619  0.5618
  162SAPE   H9R18099   6.899   5.116   3.055  2.1547 -0.2452 -0.9506
  162SAPE  C21018100   6.849   4.947   3.197 -0.1727  0.5222  0.1918
  162SAPE  H10R18101   6.906   4.852   3.208  1.7707  1.8076  2.1386
  162SAPE  H10S18102   6.741   4.931   3.218  0.3883 -3.2039  0.9902
  162SAPE  C21118103   6.901   5.040   3.305  0.2021 -0.0117 -0.0180
  162SAPE  H11R18104   6.891   5.146   3.280 -0.3819  0.3280  1.5136
  162SAPE  C21218105   6.949   5.001   3.428 -0.4604  0.3759  0.0011
  162SAPE  H12R18106   6.967   5.091   3.490 -0.5879  0.7510 -0.5009
  162SAPE  C21318107   6.964   4.859   3.480 -0.9236 -0.0492 -0.2840
  162SAPE  H13R18108   7.036   4.804   3.417  0.4027  0.7615  0.4696
  162SAPE  H13S18109   6.867   4.805   3.483 -2.0155  1.8065 -0.7034
  162SAPE  C21418110   7.029   4.857   3.619 -0.1484  0.8785  0.3304
  162SAPE  H14R18111   7.131   4.815   3.620 -1.0465 -1.6006 -1.6477
  162SAPE  C21518112   6.984   4.915   3.733 -0.3094 -0.0107 -0.0306
  162SAPE  H15R18113   7.049   4.906   3.821 -0.3544  1.6932  0.2186
  162SAPE  C21618114   6.854   4.982   3.759  0.5230 -0.3555  0.5576
  162SAPE  H16R18115   6.788   4.909   3.810  0.2281  1.1923  2.4798
  162SAPE  H16S18116   6.817   5.033   3.668  0.3292 -1.2716  0.1094
  162SAPE  C21718117   6.881   5.095   3.866 -0.6957 -0.1370 -0.6261
  162SAPE  H17R18118   6.798   5.168   3.854 -1.2310 -0.5705  0.3581
  162SAPE  H17S18119   6.976   5.149   3.845 -1.5298  1.4453 -0.5285
  162SAPE  C21818120   6.889   5.034   4.005  1.0139 -0.3008  0.4873
  162SAPE  H18R18121   6.986   4.982   4.020  0.2068 -1.8554  0.5641
  162SAPE  H18S18122   6.813   4.953   4.001  1.9723 -1.1703 -1.0660
  162SAPE  C21918123   6.850   5.123   4.123 -0.0867  0.6171 -0.0270
  162SAPE  H19R18124   6.826   5.063   4.214 -1.1244 -0.0359 -0.7177
  162SAPE  H19S18125   6.764   5.189   4.096 -0.1825 -0.6284 -3.1713
  162SAPE  C22018126   6.965   5.213   4.165 -0.0904  0.5403 -0.2143
  162SAPE  H20R18127   6.990   5.308   4.113  0.1130  1.5174  1.5698
  162SAPE  H20S18128   7.055   5.154   4.193  0.5674  2.5748  2.4196
  162SAPE  H20T18129   6.950   5.265   4.263  2.1303 -0.2541  0.6160
  162SAPE   C3318130   6.601   5.381   2.786 -0.4022 -0.4888 -0.1326
  162SAPE   H3X18131   6.641   5.280   2.762 -0.4957 -0.9515  1.5151
  162SAPE   H3Y18132   6.490   5.376   2.784 -0.4027 -0.2990 -1.1864
  162SAPE   C3418133   6.651   5.410   2.925 -0.2339  0.0380 -0.4721
  162SAPE   H4X18134   6.760   5.430   2.917 -0.0237 -1.1399 -0.6720
  162SAPE   H4Y18135   6.635   5.328   2.997 -1.5804  0.4140 -0.3207
  162SAPE   C3518136   6.589   5.543   2.988  0.4934 -0.3145  0.0950
  162SAPE   H5X18137   6.490   5.524   3.034  0.1128  1.1738 -0.0597
  162SAPE   H5Y18138   6.557   5.604   2.901  1.8384 -1.1353 -1.0126
  162SAPE   C3618139   6.687   5.614   3.080 -0.5543 -0.7231 -0.4066
  162SAPE   H6X18140   6.658   5.720   3.093 -0.6700 -0.9756  1.6940
  162SAPE   H6Y18141   6.793   5.607   3.049 -0.8517  2.7794 -2.7426
  162SAPE   C3718142   6.693   5.568   3.230 -0.4551  0.3645 -0.2415
  162SAPE   H7X18143   6.702   5.458   3.222  1.3460  0.5209 -0.7832
  162SAPE   H7Y18144   6.600   5.586   3.288  0.1398  0.7764  0.5953
  162SAPE   C3818145   6.808   5.628   3.302  0.0300 -0.2845 -0.3278
  162SAPE   H8X18146   6.813   5.737   3.279  0.0374 -0.4153 -0.9566
  162SAPE   H8Y18147   6.909   5.593   3.272 -0.2759 -0.1411 -1.5795
  162SAPE   C3918148   6.794   5.604   3.450 -0.1095 -0.6322 -0.5717
  162SAPE   H9X18149   6.775   5.497   3.471 -0.1484 -0.1891  1.9895
  162SAPE   H9Y18150   6.702   5.653   3.489  1.8927  2.9502  0.1857
  162SAPE  C31018151   6.911   5.663   3.535 -0.6565  0.4488 -0.5026
  162SAPE  H10X18152   6.934   5.771   3.529 -1.0505  0.4905 -1.3995
  162SAPE  H10Y18153   7.005   5.611   3.509  0.5993  1.1273  2.2798
  162SAPE  C31118154   6.897   5.628   3.687 -0.8481  0.2826 -0.5639
  162SAPE  H11X18155   6.914   5.518   3.686  1.1348  0.5486 -0.3189
  162SAPE  H11Y18156   6.801   5.662   3.731 -0.2144  1.9178 -0.3876
  162SAPE  C31218157   7.009   5.685   3.771 -0.2992  0.2971 -0.4974
  162SAPE  H12X18158   6.993   5.790   3.805  3.2894  1.0446 -0.7300
  162SAPE  H12Y18159   7.100   5.688   3.708  1.3706  1.7980  1.8372
  162SAPE  C31318160   7.035   5.601   3.898  0.4613  0.1252  0.4915
  162SAPE  H13X18161   7.134   5.624   3.943  1.4005 -1.9385 -0.4228
  162SAPE  H13Y18162   7.028   5.495   3.868  0.3824  0.7022 -1.7402
  162SAPE  C31418163   6.941   5.638   4.017 -0.1016  0.7689  0.8596
  162SAPE  H14X18164   6.975   5.572   4.100 -1.9495 -2.5371 -0.8118
  162SAPE  H14Y18165   6.834   5.623   3.991 -0.3572  1.5696  1.4299
  162SAPE  C31518166   6.953   5.783   4.059  0.2071  0.3981  0.7584
  162SAPE  H15X18167   6.928   5.848   3.972  2.1361  0.1902 -0.0043
  162SAPE  H15Y18168   7.060   5.810   4.072  0.7306  1.7729 -4.1742
  162SAPE  C31618169   6.871   5.821   4.186 -0.7846 -0.6213  0.3569
  162SAPE  H16X18170   6.916   5.776   4.277 -1.9635  0.6789  1.6375
  162SAPE  H16Y18171   6.765   5.787   4.187 -0.3322 -2.1418 -0.4018
  162SAPE  C31718172   6.879   5.971   4.212  0.5443 -0.2503  0.0279
  162SAPE  H17X18173   6.862   6.027   4.118  0.1020  0.9722  0.8121
  162SAPE  H17Y18174   6.982   5.990   4.248 -0.5852  2.9500  1.9845
  162SAPE  C31818175   6.782   6.017   4.324 -0.0960  0.3191 -0.2806
  162SAPE  H18X18176   6.673   5.996   4.321 -0.3038  1.2034 -3.6382
  162SAPE  H18Y18177   6.783   6.128   4.323  0.2696  0.3209 -1.2984
  162SAPE  H18Z18178   6.821   5.987   4.424 -1.4254  2.0668  0.8198
  163SAPE     N18179   5.468   4.642   2.139 -0.2121  0.2229  0.6550
  163SAPE   HN118180   5.405   4.631   2.057  0.1745  0.2964  0.3494
  163SAPE   HN218181   5.536   4.718   2.120 -1.1159  0.6186 -1.2232
  163SAPE   HN318182   5.508   4.546   2.139 -0.4930  0.1038  0.6437
  163SAPE   C1218183   5.392   4.668   2.259  0.3615  0.0269  0.7712
  163SAPE  H12A18184   5.345   4.768   2.265  0.8815  0.2001  2.9222
  163SAPE  H12B18185   5.460   4.665   2.347  0.7785  1.3597  0.5117
  163SAPE   C1118186   5.293   4.554   2.281 -0.3636 -0.6668 -0.3065
  163SAPE  H11A18187   5.226   4.580   2.365 -1.7154  1.6243 -1.9710
  163SAPE  H11B18188   5.360   4.468   2.303 -0.0746 -0.2452  0.5017
  163SAPE     P18189   5.083   4.591   2.142  0.1204  0.1165 -0.0733
  163SAPE   O1318190   5.063   4.711   2.226 -0.7368  0.4448  0.3099
  163SAPE   O1418191   5.051   4.606   2.002 -0.0297  0.3158 -0.0047
  163SAPE   O1218192   5.226   4.528   2.156 -0.3851 -0.2862 -0.9078
  163SAPE   O1118193   4.996   4.467   2.192 -0.0260  0.5205  0.6931
  163SAPE    C118194   4.893   4.483   2.287  0.2189  0.0729  0.7124
  163SAPE    HA18195   4.844   4.581   2.305 -2.5192 -1.0659 -0.0575
  163SAPE    HB18196   4.806   4.420   2.258  1.4736 -2.4830  2.1470
  163SAPE    C218197   4.943   4.419   2.426 -0.7879 -0.2845  0.0418
  163SAPE    HS18198   4.850   4.384   2.476 -0.8088 -1.5559 -0.8525
  163SAPE   O2118199   5.020   4.510   2.507 -0.4549  0.1655 -0.3453
  163SAPE   C2118200   4.953   4.596   2.585  0.7879  0.0720  0.4291
  163SAPE   O2218201   4.831   4.614   2.586 -0.0242  0.5925  0.2099
  163SAPE   C2218202   5.054   4.672   2.671 -0.2436  0.6722  0.3437
  163SAPE   H2R18203   5.148   4.615   2.686  1.1477  2.9136  0.5714
  163SAPE   H2S18204   5.085   4.760   2.611 -3.2464  1.5074 -0.1644
  163SAPE    C318205   5.024   4.284   2.407  0.4205 -0.8943  0.1692
  163SAPE    HX18206   5.120   4.310   2.358 -1.1145 -0.9977 -3.1593
  163SAPE    HY18207   4.989   4.214   2.328 -1.8383  2.1495 -1.7186
  163SAPE   O3118208   5.032   4.209   2.523  0.5105 -0.2928 -0.6209
  163SAPE   C3118209   5.153   4.213   2.583 -0.0403  0.4305  0.1778
  163SAPE   O3218210   5.262   4.226   2.523 -0.6124 -0.5684 -0.4142
  163SAPE   C3218211   5.134   4.211   2.740  0.0261  1.0520  0.1866
  163SAPE   H2X18212   5.098   4.110   2.772  1.9767  1.0377  2.6952
  163SAPE   H2Y18213   5.056   4.285   2.766  0.0948  0.3427  2.6574
  163SAPE   C2318214   4.987   4.715   2.799  0.0324  0.4509 -0.0048
  163SAPE   H3R18215   4.891   4.769   2.787 -0.5261  0.7614  4.4507
  163SAPE   H3S18216   5.049   4.801   2.833  3.2599 -1.7416  0.1518
  163SAPE   C2418217   4.967   4.608   2.910  0.1803  0.2398 -0.7988
  163SAPE   H4R18218   4.932   4.515   2.859  1.2277 -0.6845  0.1039
  163SAPE   H4S18219   4.893   4.640   2.986 -0.2595 -1.0544 -0.6433
  163SAPE   C2518220   5.109   4.571   2.955 -0.2097  0.2024 -0.0352
  163SAPE   H5R18221   5.163   4.497   2.894  1.6904  0.3737  1.3362
  163SAPE   C2618222   5.177   4.612   3.063  0.1793  0.9515 -0.0842
  163SAPE   H6R18223   5.279   4.574   3.078  0.6459  2.5292  1.0578
  163SAPE   C2718224   5.129   4.700   3.173  0.5538  0.1844 -0.2386
  163SAPE   H7R18225   5.182   4.679   3.269 -0.9698  1.2363  0.8870
  163SAPE   H7S18226   5.019   4.691   3.185  0.5640  0.2140 -0.1224
  163SAPE   C2818227   5.160   4.848   3.154 -0.0237 -0.1995 -0.3600
  163SAPE   H8R18228   5.123   4.892   3.061 -0.7298  2.0620  0.9111
  163SAPE   C2918229   5.219   4.935   3.242  0.8543  0.0893  0.8541
  163SAPE   H9R18230   5.229   5.038   3.204 -0.4257 -0.2377 -0.4379
  163SAPE  C21018231   5.271   4.894   3.381 -0.0775  0.4771 -0.0505
  163SAPE  H10R18232   5.309   4.985   3.432  1.9890 -0.1018 -0.4360
  163SAPE  H10S18233   5.357   4.826   3.362 -0.9213 -1.2416  1.9750
  163SAPE  C21118234   5.176   4.832   3.478 -0.5834  0.2525 -0.3457
  163SAPE  H11R18235   5.074   4.805   3.445 -0.8999 -2.7730  2.5478
  163SAPE  C21218236   5.213   4.800   3.601 -0.5637  0.3110  0.4872
  163SAPE  H12R18237   5.151   4.733   3.662 -0.5858  0.4080  0.5713
  163SAPE  C21318238   5.349   4.821   3.660  0.0337 -0.0188 -0.2859
  163SAPE  H13R18239   5.347   4.883   3.753 -1.6533  1.0820 -1.0112
  163SAPE  H13S18240   5.420   4.876   3.596  0.4604 -1.1134 -0.7704
  163SAPE  C21418241   5.407   4.685   3.698 -0.0904  0.4904 -0.5810
  163SAPE  H14R18242   5.498   4.669   3.639 -0.0655  1.1501 -0.7307
  163SAPE  C21518243   5.365   4.594   3.789  0.3003 -0.2597 -0.0014
  163SAPE  H15R18244   5.418   4.498   3.791 -1.8818 -1.5366 -0.2224
  163SAPE  C21618245   5.246   4.608   3.885  0.0660 -0.5144  0.4707
  163SAPE  H16R18246   5.152   4.582   3.831  0.2783 -0.4821  0.0794
  163SAPE  H16S18247   5.237   4.717   3.905  3.3881  0.3251 -1.8859
  163SAPE  C21718248   5.271   4.527   4.004 -0.0718  0.4831  0.0193
  163SAPE  H17R18249   5.298   4.421   3.981  0.0551  0.1124  1.6749
  163SAPE  H17S18250   5.190   4.526   4.081 -0.4898  1.4536 -0.3990
  163SAPE  C21818251   5.393   4.576   4.092 -0.2371  0.5019 -0.0913
  163SAPE  H18R18252   5.380   4.683   4.119  0.3306  0.6585 -0.4206
  163SAPE  H18S18253   5.480   4.573   4.024  0.3673  0.9088  0.6471
  163SAPE  C21918254   5.438   4.488   4.209 -0.2525 -0.6839 -1.0981
  163SAPE  H19R18255   5.449   4.382   4.180 -1.7292 -1.7151  1.7945
  163SAPE  H19S18256   5.359   4.494   4.286  0.3110 -2.8162 -0.3039
  163SAPE  C22018257   5.571   4.540   4.273  0.6463 -0.4802  0.6321
  163SAPE  H20R18258   5.648   4.539   4.192 -0.7786  0.3584 -0.8007
  163SAPE  H20S18259   5.597   4.475   4.359  0.7181  0.3046  1.2156
  163SAPE  H20T18260   5.552   4.643   4.310 -0.3641 -0.0437 -0.9616
  163SAPE   C3318261   5.271   4.221   2.812  1.1649  0.0628 -0.7670
  163SAPE   H3X18262   5.297   4.328   2.826  1.3279 -0.1878  1.1869
  163SAPE   H3Y18263   5.349   4.170   2.751  1.1509  0.1788 -0.8824
  163SAPE   C3418264   5.255   4.148   2.947 -0.1947 -0.0776 -0.4236
  163SAPE   H4X18265   5.253   4.038   2.930 -1.5819 -0.2274  0.5414
  163SAPE   H4Y18266   5.163   4.191   2.991 -2.8069 -1.6988 -3.7833
  163SAPE   C3518267   5.383   4.190   3.026  0.1527  0.6925  0.3449
  163SAPE   H5X18268   5.390   4.301   3.027 -0.9172  0.7677  1.8270
  163SAPE   H5Y18269   5.470   4.147   2.972 -0.2813  0.9230 -0.5532
  163SAPE   C3618270   5.383   4.156   3.177  0.5436  0.5707 -0.0809
  163SAPE   H6X18271   5.381   4.046   3.193  1.6280  0.5269 -0.1909
  163SAPE   H6Y18272   5.282   4.184   3.214 -0.0022  1.2553 -1.9716
  163SAPE   C3718273   5.497   4.205   3.268  0.3922 -0.3984 -0.0264
  163SAPE   H7X18274   5.497   4.315   3.254 -0.5493 -0.4635 -0.6145
  163SAPE   H7Y18275   5.593   4.170   3.222 -0.8577 -1.8571 -1.6663
  163SAPE   C3818276   5.496   4.175   3.413  0.3064  0.1426  0.0010
  163SAPE   H8X18277   5.576   4.238   3.458 -0.5130  1.3781 -0.2449
  163SAPE   H8Y18278   5.509   4.067   3.436 -1.6011 -0.5687 -1.9268
  163SAPE   C3918279   5.363   4.220   3.475  0.2457 -0.9177  0.1019
  163SAPE   H9X18280   5.290   4.136   3.478  0.0584 -0.8355 -1.3026
  163SAPE   H9Y18281   5.306   4.296   3.418  1.2953  0.1341  0.4255
  163SAPE  C31018282   5.372   4.258   3.616  0.2714 -0.2126 -0.2079
  163SAPE  H10X18283   5.277   4.309   3.645  0.5690  0.1533  0.1312
  163SAPE  H10Y18284   5.448   4.339   3.609 -2.8983  2.8777 -2.8751
  163SAPE  C31118285   5.411   4.131   3.700  0.4410 -0.4140 -0.1253
  163SAPE  H11X18286   5.507   4.091   3.663 -0.4843 -0.2483 -2.9484
  163SAPE  H11Y18287   5.336   4.058   3.663 -0.9081  1.3742 -1.0762
  163SAPE  C31218288   5.417   4.157   3.855 -0.0517 -0.6271  1.1212
  163SAPE  H12X18289   5.425   4.057   3.904 -1.3020 -2.3191 -1.8379
  163SAPE  H12Y18290   5.321   4.207   3.879 -1.4282 -1.3502 -2.2676
  163SAPE  C31318291   5.530   4.252   3.889 -0.3956  0.2514 -0.0807
  163SAPE  H13X18292   5.496   4.316   3.972 -0.2565  1.1738 -0.7187
  163SAPE  H13Y18293   5.554   4.313   3.799  1.6825 -0.7818 -0.2819
  163SAPE  C31418294   5.663   4.181   3.932  0.2915 -0.2589  0.4835
  163SAPE  H14X18295   5.758   4.240   3.934 -0.6124  1.2707  0.3636
  163SAPE  H14Y18296   5.677   4.097   3.860 -0.2242 -0.9778  1.2123
  163SAPE  C31518297   5.654   4.122   4.072 -0.6890 -0.1880  0.0311
  163SAPE  H15X18298   5.545   4.109   4.091 -0.4200 -0.3150  1.6751
  163SAPE  H15Y18299   5.682   4.192   4.154 -0.7588  1.1553 -1.0609
  163SAPE  C31618300   5.744   4.000   4.093 -0.6333  0.1629  0.4483
  163SAPE  H16X18301   5.827   4.017   4.020  0.4280 -4.1705  0.3876
  163SAPE  H16Y18302   5.697   3.912   4.045 -0.9473  0.8388 -0.5352
  163SAPE  C31718303   5.810   3.993   4.234  0.0758 -0.6254  0.0426
  163SAPE  H17X18304   5.720   3.996   4.300 -0.7845 -1.2619 -1.0611
  163SAPE  H17Y18305   5.864   4.090   4.240 -1.8484  0.6668 -1.9326
  163SAPE  C31818306   5.892   3.876   4.258  0.9195 -0.5915 -0.5361
  163SAPE  H18X18307   5.835   3.780   4.254  1.1583 -0.6963 -2.2833
  163SAPE  H18Y18308   5.940   3.876   4.358 -2.1537 -1.2549  1.0637
  163SAPE  H18Z18309   5.978   3.861   4.189  0.5695 -1.5024 -0.7957
  164SAPE     N18310   2.657   3.242   1.835 -0.6891 -0.1098 -0.6520
  164SAPE   HN118311   2.682   3.181   1.755  0.2420 -1.9222  0.9526
  164SAPE   HN218312   2.713   3.203   1.913 -0.2326 -0.7603 -1.2949
  164SAPE   HN318313   2.556   3.239   1.861 -0.2700  2.6468  1.8322
  164SAPE   C1218314   2.690   3.385   1.824 -0.0487  0.5132 -0.2116
  164SAPE  H12A18315   2.709   3.416   1.719  0.1737  2.1655  0.2933
  164SAPE  H12B18316   2.774   3.415   1.890 -0.4872 -0.3546  0.7562
  164SAPE   C1118317   2.567   3.471   1.868  0.4741  0.4070  0.0588
  164SAPE  H11A18318   2.494   3.466   1.784  1.5618 -0.0656 -0.8847
  164SAPE  H11B18319   2.603   3.577   1.868 -1.2283  1.0220  0.0505
  164SAPE     P18320   2.397   3.341   2.028 -0.1680 -0.3310  0.7574
  164SAPE   O1318321   2.269   3.416   2.025 -0.2648  0.1264  0.3586
  164SAPE   O1418322   2.406   3.238   1.922 -0.2032 -0.0206 -0.0484
  164SAPE   O1218323   2.518   3.443   2.000  0.1557 -0.2571  0.3965
  164SAPE   O1118324   2.424   3.284   2.172  0.1366  0.2562 -0.2286
  164SAPE    C118325   2.420   3.375   2.283 -0.5405  1.0799  0.4250
  164SAPE    HA18326   2.525   3.400   2.310 -0.4306  1.6343 -0.4615
  164SAPE    HB18327   2.362   3.467   2.259 -0.2890  0.9000 -0.9361
  164SAPE    C218328   2.341   3.319   2.401 -0.2420  0.3902 -0.4406
  164SAPE    HS18329   2.365   3.379   2.491  1.9640 -1.5780  0.3871
  164SAPE   O2118330   2.398   3.182   2.430  0.1190  0.3572  0.4020
  164SAPE   C2118331   2.511   3.180   2.497 -0.5229  0.0248 -0.5304
  164SAPE   O2218332   2.577   3.269   2.546  0.0829  0.2643 -0.5700
  164SAPE   C2218333   2.560   3.040   2.493  0.0136  0.5415 -0.2619
  164SAPE   H2R18334   2.522   2.979   2.408 -0.4476  1.1616 -0.5085
  164SAPE   H2S18335   2.665   3.053   2.459  0.4091 -1.0105  0.2911
  164SAPE    C318336   2.188   3.301   2.380 -0.4393  0.1654  0.4109
  164SAPE    HX18337   2.193   3.251   2.281 -0.7994  1.9582 -0.5656
  164SAPE    HY18338   2.138   3.398   2.358  0.5946  0.1158 -2.5989
  164SAPE   O3118339   2.128   3.236   2.492 -0.4033 -0.0830 -0.2476
  164SAPE   C3118340   2.093   3.114   2.465 -0.0705  0.7335 -0.0902
  164SAPE   O3218341   2.108   3.048   2.363  0.0149 -0.5431  0.1443
  164SAPE   C3218342   2.015   3.067   2.591  0.0265 -0.9667  0.1531
  164SAPE   H2X18343   1.911   3.064   2.553 -1.3958 -2.0591  3.7325
  164SAPE   H2Y18344   2.015   3.147   2.667 -1.4088 -0.8935  0.0899
  164SAPE   C2318345   2.565   2.963   2.623 -0.4184  0.3841  0.2532
  164SAPE   H3R18346   2.634   3.009   2.697 -0.3122 -0.9510  1.0294
  164SAPE   H3S18347   2.608   2.862   2.604  0.3924  0.3919  1.8337
  164SAPE   C2418348   2.427   2.930   2.686  0.0233  0.4732  0.0051
  164SAPE   H4R18349   2.376   2.877   2.603  1.4991  1.9818 -1.9718
  164SAPE   H4S18350   2.367   3.024   2.690  1.0443  1.1294  0.3182
  164SAPE   C2518351   2.437   2.856   2.814 -0.5511 -1.1434 -0.7843
  164SAPE   H5R18352   2.468   2.752   2.798  0.0860 -1.0466 -0.2667
  164SAPE   C2618353   2.414   2.902   2.940  0.5152  0.0112 -0.0488
  164SAPE   H6R18354   2.428   2.831   3.023  0.1154  1.7158  1.5378
  164SAPE   C2718355   2.372   3.042   2.978 -0.3365  0.9415  0.3860
  164SAPE   H7R18356   2.407   3.115   2.902 -1.7243  0.6559 -0.5672
  164SAPE   H7S18357   2.406   3.068   3.080 -2.5445  1.9467  0.9099
  164SAPE   C2818358   2.224   3.058   2.976  0.3746  0.1473  0.2631
  164SAPE   H8R18359   2.179   3.084   2.879 -1.8656  0.1095  1.2303
  164SAPE   C2918360   2.137   3.044   3.075  0.2321  0.5143 -0.0288
  164SAPE   H9R18361   2.031   3.071   3.059 -0.0216 -0.0172  0.7291
  164SAPE  C21018362   2.165   2.995   3.217  0.1442 -0.7437  0.0633
  164SAPE  H10R18363   2.165   3.090   3.276 -0.3172 -0.3668 -0.5337
  164SAPE  H10S18364   2.265   2.946   3.214  1.6356  1.9468 -4.1573
  164SAPE  C21118365   2.058   2.903   3.264  0.4173  0.1206 -0.0422
  164SAPE  H11R18366   2.006   2.843   3.189  1.3316 -2.6756  1.4040
  164SAPE  C21218367   2.026   2.867   3.389  0.1594  0.2462  0.5880
  164SAPE  H12R18368   1.950   2.791   3.409 -0.5074  0.9557  0.8096
  164SAPE  C21318369   2.088   2.923   3.513  0.4467 -0.1744 -0.0557
  164SAPE  H13R18370   2.065   3.029   3.536  0.0698  0.1779 -1.8568
  164SAPE  H13S18371   2.198   2.903   3.513  0.7263  1.1657  1.3653
  164SAPE  C21418372   2.029   2.855   3.631 -0.6073  0.2818  0.3145
  164SAPE  H14R18373   1.929   2.814   3.611 -0.6400  0.3893  0.2591
  164SAPE  C21518374   2.084   2.846   3.750 -0.1120 -0.3457 -0.9646
  164SAPE  H15R18375   2.027   2.789   3.825  1.3419 -0.6228 -0.0406
  164SAPE  C21618376   2.219   2.905   3.791  0.4908 -0.2410 -0.0963
  164SAPE  H16R18377   2.259   2.961   3.704 -0.8955 -2.9285 -2.6234
  164SAPE  H16S18378   2.278   2.811   3.804 -0.5794 -0.7882  1.1742
  164SAPE  C21718379   2.214   2.995   3.917 -0.4021  0.2390  0.1459
  164SAPE  H17R18380   2.132   3.071   3.916 -0.3802  0.2670  0.4892
  164SAPE  H17S18381   2.307   3.054   3.930 -0.3009  0.7948 -2.4077
  164SAPE  C21818382   2.164   2.916   4.043  0.0934 -0.2094  0.0575
  164SAPE  H18R18383   2.240   2.837   4.064  0.4231 -0.1172 -0.7264
  164SAPE  H18S18384   2.065   2.874   4.012 -1.8373  3.5740  0.4928
  164SAPE  C21918385   2.165   3.003   4.172  0.2528  0.2137  0.0092
  164SAPE  H19R18386   2.094   3.088   4.160 -1.8009 -1.5374 -0.8888
  164SAPE  H19S18387   2.272   3.025   4.191 -0.1146  2.1710 -0.0036
  164SAPE  C22018388   2.113   2.929   4.295  0.1218 -0.8007  0.4532
  164SAPE  H20R18389   2.166   2.831   4.308  2.2070  0.1099 -0.6522
  164SAPE  H20S18390   2.003   2.920   4.297  0.1309 -0.8384  1.5907
  164SAPE  H20T18391   2.139   2.996   4.380  0.8276 -1.2998  0.6420
  164SAPE   C3318392   2.048   2.929   2.655  0.1424 -0.4241 -0.2484
  164SAPE   H3X18393   2.154   2.934   2.688  0.6924 -0.9534 -1.8362
  164SAPE   H3Y18394   2.056   2.856   2.571 -0.9161 -0.0047 -0.7413
  164SAPE   C3418395   1.960   2.896   2.775 -0.4295 -0.3297 -0.1361
  164SAPE   H4X18396   1.858   2.880   2.733 -0.8972 -1.0082  1.2105
  164SAPE   H4Y18397   1.956   2.976   2.851  1.1015 -1.7430  1.5433
  164SAPE   C3518398   2.011   2.770   2.850 -0.1922 -0.4180 -0.6029
  164SAPE   H5X18399   2.109   2.802   2.891  0.9882  0.0539 -3.5694
  164SAPE   H5Y18400   2.022   2.699   2.765 -3.1281  0.4976 -1.8857
  164SAPE   C3618401   1.907   2.724   2.956 -0.1617 -0.5293 -0.0920
  164SAPE   H6X18402   1.807   2.699   2.917 -1.0645 -0.2708  1.9431
  164SAPE   H6Y18403   1.897   2.819   3.013 -1.9045  0.7660 -2.3891
  164SAPE   C3718404   1.959   2.611   3.037  0.4133  0.3986  0.1070
  164SAPE   H7X18405   2.066   2.629   3.058 -0.0061  2.5712  0.5618
  164SAPE   H7Y18406   1.949   2.514   2.984  1.6472  0.9878 -1.2634
  164SAPE   C3818407   1.885   2.585   3.171 -0.1081 -0.1970  0.0435
  164SAPE   H8X18408   1.779   2.561   3.149  0.2661 -0.2542 -1.8449
  164SAPE   H8Y18409   1.894   2.679   3.230 -1.6592  0.2424 -0.3839
  164SAPE   C3918410   1.953   2.471   3.243  0.9127  0.5163 -0.7263
  164SAPE   H9X18411   2.063   2.480   3.257  0.6494  0.9787  1.2741
  164SAPE   H9Y18412   1.944   2.376   3.186  2.9627  0.1326 -0.4884
  164SAPE  C31018413   1.882   2.453   3.377  0.0375  0.5574  0.1546
  164SAPE  H10X18414   1.778   2.490   3.369  1.0231  3.7401  0.4047
  164SAPE  H10Y18415   1.921   2.536   3.440 -0.4732  1.5888 -0.8506
  164SAPE  C31118416   1.895   2.324   3.450 -0.3131  0.2946 -0.0353
  164SAPE  H11X18417   1.859   2.245   3.381  0.4703 -1.2672  1.2686
  164SAPE  H11Y18418   1.837   2.333   3.545 -0.1341 -1.0772  0.2234
  164SAPE  C31218419   2.047   2.284   3.480  0.6432 -0.4327  0.3021
  164SAPE  H12X18420   2.099   2.264   3.384  1.3597  0.1825  0.5453
  164SAPE  H12Y18421   2.053   2.184   3.528  0.1601  0.3168  2.0412
  164SAPE  C31318422   2.122   2.392   3.560  0.5580  0.1230 -0.2672
  164SAPE  H13X18423   2.060   2.433   3.642 -2.5761  2.2919 -3.4393
  164SAPE  H13Y18424   2.152   2.477   3.496 -1.0393  0.7104 -0.2890
  164SAPE  C31418425   2.256   2.336   3.611  0.4609 -0.4060 -0.2363
  164SAPE  H14X18426   2.300   2.260   3.543  0.1390 -1.1628  0.3949
  164SAPE  H14Y18427   2.233   2.291   3.709  0.5625 -0.3023 -0.1651
  164SAPE  C31518428   2.361   2.442   3.637  0.7690 -1.1198  0.8231
  164SAPE  H15X18429   2.369   2.503   3.545 -1.0839  0.2138  1.4848
  164SAPE  H15Y18430   2.468   2.413   3.648  1.3558  0.4908 -0.2279
  164SAPE  C31618431   2.326   2.530   3.762 -0.1701 -0.0545 -0.3627
  164SAPE  H16X18432   2.215   2.544   3.763 -0.2810 -0.7948  1.4132
  164SAPE  H16Y18433   2.389   2.621   3.773 -0.1258 -0.0402 -0.7352
  164SAPE  C31718434   2.343   2.459   3.904 -0.0279  0.1393  0.0118
  164SAPE  H17X18435   2.449   2.426   3.915 -0.1090  0.1631  1.0098
  164SAPE  H17Y18436   2.273   2.372   3.905 -0.1883  0.2624  1.4198
  164SAPE  C31818437   2.301   2.549   4.023 -0.5165 -0.0454  0.2363
  164SAPE  H18X18438   2.307   2.487   4.115  0.5687  1.7013  1.4037
  164SAPE  H18Y18439   2.195   2.581   4.023 -0.2696  0.8039 -0.4615
  164SAPE  H18Z18440   2.365   2.639   4.034 -1.6132  0.4817  3.7078
  165SAPE     N18441   0.579   4.092   2.045 -0.2431 -0.3958 -0.1884
  165SAPE   HN118442   0.677   4.128   2.037 -0.1913 -0.6588 -0.7635
  165SAPE   HN218443   0.573   4.030   1.962  1.8354  0.9446 -1.4493
  165SAPE   HN318444   0.523   4.177   2.022  0.5649  0.4082  0.7155
  165SAPE   C1218445   0.552   4.037   2.184 -0.3304  0.6299  0.5148
  165SAPE  H12A18446   0.598   3.938   2.202  2.6315  1.9183  0.5946
  165SAPE  H12B18447   0.443   4.047   2.201 -0.8538 -1.3945 -1.1752
  165SAPE   C1118448   0.617   4.134   2.287 -0.4824 -0.1311  0.1192
  165SAPE  H11A18449   0.727   4.117   2.282 -0.5620 -1.4403  1.9097
  165SAPE  H11B18450   0.580   4.097   2.385  1.1599 -0.4023  0.6650
  165SAPE     P18451   0.444   4.333   2.332 -0.0124  0.1799  0.4528
  165SAPE   O1318452   0.424   4.462   2.255 -0.3991  0.0410 -0.2873
  165SAPE   O1418453   0.332   4.234   2.321 -0.1314  0.4852  0.1810
  165SAPE   O1218454   0.576   4.269   2.273  0.4502 -0.6963  0.3532
  165SAPE   O1118455   0.475   4.364   2.481 -0.5831 -0.1353  0.0884
  165SAPE    C118456   0.601   4.434   2.507  0.8479 -0.1834  0.7165
  165SAPE    HA18457   0.652   4.474   2.416 -3.4088  0.2542 -1.7650
  165SAPE    HB18458   0.575   4.524   2.567 -0.0976 -0.0144  0.0804
  165SAPE    C218459   0.693   4.341   2.584 -0.2259  0.3626  0.1647
  165SAPE    HS18460   0.693   4.238   2.544  0.1896  0.1870  0.6018
  165SAPE   O2118461   0.645   4.343   2.723  0.2055  0.2001 -0.4201
  165SAPE   C2118462   0.701   4.254   2.806  0.6475 -0.1219 -0.4859
  165SAPE   O2218463   0.773   4.164   2.760 -0.1411 -0.2920  0.0922
  165SAPE   C2218464   0.662   4.287   2.955 -0.2958 -0.0773 -0.3137
  165SAPE   H2R18465   0.700   4.390   2.973  1.2942 -0.7742  0.6346
  165SAPE   H2S18466   0.553   4.276   2.968 -0.1411 -4.3217 -1.1457
  165SAPE    C318467   0.843   4.392   2.583  0.8595 -0.2423 -0.4901
  165SAPE    HX18468   0.862   4.418   2.477 -0.2989  0.0128 -0.6413
  165SAPE    HY18469   0.918   4.314   2.612  2.7429  1.9584  0.9050
  165SAPE   O3118470   0.857   4.502   2.678 -0.6742  0.6715 -0.1569
  165SAPE   C3118471   0.947   4.585   2.650 -0.8357 -0.3409 -0.3227
  165SAPE   O3218472   1.021   4.587   2.552 -0.3042  0.2037 -0.4427
  165SAPE   C3218473   0.966   4.673   2.776 -0.0856  0.7219 -0.3998
  165SAPE   H2X18474   1.040   4.749   2.742 -2.3154  2.2233 -2.1792
  165SAPE   H2Y18475   1.013   4.616   2.859 -0.1901 -0.8688 -1.3941
  165SAPE   C2318476   0.733   4.201   3.060 -0.7728  0.0677  0.1469
  165SAPE   H3R18477   0.842   4.223   3.053 -1.3063  2.8798 -1.0956
  165SAPE   H3S18478   0.735   4.096   3.023  1.7972  0.3205 -0.6498
  165SAPE   C2418479   0.684   4.228   3.206 -0.1641  0.2970  0.7340
  165SAPE   H4R18480   0.702   4.334   3.231 -0.8280  0.8301 -0.8895
  165SAPE   H4S18481   0.753   4.166   3.266 -1.0152 -0.3733  1.0420
  165SAPE   C2518482   0.539   4.212   3.245  0.3324 -0.2205  0.4212
  165SAPE   H5R18483   0.464   4.261   3.180 -1.8791  0.9007  3.5780
  165SAPE   C2618484   0.493   4.148   3.348  1.1998  0.9816 -0.7027
  165SAPE   H6R18485   0.386   4.136   3.369  1.5314 -0.0818  0.5197
  165SAPE   C2718486   0.574   4.055   3.436  0.2532  0.2540 -0.2159
  165SAPE   H7R18487   0.658   4.004   3.386  0.5562 -0.4195  0.9364
  165SAPE   H7S18488   0.506   3.969   3.451  0.7473  0.0997  1.4043
  165SAPE   C2818489   0.633   4.126   3.559 -0.8487 -0.0067 -0.8317
  165SAPE   H8R18490   0.693   4.216   3.537 -2.6398  1.7442  0.9513
  165SAPE   C2918491   0.619   4.085   3.687  0.8611 -0.3093 -0.0749
  165SAPE   H9R18492   0.645   4.159   3.764 -1.7697  1.9236 -1.1983
  165SAPE  C21018493   0.540   3.964   3.727 -0.3103  0.8939 -0.6219
  165SAPE  H10R18494   0.594   3.882   3.780 -1.2170  0.0187 -1.0263
  165SAPE  H10S18495   0.504   3.913   3.636  0.1686  0.1191 -0.3911
  165SAPE  C21118496   0.430   4.010   3.817  0.1168 -0.0777 -0.2092
  165SAPE  H11R18497   0.456   4.025   3.923  0.1851  1.0918 -0.3816
  165SAPE  C21218498   0.307   4.051   3.783 -0.0831  0.1057 -0.1714
  165SAPE  H12R18499   0.236   4.062   3.866 -1.4670 -2.8103 -0.8477
  165SAPE  C21318500   0.250   4.048   3.644 -0.1168 -0.6717  0.9539
  165SAPE  H13R18501   0.319   4.090   3.568 -3.2107  0.4462 -1.4499
  165SAPE  H13S18502   0.163   4.117   3.637  0.4094 -0.1413 -0.7436
  165SAPE  C21418503   0.212   3.910   3.594 -0.6431 -0.4999 -0.3088
  165SAPE  H14R18504   0.243   3.829   3.662 -1.4296 -1.1062 -0.6471
  165SAPE  C21518505   0.129   3.874   3.493  0.5219 -0.0786  0.3129
  165SAPE  H15R18506   0.114   3.766   3.477 -1.7739  0.3517 -0.8119
  165SAPE  C21618507   0.061   3.968   3.404 -0.4051 -0.1514 -0.0605
  165SAPE  H16R18508   0.095   4.072   3.421  0.7608 -0.6422  0.7190
  165SAPE  H16S18509  -0.047   3.962   3.431 -0.0634 -3.9018  1.1936
  165SAPE  C21718510   0.062   3.937   3.251  0.0435 -0.4320  0.5246
  165SAPE  H17R18511  -0.027   3.984   3.203  0.9964  1.1459  0.2360
  165SAPE  H17S18512   0.060   3.829   3.225  0.3778  0.3038 -3.0903
  165SAPE  C21818513   0.187   3.999   3.184  0.5136  0.5105  0.1807
  165SAPE  H18R18514   0.280   3.957   3.228  0.7068  0.8744  0.1238
  165SAPE  H18S18515   0.201   4.106   3.210  1.4690  0.5751 -0.5253
  165SAPE  C21918516   0.191   3.976   3.033 -0.2615 -0.0642 -0.1856
  165SAPE  H19R18517   0.092   4.003   2.991 -0.3845 -1.1889 -0.6470
  165SAPE  H19S18518   0.189   3.868   3.011  2.1897 -0.1177 -0.4901
  165SAPE  C22018519   0.310   4.049   2.965 -0.9051  0.4768 -0.1970
  165SAPE  H20R18520   0.400   3.995   3.001 -1.6306  0.4122  1.6117
  165SAPE  H20S18521   0.317   4.154   3.003  1.6510 -0.0399  0.9917
  165SAPE  H20T18522   0.311   4.040   2.854  2.1905  0.6195 -0.2667
  165SAPE   C3318523   0.831   4.740   2.809  0.4941 -0.0408 -0.6745
  165SAPE   H3X18524   0.746   4.670   2.801 -0.9939  1.7474 -1.3369
  165SAPE   H3Y18525   0.805   4.826   2.744 -1.6731 -0.6788 -0.7258
  165SAPE   C3418526   0.833   4.793   2.955  0.4250  0.2522  0.7521
  165SAPE   H4X18527   0.874   4.717   3.025  0.0185 -0.3719  0.3176
  165SAPE   H4Y18528   0.729   4.808   2.989  0.2134  1.1029 -0.2104
  165SAPE   C3518529   0.913   4.922   2.971 -0.7268 -0.2018 -0.1979
  165SAPE   H5X18530   0.851   4.996   2.917 -3.5060 -0.2715  2.6371
  165SAPE   H5Y18531   1.011   4.907   2.920 -0.8608 -1.7094 -0.0642
  165SAPE   C3618532   0.940   4.981   3.111  0.1631 -0.4262  0.0919
  165SAPE   H6X18533   0.841   5.020   3.143  0.7622  2.9358 -1.6591
  165SAPE   H6Y18534   1.007   5.070   3.110 -0.6887  0.2344 -1.0311
  165SAPE   C3718535   0.962   4.879   3.225 -0.5365  0.9051  0.1299
  165SAPE   H7X18536   1.053   4.824   3.194 -1.6612 -0.8223 -0.2675
  165SAPE   H7Y18537   0.868   4.819   3.232 -0.7968  1.1808 -0.8574
  165SAPE   C3818538   0.995   4.949   3.356 -0.0365 -0.0097  0.0983
  165SAPE   H8X18539   1.078   5.024   3.361  1.4168 -1.4992 -0.7518
  165SAPE   H8Y18540   1.045   4.869   3.415  1.3305  0.3527 -0.5220
  165SAPE   C3918541   0.866   4.983   3.438  0.1126  0.8987  0.5139
  165SAPE   H9X18542   0.802   4.893   3.444  1.0476 -0.0011 -1.6245
  165SAPE   H9Y18543   0.807   5.057   3.379  0.6715  0.7237 -0.2888
  165SAPE  C31018544   0.880   5.049   3.576  0.0287  0.9983 -0.4138
  165SAPE  H10X18545   0.790   5.061   3.640  0.9530  1.5471  0.8244
  165SAPE  H10Y18546   0.936   5.145   3.570 -0.5899  1.4086  0.2676
  165SAPE  C31118547   0.973   4.972   3.673 -0.4864  0.0196  1.3951
  165SAPE  H11X18548   1.075   4.980   3.628 -0.1175  1.6444  2.4230
  165SAPE  H11Y18549   0.956   4.862   3.672  0.2687 -0.1401 -1.3462
  165SAPE  C31218550   0.971   5.029   3.815  0.2322  0.4145  0.0336
  165SAPE  H12X18551   0.863   5.034   3.842 -0.5387 -1.4396 -2.3767
  165SAPE  H12Y18552   1.013   5.132   3.817  1.6289 -0.0797 -1.5667
  165SAPE  C31318553   1.049   4.938   3.909 -1.2815  0.5381 -0.3187
  165SAPE  H13X18554   1.156   4.937   3.878 -1.4376  1.8985 -0.9213
  165SAPE  H13Y18555   1.010   4.835   3.921 -0.9598  0.3718 -0.6608
  165SAPE  C31418556   1.063   4.985   4.058 -0.8136  0.7524  0.7669
  165SAPE  H14X18557   0.959   4.991   4.097 -1.8842  2.0136 -1.9704
  165SAPE  H14Y18558   1.111   5.085   4.063  2.4014 -0.7268  3.0208
  165SAPE  C31518559   1.166   4.909   4.147  0.0323 -0.7107  0.3977
  165SAPE  H15X18560   1.257   4.883   4.088  0.1030 -1.4681  0.8230
  165SAPE  H15Y18561   1.117   4.816   4.182 -2.1399 -0.9181 -2.7844
  165SAPE  C31618562   1.193   4.995   4.274  0.0406  0.4596 -0.4208
  165SAPE  H16X18563   1.094   5.006   4.323  0.5470  0.0096  0.7315
  165SAPE  H16Y18564   1.228   5.097   4.245  4.3888 -0.8477 -0.4793
  165SAPE  C31718565   1.299   4.932   4.363 -0.2436 -0.3708 -0.7504
  165SAPE  H17X18566   1.278   4.823   4.372  0.1738 -0.3871  0.1741
  165SAPE  H17Y18567   1.285   4.973   4.466  1.4478 -0.4182 -0.4791
  165SAPE  C31818568   1.439   4.945   4.317  0.2872  0.3864  0.6941
  165SAPE  H18X18569   1.495   4.877   4.384  1.8415 -1.0699 -1.9358
  165SAPE  H18Y18570   1.478   5.050   4.318  2.5752 -0.3683 -0.7079
  165SAPE  H18Z18571   1.449   4.910   4.212 -0.9792 -0.1518  0.7377
  166SAPE     N18572   3.346   3.941   2.673  0.0531  0.5215  0.2580
  166SAPE   HN118573   3.379   3.921   2.769 -1.7017 -0.1385  0.7645
  166SAPE   HN218574   3.380   4.035   2.644 -2.2796  1.1499 -0.6941
  166SAPE   HN318575   3.243   3.945   2.685  0.1404  2.1436  0.5986
  166SAPE   C1218576   3.384   3.817   2.587  0.6229 -0.5235  0.1600
  166SAPE  H12A18577   3.495   3.816   2.593  0.5652 -1.4703  1.2573
  166SAPE  H12B18578   3.353   3.838   2.482  1.5010 -1.4848 -0.3084
  166SAPE   C1118579   3.344   3.676   2.636  0.1693 -0.5652  0.6289
  166SAPE  H11A18580   3.403   3.605   2.575 -1.2311 -0.3183 -1.1043
  166SAPE  H11B18581   3.237   3.650   2.623  0.1828 -0.3443  0.0715
  166SAPE     P18582   3.502   3.613   2.833  0.2238 -0.1169  0.3244
  166SAPE   O1318583   3.534   3.472   2.813 -0.0100 -0.5848  0.2955
  166SAPE   O1418584   3.601   3.698   2.767  0.1635 -0.1970  0.0078
  166SAPE   O1218585   3.363   3.660   2.778 -0.5117 -0.3494  0.1124
  166SAPE   O1118586   3.495   3.652   2.982  0.3706  0.5165 -0.1371
  166SAPE    C118587   3.421   3.567   3.071  0.1530  0.1338 -0.5561
  166SAPE    HA18588   3.319   3.554   3.030 -0.3510 -0.9021  0.9246
  166SAPE    HB18589   3.477   3.471   3.083 -0.7183 -0.0884  2.7533
  166SAPE    C218590   3.414   3.636   3.209 -0.7025 -0.1081 -0.4958
  166SAPE    HS18591   3.383   3.556   3.280 -2.3896  1.7700  1.0124
  166SAPE   O2118592   3.313   3.742   3.203 -0.5650  0.2987 -0.0735
  166SAPE   C2118593   3.238   3.736   3.313  0.2915  0.2713  0.0001
  166SAPE   O2218594   3.236   3.647   3.398  0.2290 -0.9826 -0.6001
  166SAPE   C2218595   3.135   3.852   3.311  0.5150  0.3660  0.1291
  166SAPE   H2R18596   3.190   3.936   3.265  0.5183  0.8617  1.0133
  166SAPE   H2S18597   3.070   3.826   3.225  1.0281 -2.4695  0.4895
  166SAPE    C318598   3.555   3.689   3.263 -0.6316  0.3787  0.3250
  166SAPE    HX18599   3.562   3.792   3.223 -0.6846  0.0386 -0.5959
  166SAPE    HY18600   3.633   3.634   3.206 -0.5577  0.0624  0.7318
  166SAPE   O3118601   3.576   3.692   3.404 -0.5592  0.0848  0.4648
  166SAPE   C3118602   3.592   3.573   3.462  0.0616 -0.1640  0.1948
  166SAPE   O3218603   3.591   3.464   3.401 -0.6556 -0.1041 -0.0305
  166SAPE   C3218604   3.615   3.596   3.615  0.2014  1.0707 -0.0959
  166SAPE   H2X18605   3.596   3.701   3.644  0.6847  0.8581  1.0541
  166SAPE   H2Y18606   3.722   3.582   3.640 -0.1065  1.0229  1.2498
  166SAPE   C2318607   3.043   3.862   3.435 -0.0447 -0.7681  0.0621
  166SAPE   H3R18608   3.107   3.888   3.522  0.5913  0.5000 -0.7601
  166SAPE   H3S18609   2.998   3.761   3.446 -0.6396 -0.5572 -0.4233
  166SAPE   C2418610   2.942   3.976   3.404 -0.3223 -0.2136  0.8312
  166SAPE   H4R18611   2.884   3.935   3.318  1.5420  0.5649 -0.8655
  166SAPE   H4S18612   3.001   4.065   3.375 -0.5701  0.5199  2.4828
  166SAPE   C2518613   2.854   4.013   3.525 -0.0738  0.4548  0.1761
  166SAPE   H5R18614   2.761   3.955   3.531  0.9705 -1.4274 -0.9612
  166SAPE   C2618615   2.879   4.103   3.626 -0.0708 -0.5434 -0.5513
  166SAPE   H6R18616   2.812   4.123   3.711  5.0532  2.9674  3.3096
  166SAPE   C2718617   3.002   4.183   3.648 -0.7706 -0.9863  0.5249
  166SAPE   H7R18618   2.965   4.273   3.702 -2.3670 -2.4834  2.0636
  166SAPE   H7S18619   3.065   4.215   3.562  0.2616 -2.6469  0.6338
  166SAPE   C2818620   3.113   4.112   3.725  0.2033 -0.1399 -0.0666
  166SAPE   H8R18621   3.123   4.008   3.688 -1.5610 -0.1052 -0.7187
  166SAPE   C2918622   3.169   4.154   3.834 -0.0721 -0.2035  0.4031
  166SAPE   H9R18623   3.235   4.083   3.887  1.4478 -0.2247 -1.4352
  166SAPE  C21018624   3.162   4.300   3.882 -0.4074 -0.2026 -1.0997
  166SAPE  H10R18625   3.068   4.318   3.939 -1.0959 -0.3671 -2.1598
  166SAPE  H10S18626   3.152   4.375   3.801 -1.2823 -0.0534 -0.8730
  166SAPE  C21118627   3.276   4.336   3.975  0.3398 -0.0352 -0.6849
  166SAPE  H11R18628   3.364   4.271   3.986  1.6570  1.7558 -0.2665
  166SAPE  C21218629   3.280   4.451   4.053 -0.0666  0.0243  0.1180
  166SAPE  H12R18630   3.352   4.464   4.135  0.5746 -1.8424 -0.0972
  166SAPE  C21318631   3.173   4.564   4.043 -0.1532  0.3705  0.1835
  166SAPE  H13R18632   3.085   4.516   4.091 -0.7166  0.4242 -0.7774
  166SAPE  H13S18633   3.160   4.584   3.935 -1.3564 -0.5456  0.1322
  166SAPE  C21418634   3.223   4.688   4.112 -0.3182 -0.5619  0.0868
  166SAPE  H14R18635   3.293   4.744   4.049  0.3391 -3.3201 -1.7819
  166SAPE  C21518636   3.194   4.743   4.232 -0.2295  0.4640  0.2082
  166SAPE  H15R18637   3.261   4.820   4.273  1.0532  0.2232 -1.3495
  166SAPE  C21618638   3.087   4.679   4.328 -0.4400 -0.6172  0.2835
  166SAPE  H16R18639   2.999   4.637   4.276 -2.1229  2.0847  0.7610
  166SAPE  H16S18640   3.048   4.760   4.393 -1.4423 -1.0262  0.2050
  166SAPE  C21718641   3.130   4.571   4.429 -0.6967  0.0011 -0.0367
  166SAPE  H17R18642   3.184   4.488   4.379  0.8764 -0.8539  2.8620
  166SAPE  H17S18643   3.042   4.521   4.474  0.4000 -1.4484  0.5943
  166SAPE  C21818644   3.227   4.629   4.544 -0.2929  0.6279  0.5197
  166SAPE  H18R18645   3.198   4.733   4.573  0.0012  1.2118 -1.1769
  166SAPE  H18S18646   3.329   4.627   4.499 -0.4337 -0.3840  0.2308
  166SAPE  C21918647   3.246   4.533   4.665  0.1791  0.3969  0.8149
  166SAPE  H19R18648   3.252   4.429   4.625  3.1831  0.9910 -0.5515
  166SAPE  H19S18649   3.150   4.536   4.720 -0.1508  1.1963  0.2162
  166SAPE  C22018650   3.366   4.556   4.748 -0.3979 -0.4588  0.3939
  166SAPE  H20R18651   3.451   4.507   4.695  2.6830  2.9115  1.7904
  166SAPE  H20S18652   3.350   4.501   4.843 -2.1966  0.0804  0.4365
  166SAPE  H20T18653   3.389   4.662   4.770 -2.4836 -0.2337  1.7115
  166SAPE   C3318654   3.533   3.511   3.712 -0.3061 -0.7020 -0.5026
  166SAPE   H3X18655   3.510   3.414   3.665 -2.8528 -0.6816  0.5043
  166SAPE   H3Y18656   3.439   3.567   3.730 -0.1392 -1.0062  1.6245
  166SAPE   C3418657   3.606   3.490   3.851 -0.0312  0.2912 -0.0622
  166SAPE   H4X18658   3.652   3.582   3.893 -0.9685  0.5448  0.4196
  166SAPE   H4Y18659   3.700   3.431   3.842 -1.1836 -1.8507  1.0012
  166SAPE   C3518660   3.511   3.435   3.956  0.5540 -0.1550  0.3835
  166SAPE   H5X18661   3.473   3.343   3.905 -1.5936  1.2064 -0.6625
  166SAPE   H5Y18662   3.440   3.518   3.975  3.2115  2.3398  0.0287
  166SAPE   C3618663   3.591   3.390   4.086 -0.4934 -0.1250 -0.3285
  166SAPE   H6X18664   3.658   3.472   4.120  2.8866 -2.1096 -1.7179
  166SAPE   H6Y18665   3.651   3.306   4.046  2.0133  1.6498 -0.5261
  166SAPE   C3718666   3.497   3.349   4.193  0.2396 -0.2737  0.2012
  166SAPE   H7X18667   3.425   3.274   4.156  0.3732 -0.1668 -0.2789
  166SAPE   H7Y18668   3.435   3.427   4.243  0.8429  0.1006  0.3788
  166SAPE   C3818669   3.593   3.291   4.300 -0.0892 -0.6851  0.5896
  166SAPE   H8X18670   3.689   3.346   4.306 -0.3970 -0.1058  0.3406
  166SAPE   H8Y18671   3.622   3.196   4.252 -1.7876 -0.4498 -1.0193
  166SAPE   C3918672   3.531   3.270   4.439  0.1482  0.2898  0.1887
  166SAPE   H9X18673   3.483   3.364   4.472 -0.1740 -0.1126  0.8842
  166SAPE   H9Y18674   3.610   3.240   4.511 -1.4864  0.0311  1.9687
  166SAPE  C31018675   3.435   3.153   4.444  0.6370 -0.6888 -0.2293
  166SAPE  H10X18676   3.362   3.158   4.360 -0.6051 -0.4976  0.8304
  166SAPE  H10Y18677   3.366   3.153   4.531  1.6899 -1.8937  0.6427
  166SAPE  C31118678   3.504   3.013   4.447  0.4829  0.5488  0.0071
  166SAPE  H11X18679   3.581   2.992   4.524  0.7457 -1.9008 -0.8095
  166SAPE  H11Y18680   3.549   2.979   4.351 -0.1817 -2.1940  0.5653
  166SAPE  C31218681   3.400   2.909   4.471  0.5679  0.1178 -0.0779
  166SAPE  H12X18682   3.309   2.930   4.411  1.2588  1.8567 -0.5618
  166SAPE  H12Y18683   3.367   2.916   4.577 -0.5480  0.2071 -0.4136
  166SAPE  C31318684   3.445   2.766   4.449  0.1406 -0.7044 -1.0532
  166SAPE  H13X18685   3.370   2.706   4.505 -1.0286  0.9458 -0.7916
  166SAPE  H13Y18686   3.548   2.734   4.476  0.1996 -2.0389 -2.6587
  166SAPE  C31418687   3.421   2.736   4.303  0.1630 -0.2647 -0.6958
  166SAPE  H14X18688   3.474   2.809   4.237 -2.8263  2.6365 -0.1605
  166SAPE  H14Y18689   3.316   2.751   4.270 -0.0220 -2.0729 -0.9945
  166SAPE  C31518690   3.468   2.598   4.256  0.5097 -0.3454 -0.1312
  166SAPE  H15X18691   3.579   2.592   4.252  0.5799  0.9790 -0.8701
  166SAPE  H15Y18692   3.450   2.599   4.146 -0.9576 -1.0299  0.0813
  166SAPE  C31618693   3.383   2.481   4.309 -0.5092  0.0743 -0.4076
  166SAPE  H16X18694   3.275   2.498   4.290 -0.7834 -1.5411 -0.3872
  166SAPE  H16Y18695   3.410   2.478   4.417 -0.2366  0.6375 -0.4600
  166SAPE  C31718696   3.427   2.351   4.241 -0.4993  0.0085 -0.1974
  166SAPE  H17X18697   3.523   2.313   4.281 -1.6558 -2.3963  0.4776
  166SAPE  H17Y18698   3.434   2.356   4.130  1.2057 -2.0437 -0.2267
  166SAPE  C31818699   3.336   2.239   4.277 -0.5014 -0.7114 -0.3581
  166SAPE  H18X18700   3.382   2.148   4.235  0.1407  0.8120 -3.2761
  166SAPE  H18Y18701   3.235   2.251   4.230 -0.0771 -1.4462 -1.5017
  166SAPE  H18Z18702   3.330   2.241   4.388 -3.3729  0.4937 -0.4348
  167SAPE     N18703   3.123   1.407   2.021 -0.1518 -0.3390 -0.6444
  167SAPE   HN118704   3.025   1.374   2.015 -0.2123 -1.1188  2.8074
  167SAPE   HN218705   3.190   1.331   1.998  0.0339 -0.1467 -0.7509
  167SAPE   HN318706   3.142   1.425   2.122 -1.6814  0.7004 -0.5123
  167SAPE   C1218707   3.123   1.540   1.949 -0.4543 -0.2887 -0.3145
  167SAPE  H12A18708   3.059   1.528   1.859  0.6630  3.0758 -1.7306
  167SAPE  H12B18709   3.223   1.570   1.909 -1.2630  2.4146 -0.4966
  167SAPE   C1118710   3.055   1.651   2.035  0.4523  0.1943 -0.7734
  167SAPE  H11A18711   3.053   1.749   1.982 -1.0984  1.2022  1.0024
  167SAPE  H11B18712   3.109   1.665   2.130  0.1978 -2.4690 -0.1627
  167SAPE     P18713   2.784   1.678   2.055 -0.2730  0.3074  0.2988
  167SAPE   O1318714   2.782   1.778   1.949  0.2144  0.7986 -0.0258
  167SAPE   O1418715   2.681   1.576   2.046  0.1246  0.1770 -0.0925
  167SAPE   O1218716   2.924   1.600   2.059  0.2388  0.7903 -0.5187
  167SAPE   O1118717   2.788   1.752   2.188  0.4002  0.2822 -0.4601
  167SAPE    C118718   2.677   1.795   2.268  0.5963 -0.2390  0.5144
  167SAPE    HA18719   2.658   1.898   2.232  1.4646 -0.6357 -1.1272
  167SAPE    HB18720   2.579   1.745   2.252  1.1668 -0.6677 -1.9754
  167SAPE    C218721   2.699   1.797   2.421  0.1753 -0.1148  0.6423
  167SAPE    HS18722   2.732   1.897   2.458  1.1228 -0.0560 -0.2842
  167SAPE   O2118723   2.798   1.695   2.454 -0.0340 -0.4843  0.7011
  167SAPE   C2118724   2.921   1.735   2.445 -0.3924 -0.4988  0.4500
  167SAPE   O2218725   2.953   1.851   2.411 -0.2694 -0.5130  0.4838
  167SAPE   C2218726   3.023   1.637   2.498 -0.0965 -0.9377  0.4198
  167SAPE   H2R18727   3.119   1.683   2.466 -0.0366  0.1130  1.9862
  167SAPE   H2S18728   3.023   1.652   2.608  2.4625  0.6640  0.2907
  167SAPE    C318729   2.561   1.765   2.483 -0.2273  0.1830 -0.5193
  167SAPE    HX18730   2.542   1.659   2.458  2.5097  0.0721 -2.4775
  167SAPE    HY18731   2.475   1.827   2.449 -0.7851 -0.1678  0.2238
  167SAPE   O3118732   2.562   1.767   2.625 -0.4329 -0.0485  0.5846
  167SAPE   C3118733   2.542   1.891   2.676 -0.0199 -0.0547 -0.0327
  167SAPE   O3218734   2.534   1.989   2.602  0.7149  0.0978 -0.4224
  167SAPE   C3218735   2.526   1.887   2.833 -0.1511  0.1375  0.4759
  167SAPE   H2X18736   2.627   1.900   2.878  0.8564 -3.2902 -0.5086
  167SAPE   H2Y18737   2.493   1.785   2.861  0.5818  0.1783  1.5125
  167SAPE   C2318738   3.016   1.489   2.453  0.0791  0.4010 -0.0161
  167SAPE   H3R18739   3.064   1.465   2.355  1.2433 -0.1122  0.6498
  167SAPE   H3S18740   2.908   1.465   2.444 -0.5339  1.7453  2.5635
  167SAPE   C2418741   3.063   1.379   2.563  0.3163 -0.2552  0.1532
  167SAPE   H4R18742   3.028   1.277   2.536  0.3533 -0.9938  2.6411
  167SAPE   H4S18743   3.023   1.407   2.663 -0.3104 -2.5697  0.6160
  167SAPE   C2518744   3.213   1.384   2.578  0.1060 -0.3984 -0.0515
  167SAPE   H5R18745   3.266   1.332   2.497 -0.2528  0.4438 -0.8370
  167SAPE   C2618746   3.287   1.451   2.671 -0.0062 -0.1217  0.1238
  167SAPE   H6R18747   3.395   1.439   2.659  0.1731  0.2981  1.1632
  167SAPE   C2718748   3.240   1.523   2.796 -0.4635  0.3449  0.5249
  167SAPE   H7R18749   3.175   1.453   2.851  0.3557 -0.4805  0.4623
  167SAPE   H7S18750   3.194   1.620   2.766  1.6534  0.9274 -1.1326
  167SAPE   C2818751   3.361   1.557   2.876  0.0087 -0.0969  0.6816
  167SAPE   H8R18752   3.422   1.632   2.823  1.0001 -0.7160  0.9207
  167SAPE   C2918753   3.401   1.499   2.993 -0.2574  0.1976  0.1814
  167SAPE   H9R18754   3.495   1.530   3.040  0.7209 -0.5082 -1.2530
  167SAPE  C21018755   3.330   1.399   3.076 -0.3467  0.3966  0.3425
  167SAPE  H10R18756   3.412   1.336   3.117  0.5516  1.9797  1.1201
  167SAPE  H10S18757   3.266   1.326   3.023  0.7028 -0.6742  0.4985
  167SAPE  C21118758   3.250   1.475   3.177  0.5876 -0.7934 -0.1844
  167SAPE  H11R18759   3.182   1.554   3.144  0.5419 -0.7202  0.0771
  167SAPE  C21218760   3.249   1.449   3.311 -0.2696 -0.1297 -0.2003
  167SAPE  H12R18761   3.187   1.509   3.379 -0.7823  1.4904 -1.9994
  167SAPE  C21318762   3.333   1.347   3.395 -0.1167  0.6086  0.1030
  167SAPE  H13R18763   3.372   1.264   3.332 -2.5818  0.5034 -1.4557
  167SAPE  H13S18764   3.255   1.291   3.452  0.8828  0.4916  1.4073
  167SAPE  C21418765   3.446   1.400   3.480 -0.8533  0.5236  0.2757
  167SAPE  H14R18766   3.543   1.376   3.435 -0.1153  0.7473  1.6725
  167SAPE  C21518767   3.440   1.474   3.594  0.6406  0.3192 -0.0982
  167SAPE  H15R18768   3.532   1.495   3.651 -0.2069  2.6916  0.5102
  167SAPE  C21618769   3.319   1.507   3.672  0.0441  0.8321  0.9472
  167SAPE  H16R18770   3.228   1.480   3.615  0.5885 -1.2484  0.9778
  167SAPE  H16S18771   3.301   1.616   3.671  0.9658  1.0192 -1.5589
  167SAPE  C21718772   3.308   1.452   3.818 -0.1424  0.4069  0.3972
  167SAPE  H17R18773   3.307   1.341   3.822 -1.9687  0.3761  0.0251
  167SAPE  H17S18774   3.205   1.470   3.856  0.5950 -1.8095  3.9385
  167SAPE  C21818775   3.411   1.512   3.911 -0.4241  0.3184  0.5751
  167SAPE  H18R18776   3.400   1.622   3.902 -0.7008  0.3480  1.2794
  167SAPE  H18S18777   3.514   1.481   3.881 -0.3756  1.4900 -0.5623
  167SAPE  C21918778   3.398   1.477   4.056 -0.0248 -0.2385  0.2180
  167SAPE  H19R18779   3.488   1.515   4.110  0.3949 -1.3909  0.3575
  167SAPE  H19S18780   3.414   1.371   4.083  0.4567 -0.2672 -0.1684
  167SAPE  C22018781   3.260   1.522   4.117  0.1160  0.3522  0.5087
  167SAPE  H20R18782   3.178   1.457   4.079  0.6643 -0.4559  0.6855
  167SAPE  H20S18783   3.241   1.628   4.089 -0.8637  0.4598  1.5130
  167SAPE  H20T18784   3.274   1.521   4.227  3.5774 -2.2960  0.2176
  167SAPE   C3318785   2.425   1.998   2.884 -0.0086 -0.0209  0.2880
  167SAPE   H3X18786   2.319   1.976   2.858  0.4237 -2.7081  0.5130
  167SAPE   H3Y18787   2.451   2.091   2.828  0.5801  0.3639  1.1693
  167SAPE   C3418788   2.435   2.032   3.034  0.0248  0.2280 -0.5645
  167SAPE   H4X18789   2.402   2.136   3.056  1.5566  0.7716 -0.7301
  167SAPE   H4Y18790   2.543   2.021   3.057 -0.3961 -1.6987  0.7783
  167SAPE   C3518791   2.359   1.934   3.119 -0.0250  0.1959 -0.1583
  167SAPE   H5X18792   2.340   1.838   3.065 -1.5485 -0.0565  0.7611
  167SAPE   H5Y18793   2.260   1.979   3.142  0.3111  0.2079  1.3555
  167SAPE   C3618794   2.430   1.900   3.254 -0.0639  0.5360 -0.0125
  167SAPE   H6X18795   2.527   1.851   3.233 -0.2614  0.6710 -1.2694
  167SAPE   H6Y18796   2.370   1.831   3.318 -0.1698  1.6042  1.0867
  167SAPE   C3718797   2.473   2.025   3.340  0.2983 -0.9836 -0.0972
  167SAPE   H7X18798   2.382   2.086   3.359  0.5654 -0.2421 -1.0881
  167SAPE   H7Y18799   2.541   2.093   3.286  1.0153 -2.1103 -0.6445
  167SAPE   C3818800   2.537   1.980   3.468  0.1330 -0.1707  0.1210
  167SAPE   H8X18801   2.616   1.905   3.447  1.7014  0.9275  1.8267
  167SAPE   H8Y18802   2.459   1.917   3.517 -0.1261 -1.5181 -1.8636
  167SAPE   C3918803   2.602   2.095   3.544 -0.2629  0.5920 -0.1348
  167SAPE   H9X18804   2.526   2.176   3.549 -1.9091 -0.9707  3.8000
  167SAPE   H9Y18805   2.678   2.150   3.484  0.7064  1.2315  1.5972
  167SAPE  C31018806   2.653   2.036   3.680  0.3038  0.1981  0.2136
  167SAPE  H10X18807   2.718   2.110   3.733  0.2475  0.1090  0.4083
  167SAPE  H10Y18808   2.713   1.945   3.660  0.5288  0.2891  0.4753
  167SAPE  C31118809   2.542   2.002   3.782 -0.1664 -0.2053 -0.1480
  167SAPE  H11X18810   2.468   1.932   3.737 -1.3347  0.6493  0.3994
  167SAPE  H11Y18811   2.488   2.094   3.813  2.7747  1.7848 -0.5288
  167SAPE  C31218812   2.611   1.936   3.907  0.7295  0.1186 -0.2248
  167SAPE  H12X18813   2.617   2.023   3.976 -1.0067 -0.2474  0.4303
  167SAPE  H12Y18814   2.716   1.905   3.886  0.8154 -1.1058  1.6614
  167SAPE  C31318815   2.527   1.819   3.964  0.5774 -0.6763 -0.1070
  167SAPE  H13X18816   2.586   1.767   4.043  0.3156  2.9684  2.7854
  167SAPE  H13Y18817   2.531   1.755   3.873  1.6099 -0.2307 -0.3949
  167SAPE  C31418818   2.384   1.860   4.001 -0.2670 -0.4489 -0.4472
  167SAPE  H14X18819   2.326   1.771   4.034 -1.3840  0.7943  1.1285
  167SAPE  H14Y18820   2.331   1.897   3.910 -1.5633 -2.4689 -0.5605
  167SAPE  C31518821   2.360   1.965   4.115  0.7420 -0.1065 -0.4947
  167SAPE  H15X18822   2.254   1.967   4.148  1.3150  0.8311  1.4163
  167SAPE  H15Y18823   2.386   2.067   4.082  0.3707 -0.0772 -0.7094
  167SAPE  C31618824   2.436   1.936   4.244  0.0977  0.1275  0.5575
  167SAPE  H16X18825   2.411   1.998   4.332 -0.5174  0.0290  0.4545
  167SAPE  H16Y18826   2.546   1.947   4.233  0.1911  0.9786  2.0568
  167SAPE  C31718827   2.412   1.797   4.296 -0.2092  0.1952 -0.2374
  167SAPE  H17X18828   2.480   1.777   4.382  1.4567 -0.8141 -1.7295
  167SAPE  H17Y18829   2.442   1.726   4.217  1.5188  1.4279 -0.7603
  167SAPE  C31818830   2.265   1.757   4.335 -0.0763 -0.2016 -0.3596
  167SAPE  H18X18831   2.194   1.741   4.251 -0.8105 -1.1327  0.4186
  167SAPE  H18Y18832   2.220   1.822   4.413  0.8920  0.7607 -0.5813
  167SAPE  H18Z18833   2.275   1.654   4.376  0.4209 -0.9893 -2.3588
  168SAPE     N18834   1.849   6.314   2.315  0.1913  0.0145  0.5366
  168SAPE   HN118835   1.766   6.358   2.270 -0.6418  0.0466  2.0376
  168SAPE   HN218836   1.917   6.391   2.325 -0.1842  0.1620  2.2098
  168SAPE   HN318837   1.892   6.237   2.260 -1.5287 -0.2440 -0.5156
  168SAPE   C1218838   1.822   6.272   2.458  0.4138 -0.2822  0.0298
  168SAPE  H12A18839   1.915   6.223   2.495  1.2964 -1.9224 -3.7881
  168SAPE  H12B18840   1.739   6.198   2.455 -0.2530  0.4504 -3.2353
  168SAPE   C1118841   1.790   6.394   2.542  0.1368  0.1971 -0.2227
  168SAPE  H11A18842   1.799   6.358   2.647  1.2496 -0.8319 -0.6539
  168SAPE  H11B18843   1.688   6.433   2.518  0.0129 -0.6998 -1.1995
  168SAPE     P18844   1.848   6.644   2.573  0.0223 -0.2318  0.5119
  168SAPE   O1318845   1.961   6.725   2.520  0.0875 -0.5012 -0.0452
  168SAPE   O1418846   1.715   6.685   2.525  0.1422 -0.1305 -0.9604
  168SAPE   O1218847   1.885   6.495   2.526 -0.1341 -1.1818  0.1231
  168SAPE   O1118848   1.867   6.640   2.732  0.4115  0.2775 -0.5599
  168SAPE    C118849   1.971   6.575   2.798 -0.2322 -0.4354  0.6259
  168SAPE    HA18850   1.944   6.476   2.840  0.8585 -0.6418  0.8732
  168SAPE    HB18851   2.049   6.553   2.722 -0.9768  0.3405 -0.3884
  168SAPE    C218852   2.030   6.669   2.911  0.1958  0.5339 -0.2309
  168SAPE    HS18853   2.129   6.629   2.939 -1.0288 -1.4532  1.5609
  168SAPE   O2118854   1.944   6.664   3.023  0.2863  0.4541  0.5175
  168SAPE   C2118855   1.954   6.556   3.097 -0.3002 -0.1950 -0.3138
  168SAPE   O2218856   2.028   6.460   3.075 -0.0597 -0.1555 -0.0192
  168SAPE   C2218857   1.862   6.579   3.220 -0.3067 -0.4017 -0.1624
  168SAPE   H2R18858   1.846   6.689   3.229 -1.3784 -0.5844  0.2997
  168SAPE   H2S18859   1.765   6.527   3.202 -1.5458  1.2999  1.2164
  168SAPE    C318860   2.034   6.820   2.861 -0.0882  0.3414 -0.1776
  168SAPE    HX18861   1.930   6.853   2.845  0.2352  0.4527 -2.3113
  168SAPE    HY18862   2.076   6.830   2.759  0.2532  1.1387  0.0307
  168SAPE   O3118863   2.101   6.893   2.962  0.2519 -0.0051 -0.7921
  168SAPE   C3118864   2.231   6.913   2.954  0.2249 -0.2910 -0.2340
  168SAPE   O3218865   2.303   6.875   2.865  0.0053  0.3752 -0.2410
  168SAPE   C3218866   2.289   6.984   3.079 -0.0296  0.4015 -0.4333
  168SAPE   H2X18867   2.254   7.090   3.076 -0.2889  0.3943  1.3502
  168SAPE   H2Y18868   2.399   6.982   3.062  0.1847 -5.2166 -0.2876
  168SAPE   C2318869   1.923   6.514   3.344 -0.2461 -0.2330 -0.5100
  168SAPE   H3R18870   2.023   6.561   3.358 -0.2537 -0.2272 -0.4744
  168SAPE   H3S18871   1.943   6.405   3.333 -3.0251 -0.7960 -0.7998
  168SAPE   C2418872   1.838   6.521   3.478  0.0426 -0.6210  0.4744
  168SAPE   H4R18873   1.874   6.459   3.563  0.1530  1.5221  2.1014
  168SAPE   H4S18874   1.737   6.479   3.459 -0.2595  0.6979 -1.0282
  168SAPE   C2518875   1.836   6.671   3.520  1.3887 -0.2496  0.2845
  168SAPE   H5R18876   1.819   6.743   3.439 -0.8380 -1.1572 -0.1385
  168SAPE   C2618877   1.850   6.716   3.649  0.0992 -0.5918  0.5812
  168SAPE   H6R18878   1.846   6.825   3.666 -1.5939 -0.6041  0.4341
  168SAPE   C2718879   1.875   6.636   3.774 -0.4206 -0.6858  0.1227
  168SAPE   H7R18880   1.876   6.714   3.852 -2.9412 -0.0401 -0.4077
  168SAPE   H7S18881   1.980   6.600   3.766  0.1066  1.0430 -1.7962
  168SAPE   C2818882   1.762   6.544   3.813 -0.8911  0.0544 -0.1065
  168SAPE   H8R18883   1.774   6.440   3.778  0.8562 -0.3423  1.5310
  168SAPE   C2918884   1.652   6.564   3.894 -0.0242 -0.0585 -0.2945
  168SAPE   H9R18885   1.576   6.485   3.912 -0.7329  0.9521  1.4204
  168SAPE  C21018886   1.602   6.686   3.967  0.1250  0.3941 -0.3856
  168SAPE  H10R18887   1.519   6.734   3.910  0.5018  1.6175  0.0546
  168SAPE  H10S18888   1.691   6.752   3.978  2.7502 -3.1785  1.7746
  168SAPE  C21118889   1.552   6.637   4.103  0.6073 -0.3935  0.7598
  168SAPE  H11R18890   1.472   6.561   4.099  1.5076 -1.4014  1.2790
  168SAPE  C21218891   1.602   6.677   4.222  0.9443  0.3319 -0.6627
  168SAPE  H12R18892   1.545   6.636   4.308  0.2901  1.4811 -0.5291
  168SAPE  C21318893   1.705   6.787   4.245  0.3526 -0.5367 -0.4008
  168SAPE  H13R18894   1.647   6.871   4.288  0.7397  1.6861 -3.8396
  168SAPE  H13S18895   1.752   6.822   4.150 -0.2298 -1.2096 -0.9481
  168SAPE  C21418896   1.812   6.729   4.331 -0.0801 -0.0902 -0.5350
  168SAPE  H14R18897   1.850   6.628   4.312  0.6102  0.0495  0.0199
  168SAPE  C21518898   1.873   6.789   4.431 -0.2784  1.0670 -0.4335
  168SAPE  H15R18899   1.949   6.728   4.484 -1.2961  0.1886  0.0486
  168SAPE  C21618900   1.862   6.932   4.478  0.1944 -0.4110  0.5584
  168SAPE  H16R18901   1.838   7.000   4.393 -0.5110 -1.1737  0.1257
  168SAPE  H16S18902   1.959   6.967   4.517  0.8973 -1.4278 -0.2282
  168SAPE  C21718903   1.753   6.962   4.581  0.2564  0.5796  0.0950
  168SAPE  H17R18904   1.789   6.922   4.678  1.2415 -0.1370 -0.5411
  168SAPE  H17S18905   1.662   6.907   4.549  1.9083 -1.2761 -1.8588
  168SAPE  C21818906   1.721   7.108   4.581 -0.4655  0.2174 -0.0555
  168SAPE  H18R18907   1.665   7.137   4.490  1.2762  0.8035 -0.9892
  168SAPE  H18S18908   1.820   7.154   4.563 -0.3513 -0.9513 -2.9450
  168SAPE  C21918909   1.637   7.153   4.703 -0.2522  0.1488 -0.2674
  168SAPE  H19R18910   1.545   7.091   4.705  0.1735 -0.6580 -2.7334
  168SAPE  H19S18911   1.608   7.258   4.686 -1.1775 -0.0404  0.1087
  168SAPE  C22018912   1.711   7.144   4.832  0.2370 -0.2774 -0.5109
  168SAPE  H20R18913   1.711   7.038   4.867 -2.7137 -0.3277 -0.3710
  168SAPE  H20S18914   1.655   7.200   4.910  2.0071  1.2033 -0.2599
  168SAPE  H20T18915   1.813   7.187   4.834  1.6008 -3.2563  0.1107
  168SAPE   C3318916   2.259   6.908   3.213  0.6423 -0.2593  0.0036
  168SAPE   H3X18917   2.280   6.799   3.210 -3.7922 -1.3520  0.8977
  168SAPE   H3Y18918   2.150   6.909   3.237  0.7714 -0.1333  0.6189
  168SAPE   C3418919   2.324   6.982   3.331  0.5660 -0.8885  0.6818
  168SAPE   H4X18920   2.308   7.091   3.313 -0.4574 -1.3913 -1.9708
  168SAPE   H4Y18921   2.433   6.962   3.319  0.5545 -0.9215  0.6332
  168SAPE   C3518922   2.273   6.935   3.464 -0.2489 -0.0348 -0.1967
  168SAPE   H5X18923   2.162   6.927   3.466 -0.2234 -0.4342 -0.2176
  168SAPE   H5Y18924   2.304   7.021   3.527 -0.8383 -0.3720  0.5742
  168SAPE   C3618925   2.346   6.804   3.515  1.2734  0.3175 -0.5572
  168SAPE   H6X18926   2.452   6.820   3.544  0.9240 -0.9800  1.6922
  168SAPE   H6Y18927   2.333   6.747   3.421 -2.3376  0.5605 -0.3171
  168SAPE   C3718928   2.268   6.744   3.631 -0.7296  0.4635  0.0358
  168SAPE   H7X18929   2.280   6.633   3.629 -0.6466  0.4574  0.6131
  168SAPE   H7Y18930   2.160   6.745   3.605 -0.8671  0.6131  0.5925
  168SAPE   C3818931   2.301   6.802   3.767 -0.6309 -0.0420  0.2053
  168SAPE   H8X18932   2.289   6.913   3.770  0.1767  0.0211  1.7638
  168SAPE   H8Y18933   2.408   6.786   3.789 -0.2424  0.2914 -1.3496
  168SAPE   C3918934   2.217   6.757   3.885 -0.3430  0.5037  0.4034
  168SAPE   H9X18935   2.216   6.646   3.888 -1.9637  0.3904 -1.8625
  168SAPE   H9Y18936   2.113   6.796   3.874  0.3855  2.3368 -0.3878
  168SAPE  C31018937   2.267   6.821   4.015 -0.3485 -0.1916  0.6099
  168SAPE  H10X18938   2.285   6.929   3.996  1.0576 -0.9751 -3.5013
  168SAPE  H10Y18939   2.370   6.781   4.029  0.0372  1.3431  2.8053
  168SAPE  C31118940   2.183   6.794   4.137  0.3126  0.0584  0.0559
  168SAPE  H11X18941   2.187   6.685   4.159  1.1653  0.0589 -0.0662
  168SAPE  H11Y18942   2.077   6.826   4.130  0.0348  0.2395  3.2924
  168SAPE  C31218943   2.240   6.861   4.266  0.7199 -0.2729  0.5585
  168SAPE  H12X18944   2.351   6.848   4.261  0.8406  0.9922 -1.0204
  168SAPE  H12Y18945   2.200   6.811   4.356 -0.5251  0.4121  0.4040
  168SAPE  C31318946   2.193   7.005   4.280 -0.6598 -0.3880  0.1432
  168SAPE  H13X18947   2.083   7.022   4.281 -0.5950  0.0524  1.4512
  168SAPE  H13Y18948   2.233   7.057   4.190 -0.9163  1.2141  0.9149
  168SAPE  C31418949   2.258   7.072   4.407  0.2042 -0.0602 -0.5904
  168SAPE  H14X18950   2.368   7.064   4.396  0.1433 -1.6219 -0.3895
  168SAPE  H14Y18951   2.237   7.015   4.500  1.3614  1.1434  0.4530
  168SAPE  C31518952   2.213   7.217   4.436  0.0340 -0.1615  0.0241
  168SAPE  H15X18953   2.271   7.249   4.525 -1.1798  1.1595  0.3671
  168SAPE  H15Y18954   2.104   7.226   4.456 -0.3696  0.3016 -2.1401
  168SAPE  C31618955   2.242   7.309   4.318  0.1477  0.1011  0.4207
  168SAPE  H16X18956   2.198   7.408   4.345 -1.3372 -0.3730 -0.1765
  168SAPE  H16Y18957   2.190   7.267   4.230  1.6929 -0.2220 -0.3721
  168SAPE  C31718958   2.393   7.316   4.279 -0.0980  0.0174  0.0142
  168SAPE  H17X18959   2.436   7.222   4.237 -0.5639  0.3918 -1.3286
  168SAPE  H17Y18960   2.449   7.360   4.364 -0.4372  2.7227 -1.0821
  168SAPE  C31818961   2.403   7.409   4.158  0.2207  0.5041 -0.3861
  168SAPE  H18X18962   2.367   7.507   4.196  1.6597  0.5918  0.8435
  168SAPE  H18Y18963   2.328   7.366   4.088  0.6114 -0.2195 -0.3683
  168SAPE  H18Z18964   2.499   7.416   4.102  0.2292  0.6191 -0.3560
  169SAPE     N18965   3.575   3.328   2.582  0.0989  0.3004  0.3469
  169SAPE   HN118966   3.560   3.387   2.667  0.6807  1.2100 -0.1690
  169SAPE   HN218967   3.668   3.281   2.575 -1.0851 -2.2047  0.1742
  169SAPE   HN318968   3.569   3.394   2.503  0.0116  0.6743  0.6626
  169SAPE   C1218969   3.474   3.215   2.582 -0.7722 -0.3997  0.5038
  169SAPE  H12A18970   3.500   3.146   2.664  1.2781 -0.7864 -0.4097
  169SAPE  H12B18971   3.483   3.162   2.484 -1.1673  0.7353 -0.1650
  169SAPE   C1118972   3.330   3.265   2.598 -0.9809  0.0839  0.1106
  169SAPE  H11A18973   3.317   3.322   2.693 -0.4148 -0.2651  0.3986
  169SAPE  H11B18974   3.260   3.179   2.603  0.9353 -1.5408  0.1469
  169SAPE     P18975   3.151   3.397   2.454 -0.2109 -0.5542 -0.4170
  169SAPE   O1318976   3.160   3.531   2.390 -0.0657  0.7228  0.0010
  169SAPE   O1418977   3.088   3.282   2.390  0.7466 -0.2324  0.0668
  169SAPE   O1218978   3.298   3.368   2.500  0.1920  0.0275 -0.0633
  169SAPE   O1118979   3.077   3.416   2.588  0.5184 -0.6464 -0.2603
  169SAPE    C118980   2.943   3.457   2.591 -0.3403 -0.3815 -0.2497
  169SAPE    HA18981   2.929   3.559   2.631  0.5040 -0.6344  0.7343
  169SAPE    HB18982   2.897   3.448   2.490  3.0218 -0.8483 -1.8795
  169SAPE    C218983   2.866   3.372   2.698 -0.1017 -0.4849  0.5473
  169SAPE    HS18984   2.760   3.366   2.662 -0.1116  3.3070 -0.4249
  169SAPE   O2118985   2.872   3.436   2.821  0.5838  0.2060  0.3932
  169SAPE   C2118986   2.781   3.519   2.859  0.3153 -0.1716  0.1196
  169SAPE   O2218987   2.680   3.557   2.801 -0.0729 -0.4726 -0.0921
  169SAPE   C2218988   2.808   3.553   3.010 -0.0353  0.6277  1.0637
  169SAPE   H2R18989   2.825   3.455   3.060 -1.5553 -0.5044 -0.5029
  169SAPE   H2S18990   2.902   3.613   3.015  1.2592 -1.0870 -0.6766
  169SAPE    C318991   2.918   3.226   2.697 -0.0778  0.6418 -0.3790
  169SAPE    HX18992   3.026   3.227   2.722 -0.2999  1.1728  0.5879
  169SAPE    HY18993   2.913   3.195   2.590  1.5567 -0.8008 -0.0859
  169SAPE   O3118994   2.832   3.134   2.773  0.4482  0.4864 -0.0942
  169SAPE   C3118995   2.884   3.098   2.891 -0.4118  0.5034 -0.3927
  169SAPE   O3218996   2.995   3.124   2.933 -0.6402  0.3258  0.2751
  169SAPE   C3218997   2.778   3.026   2.963  1.2905  0.6096 -0.1621
  169SAPE   H2X18998   2.763   2.928   2.913  2.6073  0.2519  0.1164
  169SAPE   H2Y18999   2.692   3.096   2.956  1.0721  0.5634  1.7193
  169SAPE   C2319000   2.681   3.614   3.069 -0.5980 -0.9500 -0.4081
  169SAPE   H3R19001   2.593   3.546   3.068 -1.0397 -0.5187  2.2102
  169SAPE   H3S19002   2.653   3.706   3.013 -1.1573  0.3731  1.9380
  169SAPE   C2419003   2.711   3.645   3.218  0.1938 -1.3894  0.4209
  169SAPE   H4R19004   2.645   3.728   3.251 -0.1126 -0.4885 -2.2289
  169SAPE   H4S19005   2.806   3.703   3.225  0.5914 -1.6560 -1.8465
  169SAPE   C2519006   2.712   3.533   3.312 -0.1076 -0.3145 -0.4977
  169SAPE   H5R19007   2.749   3.437   3.272  0.0863 -0.2363 -0.5049
  169SAPE   C2619008   2.685   3.536   3.440  0.9987 -1.0615 -0.0726
  169SAPE   H6R19009   2.674   3.441   3.495  3.9668 -1.3355  0.1862
  169SAPE   C2719010   2.629   3.651   3.515 -0.0689  1.0434  0.3442
  169SAPE   H7R19011   2.551   3.713   3.466 -2.2244 -0.7132  1.3909
  169SAPE   H7S19012   2.715   3.710   3.553 -0.1123  1.6546 -0.4714
  169SAPE   C2819013   2.550   3.595   3.631 -0.1090 -0.2395  0.3716
  169SAPE   H8R19014   2.473   3.519   3.610 -0.1797  0.2274 -1.1725
  169SAPE   C2919015   2.570   3.623   3.765 -0.1436  0.2455  0.1924
  169SAPE   H9R19016   2.487   3.602   3.833 -0.8005  1.5773 -0.1714
  169SAPE  C21019017   2.661   3.727   3.819  0.3290  0.3200 -0.1121
  169SAPE  H10R19018   2.631   3.763   3.919 -0.2418  1.1810 -0.5725
  169SAPE  H10S19019   2.652   3.817   3.754 -0.2505 -1.1798 -2.2617
  169SAPE  C21119020   2.797   3.662   3.823 -0.7572  1.1797  0.5650
  169SAPE  H11R19021   2.816   3.567   3.773  0.9120  1.3530  0.8006
  169SAPE  C21219022   2.890   3.687   3.927  0.1753  0.6208 -0.1143
  169SAPE  H12R19023   2.979   3.622   3.932  0.0498  0.3187 -1.3837
  169SAPE  C21319024   2.881   3.811   4.018 -0.5345 -0.0271 -0.4212
  169SAPE  H13R19025   2.805   3.798   4.098 -0.5903 -2.5840 -0.7960
  169SAPE  H13S19026   2.852   3.899   3.957 -0.4797 -0.7319 -1.5012
  169SAPE  C21419027   3.015   3.847   4.074  0.0067  0.1908 -0.3192
  169SAPE  H14R19028   3.088   3.842   3.992  1.5877 -0.2352  1.0578
  169SAPE  C21519029   3.049   3.874   4.202 -0.0766  0.2266 -0.2846
  169SAPE  H15R19030   3.154   3.886   4.230  0.0317  0.0067 -0.6024
  169SAPE  C21619031   2.955   3.864   4.319  0.0382  1.1192 -0.2246
  169SAPE  H16R19032   2.849   3.894   4.304 -0.6520 -0.8432  0.3658
  169SAPE  H16S19033   3.002   3.927   4.398 -1.7830  1.1069  0.9393
  169SAPE  C21719034   2.957   3.725   4.389  0.3128  0.8156 -0.3903
  169SAPE  H17R19035   2.900   3.652   4.328  1.0887 -0.0042 -0.1465
  169SAPE  H17S19036   2.921   3.725   4.494 -0.4317  1.0733 -0.6415
  169SAPE  C21819037   3.094   3.666   4.402  0.0369  0.6331 -0.7611
  169SAPE  H18R19038   3.148   3.720   4.483 -3.0397  2.5884  0.1715
  169SAPE  H18S19039   3.154   3.662   4.310  2.2616 -2.2319  0.6723
  169SAPE  C21919040   3.077   3.515   4.446 -0.4969 -0.4749 -0.0417
  169SAPE  H19R19041   3.015   3.469   4.367  0.2313  0.6972 -1.3437
  169SAPE  H19S19042   3.022   3.515   4.543  0.4522  1.1358  0.5474
  169SAPE  C22019043   3.212   3.456   4.477  0.0835 -0.6692  0.0695
  169SAPE  H20R19044   3.258   3.533   4.543  0.8990  0.6567 -1.9084
  169SAPE  H20S19045   3.276   3.437   4.388 -1.0525 -0.9117 -0.7184
  169SAPE  H20T19046   3.200   3.360   4.530  1.6219 -1.2445 -0.5441
  169SAPE   C3319047   2.802   3.008   3.120  0.2815  0.6240 -0.4532
  169SAPE   H3X19048   2.856   3.098   3.157  0.1661  1.0163 -1.2189
  169SAPE   H3Y19049   2.871   2.921   3.130 -0.4417  0.1379  0.4336
  169SAPE   C3419050   2.674   2.986   3.204 -0.4508  0.1208 -0.1050
  169SAPE   H4X19051   2.606   2.926   3.139 -0.1772 -0.1488 -0.1480
  169SAPE   H4Y19052   2.647   3.092   3.224  1.7874  1.0842 -1.7623
  169SAPE   C3519053   2.695   2.912   3.331  0.8101  0.8949 -0.7463
  169SAPE   H5X19054   2.769   2.967   3.393  2.2157 -2.0589  0.3986
  169SAPE   H5Y19055   2.734   2.812   3.302 -0.8966  0.0625 -0.3216
  169SAPE   C3619056   2.557   2.884   3.401 -0.2300 -0.5198  0.2394
  169SAPE   H6X19057   2.498   2.821   3.331 -1.4902  2.7234 -1.8071
  169SAPE   H6Y19058   2.498   2.978   3.396  0.5412  0.0135  0.9284
  169SAPE   C3719059   2.554   2.828   3.543  0.0046  0.4689 -0.7923
  169SAPE   H7X19060   2.633   2.750   3.547  0.5709  1.0026 -1.3065
  169SAPE   H7Y19061   2.452   2.787   3.557  0.2472  0.2511  0.5753
  169SAPE   C3819062   2.588   2.931   3.656  0.7983 -0.2614 -0.6322
  169SAPE   H8X19063   2.527   3.021   3.637  1.4801  0.4568  0.4719
  169SAPE   H8Y19064   2.696   2.957   3.646  1.0266 -1.0587 -0.3349
  169SAPE   C3919065   2.573   2.882   3.813  0.6932 -0.4556  0.3421
  169SAPE   H9X19066   2.499   2.801   3.796  1.5969 -1.3776  0.6773
  169SAPE   H9Y19067   2.538   2.970   3.871  1.5745 -0.9518  1.6797
  169SAPE  C31019068   2.706   2.819   3.871 -0.1271 -0.2320  0.6745
  169SAPE  H10X19069   2.772   2.907   3.885 -1.4682  1.1314 -1.1804
  169SAPE  H10Y19070   2.742   2.748   3.794 -0.4866  0.0678  0.2243
  169SAPE  C31119071   2.673   2.742   3.995 -0.4286 -0.3403 -0.9375
  169SAPE  H11X19072   2.774   2.704   4.021  0.4546  0.8912 -2.3504
  169SAPE  H11Y19073   2.603   2.662   3.963 -1.8698  0.8463 -0.8916
  169SAPE  C31219074   2.608   2.817   4.117  0.6833 -0.1708  0.3294
  169SAPE  H12X19075   2.629   2.752   4.205 -0.6595 -1.4868 -0.2678
  169SAPE  H12Y19076   2.500   2.839   4.105  0.4779 -0.2070  1.8770
  169SAPE  C31319077   2.686   2.944   4.161  0.6059 -0.3520  0.6416
  169SAPE  H13X19078   2.674   3.030   4.093 -0.7211 -0.0803  1.1861
  169SAPE  H13Y19079   2.793   2.915   4.158  0.4493 -0.9237  0.3762
  169SAPE  C31419080   2.638   3.006   4.298 -0.3845  0.8464 -0.2610
  169SAPE  H14X19081   2.639   2.933   4.382 -0.9777  0.4093 -0.6330
  169SAPE  H14Y19082   2.531   3.031   4.281 -1.4984 -2.9699  0.3764
  169SAPE  C31519083   2.708   3.134   4.340  0.4805  0.4695  0.4224
  169SAPE  H15X19084   2.693   3.217   4.268  0.8832  0.3501  0.1984
  169SAPE  H15Y19085   2.818   3.118   4.337  0.3735 -0.1919 -1.2243
  169SAPE  C31619086   2.660   3.185   4.478 -0.1409 -0.2883 -0.8383
  169SAPE  H16X19087   2.677   3.107   4.555  1.2515  0.1050 -0.7208
  169SAPE  H16Y19088   2.554   3.218   4.478 -0.3369 -0.8963 -1.1270
  169SAPE  C31719089   2.754   3.300   4.525  0.6082  0.3292 -0.0589
  169SAPE  H17X19090   2.855   3.283   4.481  0.4444  0.6288 -0.5584
  169SAPE  H17Y19091   2.764   3.295   4.636 -1.7893  1.2880  0.2566
  169SAPE  C31819092   2.708   3.450   4.502 -0.1603  0.4785  0.2073
  169SAPE  H18X19093   2.767   3.515   4.570 -2.4846 -0.0482  2.9247
  169SAPE  H18Y19094   2.603   3.462   4.534 -0.3516  0.9734 -0.5762
  169SAPE  H18Z19095   2.725   3.479   4.396  1.4766  1.3203  0.6619
  170SAPE     N19096   2.705   3.932   2.340  0.2151  0.5776  0.4023
  170SAPE   HN119097   2.612   3.936   2.386 -0.1932  1.9345 -0.5097
  170SAPE   HN219098   2.701   4.004   2.265  0.2743  0.3231  0.1524
  170SAPE   HN319099   2.716   3.836   2.301 -1.2194 -0.1638  1.7023
  170SAPE   C1219100   2.825   3.952   2.421  0.0182 -0.1950 -0.8922
  170SAPE  H12A19101   2.918   3.926   2.366  1.1400 -3.3559  2.0672
  170SAPE  H12B19102   2.836   3.870   2.496 -0.2615  1.5901  1.1985
  170SAPE   C1119103   2.829   4.097   2.479  0.1854  0.2492 -0.5240
  170SAPE  H11A19104   2.925   4.106   2.535 -0.4206  2.7146  0.2200
  170SAPE  H11B19105   2.750   4.106   2.557  1.5683 -1.4984  1.2024
  170SAPE     P19106   2.923   4.323   2.380  0.0966  0.4140 -0.2699
  170SAPE   O1319107   3.056   4.282   2.327  0.4801  0.8700 -0.8393
  170SAPE   O1419108   2.855   4.434   2.311 -0.4363  0.3754 -0.0663
  170SAPE   O1219109   2.832   4.195   2.374  0.5167 -0.0919 -0.1801
  170SAPE   O1119110   2.927   4.345   2.534  0.1820  0.3455 -0.4781
  170SAPE    C119111   2.817   4.388   2.612  0.0236  0.7468 -0.5812
  170SAPE    HA19112   2.723   4.406   2.556  0.6566 -0.4847 -2.1044
  170SAPE    HB19113   2.808   4.320   2.700  3.1320  0.2080 -0.5432
  170SAPE    C219114   2.857   4.526   2.673 -0.0818  0.2290  0.7988
  170SAPE    HS19115   2.888   4.591   2.589 -2.2055 -0.7456 -0.8454
  170SAPE   O2119116   2.966   4.499   2.762 -0.4023 -0.2397 -0.2044
  170SAPE   C2119117   3.045   4.603   2.782  0.2397  0.2263  0.7273
  170SAPE   O2219118   3.038   4.712   2.725  0.1076  0.3718  0.4249
  170SAPE   C2219119   3.156   4.563   2.868  0.1676 -0.0871  0.4803
  170SAPE   H2R19120   3.230   4.506   2.809  0.5722  0.5516  0.3592
  170SAPE   H2S19121   3.193   4.661   2.906  1.4902 -0.5118  0.3366
  170SAPE    C319122   2.744   4.593   2.750 -0.6420  0.2158  0.0595
  170SAPE    HX19123   2.656   4.605   2.683 -1.0931  2.0148  0.9007
  170SAPE    HY19124   2.774   4.699   2.765  1.5583 -0.3746  0.0901
  170SAPE   O3119125   2.703   4.523   2.871 -0.2667 -0.2828  0.6508
  170SAPE   C3119126   2.742   4.580   2.977 -0.0020  0.0587 -0.4367
  170SAPE   O3219127   2.803   4.684   2.989  0.2506  0.3090  0.2574
  170SAPE   C3219128   2.729   4.480   3.097  0.6880  0.3180 -0.1465
  170SAPE   H2X19129   2.796   4.392   3.088  0.8093  0.2403  1.3689
  170SAPE   H2Y19130   2.632   4.429   3.080  0.2825  0.9032  0.3561
  170SAPE   C2319131   3.114   4.488   3.002  0.4868  0.5393  0.2034
  170SAPE   H3R19132   3.119   4.377   2.999 -1.1178  0.3536  2.3233
  170SAPE   H3S19133   3.009   4.520   3.016  1.1531  2.1671  2.0058
  170SAPE   C2419134   3.196   4.529   3.125 -0.1053 -0.5255 -0.2154
  170SAPE   H4R19135   3.305   4.509   3.114 -0.1038 -1.1730  0.8375
  170SAPE   H4S19136   3.178   4.454   3.205  3.0690  0.8518  1.9897
  170SAPE   C2519137   3.168   4.679   3.160 -0.6197  0.7060  0.1144
  170SAPE   H5R19138   3.153   4.752   3.079  0.7099  1.0117  0.1087
  170SAPE   C2619139   3.161   4.726   3.289  0.6429 -0.0207 -0.3670
  170SAPE   H6R19140   3.136   4.832   3.301 -0.3844 -0.2011 -0.7723
  170SAPE   C2719141   3.183   4.642   3.412 -0.5693  0.1813  0.4893
  170SAPE   H7R19142   3.292   4.619   3.411 -0.1721  1.3218  3.7297
  170SAPE   H7S19143   3.132   4.544   3.420  1.1512 -0.6537  2.1376
  170SAPE   C2819144   3.139   4.706   3.539  0.1242 -0.0509 -0.1479
  170SAPE   H8R19145   3.033   4.732   3.547  0.1563  0.1899 -0.4492
  170SAPE   C2919146   3.217   4.747   3.641  0.2528 -0.4842 -0.4489
  170SAPE   H9R19147   3.174   4.795   3.730 -2.6800  1.9698 -2.9215
  170SAPE  C21019148   3.369   4.727   3.647  0.0200 -0.6824 -0.6812
  170SAPE  H10R19149   3.421   4.820   3.615 -1.2536 -0.9472 -3.9436
  170SAPE  H10S19150   3.394   4.646   3.574  0.0863  0.4027 -1.9129
  170SAPE  C21119151   3.418   4.672   3.782 -0.3407  0.3625  0.0100
  170SAPE  H11R19152   3.381   4.574   3.815  1.8654  0.4194  3.1257
  170SAPE  C21219153   3.512   4.726   3.869  0.2340  0.2380  0.0678
  170SAPE  H12R19154   3.532   4.674   3.964 -0.4433 -0.6347 -0.2520
  170SAPE  C21319155   3.587   4.862   3.863  0.6697  0.1402 -0.2727
  170SAPE  H13R19156   3.583   4.911   3.764 -0.5343  1.3381  0.3367
  170SAPE  H13S19157   3.693   4.847   3.894 -0.1926 -2.7657  1.7933
  170SAPE  C21419158   3.528   4.974   3.952 -0.4206 -0.0446  0.3810
  170SAPE  H14R19159   3.467   5.042   3.891 -1.1263 -0.9594  0.0491
  170SAPE  C21519160   3.532   4.988   4.085  0.4045  0.3009  0.1955
  170SAPE  H15R19161   3.460   5.063   4.120  2.4860  2.3872  0.2900
  170SAPE  C21619162   3.599   4.921   4.198  0.3342  0.5396  0.6382
  170SAPE  H16R19163   3.632   4.820   4.165  1.1942  0.1361  2.5912
  170SAPE  H16S19164   3.529   4.908   4.284 -0.0960  1.7882  0.4894
  170SAPE  C21719165   3.722   4.996   4.250  0.0024 -0.6528 -0.4283
  170SAPE  H17R19166   3.807   5.022   4.184  1.6351 -0.4483  1.6291
  170SAPE  H17S19167   3.769   4.918   4.314 -1.0670 -0.6277  0.4171
  170SAPE  C21819168   3.672   5.126   4.329  0.1832  0.0993 -0.1265
  170SAPE  H18R19169   3.579   5.091   4.379  0.6047  1.2136  1.5035
  170SAPE  H18S19170   3.655   5.204   4.251 -0.5921  1.1151  1.0303
  170SAPE  C21919171   3.770   5.180   4.432  0.6501 -0.3242  0.2915
  170SAPE  H19R19172   3.790   5.094   4.500  1.3100  0.2242  0.7958
  170SAPE  H19S19173   3.713   5.254   4.492  2.2694 -0.4938  2.1463
  170SAPE  C22019174   3.904   5.235   4.373 -0.0135 -0.1202  0.0580
  170SAPE  H20R19175   3.979   5.246   4.455 -0.5187  0.0033  0.5083
  170SAPE  H20S19176   3.887   5.325   4.310 -0.5625 -0.5839 -0.4662
  170SAPE  H20T19177   3.934   5.160   4.297 -1.0439  0.4091 -0.8844
  170SAPE   C3319178   2.733   4.557   3.226 -0.3534 -0.3065 -0.5660
  170SAPE   H3X19179   2.657   4.637   3.241  2.6298  2.6406  0.0950
  170SAPE   H3Y19180   2.827   4.615   3.243 -0.9382  0.5934 -0.3096
  170SAPE   C3419181   2.733   4.458   3.346  0.3023  0.1814  0.7504
  170SAPE   H4X19182   2.834   4.411   3.348 -0.1456 -0.7728  2.5357
  170SAPE   H4Y19183   2.664   4.373   3.327  2.3094 -1.0058 -2.0320
  170SAPE   C3519184   2.714   4.527   3.473  0.7750  0.4219 -0.1295
  170SAPE   H5X19185   2.607   4.540   3.497  0.5803  1.0621 -1.2952
  170SAPE   H5Y19186   2.759   4.628   3.463 -1.9618  1.7036 -0.3295
  170SAPE   C3619187   2.774   4.458   3.593 -0.0457 -0.6952  0.1328
  170SAPE   H6X19188   2.884   4.456   3.577 -0.0895  0.3653 -0.4103
  170SAPE   H6Y19189   2.731   4.357   3.607  0.9037 -1.1019  0.1956
  170SAPE   C3719190   2.744   4.536   3.720 -0.2559  0.6611  0.4725
  170SAPE   H7X19191   2.634   4.550   3.721 -0.5395 -1.3298  1.1997
  170SAPE   H7Y19192   2.797   4.633   3.706 -1.1922  1.2835  1.0774
  170SAPE   C3819193   2.802   4.470   3.843  0.2164 -0.0963 -0.7881
  170SAPE   H8X19194   2.907   4.439   3.824  0.2357  0.5742 -1.8634
  170SAPE   H8Y19195   2.735   4.385   3.867  1.5042 -1.1341 -0.7832
  170SAPE   C3919196   2.802   4.564   3.970  0.1042 -0.6361 -0.0134
  170SAPE   H9X19197   2.879   4.642   3.953 -0.5806 -0.3927 -2.4219
  170SAPE   H9Y19198   2.858   4.514   4.051  0.9943  0.7330  0.2528
  170SAPE  C31019199   2.664   4.624   4.007  0.0970  0.6256  0.3005
  170SAPE  H10X19200   2.595   4.537   4.015  0.9832 -0.1454 -0.2044
  170SAPE  H10Y19201   2.632   4.692   3.925  1.6254  2.1966  0.9483
  170SAPE  C31119202   2.664   4.682   4.152  0.3838 -0.5595  0.2823
  170SAPE  H11X19203   2.577   4.751   4.156  0.1604 -0.7391 -1.1437
  170SAPE  H11Y19204   2.751   4.751   4.152  2.1694 -2.6817  0.0336
  170SAPE  C31219205   2.665   4.578   4.264  0.2122  0.3827  0.5214
  170SAPE  H12X19206   2.762   4.523   4.256  1.4162  2.6370 -1.7582
  170SAPE  H12Y19207   2.584   4.503   4.258 -0.3326  1.0027 -0.1293
  170SAPE  C31319208   2.659   4.633   4.408  0.3696  0.5923  0.2185
  170SAPE  H13X19209   2.650   4.558   4.489 -0.1199  1.3602  0.8851
  170SAPE  H13Y19210   2.566   4.693   4.421 -0.8006 -1.2270  0.6940
  170SAPE  C31419211   2.780   4.717   4.442  0.2058 -0.0081 -0.1571
  170SAPE  H14X19212   2.807   4.785   4.358  0.1492  1.6433  1.0983
  170SAPE  H14Y19213   2.861   4.642   4.453 -2.3805 -2.9215  0.2540
  170SAPE  C31519214   2.779   4.811   4.565 -0.1809 -0.4608  0.0934
  170SAPE  H15X19215   2.731   4.904   4.528  2.0731  0.9045  0.4131
  170SAPE  H15Y19216   2.886   4.840   4.578 -0.5547  1.6434 -1.1420
  170SAPE  C31619217   2.726   4.745   4.703 -0.1209 -0.6726  0.8127
  170SAPE  H16X19218   2.808   4.680   4.740  0.6773  0.5523  1.2850
  170SAPE  H16Y19219   2.628   4.695   4.688 -0.3530  0.2225 -0.8781
  170SAPE  C31719220   2.702   4.857   4.808  0.1600 -0.5798 -0.7001
  170SAPE  H17X19221   2.647   4.937   4.753 -0.0106 -0.7868 -0.8314
  170SAPE  H17Y19222   2.789   4.896   4.864 -1.4591  0.5416  1.1620
  170SAPE  C31819223   2.609   4.814   4.922  0.3238  0.3849  0.0732
  170SAPE  H18X19224   2.653   4.725   4.974 -3.3297 -1.7062 -0.0514
  170SAPE  H18Y19225   2.505   4.782   4.902 -0.0524  0.7955  1.2986
  170SAPE  H18Z19226   2.596   4.899   4.993 -1.9121 -0.1004  0.3060
  171SAPE     N19227   3.783   3.715   2.555  0.6131  0.2183  0.7918
  171SAPE   HN119228   3.711   3.693   2.627 -1.0960  3.2539  0.2145
  171SAPE   HN219229   3.725   3.735   2.471  0.8208  3.8760  1.3674
  171SAPE   HN319230   3.839   3.628   2.555  0.1752 -0.0945 -0.5734
  171SAPE   C1219231   3.860   3.843   2.592  0.3020 -0.3941 -0.5156
  171SAPE  H12A19232   3.959   3.838   2.542 -0.0723 -1.6091 -1.1511
  171SAPE  H12B19233   3.883   3.841   2.701 -0.6374  0.7351 -0.2681
  171SAPE   C1119234   3.795   3.974   2.540  0.0539 -0.5198  0.4330
  171SAPE  H11A19235   3.769   3.951   2.434 -3.8905  3.5054  0.2100
  171SAPE  H11B19236   3.871   4.055   2.547  0.2343 -0.8056  2.3460
  171SAPE     P19237   3.629   4.158   2.608  0.2247 -0.2609  0.2706
  171SAPE   O1319238   3.662   4.223   2.476  0.2823  0.7182 -0.2437
  171SAPE   O1419239   3.488   4.163   2.649 -0.3026  0.2455  0.0420
  171SAPE   O1219240   3.669   4.010   2.600  0.5879 -0.6965  0.5018
  171SAPE   O1119241   3.729   4.217   2.712 -0.1195 -0.6559  0.4688
  171SAPE    C119242   3.759   4.156   2.838  0.8117  0.8005  0.4623
  171SAPE    HA19243   3.737   4.048   2.845  0.2112  0.7304 -1.6871
  171SAPE    HB19244   3.866   4.169   2.865  1.2959 -1.9938  0.1600
  171SAPE    C219245   3.687   4.236   2.948  0.3055 -0.3352  0.1866
  171SAPE    HS19246   3.578   4.222   2.930  0.9565 -1.7306 -3.5797
  171SAPE   O2119247   3.726   4.372   2.950 -0.3088 -0.2516  0.4372
  171SAPE   C2119248   3.628   4.462   2.967  0.4720 -0.6179  0.5184
  171SAPE   O2219249   3.513   4.428   2.967  0.0618  0.3579  0.0293
  171SAPE   C2219250   3.688   4.605   2.993 -0.0813 -0.0228 -0.3122
  171SAPE   H2R19251   3.794   4.600   3.026 -0.2294  0.9461  0.3704
  171SAPE   H2S19252   3.685   4.654   2.893 -0.3764  0.6323  0.0092
  171SAPE    C319253   3.724   4.175   3.087  0.7066  0.0263 -0.4161
  171SAPE    HX19254   3.833   4.198   3.090  1.1483 -1.2335 -3.1613
  171SAPE    HY19255   3.715   4.065   3.097  0.6737  0.2253  2.6796
  171SAPE   O3119256   3.655   4.241   3.192 -0.4420  0.5607  0.3885
  171SAPE   C3119257   3.535   4.191   3.218 -0.3712 -0.1288  0.1062
  171SAPE   O3219258   3.488   4.095   3.156 -0.0985  0.6229 -0.4136
  171SAPE   C3219259   3.474   4.288   3.316  0.3295  0.5103 -0.1287
  171SAPE   H2X19260   3.433   4.370   3.253 -2.1952 -0.1497  0.5362
  171SAPE   H2Y19261   3.550   4.326   3.388  1.1753  1.8777 -1.6638
  171SAPE   C2319262   3.604   4.697   3.082  0.3695 -0.6082 -0.5621
  171SAPE   H3R19263   3.498   4.694   3.048 -0.5224  1.5219  1.7559
  171SAPE   H3S19264   3.640   4.801   3.068 -0.0773 -0.2787  0.6173
  171SAPE   C2419265   3.613   4.659   3.228 -0.2616  0.2757  0.0439
  171SAPE   H4R19266   3.544   4.574   3.245 -1.3733  1.3601  1.0502
  171SAPE   H4S19267   3.563   4.748   3.270  1.4472  1.1700  0.2858
  171SAPE   C2519268   3.745   4.651   3.295 -0.1643 -0.4038 -0.7531
  171SAPE   H5R19269   3.823   4.595   3.241  1.8211  1.9833 -0.5463
  171SAPE   C2619270   3.789   4.720   3.400  0.1827 -0.7704 -0.2060
  171SAPE   H6R19271   3.892   4.707   3.436  0.3403  3.0428  1.1716
  171SAPE   C2719272   3.720   4.820   3.483 -0.5791 -1.2965  0.3657
  171SAPE   H7R19273   3.733   4.780   3.586  2.6516 -1.4297  0.0043
  171SAPE   H7S19274   3.613   4.825   3.454 -0.5204 -0.9784  0.1996
  171SAPE   C2819275   3.774   4.963   3.461  0.1847 -0.4986  0.4535
  171SAPE   H8R19276   3.762   4.992   3.356 -1.5470 -2.2215  0.1128
  171SAPE   C2919277   3.824   5.043   3.554  0.2159 -0.7255  1.2642
  171SAPE   H9R19278   3.863   5.144   3.535 -0.0406 -0.3758  2.4972
  171SAPE  C21019279   3.851   5.010   3.698 -0.1306  0.0139  0.6370
  171SAPE  H10R19280   3.846   4.902   3.723 -2.6247  0.1507  1.0134
  171SAPE  H10S19281   3.763   5.040   3.760 -0.1517  0.4740  0.3888
  171SAPE  C21119282   3.977   5.070   3.755 -0.3300  0.0715  0.5064
  171SAPE  H11R19283   4.071   5.013   3.747  0.1452  1.1411 -2.6116
  171SAPE  C21219284   3.985   5.202   3.800 -0.7952 -1.1078  0.6068
  171SAPE  H12R19285   4.081   5.232   3.843 -0.0339  0.0056 -1.6980
  171SAPE  C21319286   3.876   5.309   3.817 -0.3397  0.5756  0.2928
  171SAPE  H13R19287   3.828   5.331   3.719  0.0291  2.1821  0.4289
  171SAPE  H13S19288   3.936   5.400   3.843  0.4691  0.2940 -0.5289
  171SAPE  C21419289   3.771   5.283   3.919 -0.3553 -0.0951 -0.0896
  171SAPE  H14R19290   3.732   5.180   3.915  1.8028 -0.9358 -1.0931
  171SAPE  C21519291   3.708   5.385   3.976  0.3114  0.2976 -0.4333
  171SAPE  H15R19292   3.622   5.345   4.033  0.0555 -1.3695 -1.8923
  171SAPE  C21619293   3.717   5.530   3.972  0.9353  0.2374 -0.7972
  171SAPE  H16R19294   3.649   5.561   3.890 -0.0492 -1.6915 -0.7560
  171SAPE  H16S19295   3.818   5.556   3.934  0.2629  1.2241 -1.9678
  171SAPE  C21719296   3.686   5.618   4.094 -0.1010  0.2654  0.0589
  171SAPE  H17R19297   3.580   5.605   4.127 -0.5594 -0.9555 -1.6930
  171SAPE  H17S19298   3.691   5.721   4.053 -1.4323  0.4845  0.3921
  171SAPE  C21819299   3.787   5.606   4.212 -0.8908 -0.3524 -0.0576
  171SAPE  H18R19300   3.895   5.599   4.185 -0.5735  0.7969  0.8202
  171SAPE  H18S19301   3.756   5.510   4.258 -1.2635 -0.2787 -0.1562
  171SAPE  C21919302   3.771   5.716   4.308  0.2311 -0.2388  0.4533
  171SAPE  H19R19303   3.824   5.682   4.400  2.4761  1.9146  0.0636
  171SAPE  H19S19304   3.661   5.727   4.324  0.0412  0.4034 -1.1345
  171SAPE  C22019305   3.827   5.848   4.257 -0.7015  0.2019  0.3525
  171SAPE  H20R19306   3.835   5.912   4.348  2.6611  1.4156 -0.6290
  171SAPE  H20S19307   3.766   5.902   4.182  0.8163  0.6130 -0.6260
  171SAPE  H20T19308   3.926   5.838   4.207 -1.7782  2.2361 -2.4106
  171SAPE   C3319309   3.353   4.235   3.396  0.5282  0.2828 -0.0217
  171SAPE   H3X19310   3.270   4.218   3.324 -0.3462 -0.8676  1.2082
  171SAPE   H3Y19311   3.317   4.316   3.462  0.3807 -0.2646  0.5794
  171SAPE   C3419312   3.372   4.096   3.469 -0.5858 -0.8477 -0.4614
  171SAPE   H4X19313   3.407   4.021   3.395 -1.3520 -1.7378  0.0393
  171SAPE   H4Y19314   3.273   4.067   3.511 -0.6814  1.0568  0.7522
  171SAPE   C3519315   3.467   4.112   3.591  0.0534 -0.3745 -0.0202
  171SAPE   H5X19316   3.437   4.206   3.643  1.8062  0.3527 -0.2259
  171SAPE   H5Y19317   3.572   4.134   3.561 -0.1813 -0.6640 -1.0732
  171SAPE   C3619318   3.457   3.988   3.690 -0.4596 -0.4316 -0.8716
  171SAPE   H6X19319   3.505   3.904   3.636  1.8572  0.9148 -1.0945
  171SAPE   H6Y19320   3.349   3.971   3.705 -0.4375  0.4166  0.4452
  171SAPE   C3719321   3.524   4.002   3.834  0.0115  0.2710  0.2841
  171SAPE   H7X19322   3.458   4.078   3.882  0.8423  1.1487  0.0485
  171SAPE   H7Y19323   3.629   4.031   3.816  0.2099 -1.0432 -0.8563
  171SAPE   C3819324   3.517   3.876   3.915 -1.1593 -0.5425  0.3075
  171SAPE   H8X19325   3.514   3.786   3.849 -0.1622  0.4024 -1.0829
  171SAPE   H8Y19326   3.423   3.866   3.974 -0.6102  0.1799  1.3439
  171SAPE   C3919327   3.634   3.868   4.014 -0.1987  0.2624 -0.6594
  171SAPE   H9X19328   3.727   3.866   3.954  0.5244 -0.6102  0.4371
  171SAPE   H9Y19329   3.620   3.768   4.060 -3.1259  1.3675  1.1374
  171SAPE  C31019330   3.652   3.985   4.118  0.4306  0.1468 -0.3338
  171SAPE  H10X19331   3.562   3.984   4.184  0.6341  0.1693 -0.0524
  171SAPE  H10Y19332   3.658   4.089   4.079  1.1277  0.9116  1.6900
  171SAPE  C31119333   3.772   3.963   4.216 -0.1301  0.4255  0.2913
  171SAPE  H11X19334   3.804   3.858   4.195 -0.8042  0.6185 -1.9485
  171SAPE  H11Y19335   3.749   3.981   4.323  1.3047  0.6024  0.5989
  171SAPE  C31219336   3.899   4.053   4.202  0.8700  0.1879 -0.1727
  171SAPE  H12X19337   3.970   4.048   4.287 -0.1491 -1.3943  0.6128
  171SAPE  H12Y19338   3.873   4.161   4.203 -0.3244 -0.0886 -0.5766
  171SAPE  C31319339   3.976   4.023   4.070  0.1879  0.4564 -0.5929
  171SAPE  H13X19340   3.907   4.056   3.989 -0.2976 -1.1125 -0.8630
  171SAPE  H13Y19341   3.994   3.913   4.065  1.6145  0.6169  0.5368
  171SAPE  C31419342   4.105   4.099   4.050 -0.3413 -0.3874 -0.2431
  171SAPE  H14X19343   4.090   4.209   4.057  0.4871 -0.1268 -2.0945
  171SAPE  H14Y19344   4.148   4.082   3.949 -0.2990 -2.2042  0.0387
  171SAPE  C31519345   4.220   4.057   4.137 -0.6981 -0.5375 -0.1888
  171SAPE  H15X19346   4.233   3.956   4.093  0.1369  0.1092 -1.5193
  171SAPE  H15Y19347   4.193   4.058   4.244  0.5437  0.5733  0.1347
  171SAPE  C31619348   4.359   4.114   4.108 -0.5355 -1.0916  0.4186
  171SAPE  H16X19349   4.357   4.224   4.116 -2.4088 -1.1470  1.1917
  171SAPE  H16Y19350   4.387   4.100   4.002 -0.5392 -0.2806  0.3102
  171SAPE  C31719351   4.469   4.062   4.205 -0.3915 -0.6937 -0.0097
  171SAPE  H17X19352   4.427   4.054   4.308 -0.6007  1.3776  0.1095
  171SAPE  H17Y19353   4.555   4.132   4.202  0.7821 -2.1011 -0.2300
  171SAPE  C31819354   4.528   3.922   4.170 -0.6196  0.3500  0.7425
  171SAPE  H18X19355   4.602   3.923   4.087 -0.2969 -0.1134  1.0182
  171SAPE  H18Y19356   4.439   3.857   4.153 -1.3975  1.0944  1.8366
  171SAPE  H18Z19357   4.579   3.882   4.260 -0.5766 -0.2115  0.4705
  172SAPE     N19358   1.845   5.718   1.992 -0.5443  0.3531  0.4821
  172SAPE   HN119359   1.814   5.801   1.937 -1.0791  0.0719  0.3515
  172SAPE   HN219360   1.784   5.637   1.968  0.6448 -0.0558 -1.3836
  172SAPE   HN319361   1.823   5.751   2.088 -3.5580 -0.5280  0.1802
  172SAPE   C1219362   1.995   5.714   1.986  0.0055  0.5487 -1.1945
  172SAPE  H12A19363   2.036   5.690   1.886 -1.3789 -2.4628 -1.1519
  172SAPE  H12B19364   2.037   5.636   2.053  0.7391  1.7229 -0.2563
  172SAPE   C1119365   2.049   5.844   2.039 -0.4063 -0.1694  0.7761
  172SAPE  H11A19366   2.025   5.919   1.961 -0.7744 -0.1002  0.9539
  172SAPE  H11B19367   2.159   5.853   2.051 -0.2130  0.2616 -1.0428
  172SAPE     P19368   2.006   6.011   2.230  0.3960 -0.1821  0.1447
  172SAPE   O1319369   2.144   6.017   2.275 -0.3715 -0.4408 -0.0425
  172SAPE   O1419370   1.945   6.126   2.165  0.3233 -0.7028 -0.7525
  172SAPE   O1219371   1.980   5.876   2.158  0.2052  0.1080 -0.2816
  172SAPE   O1119372   1.926   5.988   2.361 -0.3181  0.3961 -0.1002
  172SAPE    C119373   1.950   5.879   2.457  0.2195 -0.0688  0.3411
  172SAPE    HA19374   1.859   5.817   2.474  0.5794 -0.7561 -0.1637
  172SAPE    HB19375   2.021   5.803   2.418 -1.0278 -1.3519  0.4575
  172SAPE    C219376   2.014   5.931   2.592 -0.6708 -0.3168  0.0221
  172SAPE    HS19377   2.031   5.846   2.661  0.0051  0.1386  0.4313
  172SAPE   O2119378   1.918   6.024   2.652 -0.1524 -0.2134  0.2220
  172SAPE   C2119379   1.811   5.966   2.712 -0.4894 -0.5739  0.4099
  172SAPE   O2219380   1.790   5.848   2.731  0.2920 -0.0300  0.1124
  172SAPE   C2219381   1.709   6.074   2.748 -0.1656  0.1789 -0.5105
  172SAPE   H2R19382   1.664   6.119   2.657  0.1531  1.8671  0.1246
  172SAPE   H2S19383   1.620   6.030   2.798 -3.4037  5.3336 -0.9522
  172SAPE    C319384   2.160   5.990   2.584  0.6420 -0.1264  0.2740
  172SAPE    HX19385   2.156   6.076   2.514  0.9353  0.2136  0.6715
  172SAPE    HY19386   2.233   5.922   2.533  0.4778  0.4460 -0.7491
  172SAPE   O3119387   2.208   6.027   2.714 -0.2473  0.1063  0.2570
  172SAPE   C3119388   2.212   6.157   2.737  0.2321 -0.2719 -0.4866
  172SAPE   O3219389   2.194   6.244   2.658  0.0503 -0.2071 -0.2945
  172SAPE   C3219390   2.250   6.171   2.883 -0.5775  0.3593 -0.1063
  172SAPE   H2X19391   2.276   6.278   2.900  0.1035  0.3250 -0.8892
  172SAPE   H2Y19392   2.332   6.099   2.903 -0.3316  0.2816 -1.3159
  172SAPE   C2319393   1.764   6.170   2.862 -0.4107 -0.3597 -0.4881
  172SAPE   H3R19394   1.691   6.250   2.886 -2.2626 -2.8054  2.9860
  172SAPE   H3S19395   1.859   6.218   2.831 -0.1349 -0.3344  0.3841
  172SAPE   C2419396   1.782   6.094   3.004  0.4988 -0.9942  0.1773
  172SAPE   H4R19397   1.872   6.030   2.995  0.9138 -0.3468 -0.3360
  172SAPE   H4S19398   1.686   6.038   3.010  0.0320 -0.1050  1.3768
  172SAPE   C2519399   1.797   6.192   3.125  0.4304 -0.0526  0.8570
  172SAPE   H5R19400   1.894   6.243   3.128  0.5054 -0.2142  3.4673
  172SAPE   C2619401   1.711   6.207   3.229 -0.1899  0.9842  0.6740
  172SAPE   H6R19402   1.725   6.282   3.308 -0.7113  0.9235  0.8264
  172SAPE   C2719403   1.577   6.131   3.235 -0.5014 -0.5487 -0.6085
  172SAPE   H7R19404   1.604   6.023   3.239  1.8656  0.0043  0.2922
  172SAPE   H7S19405   1.522   6.135   3.139 -2.0893  0.5426  0.3023
  172SAPE   C2819406   1.486   6.174   3.347  0.0298 -0.0095  0.6122
  172SAPE   H8R19407   1.418   6.258   3.326  0.2604 -0.4125 -2.0141
  172SAPE   C2919408   1.494   6.141   3.481  0.8100 -0.8454  0.3491
  172SAPE   H9R19409   1.423   6.192   3.547 -0.8835 -1.1579 -1.1608
  172SAPE  C21019410   1.586   6.049   3.553 -0.1553 -0.2270 -0.7290
  172SAPE  H10R19411   1.673   6.018   3.493  1.5264 -1.9237  2.3224
  172SAPE  H10S19412   1.533   5.959   3.590  0.7179 -0.2352  0.5865
  172SAPE  C21119413   1.641   6.126   3.667 -0.6663 -0.1642  0.8674
  172SAPE  H11R19414   1.719   6.198   3.636 -0.8687 -1.1195 -2.1686
  172SAPE  C21219415   1.588   6.125   3.792 -0.4768 -0.5889 -0.5672
  172SAPE  H12R19416   1.638   6.189   3.867 -0.0944 -0.0366 -1.2778
  172SAPE  C21319417   1.474   6.039   3.836 -0.5322  0.3702 -0.6383
  172SAPE  H13R19418   1.432   5.980   3.752  1.4331 -2.9476  0.5159
  172SAPE  H13S19419   1.396   6.115   3.857 -0.5101  0.5207 -1.1071
  172SAPE  C21419420   1.490   5.944   3.950  0.0753 -0.3444  0.4930
  172SAPE  H14R19421   1.538   5.851   3.917 -1.1116 -0.0691 -2.2694
  172SAPE  C21519422   1.451   5.962   4.077  0.9849  0.9939 -0.4961
  172SAPE  H15R19423   1.462   5.880   4.149  0.2914  1.6206  0.3555
  172SAPE  C21619424   1.378   6.079   4.133  0.0058  0.0079 -0.1815
  172SAPE  H16R19425   1.283   6.045   4.180  1.0091 -1.9137  0.5891
  172SAPE  H16S19426   1.352   6.155   4.056 -0.3304 -0.9672 -1.0529
  172SAPE  C21719427   1.470   6.150   4.235 -0.6529 -0.4092  0.2335
  172SAPE  H17R19428   1.556   6.187   4.175 -1.2502  0.0299 -0.3597
  172SAPE  H17S19429   1.520   6.081   4.307  0.8867 -0.1726 -0.5644
  172SAPE  C21819430   1.389   6.257   4.313  0.4241 -0.2342 -0.5439
  172SAPE  H18R19431   1.293   6.219   4.353 -0.2346  2.1689  0.3238
  172SAPE  H18S19432   1.365   6.329   4.232 -0.5589 -0.2709 -0.2997
  172SAPE  C21919433   1.476   6.315   4.421  0.9063  0.2226 -0.0561
  172SAPE  H19R19434   1.557   6.359   4.359  1.3383  1.2710  1.1874
  172SAPE  H19S19435   1.516   6.232   4.482 -0.7366  1.3403  2.7476
  172SAPE  C22019436   1.407   6.426   4.502 -0.2426 -0.4039 -0.2979
  172SAPE  H20R19437   1.473   6.475   4.577  1.2967 -1.8048 -0.6704
  172SAPE  H20S19438   1.318   6.385   4.555 -2.5870  0.6145 -3.1375
  172SAPE  H20T19439   1.375   6.501   4.427 -0.8580 -0.4405 -0.0796
  172SAPE   C3319440   2.132   6.142   2.982  0.3745  0.8119 -0.2461
  172SAPE   H3X19441   2.081   6.047   2.952 -0.1131  1.4735 -1.6113
  172SAPE   H3Y19442   2.047   6.213   2.973 -0.0348  0.2074 -1.3236
  172SAPE   C3419443   2.175   6.156   3.131  0.1373 -0.0382 -0.7407
  172SAPE   H4X19444   2.088   6.204   3.182  0.7588  1.1687 -0.7642
  172SAPE   H4Y19445   2.255   6.233   3.130 -1.8831  2.2201  0.5951
  172SAPE   C3519446   2.218   6.024   3.192  0.0062  0.8310 -0.0968
  172SAPE   H5X19447   2.304   5.984   3.135  1.0097 -0.7497  2.3209
  172SAPE   H5Y19448   2.133   5.953   3.178  0.1220 -0.5488  4.4134
  172SAPE   C3619449   2.254   6.032   3.342  0.2079 -0.5538 -0.4190
  172SAPE   H6X19450   2.353   6.081   3.347 -0.4968  1.0844 -1.4434
  172SAPE   H6Y19451   2.253   5.933   3.392 -0.6755 -0.9650 -1.2200
  172SAPE   C3719452   2.149   6.120   3.416  0.8955  0.6838 -0.1941
  172SAPE   H7X19453   2.051   6.092   3.373 -1.1264  1.3099  3.6013
  172SAPE   H7Y19454   2.175   6.227   3.398  1.1058  0.9234  1.4056
  172SAPE   C3819455   2.147   6.094   3.569  0.1488  0.0004  0.2860
  172SAPE   H8X19456   2.239   6.134   3.618  1.4663  0.5005 -2.4110
  172SAPE   H8Y19457   2.141   5.984   3.580  1.0007 -0.4545 -2.8364
  172SAPE   C3919458   2.022   6.165   3.637  0.1692  0.2754  0.2540
  172SAPE   H9X19459   1.938   6.117   3.581  0.3488  0.2248  0.0264
  172SAPE   H9Y19460   2.017   6.275   3.623  2.0854  0.1817 -1.6129
  172SAPE  C31019461   2.003   6.127   3.782 -0.3438 -0.4976 -0.9011
  172SAPE  H10X19462   2.055   6.036   3.817 -1.1899 -1.0307 -0.9871
  172SAPE  H10Y19463   1.900   6.085   3.786 -0.8467  0.6435 -1.4312
  172SAPE  C31119464   2.018   6.244   3.879 -0.1723  0.6255 -1.0142
  172SAPE  H11X19465   1.959   6.333   3.849 -0.1491  0.8694 -0.3359
  172SAPE  H11Y19466   2.124   6.276   3.886 -0.0363 -0.0013 -0.0812
  172SAPE  C31219467   1.961   6.226   4.019 -0.6843 -0.8717 -0.1001
  172SAPE  H12X19468   2.008   6.139   4.069  2.1986  1.1416  0.9941
  172SAPE  H12Y19469   1.852   6.213   4.004 -1.4790  2.7005  1.6021
  172SAPE  C31319470   1.984   6.349   4.114  0.0141  0.1190  0.4697
  172SAPE  H13X19471   1.944   6.447   4.079 -1.6222 -0.6946 -0.0307
  172SAPE  H13Y19472   2.094   6.362   4.112 -0.0571  0.7435  0.3353
  172SAPE  C31419473   1.924   6.323   4.254  0.2295 -0.1612 -0.3556
  172SAPE  H14X19474   1.820   6.288   4.241 -0.4687  0.6161  2.4128
  172SAPE  H14Y19475   1.920   6.411   4.322  3.4308 -0.2419  0.0751
  172SAPE  C31519476   2.008   6.217   4.324 -0.1615 -0.9260 -1.2417
  172SAPE  H15X19477   2.109   6.263   4.319 -0.7005  0.4673  0.0156
  172SAPE  H15Y19478   2.017   6.119   4.272 -0.3351 -1.1748 -0.8067
  172SAPE  C31619479   1.965   6.188   4.468 -0.3482 -0.1775  0.8424
  172SAPE  H16X19480   1.987   6.284   4.520  0.9181 -0.0031  0.0433
  172SAPE  H16Y19481   2.038   6.108   4.494  0.2848 -1.1024 -3.1790
  172SAPE  C31719482   1.819   6.143   4.485 -0.6300 -0.2717  0.1960
  172SAPE  H17X19483   1.783   6.074   4.406 -0.3043  1.8479 -1.9210
  172SAPE  H17Y19484   1.755   6.233   4.471  2.5674  2.0560 -0.5457
  172SAPE  C31819485   1.808   6.075   4.616  0.1551  0.3716  0.1487
  172SAPE  H18X19486   1.826   6.138   4.706 -0.4410 -0.8950  1.1965
  172SAPE  H18Y19487   1.884   5.994   4.620  1.8632  1.9058  0.2337
  172SAPE  H18Z19488   1.709   6.026   4.615  0.0552  0.5791 -0.0424
  173SLPC     N19489   4.987   1.671   7.208  0.2956 -0.0829 -0.2723
  173SLPC   C1319490   4.980   1.527   7.248 -0.0942  0.2035  0.5910
  173SLPC  H13A19491   4.881   1.487   7.232 -0.4362  1.0559  0.5108
  173SLPC  H13B19492   5.061   1.476   7.198  1.7191  0.9337  2.6351
  173SLPC  H13C19493   5.000   1.515   7.353 -0.0179  0.8109  0.6454
  173SLPC   C1419494   5.131   1.714   7.213 -0.2067 -0.0315  0.3084
  173SLPC  H14A19495   5.186   1.664   7.134  1.8036 -0.3183  1.8141
  173SLPC  H14B19496   5.156   1.819   7.199  1.0413 -0.4218 -0.5244
  173SLPC  H14C19497   5.175   1.685   7.307 -1.5584 -3.8624 -0.0929
  173SLPC   C1519498   4.923   1.756   7.310  0.5567  0.0888  0.1743
  173SLPC  H15A19499   4.957   1.858   7.297  1.2154 -0.4388 -3.0748
  173SLPC  H15B19500   4.816   1.761   7.295  0.4042 -3.2358 -0.6943
  173SLPC  H15C19501   4.961   1.723   7.406  1.6880 -2.2672 -0.9983
  173SLPC   C1219502   4.935   1.697   7.070 -0.2100  0.0568 -0.5531
  173SLPC  H12A19503   5.004   1.651   7.002  0.7316  0.1294  0.3317
  173SLPC  H12B19504   4.927   1.804   7.057 -2.9948  0.5041  2.9887
  173SLPC   C1119505   4.788   1.651   7.040  0.0295 -0.0920 -0.0507
  173SLPC  H11A19506   4.752   1.692   6.943  1.0690 -1.8607 -1.2643
  173SLPC  H11B19507   4.726   1.693   7.122 -1.5966 -3.6571  0.7574
  173SLPC     P19508   4.737   1.425   6.919  0.1013 -0.1253 -0.0931
  173SLPC   O1319509   4.752   1.280   6.950  0.6896  0.0382 -0.6022
  173SLPC   O1419510   4.607   1.466   6.866  0.2744 -0.0461  0.2571
  173SLPC   O1219511   4.768   1.506   7.051  0.4198  0.1530 -0.1570
  173SLPC   O1119512   4.837   1.476   6.813 -0.2354  0.2935  0.0168
  173SLPC    C119513   4.981   1.468   6.832 -0.3225 -0.0947 -0.0792
  173SLPC    HA19514   5.012   1.574   6.842 -0.7726 -0.0528  1.0002
  173SLPC    HB19515   5.005   1.419   6.928 -1.2854  1.9619  1.2963
  173SLPC    C219516   5.057   1.402   6.706  0.7214 -0.2981 -0.5727
  173SLPC    HS19517   5.045   1.464   6.614  1.0160 -1.2817 -1.2821
  173SLPC   O2119518   5.002   1.274   6.684  0.5055  0.7753 -0.1818
  173SLPC   C2119519   5.000   1.208   6.564 -0.1306  0.1692  0.0883
  173SLPC   O2219520   5.048   1.257   6.462 -0.1862  0.2258 -0.1268
  173SLPC   C2219521   4.963   1.061   6.589 -1.2886 -0.1496 -1.1925
  173SLPC   H2R19522   5.051   1.007   6.630 -2.2226 -0.1211  0.9498
  173SLPC   H2S19523   4.879   1.050   6.661  0.6535 -1.3868  1.0337
  173SLPC    C319524   5.215   1.398   6.738  0.1057  0.2445  0.2120
  173SLPC    HX19525   5.235   1.364   6.841 -0.3327 -0.4957  0.0576
  173SLPC    HY19526   5.243   1.506   6.730  0.9519 -0.0849 -2.3196
  173SLPC   O3119527   5.295   1.328   6.637  0.1078 -0.1631  0.0729
  173SLPC   C3119528   5.300   1.199   6.653 -0.0438  0.2489 -0.0294
  173SLPC   O3219529   5.245   1.132   6.743  0.5521  0.2857 -0.0259
  173SLPC   C3219530   5.392   1.153   6.540  0.0658 -0.2075  0.0287
  173SLPC   H2X19531   5.497   1.171   6.573 -0.5129  1.9351  0.8354
  173SLPC   H2Y19532   5.385   1.223   6.454  2.0835  1.1040  0.8402
  173SLPC   C2319533   4.919   0.982   6.467 -0.5866  0.0724  0.0331
  173SLPC   H3R19534   5.000   0.967   6.393 -0.9889 -1.5990 -0.1120
  173SLPC   H3S19535   4.840   1.033   6.408 -0.2229  1.3168  0.5867
  173SLPC   C2419536   4.865   0.840   6.497  0.1557  0.8684 -0.8548
  173SLPC   H4R19537   4.776   0.839   6.564  1.1688  0.3030  0.5297
  173SLPC   H4S19538   4.940   0.780   6.552 -0.9868  1.1079  1.0506
  173SLPC   C2519539   4.824   0.766   6.369 -0.1374 -0.1715 -0.3746
  173SLPC   H5R19540   4.907   0.737   6.302 -0.5626  0.2660 -1.1114
  173SLPC   H5S19541   4.766   0.843   6.313 -0.2429 -0.8310 -1.1836
  173SLPC   C2619542   4.732   0.647   6.388 -0.4438 -1.0441  0.0258
  173SLPC   H6R19543   4.632   0.680   6.424 -0.0941 -1.5454  1.5041
  173SLPC   H6S19544   4.780   0.572   6.453 -0.1559 -0.3818  0.5899
  173SLPC   C2719545   4.707   0.577   6.257  0.0505  0.2389  0.4169
  173SLPC   H7R19546   4.802   0.545   6.211  1.0192  0.0155  2.4622
  173SLPC   H7S19547   4.655   0.647   6.188 -1.1106 -1.9889 -1.0885
  173SLPC   C2819548   4.615   0.455   6.266 -0.0549  0.0093  0.1594
  173SLPC   H8R19549   4.582   0.437   6.161 -0.1735  2.1004 -0.1947
  173SLPC   H8S19550   4.524   0.492   6.317  0.6183  1.1259  0.5842
  173SLPC   C2919551   4.685   0.345   6.345  0.3150  0.2317  0.0698
  173SLPC   H9R19552   4.667   0.333   6.453  0.6212 -0.2125  0.0757
  173SLPC  C21019553   4.770   0.266   6.290 -0.3531  0.1333 -0.9073
  173SLPC  H10R19554   4.809   0.181   6.348 -3.1095  0.5131  1.7591
  173SLPC  C21119555   4.801   0.266   6.139  0.0666  0.1260  0.0302
  173SLPC  H11R19556   4.902   0.308   6.124  1.0814 -2.0309  0.5015
  173SLPC  H11S19557   4.726   0.324   6.080 -1.0047  0.6922  1.8689
  173SLPC  C21219558   4.791   0.117   6.103 -0.3942 -0.9482  0.7003
  173SLPC  H12R19559   4.705   0.064   6.145 -0.8805 -0.7168  0.0154
  173SLPC  C21319560   4.859   0.053   6.009 -0.4561 -0.0281  0.5663
  173SLPC  H13R19561   4.851  -0.057   6.010  0.8563 -0.1932 -1.5132
  173SLPC  C21419562   4.978   0.097   5.927  0.1996  0.3279  0.2503
  173SLPC  H14R19563   5.042   0.011   5.895  0.8141  0.3240  1.4392
  173SLPC  H14S19564   5.045   0.148   6.000  0.0071 -1.5461  1.8116
  173SLPC  C21519565   4.955   0.180   5.798 -0.3772 -0.0882  0.2283
  173SLPC  H15R19566   5.045   0.245   5.792 -0.7164  0.3108 -0.6965
  173SLPC  H15S19567   4.861   0.238   5.817 -1.4072 -1.1717 -1.3003
  173SLPC  C21619568   4.922   0.105   5.671 -0.1174  0.0729 -0.1736
  173SLPC  H16R19569   4.831   0.041   5.678 -0.4591  0.3164 -1.8587
  173SLPC  H16S19570   5.002   0.030   5.652 -0.2373  0.2752 -1.5821
  173SLPC  C21719571   4.906   0.200   5.547  0.7859 -0.2103  0.1476
  173SLPC  H17R19572   4.994   0.267   5.556  0.4122  0.1394  1.3653
  173SLPC  H17S19573   4.813   0.260   5.552  1.8147  1.6656 -1.6138
  173SLPC  C21819574   4.898   0.115   5.415 -0.2645 -0.2481  0.5027
  173SLPC  H18R19575   4.812   0.045   5.413 -0.9585  0.5432 -2.0526
  173SLPC  H18S19576   4.990   0.053   5.418 -0.0434 -0.0557 -1.2666
  173SLPC  H18T19577   4.908   0.186   5.329  2.1307 -0.2045  0.7559
  173SLPC   C3319578   5.365   1.013   6.491  0.1417 -0.2052 -0.1179
  173SLPC   H3X19579   5.256   0.999   6.478  0.1884  0.5711 -1.6171
  173SLPC   H3Y19580   5.400   0.946   6.572  0.3242 -0.1981 -0.1893
  173SLPC   C3419581   5.444   0.970   6.358 -0.7422 -0.2437  0.9870
  173SLPC   H4X19582   5.436   0.860   6.350 -0.6201 -0.1252 -1.8850
  173SLPC   H4Y19583   5.548   1.002   6.377 -0.0537 -2.7517  1.7138
  173SLPC   C3519584   5.389   1.031   6.223 -0.1662  0.5951  0.3377
  173SLPC   H5X19585   5.404   1.141   6.232 -2.7842  1.1081 -0.6728
  173SLPC   H5Y19586   5.279   1.014   6.217 -0.0313  0.1073 -1.3678
  173SLPC   C3619587   5.452   0.973   6.099 -0.4169  0.3941 -0.1436
  173SLPC   H6X19588   5.401   0.877   6.078 -1.4652  1.5811 -3.8859
  173SLPC   H6Y19589   5.554   0.938   6.124 -0.5248 -0.3192 -0.6486
  173SLPC   C3719590   5.430   1.058   5.977 -0.2115  0.3759  0.1672
  173SLPC   H7X19591   5.491   1.151   5.983  0.8632 -0.1386 -1.9959
  173SLPC   H7Y19592   5.327   1.081   5.942  0.0863  0.4647 -0.6610
  173SLPC   C3819593   5.489   0.970   5.861 -0.0108  0.0718  0.1868
  173SLPC   H8X19594   5.435   0.873   5.870  1.0052 -0.6308 -1.0300
  173SLPC   H8Y19595   5.595   0.950   5.888 -0.3233  1.4753  2.8375
  173SLPC   C3919596   5.468   1.034   5.730 -0.1958 -0.2569  0.3584
  173SLPC   H9X19597   5.539   1.120   5.725  0.1998 -0.5239  1.1401
  173SLPC   H9Y19598   5.364   1.069   5.713 -0.2821  0.5943  2.4345
  173SLPC  C31019599   5.512   0.948   5.610  0.1219 -0.2663 -0.0623
  173SLPC  H10X19600   5.609   0.899   5.634  0.1060 -0.6649 -0.8125
  173SLPC  H10Y19601   5.523   1.019   5.525 -0.9263 -0.5570 -0.4476
  173SLPC  C31119602   5.408   0.835   5.581 -0.5785 -0.2659 -0.0785
  173SLPC  H11X19603   5.304   0.870   5.597 -0.1823  0.1976  1.6200
  173SLPC  H11Y19604   5.433   0.758   5.656 -1.7818  0.4199  1.0688
  173SLPC  C31219605   5.403   0.762   5.447  0.1666 -0.2704 -0.3762
  173SLPC  H12X19606   5.348   0.667   5.457  0.8009 -0.4927  1.3818
  173SLPC  H12Y19607   5.507   0.733   5.422  0.0907 -1.1197  0.2703
  173SLPC  C31319608   5.332   0.842   5.337 -0.4846  0.7590  0.1476
  173SLPC  H13X19609   5.398   0.924   5.301 -0.5954 -0.1877 -2.3819
  173SLPC  H13Y19610   5.243   0.890   5.382  1.1289  1.2249  3.1238
  173SLPC  C31419611   5.323   0.749   5.212 -0.4128  0.5521  0.7376
  173SLPC  H14X19612   5.261   0.659   5.235  0.6137 -0.4066 -0.1566
  173SLPC  H14Y19613   5.426   0.713   5.195 -0.6205  0.5754 -0.6452
  173SLPC  C31519614   5.270   0.828   5.091 -0.2162  0.2412 -0.1506
  173SLPC  H15X19615   5.344   0.906   5.061 -0.5734 -0.1736 -2.3297
  173SLPC  H15Y19616   5.180   0.887   5.118  0.7292  0.6047  2.4740
  173SLPC  C31619617   5.233   0.748   4.963  0.7366 -0.4662  0.7486
  173SLPC  H16X19618   5.323   0.694   4.925  0.6666  1.3521 -2.3351
  173SLPC  H16Y19619   5.203   0.822   4.886  0.3288 -1.2264  0.1544
  173SLPC  C31719620   5.115   0.651   4.985  0.0342 -0.6887  0.8199
  173SLPC  H17X19621   5.021   0.708   5.004 -0.5233 -0.8822 -1.1686
  173SLPC  H17Y19622   5.150   0.591   5.071 -1.7569 -0.5139  1.7175
  173SLPC  C31819623   5.098   0.559   4.863  0.0270 -0.2780 -0.5797
  173SLPC  H18X19624   5.179   0.485   4.845 -1.1931 -1.7648 -0.2428
  173SLPC  H18Y19625   5.082   0.630   4.779 -0.3981  0.3407  0.0163
  173SLPC  H18Z19626   5.004   0.500   4.876  0.0305 -0.1290  0.1197
  174SLPC     N19627   6.000   3.294   6.548 -0.0253 -0.0411  0.7624
  174SLPC   C1319628   6.050   3.237   6.679  0.2045  0.1301  0.2221
  174SLPC  H13A19629   6.031   3.308   6.759  0.3236  1.1162 -0.6068
  174SLPC  H13B19630   6.004   3.141   6.697 -1.6498  0.8125 -0.6506
  174SLPC  H13C19631   6.157   3.228   6.688 -0.0591 -2.0773  2.0328
  174SLPC   C1419632   5.851   3.278   6.548 -0.3356  0.4157  0.5246
  174SLPC  H14A19633   5.820   3.176   6.531 -1.6250  1.2084 -2.4901
  174SLPC  H14B19634   5.800   3.315   6.636 -0.8986  0.1190  0.3263
  174SLPC  H14C19635   5.808   3.331   6.464  2.1812 -0.3855 -1.3758
  174SLPC   C1519636   6.045   3.207   6.434  0.0598 -0.5588 -0.1607
  174SLPC  H15A19637   6.151   3.193   6.421 -0.3560 -2.6849 -1.9483
  174SLPC  H15B19638   6.004   3.109   6.456 -0.8409 -0.1738 -0.0965
  174SLPC  H15C19639   6.008   3.234   6.336  1.6489  0.6349 -0.4768
  174SLPC   C1219640   6.038   3.435   6.515 -0.1294 -0.0371  0.2499
  174SLPC  H12A19641   5.992   3.499   6.589  1.9421  1.5380  0.2883
  174SLPC  H12B19642   5.994   3.458   6.419  0.1704 -1.3134 -0.2186
  174SLPC   C1119643   6.186   3.462   6.506 -0.8066 -0.6232 -0.1828
  174SLPC  H11A19644   6.237   3.399   6.431 -0.0756  0.2764 -0.4679
  174SLPC  H11B19645   6.228   3.452   6.608  1.8000  0.2490 -1.0819
  174SLPC     P19646   6.203   3.727   6.558 -0.1110 -0.1335  0.7446
  174SLPC   O1319647   6.081   3.714   6.639  0.2550  0.4868 -0.1363
  174SLPC   O1419648   6.332   3.754   6.617 -0.0249 -0.2457 -0.3208
  174SLPC   O1219649   6.209   3.595   6.464  0.2656 -0.6315 -0.0604
  174SLPC   O1119650   6.185   3.836   6.438 -0.0105 -0.1587 -0.4573
  174SLPC    C119651   6.284   3.849   6.340 -0.2799 -0.4306  0.2934
  174SLPC    HA19652   6.308   3.957   6.341  0.3417 -0.5588  1.8986
  174SLPC    HB19653   6.377   3.791   6.360  0.5460  0.6176 -0.4274
  174SLPC    C219654   6.221   3.819   6.202 -0.3221  0.1707  0.5475
  174SLPC    HS19655   6.112   3.833   6.217 -0.4042  0.9876 -0.7024
  174SLPC   O2119656   6.261   3.686   6.167 -0.1841  0.2525  0.2920
  174SLPC   C2119657   6.169   3.607   6.121  0.0377  0.3979  0.5677
  174SLPC   O2219658   6.051   3.632   6.117  0.0916  0.2797 -0.1148
  174SLPC   C2219659   6.229   3.476   6.065  0.2347  0.2762 -0.0176
  174SLPC   H2R19660   6.311   3.438   6.131 -0.7637 -2.4915 -0.2429
  174SLPC   H2S19661   6.148   3.405   6.037  0.9490  0.4844 -2.9661
  174SLPC    C319662   6.279   3.915   6.091  0.9814 -0.1274  0.4936
  174SLPC    HX19663   6.390   3.910   6.095  1.0180 -0.5464 -0.6676
  174SLPC    HY19664   6.261   4.023   6.109  2.5820  0.2125  0.2184
  174SLPC   O3119665   6.247   3.870   5.960  0.4715  0.0958  0.1014
  174SLPC   C3119666   6.126   3.902   5.910 -0.6537  0.1185  0.0735
  174SLPC   O3219667   6.049   3.983   5.967  0.3961  0.7400  0.0735
  174SLPC   C3219668   6.099   3.827   5.779 -0.0570  0.1719  0.3650
  174SLPC   H2X19669   6.040   3.897   5.716  2.7426  0.8211 -1.7291
  174SLPC   H2Y19670   6.038   3.743   5.818  1.7712 -0.4172  2.1196
  174SLPC   C2319671   6.296   3.492   5.927  0.0401 -0.1908 -0.3504
  174SLPC   H3R19672   6.374   3.572   5.930 -0.5860  0.4360 -0.4337
  174SLPC   H3S19673   6.216   3.524   5.857 -1.5142  1.4554  2.0027
  174SLPC   C2419674   6.346   3.366   5.869 -0.0347 -0.0527  0.2222
  174SLPC   H4R19675   6.264   3.291   5.862  0.7179 -1.0649  1.7553
  174SLPC   H4S19676   6.418   3.324   5.942 -1.6149 -1.0530  1.2673
  174SLPC   C2519677   6.407   3.376   5.727  0.0958  0.4842  0.9367
  174SLPC   H5R19678   6.495   3.445   5.732 -0.5204  1.2906  0.8068
  174SLPC   H5S19679   6.333   3.426   5.662  0.9398  2.1876  1.2179
  174SLPC   C2619680   6.442   3.254   5.653 -0.3089  0.0231 -1.1251
  174SLPC   H6R19681   6.508   3.187   5.713 -0.3916  0.4737 -0.5177
  174SLPC   H6S19682   6.494   3.298   5.566 -0.3447 -1.2075 -1.7775
  174SLPC   C2719683   6.315   3.173   5.613  0.2834 -0.3184  0.4392
  174SLPC   H7R19684   6.254   3.246   5.556  0.1754 -0.2798  0.6036
  174SLPC   H7S19685   6.261   3.137   5.703 -1.0377  1.1272  0.2628
  174SLPC   C2819686   6.349   3.057   5.521  0.1730 -0.4139  0.4551
  174SLPC   H8R19687   6.407   3.096   5.434  3.1034 -3.8526  0.6353
  174SLPC   H8S19688   6.254   3.026   5.473  0.1864  0.3996 -0.1269
  174SLPC   C2919689   6.431   2.943   5.579  0.7977 -0.8691 -0.5673
  174SLPC   H9R19690   6.439   2.944   5.688  2.3409  2.7279 -0.5591
  174SLPC  C21019691   6.508   2.860   5.506 -0.1517 -0.0036 -0.2742
  174SLPC  H10R19692   6.570   2.795   5.571 -0.3235  1.2433  1.1937
  174SLPC  C21119693   6.526   2.859   5.353 -0.3174 -0.0754  0.5962
  174SLPC  H11R19694   6.424   2.865   5.309  0.0191 -1.0361 -0.3566
  174SLPC  H11S19695   6.565   2.763   5.314 -1.6779 -0.4806  0.1930
  174SLPC  C21219696   6.601   2.979   5.305  0.4665 -0.1617 -0.3672
  174SLPC  H12R19697   6.635   3.060   5.372  1.8112  0.7692 -2.0633
  174SLPC  C21319698   6.621   2.996   5.174 -0.0304  0.0890  0.0183
  174SLPC  H13R19699   6.658   3.093   5.137 -1.0855  1.6093  2.6850
  174SLPC  C21419700   6.589   2.891   5.069  0.3546 -0.0702  0.1546
  174SLPC  H14R19701   6.482   2.862   5.079 -0.6558  3.3333  0.4643
  174SLPC  H14S19702   6.658   2.804   5.077  1.2802  0.7974  3.0199
  174SLPC  C21519703   6.588   2.945   4.923 -0.2847  0.1772  0.8904
  174SLPC  H15R19704   6.517   3.030   4.910  0.9638  1.4874  2.2304
  174SLPC  H15S19705   6.562   2.863   4.853  5.1836 -0.4340 -0.8801
  174SLPC  C21619706   6.727   2.992   4.871  0.1861 -0.6372 -0.2910
  174SLPC  H16R19707   6.795   2.906   4.850 -0.3880 -1.4911  1.2594
  174SLPC  H16S19708   6.783   3.039   4.955 -0.7008 -0.8419  0.4286
  174SLPC  C21719709   6.724   3.083   4.743 -0.4866  0.0562 -0.0239
  174SLPC  H17R19710   6.826   3.116   4.715  0.0291 -2.0153 -0.7723
  174SLPC  H17S19711   6.667   3.177   4.761  0.3027  0.7116 -0.8252
  174SLPC  C21819712   6.681   3.012   4.613  0.5906 -0.3411 -0.6820
  174SLPC  H18R19713   6.750   2.925   4.601  1.6109  0.0874  1.5250
  174SLPC  H18S19714   6.683   3.072   4.520 -0.1141  2.1222  0.8106
  174SLPC  H18T19715   6.582   2.965   4.631  0.7523 -0.6321 -0.5438
  174SLPC   C3319716   6.218   3.790   5.692  0.1639  0.0829 -0.3739
  174SLPC   H3X19717   6.298   3.739   5.751 -1.5213  0.0836  2.0369
  174SLPC   H3Y19718   6.264   3.885   5.658 -1.6487  0.9275 -0.5896
  174SLPC   C3419719   6.164   3.700   5.583 -0.5918 -0.3241 -0.5618
  174SLPC   H4X19720   6.099   3.763   5.519 -1.5694  1.1024  1.7339
  174SLPC   H4Y19721   6.113   3.610   5.622  1.7771 -1.4944  0.0140
  174SLPC   C3519722   6.275   3.653   5.488  0.1181  0.3242 -0.3260
  174SLPC   H5X19723   6.353   3.603   5.550 -0.1446 -0.0824 -0.3206
  174SLPC   H5Y19724   6.330   3.737   5.441  1.1179  0.5978  1.2527
  174SLPC   C3619725   6.227   3.544   5.394 -0.3275 -0.1175  0.5002
  174SLPC   H6X19726   6.126   3.567   5.356  0.0346  1.4671  0.4504
  174SLPC   H6Y19727   6.220   3.455   5.461  2.7624 -0.1570  0.9230
  174SLPC   C3719728   6.327   3.516   5.286  0.3689 -0.7989  0.1047
  174SLPC   H7X19729   6.424   3.489   5.332  0.3938 -1.2612 -0.2161
  174SLPC   H7Y19730   6.355   3.612   5.238 -0.5779 -0.5837 -0.0390
  174SLPC   C3819731   6.283   3.402   5.195  0.2531 -0.2605 -0.2167
  174SLPC   H8X19732   6.187   3.428   5.146 -0.5134 -1.4057  0.6322
  174SLPC   H8Y19733   6.262   3.304   5.244  0.4663 -1.3640 -2.2108
  174SLPC   C3919734   6.387   3.381   5.088 -0.0025  0.2222 -0.4728
  174SLPC   H9X19735   6.480   3.341   5.133 -0.7783 -1.3390 -0.1599
  174SLPC   H9Y19736   6.411   3.483   5.053  0.8765  1.0564  2.2732
  174SLPC  C31019737   6.330   3.293   4.982  0.3975  0.2996  0.2231
  174SLPC  H10X19738   6.221   3.317   4.977 -0.0568 -1.6762 -0.6652
  174SLPC  H10Y19739   6.330   3.193   5.031  3.4518 -0.8801 -1.9030
  174SLPC  C31119740   6.392   3.301   4.845  0.4551  0.7505  0.5919
  174SLPC  H11X19741   6.502   3.292   4.849  0.3544 -0.1184  2.2000
  174SLPC  H11Y19742   6.368   3.401   4.803 -2.6507 -0.5674 -1.1008
  174SLPC  C31219743   6.330   3.199   4.745  0.2948 -0.0854  0.1093
  174SLPC  H12X19744   6.220   3.206   4.732  0.2025 -3.0201 -1.5266
  174SLPC  H12Y19745   6.364   3.097   4.773  0.1752 -0.3191 -0.5823
  174SLPC  C31319746   6.368   3.226   4.592  0.3020  1.0236 -0.7419
  174SLPC  H13X19747   6.476   3.199   4.588  0.3897  1.3493 -0.6015
  174SLPC  H13Y19748   6.344   3.332   4.567  1.2068  1.6502  0.9101
  174SLPC  C31419749   6.306   3.133   4.492 -0.3261 -0.2703  0.5456
  174SLPC  H14X19750   6.201   3.102   4.507 -0.8994  1.6049  0.5451
  174SLPC  H14Y19751   6.366   3.039   4.487  1.9791  1.1593 -1.2835
  174SLPC  C31519752   6.283   3.190   4.345 -0.1781  0.0067  0.1129
  174SLPC  H15X19753   6.381   3.208   4.296  0.3925 -5.5835 -1.5388
  174SLPC  H15Y19754   6.225   3.284   4.357  1.5319  1.0447  0.5098
  174SLPC  C31619755   6.192   3.093   4.268 -0.1422  0.3000  0.0072
  174SLPC  H16X19756   6.105   3.088   4.336  0.1604  0.8799  0.4455
  174SLPC  H16Y19757   6.238   2.995   4.242 -0.2615  0.7097 -1.9467
  174SLPC  C31719758   6.146   3.146   4.132 -0.1217 -0.3619 -0.4479
  174SLPC  H17X19759   6.228   3.156   4.058  1.4105  1.1468  1.3228
  174SLPC  H17Y19760   6.121   3.252   4.156  2.0116 -0.2792  1.8265
  174SLPC  C31819761   6.030   3.082   4.073  0.4981  0.8712 -0.7453
  174SLPC  H18X19762   5.940   3.100   4.136  0.1634  2.0759 -1.5251
  174SLPC  H18Y19763   6.047   2.975   4.052  1.5487  0.9358 -0.2922
  174SLPC  H18Z19764   5.999   3.132   3.979  1.3805  0.4983 -1.2498
  175SLPC     N19765   3.384   3.995   6.962  0.5161 -0.2620 -0.2725
  175SLPC   C1319766   3.298   3.935   7.074 -0.0270 -0.1945 -0.1163
  175SLPC  H13A19767   3.348   3.953   7.168 -1.4324  0.9814  0.4370
  175SLPC  H13B19768   3.199   3.977   7.080  0.5006  0.9146  1.7845
  175SLPC  H13C19769   3.285   3.828   7.070  2.1449 -0.5012 -0.7420
  175SLPC   C1419770   3.509   3.916   6.956  0.1116 -0.6347  0.1801
  175SLPC  H14A19771   3.548   3.895   7.054  2.4372  0.3637 -0.4780
  175SLPC  H14B19772   3.500   3.829   6.893 -0.8049 -1.2518  1.1445
  175SLPC  H14C19773   3.580   3.982   6.908 -1.6666  0.6973 -0.7783
  175SLPC   C1519774   3.409   4.138   6.991  0.6719  0.3222 -0.1296
  175SLPC  H15A19775   3.438   4.143   7.095  0.3321 -0.4494  0.0112
  175SLPC  H15B19776   3.492   4.177   6.934 -0.3390  1.4578 -0.8610
  175SLPC  H15C19777   3.320   4.195   6.970  1.4827  1.6976  0.0375
  175SLPC   C1219778   3.311   3.986   6.827 -0.0420 -0.0104 -0.0094
  175SLPC  H12A19779   3.371   4.028   6.748 -0.3237 -0.8061 -0.6560
  175SLPC  H12B19780   3.220   4.044   6.830  0.1103  0.4662 -2.6229
  175SLPC   C1119781   3.275   3.838   6.781 -0.8174 -0.3607 -0.1536
  175SLPC  H11A19782   3.196   3.844   6.704 -0.8619 -1.3816 -0.2064
  175SLPC  H11B19783   3.242   3.784   6.873 -2.1035 -1.9960 -1.5127
  175SLPC     P19784   3.455   3.839   6.591  0.1622  0.9241  0.0430
  175SLPC   O1319785   3.404   3.972   6.563 -0.6092 -0.3648 -0.3278
  175SLPC   O1419786   3.601   3.824   6.604 -0.1278 -0.1320 -0.1810
  175SLPC   O1219787   3.390   3.772   6.721 -0.1695  0.2643  0.0102
  175SLPC   O1119788   3.398   3.744   6.478  0.5977  0.9038 -0.1791
  175SLPC    C119789   3.290   3.784   6.388  0.0060  0.2336 -0.3910
  175SLPC    HA19790   3.205   3.790   6.458 -0.5027  0.2303 -1.0027
  175SLPC    HB19791   3.309   3.883   6.341 -2.0152  0.0032 -1.8303
  175SLPC    C219792   3.246   3.672   6.284  0.4492  0.3171 -0.0098
  175SLPC    HS19793   3.213   3.582   6.339  0.5159  0.0951 -0.3311
  175SLPC   O2119794   3.365   3.634   6.204  0.8253 -0.6708  0.2825
  175SLPC   C2119795   3.356   3.520   6.140  0.1485 -0.6756  0.0835
  175SLPC   O2219796   3.274   3.434   6.163  0.3357  0.3794 -0.4317
  175SLPC   C2219797   3.477   3.506   6.051 -0.3838 -0.0273 -0.3606
  175SLPC   H2R19798   3.530   3.603   6.049 -0.9155  0.3354  1.5815
  175SLPC   H2S19799   3.537   3.435   6.111 -1.8089  0.2196  1.4497
  175SLPC    C319800   3.135   3.732   6.193 -0.4914  0.7492 -0.7212
  175SLPC    HX19801   3.076   3.799   6.259  1.0589  0.4722  1.0326
  175SLPC    HY19802   3.064   3.653   6.161 -0.4496  0.2862  0.2875
  175SLPC   O3119803   3.192   3.803   6.086 -0.1700 -0.3927 -0.8275
  175SLPC   C3119804   3.149   3.778   5.963  0.7394 -0.1416  0.0310
  175SLPC   O3219805   3.074   3.692   5.924  0.1402  0.0355 -0.1973
  175SLPC   C3219806   3.220   3.869   5.868  0.2798  0.4127  0.1378
  175SLPC   H2X19807   3.327   3.843   5.852  0.5026  1.6193 -0.4104
  175SLPC   H2Y19808   3.225   3.968   5.918  0.9340 -0.2880  1.5090
  175SLPC   C2319809   3.444   3.431   5.924  0.1305  0.2768  0.0408
  175SLPC   H3R19810   3.377   3.343   5.938  0.7562 -0.6043 -2.1697
  175SLPC   H3S19811   3.542   3.402   5.881  0.8238  0.4774  1.4314
  175SLPC   C2419812   3.383   3.522   5.815 -0.2534  0.7770 -0.4324
  175SLPC   H4R19813   3.458   3.602   5.800  0.9675 -0.2290  0.0623
  175SLPC   H4S19814   3.289   3.564   5.856  0.0045  0.2393  0.7886
  175SLPC   C2519815   3.365   3.443   5.681  1.0491 -0.1852 -0.2163
  175SLPC   H5R19816   3.293   3.497   5.616  0.5049 -0.7243 -0.0726
  175SLPC   H5S19817   3.313   3.346   5.698  1.5746 -0.3119  0.7156
  175SLPC   C2619818   3.497   3.427   5.609  0.0054  0.1419  0.1889
  175SLPC   H6R19819   3.555   3.357   5.673  1.7996 -0.9683 -2.4833
  175SLPC   H6S19820   3.555   3.520   5.598  0.3575  0.1935  2.1564
  175SLPC   C2719821   3.470   3.366   5.475  0.3505  0.2461  0.1938
  175SLPC   H7R19822   3.393   3.286   5.482  0.8276 -0.2823 -0.4708
  175SLPC   H7S19823   3.562   3.306   5.459  0.2802  0.4125 -0.8748
  175SLPC   C2819824   3.435   3.455   5.363  1.1769 -0.1216 -0.0826
  175SLPC   H8R19825   3.343   3.514   5.384  0.7385 -0.8174 -0.0148
  175SLPC   H8S19826   3.401   3.396   5.275  1.8142  1.0722 -1.1617
  175SLPC   C2919827   3.543   3.550   5.312 -0.1037 -0.0827  0.4025
  175SLPC   H9R19828   3.639   3.497   5.316  0.9967  1.8265  0.8286
  175SLPC  C21019829   3.546   3.672   5.268  0.2297 -0.7798 -0.0352
  175SLPC  H10R19830   3.639   3.706   5.220  0.3005 -0.7888  0.0950
  175SLPC  C21119831   3.426   3.763   5.256  0.9089 -0.1450  0.9982
  175SLPC  H11R19832   3.455   3.867   5.281 -1.2543  0.7594 -0.0287
  175SLPC  H11S19833   3.347   3.737   5.330  0.0931 -2.1215 -0.4619
  175SLPC  C21219834   3.352   3.752   5.121 -0.1293 -0.1829  0.2901
  175SLPC  H12R19835   3.258   3.696   5.126 -0.2897 -0.0313 -0.7595
  175SLPC  C21319836   3.402   3.790   4.998 -0.4063  0.3616  0.0708
  175SLPC  H13R19837   3.336   3.774   4.912  0.8137 -0.6827 -0.7008
  175SLPC  C21419838   3.532   3.849   4.967  0.0131 -0.4725 -0.5319
  175SLPC  H14R19839   3.589   3.781   4.899  3.9921 -1.0872  2.9456
  175SLPC  H14S19840   3.600   3.862   5.054 -0.9059  1.4076 -0.0542
  175SLPC  C21519841   3.508   3.985   4.896 -0.6385 -0.2681 -0.1241
  175SLPC  H15R19842   3.441   3.968   4.809  0.1722  0.6161 -0.9453
  175SLPC  H15S19843   3.605   4.018   4.853 -0.1781  1.5637  2.1114
  175SLPC  C21619844   3.439   4.083   4.996 -0.3131  0.4847  0.3603
  175SLPC  H16R19845   3.485   4.086   5.097  0.6370 -0.6012 -0.0076
  175SLPC  H16S19846   3.337   4.048   5.022  0.1620 -0.3838  1.1114
  175SLPC  C21719847   3.406   4.227   4.939  1.0414 -0.1846  0.3856
  175SLPC  H17R19848   3.339   4.215   4.852 -1.1612 -0.9158  2.0747
  175SLPC  H17S19849   3.501   4.278   4.914 -1.2402  3.8377 -0.8992
  175SLPC  C21819850   3.326   4.299   5.054 -0.0984  0.1397  0.0730
  175SLPC  H18R19851   3.398   4.326   5.134 -0.9725  1.0018  0.5921
  175SLPC  H18S19852   3.240   4.238   5.088  1.0687 -2.5569 -1.5197
  175SLPC  H18T19853   3.282   4.394   5.017  0.4134 -0.5979 -2.6555
  175SLPC   C3319854   3.162   3.867   5.728  0.5031  0.2300  0.0052
  175SLPC   H3X19855   3.053   3.891   5.724  0.0936 -1.0555  1.7359
  175SLPC   H3Y19856   3.183   3.765   5.689 -0.2321 -0.4235  1.2570
  175SLPC   C3419857   3.239   3.963   5.631 -0.0864  0.5311  0.8999
  175SLPC   H4X19858   3.279   3.907   5.543 -3.3915 -3.3995  1.6284
  175SLPC   H4Y19859   3.332   3.990   5.686 -0.3699  0.5199  1.3818
  175SLPC   C3519860   3.154   4.081   5.591  1.0750  0.1945 -0.7907
  175SLPC   H5X19861   3.123   4.138   5.680 -0.6418 -0.1995 -1.0931
  175SLPC   H5Y19862   3.062   4.043   5.542  1.6207 -0.9610 -0.9530
  175SLPC   C3619863   3.229   4.158   5.484 -0.2899 -0.5438 -0.3443
  175SLPC   H6X19864   3.276   4.093   5.407 -0.3060 -1.2944  0.2727
  175SLPC   H6Y19865   3.312   4.210   5.536 -0.5433 -0.5395  0.0590
  175SLPC   C3719866   3.149   4.280   5.421 -1.1499 -0.0374 -0.2660
  175SLPC   H7X19867   3.225   4.334   5.361 -0.1236  1.2261  2.0392
  175SLPC   H7Y19868   3.119   4.339   5.510 -1.6794 -0.4111 -0.1926
  175SLPC   C3819869   3.032   4.235   5.337 -0.0752  0.4101 -0.7481
  175SLPC   H8X19870   2.956   4.191   5.405 -0.8874  0.1327 -1.8148
  175SLPC   H8Y19871   3.065   4.152   5.272  0.0484  1.8685 -2.6498
  175SLPC   C3919872   2.972   4.348   5.264  0.0138  0.0656 -0.2971
  175SLPC   H9X19873   3.054   4.403   5.214 -0.5240  1.1514  0.0008
  175SLPC   H9Y19874   2.934   4.422   5.337 -0.7357  0.0911 -0.6994
  175SLPC  C31019875   2.874   4.305   5.153 -0.0644 -0.1608 -0.4423
  175SLPC  H10X19876   2.786   4.266   5.209  2.4918 -2.3873  2.3545
  175SLPC  H10Y19877   2.915   4.216   5.100 -1.0309  1.1645 -3.6530
  175SLPC  C31119878   2.826   4.414   5.059 -0.9211  0.4148 -0.6275
  175SLPC  H11X19879   2.803   4.506   5.115 -0.2820  0.2587 -0.0948
  175SLPC  H11Y19880   2.725   4.383   5.025 -1.1948  0.1267  0.4246
  175SLPC  C31219881   2.915   4.439   4.929  0.1448 -0.2989 -0.7371
  175SLPC  H12X19882   3.024   4.442   4.951  0.1827  0.3490 -0.9787
  175SLPC  H12Y19883   2.888   4.539   4.889 -1.7100 -1.1121 -1.6219
  175SLPC  C31319884   2.907   4.335   4.815 -0.1253 -1.0120  0.1031
  175SLPC  H13X19885   2.853   4.248   4.857  1.0140 -1.7782  0.0468
  175SLPC  H13Y19886   3.010   4.312   4.779  1.0351  1.0081  1.9345
  175SLPC  C31419887   2.840   4.392   4.693 -0.3296  0.0190  0.0759
  175SLPC  H14X19888   2.879   4.489   4.655 -1.2072  0.0325 -0.8508
  175SLPC  H14Y19889   2.731   4.409   4.709 -0.0446 -0.0608  2.4800
  175SLPC  C31519890   2.866   4.300   4.568  0.1310  0.2454 -0.6609
  175SLPC  H15X19891   2.974   4.298   4.541 -0.2402 -1.2426 -2.2653
  175SLPC  H15Y19892   2.824   4.356   4.482 -2.2375  1.0766  0.9423
  175SLPC  C31619893   2.800   4.156   4.569  0.0623  0.4775  0.7040
  175SLPC  H16X19894   2.843   4.100   4.655  3.0388 -0.8938 -1.4813
  175SLPC  H16Y19895   2.845   4.103   4.482 -0.9950 -0.1923  0.5409
  175SLPC  C31719896   2.652   4.154   4.560 -0.5335 -0.2455 -0.0962
  175SLPC  H17X19897   2.616   4.194   4.657  1.2641  3.5096 -0.8129
  175SLPC  H17Y19898   2.616   4.049   4.562 -0.7000 -0.1846  0.7887
  175SLPC  C31819899   2.581   4.222   4.432  0.1467 -0.9191 -0.0338
  175SLPC  H18X19900   2.617   4.326   4.413  0.5972 -1.2096 -0.8267
  175SLPC  H18Y19901   2.471   4.221   4.447  0.1799 -1.4498  0.2069
  175SLPC  H18Z19902   2.603   4.151   4.350 -1.3310 -2.3154  0.7099
  176SLPC     N19903   4.903   3.228   6.951  0.2441  0.9384  0.9317
  176SLPC   C1319904   4.972   3.256   7.076  0.0642  0.5070  0.3166
  176SLPC  H13A19905   5.068   3.207   7.077 -0.7737 -1.2759 -1.0639
  176SLPC  H13B19906   4.970   3.362   7.096 -0.3693  0.4022  0.8487
  176SLPC  H13C19907   4.923   3.229   7.169 -0.5728 -2.0739 -0.7024
  176SLPC   C1419908   4.990   3.293   6.846 -0.7416 -0.0456 -0.0663
  176SLPC  H14A19909   5.093   3.270   6.867 -0.5896  1.3080  0.7752
  176SLPC  H14B19910   4.964   3.260   6.746  1.9092  1.0290 -1.2093
  176SLPC  H14C19911   4.972   3.400   6.841 -3.6787 -0.4198  0.8311
  176SLPC   C1519912   4.777   3.302   6.950 -0.0323  0.2713 -0.1332
  176SLPC  H15A19913   4.702   3.249   7.007  1.6797 -3.1597 -0.7820
  176SLPC  H15B19914   4.787   3.399   6.995 -0.1721  1.0001 -1.6119
  176SLPC  H15C19915   4.737   3.313   6.851  3.1846 -1.6843 -1.8422
  176SLPC   C1219916   4.884   3.072   6.925 -0.4688 -0.5126 -0.7018
  176SLPC  H12A19917   4.842   3.030   7.016 -2.0715  1.6733 -0.3605
  176SLPC  H12B19918   4.979   3.025   6.901  1.3140  3.5307 -2.3710
  176SLPC   C1119919   4.795   3.039   6.802  0.1627  0.2922 -0.7633
  176SLPC  H11A19920   4.708   3.106   6.818 -1.7097 -2.0144 -0.7612
  176SLPC  H11B19921   4.767   2.932   6.797  0.2818  0.2724 -1.0008
  176SLPC     P19922   4.959   2.979   6.617 -0.4433  0.4894 -0.0215
  176SLPC   O1319923   5.073   2.929   6.702 -0.0478  0.2887 -0.3172
  176SLPC   O1419924   4.878   2.879   6.541  0.5049  0.1527 -0.3152
  176SLPC   O1219925   4.866   3.080   6.690  0.3150 -0.6360 -1.0992
  176SLPC   O1119926   5.028   3.082   6.525 -0.5217 -0.1452  0.2909
  176SLPC    C119927   4.970   3.158   6.419  0.3573  0.3043 -0.4463
  176SLPC    HA19928   4.863   3.127   6.410  0.5318 -0.2994 -0.5062
  176SLPC    HB19929   4.969   3.265   6.449  0.7966  0.0144  0.6634
  176SLPC    C219930   5.034   3.133   6.278  0.0220 -0.2188 -0.1642
  176SLPC    HS19931   4.962   3.180   6.209 -0.8279 -1.7016 -0.3312
  176SLPC   O2119932   5.053   2.990   6.242  0.2462  0.5183  0.0027
  176SLPC   C2119933   4.939   2.924   6.211  0.3177  0.1708  0.2298
  176SLPC   O2219934   4.826   2.973   6.194 -0.0356 -0.1114  0.2015
  176SLPC   C2219935   4.972   2.770   6.217 -0.2462  1.2858 -0.2961
  176SLPC   H2R19936   5.049   2.745   6.293 -1.1959 -1.4974 -0.1343
  176SLPC   H2S19937   4.878   2.716   6.242  0.5877 -0.6089 -1.0090
  176SLPC    C319938   5.168   3.207   6.264  0.2145 -1.1167  0.3592
  176SLPC    HX19939   5.230   3.163   6.346 -1.0648 -0.9077  1.4733
  176SLPC    HY19940   5.155   3.314   6.292  0.4858 -0.9998  0.0332
  176SLPC   O3119941   5.241   3.183   6.149 -1.2215 -0.7279  0.1890
  176SLPC   C3119942   5.229   3.269   6.045 -0.1979 -0.2759  0.1996
  176SLPC   O3219943   5.157   3.368   6.043  0.5662  0.8648 -0.0852
  176SLPC   C3219944   5.328   3.229   5.931 -0.2620 -0.1989 -0.2447
  176SLPC   H2X19945   5.286   3.145   5.872 -1.1087 -0.3303  0.5120
  176SLPC   H2Y19946   5.427   3.197   5.969 -0.4434 -1.6706 -0.9482
  176SLPC   C2319947   5.040   2.716   6.084 -0.5968  0.4227  0.7304
  176SLPC   H3R19948   5.092   2.619   6.102 -1.3589 -0.2754 -0.6828
  176SLPC   H3S19949   5.126   2.776   6.048 -0.7087 -0.2073 -0.6558
  176SLPC   C2419950   4.933   2.692   5.974  0.3833 -0.6884 -0.0122
  176SLPC   H4R19951   4.869   2.783   5.978 -0.8043 -1.4992 -0.2078
  176SLPC   H4S19952   4.868   2.607   6.002 -3.5218  1.9511 -0.3097
  176SLPC   C2519953   5.005   2.691   5.842 -0.3279 -0.0572  0.1025
  176SLPC   H5R19954   5.073   2.603   5.844 -0.3635 -0.0694  0.8329
  176SLPC   H5S19955   5.061   2.786   5.825  0.5534 -0.8217 -1.6333
  176SLPC   C2619956   4.903   2.666   5.730  0.1024 -0.0159  0.1175
  176SLPC   H6R19957   4.834   2.751   5.710  2.1126  1.6537 -0.0976
  176SLPC   H6S19958   4.835   2.582   5.753 -0.6149  0.4280 -0.3439
  176SLPC   C2719959   4.979   2.630   5.598 -0.4099 -0.1326  0.0479
  176SLPC   H7R19960   5.037   2.536   5.608 -1.3817 -0.6092  1.6279
  176SLPC   H7S19961   5.051   2.710   5.570 -0.0452  0.6201  2.8159
  176SLPC   C2819962   4.883   2.611   5.482 -0.1406 -0.3203  0.2076
  176SLPC   H8R19963   4.814   2.530   5.513  0.2059 -0.7664 -0.1630
  176SLPC   H8S19964   4.941   2.569   5.397 -1.1127  1.8768 -1.6467
  176SLPC   C2919965   4.794   2.724   5.435 -0.5042 -0.0910 -0.2460
  176SLPC   H9R19966   4.766   2.793   5.516  0.0020 -2.4086  2.0649
  176SLPC  C21019967   4.736   2.731   5.310 -0.2101 -0.3335 -0.4610
  176SLPC  H10R19968   4.660   2.808   5.287 -0.4292 -0.0645  1.0329
  176SLPC  C21119969   4.744   2.640   5.191  0.1208 -0.2659  0.1185
  176SLPC  H11R19970   4.762   2.535   5.222 -1.4186 -1.4180 -2.5935
  176SLPC  H11S19971   4.834   2.667   5.133  0.1514 -1.4650 -0.3971
  176SLPC  C21219972   4.625   2.646   5.102 -0.1857 -0.2246  0.5944
  176SLPC  H12R19973   4.572   2.742   5.101  2.6519  1.4587 -0.8179
  176SLPC  C21319974   4.579   2.554   5.009 -0.7831  0.3097 -0.1323
  176SLPC  H13R19975   4.492   2.574   4.945 -1.3080 -0.6970  0.2385
  176SLPC  C21419976   4.648   2.418   4.984 -0.4436  0.5008  0.1901
  176SLPC  H14R19977   4.573   2.339   5.006  2.4009 -1.6837  3.0103
  176SLPC  H14S19978   4.734   2.405   5.052 -0.7403  2.2720  0.9456
  176SLPC  C21519979   4.706   2.424   4.842 -0.7170 -0.1751  0.1214
  176SLPC  H15R19980   4.788   2.499   4.843 -2.2531  1.6211  2.4802
  176SLPC  H15S19981   4.624   2.452   4.771 -0.5965  4.4629  1.4641
  176SLPC  C21619982   4.760   2.288   4.809  0.6949 -0.6562  0.3496
  176SLPC  H16R19983   4.791   2.231   4.900 -3.2777 -1.5573  1.3420
  176SLPC  H16S19984   4.854   2.297   4.750 -0.2189  3.9747 -0.8077
  176SLPC  C21719985   4.663   2.191   4.727  0.2361 -0.2746  0.4482
  176SLPC  H17R19986   4.620   2.251   4.644 -0.5007  0.1202  1.0972
  176SLPC  H17S19987   4.577   2.166   4.792 -0.6876  2.0219  0.1944
  176SLPC  C21819988   4.726   2.078   4.656  0.1698 -0.0532  0.1677
  176SLPC  H18R19989   4.659   2.011   4.600  0.3794 -0.4138  0.3433
  176SLPC  H18S19990   4.769   2.010   4.733  2.3012 -0.1668 -1.0507
  176SLPC  H18T19991   4.809   2.110   4.589  0.6694  0.8511  1.1893
  176SLPC   C3319992   5.344   3.344   5.831  0.2661 -0.1154 -1.1277
  176SLPC   H3X19993   5.408   3.423   5.876 -0.2288  0.5462 -1.5428
  176SLPC   H3Y19994   5.246   3.392   5.809  0.7749  0.1065 -3.0550
  176SLPC   C3419995   5.403   3.305   5.703 -0.0473  0.4527  0.5937
  176SLPC   H4X19996   5.334   3.230   5.659  2.7547 -0.4631 -2.7787
  176SLPC   H4Y19997   5.504   3.259   5.717  0.4549  1.4364  0.2615
  176SLPC   C3519998   5.429   3.421   5.609 -0.3789 -0.5199  0.9526
  176SLPC   H5X19999   5.492   3.376   5.529 -2.9631 -1.9558 -0.3868
  176SLPC   H5Y20000   5.482   3.508   5.655  0.2530 -1.2494  1.6336
  176SLPC   C3620001   5.307   3.480   5.539  0.3123 -0.1524 -0.1378
  176SLPC   H6X20002   5.258   3.558   5.601 -0.3430 -0.4464 -0.2800
  176SLPC   H6Y20003   5.235   3.396   5.531  1.2756 -0.9543 -0.6308
  176SLPC   C3720004   5.324   3.545   5.399  0.0469  1.2827 -0.6941
  176SLPC   H7X20005   5.222   3.580   5.371 -1.1974 -1.2750  0.3465
  176SLPC   H7Y20006   5.351   3.477   5.315 -0.3762  3.1180 -2.3812
  176SLPC   C3820007   5.423   3.656   5.391 -0.3073 -0.2234 -0.2578
  176SLPC   H8X20008   5.521   3.605   5.403  0.0270  0.8747  1.9512
  176SLPC   H8Y20009   5.404   3.721   5.479 -0.1729  0.3350 -0.6361
  176SLPC   C3920010   5.427   3.734   5.254  0.2498  0.4678 -0.7557
  176SLPC   H9X20011   5.483   3.828   5.271 -1.2682  1.2597  0.0829
  176SLPC   H9Y20012   5.321   3.750   5.225 -0.1117 -1.0577 -0.3874
  176SLPC  C31020013   5.502   3.671   5.140 -0.6296 -0.2631  0.3306
  176SLPC  H10X20014   5.441   3.582   5.113 -0.1795  0.0013 -1.7143
  176SLPC  H10Y20015   5.601   3.635   5.175 -1.4044 -3.1662 -0.2566
  176SLPC  C31120016   5.522   3.766   5.020 -0.0133  0.6981 -0.6298
  176SLPC  H11X20017   5.570   3.860   5.055  0.4125 -0.1311  1.1032
  176SLPC  H11Y20018   5.426   3.777   4.966 -0.1686 -1.8046 -0.9788
  176SLPC  C31220019   5.615   3.705   4.916 -0.7147  0.3838  0.1003
  176SLPC  H12X20020   5.571   3.610   4.879  0.1995 -1.0869  2.5848
  176SLPC  H12Y20021   5.713   3.677   4.961 -0.7928  1.5395  1.0330
  176SLPC  C31320022   5.635   3.788   4.783 -0.0802 -0.1408  0.2007
  176SLPC  H13X20023   5.550   3.859   4.770  0.5362  0.6677  0.4884
  176SLPC  H13Y20024   5.636   3.719   4.696 -1.7068 -0.1956  0.1881
  176SLPC  C31420025   5.769   3.859   4.795  0.1001 -1.3226 -0.1962
  176SLPC  H14X20026   5.860   3.798   4.816  1.2339  1.1012  2.6437
  176SLPC  H14Y20027   5.752   3.925   4.883 -1.8950 -3.4956  1.1454
  176SLPC  C31520028   5.787   3.940   4.664  0.7797  0.2630  0.0498
  176SLPC  H15X20029   5.688   3.969   4.623  0.7245  1.0741  0.7340
  176SLPC  H15Y20030   5.827   3.866   4.592  1.7369 -0.5461  1.3530
  176SLPC  C31620031   5.888   4.055   4.670 -0.1321 -0.3084 -0.1839
  176SLPC  H16X20032   5.905   4.086   4.564  2.0807 -2.3271 -0.5293
  176SLPC  H16Y20033   5.983   4.004   4.698 -0.6379 -2.7921 -2.4621
  176SLPC  C31720034   5.840   4.176   4.748 -0.2147  0.1198  0.0132
  176SLPC  H17X20035   5.924   4.247   4.765  0.3981 -0.2801 -1.2245
  176SLPC  H17Y20036   5.805   4.130   4.843  1.9898 -0.6101  0.5386
  176SLPC  C31820037   5.735   4.256   4.681 -0.5182  0.2135 -0.4080
  176SLPC  H18X20038   5.653   4.188   4.650 -0.6615  0.2232 -0.0626
  176SLPC  H18Y20039   5.764   4.311   4.589 -2.6388  1.6024 -0.3020
  176SLPC  H18Z20040   5.689   4.331   4.748  1.7550  0.1440  1.3693
  177SLPC     N20041   3.882   2.640   7.083  0.0722 -0.4778  0.3961
  177SLPC   C1320042   3.816   2.671   7.216 -0.3570  0.4055 -0.4420
  177SLPC  H13A20043   3.734   2.604   7.241 -0.9828  1.5505  0.6999
  177SLPC  H13B20044   3.894   2.664   7.291 -2.0692 -2.9887  1.2755
  177SLPC  H13C20045   3.775   2.770   7.227 -0.5358  0.1343  2.0156
  177SLPC   C1420046   3.927   2.493   7.092 -0.0566  0.3822 -0.1719
  177SLPC  H14A20047   3.978   2.467   7.001  0.6116  1.8504 -0.2486
  177SLPC  H14B20048   3.990   2.474   7.178  0.2663  0.9795 -0.2716
  177SLPC  H14C20049   3.837   2.434   7.098  0.1004  0.1927  0.3468
  177SLPC   C1520050   3.998   2.723   7.069 -0.1124  0.2191 -0.2331
  177SLPC  H15A20051   3.975   2.828   7.055 -0.1709  0.5601  2.0245
  177SLPC  H15B20052   4.075   2.699   7.141 -0.8918  0.5331  0.7378
  177SLPC  H15C20053   4.041   2.700   6.973 -1.1586 -2.5057 -0.1442
  177SLPC   C1220054   3.791   2.667   6.969  0.5114  0.5176  0.1073
  177SLPC  H12A20055   3.729   2.752   6.993  0.6356  0.7603 -0.3974
  177SLPC  H12B20056   3.728   2.579   6.970  2.4558 -0.9656 -0.6581
  177SLPC   C1120057   3.847   2.692   6.823  0.0962  0.1827 -1.0594
  177SLPC  H11A20058   3.891   2.794   6.833 -0.3428  0.1887  1.5272
  177SLPC  H11B20059   3.769   2.697   6.745  1.7140 -1.7015 -2.8990
  177SLPC     P20060   3.900   2.449   6.724  0.0764  0.2387  0.3479
  177SLPC   O1320061   4.012   2.371   6.670  0.0567  0.6131  0.2089
  177SLPC   O1420062   3.815   2.366   6.815  0.2624 -0.3907  0.3181
  177SLPC   O1220063   3.942   2.586   6.791 -0.4842 -0.0249  0.2137
  177SLPC   O1120064   3.808   2.495   6.605 -0.1228 -0.3046 -0.0937
  177SLPC    C120065   3.875   2.572   6.504 -0.4267 -0.4205  0.0614
  177SLPC    HA20066   3.816   2.662   6.477  0.6011  0.3225  0.2359
  177SLPC    HB20067   3.978   2.609   6.527  0.8584 -4.3744  1.4591
  177SLPC    C220068   3.885   2.498   6.367  0.6108  0.8906  0.0971
  177SLPC    HS20069   3.925   2.572   6.296  1.1463  0.4785 -0.0381
  177SLPC   O2120070   3.760   2.444   6.319 -0.4437  0.0966 -0.4107
  177SLPC   C2120071   3.694   2.529   6.240  0.3078  0.1958 -0.4087
  177SLPC   O2220072   3.725   2.643   6.213  0.3429  0.2675  0.1873
  177SLPC   C2220073   3.573   2.464   6.177  0.0748  0.7108 -0.0780
  177SLPC   H2R20074   3.597   2.370   6.123  0.1343  0.9148 -0.4110
  177SLPC   H2S20075   3.512   2.427   6.262 -0.4764  0.5111 -0.5486
  177SLPC    C320076   3.980   2.375   6.373 -0.2013 -0.6222 -0.0479
  177SLPC    HX20077   3.939   2.299   6.442  2.4629 -1.8071  0.3543
  177SLPC    HY20078   4.077   2.402   6.420 -0.0567  0.9917 -1.1930
  177SLPC   O3120079   3.995   2.304   6.252 -0.0634 -0.1208 -0.0515
  177SLPC   C3120080   4.093   2.328   6.166 -0.5062  0.0309 -0.4003
  177SLPC   O3220081   4.192   2.399   6.196 -0.0656  0.7341  0.6574
  177SLPC   C3220082   4.078   2.269   6.031 -0.3513 -0.2697 -0.0095
  177SLPC   H2X20083   4.011   2.180   6.029 -2.4527  1.1661  1.6472
  177SLPC   H2Y20084   4.178   2.231   6.003  0.8242  3.0799 -0.8106
  177SLPC   C2320085   3.487   2.566   6.106 -0.0580  0.1612 -0.0269
  177SLPC   H3R20086   3.549   2.626   6.037  0.1416 -1.3510 -1.2118
  177SLPC   H3S20087   3.454   2.635   6.186 -0.2240 -0.6299  0.6025
  177SLPC   C2420088   3.360   2.508   6.032 -0.9004  0.3287  0.0853
  177SLPC   H4R20089   3.299   2.434   6.088 -1.4241  1.6606  1.3651
  177SLPC   H4S20090   3.412   2.463   5.945 -0.9808 -0.1663  0.2861
  177SLPC   C2520091   3.255   2.615   5.996 -0.2363 -0.4946 -0.1241
  177SLPC   H5R20092   3.230   2.674   6.087  1.2243  0.4399 -0.2955
  177SLPC   H5S20093   3.165   2.557   5.966 -2.6536  1.8123  2.1512
  177SLPC   C2620094   3.301   2.709   5.883 -0.0349  0.4389 -0.8655
  177SLPC   H6R20095   3.396   2.747   5.927  1.3923 -2.5922 -1.0828
  177SLPC   H6S20096   3.235   2.795   5.858  1.1469  1.1305 -1.7485
  177SLPC   C2720097   3.351   2.648   5.751 -0.0151 -0.9029  0.6572
  177SLPC   H7R20098   3.264   2.600   5.701  1.3033 -1.8318 -0.8656
  177SLPC   H7S20099   3.433   2.576   5.773  0.5881 -0.4272  0.0027
  177SLPC   C2820100   3.406   2.758   5.660 -0.0595 -0.1944 -0.3767
  177SLPC   H8R20101   3.459   2.714   5.573  0.0772 -0.4505 -0.1658
  177SLPC   H8S20102   3.485   2.818   5.710  0.4802 -1.0415 -0.1706
  177SLPC   C2920103   3.295   2.857   5.612  0.0164 -0.0393 -0.0584
  177SLPC   H9R20104   3.259   2.923   5.692 -0.6521  0.0670 -0.4391
  177SLPC  C21020105   3.238   2.854   5.490 -0.1339  0.9801 -0.0795
  177SLPC  H10R20106   3.165   2.932   5.462 -1.6487 -0.7157 -1.1025
  177SLPC  C21120107   3.266   2.759   5.376  0.2875  0.3805  0.8436
  177SLPC  H11R20108   3.295   2.660   5.418 -0.8260 -0.4935 -0.3994
  177SLPC  H11S20109   3.353   2.791   5.315  0.9413 -1.0275  0.9849
  177SLPC  C21220110   3.147   2.740   5.285 -0.1958 -0.1820 -0.0709
  177SLPC  H12R20111   3.054   2.780   5.327  0.8616  2.0252  0.3821
  177SLPC  C21320112   3.157   2.670   5.171 -0.6903 -0.3481  1.0072
  177SLPC  H13R20113   3.068   2.675   5.107  2.1371 -0.2927 -3.3245
  177SLPC  C21420114   3.283   2.607   5.102 -0.8262  0.3695 -0.0038
  177SLPC  H14R20115   3.284   2.496   5.106  2.0907  0.3142 -0.0139
  177SLPC  H14S20116   3.375   2.633   5.159 -0.0906 -0.3527 -0.8394
  177SLPC  C21520117   3.294   2.654   4.953  0.2883  0.4302  0.7144
  177SLPC  H15R20118   3.286   2.764   4.940  1.1439  0.7538  2.5504
  177SLPC  H15S20119   3.201   2.608   4.914 -0.1238  0.8209  1.2243
  177SLPC  C21620120   3.415   2.609   4.865  0.0659  0.4950 -0.5297
  177SLPC  H16R20121   3.501   2.642   4.927 -1.6796  2.8612  0.8117
  177SLPC  H16S20122   3.422   2.679   4.779  1.1247 -0.5238 -1.3151
  177SLPC  C21720123   3.425   2.465   4.833 -0.1179  0.0185 -0.8274
  177SLPC  H17R20124   3.415   2.404   4.925 -1.3607  0.7230 -0.4647
  177SLPC  H17S20125   3.526   2.450   4.791 -0.8404  0.5248 -2.8610
  177SLPC  C21820126   3.320   2.416   4.734  0.3267  0.3638 -0.3768
  177SLPC  H18R20127   3.218   2.447   4.763  0.0748  0.2808 -1.1474
  177SLPC  H18S20128   3.342   2.307   4.730  1.6570  0.6053 -0.1125
  177SLPC  H18T20129   3.335   2.450   4.629 -3.0732  0.5090 -0.9218
  177SLPC   C3320130   4.017   2.367   5.922 -0.3061  0.0476  0.2723
  177SLPC   H3X20131   3.992   2.305   5.834 -0.1561  2.1059 -1.2780
  177SLPC   H3Y20132   4.094   2.440   5.889 -0.2178 -1.7278 -3.9392
  177SLPC   C3420133   3.895   2.436   5.975  0.4578  0.1846 -0.0364
  177SLPC   H4X20134   3.919   2.507   6.058 -2.4529 -0.1071  1.1668
  177SLPC   H4Y20135   3.835   2.360   6.029  3.8133 -0.1321  3.7835
  177SLPC   C3520136   3.807   2.509   5.872 -0.5417  0.0073 -0.1306
  177SLPC   H5X20137   3.875   2.561   5.801  1.4100 -1.8251  0.2930
  177SLPC   H5Y20138   3.742   2.585   5.921  0.8111  0.3957  1.1387
  177SLPC   C3620139   3.720   2.410   5.783  0.1456 -0.3706  0.1928
  177SLPC   H6X20140   3.619   2.408   5.830 -0.5735  0.3290 -1.2530
  177SLPC   H6Y20141   3.762   2.307   5.778  2.3008  0.4311  0.6464
  177SLPC   C3720142   3.708   2.473   5.644  0.5786  0.2552  0.2806
  177SLPC   H7X20143   3.807   2.478   5.594  0.7561 -1.7688  0.3509
  177SLPC   H7Y20144   3.682   2.581   5.649  2.4050  0.7382  0.2199
  177SLPC   C3820145   3.598   2.392   5.560  0.5089 -0.3240 -0.5921
  177SLPC   H8X20146   3.498   2.387   5.609  0.7608 -0.6486 -0.1018
  177SLPC   H8Y20147   3.632   2.286   5.556 -0.8087 -0.9450  2.0088
  177SLPC   C3920148   3.576   2.453   5.420 -0.5939 -0.7850  0.7469
  177SLPC   H9X20149   3.670   2.452   5.362 -1.5819  0.2679 -0.9764
  177SLPC   H9Y20150   3.546   2.559   5.436 -1.7302 -0.5743 -2.1777
  177SLPC  C31020151   3.469   2.375   5.343  0.6268 -0.0167 -0.8360
  177SLPC  H10X20152   3.365   2.414   5.342  1.1152  1.3012 -0.9322
  177SLPC  H10Y20153   3.469   2.272   5.387  1.7991  0.9939  1.7468
  177SLPC  C31120154   3.507   2.350   5.191  0.1195 -0.1956 -0.2498
  177SLPC  H11X20155   3.512   2.442   5.129  0.4071  0.3126  0.5146
  177SLPC  H11Y20156   3.408   2.305   5.168 -0.6002  0.0804  2.1592
  177SLPC  C31220157   3.638   2.268   5.165  0.6124  0.4223  0.0463
  177SLPC  H12X20158   3.629   2.172   5.222  3.2550  1.7318  2.9677
  177SLPC  H12Y20159   3.724   2.330   5.198  1.5173  0.5451 -2.4078
  177SLPC  C31320160   3.652   2.245   5.014 -0.1587 -0.2697  0.7867
  177SLPC  H13X20161   3.650   2.339   4.955  1.0057  1.2402  3.0213
  177SLPC  H13Y20162   3.565   2.184   4.981 -0.5051 -0.2452  1.6432
  177SLPC  C31420163   3.778   2.166   4.968  0.4200 -0.3353 -0.4508
  177SLPC  H14X20164   3.750   2.072   5.021  0.3794  1.4644  3.0767
  177SLPC  H14Y20165   3.864   2.214   5.021  0.4515 -1.3108  0.4224
  177SLPC  C31520166   3.799   2.168   4.812  0.3095 -0.2598  0.3193
  177SLPC  H15X20167   3.889   2.112   4.780  0.4172  1.5925 -3.0993
  177SLPC  H15Y20168   3.817   2.277   4.800  0.4428 -0.4771 -1.8412
  177SLPC  C31620169   3.683   2.115   4.718  0.5598  0.1291 -0.1423
  177SLPC  H16X20170   3.586   2.169   4.726  0.7321  0.5550 -0.8725
  177SLPC  H16Y20171   3.664   2.011   4.754 -0.7891  0.2897 -0.3327
  177SLPC  C31720172   3.732   2.097   4.572  0.5692 -0.7181  0.1871
  177SLPC  H17X20173   3.827   2.040   4.562  1.7156  0.8026  1.8319
  177SLPC  H17Y20174   3.759   2.199   4.538 -1.3017 -0.1562  0.3039
  177SLPC  C31820175   3.620   2.044   4.484 -0.2847 -0.0956  0.5080
  177SLPC  H18X20176   3.648   2.055   4.377 -0.8885  1.7445  0.5100
  177SLPC  H18Y20177   3.529   2.108   4.490  0.4153  0.8495  1.3817
  177SLPC  H18Z20178   3.587   1.941   4.509 -1.5152  0.0219 -0.5192
  178SLPC     N20179   0.059   1.533   6.447 -0.6635 -0.2310  0.1218
  178SLPC   C1320180   0.124   1.441   6.547 -0.1749  0.2730  0.0950
  178SLPC  H13A20181   0.225   1.425   6.510 -1.0417  1.4459 -3.0686
  178SLPC  H13B20182   0.145   1.483   6.644 -0.4948 -0.4307  0.4794
  178SLPC  H13C20183   0.072   1.349   6.569 -0.3160  0.2253 -0.4393
  178SLPC   C1420184   0.106   1.678   6.479  0.1503  0.6377 -0.1884
  178SLPC  H14A20185   0.070   1.714   6.575  0.6185 -0.8674  0.5888
  178SLPC  H14B20186   0.211   1.702   6.475  0.5055 -1.0207 -2.3723
  178SLPC  H14C20187   0.055   1.748   6.414 -1.3257 -0.6487 -0.4807
  178SLPC   C1520188  -0.092   1.523   6.471  0.4640 -0.3095  0.9875
  178SLPC  H15A20189  -0.147   1.577   6.396  1.6511 -1.1848 -0.5637
  178SLPC  H15B20190  -0.134   1.423   6.470  1.0386 -0.5587 -0.6549
  178SLPC  H15C20191  -0.114   1.573   6.565  0.2056  1.1183  0.1953
  178SLPC   C1220192   0.098   1.493   6.309  0.0728 -0.0278  0.0978
  178SLPC  H12A20193   0.033   1.557   6.252  0.9893  1.3918  0.5775
  178SLPC  H12B20194   0.067   1.393   6.284 -0.5968  0.0625  0.5392
  178SLPC   C1120195   0.248   1.509   6.270 -0.6550  0.2173  0.8978
  178SLPC  H11A20196   0.289   1.610   6.291 -1.2046  0.9094 -1.0811
  178SLPC  H11B20197   0.253   1.494   6.160 -0.7490  2.9272  0.4436
  178SLPC     P20198   0.483   1.402   6.327  0.1438 -0.1022  0.6055
  178SLPC   O1320199   0.551   1.519   6.379  0.1122  0.2687  0.0541
  178SLPC   O1420200   0.524   1.269   6.385 -0.5736 -0.4481 -0.2720
  178SLPC   O1220201   0.323   1.416   6.339  0.4441  0.0600 -0.0809
  178SLPC   O1120202   0.496   1.409   6.165  0.3413  0.2279  0.0932
  178SLPC    C120203   0.511   1.287   6.097 -0.5165 -0.2537 -0.0007
  178SLPC    HA20204   0.463   1.199   6.146  1.4107 -0.8332  0.9553
  178SLPC    HB20205   0.454   1.300   6.003 -1.8850  2.5496  1.1108
  178SLPC    C220206   0.666   1.248   6.064 -0.0387  0.0421  0.3650
  178SLPC    HS20207   0.734   1.272   6.149  1.0147  1.3954 -0.8201
  178SLPC   O2120208   0.703   1.323   5.947  0.8383  0.2963 -0.2655
  178SLPC   C2120209   0.841   1.337   5.949 -0.0272 -0.3847  0.3892
  178SLPC   O2220210   0.912   1.328   6.047  0.1287 -0.2651  0.2463
  178SLPC   C2220211   0.892   1.364   5.806  0.1571  0.0199  0.2879
  178SLPC   H2R20212   0.986   1.305   5.807 -0.4018 -0.9546 -1.4509
  178SLPC   H2S20213   0.819   1.316   5.737  0.6551  0.2591 -0.4141
  178SLPC    C320214   0.680   1.100   6.044  0.8119  0.1621  0.0094
  178SLPC    HX20215   0.637   1.055   6.136  0.0613 -2.4866 -1.5473
  178SLPC    HY20216   0.782   1.060   6.029  0.5609 -0.0889 -1.0504
  178SLPC   O3120217   0.590   1.056   5.941  0.0043 -0.2658 -0.1659
  178SLPC   C3120218   0.628   1.061   5.816 -0.0404 -0.2549 -0.3015
  178SLPC   O3220219   0.742   1.086   5.779  0.3966 -0.7236  0.2407
  178SLPC   C3220220   0.513   1.015   5.731 -0.4140  0.2521 -0.1946
  178SLPC   H2X20221   0.426   1.084   5.738  1.3332  2.6029 -0.6202
  178SLPC   H2Y20222   0.481   0.919   5.777  2.2768 -1.2568 -1.2744
  178SLPC   C2320223   0.910   1.514   5.779 -0.4589  0.0422 -0.0283
  178SLPC   H3R20224   0.992   1.550   5.845  0.8273 -0.0697 -1.5069
  178SLPC   H3S20225   0.818   1.570   5.809 -0.4129  1.2316 -1.9775
  178SLPC   C2420226   0.949   1.549   5.637  0.4730  0.3238  0.0255
  178SLPC   H4R20227   0.854   1.535   5.581  1.0268  0.2753 -0.9230
  178SLPC   H4S20228   1.027   1.477   5.602  2.0258  1.2641  1.3878
  178SLPC   C2520229   1.003   1.692   5.623 -0.4181 -0.1426  0.8125
  178SLPC   H5R20230   1.107   1.703   5.662  1.7859 -3.7090 -3.2261
  178SLPC   H5S20231   0.938   1.763   5.679 -0.3872  0.1660  0.4644
  178SLPC   C2620232   0.992   1.739   5.476 -0.2653 -0.0308  0.0126
  178SLPC   H6R20233   0.996   1.652   5.408  0.2726 -1.4646  1.7927
  178SLPC   H6S20234   1.077   1.809   5.459 -1.4011  1.5977  0.7655
  178SLPC   C2720235   0.863   1.816   5.438 -0.0736 -0.1573 -0.0204
  178SLPC   H7R20236   0.853   1.907   5.502 -2.5440 -1.0558  1.0034
  178SLPC   H7S20237   0.766   1.764   5.455 -1.9420  2.8324 -0.7488
  178SLPC   C2820238   0.865   1.857   5.286  0.0617  0.2171 -0.5350
  178SLPC   H8R20239   0.758   1.870   5.259 -0.1859  3.2724  1.3829
  178SLPC   H8S20240   0.904   1.768   5.233 -2.5984 -1.1022 -0.4052
  178SLPC   C2920241   0.930   1.987   5.247 -0.4679  0.4238 -0.6719
  178SLPC   H9R20242   0.925   2.066   5.324  2.6387  0.2056 -0.0978
  178SLPC  C21020243   1.006   2.010   5.138  0.6183 -0.7019  0.0559
  178SLPC  H10R20244   1.047   2.111   5.125 -0.9241 -0.0108  0.3427
  178SLPC  C21120245   1.040   1.916   5.027 -0.2498 -0.4846  0.3331
  178SLPC  H11R20246   0.967   1.833   5.032 -1.9088  1.0009  3.4430
  178SLPC  H11S20247   1.135   1.867   5.059  2.0586  2.7623 -0.9647
  178SLPC  C21220248   1.058   1.961   4.883  0.0750 -0.8659  0.0388
  178SLPC  H12R20249   1.149   2.021   4.867 -0.2115 -0.2356  0.7301
  178SLPC  C21320250   0.983   1.913   4.780 -0.7909 -0.0059 -0.1679
  178SLPC  H13R20251   1.007   1.958   4.683 -0.6998 -0.1889 -0.2312
  178SLPC  C21420252   0.861   1.827   4.791 -0.4206 -0.1191  0.4405
  178SLPC  H14R20253   0.788   1.866   4.865 -0.9224 -0.8332  0.3314
  178SLPC  H14S20254   0.887   1.721   4.816  2.4474  0.9964  2.8248
  178SLPC  C21520255   0.786   1.830   4.651  0.5234 -0.4259 -0.7758
  178SLPC  H15R20256   0.856   1.793   4.573  0.6803 -0.6230 -0.5417
  178SLPC  H15S20257   0.757   1.931   4.616  0.1609  0.5469  2.0321
  178SLPC  C21620258   0.662   1.742   4.650 -0.0120  0.0318  0.0854
  178SLPC  H16R20259   0.588   1.796   4.713 -0.0719 -0.5279  0.5085
  178SLPC  H16S20260   0.687   1.642   4.691 -0.7130 -0.2796 -0.2237
  178SLPC  C21720261   0.590   1.719   4.510  0.8286  0.3591 -0.1717
  178SLPC  H17R20262   0.487   1.689   4.541  0.7479  1.6931  0.9261
  178SLPC  H17S20263   0.630   1.631   4.455  0.5932 -0.0369  0.2851
  178SLPC  C21820264   0.580   1.850   4.431  0.0240  0.3029  0.4931
  178SLPC  H18R20265   0.551   1.933   4.498 -1.8149 -0.7362  1.0592
  178SLPC  H18S20266   0.515   1.833   4.343  1.4667  1.1354 -0.7710
  178SLPC  H18T20267   0.681   1.884   4.398 -0.4812 -1.1573 -2.9179
  178SLPC   C3320268   0.549   0.988   5.583 -0.1837  0.4576  0.6170
  178SLPC   H3X20269   0.612   0.897   5.575 -0.4009  0.3624 -0.0730
  178SLPC   H3Y20270   0.608   1.071   5.538 -0.0631 -0.5152 -1.0986
  178SLPC   C3420271   0.421   0.968   5.488  0.2678 -0.2138  0.1644
  178SLPC   H4X20272   0.376   1.065   5.459 -1.8270 -1.0785  0.3743
  178SLPC   H4Y20273   0.355   0.903   5.549 -0.7500 -0.0452 -0.7431
  178SLPC   C3520274   0.464   0.891   5.352  0.4650 -0.0084 -0.4214
  178SLPC   H5X20275   0.374   0.904   5.288 -0.3311  1.0628  0.8683
  178SLPC   H5Y20276   0.487   0.785   5.377  1.5392  0.5182  0.9637
  178SLPC   C3620277   0.585   0.955   5.275  0.5139 -0.0863 -0.2989
  178SLPC   H6X20278   0.675   0.946   5.340  2.3489  0.7641 -2.5696
  178SLPC   H6Y20279   0.558   1.063   5.273  1.4369  0.1507 -0.5101
  178SLPC   C3720280   0.612   0.907   5.136  0.1693 -0.7812  0.6865
  178SLPC   H7X20281   0.625   0.797   5.128  0.1259 -0.6120 -3.2079
  178SLPC   H7Y20282   0.701   0.964   5.101 -0.3877 -0.7114 -0.6424
  178SLPC   C3820283   0.494   0.949   5.033 -1.1500 -0.0201  0.2319
  178SLPC   H8X20284   0.478   1.058   5.048 -0.1312 -0.2179  3.7279
  178SLPC   H8Y20285   0.408   0.885   5.061  0.3151 -2.2891 -0.2057
  178SLPC   C3920286   0.527   0.915   4.887  0.3157  0.5197  0.4057
  178SLPC   H9X20287   0.565   0.811   4.881  0.4080  0.4633  1.6955
  178SLPC   H9Y20288   0.605   0.985   4.852  1.0979 -0.2962  0.4953
  178SLPC  C31020289   0.404   0.942   4.794 -0.7328  0.5140 -0.0339
  178SLPC  H10X20290   0.379   1.050   4.804  0.7138  0.8155  0.6028
  178SLPC  H10Y20291   0.318   0.890   4.841 -0.7693  1.3182  0.8119
  178SLPC  C31120292   0.432   0.899   4.650  0.2244  0.1792  0.1389
  178SLPC  H11X20293   0.532   0.935   4.617  0.0472 -1.7023 -2.8767
  178SLPC  H11Y20294   0.353   0.939   4.583 -1.1346 -1.0321  0.9608
  178SLPC  C31220295   0.424   0.737   4.627 -0.7588 -0.3902 -0.4430
  178SLPC  H12X20296   0.329   0.700   4.671 -2.1497  2.8766 -0.4496
  178SLPC  H12Y20297   0.497   0.694   4.699 -0.3889  0.7503 -0.1164
  178SLPC  C31320298   0.447   0.692   4.482 -0.6344  0.3027 -0.0152
  178SLPC  H13X20299   0.422   0.584   4.493 -0.0335  0.1329 -0.2229
  178SLPC  H13Y20300   0.555   0.695   4.453  0.0849  0.7016  2.4523
  178SLPC  C31420301   0.364   0.761   4.375 -0.0646  0.4990 -0.4881
  178SLPC  H14X20302   0.425   0.843   4.331  0.1954  1.5758  1.6922
  178SLPC  H14Y20303   0.277   0.808   4.425  0.9910  0.2274  1.7250
  178SLPC  C31520304   0.298   0.658   4.274 -0.0997  0.0693 -0.5468
  178SLPC  H15X20305   0.242   0.583   4.333  1.8094  0.4113  1.8589
  178SLPC  H15Y20306   0.391   0.613   4.233 -0.0066  1.6508 -2.1498
  178SLPC  C31620307   0.207   0.738   4.177 -0.9523 -0.4157  0.5483
  178SLPC  H16X20308   0.260   0.833   4.153 -1.3201 -0.8851 -2.4509
  178SLPC  H16Y20309   0.108   0.753   4.224 -1.1139  3.0274 -0.6567
  178SLPC  C31720310   0.195   0.657   4.042  0.5198 -0.0532 -0.7940
  178SLPC  H17X20311   0.115   0.715   3.992  0.1847  0.5427  0.3923
  178SLPC  H17Y20312   0.165   0.552   4.059 -1.8866  0.2434 -2.6831
  178SLPC  C31820313   0.324   0.667   3.959  0.0603  0.0325  0.3688
  178SLPC  H18X20314   0.345   0.776   3.958  1.8553 -0.2625  1.6523
  178SLPC  H18Y20315   0.306   0.640   3.853 -0.1638  1.9092 -0.1069
  178SLPC  H18Z20316   0.405   0.604   4.002 -0.6248 -0.6411  0.7123
  179SLPC     N20317   3.391   0.389   1.995  0.4266  0.1032 -0.6500
  179SLPC   C1320318   3.258   0.452   1.958 -0.8114  0.5180 -0.1222
  179SLPC  H13A20319   3.183   0.417   2.027 -0.4602  0.0923  0.0489
  179SLPC  H13B20320   3.261   0.560   1.963 -1.1646  0.4717  1.2892
  179SLPC  H13C20321   3.226   0.423   1.858  0.5632 -1.7411  0.0186
  179SLPC   C1420322   3.489   0.429   1.891 -0.3287  0.2587  0.1476
  179SLPC  H14A20323   3.448   0.425   1.791 -0.3260  0.1942  0.1493
  179SLPC  H14B20324   3.527   0.530   1.903  0.4359 -0.1552  1.3849
  179SLPC  H14C20325   3.579   0.370   1.893 -0.6809 -0.2760  1.4327
  179SLPC   C1520326   3.382   0.242   1.994  0.0594 -0.3584 -0.2758
  179SLPC  H15A20327   3.480   0.195   1.994  0.8143  1.1229  1.1221
  179SLPC  H15B20328   3.312   0.211   2.069 -0.6918  0.5730 -0.5661
  179SLPC  H15C20329   3.344   0.217   1.896 -0.8731  0.6019 -0.1753
  179SLPC   C1220330   3.434   0.444   2.133  0.3201  0.1473 -0.0136
  179SLPC  H12A20331   3.360   0.444   2.212 -0.2060  4.0510 -0.3171
  179SLPC  H12B20332   3.448   0.551   2.124  1.2989  0.1424  1.2210
  179SLPC   C1120333   3.562   0.381   2.174 -1.5134 -0.4192 -0.6056
  179SLPC  H11A20334   3.640   0.376   2.096 -0.9173 -0.7403 -0.0036
  179SLPC  H11B20335   3.531   0.283   2.216 -2.7981  0.1415 -0.1899
  179SLPC     P20336   3.686   0.594   2.252 -0.0791 -0.3162  0.2742
  179SLPC   O1320337   3.814   0.575   2.181  0.6925 -0.4423  0.1150
  179SLPC   O1420338   3.596   0.696   2.187  0.3179 -0.0583  1.0372
  179SLPC   O1220339   3.612   0.459   2.279  0.3397  0.0789  0.3407
  179SLPC   O1120340   3.703   0.658   2.392 -0.3010  0.1308 -0.6993
  179SLPC    C120341   3.592   0.641   2.486  0.4370 -0.4894 -0.1323
  179SLPC    HA20342   3.502   0.700   2.457  1.9646  1.2649 -1.5764
  179SLPC    HB20343   3.573   0.533   2.502 -0.1592 -0.3008  0.5202
  179SLPC    C220344   3.630   0.694   2.627  0.0711 -0.3122  0.1395
  179SLPC    HS20345   3.552   0.655   2.695 -0.8882 -0.8519 -1.2310
  179SLPC   O2120346   3.634   0.845   2.640  0.1601  0.5950  0.1021
  179SLPC   C2120347   3.521   0.897   2.637  0.3762 -0.8331  0.1821
  179SLPC   O2220348   3.413   0.842   2.650  0.1412 -0.1831 -0.0693
  179SLPC   C2220349   3.544   1.045   2.616  0.2570  0.3009  1.1450
  179SLPC   H2R20350   3.651   1.072   2.602  0.7267 -1.8607  0.1644
  179SLPC   H2S20351   3.502   1.064   2.515  0.1694 -0.4037  1.0445
  179SLPC    C320352   3.762   0.643   2.679 -0.0808  0.6999 -0.1287
  179SLPC    HX20353   3.844   0.662   2.607 -0.7961 -0.7114 -1.3732
  179SLPC    HY20354   3.757   0.532   2.674  1.0551  0.7029 -2.9111
  179SLPC   O3120355   3.801   0.677   2.811  0.2649 -0.2767 -0.2309
  179SLPC   C3120356   3.900   0.773   2.822 -0.4301  0.2542 -0.1459
  179SLPC   O3220357   3.951   0.838   2.731  0.0105 -0.2605 -0.1542
  179SLPC   C3220358   3.925   0.806   2.971 -0.1958  0.4909 -0.0386
  179SLPC   H2X20359   3.941   0.704   3.012 -0.9696  1.1705  2.0881
  179SLPC   H2Y20360   3.834   0.853   3.013 -0.1160  1.4144 -0.8616
  179SLPC   C2320361   3.461   1.133   2.701 -0.4773 -0.3173 -0.3585
  179SLPC   H3R20362   3.354   1.130   2.670  0.3632  0.4307 -3.7591
  179SLPC   H3S20363   3.489   1.239   2.686  0.3308  0.0737  3.1756
  179SLPC   C2420364   3.477   1.097   2.851  0.8963  0.2254 -0.1276
  179SLPC   H4R20365   3.421   1.003   2.872 -1.9387  2.0768  1.1260
  179SLPC   H4S20366   3.416   1.167   2.912 -0.5264 -1.2395  0.2039
  179SLPC   C2520367   3.621   1.097   2.903  0.0204  0.1298 -0.4231
  179SLPC   H5R20368   3.667   1.190   2.863  1.0027 -1.2774 -2.7617
  179SLPC   H5S20369   3.677   1.016   2.850  0.2464  0.9907 -1.5493
  179SLPC   C2620370   3.629   1.088   3.057 -0.0181  0.1366  0.6464
  179SLPC   H6R20371   3.570   1.167   3.108 -0.7345  0.6319 -0.8822
  179SLPC   H6S20372   3.735   1.093   3.091  0.3650 -0.7984 -0.3366
  179SLPC   C2720373   3.577   0.952   3.105  0.2141  0.7426 -0.3807
  179SLPC   H7R20374   3.633   0.865   3.065 -1.2665 -0.9230  0.9935
  179SLPC   H7S20375   3.471   0.948   3.074  0.3423  1.5753 -0.9718
  179SLPC   C2820376   3.579   0.930   3.266  0.2747 -0.5412  1.0794
  179SLPC   H8R20377   3.523   0.838   3.294  0.6935 -0.9967  0.4474
  179SLPC   H8S20378   3.528   1.026   3.292  0.7208  0.2697 -0.8604
  179SLPC   C2920379   3.717   0.921   3.329  0.3636 -0.0714 -0.4384
  179SLPC   H9R20380   3.796   0.879   3.265  1.3525  1.4946 -0.2860
  179SLPC  C21020381   3.754   0.949   3.459  0.6142 -0.1669 -0.5348
  179SLPC  H10R20382   3.854   0.944   3.504  0.3261  2.3967  0.5572
  179SLPC  C21120383   3.652   0.999   3.555 -0.3554 -0.8553 -0.8555
  179SLPC  H11R20384   3.647   0.939   3.648 -0.9997  1.0179  0.3931
  179SLPC  H11S20385   3.548   0.997   3.516 -1.2010  0.8007  1.0847
  179SLPC  C21220386   3.674   1.143   3.596 -0.0518  0.4037  0.0725
  179SLPC  H12R20387   3.725   1.210   3.526 -0.7337 -0.4743 -1.3155
  179SLPC  C21320388   3.639   1.192   3.714  0.4735 -0.3472 -0.2343
  179SLPC  H13R20389   3.650   1.299   3.738 -0.2607 -0.2527 -0.2803
  179SLPC  C21420390   3.566   1.114   3.824  0.4119  0.0702  0.8987
  179SLPC  H14R20391   3.512   1.029   3.775  2.5981 -0.5101 -0.6799
  179SLPC  H14S20392   3.499   1.189   3.871  0.4811  1.3199 -0.9042
  179SLPC  C21520393   3.651   1.071   3.938 -0.5587 -0.6899 -0.5691
  179SLPC  H15R20394   3.715   1.154   3.975 -1.6650 -0.3555  0.6684
  179SLPC  H15S20395   3.723   1.001   3.890  1.4962  0.7203  0.2886
  179SLPC  C21620396   3.585   1.008   4.057  0.3673  0.4159  0.4035
  179SLPC  H16R20397   3.664   0.939   4.094  0.9122  0.6689 -0.2665
  179SLPC  H16S20398   3.507   0.940   4.017 -0.6864  1.7361  0.1202
  179SLPC  C21720399   3.542   1.113   4.158 -0.0741  0.3134 -0.0572
  179SLPC  H17R20400   3.448   1.163   4.129 -1.6284 -1.4701  1.6553
  179SLPC  H17S20401   3.623   1.188   4.174  1.3757 -1.7041  3.1790
  179SLPC  C21820402   3.513   1.039   4.289  0.0798  0.4196  0.9195
  179SLPC  H18R20403   3.502   1.094   4.385 -0.9103 -1.3785  1.9106
  179SLPC  H18S20404   3.597   0.967   4.301  0.5135  0.6298 -0.6427
  179SLPC  H18T20405   3.420   0.979   4.288  0.2254  0.1665 -0.8651
  179SLPC   C3320406   4.049   0.903   3.001  0.2547  0.3006 -0.3011
  179SLPC   H3X20407   4.037   0.993   2.938 -1.7445  1.1078  1.1402
  179SLPC   H3Y20408   4.139   0.841   2.980 -0.0488 -1.7117  3.4623
  179SLPC   C3420409   4.044   0.963   3.142 -0.5452  0.0283  0.3843
  179SLPC   H4X20410   4.069   0.877   3.208 -0.0242 -1.3980 -1.5491
  179SLPC   H4Y20411   3.941   1.001   3.152 -0.6647  0.5407 -2.0991
  179SLPC   C3520412   4.154   1.075   3.156 -0.0606 -0.6509  0.7764
  179SLPC   H5X20413   4.243   1.046   3.096  0.2757 -1.9271  1.8490
  179SLPC   H5Y20414   4.120   1.169   3.107  0.5576 -1.1260 -0.6086
  179SLPC   C3620415   4.210   1.100   3.298  0.7237 -0.1782 -0.5213
  179SLPC   H6X20416   4.270   1.193   3.299 -0.4424  0.6037 -1.2451
  179SLPC   H6Y20417   4.261   1.004   3.323 -0.5500 -0.6108  0.5909
  179SLPC   C3720418   4.099   1.136   3.407  0.0555 -0.6290  0.6228
  179SLPC   H7X20419   4.023   1.055   3.417 -0.5081 -0.5267 -2.1410
  179SLPC   H7Y20420   4.054   1.233   3.381  0.9211 -0.1967  0.6885
  179SLPC   C3820421   4.161   1.159   3.547 -0.1058 -0.0257 -0.3101
  179SLPC   H8X20422   4.235   1.242   3.541  1.8827 -1.7955 -2.6072
  179SLPC   H8Y20423   4.225   1.076   3.584 -0.2454  1.4203  3.6546
  179SLPC   C3920424   4.063   1.188   3.664  0.3479  0.1952 -0.0265
  179SLPC   H9X20425   3.989   1.109   3.689 -0.9090  1.9438  2.0303
  179SLPC   H9Y20426   4.002   1.277   3.638 -1.6808 -1.5361 -1.5094
  179SLPC  C31020427   4.135   1.224   3.795 -0.0216  0.2523  0.4572
  179SLPC  H10X20428   4.184   1.323   3.781 -1.9416  1.5889  2.5881
  179SLPC  H10Y20429   4.202   1.143   3.832  1.2448  0.2840 -1.5699
  179SLPC  C31120430   4.035   1.257   3.906 -0.1982  0.5384  0.1408
  179SLPC  H11X20431   3.983   1.160   3.920 -1.7552  0.8542 -2.6297
  179SLPC  H11Y20432   3.956   1.327   3.872  0.7219  1.0992 -0.9079
  179SLPC  C31220433   4.108   1.297   4.032 -0.2755  0.5049  0.9685
  179SLPC  H12X20434   4.175   1.384   4.016 -0.4340  0.7407  1.5490
  179SLPC  H12Y20435   4.168   1.214   4.075 -0.2980  0.1023  0.2388
  179SLPC  C31320436   4.006   1.334   4.147 -0.1877  0.1442 -0.4483
  179SLPC  H13X20437   3.932   1.409   4.112 -2.0004 -1.2241  0.3174
  179SLPC  H13Y20438   4.064   1.389   4.225 -0.1268 -1.5445  0.7410
  179SLPC  C31420439   3.933   1.219   4.209  0.3626  0.0440 -0.1642
  179SLPC  H14X20440   3.910   1.146   4.129  0.4268 -0.2753  0.1053
  179SLPC  H14Y20441   3.831   1.247   4.242  0.8036  0.0594  1.2695
  179SLPC  C31520442   4.012   1.128   4.305  0.4055  0.0066  0.4729
  179SLPC  H15X20443   4.109   1.116   4.254  0.2870 -0.7397  0.4163
  179SLPC  H15Y20444   3.969   1.026   4.307 -0.4207  0.2315 -2.2976
  179SLPC  C31620445   4.026   1.190   4.445  0.0602 -0.3040  1.3186
  179SLPC  H16X20446   3.925   1.181   4.491 -1.4370 -0.1591 -1.6539
  179SLPC  H16Y20447   4.045   1.300   4.439 -0.8249 -0.1740  0.6248
  179SLPC  C31720448   4.132   1.123   4.541  0.3102  0.5067  0.6145
  179SLPC  H17X20449   4.131   1.172   4.641 -1.4316 -0.6216  1.2031
  179SLPC  H17Y20450   4.231   1.140   4.494 -0.5141 -0.7227 -1.7263
  179SLPC  C31820451   4.131   0.966   4.554 -0.1453 -0.7935 -0.1824
  179SLPC  H18X20452   4.031   0.942   4.595 -0.6977 -0.6031 -1.3635
  179SLPC  H18Y20453   4.214   0.935   4.621  1.6590  1.3970 -1.2741
  179SLPC  H18Z20454   4.135   0.923   4.452 -1.3619  0.6964 -0.9168
  180SLPC     N20455   2.434   0.260   1.857 -0.4812  0.0754  0.6322
  180SLPC   C1320456   2.315   0.336   1.808 -1.0335  0.3781  0.1031
  180SLPC  H13A20457   2.338   0.439   1.786 -2.8603  0.7150 -0.4134
  180SLPC  H13B20458   2.291   0.298   1.710  0.2558  0.6939 -0.3528
  180SLPC  H13C20459   2.235   0.339   1.881 -0.2536 -1.3191  1.0869
  180SLPC   C1420460   2.548   0.281   1.763 -0.1742  0.0410 -0.4657
  180SLPC  H14A20461   2.504   0.280   1.665 -1.2350  2.7946 -0.1301
  180SLPC  H14B20462   2.582   0.382   1.783 -2.1277  0.4009  1.3828
  180SLPC  H14C20463   2.629   0.214   1.786  0.9258  1.6742  0.7048
  180SLPC   C1520464   2.406   0.113   1.868 -0.2613  0.0467 -0.0151
  180SLPC  H15A20465   2.307   0.099   1.909 -0.0178  0.0205  0.5771
  180SLPC  H15B20466   2.404   0.066   1.771 -0.0706  1.0113 -0.5004
  180SLPC  H15C20467   2.482   0.055   1.919 -0.1003  1.8233  1.8548
  180SLPC   C1220468   2.479   0.324   1.991  0.1876 -0.2628  0.2974
  180SLPC  H12A20469   2.525   0.421   1.977 -1.1487  0.3375 -0.1322
  180SLPC  H12B20470   2.541   0.253   2.043  0.5392  0.2612  0.5971
  180SLPC   C1120471   2.368   0.346   2.105  0.0069 -0.2720 -0.0435
  180SLPC  H11A20472   2.423   0.341   2.201  0.4636 -0.6040 -0.3162
  180SLPC  H11B20473   2.291   0.267   2.116  0.3452 -0.3609  2.0441
  180SLPC     P20474   2.362   0.607   2.101  0.2867 -0.0323  0.0764
  180SLPC   O1320475   2.462   0.619   1.993  0.1657  0.4228  0.2671
  180SLPC   O1420476   2.268   0.720   2.110  0.4979 -0.1461  0.3364
  180SLPC   O1220477   2.292   0.471   2.083  0.2354  0.3598  0.0237
  180SLPC   O1120478   2.442   0.585   2.233 -0.3317  0.2693 -0.2619
  180SLPC    C120479   2.361   0.596   2.353  0.5172 -0.6120 -0.2674
  180SLPC    HA20480   2.322   0.698   2.368 -2.4991 -1.9403  1.8187
  180SLPC    HB20481   2.263   0.545   2.344  0.1668 -0.0009  0.0578
  180SLPC    C220482   2.446   0.548   2.472 -0.7706  0.0716 -0.1960
  180SLPC    HS20483   2.385   0.526   2.561  2.2793 -0.5559  1.9040
  180SLPC   O2120484   2.545   0.645   2.514  0.8351  0.4951  0.5078
  180SLPC   C2120485   2.499   0.749   2.591  0.7208  0.2210  0.0635
  180SLPC   O2220486   2.385   0.762   2.630  0.4942  0.2860  0.6167
  180SLPC   C2220487   2.614   0.843   2.620 -0.7134 -0.4987 -0.2863
  180SLPC   H2R20488   2.679   0.841   2.530 -1.8766  2.1976 -1.2896
  180SLPC   H2S20489   2.566   0.943   2.623 -0.4766 -0.4042  1.7507
  180SLPC    C320490   2.515   0.413   2.442 -0.7924  0.1503  0.7242
  180SLPC    HX20491   2.587   0.443   2.362  1.6468 -0.7545  2.4490
  180SLPC    HY20492   2.437   0.347   2.398 -0.2652  1.1961 -1.9618
  180SLPC   O3120493   2.586   0.359   2.564 -0.1883 -0.3434  0.1112
  180SLPC   C3120494   2.625   0.232   2.547  0.5170  0.5434  0.0120
  180SLPC   O3220495   2.602   0.166   2.447 -0.0629  0.4479 -0.6702
  180SLPC   C3220496   2.711   0.185   2.663  0.3672 -0.0956  0.4846
  180SLPC   H2X20497   2.686   0.253   2.747  1.7298  3.4874 -1.7486
  180SLPC   H2Y20498   2.818   0.204   2.640  0.4048  0.1193  0.8427
  180SLPC   C2320499   2.692   0.819   2.744  0.0694 -0.4021 -0.2732
  180SLPC   H3R20500   2.779   0.889   2.743  1.1451 -1.7083 -1.2510
  180SLPC   H3S20501   2.740   0.719   2.739 -0.0555 -0.5073  0.4311
  180SLPC   C2420502   2.619   0.840   2.875 -0.1639 -0.6287 -0.1800
  180SLPC   H4R20503   2.547   0.760   2.902  1.2570 -2.1940 -0.8290
  180SLPC   H4S20504   2.573   0.941   2.868 -0.4319 -0.7257  0.1370
  180SLPC   C2520505   2.710   0.855   2.996 -0.2601 -0.2405 -0.3158
  180SLPC   H5R20506   2.791   0.927   2.970  1.2371 -2.1850 -1.2980
  180SLPC   H5S20507   2.773   0.772   3.033  1.3409  1.0713  0.0216
  180SLPC   C2620508   2.631   0.896   3.118 -0.2828 -0.0608 -1.1994
  180SLPC   H6R20509   2.567   0.814   3.157 -0.9519  0.9193 -0.1727
  180SLPC   H6S20510   2.549   0.968   3.096  0.3466  0.5218 -1.7082
  180SLPC   C2720511   2.705   0.945   3.249  0.4782  0.7113 -0.2727
  180SLPC   H7R20512   2.636   0.983   3.327  0.0579  1.7464 -1.1294
  180SLPC   H7S20513   2.772   1.023   3.208 -0.2383  0.1706 -2.6512
  180SLPC   C2820514   2.782   0.831   3.314 -1.3481 -0.3096 -0.1342
  180SLPC   H8R20515   2.858   0.791   3.243 -0.5547 -0.7562  0.9206
  180SLPC   H8S20516   2.708   0.751   3.333 -0.9421 -0.4979  0.7343
  180SLPC   C2920517   2.836   0.882   3.450 -0.3170  0.0872  0.7318
  180SLPC   H9R20518   2.939   0.922   3.446 -0.0519 -0.5182  1.1850
  180SLPC  C21020519   2.773   0.893   3.566 -0.0487 -0.9091 -0.2505
  180SLPC  H10R20520   2.829   0.920   3.657 -1.4772 -2.3812  1.1379
  180SLPC  C21120521   2.632   0.850   3.592  0.4824 -0.3588  0.2767
  180SLPC  H11R20522   2.647   0.756   3.651  0.8716 -1.9939 -2.2595
  180SLPC  H11S20523   2.576   0.806   3.507 -1.3210  1.7765  0.2851
  180SLPC  C21220524   2.551   0.948   3.681  0.3689 -0.2645 -0.7242
  180SLPC  H12R20525   2.481   1.007   3.620  1.4774  1.1406 -0.6901
  180SLPC  C21320526   2.535   0.950   3.816 -1.1031  0.6302  0.1142
  180SLPC  H13R20527   2.487   1.037   3.863 -2.2366 -0.6168  1.3253
  180SLPC  C21420528   2.633   0.873   3.899 -0.0237  0.7994  0.4780
  180SLPC  H14R20529   2.682   0.794   3.838 -1.1395  0.0615  0.5268
  180SLPC  H14S20530   2.577   0.813   3.974 -1.1599 -0.2487 -1.1725
  180SLPC  C21520531   2.743   0.950   3.978  0.4424  0.0113 -0.6253
  180SLPC  H15R20532   2.796   1.019   3.908  1.6649 -0.0841  0.1918
  180SLPC  H15S20533   2.804   0.873   4.028  0.4115  1.0706  1.1464
  180SLPC  C21620534   2.681   1.029   4.096 -0.0277 -0.5921 -0.1758
  180SLPC  H16R20535   2.596   1.086   4.054 -1.2109 -3.0381 -1.3358
  180SLPC  H16S20536   2.744   1.113   4.133  0.7847 -1.2012 -0.1308
  180SLPC  C21720537   2.633   0.938   4.213 -0.4028  0.3419  0.3519
  180SLPC  H17R20538   2.725   0.887   4.248  0.1657  1.9097  1.2538
  180SLPC  H17S20539   2.562   0.862   4.173  0.0502  0.9837 -1.8008
  180SLPC  C21820540   2.562   1.009   4.326 -0.4987 -0.0558 -0.5077
  180SLPC  H18R20541   2.508   0.930   4.382 -0.7397  0.2031 -0.3719
  180SLPC  H18S20542   2.486   1.075   4.278 -0.0662  1.3922  0.7359
  180SLPC  H18T20543   2.626   1.067   4.395 -1.4680 -0.0427  0.3965
  180SLPC   C3320544   2.701   0.032   2.702 -0.2061 -0.2669 -0.2474
  180SLPC   H3X20545   2.745  -0.020   2.615  0.2142  0.8168 -0.6975
  180SLPC   H3Y20546   2.592   0.018   2.718 -0.2981  0.9150  0.3039
  180SLPC   C3420547   2.784  -0.003   2.825 -0.0470 -0.2839 -0.0065
  180SLPC   H4X20548   2.875   0.059   2.809  0.9295 -2.2081 -2.6671
  180SLPC   H4Y20549   2.817  -0.109   2.818  0.7343  0.0240 -1.3987
  180SLPC   C3520550   2.701   0.015   2.952  0.3401 -0.1165  0.4468
  180SLPC   H5X20551   2.614  -0.054   2.964  0.6619 -0.3919  1.2826
  180SLPC   H5Y20552   2.664   0.119   2.940 -1.4567 -0.9103 -1.6054
  180SLPC   C3620553   2.777  -0.001   3.077 -0.2926  0.0458 -0.2690
  180SLPC   H6X20554   2.868   0.063   3.070  0.2328 -0.7167 -0.5339
  180SLPC   H6Y20555   2.819  -0.104   3.075  0.6909  0.3753 -3.9968
  180SLPC   C3720556   2.695   0.017   3.210  0.4441  0.1976 -0.1650
  180SLPC   H7X20557   2.603  -0.046   3.212  0.4936 -0.0325 -2.4430
  180SLPC   H7Y20558   2.665   0.124   3.206 -0.0252  0.0340 -1.2585
  180SLPC   C3820559   2.781   0.016   3.327  0.3300 -0.1180 -0.2812
  180SLPC   H8X20560   2.864   0.090   3.325 -0.5012  0.8038 -1.4685
  180SLPC   H8Y20561   2.832  -0.082   3.341  1.9786  0.8431  0.8697
  180SLPC   C3920562   2.698   0.023   3.452  0.5351  0.5141 -0.0549
  180SLPC   H9X20563   2.673  -0.085   3.461  0.2891  0.4506 -1.3028
  180SLPC   H9Y20564   2.615   0.096   3.444  2.1192  2.3535 -0.4150
  180SLPC  C31020565   2.783   0.061   3.570 -0.2066 -0.3307 -0.2356
  180SLPC  H10X20566   2.807   0.169   3.564  0.3725 -0.4157  0.4814
  180SLPC  H10Y20567   2.877   0.006   3.588  1.4835  2.1224 -1.0802
  180SLPC  C31120568   2.701   0.039   3.703 -0.0105  0.0921 -0.2741
  180SLPC  H11X20569   2.698  -0.070   3.720  0.1651  0.2852  1.1200
  180SLPC  H11Y20570   2.602   0.089   3.695 -0.4018 -0.5405  0.5856
  180SLPC  C31220571   2.774   0.101   3.828  0.4559  0.6616  0.1614
  180SLPC  H12X20572   2.792   0.210   3.815  1.7286  0.6423  1.5832
  180SLPC  H12Y20573   2.870   0.048   3.844  0.0199 -0.5434 -0.9998
  180SLPC  C31320574   2.681   0.095   3.944  0.3036 -0.0821 -0.1647
  180SLPC  H13X20575   2.632  -0.005   3.950 -0.1109  0.1052 -0.3751
  180SLPC  H13Y20576   2.594   0.162   3.929 -0.3409 -0.9233 -0.2864
  180SLPC  C31420577   2.752   0.129   4.074  0.1217  0.0874 -1.0901
  180SLPC  H14X20578   2.806   0.226   4.073 -1.1796  0.8431 -0.7442
  180SLPC  H14Y20579   2.830   0.057   4.105 -1.2523 -0.4424  1.4689
  180SLPC  C31520580   2.652   0.120   4.191 -0.4459 -0.1089 -0.4946
  180SLPC  H15X20581   2.601   0.022   4.197 -0.4707 -0.1183 -0.8259
  180SLPC  H15Y20582   2.568   0.193   4.197 -1.3024 -1.2004  3.1509
  180SLPC  C31620583   2.736   0.149   4.321  0.5477  0.5032 -0.4109
  180SLPC  H16X20584   2.783   0.250   4.315  1.2009  0.3224  1.0505
  180SLPC  H16Y20585   2.822   0.079   4.331  1.5473  1.7584  0.1890
  180SLPC  C31720586   2.654   0.154   4.450  0.2964  0.1503  0.2413
  180SLPC  H17X20587   2.574   0.228   4.431  0.9618  0.5626 -1.1430
  180SLPC  H17Y20588   2.714   0.190   4.536  0.2717  0.0682  0.2929
  180SLPC  C31820589   2.594   0.024   4.492 -0.8973 -0.6598 -0.3372
  180SLPC  H18X20590   2.674  -0.051   4.510 -0.5465 -0.8607 -2.4927
  180SLPC  H18Y20591   2.529  -0.025   4.416  0.8327 -2.2408 -0.8744
  180SLPC  H18Z20592   2.530   0.037   4.582 -0.2750 -1.4043  0.2243
  181SLPC     N20593   0.760   6.610   1.744  0.5385 -0.0603  0.6750
  181SLPC   C1320594   0.902   6.590   1.792  0.5529  0.0309 -0.1034
  181SLPC  H13A20595   0.920   6.484   1.804 -1.2937 -0.3427 -0.3125
  181SLPC  H13B20596   0.968   6.617   1.711  0.6734  2.3298  0.6969
  181SLPC  H13C20597   0.930   6.650   1.878  1.4840 -0.2725 -0.1781
  181SLPC   C1420598   0.737   6.511   1.632  0.0767  0.0213 -0.4053
  181SLPC  H14A20599   0.817   6.528   1.561  1.3370 -2.4749  0.2695
  181SLPC  H14B20600   0.762   6.408   1.655 -0.4609  0.1411  0.7588
  181SLPC  H14C20601   0.636   6.526   1.598  0.4221  1.4241 -0.8675
  181SLPC   C1520602   0.747   6.756   1.703  1.2106  0.1891 -0.1000
  181SLPC  H15A20603   0.741   6.798   1.802 -1.4760  1.3444 -0.6749
  181SLPC  H15B20604   0.825   6.784   1.633  0.3076 -1.3071 -1.8125
  181SLPC  H15C20605   0.646   6.775   1.669  0.7525 -0.5069  0.8334
  181SLPC   C1220606   0.672   6.573   1.859  0.1186  0.1747  0.4581
  181SLPC  H12A20607   0.684   6.468   1.879  1.7725  0.6380  2.2114
  181SLPC  H12B20608   0.571   6.593   1.826  0.2760  0.0278 -0.1140
  181SLPC   C1120609   0.667   6.658   1.992  0.2412  0.6340 -0.1873
  181SLPC  H11A20610   0.771   6.660   2.033  0.7435  2.5643 -1.4427
  181SLPC  H11B20611   0.602   6.618   2.072  1.1862  2.7953  1.7616
  181SLPC     P20612   0.481   6.841   1.956 -0.4302 -0.2483 -0.0765
  181SLPC   O1320613   0.480   6.993   1.964  0.7735 -0.1939 -0.3350
  181SLPC   O1420614   0.442   6.786   1.822 -0.2095 -0.2342 -0.6736
  181SLPC   O1220615   0.631   6.791   1.969 -0.5969 -0.3957  0.4081
  181SLPC   O1120616   0.405   6.777   2.080 -0.1072  0.0405  0.0076
  181SLPC    C120617   0.364   6.836   2.198 -0.3055  0.1276 -0.0460
  181SLPC    HA20618   0.296   6.922   2.177  0.8615  0.5242 -2.6632
  181SLPC    HB20619   0.321   6.754   2.259  0.8324 -0.1009  0.4679
  181SLPC    C220620   0.477   6.884   2.292 -0.0358 -0.4009 -0.8296
  181SLPC    HS20621   0.508   6.977   2.240  1.5235 -1.2218 -1.4165
  181SLPC   O2120622   0.580   6.786   2.303 -0.0378  0.3335  0.2582
  181SLPC   C2120623   0.700   6.829   2.351  0.2690 -0.6731 -0.5331
  181SLPC   O2220624   0.723   6.940   2.393 -0.2074  0.3063 -0.2603
  181SLPC   C2220625   0.799   6.708   2.344  0.7659 -0.1351  0.5528
  181SLPC   H2R20626   0.746   6.624   2.294  0.6712  0.6400 -0.6841
  181SLPC   H2S20627   0.879   6.739   2.274 -0.7676  0.9864 -0.7931
  181SLPC    C320628   0.426   6.915   2.437  0.4961 -0.1935 -0.3637
  181SLPC    HX20629   0.351   6.997   2.439  1.5620  0.8071  1.3891
  181SLPC    HY20630   0.508   6.948   2.505 -0.4802 -1.6791  1.6348
  181SLPC   O3120631   0.375   6.801   2.499  0.2636  0.3903 -0.7539
  181SLPC   C3120632   0.356   6.809   2.629  0.2262 -0.4496 -0.9192
  181SLPC   O3220633   0.381   6.908   2.698  0.2316 -0.3218  0.0492
  181SLPC   C3220634   0.298   6.676   2.684  0.6519 -0.2537  0.2991
  181SLPC   H2X20635   0.380   6.601   2.689  1.0178 -0.0736 -1.8196
  181SLPC   H2Y20636   0.217   6.650   2.613  0.4626  0.3342  0.2965
  181SLPC   C2320637   0.858   6.661   2.482 -0.3811 -0.3895  0.7039
  181SLPC   H3R20638   0.883   6.754   2.537  1.9821  0.3119 -1.3868
  181SLPC   H3S20639   0.956   6.615   2.459  1.0456  1.5499  2.5116
  181SLPC   C2420640   0.759   6.568   2.564  0.2386 -0.4250  0.4545
  181SLPC   H4R20641   0.729   6.491   2.490  0.4589  0.9325 -1.0916
  181SLPC   H4S20642   0.666   6.624   2.587  0.3930  0.3857 -0.7874
  181SLPC   C2520643   0.823   6.509   2.694  0.2199  0.3663 -0.1644
  181SLPC   H5R20644   0.881   6.594   2.735 -0.1559  1.5243 -1.8936
  181SLPC   H5S20645   0.897   6.434   2.659 -1.6286 -3.2504  2.9281
  181SLPC   C2620646   0.722   6.443   2.780  0.3704  0.3365 -0.3892
  181SLPC   H6R20647   0.770   6.374   2.853 -2.8620  1.0585  2.7344
  181SLPC   H6S20648   0.647   6.387   2.720 -1.5660  0.7398  1.5149
  181SLPC   C2720649   0.626   6.531   2.851 -0.4310 -0.1306 -0.9115
  181SLPC   H7R20650   0.519   6.504   2.850 -0.4429 -0.1605 -0.0176
  181SLPC   H7S20651   0.610   6.634   2.811 -0.5383  0.5474  0.8080
  181SLPC   C2820652   0.669   6.542   3.003 -0.0613  0.4067 -0.1206
  181SLPC   H8R20653   0.678   6.446   3.059  1.7088  1.2612  1.1355
  181SLPC   H8S20654   0.595   6.595   3.066 -0.0995  0.8663 -0.5483
  181SLPC   C2920655   0.799   6.619   3.018  0.3655 -0.6103  0.6627
  181SLPC   H9R20656   0.822   6.673   2.925 -2.1181 -0.2906  0.1681
  181SLPC  C21020657   0.875   6.643   3.129 -0.7122 -0.3543 -0.0253
  181SLPC  H10R20658   0.964   6.707   3.117  0.5954 -1.8991  1.0807
  181SLPC  C21120659   0.854   6.573   3.259  0.0478  0.0702  0.6323
  181SLPC  H11R20660   0.745   6.571   3.275  0.1963 -0.9874  1.6177
  181SLPC  H11S20661   0.893   6.623   3.350 -1.1767  1.1212  0.6050
  181SLPC  C21220662   0.902   6.426   3.250 -0.8129  0.2916 -0.4967
  181SLPC  H12R20663   0.908   6.370   3.156 -0.6944 -1.5976  0.5764
  181SLPC  C21320664   0.945   6.366   3.363  0.2036 -0.6523 -0.0060
  181SLPC  H13R20665   0.983   6.263   3.360  0.9230 -0.4771  1.9032
  181SLPC  C21420666   0.947   6.418   3.503  0.2137  0.1574  0.3339
  181SLPC  H14R20667   0.858   6.374   3.552 -0.3575 -0.0220 -0.8231
  181SLPC  H14S20668   0.937   6.528   3.520  0.8306 -0.2939  4.5591
  181SLPC  C21520669   1.073   6.381   3.582  0.0101 -0.1426 -0.2211
  181SLPC  H15R20670   1.169   6.388   3.526  0.3838  1.5163  0.5647
  181SLPC  H15S20671   1.069   6.272   3.602 -0.9026  0.1929  1.5845
  181SLPC  C21620672   1.090   6.459   3.712 -0.3292  0.1010 -0.5979
  181SLPC  H16R20673   1.003   6.441   3.779  0.8023  0.5600  1.0659
  181SLPC  H16S20674   1.079   6.568   3.694  0.8249  0.6860  1.7598
  181SLPC  C21720675   1.228   6.435   3.777  0.4010 -0.1116  0.1914
  181SLPC  H17R20676   1.305   6.485   3.714  0.6424 -2.2569 -1.3380
  181SLPC  H17S20677   1.244   6.325   3.774 -0.3962 -0.2291 -0.0091
  181SLPC  C21820678   1.249   6.483   3.923  0.5494 -0.3328 -0.0361
  181SLPC  H18R20679   1.358   6.491   3.943  0.6160 -0.6463 -0.2750
  181SLPC  H18S20680   1.202   6.418   4.000 -1.2640  0.0433 -0.7563
  181SLPC  H18T20681   1.208   6.587   3.925  1.2829 -0.0244  2.1624
  181SLPC   C3320682   0.259   6.678   2.829  0.2863  0.3636 -0.0180
  181SLPC   H3X20683   0.174   6.744   2.856  0.0013  0.5391 -1.2668
  181SLPC   H3Y20684   0.348   6.716   2.882 -0.1359 -0.7365  1.5379
  181SLPC   C3420685   0.227   6.539   2.885  0.0924  0.0550  1.2029
  181SLPC   H4X20686   0.311   6.470   2.861  0.2904  0.7908 -0.2801
  181SLPC   H4Y20687   0.131   6.512   2.836  0.7180  3.7154 -2.4955
  181SLPC   C3520688   0.185   6.535   3.033  0.0197  0.4498 -0.0703
  181SLPC   H5X20689   0.090   6.591   3.047 -0.8746 -1.3794  1.7611
  181SLPC   H5Y20690   0.260   6.594   3.091  1.6603 -1.4535 -0.1517
  181SLPC   C3620691   0.183   6.394   3.094  0.1767  0.3411 -0.1831
  181SLPC   H6X20692   0.122   6.319   3.040 -2.7366  1.2170  1.6714
  181SLPC   H6Y20693   0.142   6.400   3.197 -0.3422  1.0392 -0.4287
  181SLPC   C3720694   0.324   6.338   3.096  0.3264 -0.0030 -0.5114
  181SLPC   H7X20695   0.408   6.410   3.103  1.8251 -1.6749 -0.3776
  181SLPC   H7Y20696   0.344   6.301   2.993  0.2686 -1.0844 -0.1511
  181SLPC   C3820697   0.356   6.220   3.198 -0.0666  0.5748 -0.3931
  181SLPC   H8X20698   0.436   6.158   3.152 -0.9983  0.2960 -1.6970
  181SLPC   H8Y20699   0.270   6.150   3.197  1.8575 -1.9342  0.7256
  181SLPC   C3920700   0.386   6.265   3.339  0.4462  0.4568 -0.4216
  181SLPC   H9X20701   0.429   6.168   3.374 -0.4512 -0.9077 -2.8912
  181SLPC   H9Y20702   0.304   6.285   3.411  0.5084 -0.2577 -0.1425
  181SLPC  C31020703   0.480   6.383   3.353 -0.3293 -0.4491  0.1700
  181SLPC  H10X20704   0.440   6.470   3.296  2.3985  0.8452  0.0809
  181SLPC  H10Y20705   0.582   6.370   3.309  0.2338  0.5212  1.1444
  181SLPC  C31120706   0.489   6.443   3.492 -0.5122 -0.1671 -0.1451
  181SLPC  H11X20707   0.393   6.496   3.513 -0.5870 -0.2173 -0.3483
  181SLPC  H11Y20708   0.565   6.522   3.501  0.2378 -1.1161  4.9190
  181SLPC  C31220709   0.506   6.330   3.596  0.1005 -0.6051  0.1545
  181SLPC  H12X20710   0.592   6.265   3.568  1.0766  0.9716 -0.6635
  181SLPC  H12Y20711   0.416   6.265   3.592  0.8833 -1.6508 -1.2514
  181SLPC  C31320712   0.518   6.385   3.740  0.4651 -0.4672  0.1226
  181SLPC  H13X20713   0.492   6.302   3.809 -1.1571 -1.2418 -1.3193
  181SLPC  H13Y20714   0.446   6.470   3.748  1.4179  0.4024 -0.2920
  181SLPC  C31420715   0.657   6.440   3.784  0.2528  0.3101  0.4269
  181SLPC  H14X20716   0.689   6.529   3.727  0.7621  1.0181  1.7832
  181SLPC  H14Y20717   0.733   6.362   3.760  0.4852  0.5926  0.2421
  181SLPC  C31520718   0.654   6.478   3.935 -0.1358  0.2427  0.3984
  181SLPC  H15X20719   0.634   6.384   3.991  0.2704  0.0424  0.2095
  181SLPC  H15Y20720   0.568   6.547   3.946 -1.1192 -0.6276 -1.4941
  181SLPC  C31620721   0.775   6.544   3.992  0.3679  0.2251 -0.2655
  181SLPC  H16X20722   0.863   6.479   3.974  0.7883  1.1174 -1.5249
  181SLPC  H16Y20723   0.753   6.547   4.101  0.8864 -1.7938 -0.0700
  181SLPC  C31720724   0.801   6.689   3.934 -0.4538  0.0399 -0.0569
  181SLPC  H17X20725   0.794   6.666   3.826 -2.2318 -3.3833  0.6497
  181SLPC  H17Y20726   0.904   6.724   3.957  0.4484 -1.4425 -1.6594
  181SLPC  C31820727   0.700   6.794   3.988 -0.7538  0.1126  0.2828
  181SLPC  H18X20728   0.599   6.777   3.944 -0.8169 -0.1634  0.5284
  181SLPC  H18Y20729   0.718   6.898   3.953  0.2294 -0.3986 -0.8224
  181SLPC  H18Z20730   0.701   6.781   4.098 -0.9196 -1.4983  0.1283
  182SLPC     N20731   1.017   5.698   1.753 -0.1516  0.4074 -0.7002
  182SLPC   C1320732   1.023   5.840   1.710 -0.2862  0.3934  0.0463
  182SLPC  H13A20733   1.009   5.908   1.793  3.1110 -0.4775  1.5250
  182SLPC  H13B20734   1.108   5.869   1.650 -1.7320  2.5920 -1.0732
  182SLPC  H13C20735   0.935   5.851   1.648 -1.1394 -0.0143  1.1514
  182SLPC   C1420736   1.147   5.636   1.773 -0.5747  0.4038  0.0592
  182SLPC  H14A20737   1.205   5.690   1.846 -1.9383 -3.0916  4.1543
  182SLPC  H14B20738   1.148   5.536   1.814 -0.3687  0.1547 -0.5328
  182SLPC  H14C20739   1.207   5.637   1.683  1.3415  1.7969  1.2700
  182SLPC   C1520740   0.952   5.620   1.642  0.4286 -0.5907  0.0256
  182SLPC  H15A20741   0.936   5.514   1.658 -0.4437 -0.7623 -1.7768
  182SLPC  H15B20742   0.855   5.663   1.623  0.8972  0.2679 -0.5207
  182SLPC  H15C20743   1.004   5.633   1.548 -1.4161  0.9085 -0.8580
  182SLPC   C1220744   0.926   5.689   1.880  0.4615  0.4872  0.3930
  182SLPC  H12A20745   0.914   5.585   1.907 -0.6238  0.5539  0.2000
  182SLPC  H12B20746   0.828   5.725   1.853 -0.1241 -2.1013 -1.3529
  182SLPC   C1120747   0.973   5.775   2.001  0.5059 -0.9840 -0.0388
  182SLPC  H11A20748   1.081   5.769   2.026  1.0650  4.0541 -0.2779
  182SLPC  H11B20749   0.921   5.752   2.097  1.8019 -1.6466  0.5348
  182SLPC     P20750   0.828   5.984   2.028 -0.2026 -0.0218 -0.3842
  182SLPC   O1320751   0.808   6.111   1.946  0.2773  0.3315 -0.1294
  182SLPC   O1420752   0.716   5.888   2.029  0.0191  0.1739 -0.5056
  182SLPC   O1220753   0.961   5.914   1.986  0.4841 -0.4517  0.8625
  182SLPC   O1120754   0.870   6.028   2.178 -0.0183 -0.4952  0.2603
  182SLPC    C120755   0.926   6.163   2.193  0.4677  0.2875  0.2579
  182SLPC    HA20756   1.017   6.162   2.256  0.8524 -0.1012 -0.2881
  182SLPC    HB20757   0.953   6.223   2.103  0.0102  1.6440  1.0044
  182SLPC    C220758   0.832   6.254   2.267  0.3816 -0.1502  0.0527
  182SLPC    HS20759   0.896   6.340   2.298  0.8653 -0.4387 -0.1465
  182SLPC   O2120760   0.765   6.184   2.379  0.3499 -0.4059 -0.2846
  182SLPC   C2120761   0.838   6.179   2.482  0.0523 -0.1714  0.1107
  182SLPC   O2220762   0.947   6.228   2.496  0.2217  0.7939 -0.3567
  182SLPC   C2220763   0.756   6.111   2.592 -0.7631 -0.1014 -0.3301
  182SLPC   H2R20764   0.669   6.174   2.621  0.3568  1.2882  0.1152
  182SLPC   H2S20765   0.714   6.015   2.557  3.0384 -1.6151 -1.2443
  182SLPC    C320766   0.728   6.313   2.165  0.7099  0.3038  0.2394
  182SLPC    HX20767   0.673   6.226   2.124 -0.9436  2.5329 -2.6255
  182SLPC    HY20768   0.764   6.363   2.073  0.5040  0.5696  0.3003
  182SLPC   O3120769   0.644   6.415   2.231  0.2206 -0.5162 -0.0746
  182SLPC   C3120770   0.516   6.425   2.188  0.0716  0.1389  0.1105
  182SLPC   O3220771   0.472   6.381   2.087  0.2652  0.0389  0.2208
  182SLPC   C3220772   0.428   6.501   2.288  0.3193  0.6267  0.1481
  182SLPC   H2X20773   0.369   6.579   2.235  0.9278  2.7008  2.3545
  182SLPC   H2Y20774   0.492   6.556   2.360 -0.9466  1.5291  0.6298
  182SLPC   C2320775   0.837   6.083   2.725  0.3201 -0.7101 -0.5899
  182SLPC   H3R20776   0.896   6.174   2.744 -0.9879 -0.0421  0.4837
  182SLPC   H3S20777   0.896   5.989   2.721 -0.4139 -1.1583 -1.3238
  182SLPC   C2420778   0.737   6.075   2.841 -0.2506 -0.2238  0.8586
  182SLPC   H4R20779   0.674   5.983   2.841 -0.0992 -0.3339  0.2108
  182SLPC   H4S20780   0.668   6.160   2.826 -0.4537 -0.5436 -0.0852
  182SLPC   C2520781   0.801   6.105   2.976  0.3950 -0.7129 -0.1216
  182SLPC   H5R20782   0.727   6.152   3.045  0.3116 -1.6404  0.4431
  182SLPC   H5S20783   0.879   6.179   2.950 -0.0367  0.4446  1.6683
  182SLPC   C2620784   0.869   5.990   3.045 -0.1142 -0.4716 -0.4120
  182SLPC   H6R20785   0.937   5.953   2.965 -0.5982 -1.7777 -0.2275
  182SLPC   H6S20786   0.797   5.908   3.066 -2.7762  1.3378 -1.8817
  182SLPC   C2720787   0.940   6.041   3.172  0.0215  0.0508 -0.1937
  182SLPC   H7R20788   0.856   6.058   3.243 -1.0187 -1.3179 -1.0390
  182SLPC   H7S20789   0.987   6.139   3.151  1.5436 -1.0567 -2.4042
  182SLPC   C2820790   1.058   5.957   3.221  0.5088  1.2267  0.9624
  182SLPC   H8R20791   1.113   5.923   3.130 -1.8084 -1.2777  0.3411
  182SLPC   H8S20792   1.014   5.862   3.259 -0.6020  0.3067 -2.2686
  182SLPC   C2920793   1.145   6.023   3.324  0.2491 -0.1358  0.0078
  182SLPC   H9R20794   1.250   6.043   3.297  0.4347 -1.9474 -0.7148
  182SLPC  C21020795   1.110   6.041   3.452  0.2961  0.2298 -0.3496
  182SLPC  H10R20796   1.186   6.093   3.512  0.3436 -0.9388  0.6440
  182SLPC  C21120797   0.979   6.018   3.522  0.7121 -0.5796 -0.5035
  182SLPC  H11R20798   0.904   5.982   3.448 -1.1372  0.7272  0.6652
  182SLPC  H11S20799   0.932   6.105   3.572  0.5180 -0.9749  0.0245
  182SLPC  C21220800   1.000   5.913   3.630  0.1162  0.0828  0.0441
  182SLPC  H12R20801   1.000   5.809   3.595  1.0265  0.0340  0.1799
  182SLPC  C21320802   0.984   5.933   3.761 -0.2025 -0.1287  0.5900
  182SLPC  H13R20803   0.991   5.840   3.819 -0.0843  0.5885  1.7564
  182SLPC  C21420804   0.963   6.074   3.818 -0.1291  0.2269 -0.4016
  182SLPC  H14R20805   0.855   6.102   3.811 -1.2177 -3.3056  0.2516
  182SLPC  H14S20806   1.020   6.160   3.777  0.9188 -0.0427  0.4546
  182SLPC  C21520807   0.989   6.059   3.968 -0.3834 -0.5319  0.1617
  182SLPC  H15R20808   1.092   6.023   3.990  0.7226  0.5845 -2.6851
  182SLPC  H15S20809   0.912   6.000   4.023 -0.9156  1.3149  1.4758
  182SLPC  C21620810   0.980   6.195   4.041  0.1309  0.1673 -0.1273
  182SLPC  H16R20811   0.878   6.230   4.015  0.1369 -1.0266 -1.9154
  182SLPC  H16S20812   1.063   6.258   4.002  0.1932  0.9573  1.2208
  182SLPC  C21720813   1.006   6.178   4.195  0.6641 -0.0063 -0.2040
  182SLPC  H17R20814   1.087   6.108   4.223 -0.4806 -1.8423 -1.2837
  182SLPC  H17S20815   0.916   6.130   4.238  0.0437 -1.0217 -2.4938
  182SLPC  C21820816   1.034   6.306   4.271  0.1104  0.4591  0.5308
  182SLPC  H18R20817   1.125   6.354   4.228  0.1569 -0.4141 -0.3886
  182SLPC  H18S20818   1.050   6.276   4.376 -1.0078 -0.3547  0.4791
  182SLPC  H18T20819   0.952   6.381   4.269  0.0197  0.3685  0.8198
  182SLPC   C3320820   0.318   6.409   2.354  0.3163 -0.0132  0.4877
  182SLPC   H3X20821   0.241   6.368   2.285  1.3125 -0.3803 -0.4296
  182SLPC   H3Y20822   0.255   6.472   2.421  1.0499  1.0147  0.2316
  182SLPC   C3420823   0.384   6.296   2.434 -0.5401  0.2110 -0.2062
  182SLPC   H4X20824   0.464   6.339   2.499  0.5261 -0.7053 -0.8633
  182SLPC   H4Y20825   0.430   6.221   2.366 -0.6586  0.5744 -0.6880
  182SLPC   C3520826   0.296   6.232   2.541 -0.0825  0.1447 -0.2783
  182SLPC   H5X20827   0.221   6.161   2.502 -0.6252 -0.1093  1.1607
  182SLPC   H5Y20828   0.254   6.315   2.602  0.5167 -0.6756  1.3060
  182SLPC   C3620829   0.378   6.139   2.642  0.1650  0.4924  0.5256
  182SLPC   H6X20830   0.458   6.192   2.699  2.7562 -1.4124 -1.1164
  182SLPC   H6Y20831   0.431   6.071   2.572 -1.0728  0.1143 -0.0587
  182SLPC   C3720832   0.296   6.053   2.733 -0.3950 -0.1863 -0.1124
  182SLPC   H7X20833   0.238   5.981   2.672  0.8254 -1.7188  0.4539
  182SLPC   H7Y20834   0.229   6.121   2.790 -0.9761  0.0135 -1.0272
  182SLPC   C3820835   0.390   5.975   2.825 -0.0765 -0.0438 -0.3800
  182SLPC   H8X20836   0.453   6.048   2.879  0.0492  1.1907 -2.1361
  182SLPC   H8Y20837   0.455   5.910   2.762 -0.8745 -0.0723 -1.1919
  182SLPC   C3920838   0.327   5.877   2.922  0.5430 -0.0945 -0.8504
  182SLPC   H9X20839   0.261   5.809   2.864 -0.1020  0.8643 -1.2499
  182SLPC   H9Y20840   0.278   5.946   2.994  0.8722 -1.7290  1.0233
  182SLPC  C31020841   0.413   5.788   3.002  0.1499  0.6158 -0.3219
  182SLPC  H10X20842   0.479   5.729   2.935 -0.5202 -0.3818 -0.1294
  182SLPC  H10Y20843   0.344   5.716   3.053  0.6924  0.0043 -0.4293
  182SLPC  C31120844   0.490   5.864   3.114  0.2836 -0.0449 -0.3151
  182SLPC  H11X20845   0.423   5.895   3.198  2.0963 -0.2417  1.2633
  182SLPC  H11Y20846   0.541   5.954   3.074  1.7610 -0.8827 -0.3751
  182SLPC  C31220847   0.587   5.768   3.188 -0.3604 -0.3259 -0.0322
  182SLPC  H12X20848   0.663   5.738   3.113  0.3175 -0.8871  0.8667
  182SLPC  H12Y20849   0.537   5.672   3.211  1.2748 -1.0062  0.8098
  182SLPC  C31320850   0.661   5.837   3.308  0.4581 -0.0275 -0.0545
  182SLPC  H13X20851   0.684   5.945   3.301 -0.5469  0.1570 -0.7091
  182SLPC  H13Y20852   0.758   5.785   3.324 -0.1341 -0.2400  3.6529
  182SLPC  C31420853   0.582   5.796   3.437  0.3552 -0.1075 -0.4440
  182SLPC  H14X20854   0.599   5.687   3.439  0.3727 -0.1080 -0.5945
  182SLPC  H14Y20855   0.474   5.822   3.430  1.0363  3.3144  0.1340
  182SLPC  C31520856   0.632   5.865   3.567 -0.4030  0.3841 -0.3972
  182SLPC  H15X20857   0.669   5.965   3.533 -2.7800  1.5279  0.1840
  182SLPC  H15Y20858   0.724   5.809   3.594 -1.4068 -1.3449 -0.4335
  182SLPC  C31620859   0.532   5.881   3.676 -0.3193 -0.2228 -0.2102
  182SLPC  H16X20860   0.474   5.787   3.682 -0.0402 -0.6192 -2.7897
  182SLPC  H16Y20861   0.452   5.955   3.650  1.2227  2.1920  1.4305
  182SLPC  C31720862   0.596   5.924   3.812 -0.0600  1.1246 -0.3134
  182SLPC  H17X20863   0.507   5.935   3.878 -0.4169  3.0772 -1.0370
  182SLPC  H17Y20864   0.654   6.016   3.790  0.8723 -0.1025 -3.4984
  182SLPC  C31820865   0.681   5.810   3.876  0.5531  0.5441  0.4699
  182SLPC  H18X20866   0.728   5.748   3.798 -0.4741  2.3183 -1.6782
  182SLPC  H18Y20867   0.628   5.737   3.941 -0.6768  1.3481  0.4001
  182SLPC  H18Z20868   0.761   5.865   3.930 -0.9505  1.1161  2.2379
  183SLPC     N20869   0.928   2.532   2.291 -0.3201 -0.3227 -0.0721
  183SLPC   C1320870   1.021   2.434   2.239 -0.7258 -0.7117  0.0485
  183SLPC  H13A20871   1.090   2.477   2.168  0.7663 -0.7875  1.3982
  183SLPC  H13B20872   1.085   2.393   2.316 -1.2222 -0.0531  0.8321
  183SLPC  H13C20873   0.980   2.347   2.190  1.3478 -1.6841 -0.0708
  183SLPC   C1420874   0.853   2.583   2.174  0.1386 -0.7352  0.0409
  183SLPC  H14A20875   0.785   2.659   2.211 -0.0611 -0.6822 -0.4338
  183SLPC  H14B20876   0.924   2.624   2.104 -0.7441 -0.3170 -0.6310
  183SLPC  H14C20877   0.793   2.501   2.137  0.6158 -1.2682  0.4389
  183SLPC   C1520878   1.010   2.635   2.358  0.3107 -0.3292  0.0164
  183SLPC  H15A20879   1.068   2.580   2.431 -0.2303 -2.1426 -0.8568
  183SLPC  H15B20880   1.082   2.679   2.291 -0.9663  1.3229 -0.3392
  183SLPC  H15C20881   0.955   2.720   2.397  1.1899 -0.6366  2.0594
  183SLPC   C1220882   0.836   2.471   2.394 -0.0573  0.1752  0.3634
  183SLPC  H12A20883   0.795   2.548   2.458 -1.9647 -1.1814  0.8698
  183SLPC  H12B20884   0.892   2.403   2.456 -0.3698  0.4575  0.9584
  183SLPC   C1120885   0.701   2.399   2.355 -0.1659  0.9095 -0.5008
  183SLPC  H11A20886   0.640   2.469   2.295 -0.8790  0.2766 -0.5271
  183SLPC  H11B20887   0.652   2.367   2.450  1.1771  0.3048  0.0037
  183SLPC     P20888   0.806   2.159   2.296 -0.0610  0.1815  0.2011
  183SLPC   O1320889   0.725   2.036   2.320 -0.2077  0.1469  0.4232
  183SLPC   O1420890   0.895   2.156   2.177 -0.1000 -0.3717 -0.2610
  183SLPC   O1220891   0.715   2.279   2.280  0.3234 -0.4846 -0.1513
  183SLPC   O1120892   0.886   2.202   2.426  0.5267  0.2754 -0.0343
  183SLPC    C120893   0.986   2.120   2.474  0.2240  0.1223  0.3859
  183SLPC    HA20894   1.051   2.080   2.394  1.0358  2.4048 -0.1812
  183SLPC    HB20895   1.052   2.177   2.543  0.6796 -1.3250  1.1771
  183SLPC    C220896   0.931   2.005   2.569 -0.1383  0.0374 -0.1412
  183SLPC    HS20897   0.896   1.915   2.516  0.5959 -1.1812  1.3771
  183SLPC   O2120898   0.825   2.068   2.649 -0.0114  0.1854 -0.1866
  183SLPC   C2120899   0.752   1.984   2.727  0.3266 -0.4078  0.0407
  183SLPC   O2220900   0.750   1.862   2.713  0.3127 -0.2221  0.7891
  183SLPC   C2220901   0.667   2.063   2.826  0.3086  0.4400  0.2221
  183SLPC   H2R20902   0.644   2.157   2.770  0.5970 -0.4915 -1.5086
  183SLPC   H2S20903   0.573   2.006   2.846  0.9366 -0.6870  0.0152
  183SLPC    C320904   1.044   1.959   2.659 -0.4446 -0.3053 -0.6066
  183SLPC    HX20905   1.125   1.917   2.596  0.0085 -0.0524 -0.1974
  183SLPC    HY20906   1.004   1.867   2.706  0.4657 -1.0107 -1.1774
  183SLPC   O3120907   1.087   2.052   2.757 -0.0638 -0.3882  0.0201
  183SLPC   C3120908   1.194   2.012   2.834  0.1520 -0.1405  0.3855
  183SLPC   O3220909   1.233   1.895   2.846  0.0336 -0.8455 -0.0402
  183SLPC   C3220910   1.251   2.135   2.896 -0.0583 -0.6872  0.2413
  183SLPC   H2X20911   1.166   2.191   2.941 -0.3165 -2.5832  2.2754
  183SLPC   H2Y20912   1.298   2.190   2.812 -1.6997  0.5300  0.0604
  183SLPC   C2320913   0.744   2.097   2.962  0.0479 -0.4464  0.1567
  183SLPC   H3R20914   0.693   2.190   2.996 -0.1907 -0.8280  0.8540
  183SLPC   H3S20915   0.851   2.107   2.935  0.1841  2.1106  1.3428
  183SLPC   C2420916   0.727   1.989   3.070 -0.6229 -0.0571 -0.5314
  183SLPC   H4R20917   0.784   1.899   3.036  0.9837 -0.0042  1.7957
  183SLPC   H4S20918   0.625   1.948   3.084  0.2026 -2.7577 -1.6380
  183SLPC   C2520919   0.778   2.029   3.211  0.5967 -0.4410  0.7603
  183SLPC   H5R20920   0.734   1.961   3.286  0.6326 -0.4701  0.7550
  183SLPC   H5S20921   0.732   2.127   3.236 -0.0338 -0.4473 -0.2803
  183SLPC   C2620922   0.929   2.047   3.219 -0.0951 -0.8065  0.2823
  183SLPC   H6R20923   0.954   2.144   3.171 -0.1352 -0.6049  0.6615
  183SLPC   H6S20924   0.988   1.971   3.164  0.0794  1.3618 -2.8134
  183SLPC   C2720925   0.975   2.051   3.363 -0.2906 -0.1835 -0.2169
  183SLPC   H7R20926   0.907   2.120   3.417 -1.0045  0.4146 -1.8088
  183SLPC   H7S20927   1.075   2.093   3.384  0.9845 -3.1900  0.3598
  183SLPC   C2820928   0.986   1.912   3.442 -0.4128  0.0773  0.0721
  183SLPC   H8R20929   1.082   1.865   3.412  0.0511  1.5673 -0.8898
  183SLPC   H8S20930   0.898   1.853   3.406  0.0028  0.3691 -1.4921
  183SLPC   C2920931   0.980   1.939   3.590  0.1324  0.1603  0.0399
  183SLPC   H9R20932   1.077   1.939   3.642  1.3445  0.9158 -2.1188
  183SLPC  C21020933   0.868   1.957   3.662  0.4879 -0.1579 -0.3663
  183SLPC  H10R20934   0.871   1.985   3.768 -1.2945 -0.8152 -0.1065
  183SLPC  C21120935   0.729   1.941   3.613 -0.2092 -0.0988 -0.3521
  183SLPC  H11R20936   0.671   1.898   3.697 -0.4255  0.0406 -0.4292
  183SLPC  H11S20937   0.722   1.866   3.532 -0.7064  0.3339 -0.7174
  183SLPC  C21220938   0.680   2.070   3.548 -0.3585 -0.0627  0.4076
  183SLPC  H12R20939   0.747   2.157   3.545  0.4813 -0.7134 -0.1319
  183SLPC  C21320940   0.556   2.091   3.511  0.2007 -0.2908  0.3035
  183SLPC  H13R20941   0.525   2.188   3.469 -1.9862 -0.5224  1.2430
  183SLPC  C21420942   0.444   1.986   3.521 -0.0630 -0.4547  0.7368
  183SLPC  H14R20943   0.379   2.008   3.608  1.1142  2.4120  1.0047
  183SLPC  H14S20944   0.476   1.880   3.531  0.1342 -0.6002 -1.0821
  183SLPC  C21520945   0.343   1.996   3.404 -0.1994 -0.5206 -0.8228
  183SLPC  H15R20946   0.293   2.095   3.410  2.9391  1.1542  0.0684
  183SLPC  H15S20947   0.267   1.915   3.404 -0.5898 -0.1631 -1.2302
  183SLPC  C21620948   0.404   1.979   3.261  0.3823  0.9599 -0.1647
  183SLPC  H16R20949   0.471   1.891   3.249  1.2280  1.8815 -3.2022
  183SLPC  H16S20950   0.464   2.068   3.231  0.8244  1.1179  1.1313
  183SLPC  C21720951   0.288   1.942   3.158  0.2315 -0.5629 -0.4474
  183SLPC  H17R20952   0.213   2.023   3.169  2.2365  1.3026  0.3257
  183SLPC  H17S20953   0.252   1.842   3.188  1.0654 -0.7976 -0.1966
  183SLPC  C21820954   0.327   1.919   3.016 -0.4410 -0.1518 -0.2211
  183SLPC  H18R20955   0.361   2.013   2.969  0.9243 -0.2299  0.5548
  183SLPC  H18S20956   0.239   1.877   2.964 -1.4142 -3.9130  3.8570
  183SLPC  H18T20957   0.412   1.848   3.010 -2.1963 -2.3169 -1.0419
  183SLPC   C3320958   1.360   2.117   2.996 -0.0217 -0.3238 -0.3822
  183SLPC   H3X20959   1.422   2.209   3.000 -0.1948 -0.2241  0.2177
  183SLPC   H3Y20960   1.448   2.060   2.958  1.6471  0.1879  2.3841
  183SLPC   C3420961   1.309   2.094   3.140 -0.4316  0.0743  0.9794
  183SLPC   H4X20962   1.237   2.010   3.132  0.2424 -0.8760  3.7810
  183SLPC   H4Y20963   1.262   2.180   3.191  2.2431  0.3369  3.2254
  183SLPC   C3520964   1.423   2.051   3.229  0.0514 -0.3752 -0.3436
  183SLPC   H5X20965   1.481   2.146   3.236 -0.2646 -0.1360 -0.9142
  183SLPC   H5Y20966   1.474   1.962   3.186 -0.3891 -0.9359  0.2795
  183SLPC   C3620967   1.362   2.002   3.367  0.4650  0.1010 -0.1172
  183SLPC   H6X20968   1.303   1.909   3.349  0.5508  0.2031 -0.9489
  183SLPC   H6Y20969   1.291   2.082   3.399  1.9554  0.5291  2.3954
  183SLPC   C3720970   1.457   1.969   3.476  0.4814  0.3091 -0.0089
  183SLPC   H7X20971   1.517   2.059   3.504  2.4755 -1.1184  0.5826
  183SLPC   H7Y20972   1.529   1.892   3.442  1.0657  1.1412 -0.6949
  183SLPC   C3820973   1.391   1.923   3.606  1.0867  0.4769 -0.8508
  183SLPC   H8X20974   1.280   1.917   3.596  0.5963  1.3684  2.6575
  183SLPC   H8Y20975   1.416   1.993   3.688 -0.2576 -2.0680  1.9172
  183SLPC   C3920976   1.439   1.785   3.652  0.7044 -0.2579 -0.4975
  183SLPC   H9X20977   1.548   1.790   3.635  0.4483  1.5665 -1.9339
  183SLPC   H9Y20978   1.389   1.713   3.583 -2.3394  2.2051 -1.1208
  183SLPC  C31020979   1.415   1.771   3.802 -0.3108 -0.3339 -0.5289
  183SLPC  H10X20980   1.304   1.773   3.806 -0.2950 -0.3128  0.0144
  183SLPC  H10Y20981   1.469   1.849   3.859  0.4798 -1.9452  1.0209
  183SLPC  C31120982   1.474   1.642   3.865  0.0531  0.2904  0.5048
  183SLPC  H11X20983   1.583   1.662   3.860  0.0241  0.5058  0.7135
  183SLPC  H11Y20984   1.438   1.561   3.798  0.1754  0.5062  0.1767
  183SLPC  C31220985   1.441   1.603   4.010  0.2336  0.2288  1.0157
  183SLPC  H12X20986   1.462   1.692   4.073  1.2453  0.5896  0.2047
  183SLPC  H12Y20987   1.515   1.527   4.042 -0.8548  0.0740  3.3768
  183SLPC  C31320988   1.299   1.544   4.022 -0.0075 -0.6295 -0.4564
  183SLPC  H13X20989   1.309   1.455   3.956 -0.8003 -0.7954 -0.3533
  183SLPC  H13Y20990   1.224   1.618   3.987  1.8905 -0.0378 -3.6882
  183SLPC  C31420991   1.278   1.499   4.166 -0.8148 -0.1670  0.3945
  183SLPC  H14X20992   1.255   1.589   4.228 -1.0302 -1.1864  1.8574
  183SLPC  H14Y20993   1.374   1.452   4.196 -1.8193 -3.5153 -1.2074
  183SLPC  C31520994   1.165   1.396   4.174 -0.6174 -0.0497 -0.7104
  183SLPC  H15X20995   1.193   1.301   4.124 -0.3023  0.7369 -2.0501
  183SLPC  H15Y20996   1.072   1.440   4.135 -1.8969 -0.8377  1.2745
  183SLPC  C31620997   1.136   1.343   4.318  0.4786  0.5027 -0.3708
  183SLPC  H16X20998   1.119   1.432   4.382 -1.6355  0.5510 -0.9398
  183SLPC  H16Y20999   1.225   1.284   4.348 -0.3219 -3.2241 -4.3089
  183SLPC  C31721000   1.009   1.249   4.322  0.2249 -0.0913 -0.1713
  183SLPC  H17X21001   1.037   1.160   4.261 -2.1523 -0.7841 -0.3318
  183SLPC  H17Y21002   0.928   1.300   4.267 -0.8400 -2.1867 -0.6372
  183SLPC  C31821003   0.972   1.202   4.461  0.3553 -0.5442 -0.1852
  183SLPC  H18X21004   1.041   1.127   4.507  2.1998  0.4278 -1.2602
  183SLPC  H18Y21005   0.876   1.148   4.472 -0.3337  0.6656 -0.1314
  183SLPC  H18Z21006   0.978   1.291   4.528  0.2620 -1.6407  1.3450
  184SLPC     N21007   0.727   3.114   2.091 -1.0132  0.5877 -0.4001
  184SLPC   C1321008   0.773   2.974   2.059 -0.2100 -0.5370  0.4117
  184SLPC  H13A21009   0.878   2.967   2.082 -0.6404 -0.9613  2.4022
  184SLPC  H13B21010   0.717   2.898   2.112  0.0696 -1.6511 -0.8332
  184SLPC  H13C21011   0.774   2.957   1.952  4.4773  1.0191 -0.0147
  184SLPC   C1421012   0.713   3.122   2.237  0.2246  0.6421 -0.6164
  184SLPC  H14A21013   0.649   3.051   2.287  2.3568 -0.2841  0.9761
  184SLPC  H14B21014   0.807   3.101   2.285 -0.5081  2.1741  1.6616
  184SLPC  H14C21015   0.677   3.222   2.259  1.3852  1.2367 -1.3291
  184SLPC   C1521016   0.595   3.131   2.025  0.0025  0.6066 -0.2005
  184SLPC  H15A21017   0.534   3.048   2.056  1.1495  0.3973  1.6770
  184SLPC  H15B21018   0.558   3.224   2.067  1.5428  0.4788  1.5727
  184SLPC  H15C21019   0.597   3.133   1.917  2.8642 -2.0851 -0.3257
  184SLPC   C1221020   0.827   3.213   2.030  0.5730  0.4886  0.1105
  184SLPC  H12A21021   0.792   3.315   2.035  0.1082  0.3335  0.0723
  184SLPC  H12B21022   0.816   3.204   1.923 -1.3707  1.5930  0.1636
  184SLPC   C1121023   0.973   3.198   2.074  0.6760 -0.8946  0.5858
  184SLPC  H11A21024   1.048   3.238   2.003 -0.0643 -0.0106  0.2828
  184SLPC  H11B21025   0.991   3.089   2.087 -1.9318 -1.3744  0.6885
  184SLPC     P21026   1.064   3.385   2.221 -0.6001  0.2416  0.2084
  184SLPC   O1321027   1.199   3.351   2.167  0.0040 -0.2725  0.7414
  184SLPC   O1421028   1.004   3.507   2.167 -0.0193 -0.6798 -0.5412
  184SLPC   O1221029   0.983   3.258   2.197  0.5165 -0.0016  0.3906
  184SLPC   O1121030   1.073   3.398   2.373  0.1266  0.3342 -0.0776
  184SLPC    C121031   0.953   3.378   2.453 -0.3016 -0.2977  0.5515
  184SLPC    HA21032   0.858   3.400   2.400 -1.0628 -0.1786  1.9280
  184SLPC    HB21033   0.954   3.273   2.490  0.0030 -1.5300 -2.6071
  184SLPC    C221034   0.960   3.486   2.564 -0.1054 -0.2505 -0.2238
  184SLPC    HS21035   0.986   3.583   2.517 -1.0062  1.1446  1.9857
  184SLPC   O2121036   1.042   3.436   2.666 -0.1430  0.3164 -0.5510
  184SLPC   C2121037   1.105   3.534   2.736 -0.3421 -0.1720  0.4706
  184SLPC   O2221038   1.102   3.652   2.709 -0.4161 -0.3790 -0.0058
  184SLPC   C2221039   1.196   3.483   2.851 -0.0122  0.3127  0.5663
  184SLPC   H2R21040   1.184   3.550   2.939 -0.2992  0.2011  0.6137
  184SLPC   H2S21041   1.150   3.388   2.886  2.0332 -0.2693  1.8327
  184SLPC    C321042   0.821   3.504   2.626  0.2626  0.3251 -0.7180
  184SLPC    HX21043   0.802   3.412   2.684  1.9480  1.8043  2.5018
  184SLPC    HY21044   0.744   3.510   2.546  0.9017 -2.1637 -1.6154
  184SLPC   O3121045   0.820   3.625   2.702 -0.1838 -0.7397  0.1056
  184SLPC   C3121046   0.711   3.633   2.776 -1.1785 -0.3437 -0.3219
  184SLPC   O3221047   0.618   3.555   2.774  0.0671 -0.1034 -0.2071
  184SLPC   C3221048   0.712   3.758   2.861 -0.7192  0.2924  0.1143
  184SLPC   H2X21049   0.675   3.841   2.797  1.0792 -0.5430 -2.1596
  184SLPC   H2Y21050   0.813   3.792   2.892 -1.2012  0.3582  1.7027
  184SLPC   C2321051   1.340   3.455   2.798 -0.3354 -0.6279  0.1492
  184SLPC   H3R21052   1.342   3.416   2.694 -2.4578  1.7602 -0.8947
  184SLPC   H3S21053   1.385   3.376   2.862 -5.3793 -1.9940  2.4630
  184SLPC   C2421054   1.422   3.586   2.804 -0.0716 -0.3654  0.1015
  184SLPC   H4R21055   1.357   3.668   2.768 -0.6478 -1.2474 -0.9371
  184SLPC   H4S21056   1.497   3.592   2.722  0.3878 -0.6817  0.4876
  184SLPC   C2521057   1.484   3.643   2.933 -0.1530 -0.1516 -0.0071
  184SLPC   H5R21058   1.411   3.642   3.017 -0.4876 -0.2287 -0.3008
  184SLPC   H5S21059   1.525   3.747   2.924  1.2794 -0.6479  0.4933
  184SLPC   C2621060   1.608   3.567   2.975  0.6258 -0.3140 -0.6849
  184SLPC   H6R21061   1.702   3.591   2.921  1.5764 -0.2507  0.9665
  184SLPC   H6S21062   1.582   3.459   2.977 -0.9043  0.0479  0.9513
  184SLPC   C2721063   1.642   3.582   3.127  0.4349  0.4426 -0.7611
  184SLPC   H7R21064   1.560   3.532   3.184  1.7351 -1.4368 -0.4362
  184SLPC   H7S21065   1.659   3.688   3.155  0.6270  0.6056 -1.4818
  184SLPC   C2821066   1.775   3.507   3.153 -0.8062  0.4221 -0.3692
  184SLPC   H8R21067   1.853   3.531   3.077  0.6132 -1.5541  0.3780
  184SLPC   H8S21068   1.740   3.402   3.150  1.2550 -0.2902 -2.1172
  184SLPC   C2921069   1.838   3.532   3.281 -0.0536  0.2683 -1.1452
  184SLPC   H9R21070   1.859   3.639   3.285 -2.0061  0.6580  0.9114
  184SLPC  C21021071   1.841   3.455   3.390 -0.5893 -0.2934  0.4471
  184SLPC  H10R21072   1.887   3.496   3.481  1.0496  1.2272 -0.9747
  184SLPC  C21121073   1.799   3.313   3.409  0.8699  0.2897 -0.5551
  184SLPC  H11R21074   1.885   3.245   3.426  0.0597 -0.6074  0.0664
  184SLPC  H11S21075   1.748   3.267   3.321  1.7885  1.4559 -1.7311
  184SLPC  C21221076   1.698   3.298   3.520 -0.0367 -0.5403  0.0934
  184SLPC  H12R21077   1.597   3.279   3.481 -0.3470  0.7481  0.2396
  184SLPC  C21321078   1.719   3.289   3.656 -0.1845 -0.1861  0.0375
  184SLPC  H13R21079   1.632   3.286   3.722 -0.5282  0.7515 -0.3474
  184SLPC  C21421080   1.852   3.308   3.725 -0.1752  0.2021  0.4303
  184SLPC  H14R21081   1.859   3.403   3.782  3.5931  0.3477 -0.0472
  184SLPC  H14S21082   1.929   3.304   3.645 -0.1412 -0.2057  0.4782
  184SLPC  C21521083   1.879   3.193   3.809  0.5018  0.0492  0.2812
  184SLPC  H15R21084   1.973   3.220   3.861  0.1153  1.8945  0.0835
  184SLPC  H15S21085   1.906   3.097   3.760 -1.0786 -0.1894 -0.1879
  184SLPC  C21621086   1.781   3.166   3.925 -0.4644 -0.2484 -0.6649
  184SLPC  H16R21087   1.808   3.072   3.978 -0.6698  0.0384 -0.0316
  184SLPC  H16S21088   1.684   3.144   3.877 -0.1066 -0.9601 -1.0819
  184SLPC  C21721089   1.765   3.293   4.020  0.2107  0.0183 -0.0626
  184SLPC  H17R21090   1.735   3.372   3.948  0.1286  0.1031  0.0639
  184SLPC  H17S21091   1.865   3.307   4.067  0.3620 -1.3664  0.0792
  184SLPC  C21821092   1.658   3.270   4.127 -0.2811  0.2813 -0.3319
  184SLPC  H18R21093   1.638   3.361   4.188  1.5700 -0.6532  1.8448
  184SLPC  H18S21094   1.693   3.201   4.207 -1.3716 -0.8950 -0.8424
  184SLPC  H18T21095   1.566   3.229   4.081  0.5285  0.0473 -1.8241
  184SLPC   C3321096   0.629   3.747   2.996  0.4424 -0.3285 -0.2439
  184SLPC   H3X21097   0.533   3.698   2.969 -0.2410  0.8819 -0.0598
  184SLPC   H3Y21098   0.597   3.847   3.030  0.0300 -0.1663 -1.0823
  184SLPC   C3421099   0.690   3.669   3.107  0.0795  0.1477  0.6018
  184SLPC   H4X21100   0.772   3.605   3.068 -0.6616 -1.2412  1.2449
  184SLPC   H4Y21101   0.617   3.594   3.144  0.6133 -0.8834 -0.3915
  184SLPC   C3521102   0.751   3.759   3.220  0.4371  0.4699  0.0941
  184SLPC   H5X21103   0.657   3.797   3.264  0.0415  0.2643 -0.5519
  184SLPC   H5Y21104   0.804   3.843   3.170  1.7175  0.4807  1.4033
  184SLPC   C3621105   0.826   3.692   3.340  0.8911 -0.1843  0.4917
  184SLPC   H6X21106   0.918   3.645   3.300  0.3367  0.5359 -1.7787
  184SLPC   H6Y21107   0.766   3.614   3.391  1.3288  0.5224  2.1632
  184SLPC   C3721108   0.859   3.788   3.449 -0.2092 -1.1726  0.1650
  184SLPC   H7X21109   0.770   3.837   3.493 -0.7717 -1.0476 -1.0729
  184SLPC   H7Y21110   0.915   3.880   3.418  1.8638 -2.4131  0.0181
  184SLPC   C3821111   0.930   3.702   3.561  0.3551  0.4688  0.1040
  184SLPC   H8X21112   1.021   3.659   3.514 -0.9023 -0.4906 -1.5603
  184SLPC   H8Y21113   0.861   3.619   3.585 -0.6757  1.6763  1.4179
  184SLPC   C3921114   0.950   3.766   3.695  0.2595  0.2950  0.1300
  184SLPC   H9X21115   0.845   3.779   3.727  0.0792 -1.3435  0.2963
  184SLPC   H9Y21116   0.989   3.869   3.682  0.0007  0.3427 -0.2846
  184SLPC  C31021117   1.025   3.668   3.780 -0.6453 -0.2931 -0.4157
  184SLPC  H10X21118   1.121   3.662   3.724  0.1235  0.5124  0.7847
  184SLPC  H10Y21119   0.978   3.570   3.756 -0.5786 -0.0942 -1.4211
  184SLPC  C31121120   1.054   3.711   3.923 -0.1029 -0.2448 -0.2432
  184SLPC  H11X21121   1.107   3.808   3.915 -0.1993 -0.0460  1.3758
  184SLPC  H11Y21122   1.128   3.646   3.973 -0.9946 -1.1764 -0.0883
  184SLPC  C31221123   0.923   3.736   3.995 -0.2955 -0.0521  0.2825
  184SLPC  H12X21124   0.866   3.641   4.003  0.3895 -1.0259 -4.1335
  184SLPC  H12Y21125   0.861   3.817   3.952  0.1890  0.0741 -0.1946
  184SLPC  C31321126   0.944   3.769   4.143  0.1735  0.3597 -0.3543
  184SLPC  H13X21127   1.001   3.685   4.187  2.7994  2.4672  0.5082
  184SLPC  H13Y21128   0.849   3.777   4.201 -0.0313 -1.2754 -0.4232
  184SLPC  C31421129   1.009   3.905   4.168  0.1313 -0.1076 -0.4471
  184SLPC  H14X21130   1.103   3.892   4.111  0.8031 -0.5489  0.7310
  184SLPC  H14Y21131   1.058   3.919   4.267  2.0450  4.2797 -1.7470
  184SLPC  C31521132   0.920   4.030   4.124 -0.5504 -0.9141  0.0744
  184SLPC  H15X21133   0.878   4.014   4.022  0.0085 -0.1066 -0.2889
  184SLPC  H15Y21134   0.987   4.116   4.102  1.6761 -1.9343  2.3394
  184SLPC  C31621135   0.811   4.064   4.224 -0.0720  0.5020 -0.1261
  184SLPC  H16X21136   0.863   4.077   4.321  0.8701  2.1629 -0.7945
  184SLPC  H16Y21137   0.732   3.987   4.233 -0.3799  0.8788  0.4806
  184SLPC  C31721138   0.755   4.202   4.213  0.4386 -0.7909 -0.0491
  184SLPC  H17X21139   0.841   4.271   4.230  0.6654 -1.6066  2.4641
  184SLPC  H17Y21140   0.677   4.209   4.291 -0.1772  1.8187 -0.7965
  184SLPC  C31821141   0.688   4.231   4.082  1.0187  0.3662  1.0627
  184SLPC  H18X21142   0.772   4.255   4.013  0.4787  2.1157  0.9636
  184SLPC  H18Y21143   0.611   4.311   4.081  0.2299 -0.1704 -3.7055
  184SLPC  H18Z21144   0.629   4.144   4.047 -1.4301  2.5377 -0.4981
  185POPC     N21145   2.542   3.824   6.690  0.6668  0.4992  0.0521
  185POPC   C1221146   2.614   3.919   6.600 -0.9273  0.3957  0.9968
  185POPC  H12A21147   2.544   3.961   6.530 -0.4361  0.7780  0.7257
  185POPC  H12B21148   2.681   3.866   6.533 -3.0765  1.7162 -2.4759
  185POPC   C1321149   2.442   3.743   6.615  0.3232  0.5445  0.2145
  185POPC  H13A21150   2.378   3.805   6.555  0.6962 -0.4818 -1.3159
  185POPC  H13B21151   2.483   3.657   6.563 -0.2794  1.0604 -1.1494
  185POPC  H13C21152   2.370   3.700   6.683  2.2120 -1.5340  1.0398
  185POPC   C1421153   2.639   3.725   6.758 -0.5356 -0.4601 -0.3030
  185POPC  H14A21154   2.730   3.776   6.786 -0.0036 -0.5629 -1.7678
  185POPC  H14B21155   2.585   3.696   6.847 -2.0483  1.9808 -0.3556
  185POPC  H14C21156   2.657   3.635   6.701  0.0677 -0.1651 -0.5816
  185POPC   C1521157   2.473   3.905   6.794 -0.0999  0.3227  0.4062
  185POPC  H15A21158   2.437   3.850   6.880 -2.4850  2.5853  0.9939
  185POPC  H15B21159   2.391   3.965   6.756 -0.8085 -1.8953 -1.8174
  185POPC  H15C21160   2.550   3.955   6.851 -0.9456 -1.0807  2.9252
  185POPC   C1121161   2.698   4.036   6.656  0.5177 -0.4483 -1.0995
  185POPC  H11A21162   2.621   4.101   6.702  0.5267 -0.8814 -0.4643
  185POPC  H11B21163   2.749   4.099   6.580  2.4783  0.1133  0.6019
  185POPC     P21164   2.935   3.940   6.717 -0.1670 -0.3662  0.6150
  185POPC   O1321165   2.944   3.794   6.743 -0.1380 -0.5143 -0.0484
  185POPC   O1421166   3.029   4.027   6.798 -0.0028  0.4881 -0.1926
  185POPC   O1221167   2.796   3.995   6.755 -0.2910  0.3068 -0.1731
  185POPC   O1121168   2.948   3.980   6.568  0.5615 -0.7533 -0.2122
  185POPC    C121169   3.071   4.031   6.510  0.3668 -0.3608 -0.5068
  185POPC    HA21170   3.084   3.996   6.406  0.1624 -1.8085 -0.0569
  185POPC    HB21171   3.160   3.998   6.568  0.0255 -0.8921 -0.2821
  185POPC    C221172   3.077   4.190   6.501 -1.2379  0.3925  0.0321
  185POPC    HS21173   3.094   4.219   6.607  2.1835  0.8009 -0.5307
  185POPC   O2121174   2.947   4.242   6.456  1.3062 -0.5305  0.4171
  185POPC   C2121175   2.906   4.360   6.505  0.6184 -0.2313  0.9914
  185POPC   O2221176   2.972   4.429   6.580  0.5651 -0.4651  0.1915
  185POPC   C2221177   2.764   4.406   6.458 -0.4992 -0.0354 -0.1030
  185POPC   H2R21178   2.691   4.338   6.507  1.5855  0.3135  3.8995
  185POPC   H2S21179   2.768   4.400   6.347 -2.6144  1.2395 -0.3068
  185POPC    C321180   3.191   4.247   6.416 -0.1321  0.6001 -0.3253
  185POPC    HX21181   3.276   4.190   6.460 -2.3700 -2.4936  0.3487
  185POPC    HY21182   3.194   4.355   6.443  0.3299  0.6012 -0.3711
  185POPC   O3121183   3.180   4.224   6.272 -0.5856 -0.3575  0.0369
  185POPC   C3121184   3.239   4.321   6.200 -0.8536 -0.5528 -0.1813
  185POPC   O3221185   3.311   4.409   6.241  0.1919 -0.4924  0.3360
  185POPC   C3221186   3.184   4.302   6.055  0.4125  0.3197 -0.1310
  185POPC   H2X21187   3.083   4.345   6.038  0.2229 -0.2391 -0.4510
  185POPC   H2Y21188   3.160   4.194   6.044  0.2938  0.4803 -1.6783
  185POPC   C2321189   2.739   4.544   6.495  0.6276 -0.7491 -0.7600
  185POPC   H3R21190   2.797   4.623   6.443 -1.3068  1.2254 -0.0553
  185POPC   H3S21191   2.752   4.535   6.605 -0.5881 -0.6004 -0.5990
  185POPC   C2421192   2.592   4.589   6.462  0.1882 -0.2479 -0.4221
  185POPC   H4R21193   2.573   4.600   6.353 -0.5425  1.3411 -0.1676
  185POPC   H4S21194   2.587   4.694   6.498 -2.7004  0.0222 -1.3205
  185POPC   C2521195   2.479   4.509   6.532  0.2573  0.8389  0.0533
  185POPC   H5R21196   2.478   4.555   6.633 -0.8780  0.8993  0.0242
  185POPC   H5S21197   2.501   4.400   6.528  0.9677  0.9781 -0.0268
  185POPC   C2621198   2.340   4.528   6.470  0.0679 -0.2240  0.3479
  185POPC   H6R21199   2.333   4.637   6.448 -0.5739 -0.1981  0.6730
  185POPC   H6S21200   2.265   4.505   6.548  0.2981  1.4982  1.1339
  185POPC   C2721201   2.315   4.453   6.340  0.1530  0.7942  0.4376
  185POPC   H7R21202   2.332   4.344   6.352 -1.0432 -0.1279 -4.0724
  185POPC   H7S21203   2.397   4.489   6.274  3.2906  0.0972  3.6749
  185POPC   C2821204   2.183   4.480   6.265  0.5608  0.8148 -0.1484
  185POPC   H8R21205   2.186   4.455   6.157 -1.9284 -0.4749  0.0009
  185POPC   H8S21206   2.165   4.588   6.283 -1.9543  0.6114 -1.0537
  185POPC   C2921207   2.064   4.408   6.324  0.5030  0.4680 -0.0164
  185POPC   H9121208   2.072   4.405   6.433  0.7596  3.0398  0.0845
  185POPC  C21021209   1.958   4.336   6.265  0.0246  0.6844  0.3119
  185POPC  H10121210   1.877   4.295   6.327 -1.3385  2.2362 -0.3690
  185POPC  C21121211   1.937   4.313   6.119  0.3794 -0.4414 -0.1641
  185POPC  H11R21212   1.933   4.415   6.074 -1.1270 -0.5379 -0.3204
  185POPC  H11S21213   1.845   4.252   6.107  0.8446 -0.9596 -1.2771
  185POPC  C21221214   2.050   4.229   6.045  0.3454  0.1005  0.0268
  185POPC  H12R21215   2.074   4.134   6.098 -1.0239 -0.2253  0.0874
  185POPC  H12S21216   2.141   4.293   6.041 -0.4000  1.1232 -2.9557
  185POPC  C21321217   2.012   4.185   5.901 -0.7527 -0.4352  0.1790
  185POPC  H13R21218   2.106   4.198   5.843 -0.0698 -2.8269  0.6114
  185POPC  H13S21219   1.947   4.260   5.853  2.5002  1.4391 -1.6523
  185POPC  C21421220   1.952   4.038   5.906 -0.0186 -0.2670 -0.3585
  185POPC  H14R21221   1.863   4.036   5.971 -0.2815  0.4555 -0.6764
  185POPC  H14S21222   2.028   3.971   5.951 -0.8718 -1.0554 -0.0577
  185POPC  C21521223   1.907   3.982   5.762 -1.4708 -0.2787 -0.1167
  185POPC  H15R21224   1.991   3.998   5.692  0.2607 -2.3151  1.3742
  185POPC  H15S21225   1.826   4.051   5.730  0.5501  1.3329 -2.0632
  185POPC  C21621226   1.859   3.848   5.750  0.1465  0.1310  0.2219
  185POPC  H16R21227   1.781   3.827   5.827  1.5327 -1.0839  1.3442
  185POPC  H16S21228   1.948   3.785   5.769 -0.4769 -0.4744  1.2867
  185POPC  C21721229   1.799   3.814   5.616  0.1597 -1.2483  0.4868
  185POPC  H17R21230   1.720   3.891   5.599  1.0398 -0.7628 -1.7799
  185POPC  H17S21231   1.761   3.710   5.619 -0.1501 -1.5011 -4.2455
  185POPC  C21821232   1.893   3.832   5.494  0.1005  0.1216 -0.1179
  185POPC  H18R21233   1.928   3.937   5.485  1.3994 -0.3688 -1.2778
  185POPC  H18S21234   1.837   3.801   5.403  0.9869  1.5750 -1.2073
  185POPC  H18T21235   1.979   3.763   5.511 -1.1286 -1.2364  0.8113
  185POPC   C3321236   3.279   4.358   5.939  0.1946  0.0239  0.2431
  185POPC   H3X21237   3.308   4.465   5.946  1.2852 -0.3377  1.7673
  185POPC   H3Y21238   3.220   4.359   5.845  2.4191 -2.5337 -1.3076
  185POPC   C3421239   3.410   4.284   5.928 -0.3242  0.2718  0.3519
  185POPC   H4X21240   3.386   4.176   5.930 -0.5912  0.3244  0.0221
  185POPC   H4Y21241   3.470   4.302   6.020  1.1309  0.3616 -0.5801
  185POPC   C3521242   3.495   4.322   5.799 -0.3474  0.1387  0.2316
  185POPC   H5X21243   3.436   4.279   5.715  1.2095  0.6973 -1.1909
  185POPC   H5Y21244   3.595   4.274   5.798  0.2123  1.2567 -1.1203
  185POPC   C3621245   3.518   4.467   5.760 -0.3913 -0.7853  0.8536
  185POPC   H6X21246   3.550   4.520   5.852 -0.2874  2.1019 -0.7386
  185POPC   H6Y21247   3.429   4.517   5.716  1.2892  0.4382 -1.3781
  185POPC   C3721248   3.635   4.481   5.648 -0.2348  0.1726 -0.2067
  185POPC   H7X21249   3.735   4.474   5.697 -0.0555  0.7926 -0.4747
  185POPC   H7Y21250   3.627   4.585   5.611  1.6259 -0.3755 -2.3530
  185POPC   C3821251   3.627   4.387   5.528 -0.1381 -0.9970 -0.0580
  185POPC   H8X21252   3.517   4.376   5.518 -0.7367  0.5138  3.3666
  185POPC   H8Y21253   3.658   4.281   5.538 -1.7666 -1.4565  0.4684
  185POPC   C3921254   3.697   4.453   5.404  0.0976  0.2364 -0.1309
  185POPC   H9X21255   3.800   4.485   5.430  0.1000 -1.0478  1.6450
  185POPC   H9Y21256   3.627   4.536   5.381  1.3216  1.6281  0.9965
  185POPC  C31021257   3.686   4.351   5.282 -1.2037  0.2239  0.3854
  185POPC  H10X21258   3.578   4.323   5.281 -0.3946 -3.5127  1.4681
  185POPC  H10Y21259   3.742   4.260   5.312 -0.9822 -0.0031 -0.6824
  185POPC  C31121260   3.713   4.416   5.142  0.0888  0.9187 -0.4179
  185POPC  H11X21261   3.795   4.491   5.137  1.8485 -0.7142  1.8634
  185POPC  H11Y21262   3.625   4.478   5.113 -0.9346 -0.4961 -0.4283
  185POPC  C31221263   3.756   4.313   5.030  0.1191  0.1649  0.3059
  185POPC  H12X21264   3.677   4.236   5.023 -0.9199  0.8763  2.9223
  185POPC  H12Y21265   3.853   4.268   5.062  0.7902 -0.6136 -2.4696
  185POPC  C31321266   3.783   4.382   4.898 -0.0391 -0.8945 -1.0772
  185POPC  H13X21267   3.841   4.476   4.912 -0.2841 -0.8067 -0.6252
  185POPC  H13Y21268   3.684   4.403   4.854 -1.2027 -1.3133  1.2020
  185POPC  C31421269   3.864   4.297   4.798  0.9179 -0.5960 -0.2877
  185POPC  H14X21270   3.807   4.205   4.775 -0.4421 -0.0936  0.8923
  185POPC  H14Y21271   3.967   4.283   4.837  1.0872  3.8115  1.4147
  185POPC  C31521272   3.892   4.365   4.668  0.2452 -0.3041  0.6140
  185POPC  H15X21273   3.969   4.443   4.686 -0.5129  1.1134 -1.7285
  185POPC  H15Y21274   3.803   4.419   4.628  1.4695  0.2165 -1.5587
  185POPC  C31621275   3.946   4.259   4.573 -0.2837 -0.1193 -0.3652
  185POPC  H16X21276   3.871   4.178   4.566 -0.7069 -0.0316  2.2082
  185POPC  H16Y21277   4.025   4.208   4.632  0.3087 -0.1490 -1.1552
  185POPC  H16Z21278   3.983   4.302   4.477 -1.3938  1.2029 -0.2306
  186POPC     N21279   4.290   6.767   6.943 -0.0890 -0.5506  0.6488
  186POPC   C1221280   4.292   6.771   6.785 -0.0088  0.2170 -0.2947
  186POPC  H12A21281   4.354   6.851   6.748 -1.1678  1.2286 -0.1109
  186POPC  H12B21282   4.188   6.786   6.760 -1.1987 -2.2032  2.5196
  186POPC   C1321283   4.206   6.881   6.987  0.5612 -0.7760 -0.9671
  186POPC  H13A21284   4.237   6.904   7.089  1.8798 -1.2932 -1.2293
  186POPC  H13B21285   4.219   6.972   6.931  0.0874  0.2703  0.5421
  186POPC  H13C21286   4.101   6.859   6.978  0.6291 -1.0915 -0.9773
  186POPC   C1421287   4.235   6.645   7.008 -0.5989  0.2567  0.5069
  186POPC  H14A21288   4.288   6.552   6.996 -0.8857  0.1659 -0.0723
  186POPC  H14B21289   4.249   6.664   7.113  1.1517 -0.1204  0.3634
  186POPC  H14C21290   4.132   6.625   6.983  0.0537 -1.1036 -1.3067
  186POPC   C1521291   4.434   6.775   6.999 -0.5059  0.3437 -0.7307
  186POPC  H15A21292   4.484   6.869   6.979 -1.7249  2.2452  3.7288
  186POPC  H15B21293   4.488   6.689   6.963  1.6984  1.0308  0.7106
  186POPC  H15C21294   4.439   6.764   7.106  3.1243  1.7693 -0.6109
  186POPC   C1121295   4.324   6.644   6.715 -0.6962 -0.2494  0.2536
  186POPC  H11A21296   4.315   6.659   6.605 -2.7213 -2.0992  0.0800
  186POPC  H11B21297   4.244   6.570   6.739  0.7381 -1.2867  2.0594
  186POPC     P21298   4.502   6.453   6.714  0.7039  0.1071  0.0488
  186POPC   O1321299   4.404   6.361   6.778 -0.2224  0.7038  0.1313
  186POPC   O1421300   4.643   6.431   6.750 -0.4892  0.3704  0.6492
  186POPC   O1221301   4.459   6.600   6.735  0.6922 -0.0653 -0.6036
  186POPC   O1121302   4.480   6.449   6.560 -0.1650  0.7231  0.1896
  186POPC    C121303   4.572   6.522   6.479  0.4619 -0.2760  0.5916
  186POPC    HA21304   4.641   6.448   6.433  0.2956  0.6973 -1.3540
  186POPC    HB21305   4.628   6.604   6.529  1.0038  1.2615 -2.2707
  186POPC    C221306   4.488   6.590   6.362  0.5448  0.7043  0.2844
  186POPC    HS21307   4.407   6.647   6.412 -1.3476 -2.1765  0.7273
  186POPC   O2121308   4.443   6.478   6.276 -0.0887 -0.1920  0.0916
  186POPC   C2121309   4.337   6.506   6.201  0.6379 -0.1193 -0.4659
  186POPC   O2221310   4.261   6.600   6.220 -0.7692  0.5052  0.3957
  186POPC   C2221311   4.303   6.401   6.102  0.0079 -0.6864  0.3970
  186POPC   H2R21312   4.194   6.393   6.120 -0.0223  0.0258  0.5283
  186POPC   H2S21313   4.343   6.299   6.122 -0.5052 -1.1665 -0.9243
  186POPC    C321314   4.582   6.680   6.276  0.5505 -0.1371 -0.2488
  186POPC    HX21315   4.681   6.632   6.263  0.8293 -0.4208  2.3185
  186POPC    HY21316   4.604   6.768   6.341 -2.1529 -0.5079  1.3419
  186POPC   O3121317   4.525   6.717   6.148  0.3398 -0.1634 -0.5581
  186POPC   C3121318   4.472   6.837   6.142 -0.5731 -0.6747  0.0267
  186POPC   O3221319   4.447   6.911   6.234 -0.5014  0.6283  0.1004
  186POPC   C3221320   4.433   6.862   5.995  0.9089 -0.2461  0.1944
  186POPC   H2X21321   4.336   6.812   5.977 -0.2959  1.1569  2.3696
  186POPC   H2Y21322   4.500   6.807   5.926 -1.2902 -2.1915 -0.4991
  186POPC   C2321323   4.341   6.436   5.959 -0.2851  0.0938 -0.3337
  186POPC   H3R21324   4.315   6.542   5.943 -1.9530 -0.0068  1.3102
  186POPC   H3S21325   4.278   6.372   5.894 -1.9408  0.8232  0.4848
  186POPC   C2421326   4.497   6.404   5.939  0.2230  0.6417 -0.2763
  186POPC   H4R21327   4.500   6.296   5.917 -2.9497 -0.0642  2.0679
  186POPC   H4S21328   4.542   6.418   6.040  1.5091  1.2085 -0.9032
  186POPC   C2521329   4.581   6.504   5.855 -0.3877  0.3928  0.3103
  186POPC   H5R21330   4.676   6.447   5.841  0.0597  0.7568  1.6927
  186POPC   H5S21331   4.601   6.591   5.921  2.1764  0.2317 -0.1379
  186POPC   C2621332   4.527   6.534   5.718  0.1438 -0.1837 -0.4282
  186POPC   H6R21333   4.417   6.548   5.722  0.1529 -0.1606 -0.2421
  186POPC   H6S21334   4.553   6.447   5.653  0.2638  1.4227 -2.6341
  186POPC   C2721335   4.600   6.652   5.649  0.0023 -0.6678  0.0188
  186POPC   H7R21336   4.709   6.630   5.648  0.6666  1.6308  3.4592
  186POPC   H7S21337   4.594   6.739   5.718  0.5821  0.2344 -1.0440
  186POPC   C2821338   4.546   6.692   5.513  0.4180 -0.2963  0.0318
  186POPC   H8R21339   4.594   6.787   5.481  0.4878  0.7133  2.8741
  186POPC   H8S21340   4.439   6.722   5.511  0.3157 -0.6118 -2.3223
  186POPC   C2921341   4.550   6.592   5.399 -0.2926  0.3919 -0.2939
  186POPC   H9121342   4.488   6.504   5.419 -0.3188  0.6616  0.8497
  186POPC  C21021343   4.622   6.596   5.284  0.0893 -0.1200  0.0366
  186POPC  H10121344   4.614   6.511   5.214 -1.1566  0.9441 -1.1559
  186POPC  C21121345   4.717   6.708   5.238  0.6292 -0.0897  0.4035
  186POPC  H11R21346   4.810   6.660   5.199  0.0393  0.6285 -2.0338
  186POPC  H11S21347   4.729   6.788   5.314  1.6292 -0.9136  1.1539
  186POPC  C21221348   4.648   6.766   5.111 -0.7199  0.4445  0.1832
  186POPC  H12R21349   4.544   6.793   5.137 -0.8054 -0.0016  0.3126
  186POPC  H12S21350   4.653   6.691   5.029  0.6906  0.4855  0.2065
  186POPC  C21321351   4.713   6.900   5.072 -0.7312  0.0915 -0.0003
  186POPC  H13R21352   4.824   6.898   5.059 -0.7998  1.1498 -1.0331
  186POPC  H13S21353   4.697   6.973   5.154  1.2342 -0.3128  0.7951
  186POPC  C21421354   4.645   6.950   4.944 -0.2235 -0.8073  0.4722
  186POPC  H14R21355   4.536   6.944   4.964 -0.3263 -1.5155 -0.2703
  186POPC  H14S21356   4.663   6.877   4.862  1.7971  1.1871 -0.9624
  186POPC  C21521357   4.702   7.082   4.896  0.0959 -0.2549 -0.1775
  186POPC  H15R21358   4.774   7.056   4.816 -0.0118  2.1556 -1.1386
  186POPC  H15S21359   4.745   7.149   4.974  0.9158  0.1169 -0.9381
  186POPC  C21621360   4.600   7.168   4.819 -0.4647 -0.5142  0.1030
  186POPC  H16R21361   4.536   7.094   4.766  1.0167  0.5999 -3.5038
  186POPC  H16S21362   4.654   7.224   4.741  0.0597  1.4378  1.7675
  186POPC  C21721363   4.505   7.263   4.895 -0.7209  0.7728  0.4212
  186POPC  H17R21364   4.455   7.330   4.821  0.1128  0.9592  0.0213
  186POPC  H17S21365   4.569   7.326   4.961  1.9654 -0.8118 -0.5622
  186POPC  C21821366   4.390   7.212   4.988 -0.9817  0.3809  1.0125
  186POPC  H18R21367   4.442   7.176   5.080 -0.6214 -2.2275 -0.1166
  186POPC  H18S21368   4.335   7.135   4.931  0.8207  0.3024 -0.7080
  186POPC  H18T21369   4.329   7.299   5.018  2.2829  2.7695  1.3475
  186POPC   C3321370   4.413   7.020   5.972  0.3339 -0.3106  0.2165
  186POPC   H3X21371   4.499   7.079   6.011 -0.1978  0.0332  0.9035
  186POPC   H3Y21372   4.329   7.059   6.035 -0.1488  1.5219 -1.4622
  186POPC   C3421373   4.384   7.065   5.821  0.0952  0.3588 -0.1490
  186POPC   H4X21374   4.375   7.175   5.835 -2.5447  0.4130 -1.6644
  186POPC   H4Y21375   4.286   7.017   5.801 -0.5005  1.1236  0.8484
  186POPC   C3521376   4.493   7.020   5.735 -0.0396  0.1991  0.1554
  186POPC   H5X21377   4.490   6.911   5.711  0.7416  0.5250 -1.5606
  186POPC   H5Y21378   4.590   7.050   5.780  0.2626 -0.5972  0.0565
  186POPC   C3621379   4.480   7.091   5.598  0.7991  0.3751 -0.5840
  186POPC   H6X21380   4.568   7.063   5.537 -0.1432 -2.2550 -0.8337
  186POPC   H6Y21381   4.472   7.202   5.603 -3.6577  0.2254 -0.3334
  186POPC   C3721382   4.353   7.051   5.525  0.1566 -0.5166  0.0345
  186POPC   H7X21383   4.265   7.116   5.536  0.6556  1.3247 -4.7811
  186POPC   H7Y21384   4.312   6.956   5.567 -0.6121  0.4441  1.5603
  186POPC   C3821385   4.377   7.025   5.374  0.2971  0.7849  0.0240
  186POPC   H8X21386   4.451   6.943   5.359 -1.4321 -0.5511 -1.7831
  186POPC   H8Y21387   4.414   7.117   5.323  0.7815  1.0589  0.8574
  186POPC   C3921388   4.248   6.978   5.300  0.2893 -0.5465 -0.0437
  186POPC   H9X21389   4.200   7.075   5.280  0.0290 -1.0968 -2.3648
  186POPC   H9Y21390   4.185   6.912   5.363  0.6855 -0.2126  0.7159
  186POPC  C31021391   4.277   6.909   5.159  0.2986 -0.4406  0.1218
  186POPC  H10X21392   4.301   6.802   5.177  0.3462 -0.3206  0.7902
  186POPC  H10Y21393   4.369   6.964   5.130 -0.4177  1.5732  1.4678
  186POPC  C31121394   4.174   6.930   5.050  0.4226  0.6241  0.1461
  186POPC  H11X21395   4.154   7.036   5.025  0.8371  1.1302  1.7630
  186POPC  H11Y21396   4.075   6.904   5.092  0.4277  0.6101  0.1497
  186POPC  C31221397   4.196   6.843   4.920 -0.0335 -0.1667 -0.3288
  186POPC  H12X21398   4.204   6.735   4.945 -0.0527 -0.2128 -0.5189
  186POPC  H12Y21399   4.291   6.888   4.886  0.1732  0.9531  1.5838
  186POPC  C31321400   4.073   6.845   4.827 -0.0474 -0.3552 -0.6365
  186POPC  H13X21401   3.987   6.857   4.896  1.1847  0.1111  0.8510
  186POPC  H13Y21402   4.050   6.748   4.776 -3.8348 -0.1143  0.3593
  186POPC  C31421403   4.076   6.961   4.729 -0.0566  0.5543  0.2953
  186POPC  H14X21404   4.086   7.065   4.769 -1.9642  0.8517  0.1066
  186POPC  H14Y21405   3.981   6.966   4.671  0.0559  0.1459  0.0793
  186POPC  C31521406   4.194   6.937   4.629  0.1336  0.1863 -0.1016
  186POPC  H15X21407   4.166   6.863   4.551 -0.8554  0.9825 -0.5288
  186POPC  H15Y21408   4.273   6.878   4.680 -1.9756 -0.6076  2.4768
  186POPC  C31621409   4.248   7.066   4.564 -0.5930  0.0388  0.4513
  186POPC  H16X21410   4.298   7.128   4.641  1.4129 -1.3959  0.4077
  186POPC  H16Y21411   4.159   7.126   4.536  0.2303  1.6762  1.2232
  186POPC  H16Z21412   4.316   7.047   4.478  0.0660  0.3470  0.8980
  187POPC     N21413   1.391   4.921   1.962 -0.6716 -0.3713  0.2325
  187POPC   C1221414   1.484   5.001   1.874  0.7898  0.2205  0.4344
  187POPC  H12A21415   1.448   5.099   1.848 -0.2948 -1.0002 -3.3459
  187POPC  H12B21416   1.496   4.955   1.777 -0.0923  2.4946 -0.8132
  187POPC   C1321417   1.384   4.970   2.103 -0.2685 -0.3567  0.4706
  187POPC  H13A21418   1.354   5.074   2.094 -3.3432 -1.3282 -2.8531
  187POPC  H13B21419   1.317   4.917   2.169 -0.1972  0.3274  1.1098
  187POPC  H13C21420   1.481   4.957   2.150 -0.2692  1.9025  1.2166
  187POPC   C1421421   1.256   4.916   1.918 -0.2390  0.7041  0.7848
  187POPC  H14A21422   1.193   4.867   1.991  1.7487 -0.9502  1.4796
  187POPC  H14B21423   1.205   5.009   1.899  0.0016  1.1445  2.2158
  187POPC  H14C21424   1.252   4.843   1.839  1.5343 -0.3928  1.6507
  187POPC   C1521425   1.438   4.781   1.957  0.3566 -0.4293  0.0907
  187POPC  H15A21426   1.382   4.704   2.008  0.1377 -0.6944 -0.5380
  187POPC  H15B21427   1.535   4.784   2.004  1.1662  2.3312 -1.5393
  187POPC  H15C21428   1.451   4.751   1.854  0.6145  1.7356 -0.5422
  187POPC   C1121429   1.620   5.026   1.943  1.2725 -0.3035  1.0142
  187POPC  H11A21430   1.594   5.078   2.037  2.8300 -0.4501  1.5572
  187POPC  H11B21431   1.671   5.098   1.876  0.9691  1.0964  2.2307
  187POPC     P21432   1.848   4.926   1.998 -0.1343  0.1454  0.0275
  187POPC   O1321433   1.896   4.966   1.864  0.1699  0.1093 -0.2864
  187POPC   O1421434   1.905   4.803   2.063 -0.2593 -0.0879  0.2114
  187POPC   O1221435   1.689   4.904   1.971  0.7053 -0.8110  0.2203
  187POPC   O1121436   1.858   5.058   2.094 -0.2945  0.1068 -0.5731
  187POPC    C121437   1.900   5.046   2.230 -0.2540 -0.9023 -0.1838
  187POPC    HA21438   1.964   5.137   2.238  2.3332 -2.6062 -0.5704
  187POPC    HB21439   1.959   4.959   2.264  0.2240  0.1760  1.9163
  187POPC    C221440   1.786   5.055   2.339  0.0094  0.5467 -0.5395
  187POPC    HS21441   1.844   5.059   2.434  1.7505 -3.0955 -1.2892
  187POPC   O2121442   1.702   4.942   2.334  0.2657 -0.1533 -0.1005
  187POPC   C2121443   1.754   4.832   2.379 -0.0635  0.2616  0.0277
  187POPC   O2221444   1.871   4.823   2.425 -0.3324 -0.2808  0.2577
  187POPC   C2221445   1.664   4.711   2.376  0.6214 -0.3581 -0.0068
  187POPC   H2R21446   1.710   4.631   2.439  0.4940 -0.7872 -0.4527
  187POPC   H2S21447   1.655   4.667   2.274 -1.5795  0.6148 -0.3019
  187POPC    C321448   1.710   5.189   2.321 -0.0795 -0.8153 -0.5016
  187POPC    HX21449   1.662   5.192   2.221  1.8723 -1.5188 -1.5001
  187POPC    HY21450   1.784   5.273   2.317 -0.5975 -0.3600 -0.6360
  187POPC   O3121451   1.623   5.225   2.423  0.3373 -0.1434 -0.8698
  187POPC   C3121452   1.490   5.209   2.403 -0.6738  0.5247 -0.6557
  187POPC   O3221453   1.436   5.214   2.294  0.0511  0.4762  0.1616
  187POPC   C3221454   1.424   5.183   2.535 -0.6685 -0.6287  0.0240
  187POPC   H2X21455   1.477   5.230   2.621 -2.9843 -0.4577  1.4544
  187POPC   H2Y21456   1.425   5.076   2.564  1.3210 -0.4508  0.8439
  187POPC   C2321457   1.523   4.747   2.429  0.3076  0.4804 -0.1603
  187POPC   H3R21458   1.459   4.656   2.425  1.4280 -0.3004 -0.9281
  187POPC   H3S21459   1.479   4.831   2.372 -0.4439 -0.0411 -0.3667
  187POPC   C2421460   1.512   4.792   2.581  0.0547  0.2877 -0.6841
  187POPC   H4R21461   1.559   4.892   2.591  2.2469 -0.6765 -0.8285
  187POPC   H4S21462   1.547   4.706   2.641 -0.0591  0.0554 -0.9485
  187POPC   C2521463   1.358   4.795   2.606  0.5369  0.2659 -0.6476
  187POPC   H5R21464   1.322   4.699   2.563  1.0173  0.8413 -2.4639
  187POPC   H5S21465   1.310   4.859   2.529 -0.8755 -3.1686 -2.8866
  187POPC   C2621466   1.308   4.831   2.752 -0.0220  0.7674  0.1503
  187POPC   H6R21467   1.207   4.874   2.737 -0.0706  0.7723  0.4815
  187POPC   H6S21468   1.375   4.904   2.802 -0.4008 -0.7433  3.1388
  187POPC   C2721469   1.310   4.705   2.850 -0.2757 -0.6554 -0.2499
  187POPC   H7R21470   1.411   4.658   2.848  0.3575  0.5978  0.4445
  187POPC   H7S21471   1.239   4.634   2.803 -1.5381 -0.0022  0.6197
  187POPC   C2821472   1.271   4.735   2.993  0.2321 -0.7443 -0.2880
  187POPC   H8R21473   1.271   4.638   3.047 -1.7304 -0.1873  0.7957
  187POPC   H8S21474   1.166   4.771   3.004  0.2281 -0.1601 -1.9933
  187POPC   C2921475   1.363   4.839   3.058 -0.5545  0.5785 -0.2173
  187POPC   H9121476   1.377   4.936   3.008  2.3246  0.4301  0.1068
  187POPC  C21021477   1.423   4.820   3.181  0.1014  0.3408 -0.0517
  187POPC  H10121478   1.494   4.894   3.220 -0.1326 -0.0490  1.1554
  187POPC  C21121479   1.407   4.705   3.275 -0.3781  0.3940  0.0522
  187POPC  H11R21480   1.501   4.703   3.334  0.6357 -0.7355 -1.5072
  187POPC  H11S21481   1.416   4.606   3.225  1.0559  0.8365 -0.6360
  187POPC  C21221482   1.290   4.716   3.382 -0.3995  0.3404  0.1681
  187POPC  H12R21483   1.189   4.719   3.334  1.2288 -0.9948 -3.7975
  187POPC  H12S21484   1.303   4.819   3.421 -1.0715  0.1625  0.8712
  187POPC  C21321485   1.303   4.619   3.502  0.1667  0.0869  0.2579
  187POPC  H13R21486   1.409   4.615   3.535  0.3050 -0.3801 -0.2317
  187POPC  H13S21487   1.271   4.526   3.451  0.2038 -0.4237  1.1462
  187POPC  C21421488   1.207   4.641   3.631  0.4858 -0.9979  0.4202
  187POPC  H14R21489   1.113   4.664   3.578  1.5924 -1.9301 -2.1425
  187POPC  H14S21490   1.257   4.728   3.679 -0.0400  0.1187 -0.9974
  187POPC  C21521491   1.199   4.520   3.722  0.1801 -0.6180  0.0466
  187POPC  H15R21492   1.291   4.514   3.785 -0.7639  1.5524  1.7629
  187POPC  H15S21493   1.187   4.424   3.669  2.0249 -2.8213  3.2083
  187POPC  C21621494   1.079   4.532   3.821  0.0114  0.4565  0.0883
  187POPC  H16R21495   0.994   4.582   3.769  0.1096  1.5731  0.9504
  187POPC  H16S21496   1.110   4.595   3.908  0.5954  1.3198 -0.7221
  187POPC  C21721497   1.034   4.392   3.874  0.0286 -0.1427 -0.1927
  187POPC  H17R21498   0.969   4.403   3.964 -1.2112 -0.1031 -1.0634
  187POPC  H17S21499   1.130   4.344   3.903  0.6571  1.3945  0.4023
  187POPC  C21821500   0.961   4.317   3.767  0.3940  0.6528 -0.8169
  187POPC  H18R21501   1.023   4.286   3.679  0.3365 -2.5328  0.1233
  187POPC  H18S21502   0.875   4.375   3.729  0.4308  3.3823  2.8044
  187POPC  H18T21503   0.921   4.217   3.795 -0.8751  1.1484 -0.8017
  187POPC   C3321504   1.279   5.219   2.557  0.5911  0.2399 -0.1140
  187POPC   H3X21505   1.200   5.142   2.542  0.0909  0.7716 -0.2454
  187POPC   H3Y21506   1.253   5.287   2.473  0.4391  1.8607  1.1856
  187POPC   C3421507   1.264   5.299   2.685 -0.8173 -0.2021  0.5651
  187POPC   H4X21508   1.160   5.338   2.691 -0.0656  1.9934  0.2620
  187POPC   H4Y21509   1.336   5.383   2.679  0.0043 -0.9527 -0.7547
  187POPC   C3521510   1.292   5.207   2.812 -0.3018 -0.0279  0.6030
  187POPC   H5X21511   1.401   5.187   2.813  0.1062  1.9803  0.5014
  187POPC   H5Y21512   1.241   5.109   2.794 -1.4467  0.6938 -0.2543
  187POPC   C3621513   1.235   5.267   2.944 -0.9069 -0.6415  0.9681
  187POPC   H6X21514   1.124   5.260   2.945 -1.0071  0.0468 -1.0519
  187POPC   H6Y21515   1.266   5.374   2.953 -0.9139 -0.8039  3.5061
  187POPC   C3721516   1.281   5.185   3.062  0.0989  0.5372 -0.5422
  187POPC   H7X21517   1.388   5.165   3.042  0.5608  1.9497  0.3428
  187POPC   H7Y21518   1.228   5.088   3.066 -1.7598  1.4957 -0.8513
  187POPC   C3821519   1.256   5.254   3.195 -0.3494  0.0746  0.0220
  187POPC   H8X21520   1.146   5.250   3.211 -0.6523  0.9954 -1.5439
  187POPC   H8Y21521   1.293   5.359   3.199 -1.0309  0.3108  3.2025
  187POPC   C3921522   1.324   5.186   3.309  0.0789  0.5318 -0.0292
  187POPC   H9X21523   1.434   5.187   3.289  0.4862 -2.2007  1.5413
  187POPC   H9Y21524   1.299   5.078   3.311  1.5763  0.1604  1.2454
  187POPC  C31021525   1.301   5.238   3.451 -0.1034 -0.1826  0.0678
  187POPC  H10X21526   1.191   5.246   3.464 -0.0854  1.1203 -0.4280
  187POPC  H10Y21527   1.352   5.337   3.461 -1.6578  0.5471  1.1856
  187POPC  C31121528   1.360   5.141   3.558 -0.0790  0.4676  0.3165
  187POPC  H11X21529   1.469   5.161   3.565  0.3498 -0.5394 -2.4245
  187POPC  H11Y21530   1.341   5.039   3.517  1.2154  0.6131 -0.7142
  187POPC  C31221531   1.285   5.156   3.689 -0.1986 -0.1307  0.2407
  187POPC  H12X21532   1.274   5.053   3.731 -0.4451 -1.1471 -2.1539
  187POPC  H12Y21533   1.185   5.196   3.662 -0.1392  1.2104  1.8920
  187POPC  C31321534   1.363   5.240   3.791 -0.3966 -0.4212 -0.3265
  187POPC  H13X21535   1.358   5.346   3.759  1.8485 -0.4138 -0.7953
  187POPC  H13Y21536   1.471   5.213   3.789  0.5042  2.5193  1.6901
  187POPC  C31421537   1.321   5.222   3.934 -0.1907 -0.5258  0.0992
  187POPC  H14X21538   1.330   5.116   3.964 -0.1907 -0.9616 -1.3643
  187POPC  H14Y21539   1.214   5.246   3.952 -0.2101 -0.3780 -0.2114
  187POPC  C31521540   1.404   5.303   4.037 -0.4572 -0.1343 -0.5604
  187POPC  H15X21541   1.350   5.314   4.134 -1.7519 -0.9805 -1.1473
  187POPC  H15Y21542   1.404   5.403   3.990 -2.4996  0.8828  1.4206
  187POPC  C31621543   1.548   5.253   4.063 -0.2984 -0.7738 -0.1446
  187POPC  H16X21544   1.616   5.248   3.975  0.3536  0.1777  0.2811
  187POPC  H16Y21545   1.544   5.158   4.119 -2.5390 -2.0006 -2.2278
  187POPC  H16Z21546   1.595   5.320   4.139  2.2604 -1.9279 -0.5907
  188POPC     N21547   0.279   1.578   2.322  0.4632 -0.4914 -0.1578
  188POPC   C1221548   0.160   1.629   2.399  0.3344 -0.5410 -0.4781
  188POPC  H12A21549   0.098   1.671   2.322  2.0034 -0.1914 -1.6580
  188POPC  H12B21550   0.189   1.712   2.461 -1.3218  0.9290 -1.5754
  188POPC   C1321551   0.380   1.518   2.414 -0.2296 -0.6712  0.1811
  188POPC  H13A21552   0.406   1.587   2.492  1.3409  0.6906 -1.4577
  188POPC  H13B21553   0.335   1.429   2.454  2.1714 -1.0421  2.3267
  188POPC  H13C21554   0.473   1.505   2.360  0.1240  2.8219 -0.2579
  188POPC   C1421555   0.237   1.472   2.223 -0.3126  0.0192 -0.2967
  188POPC  H14A21556   0.177   1.514   2.143  0.6231 -0.2589 -1.1503
  188POPC  H14B21557   0.328   1.439   2.176 -1.1155  0.5846 -2.3511
  188POPC  H14C21558   0.178   1.393   2.267 -2.4022  2.2045  1.1067
  188POPC   C1521559   0.346   1.690   2.252 -0.4567  0.3681  0.2797
  188POPC  H15A21560   0.285   1.739   2.178  0.2325  0.5385 -0.1911
  188POPC  H15B21561   0.436   1.662   2.199 -1.1071  0.2119 -0.7650
  188POPC  H15C21562   0.369   1.769   2.323  1.6190 -0.6282  0.7854
  188POPC   C1121563   0.074   1.541   2.496  0.4785  0.0680 -0.0683
  188POPC  H11A21564   0.002   1.612   2.542  1.8420  0.8297  0.9676
  188POPC  H11B21565   0.145   1.504   2.573 -0.2981  1.5957  1.4427
  188POPC     P21566  -0.149   1.431   2.409 -0.5126  0.1240  0.0057
  188POPC   O1321567  -0.192   1.314   2.322  0.1656  0.2807  0.3468
  188POPC   O1421568  -0.186   1.566   2.366  0.3421 -0.2659 -0.3340
  188POPC   O1221569   0.012   1.428   2.433  0.5605  0.1566 -0.0855
  188POPC   O1121570  -0.214   1.413   2.552  0.0980  0.3926  0.2630
  188POPC    C121571  -0.194   1.294   2.623  0.1205 -0.0622  0.1074
  188POPC    HA21572  -0.092   1.251   2.614  0.0216 -0.7836  2.0663
  188POPC    HB21573  -0.273   1.220   2.601  0.2794 -0.4145  0.7004
  188POPC    C221574  -0.204   1.326   2.772 -0.0592 -0.1347 -0.1432
  188POPC    HS21575  -0.282   1.404   2.785 -1.4897 -1.4951 -0.3075
  188POPC   O2121576  -0.066   1.362   2.807 -0.5597  0.0107  0.4223
  188POPC   C2121577  -0.060   1.479   2.861  0.6315  0.2370 -0.4312
  188POPC   O2221578  -0.149   1.565   2.869  0.0156  0.5088 -0.0588
  188POPC   C2221579   0.086   1.495   2.915  0.3321  0.0974  0.0675
  188POPC   H2R21580   0.110   1.603   2.925 -0.0407  0.2386 -0.4957
  188POPC   H2S21581   0.159   1.445   2.848  0.3941  0.9098 -0.4788
  188POPC    C321582  -0.246   1.204   2.852 -0.1618  0.7974  0.6162
  188POPC    HX21583  -0.168   1.125   2.842 -2.2993 -1.3933  0.0991
  188POPC    HY21584  -0.335   1.156   2.805  1.2713 -0.8579 -0.5532
  188POPC   O3121585  -0.271   1.237   2.987 -0.3426 -0.2363  0.1302
  188POPC   C3121586  -0.378   1.300   3.012  0.2010  0.0785  0.3141
  188POPC   O3221587  -0.466   1.333   2.933 -0.0040 -0.1692 -0.2418
  188POPC   C3221588  -0.391   1.324   3.158  0.5556  0.2537  0.6314
  188POPC   H2X21589  -0.286   1.350   3.185  1.9513 -1.4742 -2.6199
  188POPC   H2Y21590  -0.407   1.224   3.203  1.8109 -0.5196 -0.5650
  188POPC   C2321591   0.084   1.448   3.061 -0.3633 -0.3057  0.0818
  188POPC   H3R21592   0.181   1.456   3.114  0.0763 -0.2047 -0.7266
  188POPC   H3S21593   0.059   1.340   3.069 -0.5379 -0.2582  0.1943
  188POPC   C2421594  -0.004   1.524   3.161 -0.4150  0.0240 -0.2903
  188POPC   H4R21595  -0.099   1.551   3.111 -0.6800 -1.1522 -0.4501
  188POPC   H4S21596   0.047   1.617   3.195 -0.5670 -0.6501  1.9550
  188POPC   C2521597  -0.054   1.431   3.276 -0.6204  0.2907 -0.1089
  188POPC   H5R21598  -0.086   1.332   3.237 -2.0178 -0.5538  2.8528
  188POPC   H5S21599  -0.143   1.477   3.325 -1.4254 -1.5513  0.2232
  188POPC   C2621600   0.054   1.399   3.386 -0.1362 -0.0649 -0.1186
  188POPC   H6R21601   0.117   1.487   3.408  0.7977 -1.0342  1.3044
  188POPC   H6S21602   0.123   1.319   3.351  0.2621 -1.1392  2.7840
  188POPC   C2721603  -0.008   1.349   3.519 -0.6657 -0.3184 -0.2605
  188POPC   H7R21604  -0.051   1.248   3.505  1.1992 -1.2828  0.5397
  188POPC   H7S21605  -0.092   1.414   3.550  0.1704  0.2868  0.8249
  188POPC   C2821606   0.095   1.352   3.638  0.1234 -0.2280 -0.3364
  188POPC   H8R21607   0.036   1.330   3.729 -1.4329  0.8375 -1.0491
  188POPC   H8S21608   0.138   1.454   3.644  1.1043 -0.5828 -1.0338
  188POPC   C2921609   0.219   1.263   3.621  0.2041  0.2199 -1.1153
  188POPC   H9121610   0.280   1.309   3.542  0.2765  0.2463 -1.0436
  188POPC  C21021611   0.253   1.143   3.676 -0.2681  0.1912 -0.1192
  188POPC  H10121612   0.350   1.094   3.658  1.7598  3.4630  0.9421
  188POPC  C21121613   0.173   1.075   3.788 -0.4055  0.1248  0.5030
  188POPC  H11R21614   0.195   0.968   3.773  1.6260  0.8830 -3.1512
  188POPC  H11S21615   0.068   1.077   3.754 -0.9078  0.1539  1.9773
  188POPC  C21221616   0.191   1.118   3.934  0.5995  0.2239 -0.3794
  188POPC  H12R21617   0.124   1.060   4.001  1.2768  0.7417  0.7777
  188POPC  H12S21618   0.151   1.222   3.940  0.5658  0.1481  1.4513
  188POPC  C21321619   0.336   1.124   3.986 -0.1644 -0.2520 -0.2723
  188POPC  H13R21620   0.385   1.195   3.916  1.8241 -2.6133 -1.4416
  188POPC  H13S21621   0.398   1.033   3.971  1.7450  0.9690 -0.0646
  188POPC  C21421622   0.346   1.183   4.126  0.2347  0.1577 -0.3115
  188POPC  H14R21623   0.304   1.108   4.195 -1.9412  2.7555  1.3912
  188POPC  H14S21624   0.292   1.280   4.128 -2.9868 -1.4946  0.4347
  188POPC  C21521625   0.493   1.224   4.160 -0.2189  0.9697 -0.0763
  188POPC  H15R21626   0.532   1.293   4.083  0.4931  0.8209  0.1408
  188POPC  H15S21627   0.557   1.133   4.160 -0.6155  0.6752 -1.6275
  188POPC  C21621628   0.505   1.288   4.296  0.5995 -0.1490  0.2648
  188POPC  H16R21629   0.487   1.213   4.376  1.2236 -1.6048 -0.8970
  188POPC  H16S21630   0.434   1.368   4.327  0.6239  0.4460 -1.1386
  188POPC  C21721631   0.643   1.339   4.327 -0.4885 -0.6247  0.2831
  188POPC  H17R21632   0.716   1.260   4.301 -0.5188 -0.5245 -0.1137
  188POPC  H17S21633   0.644   1.354   4.437  0.7664  0.6856  0.1240
  188POPC  C21821634   0.678   1.471   4.253  0.0384  0.1826 -0.3900
  188POPC  H18R21635   0.598   1.541   4.286 -1.4606 -1.2593 -0.8340
  188POPC  H18S21636   0.667   1.458   4.143  1.4144 -2.4152 -0.2865
  188POPC  H18T21637   0.778   1.516   4.272  0.2703  0.4529 -2.0302
  188POPC   C3321638  -0.474   1.446   3.197  0.0196  0.2256  0.2116
  188POPC   H3X21639  -0.580   1.434   3.166 -0.0679  0.1289  0.5391
  188POPC   H3Y21640  -0.440   1.537   3.144 -1.0549  1.6213  1.7883
  188POPC   C3421641  -0.466   1.480   3.344  0.8764 -0.0884  0.0163
  188POPC   H4X21642  -0.360   1.492   3.375  2.0277  0.5736 -3.6515
  188POPC   H4Y21643  -0.513   1.395   3.397  1.7685 -0.7430 -0.2183
  188POPC   C3521644  -0.542   1.612   3.356  0.2308 -0.2509  0.0528
  188POPC   H5X21645  -0.642   1.600   3.310 -0.1846 -1.2854  1.1748
  188POPC   H5Y21646  -0.478   1.683   3.299 -0.0758 -0.2756 -0.3306
  188POPC   C3621647  -0.542   1.656   3.504  0.0151 -0.5172  0.7399
  188POPC   H6X21648  -0.435   1.678   3.527 -0.2978 -0.9775  2.8778
  188POPC   H6Y21649  -0.587   1.575   3.564 -0.4209 -0.1266  0.9491
  188POPC   C3721650  -0.631   1.786   3.513  0.1755  0.4046 -0.0199
  188POPC   H7X21651  -0.735   1.773   3.475  0.2268  1.7794 -0.6924
  188POPC   H7Y21652  -0.580   1.862   3.450 -0.6373  0.0000 -1.2028
  188POPC   C3821653  -0.642   1.829   3.658  0.2104  0.0364 -0.3991
  188POPC   H8X21654  -0.692   1.747   3.713  0.8936 -0.9772 -1.2426
  188POPC   H8Y21655  -0.701   1.921   3.679  0.4333  0.0882  0.0221
  188POPC   C3921656  -0.510   1.859   3.726  0.0513  0.4031  0.1446
  188POPC   H9X21657  -0.460   1.942   3.673  1.7165  0.4675  1.7131
  188POPC   H9Y21658  -0.444   1.770   3.724  0.4721  0.6881  0.8711
  188POPC  C31021659  -0.518   1.893   3.874 -0.3417  0.1309  0.7911
  188POPC  H10X21660  -0.571   1.806   3.919 -1.7411 -0.6172 -2.0821
  188POPC  H10Y21661  -0.585   1.980   3.892 -0.7306 -0.6842  3.7946
  188POPC  C31121662  -0.382   1.916   3.942 -0.1151  0.5602 -0.7625
  188POPC  H11X21663  -0.333   2.004   3.893  1.5011  0.1445  0.0452
  188POPC  H11Y21664  -0.315   1.836   3.904 -0.2049 -0.1684  0.5805
  188POPC  C31221665  -0.377   1.929   4.092 -0.0564 -0.7119 -0.2758
  188POPC  H12X21666  -0.429   1.847   4.145  0.4018  0.2663  1.7957
  188POPC  H12Y21667  -0.432   2.022   4.119 -0.0617 -1.0595  0.9413
  188POPC  C31321668  -0.232   1.959   4.143  0.1819 -0.4815 -1.1373
  188POPC  H13X21669  -0.205   2.066   4.126 -0.0141 -0.1491  0.4167
  188POPC  H13Y21670  -0.150   1.898   4.099  1.8934  2.0626 -1.7200
  188POPC  C31421671  -0.225   1.943   4.300 -0.2743  0.0630  0.2598
  188POPC  H14X21672  -0.277   2.034   4.338 -0.6126 -0.5426  1.2901
  188POPC  H14Y21673  -0.121   1.966   4.329 -0.2077 -0.4860  0.4604
  188POPC  C31521674  -0.281   1.808   4.349  0.4392 -0.8176 -0.0359
  188POPC  H15X21675  -0.253   1.726   4.278 -0.3658 -0.2280 -1.0633
  188POPC  H15Y21676  -0.392   1.816   4.352  0.4372 -0.6546 -0.4872
  188POPC  C31621677  -0.232   1.777   4.493  0.1322 -0.0582 -0.2931
  188POPC  H16X21678  -0.129   1.816   4.511 -0.1314  0.3506  0.3793
  188POPC  H16Y21679  -0.230   1.668   4.515  0.0179 -0.3948 -1.8903
  188POPC  H16Z21680  -0.291   1.826   4.573  1.6338 -0.1110  0.9118
  189SAPI   C1221681   2.705   6.067   7.192 -0.4074 -0.4229  0.2693
  189SAPI    H221682   2.806   6.072   7.146  1.3679 -1.6786  3.6842
  189SAPI    O221683   2.693   5.944   7.251  0.4212 -0.0234 -0.6703
  189SAPI   HO221684   2.757   5.893   7.200  0.7751 -0.1852 -0.0689
  189SAPI   C1321685   2.696   6.175   7.298 -0.4383  0.0342 -0.3361
  189SAPI    H321686   2.699   6.276   7.253  1.0639  1.2248  2.1983
  189SAPI    O321687   2.808   6.164   7.386  0.0537 -0.0941  0.1159
  189SAPI   HO321688   2.780   6.109   7.460 -1.8548 -1.4856 -1.4933
  189SAPI   C1421689   2.560   6.160   7.377 -0.4890 -0.0792  0.6357
  189SAPI    H421690   2.580   6.075   7.445 -1.1666 -0.4039  0.4331
  189SAPI    O421691   2.549   6.280   7.457  0.5362  0.0762  0.3378
  189SAPI   HO421692   2.533   6.345   7.388  1.8242 -0.9644 -0.9947
  189SAPI   C1521693   2.428   6.120   7.300 -0.3100  0.5335  0.8356
  189SAPI    H521694   2.366   6.211   7.291  0.4985  1.1155  1.1060
  189SAPI    O521695   2.338   6.032   7.373 -0.0422  0.0085  0.5096
  189SAPI   HO521696   2.389   5.954   7.395 -1.1801 -0.9822 -0.2645
  189SAPI   C1621697   2.457   6.067   7.154  0.3190 -0.3981  0.3226
  189SAPI    H621698   2.432   5.959   7.163  0.1251 -0.4361 -0.6621
  189SAPI    O621699   2.355   6.102   7.058 -0.0046 -0.1272  0.6789
  189SAPI   HO621700   2.331   6.193   7.077  0.8087  0.3291 -0.4050
  189SAPI   C1121701   2.597   6.090   7.092  0.6161 -0.7075  0.0723
  189SAPI    H121702   2.591   6.192   7.049  1.6592 -1.5080 -2.0906
  189SAPI     P21703   2.681   6.041   6.843 -0.3738  0.4051  0.3691
  189SAPI   O1321704   2.675   5.925   6.750 -0.4714 -0.9343 -0.1473
  189SAPI   O1421705   2.811   6.110   6.869  0.0894 -0.1437 -0.0017
  189SAPI   O1221706   2.614   5.996   6.985 -0.1457 -0.1266 -0.5077
  189SAPI   O1121707   2.589   6.159   6.784 -0.3824  0.7989  0.4856
  189SAPI    C121708   2.458   6.128   6.736  0.6221  0.3189 -0.2522
  189SAPI    HA21709   2.434   6.020   6.725 -0.7173  0.7871 -2.4999
  189SAPI    HB21710   2.383   6.179   6.799 -1.4779 -1.3320 -1.3080
  189SAPI    C221711   2.447   6.188   6.601 -1.2660 -0.3188  1.1508
  189SAPI    HS21712   2.346   6.165   6.561  0.2568 -2.1351 -2.0425
  189SAPI   O2121713   2.547   6.131   6.510 -0.8046  0.3789 -0.0123
  189SAPI   C2121714   2.519   6.004   6.476  0.0906  0.1490 -0.5821
  189SAPI   O2221715   2.418   5.942   6.510  1.2631 -0.3965  0.3616
  189SAPI   C2221716   2.615   5.949   6.374 -0.2838  0.0661  0.2927
  189SAPI   H2R21717   2.721   5.960   6.407 -0.5585  2.0652  0.6404
  189SAPI   H2S21718   2.595   5.840   6.377 -0.7958  0.1711  1.9416
  189SAPI    C321719   2.459   6.346   6.602 -0.2718 -0.0723  0.5727
  189SAPI    HX21720   2.563   6.367   6.633 -0.6007 -0.2738  1.8944
  189SAPI    HY21721   2.382   6.377   6.676 -0.9942  1.0198 -0.5942
  189SAPI   O3121722   2.416   6.403   6.478 -0.2541 -0.1126 -0.1703
  189SAPI   C3121723   2.509   6.445   6.404  0.3521 -0.6971 -0.1482
  189SAPI   O3221724   2.627   6.423   6.413  0.0007 -0.9081  0.6829
  189SAPI   C3221725   2.436   6.528   6.289  0.1449 -0.2096 -0.2007
  189SAPI   H2X21726   2.382   6.610   6.342 -1.1697 -2.5681  2.3733
  189SAPI   H2Y21727   2.349   6.474   6.244 -0.1096  1.8701 -2.4149
  189SAPI   C2321728   2.598   6.014   6.240 -0.7281 -0.2383 -0.2501
  189SAPI   H3R21729   2.654   6.110   6.244 -1.3621  0.0911  2.0495
  189SAPI   H3S21730   2.494   6.045   6.212 -0.4883 -2.2864 -4.1390
  189SAPI   C2421731   2.659   5.928   6.126  0.5757 -0.0563  0.0514
  189SAPI   H4R21732   2.590   5.842   6.114 -1.7206  1.5384  1.0021
  189SAPI   H4S21733   2.760   5.908   6.169 -0.3944  1.0430  3.1510
  189SAPI   C2521734   2.679   5.995   5.995 -0.1854  0.0013  0.9972
  189SAPI   H5R21735   2.737   6.088   6.006 -0.2571  0.3851 -1.3819
  189SAPI   C2621736   2.641   5.962   5.871 -0.2171  0.3594 -0.4301
  189SAPI   H6R21737   2.656   6.032   5.787 -0.6746  0.7974 -0.1479
  189SAPI   C2721738   2.563   5.846   5.835  0.3005  0.5249 -0.0042
  189SAPI   H7R21739   2.588   5.760   5.900  0.4016 -0.1309 -0.8915
  189SAPI   H7S21740   2.588   5.815   5.731 -3.6841 -0.3631 -0.8354
  189SAPI   C2821741   2.416   5.870   5.857  0.1134  0.2677  0.0140
  189SAPI   H8R21742   2.377   5.850   5.958  0.0667 -1.5915 -0.3460
  189SAPI   C2921743   2.331   5.943   5.786  0.2993  0.1183  0.1239
  189SAPI   H9R21744   2.225   5.951   5.815  1.1594  2.7238  3.1016
  189SAPI  C21021745   2.354   6.002   5.648  0.6486  0.6131  0.0513
  189SAPI  H10R21746   2.460   5.983   5.621  0.4328 -0.9405  0.1892
  189SAPI  H10S21747   2.344   6.112   5.664  0.5147  0.5950  0.0886
  189SAPI  C21121748   2.251   5.946   5.550  0.1491 -0.2625 -1.6178
  189SAPI  H11R21749   2.147   5.954   5.585  1.1744  2.3020  1.2538
  189SAPI  C21221750   2.276   5.872   5.438 -0.4451 -0.6306  0.3803
  189SAPI  H12R21751   2.192   5.836   5.377 -0.0630  1.0465 -1.2187
  189SAPI  C21321752   2.418   5.822   5.400  0.3000 -0.5069  0.0927
  189SAPI  H13R21753   2.495   5.864   5.468 -0.4702 -0.3898  0.9077
  189SAPI  H13S21754   2.436   5.851   5.294  0.6481 -3.3980 -0.7160
  189SAPI  C21421755   2.410   5.673   5.414 -0.7041  0.0721 -0.2779
  189SAPI  H14R21756   2.402   5.644   5.520 -2.1161 -0.1568 -0.4167
  189SAPI  C21521757   2.408   5.579   5.327 -0.0018  0.2220  1.0654
  189SAPI  H15R21758   2.418   5.475   5.362 -1.4196 -0.2526  0.1372
  189SAPI  C21621759   2.431   5.602   5.178  0.2076 -1.2363 -0.1694
  189SAPI  H16R21760   2.364   5.673   5.124  0.9873  0.3629  0.8945
  189SAPI  H16S21761   2.394   5.508   5.132  0.3061 -1.7602  0.8012
  189SAPI  C21721762   2.578   5.624   5.143  0.0038  0.3545  0.1648
  189SAPI  H17R21763   2.622   5.529   5.180  0.6585  1.0312  1.1417
  189SAPI  H17S21764   2.627   5.708   5.196 -2.8265  1.7626  0.7165
  189SAPI  C21821765   2.610   5.647   4.995  0.2222  0.1262 -0.8970
  189SAPI  H18R21766   2.523   5.699   4.948  0.1746  1.8517  0.9830
  189SAPI  H18S21767   2.628   5.550   4.942 -0.0413  0.3789 -1.4568
  189SAPI  C21921768   2.739   5.732   4.980  0.2786 -0.2819 -0.0116
  189SAPI  H19R21769   2.828   5.678   5.020 -0.2591  1.3091  3.7313
  189SAPI  H19S21770   2.715   5.818   5.045  1.9277  1.7897 -1.9657
  189SAPI  C22021771   2.745   5.780   4.834 -0.2831 -0.1037  0.4722
  189SAPI  H20R21772   2.666   5.856   4.816 -0.7579 -0.8807 -0.9568
  189SAPI  H20S21773   2.745   5.691   4.768 -0.9289  0.2269  0.0083
  189SAPI  H20T21774   2.842   5.827   4.807 -0.1886 -0.4933  0.1279
  189SAPI   C3321775   2.524   6.576   6.174  0.1244  0.2871 -0.3470
  189SAPI   H3X21776   2.590   6.655   6.217  0.5718 -0.3225  0.0910
  189SAPI   H3Y21777   2.462   6.631   6.100  0.1340  0.1169 -0.4831
  189SAPI   C3421778   2.603   6.464   6.101 -0.6403  0.3700  0.1035
  189SAPI   H4X21779   2.537   6.387   6.055  0.3346  0.6189 -1.8220
  189SAPI   H4Y21780   2.667   6.410   6.174 -1.2517 -0.5742 -0.0471
  189SAPI   C3521781   2.694   6.515   5.989 -0.2743 -0.7301 -0.1366
  189SAPI   H5X21782   2.760   6.427   5.973  0.1051 -0.5120  0.2237
  189SAPI   H5Y21783   2.752   6.601   6.029  0.1868 -0.4173 -1.4232
  189SAPI   C3621784   2.629   6.533   5.854 -0.8200 -1.2304 -0.0630
  189SAPI   H6X21785   2.703   6.587   5.791 -0.5175 -0.3315  1.0285
  189SAPI   H6Y21786   2.543   6.603   5.857  0.8539  0.9034  0.6552
  189SAPI   C3721787   2.585   6.402   5.779  0.3942  0.8794  0.0993
  189SAPI   H7X21788   2.488   6.374   5.824  0.3629  2.6418  1.2046
  189SAPI   H7Y21789   2.657   6.323   5.810 -0.7181 -0.2144 -0.0511
  189SAPI   C3821790   2.586   6.407   5.622  0.3618  0.8965  0.0350
  189SAPI   H8X21791   2.689   6.436   5.593  0.7218 -0.6205 -0.2929
  189SAPI   H8Y21792   2.523   6.488   5.579  0.7154  0.4481 -1.3565
  189SAPI   C3921793   2.567   6.265   5.570 -0.5486 -0.0620 -0.1723
  189SAPI   H9X21794   2.463   6.227   5.583 -0.4807 -0.2842 -0.2708
  189SAPI   H9Y21795   2.629   6.190   5.623 -0.3765 -2.0540 -2.9182
  189SAPI  C31021796   2.611   6.262   5.431 -0.5853 -0.4553 -0.1414
  189SAPI  H10X21797   2.714   6.299   5.412 -1.1987  1.2331 -0.3374
  189SAPI  H10Y21798   2.562   6.334   5.363  2.6974  0.2400 -1.9891
  189SAPI  C31121799   2.604   6.117   5.370 -0.1664 -0.1876  0.0799
  189SAPI  H11X21800   2.501   6.081   5.389 -0.4934  2.0169  3.1849
  189SAPI  H11Y21801   2.673   6.056   5.432 -0.9508 -0.7588  0.3971
  189SAPI  C31221802   2.651   6.108   5.227 -0.3867 -0.0771 -0.8966
  189SAPI  H12X21803   2.660   6.002   5.198  2.1007  0.0686 -0.9276
  189SAPI  H12Y21804   2.751   6.154   5.208  0.4276 -1.8057 -0.9671
  189SAPI  C31321805   2.550   6.166   5.130  0.1215 -0.3524 -0.1158
  189SAPI  H13X21806   2.535   6.270   5.164 -0.7757  0.2769 -2.2646
  189SAPI  H13Y21807   2.452   6.114   5.134 -1.1685  1.9746 -0.3008
  189SAPI  C31421808   2.597   6.163   4.983  0.1177  0.4578  0.0136
  189SAPI  H14X21809   2.626   6.058   4.964  0.0348  0.6784 -1.4734
  189SAPI  H14Y21810   2.690   6.223   4.974  1.2392 -1.3263 -0.9286
  189SAPI  C31521811   2.491   6.195   4.879  0.0100  0.1984  0.5901
  189SAPI  H15X21812   2.450   6.293   4.912  1.3084  1.0863 -0.3167
  189SAPI  H15Y21813   2.410   6.119   4.874  0.5269 -0.2992 -0.7558
  189SAPI  C31621814   2.552   6.198   4.737 -0.0517  0.3612 -0.2999
  189SAPI  H16X21815   2.570   6.096   4.699  1.6859  0.7971 -0.6915
  189SAPI  H16Y21816   2.649   6.252   4.738  0.6278 -0.8457 -0.0056
  189SAPI  C31721817   2.473   6.269   4.633  0.1805 -0.4655  0.6876
  189SAPI  H17X21818   2.539   6.244   4.548  1.5555 -0.3954  1.7070
  189SAPI  H17Y21819   2.464   6.380   4.640  2.3633 -0.0834 -1.3729
  189SAPI  C31821820   2.339   6.200   4.604 -0.5040 -0.2966 -0.6274
  189SAPI  H18X21821   2.277   6.183   4.694 -0.6849  0.1154 -0.6717
  189SAPI  H18Y21822   2.355   6.102   4.553  0.4488  0.6320 -2.2231
  189SAPI  H18Z21823   2.280   6.263   4.534  1.5453  2.2815 -0.1761
  190SAPI   C1221824   0.814   3.897   6.688 -0.1766 -0.0822 -0.4805
  190SAPI    H221825   0.874   3.809   6.723 -1.7905 -1.2967 -0.6555
  190SAPI    O221826   0.680   3.857   6.699 -0.2088  0.1949 -0.1870
  190SAPI   HO221827   0.660   3.814   6.615  0.8247 -0.3629 -0.1617
  190SAPI   C1321828   0.835   4.020   6.773  0.1166 -0.1122 -0.1424
  190SAPI    H321829   0.943   4.048   6.773 -0.4155  2.2303 -1.6176
  190SAPI    O321830   0.808   3.996   6.908  0.1816  0.2357 -0.7637
  190SAPI   HO321831   0.719   3.962   6.907  0.4118 -0.9483  3.0337
  190SAPI   C1421832   0.771   4.145   6.711  0.2655  0.2405 -0.8884
  190SAPI    H421833   0.666   4.140   6.745  0.1993  0.4777 -1.0570
  190SAPI    O421834   0.827   4.261   6.767  0.4381 -0.6911  0.8408
  190SAPI   HO421835   0.774   4.286   6.843 -1.7211 -1.2441 -0.3984
  190SAPI   C1521836   0.761   4.158   6.559 -0.2718  0.0494  0.4058
  190SAPI    H521837   0.852   4.214   6.530 -1.6242  1.4540 -1.2846
  190SAPI    O521838   0.647   4.235   6.508  0.3632 -0.1851 -0.8114
  190SAPI   HO521839   0.675   4.326   6.514  2.9738 -0.9537  0.3294
  190SAPI   C1621840   0.765   4.023   6.483  0.3004  0.5829 -0.0404
  190SAPI    H621841   0.660   3.988   6.496  0.0896  1.7135  1.5495
  190SAPI    O621842   0.792   4.040   6.343 -0.1074  0.1141  0.9589
  190SAPI   HO621843   0.879   4.004   6.323 -0.3307 -0.4244  0.9305
  190SAPI   C1121844   0.857   3.923   6.551  0.4059 -0.2154  0.0464
  190SAPI    H121845   0.961   3.962   6.546  0.4957 -0.0720  2.2647
  190SAPI     P21846   0.949   3.684   6.465  0.0330 -0.2525  0.4788
  190SAPI   O1321847   0.875   3.556   6.456 -0.6559  0.0763  0.5812
  190SAPI   O1421848   1.045   3.699   6.575  0.1650  0.6690  0.2670
  190SAPI   O1221849   0.832   3.801   6.485 -0.3674 -0.0582  0.2425
  190SAPI   O1121850   1.009   3.731   6.327  0.2872 -0.0308  0.0765
  190SAPI    C121851   0.932   3.763   6.210  0.2249  0.3823 -0.3381
  190SAPI    HA21852   0.826   3.782   6.238  1.0988  2.8765  1.6637
  190SAPI    HB21853   0.960   3.860   6.162  0.4096  1.0852  1.1206
  190SAPI    C221854   0.933   3.647   6.111  0.5488 -0.7307 -0.7562
  190SAPI    HS21855   0.866   3.568   6.150 -1.4801 -0.4425 -3.3197
  190SAPI   O2121856   1.065   3.614   6.091  0.4267  0.3767  0.3764
  190SAPI   C2121857   1.091   3.496   6.150 -0.7080 -0.7369  0.0766
  190SAPI   O2221858   1.010   3.431   6.211  0.5175  0.1004 -0.5039
  190SAPI   C2221859   1.239   3.463   6.128  0.3737 -0.2855 -0.0783
  190SAPI   H2R21860   1.273   3.498   6.028  1.3247  0.0996  0.3655
  190SAPI   H2S21861   1.303   3.512   6.205 -0.6650 -1.3515  1.5277
  190SAPI    C321862   0.870   3.683   5.975  0.4284 -0.7413 -0.1891
  190SAPI    HX21863   0.860   3.591   5.914 -1.5386 -0.2590 -0.6835
  190SAPI    HY21864   0.940   3.750   5.921  1.7995 -0.7245  1.5109
  190SAPI   O3121865   0.742   3.749   5.979  0.1519 -0.2428  0.3137
  190SAPI   C3121866   0.629   3.685   5.953  0.0005  0.8388  0.1682
  190SAPI   O3221867   0.617   3.567   5.929 -0.3617  0.4157 -0.6251
  190SAPI   C3221868   0.520   3.794   5.939 -0.2542  0.3801 -0.9773
  190SAPI   H2X21869   0.553   3.861   5.856  1.5702  1.4137  0.5088
  190SAPI   H2Y21870   0.521   3.854   6.032  1.0916 -0.6953 -0.2618
  190SAPI   C2321871   1.254   3.312   6.134 -0.8575  0.2955 -0.1655
  190SAPI   H3R21872   1.224   3.268   6.231  1.2127 -1.0056 -0.0580
  190SAPI   H3S21873   1.364   3.299   6.131 -1.0231 -1.3141 -0.2287
  190SAPI   C2421874   1.211   3.255   6.001 -0.4715  0.5687  0.0934
  190SAPI   H4R21875   1.281   3.177   5.962 -1.5487  1.1091 -3.1733
  190SAPI   H4S21876   1.218   3.329   5.919 -1.6375  1.1569  0.5053
  190SAPI   C2521877   1.071   3.195   6.002 -0.4399  0.1091 -0.5195
  190SAPI   H5R21878   1.053   3.122   6.082  0.3008 -0.8022 -1.1528
  190SAPI   C2621879   0.974   3.216   5.915 -0.1438 -0.0754  0.5381
  190SAPI   H6R21880   0.875   3.172   5.932 -0.6899  1.0156  0.2199
  190SAPI   C2721881   0.970   3.319   5.804  0.4174  0.2548 -0.2544
  190SAPI   H7R21882   1.067   3.372   5.797  0.3182  0.5991  0.8269
  190SAPI   H7S21883   0.904   3.403   5.833  0.6800  0.3846 -0.0285
  190SAPI   C2821884   0.920   3.279   5.668  0.3125  0.7334 -0.3195
  190SAPI   H8R21885   0.966   3.190   5.624  2.0221  1.1889  0.4857
  190SAPI   C2921886   0.826   3.339   5.597 -0.7734  0.1105  0.1625
  190SAPI   H9R21887   0.807   3.301   5.496  0.1786 -0.9526  0.3693
  190SAPI  C21021888   0.757   3.460   5.639 -0.3476  0.1554 -0.2790
  190SAPI  H10R21889   0.749   3.465   5.750  0.1081 -2.9882 -0.0231
  190SAPI  H10S21890   0.648   3.444   5.623  0.0839 -3.3443 -0.5366
  190SAPI  C21121891   0.810   3.593   5.588  0.0086 -0.6777  0.4315
  190SAPI  H11R21892   0.819   3.665   5.670 -2.6433 -0.4578  0.6155
  190SAPI  C21221893   0.848   3.636   5.469 -0.0359 -0.2396  0.4767
  190SAPI  H12R21894   0.862   3.745   5.458 -1.3759 -0.1267 -0.2439
  190SAPI  C21321895   0.861   3.551   5.341 -0.0344  0.1331 -0.1646
  190SAPI  H13R21896   0.896   3.447   5.355 -0.4400  0.3186  2.8501
  190SAPI  H13S21897   0.939   3.593   5.274  1.4708 -0.9610  0.8593
  190SAPI  C21421898   0.734   3.547   5.266 -0.2035 -0.4919 -0.0575
  190SAPI  H14R21899   0.661   3.482   5.318 -0.2620 -0.5569 -0.2188
  190SAPI  C21521900   0.707   3.609   5.154 -0.4130 -0.4337 -0.6041
  190SAPI  H15R21901   0.608   3.589   5.109 -0.3343  0.4147 -1.1844
  190SAPI  C21621902   0.805   3.700   5.085 -0.1780 -0.6572  0.3937
  190SAPI  H16R21903   0.871   3.755   5.156  1.2031  0.4796 -1.6779
  190SAPI  H16S21904   0.745   3.778   5.034 -0.6033  0.8152  2.9354
  190SAPI  C21721905   0.886   3.640   4.967 -0.1523  0.0504 -0.4588
  190SAPI  H17R21906   0.804   3.593   4.908 -0.2615 -0.7430  0.3119
  190SAPI  H17S21907   0.945   3.551   4.997 -0.8530  0.3050  1.9014
  190SAPI  C21821908   0.949   3.742   4.878  0.4664  0.1954  0.2437
  190SAPI  H18R21909   1.034   3.788   4.933  0.1870  1.0142  0.0199
  190SAPI  H18S21910   0.875   3.824   4.860 -0.8542 -0.5921  1.8497
  190SAPI  C21921911   0.989   3.682   4.740 -0.3757  0.1612 -0.6401
  190SAPI  H19R21912   0.895   3.652   4.688  0.4863 -0.2365 -2.0370
  190SAPI  H19S21913   1.042   3.586   4.758 -0.1893  0.0808 -1.5834
  190SAPI  C22021914   1.070   3.779   4.648 -0.1202 -0.3102  0.1524
  190SAPI  H20R21915   1.116   3.732   4.559  0.5329  3.0947 -1.4492
  190SAPI  H20S21916   1.154   3.827   4.702 -1.4692  0.9794  1.2054
  190SAPI  H20T21917   0.995   3.856   4.619  0.1251  0.4404  1.4264
  190SAPI   C3321918   0.386   3.734   5.900 -0.0103 -0.3210  0.1083
  190SAPI   H3X21919   0.313   3.810   5.937  0.3621 -0.3677  0.9743
  190SAPI   H3Y21920   0.354   3.642   5.954  0.6660 -0.2737  0.6040
  190SAPI   C3421921   0.371   3.702   5.755  0.4671 -0.1726  0.0891
  190SAPI   H4X21922   0.429   3.609   5.733 -1.0382 -1.3224  0.7716
  190SAPI   H4Y21923   0.403   3.781   5.684  1.8752 -1.4275 -0.7316
  190SAPI   C3521924   0.223   3.665   5.718  0.4846 -0.3843 -0.7654
  190SAPI   H5X21925   0.162   3.757   5.727 -2.0580 -2.1198  0.6732
  190SAPI   H5Y21926   0.188   3.591   5.792 -0.0726 -1.9271 -2.4942
  190SAPI   C3621927   0.212   3.614   5.575 -0.0279  0.8404  0.1560
  190SAPI   H6X21928   0.109   3.575   5.560  0.4809 -1.1234  1.4657
  190SAPI   H6Y21929   0.277   3.525   5.562  0.4428  1.3748 -1.3829
  190SAPI   C3721930   0.259   3.716   5.472 -0.3107  0.2345 -0.0358
  190SAPI   H7X21931   0.366   3.740   5.491  0.1449 -1.6996  0.0156
  190SAPI   H7Y21932   0.202   3.811   5.478  1.4559  1.4729 -1.5138
  190SAPI   C3821933   0.238   3.666   5.330 -0.3200  0.8562  0.3542
  190SAPI   H8X21934   0.132   3.633   5.316 -1.1474  2.9732  1.2962
  190SAPI   H8Y21935   0.309   3.581   5.316 -1.3680 -0.1384  0.8523
  190SAPI   C3921936   0.275   3.765   5.222  0.1226 -0.1353 -0.0171
  190SAPI   H9X21937   0.373   3.811   5.249 -0.4939 -0.0867  2.3704
  190SAPI   H9Y21938   0.196   3.840   5.206 -0.3258 -0.8911 -1.5934
  190SAPI  C31021939   0.272   3.714   5.079  0.1431  0.1785  0.1817
  190SAPI  H10X21940   0.171   3.670   5.064  0.2914 -0.2270  0.3582
  190SAPI  H10Y21941   0.346   3.636   5.051  0.2478  0.8656 -1.6430
  190SAPI  C31121942   0.308   3.836   4.985 -0.0135  0.6766  0.5325
  190SAPI  H11X21943   0.228   3.913   4.996 -0.2808  0.2989  1.2571
  190SAPI  H11Y21944   0.311   3.787   4.885  0.8068 -1.1979  1.4298
  190SAPI  C31221945   0.443   3.902   5.011 -0.2971  0.2839  0.3718
  190SAPI  H12X21946   0.521   3.824   5.014  2.2997  2.7404  2.7734
  190SAPI  H12Y21947   0.438   3.955   5.108  4.3171  1.5812  0.1495
  190SAPI  C31321948   0.487   3.991   4.894 -0.1199 -0.1660  0.5177
  190SAPI  H13X21949   0.435   4.088   4.890  2.3435  1.2122 -0.6805
  190SAPI  H13Y21950   0.464   3.936   4.800  0.6772  1.8528 -0.9237
  190SAPI  C31421951   0.639   4.018   4.876 -0.2785  0.4135 -0.0877
  190SAPI  H14X21952   0.694   3.922   4.893 -0.1588  0.6833  1.1237
  190SAPI  H14Y21953   0.654   4.083   4.964 -0.4771 -2.9483  2.6590
  190SAPI  C31521954   0.679   4.076   4.739  0.1686  0.7521 -0.1902
  190SAPI  H15X21955   0.620   4.166   4.711 -2.5270 -0.4701  1.1608
  190SAPI  H15Y21956   0.663   4.004   4.657  1.4089 -1.4981  1.4366
  190SAPI  C31621957   0.828   4.128   4.750 -0.2236  0.6482  0.5350
  190SAPI  H16X21958   0.883   4.039   4.789  0.3135  0.4941 -0.5470
  190SAPI  H16Y21959   0.834   4.205   4.830 -1.7008 -0.0844  1.3931
  190SAPI  C31721960   0.894   4.166   4.616 -0.2296  0.0320 -0.1974
  190SAPI  H17X21961   0.858   4.256   4.562  0.0009  0.5332  0.4757
  190SAPI  H17Y21962   0.881   4.078   4.549 -0.3284 -1.1100  1.2680
  190SAPI  C31821963   1.047   4.194   4.639  0.5817 -0.0902 -0.0993
  190SAPI  H18X21964   1.068   4.283   4.702 -0.0477  1.7110 -2.2759
  190SAPI  H18Y21965   1.104   4.198   4.543 -0.9562 -1.8794 -1.1473
  190SAPI  H18Z21966   1.098   4.116   4.699  1.7520  2.3920  2.3506
  191SAPI   C1221967   5.482   1.563   1.900  0.7438 -0.5014  0.4388
  191SAPI    H221968   5.489   1.666   1.940 -0.7604  1.3090 -3.3848
  191SAPI    O221969   5.372   1.572   1.811  0.1956 -0.2287 -0.3481
  191SAPI   HO221970   5.302   1.619   1.857  0.2000  1.6010 -2.0913
  191SAPI   C1321971   5.617   1.546   1.819  0.0024 -0.4912 -0.3260
  191SAPI    H321972   5.694   1.558   1.898 -0.8419  0.2267  0.4081
  191SAPI    O321973   5.629   1.659   1.730 -0.2173 -0.0037  0.1866
  191SAPI   HO321974   5.719   1.688   1.713 -0.6975  1.7142  0.3010
  191SAPI   C1421975   5.620   1.416   1.748 -0.8398  0.1063  0.4130
  191SAPI    H421976   5.538   1.428   1.673  0.2819  0.7216 -0.7573
  191SAPI    O421977   5.745   1.392   1.685 -0.4318 -0.2094 -0.2234
  191SAPI   HO421978   5.736   1.451   1.609  0.5977 -1.3540 -1.2677
  191SAPI   C1521979   5.566   1.294   1.815  0.4444 -0.2587 -0.5502
  191SAPI    H521980   5.654   1.259   1.874 -0.2758 -0.1676  0.6015
  191SAPI    O521981   5.528   1.189   1.725 -0.3842  0.0576 -0.0109
  191SAPI   HO521982   5.566   1.104   1.747 -0.8269  0.0899  0.9646
  191SAPI   C1621983   5.461   1.318   1.927 -0.0727  0.0586  0.3223
  191SAPI    H621984   5.363   1.328   1.875  0.5344 -0.7164 -1.0195
  191SAPI    O621985   5.442   1.208   2.014 -0.1719  0.3493  0.0976
  191SAPI   HO621986   5.515   1.214   2.077  0.8684  1.2622 -1.1325
  191SAPI   C1121987   5.467   1.455   2.007 -0.5216  0.0425 -0.3345
  191SAPI    H121988   5.560   1.459   2.067  0.1725  0.9970 -1.4412
  191SAPI     P21989   5.345   1.580   2.215  0.3073 -0.3761  0.2868
  191SAPI   O1321990   5.219   1.665   2.221 -0.2124  0.2325 -0.8213
  191SAPI   O1421991   5.463   1.660   2.216  0.3533 -0.0825 -0.2954
  191SAPI   O1221992   5.349   1.484   2.087  0.2084 -0.2148  0.0369
  191SAPI   O1121993   5.343   1.492   2.349 -0.2272  0.2752 -0.0354
  191SAPI    C121994   5.439   1.380   2.370 -0.1216  0.3458 -0.0232
  191SAPI    HA21995   5.383   1.288   2.398  2.9872 -1.1202  1.9510
  191SAPI    HB21996   5.493   1.353   2.277  0.1459  0.7805  0.0020
  191SAPI    C221997   5.544   1.408   2.483  0.3136  0.1171  0.1112
  191SAPI    HS21998   5.587   1.311   2.517 -0.5050  0.3763  2.0084
  191SAPI   O2121999   5.468   1.469   2.597 -0.4280  0.3948 -0.2382
  191SAPI   C2122000   5.421   1.375   2.683 -0.4866 -0.4552  0.0306
  191SAPI   O2222001   5.422   1.254   2.670  0.2099 -0.0538  0.2454
  191SAPI   C2222002   5.388   1.446   2.812  0.7209 -0.3996 -0.9393
  191SAPI   H2R22003   5.390   1.557   2.803 -1.9597  0.5723  5.1124
  191SAPI   H2S22004   5.285   1.435   2.853  1.0805 -0.8384 -0.1340
  191SAPI    C322005   5.647   1.519   2.454  0.5844  0.6589 -0.0445
  191SAPI    HX22006   5.584   1.610   2.448 -0.2156  0.2105  1.1249
  191SAPI    HY22007   5.702   1.489   2.363  0.2393 -1.7403  0.4655
  191SAPI   O3122008   5.743   1.523   2.560 -0.4161 -1.0394 -0.3782
  191SAPI   C3122009   5.813   1.636   2.546 -0.6590  0.2539 -0.3344
  191SAPI   O3222010   5.819   1.694   2.441 -0.5819  0.4357 -0.2421
  191SAPI   C3222011   5.900   1.665   2.671 -0.5774  0.1528 -0.4044
  191SAPI   H2X22012   5.994   1.607   2.659 -0.6282  0.1933 -1.0206
  191SAPI   H2Y22013   5.840   1.624   2.755 -0.4272  0.7501  0.0012
  191SAPI   C2322014   5.484   1.394   2.918  0.7684 -0.2048  0.3267
  191SAPI   H3R22015   5.482   1.478   2.990  3.0536 -0.4060  0.7119
  191SAPI   H3S22016   5.587   1.405   2.878 -0.3183  2.0791 -2.0848
  191SAPI   C2422017   5.454   1.263   2.997 -0.1954 -0.0552  0.2908
  191SAPI   H4R22018   5.422   1.177   2.934 -2.0194  1.0666 -0.3766
  191SAPI   H4S22019   5.371   1.282   3.067 -0.5332 -0.7409  0.0873
  191SAPI   C2522020   5.582   1.226   3.062 -0.2633 -0.5377  0.3671
  191SAPI   H5R22021   5.660   1.226   2.985  1.7923  1.1782  2.3264
  191SAPI   C2622022   5.612   1.216   3.189  0.1979  0.6844 -0.2307
  191SAPI   H6R22023   5.711   1.179   3.220 -0.5755 -0.2274  1.2857
  191SAPI   C2722024   5.511   1.203   3.300  0.0872 -0.3420 -0.3625
  191SAPI   H7R22025   5.522   1.114   3.365  1.2671  1.1982  1.6869
  191SAPI   H7S22026   5.408   1.199   3.258 -1.0282  3.7680  1.4265
  191SAPI   C2822027   5.503   1.336   3.380 -0.7294  0.9163  0.2409
  191SAPI   H8R22028   5.497   1.423   3.314  1.4197  0.6450 -0.4085
  191SAPI   C2922029   5.527   1.355   3.512 -1.0486 -0.4311 -0.0623
  191SAPI   H9R22030   5.543   1.454   3.557  0.1992 -0.7016  0.1160
  191SAPI  C21022031   5.562   1.251   3.609  0.5728  0.5417 -0.3093
  191SAPI  H10R22032   5.484   1.171   3.612  0.0412  1.0214 -0.9260
  191SAPI  H10S22033   5.533   1.300   3.705 -0.4147  0.2802 -0.4572
  191SAPI  C21122034   5.687   1.169   3.604  0.1157  0.4831 -0.7731
  191SAPI  H11R22035   5.694   1.113   3.509 -0.2087 -0.6101 -0.1690
  191SAPI  C21222036   5.780   1.152   3.696  0.3918  0.4292 -0.0487
  191SAPI  H12R22037   5.859   1.085   3.660 -0.3009 -0.7404  0.5495
  191SAPI  C21322038   5.791   1.222   3.828  0.3035 -0.6314  0.3122
  191SAPI  H13R22039   5.720   1.306   3.844  0.4819 -0.2747 -0.6857
  191SAPI  H13S22040   5.895   1.260   3.828  0.4438 -1.0171  0.3142
  191SAPI  C21422041   5.770   1.115   3.930 -0.4184 -0.6491 -0.5657
  191SAPI  H14R22042   5.704   1.031   3.901 -0.1997 -0.4741 -1.6006
  191SAPI  C21522043   5.807   1.126   4.059 -0.5064  0.0470  0.7126
  191SAPI  H15R22044   5.755   1.065   4.135 -0.6878  1.5072  1.8148
  191SAPI  C21622045   5.892   1.230   4.119  0.2999 -0.6537  0.0353
  191SAPI  H16R22046   5.827   1.315   4.148 -2.1088 -1.5518 -2.3309
  191SAPI  H16S22047   5.956   1.286   4.049 -0.8485  1.3913  0.5381
  191SAPI  C21722048   5.972   1.186   4.237  0.1284 -0.4328  0.2426
  191SAPI  H17R22049   6.048   1.265   4.253 -0.7666  0.4771  0.1460
  191SAPI  H17S22050   6.029   1.091   4.225 -0.2777 -0.7580  0.8015
  191SAPI  C21822051   5.892   1.178   4.371  0.1912 -0.0486 -0.0038
  191SAPI  H18R22052   5.791   1.138   4.345  1.1268 -1.5395 -1.5906
  191SAPI  H18S22053   5.871   1.282   4.402 -1.8154 -0.5888  0.6363
  191SAPI  C21922054   5.957   1.103   4.482  0.2272  0.3695 -0.3766
  191SAPI  H19R22055   6.051   1.155   4.509  1.5497 -0.0665 -3.6584
  191SAPI  H19S22056   5.987   1.001   4.449  0.1567  0.5248 -0.9268
  191SAPI  C22022057   5.872   1.095   4.609 -0.3326  0.1060  0.6304
  191SAPI  H20R22058   5.850   1.201   4.634  0.7883  1.1596 -2.3791
  191SAPI  H20S22059   5.925   1.033   4.686  1.2345 -0.4628 -0.8433
  191SAPI  H20T22060   5.771   1.051   4.602 -1.0331  1.2788  2.5188
  191SAPI   C3322061   5.919   1.808   2.712 -0.8047  0.1542  0.4287
  191SAPI   H3X22062   5.994   1.858   2.647 -1.6101  0.8314 -0.0077
  191SAPI   H3Y22063   5.955   1.813   2.818  0.6578 -0.7919  0.0051
  191SAPI   C3422064   5.779   1.889   2.711  0.5430  0.2324 -0.0788
  191SAPI   H4X22065   5.738   1.890   2.609 -0.3188 -0.2111  0.2597
  191SAPI   H4Y22066   5.821   1.992   2.722  2.2909 -0.5700  1.5434
  191SAPI   C3522067   5.661   1.847   2.793 -0.5013 -0.6168 -0.5145
  191SAPI   H5X22068   5.613   1.754   2.757 -1.2246  0.0633 -1.3386
  191SAPI   H5Y22069   5.593   1.929   2.764  1.3691  1.0148 -0.5233
  191SAPI   C3622070   5.690   1.856   2.941 -0.5300  0.5985 -0.1917
  191SAPI   H6X22071   5.742   1.952   2.964  0.7558 -0.1386  0.0996
  191SAPI   H6Y22072   5.776   1.794   2.974 -0.1350  1.3804  0.2987
  191SAPI   C3722073   5.567   1.842   3.032 -0.9566 -0.5846 -0.6368
  191SAPI   H7X22074   5.518   1.750   2.993  0.0130 -1.2094 -0.4166
  191SAPI   H7Y22075   5.503   1.931   3.012 -0.5624  0.1407  1.1349
  191SAPI   C3822076   5.597   1.848   3.181  0.1266  0.3772  0.2485
  191SAPI   H8X22077   5.632   1.948   3.212  2.1466 -0.3709  0.5523
  191SAPI   H8Y22078   5.683   1.781   3.204  0.2744 -0.3588 -2.1100
  191SAPI   C3922079   5.482   1.795   3.264  0.0505  0.5862 -0.3928
  191SAPI   H9X22080   5.452   1.693   3.233 -0.8220  0.8216 -0.3407
  191SAPI   H9Y22081   5.394   1.862   3.257  0.3293  0.9823 -0.1753
  191SAPI  C31022082   5.525   1.758   3.411  0.6007  0.3963  0.1243
  191SAPI  H10X22083   5.635   1.764   3.415  0.8384 -1.7179 -1.4392
  191SAPI  H10Y22084   5.499   1.650   3.421 -1.6483  1.1181  3.9341
  191SAPI  C31122085   5.446   1.851   3.507  0.7898 -0.0613  0.3826
  191SAPI  H11X22086   5.338   1.827   3.516  0.4010  0.8870 -1.2993
  191SAPI  H11Y22087   5.462   1.954   3.468 -1.9384 -0.4700 -2.1588
  191SAPI  C31222088   5.499   1.851   3.653  0.8049 -0.5006 -0.3612
  191SAPI  H12X22089   5.438   1.922   3.713 -0.0274  0.3048 -2.1133
  191SAPI  H12Y22090   5.599   1.899   3.658  1.2159 -1.3584 -0.0078
  191SAPI  C31322091   5.480   1.720   3.731 -0.2026  0.7122 -0.9755
  191SAPI  H13X22092   5.511   1.630   3.674 -2.8865 -0.5605 -0.5914
  191SAPI  H13Y22093   5.371   1.702   3.744 -0.1450  0.5598 -0.7022
  191SAPI  C31422094   5.545   1.720   3.871  0.6061  0.0589  0.3103
  191SAPI  H14X22095   5.538   1.821   3.915 -0.2143 -0.6688  1.9338
  191SAPI  H14Y22096   5.652   1.706   3.845 -0.3794  0.0355 -4.6952
  191SAPI  C31522097   5.500   1.618   3.974 -0.0223  0.2004 -0.8788
  191SAPI  H15X22098   5.509   1.514   3.936  1.3760  0.2627 -0.7902
  191SAPI  H15Y22099   5.392   1.638   3.988 -0.0751 -2.0074  3.2419
  191SAPI  C31622100   5.567   1.629   4.110 -0.6988 -0.0388  0.1777
  191SAPI  H16X22101   5.514   1.558   4.177 -2.7869  2.0008  0.7953
  191SAPI  H16Y22102   5.555   1.731   4.153  2.0491  0.1292  0.7470
  191SAPI  C31722103   5.720   1.597   4.102  1.4344  0.3020 -0.2892
  191SAPI  H17X22104   5.761   1.680   4.040  0.1413  1.3123  0.1609
  191SAPI  H17Y22105   5.737   1.498   4.056 -0.4302  0.4558 -1.3981
  191SAPI  C31822106   5.779   1.589   4.238 -0.1788 -0.1044 -0.5630
  191SAPI  H18X22107   5.802   1.685   4.290 -0.0066 -0.7213  0.5224
  191SAPI  H18Y22108   5.870   1.528   4.222 -1.0126 -1.2123 -1.1522
  191SAPI  H18Z22109   5.707   1.533   4.301  0.4074 -0.6216 -0.3434
  192SAPI   C1222110   1.402   0.576   2.367 -0.0608  0.3097  0.3871
  192SAPI    H222111   1.349   0.510   2.440  0.4127  1.4393  1.8018
  192SAPI    O222112   1.313   0.606   2.258 -0.2721 -0.0960  0.3513
  192SAPI   HO222113   1.304   0.527   2.204 -1.7865  0.0103  0.4020
  192SAPI   C1322114   1.459   0.696   2.432  0.1977 -0.5725 -0.4604
  192SAPI    H322115   1.537   0.670   2.507  0.9127  0.3352 -0.8745
  192SAPI    O322116   1.360   0.758   2.510 -0.5516  0.3138  0.7422
  192SAPI   HO322117   1.282   0.755   2.454  1.0939 -1.7450 -1.6163
  192SAPI   C1422118   1.531   0.789   2.329  0.1708  0.2633 -0.0667
  192SAPI    H422119   1.454   0.807   2.251 -0.5876 -0.3183  0.5285
  192SAPI    O422120   1.566   0.911   2.388 -0.0770 -0.0603  0.5001
  192SAPI   HO422121   1.493   0.928   2.447  1.5993  3.4640  1.8433
  192SAPI   C1522122   1.645   0.717   2.261  0.0095 -0.4931 -0.3649
  192SAPI    H522123   1.722   0.724   2.341 -0.9228  0.8736  0.4488
  192SAPI    O522124   1.700   0.780   2.144 -0.0568  0.4008 -0.1407
  192SAPI   HO522125   1.794   0.782   2.161 -0.2544  0.4084  1.0359
  192SAPI   C1622126   1.619   0.568   2.235 -1.0735  0.4381 -0.4761
  192SAPI    H622127   1.587   0.565   2.128 -0.7830 -0.0349 -0.5521
  192SAPI    O622128   1.735   0.486   2.230  0.0055 -0.0915  0.1668
  192SAPI   HO622129   1.708   0.395   2.221  0.3047  0.0208 -2.3493
  192SAPI   C1122130   1.518   0.488   2.320 -0.1653 -0.2252  0.4300
  192SAPI    H122131   1.583   0.462   2.406  1.0468  0.3285 -0.2819
  192SAPI     P22132   1.527   0.222   2.263  0.4201 -0.3037 -0.2499
  192SAPI   O1322133   1.666   0.220   2.222 -0.9465 -0.3963  0.0398
  192SAPI   O1422134   1.435   0.118   2.211  0.0736 -1.1048  0.0763
  192SAPI   O1222135   1.468   0.371   2.252  0.6689  0.1192 -0.4468
  192SAPI   O1122136   1.526   0.205   2.419  0.0255 -0.0740 -0.5997
  192SAPI    C122137   1.597   0.099   2.485  0.5344 -0.4819  0.4853
  192SAPI    HA22138   1.516   0.027   2.512 -1.4337  1.2910 -0.4709
  192SAPI    HB22139   1.683   0.052   2.433  0.7548 -0.4657  0.8292
  192SAPI    C222140   1.664   0.165   2.614  0.4600 -0.1410 -0.1531
  192SAPI    HS22141   1.703   0.084   2.680 -0.3277  0.2149  0.7887
  192SAPI   O2122142   1.582   0.252   2.690  0.3081  0.3991  0.3215
  192SAPI   C2122143   1.472   0.196   2.743 -0.1502 -0.3618 -0.1195
  192SAPI   O2222144   1.445   0.079   2.749 -0.4600  0.4793 -0.2171
  192SAPI   C2222145   1.376   0.307   2.799  0.5947 -0.8178  0.3854
  192SAPI   H2R22146   1.276   0.262   2.819  0.6288 -0.8383  0.5112
  192SAPI   H2S22147   1.419   0.337   2.897  0.4320 -0.4011  0.3307
  192SAPI    C322148   1.789   0.250   2.576  0.6345 -0.1815  0.0168
  192SAPI    HX22149   1.741   0.347   2.549 -2.3981 -1.7474 -0.6822
  192SAPI    HY22150   1.844   0.192   2.498  3.8577  3.1020 -0.4543
  192SAPI   O3122151   1.876   0.264   2.689  0.1160  0.0859 -0.4583
  192SAPI   C3122152   1.929   0.377   2.717  0.4167 -0.7358  0.6388
  192SAPI   O3222153   1.914   0.477   2.651  0.7058 -0.1229  0.4440
  192SAPI   C3222154   2.019   0.362   2.842 -0.0244 -0.1463  0.1290
  192SAPI   H2X22155   2.122   0.333   2.812  0.3702  1.2933  0.0361
  192SAPI   H2Y22156   1.979   0.277   2.901  1.0346 -0.5720  0.2625
  192SAPI   C2322157   1.364   0.438   2.721 -0.1841  0.1460  0.1048
  192SAPI   H3R22158   1.310   0.428   2.624 -1.8913  1.1058  0.9131
  192SAPI   H3S22159   1.464   0.478   2.692 -1.5521  2.7773 -1.3527
  192SAPI   C2422160   1.297   0.554   2.800  0.0493  0.4444 -0.7957
  192SAPI   H4R22161   1.333   0.650   2.758  5.0187 -0.9539 -0.3087
  192SAPI   H4S22162   1.322   0.553   2.908 -2.4965 -0.6628 -0.1328
  192SAPI   C2522163   1.149   0.536   2.782 -0.2250  0.0737  0.1790
  192SAPI   H5R22164   1.114   0.531   2.678  0.1084 -1.0459  0.1087
  192SAPI   C2622165   1.053   0.559   2.871  0.2262 -0.1401 -0.2772
  192SAPI   H6R22166   0.950   0.541   2.838  0.2680  0.6903 -0.9183
  192SAPI   C2722167   1.068   0.589   3.020  0.0869  0.1686 -0.2476
  192SAPI   H7R22168   1.047   0.696   3.040  1.1098  0.1352  1.1706
  192SAPI   H7S22169   1.174   0.580   3.052  0.2086  0.8251 -0.4463
  192SAPI   C2822170   0.980   0.499   3.106 -0.4218 -0.3643  0.1040
  192SAPI   H8R22171   0.886   0.548   3.138 -0.1979  0.8747 -1.0110
  192SAPI   C2922172   1.014   0.377   3.146  0.4261 -0.8188 -0.0060
  192SAPI   H9R22173   0.944   0.323   3.212  0.5579 -0.1859  0.6540
  192SAPI  C21022174   1.143   0.310   3.119  0.3622  0.4848 -0.5030
  192SAPI  H10R22175   1.204   0.344   3.205 -2.3286 -1.0627  2.2395
  192SAPI  H10S22176   1.191   0.330   3.021 -0.6266  3.6648 -0.4291
  192SAPI  C21122177   1.126   0.156   3.135  0.4837 -0.5569 -0.0131
  192SAPI  H11R22178   1.024   0.122   3.111 -0.2041  0.3059  1.5712
  192SAPI  C21222179   1.224   0.077   3.178  0.4738 -0.5991  0.6452
  192SAPI  H12R22180   1.201  -0.031   3.180 -1.1858 -0.3160 -0.6586
  192SAPI  C21322181   1.361   0.121   3.224  0.7108 -0.1493  0.1091
  192SAPI  H13R22182   1.388   0.052   3.306  1.0349 -0.0668  0.0741
  192SAPI  H13S22183   1.350   0.226   3.258 -1.0715  0.1982 -1.3416
  192SAPI  C21422184   1.461   0.122   3.114  0.1366  0.2251  0.4419
  192SAPI  H14R22185   1.409   0.105   3.018 -1.7305  1.7068  1.1360
  192SAPI  C21522186   1.589   0.156   3.113 -0.0170 -0.1041 -0.8099
  192SAPI  H15R22187   1.648   0.139   3.021  0.5763  3.3218 -1.2156
  192SAPI  C21622188   1.667   0.204   3.232 -0.1865 -0.6266 -0.6382
  192SAPI  H16R22189   1.603   0.232   3.319  0.3331 -0.7503 -0.2092
  192SAPI  H16S22190   1.717   0.297   3.201  0.5780 -0.0776  1.9668
  192SAPI  C21722191   1.782   0.115   3.292  0.1807  0.7759  0.0246
  192SAPI  H17R22192   1.849   0.088   3.208  1.5111 -0.5619  1.4422
  192SAPI  H17S22193   1.746   0.013   3.318  2.1177 -1.0400 -3.6311
  192SAPI  C21822194   1.875   0.181   3.393 -0.0290  0.2927 -0.0767
  192SAPI  H18R22195   1.931   0.107   3.454 -0.3733  0.7863  0.8604
  192SAPI  H18S22196   1.823   0.242   3.469  0.6409 -0.3778  0.9443
  192SAPI  C21922197   1.991   0.257   3.321  0.1486 -0.0999  0.3242
  192SAPI  H19R22198   1.948   0.318   3.238  0.4139 -0.7570 -0.3082
  192SAPI  H19S22199   2.048   0.185   3.258 -2.3347 -2.4887  0.6107
  192SAPI  C22022200   2.068   0.358   3.401  0.4382 -0.0520  0.5769
  192SAPI  H20R22201   2.143   0.410   3.338  0.8019  2.4204  2.8922
  192SAPI  H20S22202   2.106   0.303   3.490  0.4594  0.0896  0.6550
  192SAPI  H20T22203   1.996   0.431   3.444 -0.3238 -0.4557  0.0319
  192SAPI   C3322204   2.032   0.472   2.953  0.5652  0.2405 -0.1925
  192SAPI   H3X22205   2.046   0.439   3.058  0.4813 -0.8001 -0.5015
  192SAPI   H3Y22206   1.935   0.527   2.948  1.8610  2.6020 -1.2031
  192SAPI   C3422207   2.131   0.583   2.924 -0.2978  0.7528  0.3310
  192SAPI   H4X22208   2.125   0.667   2.996 -0.2877  1.4671 -0.4772
  192SAPI   H4Y22209   2.110   0.629   2.825  0.8412  0.2050 -0.1839
  192SAPI   C3522210   2.284   0.538   2.912  0.9240 -1.0786  0.0362
  192SAPI   H5X22211   2.342   0.629   2.882  1.4127 -1.3494  0.1451
  192SAPI   H5Y22212   2.302   0.467   2.829  0.3577 -1.4167  0.1958
  192SAPI   C3622213   2.340   0.487   3.043  0.8970 -0.1023 -0.0919
  192SAPI   H6X22214   2.275   0.406   3.082  1.3665 -0.5074 -0.1548
  192SAPI   H6Y22215   2.330   0.575   3.110 -2.5981 -1.2723  1.1343
  192SAPI   C3722216   2.489   0.461   3.035  0.1911 -0.4283 -0.4278
  192SAPI   H7X22217   2.545   0.556   3.026 -0.8519  0.2454  0.0348
  192SAPI   H7Y22218   2.518   0.389   2.956 -1.0005  0.4654 -1.7413
  192SAPI   C3822219   2.532   0.382   3.164 -0.4635  0.8069 -0.4881
  192SAPI   H8X22220   2.642   0.372   3.161 -0.4357 -0.6073  2.2626
  192SAPI   H8Y22221   2.489   0.280   3.156 -0.6776  0.7589  1.0540
  192SAPI   C3922222   2.494   0.449   3.296 -0.4555  0.9689  0.1181
  192SAPI   H9X22223   2.385   0.466   3.301 -0.3242  1.5283  1.5384
  192SAPI   H9Y22224   2.528   0.554   3.303 -2.4627  1.5775  1.7364
  192SAPI  C31022225   2.534   0.385   3.432  0.4086 -0.1235  0.0437
  192SAPI  H10X22226   2.635   0.341   3.418 -0.5043 -2.0737 -0.8048
  192SAPI  H10Y22227   2.457   0.310   3.458 -1.0603  1.7839  1.5040
  192SAPI  C31122228   2.539   0.495   3.534 -0.0545  0.4583 -0.2322
  192SAPI  H11X22229   2.446   0.553   3.516  0.5589  1.2148 -1.0138
  192SAPI  H11Y22230   2.627   0.556   3.504  0.8146 -0.9431 -0.6258
  192SAPI  C31222231   2.542   0.446   3.678 -0.4402  0.2880 -0.4616
  192SAPI  H12X22232   2.552   0.526   3.754 -0.5984 -0.2865  0.1790
  192SAPI  H12Y22233   2.635   0.384   3.678 -0.3024  0.4366 -2.1904
  192SAPI  C31322234   2.423   0.357   3.733 -0.0591  0.3444 -0.0961
  192SAPI  H13X22235   2.452   0.349   3.839 -1.3719  1.1296  0.3422
  192SAPI  H13Y22236   2.419   0.256   3.685  1.4779  0.4227 -0.4415
  192SAPI  C31422237   2.292   0.417   3.715 -0.7248  0.3610  0.1944
  192SAPI  H14X22238   2.261   0.425   3.608 -0.2827  0.5689  0.0792
  192SAPI  H14Y22239   2.293   0.516   3.766  0.8522  0.3309  0.2855
  192SAPI  C31522240   2.194   0.320   3.777 -0.1823 -0.4702  0.1643
  192SAPI  H15X22241   2.219   0.296   3.882  4.6722 -0.1654 -0.6661
  192SAPI  H15Y22242   2.204   0.224   3.722 -1.4036 -1.2390  1.2277
  192SAPI  C31622243   2.054   0.384   3.788 -0.2134  0.1931 -0.2142
  192SAPI  H16X22244   2.035   0.452   3.702 -1.4353  2.0787  1.4664
  192SAPI  H16Y22245   2.060   0.444   3.881  0.9400  0.0044 -0.1536
  192SAPI  C31722246   1.932   0.287   3.786 -0.3493 -0.2910  0.9945
  192SAPI  H17X22247   1.941   0.250   3.682  1.3130  4.4519 -0.8329
  192SAPI  H17Y22248   1.838   0.346   3.794 -0.4966 -0.3030 -0.4846
  192SAPI  C31822249   1.938   0.165   3.880  0.1993  0.1293 -0.2955
  192SAPI  H18X22250   1.855   0.162   3.954  0.0100  0.1368 -0.5074
  192SAPI  H18Y22251   2.034   0.163   3.936 -1.2207 -2.8449  2.3812
  192SAPI  H18Z22252   1.933   0.068   3.825 -1.0974  0.5809 -1.0366
  193SOD    SOD22253   3.677   6.764   6.951 -0.2679 -0.0024  0.0606
  194SOD    SOD22254   5.638   4.372   8.436 -0.1900 -0.2198  0.2510
  195SOD    SOD22255   6.533   0.045   1.641  0.4246  0.3937  0.0923
  196SOD    SOD22256   6.765   4.694   6.737 -0.4720 -0.1483  0.5597
  197SOD    SOD22257   4.239   2.474   2.241  0.1344 -0.1583  0.3557
  198SOD    SOD22258   4.796   6.578   6.872 -0.1305  0.1469  0.2812
  199SOD    SOD22259   2.996   5.971   0.249 -0.0539  0.0460 -0.0882
  200SOD    SOD22260   5.624   3.070   0.633  0.3281  0.0887 -0.2242
  201SOD    SOD22261   5.681   3.538   6.760  0.2447  0.1205 -0.0010
  202SOD    SOD22262   3.556   5.301   1.919  0.0506  0.0591  0.5017
  203SOD    SOD22263   3.727   3.298   1.508 -0.2132  0.9721 -0.0526
  204SOD    SOD22264   5.696   6.816   8.469  0.2662  0.6053  0.3184
  205SOD    SOD22265   4.794   6.123   1.704  0.0962  0.2663  0.4283
  206SOD    SOD22266   3.787   2.816   8.006 -0.3959  0.3479  0.0139
  207SOD    SOD22267   0.291   0.771   1.229  0.3949 -0.0823 -0.0787
  208SOD    SOD22268   5.704   6.283   7.413 -0.0842  0.2246 -0.1878
  209SOD    SOD22269   0.375   3.945   8.389 -0.1162 -0.0014 -0.0274
  210SOD    SOD22270   4.924   0.077   0.927  0.1032  0.1036  0.1404
  211SOD    SOD22271   2.445   4.552   2.084 -0.5379 -0.1129 -0.0556
  212SOD    SOD22272   0.858   2.727   1.434 -0.1883 -0.5242  0.3505
  213SOD    SOD22273   6.042   4.122   6.897 -0.0682 -0.0985 -0.4745
  214SOD    SOD22274   0.652   6.392   0.832  0.1347 -0.2141  0.1240
  215SOD    SOD22275   4.331   6.017   7.008  0.3660  0.0746 -0.0051
  216SOD    SOD22276   3.974   5.119   0.192 -0.8481 -0.1234  0.0274
  217SOD    SOD22277   5.995   0.872   7.531 -0.2744 -0.1319  0.2390
  218SOD    SOD22278   5.039   0.255   0.524 -0.0669  0.4978 -0.2606
  219SOD    SOD22279   1.094   4.821   8.473 -0.0362  0.1455 -0.3205
  220SOD    SOD22280   5.248   0.906   1.723  0.1196  0.0064  0.1782
  221SOD    SOD22281   0.109   5.107   1.457 -0.2625 -0.0845 -0.2728
  222SOD    SOD22282   2.614   1.249   2.331 -0.4889 -0.0180  0.5178
  223SOD    SOD22283   3.473   4.555   6.267 -0.3778  0.0354  0.2154
  224SOD    SOD22284   3.995   1.715   7.453  0.4550  0.3490  0.2733
  225SOD    SOD22285   0.261   1.004   6.448  0.4763 -0.0419  0.2784
  226SOD    SOD22286   4.725   0.880   8.246 -0.0990  0.1733 -0.3477
  227SOD    SOD22287   0.928   3.322   6.413  0.1344 -0.1876 -0.0383
  228SOD    SOD22288   6.628   0.419   7.089 -0.4730 -0.2985 -0.5120
  229SOD    SOD22289   0.865   0.212   6.642  0.0916  0.2273 -0.1980
  230SOD    SOD22290   3.758   2.557   0.179 -0.0103 -0.3426  0.3263
  231SOD    SOD22291   6.683   4.045   2.014  0.1380 -0.1986 -0.0249
  232SOD    SOD22292   0.829   1.509   8.260 -0.4590 -0.1012  0.5738
  233SOD    SOD22293   1.355   0.740   1.293 -0.0911 -0.2744 -0.2512
  234CLA    CLA22294   5.050   0.249   0.789  0.1352 -0.0962  0.0890
  235CLA    CLA22295   5.285   6.818   1.215 -0.0332 -0.1174 -0.0786
  236CLA    CLA22296   0.553   4.473   7.528 -0.2250  0.5020  0.2752
  237CLA    CLA22297   5.210   0.811   1.159 -0.5246 -0.1752  0.0457
  238CLA    CLA22298   3.891   1.320   7.999 -0.3390 -0.2363  0.2411
  239CLA    CLA22299   3.051   2.142   7.973  0.0274 -0.2505  0.2468
  240CLA    CLA22300   3.548   3.241   8.187 -0.2771 -0.3910 -0.3215
  241CLA    CLA22301   5.521   5.605   8.349  0.0096 -0.2882  0.1509
  242CLA    CLA22302   3.751   4.208   7.364 -0.3969 -0.1958 -0.3741
  243CLA    CLA22303   6.709   6.695   1.348 -0.0355 -0.0402 -0.1134
  244CLA    CLA22304   4.421   0.655   0.427  0.0548 -0.3209  0.3894
  245CLA    CLA22305   5.343   4.559   7.864  0.3216  0.0348 -0.1160
  246CLA    CLA22306   6.283   3.095   7.122  0.1218  0.1363  0.3441
  247CLA    CLA22307   3.614   6.883   0.707  0.1680 -0.0587  0.2092
  248CLA    CLA22308   3.613   1.312   7.057 -0.1153 -0.2395 -0.1373
  249CLA    CLA22309   1.154   1.473   7.845 -0.1752 -0.0748 -0.2946
  250CLA    CLA22310   2.890   1.215   1.588  0.4821  0.0126  0.3274
  251TIP3   OH222311   6.044   4.313   7.014 -0.2572 -0.1032  0.7201
  251TIP3    H122312   6.045   4.334   7.107  3.3037  0.8600  0.6310
  251TIP3    H222313   6.044   4.398   6.970  1.7710 -0.4079  0.0127
  252TIP3   OH222314   0.951   4.036   2.459 -0.2222 -0.0226 -0.5488
  252TIP3    H122315   0.868   4.024   2.504  0.1278 -0.2621  0.0508
  252TIP3    H222316   1.011   3.974   2.501  0.5887  1.0239 -0.1031
  253TIP3   OH222317   5.853   3.143   0.267  0.0247  0.3109  0.1941
  253TIP3    H122318   5.909   3.219   0.286  0.5707  0.1421 -0.6925
  253TIP3    H222319   5.897   3.070   0.310  2.4728 -0.5049 -3.1977
  254TIP3   OH222320   5.403   0.314   0.317 -0.3512  0.1097 -0.1284
  254TIP3    H122321   5.411   0.243   0.254 -2.2621  1.1974 -1.7133
  254TIP3    H222322   5.375   0.272   0.398  1.5004 -1.2336 -0.1298
  255TIP3   OH222323   3.856   4.436   2.182  0.4038  0.3219  0.0886
  255TIP3    H122324   3.917   4.503   2.213  1.3911 -0.6038  0.2233
  255TIP3    H222325   3.835   4.461   2.093  0.5176  0.9737  0.2407
  256TIP3   OH222326   3.317   6.895   1.797 -0.0233  0.4113 -0.1991
  256TIP3    H122327   3.302   6.824   1.859  0.4356  0.4493 -0.0440
  256TIP3    H222328   3.233   6.905   1.751 -0.0540 -0.3015 -0.2990
  257TIP3   OH222329   5.956   3.845   1.929 -0.2815  0.5376  0.1129
  257TIP3    H122330   5.887   3.841   1.995 -1.0707 -0.5101 -0.7463
  257TIP3    H222331   5.913   3.824   1.847  1.1593 -0.8610 -0.3512
  258TIP3   OH222332   6.753   5.731   1.070 -0.1993  0.1189  0.3654
  258TIP3    H122333   6.772   5.735   0.977  1.3169 -1.5222  0.5519
  258TIP3    H222334   6.735   5.821   1.095  2.6514  1.1443 -0.8639
  259TIP3   OH222335   0.354   4.940   0.882  0.3335  0.2307  0.2751
  259TIP3    H122336   0.260   4.924   0.892  0.1064  1.2756 -0.0967
  259TIP3    H222337   0.392   4.911   0.965 -0.5833  1.7171  1.2536
  260TIP3   OH222338   1.579   5.975   0.384 -0.2225  0.0280  0.1674
  260TIP3    H122339   1.599   5.952   0.293 -0.6128  1.3397 -0.2713
  260TIP3    H222340   1.632   5.915   0.436 -0.5424 -1.2411 -0.9071
  261TIP3   OH222341   6.691   4.312   7.319  0.3195 -0.4695  0.3649
  261TIP3    H122342   6.641   4.373   7.264 -0.5914 -0.8913  0.7047
  261TIP3    H222343   6.625   4.271   7.375  1.0758 -0.9430  0.9204
  262TIP3   OH222344   5.035   3.529   6.605  0.4863 -0.1209  0.7653
  262TIP3    H122345   5.019   3.557   6.514  2.6419 -0.0369  0.3674
  262TIP3    H222346   4.986   3.591   6.658 -1.3464 -0.5489 -0.3221
  263TIP3   OH222347   6.241   4.313   8.064  0.2876  0.1401 -0.0078
  263TIP3    H122348   6.148   4.321   8.045  0.5222  0.6153 -1.0172
  263TIP3    H222349   6.257   4.376   8.134  0.0795  0.9394 -0.6696
  264TIP3   OH222350   1.101   0.772   2.404 -0.5047 -0.8402 -0.2061
  264TIP3    H122351   1.040   0.844   2.388 -1.0002 -0.7882  1.6131
  264TIP3    H222352   1.057   0.695   2.369 -0.0149 -0.3154 -2.0772
  265TIP3   OH222353   0.906   2.709   7.952 -0.5404 -0.1157 -0.1168
  265TIP3    H122354   0.853   2.733   7.877 -0.4017 -0.4702 -0.3318
  265TIP3    H222355   0.971   2.779   7.960 -0.4453 -0.1651 -0.4377
  266TIP3   OH222356   6.186   0.534   7.455 -0.3186  0.2617 -0.0912
  266TIP3    H122357   6.269   0.563   7.495  0.5393 -1.5199 -0.4693
  266TIP3    H222358   6.198   0.440   7.440 -2.6925 -0.1914  0.4625
  267TIP3   OH222359   4.610   4.559   7.648 -0.2308 -0.0461 -0.4831
  267TIP3    H122360   4.561   4.593   7.574  1.2963 -0.1917 -1.6089
  267TIP3    H222361   4.670   4.495   7.610  1.5840  0.8817  0.6557
  268TIP3   OH222362   4.830   2.639   7.915 -0.2672  0.4549  0.6957
  268TIP3    H122363   4.769   2.712   7.898 -1.4318 -0.2758  1.5264
  268TIP3    H222364   4.804   2.607   8.002  1.1709 -0.0469  0.9603
  269TIP3   OH222365   4.344   3.920   8.372 -0.3717 -0.5515  0.2846
  269TIP3    H122366   4.400   3.949   8.299 -0.3223  0.5722  0.7418
  269TIP3    H222367   4.329   3.827   8.355 -0.5266 -0.2808 -1.2762
  270TIP3   OH222368   4.491   3.134   7.918  0.0639  0.3022  0.5685
  270TIP3    H122369   4.469   3.198   7.850  0.5997 -0.4761 -0.3842
  270TIP3    H222370   4.410   3.122   7.967 -1.2168 -1.1434 -1.6806
  271TIP3   OH222371   6.823   2.105   1.598 -0.3216  0.8852  0.4442
  271TIP3    H122372   6.751   2.166   1.579 -1.7442 -0.0510  2.4239
  271TIP3    H222373   6.782   2.037   1.651  1.7486 -0.5179  0.3338
  272TIP3   OH222374   3.727   6.517   8.493  0.2306 -0.2565  0.0553
  272TIP3    H122375   3.702   6.430   8.462  1.3137 -0.6970  0.3689
  272TIP3    H222376   3.719   6.511   8.588 -1.3515  0.5367 -0.0001
  273TIP3   OH222377   0.703   1.509   0.567 -0.2353 -0.4279  0.2499
  273TIP3    H122378   0.768   1.496   0.636 -0.6107 -1.3388  0.4379
  273TIP3    H222379   0.725   1.444   0.500  0.8508  1.2157 -1.0583
  274TIP3   OH222380   6.810   1.243   6.796 -0.4220  0.2345  0.2892
  274TIP3    H122381   6.769   1.274   6.716  2.2667 -0.9740 -1.7075
  274TIP3    H222382   6.748   1.180   6.833 -0.5337 -1.4312 -2.5124
  275TIP3   OH222383   3.624   5.882   1.400  0.5172  0.0400 -0.1365
  275TIP3    H122384   3.667   5.848   1.479  1.7173  0.1743 -0.7155
  275TIP3    H222385   3.677   5.850   1.328 -0.6448 -0.1797 -0.9185
  276TIP3   OH222386   1.413   1.336   1.403 -0.1003 -0.3563  0.6274
  276TIP3    H122387   1.408   1.283   1.483 -0.5346 -1.0605  0.1439
  276TIP3    H222388   1.412   1.272   1.332 -0.4731  0.2998  0.0302
  277TIP3   OH222389   2.451   0.971   7.201 -0.5906 -0.1871  0.4454
  277TIP3    H122390   2.385   1.040   7.197 -1.0469 -0.6687 -1.8246
  277TIP3    H222391   2.401   0.890   7.211 -0.4795 -0.6128 -1.8524
  278TIP3   OH222392   1.863   2.515   1.591  0.3340 -0.5233 -0.6526
  278TIP3    H122393   1.814   2.474   1.520  0.9363 -2.0694 -0.2238
  278TIP3    H222394   1.870   2.447   1.658 -1.1605  1.2131  1.4011
  279TIP3   OH222395   6.432   4.636   0.597 -0.2412 -0.3791  0.0488
  279TIP3    H122396   6.454   4.576   0.668  0.4977 -0.2853 -0.0962
  279TIP3    H222397   6.354   4.598   0.557 -0.9842 -0.1515  1.2322
  280TIP3   OH222398   1.803   0.200   7.208  0.5190 -0.3388 -0.7088
  280TIP3    H122399   1.730   0.185   7.268  0.0730  1.4951 -0.7415
  280TIP3    H222400   1.770   0.171   7.123  0.6454 -1.6055 -0.3436
  281TIP3   OH222401   2.224   1.480   2.121 -0.0475  0.1674  0.3610
  281TIP3    H122402   2.163   1.527   2.064  0.1514 -1.2578 -1.1069
  281TIP3    H222403   2.197   1.388   2.114  3.2902 -0.8147 -1.8347
  282TIP3   OH222404   6.869   2.384   7.383  0.2880  0.0263  0.3823
  282TIP3    H122405   6.907   2.384   7.471 -2.1864 -1.8514  1.5728
  282TIP3    H222406   6.867   2.476   7.357  1.7235  0.5472  1.9691
  283TIP3   OH222407   2.531   4.299   1.722 -0.1708 -0.0462 -0.6641
  283TIP3    H122408   2.623   4.326   1.728 -1.0559  3.1555  2.5804
  283TIP3    H222409   2.495   4.354   1.652 -0.5309  2.8082  1.5457
  284TIP3   OH222410   2.825   2.019   1.443  0.1221  0.2438  0.2747
  284TIP3    H122411   2.817   2.049   1.534 -0.7595 -2.9439  1.3752
  284TIP3    H222412   2.759   2.069   1.396 -0.6463  0.7272  1.7794
  285TIP3   OH222413   4.379   5.726   6.744  0.6383  0.0050 -0.2772
  285TIP3    H122414   4.378   5.798   6.807  2.2125  0.9312 -1.2226
  285TIP3    H222415   4.415   5.652   6.791 -0.0216  0.1317  0.4333
  286TIP3   OH222416   0.882   2.523   7.651  0.0084 -0.2677 -0.3513
  286TIP3    H122417   0.965   2.518   7.604  0.1800  1.2930 -0.2578
  286TIP3    H222418   0.892   2.462   7.724  0.6521 -0.8955 -0.9407
  287TIP3   OH222419   1.040   5.246   6.291  0.1348 -0.0428  0.0331
  287TIP3    H122420   0.958   5.223   6.249 -0.0433  0.8244 -0.1270
  287TIP3    H222421   1.031   5.340   6.310  0.2305 -0.3807  1.9425
  288TIP3   OH222422   6.514   5.574   7.950  0.2442  0.2343  0.1695
  288TIP3    H122423   6.575   5.621   7.892  0.4951 -0.5954 -0.2580
  288TIP3    H222424   6.505   5.631   8.026  1.4377  0.4616  0.1683
  289TIP3   OH222425   1.197   5.448   6.933 -0.0082  0.3157  0.0097
  289TIP3    H122426   1.223   5.395   7.009  0.4003  0.6567  0.1108
  289TIP3    H222427   1.131   5.395   6.889  0.5608 -0.3864 -0.0221
  290TIP3   OH222428   2.302   6.381   2.204 -0.1405 -0.0144 -0.2225
  290TIP3    H122429   2.231   6.325   2.233 -0.2623 -0.3377 -1.1290
  290TIP3    H222430   2.364   6.381   2.277 -0.0866 -1.4102 -0.2558
  291TIP3   OH222431   2.471   4.617   7.948  0.3046  0.6162 -0.4194
  291TIP3    H122432   2.430   4.547   7.896  0.9588 -0.5009  0.5244
  291TIP3    H222433   2.547   4.575   7.988  0.3210  1.7027  0.7258
  292TIP3   OH222434   4.641   1.985   2.022 -0.0517 -0.2666  0.3085
  292TIP3    H122435   4.696   1.915   2.056 -1.4278 -0.9981  1.1037
  292TIP3    H222436   4.570   1.940   1.977 -1.2094  0.5973  1.2229
  293TIP3   OH222437   4.996   4.727   7.525 -0.3593 -0.2717 -0.1216
  293TIP3    H122438   4.940   4.658   7.490 -1.2670  0.3702  0.0327
  293TIP3    H222439   4.968   4.736   7.617  0.0071  0.0403 -0.0404
  294TIP3   OH222440   2.116   6.779   7.520  0.0670  0.2084  0.7810
  294TIP3    H122441   2.092   6.734   7.602 -1.3708  1.0183  0.8295
  294TIP3    H222442   2.132   6.869   7.546 -1.6351  0.7693  0.0214
  295TIP3   OH222443   5.628   6.642   6.293  0.2562 -0.0408 -0.4976
  295TIP3    H122444   5.687   6.602   6.229  0.7528 -2.2601  1.2178
  295TIP3    H222445   5.675   6.720   6.322 -0.0169  1.0826 -2.7957
  296TIP3   OH222446   3.051   1.089   7.793 -0.2066 -0.9967 -0.5887
  296TIP3    H122447   2.997   1.165   7.774 -1.6430 -1.4598  1.3383
  296TIP3    H222448   2.995   1.014   7.772  0.0494 -1.4901  0.4211
  297TIP3   OH222449   5.737   0.770   2.107  0.1232  0.2492  0.6056
  297TIP3    H122450   5.765   0.856   2.137 -2.1261  1.8518 -1.5171
  297TIP3    H222451   5.659   0.750   2.160 -0.6428  0.5642 -0.3816
  298TIP3   OH222452   1.858   0.137   1.216 -0.3229  0.3683 -0.0253
  298TIP3    H122453   1.853   0.055   1.167 -0.7490 -0.7246  1.7543
  298TIP3    H222454   1.784   0.188   1.184 -2.3060 -1.4496  1.3373
  299TIP3   OH222455   1.809   5.308   8.308 -0.0599 -0.7886  0.4691
  299TIP3    H122456   1.737   5.316   8.244 -0.2549  1.4424  0.8959
  299TIP3    H222457   1.771   5.337   8.391  0.3599 -3.0953  1.5304
  300TIP3   OH222458   3.435   2.599   1.524 -0.5012 -0.4210 -0.4654
  300TIP3    H122459   3.460   2.670   1.465  0.2100  0.2233  0.5879
  300TIP3    H222460   3.340   2.595   1.517 -0.3486 -2.0576 -3.5656
  301TIP3   OH222461   6.895   4.996   6.409 -0.2447  0.2683  0.1520
  301TIP3    H122462   6.938   5.026   6.329  0.3343 -0.3513  0.2148
  301TIP3    H222463   6.828   5.061   6.426 -0.6123  0.2248 -1.0337
  302TIP3   OH222464   6.656   5.545   8.212 -0.3880  0.2132 -0.0886
  302TIP3    H122465   6.602   5.559   8.134  0.1125  0.4591 -0.4015
  302TIP3    H222466   6.733   5.601   8.197  1.9844 -3.1413 -1.6414
  303TIP3   OH222467   4.700   4.315   7.212  0.1534  0.2022 -0.3237
  303TIP3    H122468   4.720   4.281   7.299 -0.8721  0.1714 -0.0846
  303TIP3    H222469   4.750   4.396   7.206 -1.5063  1.4390  1.2353
  304TIP3   OH222470   6.862   5.751   8.203  0.4583  0.2602 -0.3770
  304TIP3    H122471   6.935   5.700   8.239 -0.1271 -0.4320 -0.1417
  304TIP3    H222472   6.884   5.762   8.111  0.3714 -0.8550 -0.5523
  305TIP3   OH222473   0.321   4.394   1.363  0.8786  0.0300  0.1794
  305TIP3    H122474   0.313   4.306   1.326  0.9935  0.5346 -1.0717
  305TIP3    H222475   0.232   4.429   1.362  1.1128  0.6520 -1.2007
  306TIP3   OH222476   3.649   5.770   1.084  0.0220  0.2122 -0.1387
  306TIP3    H122477   3.620   5.822   1.009 -1.4213  0.4681  0.5595
  306TIP3    H222478   3.722   5.820   1.121 -2.4154  2.8294  1.5884
  307TIP3   OH222479   6.635   5.995   6.955 -0.3610  0.6146 -0.1780
  307TIP3    H122480   6.570   5.987   6.885 -1.4158  0.9165  0.7353
  307TIP3    H222481   6.692   5.919   6.944 -0.0045  1.0917 -1.8564
  308TIP3   OH222482   4.030   6.629   7.585 -0.5654  0.0884 -0.5143
  308TIP3    H122483   3.962   6.659   7.645 -0.5256 -1.5971  0.4310
  308TIP3    H222484   4.095   6.698   7.585 -1.1763  0.6801  0.3880
  309TIP3   OH222485   0.079   1.975   6.731  1.0279  0.4551  0.9277
  309TIP3    H122486   0.137   1.927   6.789  2.7883  0.5370 -0.6574
  309TIP3    H222487   0.136   2.010   6.663 -0.8141  1.0197 -0.4278
  310TIP3   OH222488   0.093   4.726   0.801  0.3335 -0.3144  0.0061
  310TIP3    H122489   0.131   4.639   0.791  0.4412 -0.5530  2.1892
  310TIP3    H222490   0.009   4.721   0.755  0.4014 -1.5242 -0.0110
  311TIP3   OH222491   1.128   4.934   2.350 -0.2518  0.1824 -0.5238
  311TIP3    H122492   1.080   4.861   2.311 -0.6684  0.9562 -1.5174
  311TIP3    H222493   1.077   4.957   2.429  0.2138 -0.9573  0.1223
  312TIP3   OH222494   0.230   5.594   1.957  0.2812  0.0587 -0.4295
  312TIP3    H122495   0.157   5.632   2.005 -0.9388 -0.1389 -2.0498
  312TIP3    H222496   0.209   5.501   1.949  0.7403 -0.0165 -0.8498
  313TIP3   OH222497   2.231   6.684   0.706 -0.8573  0.5653  0.0055
  313TIP3    H122498   2.308   6.698   0.761 -0.2253 -1.8547 -0.1487
  313TIP3    H222499   2.222   6.589   0.702 -4.2487  0.7611  0.5174
  314TIP3   OH222500   3.943   3.674   6.221  0.1820  0.3206 -0.3211
  314TIP3    H122501   3.979   3.631   6.298 -0.8036 -2.0032 -1.0678
  314TIP3    H222502   3.931   3.603   6.158 -0.1995  1.9634 -2.1658
  315TIP3   OH222503   4.805   0.231   7.811 -0.2061 -0.1561  0.2582
  315TIP3    H122504   4.729   0.270   7.768 -0.9892 -1.5667  0.3085
  315TIP3    H222505   4.867   0.304   7.822 -1.8023  1.1647  0.8264
  316TIP3   OH222506   2.368   3.011   8.096  0.1685 -0.0801 -0.3551
  316TIP3    H122507   2.303   2.942   8.109 -0.3141  0.5134  0.4765
  316TIP3    H222508   2.318   3.092   8.101  0.9837  0.3983  0.4754
  317TIP3   OH222509   6.007   3.060   7.264  0.3444 -0.1664 -0.5262
  317TIP3    H122510   6.090   3.059   7.217 -0.4879 -2.0538 -2.0806
  317TIP3    H222511   5.966   2.976   7.244 -1.2879  0.0670  1.4323
  318TIP3   OH222512   5.140   1.540   0.639 -0.2338 -0.1964 -0.1607
  318TIP3    H122513   5.065   1.564   0.693 -0.1021 -1.3462  0.5682
  318TIP3    H222514   5.120   1.452   0.607  0.2327 -0.0095 -1.0177
  319TIP3   OH222515   1.806   3.327   1.622  0.0218 -0.0070  0.4609
  319TIP3    H122516   1.767   3.314   1.708  0.2547 -0.8445  0.4433
  319TIP3    H222517   1.863   3.251   1.609  0.1920  0.2403 -0.3206
  320TIP3   OH222518   4.021   5.149   0.616 -0.5159  0.5925  0.5430
  320TIP3    H122519   4.028   5.227   0.670 -0.9629 -0.2282  1.8455
  320TIP3    H222520   4.069   5.082   0.665  1.1339  0.3666 -1.2528
  321TIP3   OH222521   1.385   0.933   8.506  0.8086 -0.1511 -0.6291
  321TIP3    H122522   1.354   0.947   8.416  1.3556  2.1534 -0.5242
  321TIP3    H222523   1.451   1.001   8.519 -0.0768  0.3094  1.9116
  322TIP3   OH222524   2.102   3.912   0.241  0.1245  0.6338 -0.3871
  322TIP3    H122525   2.061   3.990   0.203 -0.5260  1.5578  2.0270
  322TIP3    H222526   2.191   3.940   0.264 -0.4329  1.0538  1.4251
  323TIP3   OH222527   0.516   5.387   7.625  0.0345  1.1241  0.0126
  323TIP3    H122528   0.501   5.429   7.709 -0.5219 -1.1382  1.1248
  323TIP3    H222529   0.435   5.338   7.607  0.7744  0.2030 -0.9857
  324TIP3   OH222530   3.801   3.721   6.490 -0.1952 -0.2657 -0.6696
  324TIP3    H122531   3.715   3.749   6.523 -0.9128 -1.2649 -1.6248
  324TIP3    H222532   3.792   3.627   6.477  0.9148 -0.3150 -1.2196
  325TIP3   OH222533   2.922   5.359   0.432 -0.8909 -0.0467 -0.0423
  325TIP3    H122534   2.836   5.388   0.400 -0.2925  4.0553  1.4988
  325TIP3    H222535   2.984   5.421   0.394  1.2868 -2.0054  0.0939
  326TIP3   OH222536   3.110   1.301   8.063  0.0326 -0.8899 -0.7715
  326TIP3    H122537   3.122   1.252   7.982 -0.3653  1.3391 -2.2619
  326TIP3    H222538   3.191   1.351   8.074 -1.1670  1.4076 -1.7284
  327TIP3   OH222539   5.618   6.557   2.255 -0.1175 -0.3767 -0.6938
  327TIP3    H122540   5.702   6.518   2.279  0.3391  0.0263 -1.5903
  327TIP3    H222541   5.592   6.608   2.332  0.6175 -0.2512 -0.5203
  328TIP3   OH222542   4.532   6.608   8.480  0.3547 -0.0129 -0.3397
  328TIP3    H122543   4.587   6.662   8.424  1.1265  2.2401  2.3276
  328TIP3    H222544   4.485   6.550   8.420  3.6650 -0.2635 -2.9320
  329TIP3   OH222545   4.201   0.551   8.281  0.0980 -0.0070 -0.0354
  329TIP3    H122546   4.207   0.587   8.369 -1.3936 -0.8824  0.4666
  329TIP3    H222547   4.288   0.516   8.263  0.9254  1.7537  0.3553
  330TIP3   OH222548   3.128   3.759   2.992 -0.2329  0.0190  0.1634
  330TIP3    H122549   3.135   3.668   2.962 -0.0653 -0.4103  1.4467
  330TIP3    H222550   3.218   3.790   2.997  0.1433 -1.1415  3.6967
  331TIP3   OH222551   4.737   3.126   7.633  0.4379 -0.0880  0.5404
  331TIP3    H122552   4.683   3.202   7.653 -1.4321 -0.9368 -0.9910
  331TIP3    H222553   4.827   3.158   7.642 -0.2174  2.7841 -1.6459
  332TIP3   OH222554   6.324   5.892   1.848  0.0761  0.3384 -0.4135
  332TIP3    H122555   6.338   5.903   1.754  1.1724  0.4254 -0.2534
  332TIP3    H222556   6.286   5.975   1.877  0.1021  0.4567 -0.7167
  333TIP3   OH222557   1.826   5.964   8.470  0.2055 -0.2535  0.5828
  333TIP3    H122558   1.813   6.029   8.539  0.3627  1.4641 -0.9309
  333TIP3    H222559   1.848   6.015   8.392  0.6352 -2.1522 -0.6189
  334TIP3   OH222560   2.236   2.863   8.388 -0.5298  0.3013 -0.7770
  334TIP3    H122561   2.243   2.910   8.471  0.2792 -0.9571 -0.0901
  334TIP3    H222562   2.197   2.926   8.327  0.6561  1.9002  0.0461
  335TIP3   OH222563   0.111   1.242   1.874  0.0085 -0.3924 -0.5653
  335TIP3    H122564   0.081   1.280   1.956  1.9223 -0.1520  0.0653
  335TIP3    H222565   0.080   1.302   1.806  1.2188  1.2330  0.2533
  336TIP3   OH222566   4.170   6.612   1.925  0.2322 -0.0990  0.1476
  336TIP3    H122567   4.235   6.677   1.951 -0.2140  0.2527  0.3954
  336TIP3    H222568   4.086   6.658   1.930 -0.1142 -0.7673  0.5867
  337TIP3   OH222569   4.818   5.872   2.041 -0.0018  0.2968 -0.0639
  337TIP3    H122570   4.883   5.919   1.990  1.4302  0.1115  1.4739
  337TIP3    H222571   4.750   5.936   2.060  1.7890  1.8069  1.7911
  338TIP3   OH222572   5.367   2.066   7.466  0.6415  0.1937  0.6597
  338TIP3    H122573   5.423   2.093   7.393 -0.5806  0.4337 -0.2245
  338TIP3    H222574   5.326   2.148   7.495  0.1223 -0.1011  0.7551
  339TIP3   OH222575   4.075   5.566   8.471  0.1339 -0.0430 -0.2879
  339TIP3    H122576   4.057   5.487   8.420  0.1987 -0.2619  0.0298
  339TIP3    H222577   4.097   5.633   8.405  1.2037 -0.5793 -0.4881
  340TIP3   OH222578   4.438   1.986   1.080 -0.0810 -0.0607  0.0156
  340TIP3    H122579   4.486   1.958   1.157  0.5727 -2.6171 -1.2289
  340TIP3    H222580   4.443   2.082   1.083  1.9015 -0.1371  1.8975
  341TIP3   OH222581   1.092   2.657   6.776  0.4851 -0.0913  0.0213
  341TIP3    H122582   1.088   2.730   6.838  1.6964 -0.9635  1.1914
  341TIP3    H222583   1.025   2.677   6.711  0.1408  1.5752  0.8331
  342TIP3   OH222584   5.802   6.395   1.100 -0.2971 -0.2488  0.2263
  342TIP3    H122585   5.729   6.354   1.144 -0.1911 -1.2752 -0.5116
  342TIP3    H222586   5.865   6.324   1.087  0.7600  0.5721  0.6870
  343TIP3   OH222587   3.817   6.601   1.610 -0.6257  0.1369 -0.1224
  343TIP3    H122588   3.903   6.560   1.608 -1.5330 -1.8749 -1.9857
  343TIP3    H222589   3.835   6.694   1.625  1.6414 -0.5789  2.3122
  344TIP3   OH222590   1.912   6.824   0.448 -0.1161  0.1208 -0.3465
  344TIP3    H122591   1.973   6.825   0.375 -0.0485  2.1234 -0.3164
  344TIP3    H222592   1.958   6.868   0.519 -1.2601  0.8639 -0.0400
  345TIP3   OH222593   1.122   3.177   7.212  0.3844 -0.4648  0.4921
  345TIP3    H122594   1.098   3.261   7.173  1.7029 -1.3204 -2.3781
  345TIP3    H222595   1.038   3.137   7.236 -0.5514  0.0859 -1.6467
  346TIP3   OH222596   4.317   4.494   1.231  0.5133 -0.8979  0.3355
  346TIP3    H122597   4.386   4.476   1.295 -0.1476 -1.1845  0.9806
  346TIP3    H222598   4.249   4.539   1.281 -0.2629 -1.6402 -0.0185
  347TIP3   OH222599   0.467   0.114   6.826 -0.7804  0.4503  0.2807
  347TIP3    H122600   0.466   0.025   6.792  1.0269  0.6307 -0.3658
  347TIP3    H222601   0.554   0.147   6.804 -0.7384  1.7458  2.1445
  348TIP3   OH222602   1.967   1.549   8.005 -0.5868 -0.0676 -0.2050
  348TIP3    H122603   1.875   1.554   7.980 -0.3941  0.2029 -0.9086
  348TIP3    H222604   1.969   1.571   8.098 -1.2614 -0.3688 -0.1158
  349TIP3   OH222605   6.866   5.949   0.169 -0.1109 -0.3264  0.4468
  349TIP3    H122606   6.939   5.900   0.132  0.4580 -0.3266  1.5370
  349TIP3    H222607   6.906   6.026   0.210 -0.8245  0.2039  0.1726
  350TIP3   OH222608   2.243   0.792   7.478 -0.1533 -0.3024 -0.2258
  350TIP3    H122609   2.196   0.874   7.488  0.1056  0.3279 -3.2244
  350TIP3    H222610   2.175   0.726   7.466 -0.3651 -0.6353  2.2898
  351TIP3   OH222611   3.147   3.518   2.836 -0.3886 -0.2145 -0.0403
  351TIP3    H122612   3.213   3.580   2.806  0.1440 -1.0894 -0.7033
  351TIP3    H222613   3.105   3.487   2.756 -2.0377  0.7785  0.3948
  352TIP3   OH222614   0.098   2.410   1.200  0.4938  0.0630  0.4859
  352TIP3    H122615   0.169   2.469   1.175 -0.9048  2.0125  0.8759
  352TIP3    H222616   0.044   2.403   1.121  1.1194 -1.5227  0.1461
  353TIP3   OH222617   2.034   4.332   1.857  0.3950 -0.1301 -0.3927
  353TIP3    H122618   2.063   4.274   1.927 -0.8727  0.5036  0.6960
  353TIP3    H222619   2.025   4.418   1.898 -0.1843  0.2978 -1.3780
  354TIP3   OH222620   2.142   5.128   7.373  0.0967 -0.0452  0.2260
  354TIP3    H122621   2.062   5.076   7.387 -0.0145  0.5757  2.1148
  354TIP3    H222622   2.210   5.079   7.418  0.5516  0.0863 -0.3103
  355TIP3   OH222623   4.832   0.568   0.159  0.0673  0.1180 -0.1410
  355TIP3    H122624   4.856   0.478   0.136  1.2934  0.3721  0.0993
  355TIP3    H222625   4.815   0.610   0.075 -0.1040 -0.2318 -0.2821
  356TIP3   OH222626   3.982   2.109   2.052  0.5297 -0.3327  0.6034
  356TIP3    H122627   4.032   2.150   2.123 -0.9823  1.6548  0.5994
  356TIP3    H222628   3.914   2.059   2.096  0.2874 -0.0244  0.5852
  357TIP3   OH222629   3.176   3.413   8.293 -0.2243  0.1794 -0.5408
  357TIP3    H122630   3.261   3.375   8.317  0.3320  2.7339  2.1020
  357TIP3    H222631   3.189   3.446   8.205  1.2190 -0.3078 -0.5447
  358TIP3   OH222632   6.751   6.122   0.886  0.1827 -0.0024 -0.5585
  358TIP3    H122633   6.845   6.102   0.887  0.6764  1.9356  1.8460
  358TIP3    H222634   6.724   6.115   0.978 -1.5757  1.3618 -0.9127
  359TIP3   OH222635   1.783   5.365   0.441  0.1342  0.5658 -0.3341
  359TIP3    H122636   1.733   5.329   0.515  0.3691 -0.1187 -0.5019
  359TIP3    H222637   1.828   5.289   0.404  0.9692  1.1114 -0.4438
  360TIP3   OH222638   0.533   3.961   1.242 -0.1511  0.4494 -0.3226
  360TIP3    H122639   0.501   3.913   1.166 -0.4869 -1.1424  0.7853
  360TIP3    H222640   0.628   3.967   1.229 -0.3422  1.3726 -1.4884
  361TIP3   OH222641   2.331   2.518   1.200  0.0646  0.3658 -0.6680
  361TIP3    H122642   2.399   2.583   1.219 -0.4627  1.1827 -1.5161
  361TIP3    H222643   2.266   2.530   1.269 -0.6088  1.5745 -1.4869
  362TIP3   OH222644   3.970   5.795   0.044 -0.2545  0.4978 -0.6410
  362TIP3    H122645   3.974   5.706   0.008 -2.5089 -0.5673  1.4861
  362TIP3    H222646   3.890   5.832   0.007 -0.2550  1.0032 -0.1480
  363TIP3   OH222647   1.169   4.493   0.269  0.1265 -0.0327  0.1728
  363TIP3    H122648   1.244   4.497   0.329  0.0896  0.6305  0.1821
  363TIP3    H222649   1.095   4.474   0.326  0.2736 -0.5897  0.1778
  364TIP3   OH222650   2.863   0.901   0.251  0.1321 -0.6213  0.2152
  364TIP3    H122651   2.874   0.871   0.342 -0.7771 -0.8735  0.2553
  364TIP3    H222652   2.938   0.958   0.236  1.7446 -2.5983  0.2583
  365TIP3   OH222653   1.273   5.288   1.376  0.3700  1.1999  0.2271
  365TIP3    H122654   1.259   5.248   1.290 -0.1431  0.3316  0.7005
  365TIP3    H222655   1.258   5.217   1.438  2.9059  1.2329  0.9753
  366TIP3   OH222656   0.967   5.846   2.390 -0.7974  0.3023 -0.8870
  366TIP3    H122657   1.046   5.865   2.442 -1.0183 -0.3244 -0.2955
  366TIP3    H222658   0.966   5.913   2.322  1.3659 -0.8600 -2.1713
  367TIP3   OH222659   6.645   4.715   1.293  0.2367 -0.0994  0.7675
  367TIP3    H122660   6.602   4.801   1.293 -2.6683 -1.4696  0.3513
  367TIP3    H222661   6.610   4.670   1.217  3.8916 -0.7623 -0.7304
  368TIP3   OH222662   3.585   3.037   0.075 -0.3972 -0.3142  0.0094
  368TIP3    H122663   3.519   3.090   0.118 -1.6802 -2.0036  0.2365
  368TIP3    H222664   3.638   3.002   0.146  0.0578  0.1614 -0.0930
  369TIP3   OH222665   1.119   6.237   0.540 -0.5621  0.6915  0.5801
  369TIP3    H122666   1.055   6.170   0.517 -2.0142  1.7624  1.3758
  369TIP3    H222667   1.202   6.203   0.507 -1.7491 -0.0665 -1.8611
  370TIP3   OH222668   0.755   1.013   7.548  0.2066 -0.4685  0.7243
  370TIP3    H122669   0.844   0.996   7.577  0.4718  0.9967  0.8229
  370TIP3    H222670   0.710   0.929   7.558  2.1939 -1.9478 -1.7848
  371TIP3   OH222671   4.768   1.361   1.987  0.1084  0.6645  0.8276
  371TIP3    H122672   4.709   1.354   2.062 -0.9333  1.3039  0.0861
  371TIP3    H222673   4.718   1.325   1.913  2.0177 -2.4301  0.8490
  372TIP3   OH222674   5.695   0.827   0.288 -0.5189  0.2503  0.4937
  372TIP3    H122675   5.734   0.787   0.366 -1.5456  0.2615  1.0221
  372TIP3    H222676   5.668   0.753   0.234 -1.3676  0.2239  0.9430
  373TIP3   OH222677   6.830   5.043   1.306  0.0616 -0.3211  0.1652
  373TIP3    H122678   6.823   5.018   1.213 -0.3111  1.3057 -0.2802
  373TIP3    H222679   6.740   5.059   1.333  0.2073 -0.3987  0.7072
  374TIP3   OH222680   0.441   5.646   0.306 -0.1741 -0.4174  0.3124
  374TIP3    H122681   0.431   5.718   0.368 -0.2815 -1.2592  1.3177
  374TIP3    H222682   0.484   5.684   0.230 -1.0352  0.8882  0.4554
  375TIP3   OH222683   0.327   6.357   8.286  0.2864 -0.0816  0.0651
  375TIP3    H122684   0.380   6.437   8.286 -1.2286  1.0588 -2.0534
  375TIP3    H222685   0.262   6.373   8.217  0.5381 -3.5770 -1.1409
  376TIP3   OH222686   4.885   4.408   0.165  0.1620  0.0887 -0.2430
  376TIP3    H122687   4.898   4.439   0.075 -0.3720  0.9817 -0.0227
  376TIP3    H222688   4.944   4.462   0.218  1.8112 -1.6249 -0.2282
  377TIP3   OH222689   2.355   4.301   6.848  0.0414  0.4951 -0.5669
  377TIP3    H122690   2.332   4.266   6.762  1.6430  0.7408 -1.1425
  377TIP3    H222691   2.317   4.389   6.850 -1.8471 -0.2886 -0.1260
  378TIP3   OH222692   6.839   1.363   0.083 -0.1571 -0.1105  0.4605
  378TIP3    H122693   6.771   1.331   0.142  1.2479  0.5384  2.5464
  378TIP3    H222694   6.911   1.301   0.093  0.2351  0.2092 -0.3107
  379TIP3   OH222695   1.239   4.633   6.563 -0.4612 -0.3843  0.2142
  379TIP3    H122696   1.201   4.658   6.478 -2.5269  1.3995  1.5342
  379TIP3    H222697   1.279   4.714   6.595  0.4479 -1.0876  0.8678
  380TIP3   OH222698   4.758   4.423   1.142  0.0580  0.4760  0.5550
  380TIP3    H122699   4.789   4.333   1.135 -0.6479  0.2585  0.1563
  380TIP3    H222700   4.794   4.454   1.226  3.8139  1.2321 -1.1119
  381TIP3   OH222701   4.056   5.306   8.069 -0.2061 -0.4491 -0.5609
  381TIP3    H122702   4.149   5.305   8.092 -0.1808  1.1954 -0.4641
  381TIP3    H222703   4.030   5.214   8.070  1.2027 -0.8699  0.3127
  382TIP3   OH222704   3.697   5.712   7.842  0.1841  0.1642  0.0565
  382TIP3    H122705   3.637   5.734   7.914  2.2746  0.7019  1.7441
  382TIP3    H222706   3.689   5.617   7.834 -0.0898  0.0838  1.0484
  383TIP3   OH222707   6.727   1.460   7.899  0.2121  0.5937 -0.3351
  383TIP3    H122708   6.779   1.497   7.971 -2.0218 -0.7648  2.1604
  383TIP3    H222709   6.665   1.529   7.876  1.0237  1.0835 -1.1351
  384TIP3   OH222710   4.621   1.189   1.764  0.1276 -0.2651  0.3764
  384TIP3    H122711   4.556   1.161   1.699 -0.9088  0.6188  0.9861
  384TIP3    H222712   4.595   1.143   1.844  0.5713 -0.3046  0.4966
  385TIP3   OH222713   2.046   6.193   7.706 -0.1353 -0.0635  0.1272
  385TIP3    H122714   2.129   6.230   7.674 -0.3947  0.8527  0.4782
  385TIP3    H222715   2.069   6.152   7.790 -0.1126  0.5785  0.4410
  386TIP3   OH222716   2.215   2.583   0.373  0.3170 -0.5324 -0.1310
  386TIP3    H122717   2.245   2.618   0.457  0.3276 -0.1279 -0.2991
  386TIP3    H222718   2.262   2.635   0.308  0.2348 -0.7792 -0.3855
  387TIP3   OH222719   6.772   2.017   0.890  0.3325  0.2604 -0.2055
  387TIP3    H122720   6.790   1.934   0.845  1.8581 -0.0248  0.8758
  387TIP3    H222721   6.754   2.079   0.819  3.6852  0.0772 -1.3776
  388TIP3   OH222722   6.572   3.051   1.660  0.0553  0.4604 -0.2303
  388TIP3    H122723   6.557   2.957   1.646  1.0874 -0.0201  1.6030
  388TIP3    H222724   6.665   3.057   1.682 -0.0956  1.8710  0.1213
  389TIP3   OH222725   1.568   2.952   7.188  0.0190  0.5354 -0.5741
  389TIP3    H122726   1.518   2.968   7.268  2.3928 -0.2583  1.2131
  389TIP3    H222727   1.561   3.033   7.139 -2.1752  0.7665  0.0125
  390TIP3   OH222728   5.531   0.810   1.291 -0.3026  0.5164  0.3099
  390TIP3    H122729   5.456   0.795   1.234  1.5019 -0.2115 -2.0061
  390TIP3    H222730   5.607   0.791   1.237  1.6138  1.6822  2.4125
  391TIP3   OH222731   3.100   6.216   7.187  0.1763 -0.1830  0.0508
  391TIP3    H122732   3.132   6.234   7.275 -0.1621  0.9671 -0.0445
  391TIP3    H222733   3.134   6.129   7.167  0.8216 -0.1854  1.0533
  392TIP3   OH222734   6.454   1.672   1.556 -0.3373  0.0857  0.6328
  392TIP3    H122735   6.377   1.698   1.607 -0.6597 -1.3634  0.9461
  392TIP3    H222736   6.423   1.671   1.465  0.4373  3.4014  0.2151
  393TIP3   OH222737   4.181   2.374   8.147 -0.1971 -0.4094 -0.1183
  393TIP3    H122738   4.215   2.354   8.060  2.1194  0.4983  0.5137
  393TIP3    H222739   4.214   2.462   8.166  0.0376 -0.9141  1.9953
  394TIP3   OH222740   5.361   6.329   1.996  0.5212  0.1143 -0.5861
  394TIP3    H122741   5.350   6.423   2.004 -0.5275  0.2393 -2.6602
  394TIP3    H222742   5.279   6.292   2.027 -0.4641  0.1576 -2.9314
  395TIP3   OH222743   1.028   2.921   7.707 -0.5008 -0.5430  0.5009
  395TIP3    H122744   1.047   2.938   7.799 -0.2186  0.9217  0.1993
  395TIP3    H222745   1.037   3.006   7.665  0.4222 -1.3724 -1.0615
  396TIP3   OH222746   6.621   0.635   7.052  0.1996  0.3378  0.6579
  396TIP3    H122747   6.616   0.652   6.958 -0.4239  1.9848  0.9539
  396TIP3    H222748   6.670   0.709   7.087 -0.7734  0.4623  1.7920
  397TIP3   OH222749   5.663   0.908   1.777 -0.1348 -0.6716  0.4908
  397TIP3    H122750   5.758   0.899   1.788 -0.3774 -2.4714  1.5078
  397TIP3    H222751   5.643   0.854   1.700 -0.3174 -0.1347  0.1582
  398TIP3   OH222752   2.676   2.103   6.750 -0.0295  0.4422  0.3389
  398TIP3    H122753   2.725   2.022   6.766 -2.2728 -0.6046  2.6198
  398TIP3    H222754   2.640   2.092   6.663  0.4558 -0.5886  0.2484
  399TIP3   OH222755   5.584   4.309   0.916 -0.3659  0.4366  0.4740
  399TIP3    H122756   5.676   4.290   0.899 -0.3967  0.6925  0.0077
  399TIP3    H222757   5.557   4.244   0.981  0.0401  0.1297  0.3348
  400TIP3   OH222758   6.459   5.042   1.661 -0.1894 -0.4460 -0.0050
  400TIP3    H122759   6.373   5.006   1.636 -0.8512  0.7291  0.5219
  400TIP3    H222760   6.461   5.033   1.756  1.0531 -2.1070 -0.1370
  401TIP3   OH222761   3.851   5.920   0.659  0.6318  0.6480 -0.3999
  401TIP3    H122762   3.810   5.991   0.611  0.4832 -0.5538 -2.1390
  401TIP3    H222763   3.795   5.844   0.641 -0.1151  0.3299  2.6515
  402TIP3   OH222764   2.584   4.002   1.129  0.0298 -0.1283 -0.3479
  402TIP3    H122765   2.549   3.913   1.127  0.0211 -0.1225 -1.9116
  402TIP3    H222766   2.582   4.027   1.221 -1.4578 -1.1510 -0.0759
  403TIP3   OH222767   2.279   3.828   7.081 -0.3143 -0.2063 -1.1098
  403TIP3    H122768   2.269   3.846   7.174  3.6675 -2.1655 -0.0663
  403TIP3    H222769   2.293   3.913   7.041 -0.6059  0.5380  0.3215
  404TIP3   OH222770   2.264   5.159   0.614  0.5310  0.2039 -0.1038
  404TIP3    H122771   2.287   5.241   0.658 -1.4092  1.1127 -0.6551
  404TIP3    H222772   2.232   5.102   0.685  0.5012  0.4686  0.0964
  405TIP3   OH222773   0.142   3.519   0.764  0.1007  0.0934  0.1396
  405TIP3    H122774   0.229   3.485   0.783  0.7151  0.8404 -1.1985
  405TIP3    H222775   0.157   3.590   0.701 -1.6253 -1.3484 -2.0496
  406TIP3   OH222776   6.542   2.010   8.021  0.3215  0.3959  0.2514
  406TIP3    H122777   6.468   1.951   8.008  1.0764 -0.5222  0.0257
  406TIP3    H222778   6.551   2.055   7.937  0.9235 -0.5657 -0.2155
  407TIP3   OH222779   3.462   5.645   7.213  0.1180  0.1166 -1.0443
  407TIP3    H122780   3.418   5.692   7.284  1.5489 -0.8716  0.5772
  407TIP3    H222781   3.486   5.561   7.251  3.9882  0.8184 -1.4953
  408TIP3   OH222782   4.169   1.094   0.027 -0.5046 -0.0481  0.3516
  408TIP3    H122783   4.074   1.106   0.024 -0.4508  0.1698 -0.8195
  408TIP3    H222784   4.186   1.017  -0.027  0.1071  0.8397 -0.7687
  409TIP3   OH222785   4.941   2.863   8.365 -0.2542 -0.3626  0.3164
  409TIP3    H122786   4.992   2.944   8.367 -1.3524  0.3957 -0.7411
  409TIP3    H222787   4.883   2.869   8.442 -0.4966 -0.0300  0.1076
  410TIP3   OH222788   3.994   3.867   0.230  0.0593  0.6418  0.0911
  410TIP3    H122789   3.973   3.875   0.137 -1.3608  0.1737  0.3414
  410TIP3    H222790   4.080   3.825   0.232  0.3367  1.1199 -1.0031
  411TIP3   OH222791   5.154   5.884   2.008  0.0634 -0.7823 -0.0435
  411TIP3    H122792   5.174   5.908   1.917 -0.3794  0.4202  0.1553
  411TIP3    H222793   5.209   5.941   2.061 -1.3268  0.1504  0.4579
  412TIP3   OH222794   2.260   1.156   0.894  0.2310 -0.3143  0.4047
  412TIP3    H122795   2.324   1.141   0.964  0.1300  0.5183  0.6879
  412TIP3    H222796   2.260   1.251   0.883 -0.2121 -0.3962 -0.3015
  413TIP3   OH222797   4.392   3.010   1.597  0.0692  0.5257  0.0391
  413TIP3    H122798   4.424   3.020   1.687  1.4486 -1.7423 -0.1519
  413TIP3    H222799   4.307   2.968   1.607  0.2932  0.1243  0.2910
  414TIP3   OH222800   1.639   2.124   8.018  0.1081  0.1721 -0.1122
  414TIP3    H122801   1.722   2.130   8.066 -0.1578 -1.0911  0.5685
  414TIP3    H222802   1.584   2.068   8.073 -0.4869 -0.6722 -1.4994
  415TIP3   OH222803   3.027   0.537   0.227  0.1027  0.2643 -0.1708
  415TIP3    H122804   3.118   0.552   0.253  0.2564 -0.4995 -0.2378
  415TIP3    H222805   3.033   0.492   0.143 -0.3421  0.3161 -0.2328
  416TIP3   OH222806   2.994   2.608   8.241  0.1691  0.2693 -0.4936
  416TIP3    H122807   3.009   2.692   8.284 -1.7488 -0.1246  1.1251
  416TIP3    H222808   3.003   2.626   8.148  1.4142  1.8664 -0.1172
  417TIP3   OH222809   0.000   4.344   7.499  0.7102  0.1377 -0.4455
  417TIP3    H122810  -0.077   4.344   7.443  0.2414 -1.6154  0.1530
  417TIP3    H222811  -0.011   4.421   7.555 -0.8567 -0.3580 -0.0439
  418TIP3   OH222812   5.362   3.449   8.415 -0.0968  0.5434  0.0719
  418TIP3    H122813   5.446   3.405   8.428 -1.3899 -1.4127  2.7512
  418TIP3    H222814   5.380   3.541   8.434  0.9434 -0.2739  3.9412
  419TIP3   OH222815   5.847   2.225   0.177  0.0936  0.0650  0.2750
  419TIP3    H122816   5.814   2.314   0.169 -0.9157 -0.1919  1.3833
  419TIP3    H222817   5.917   2.231   0.242  1.4094  0.3666 -1.0959
  420TIP3   OH222818   0.801   5.554   6.105  0.5437 -0.1711  0.0296
  420TIP3    H122819   0.815   5.585   6.194 -0.8453 -0.5602  0.4113
  420TIP3    H222820   0.886   5.563   6.063  1.3929 -0.6017  1.5765
  421TIP3   OH222821   4.148   1.840   7.906 -0.0989 -0.0540  0.2537
  421TIP3    H122822   4.071   1.852   7.961  0.8975  1.4852  1.4021
  421TIP3    H222823   4.164   1.746   7.907 -1.2032 -0.2582  1.0352
  422TIP3   OH222824   4.933   2.125   1.409 -0.5358  0.5487  0.6868
  422TIP3    H122825   4.896   2.212   1.424 -0.4035  0.4881  1.4096
  422TIP3    H222826   4.934   2.115   1.314 -2.3284  0.5844  0.6161
  423TIP3   OH222827   0.438   2.788   7.140 -0.5336  0.0396  0.4188
  423TIP3    H122828   0.455   2.710   7.194 -2.2256 -1.0442 -0.5065
  423TIP3    H222829   0.402   2.752   7.059  0.3630  1.7253 -0.7677
  424TIP3   OH222830   5.825   5.587   0.677  0.5281  0.5332  0.7196
  424TIP3    H122831   5.871   5.609   0.759  0.4860  2.2908  0.2964
  424TIP3    H222832   5.737   5.624   0.688  0.2896  0.1405  0.1606
  425TIP3   OH222833   2.495   1.113   1.474 -0.7425 -0.3403 -0.3323
  425TIP3    H122834   2.505   1.038   1.532  1.0818  1.8756  2.4851
  425TIP3    H222835   2.578   1.116   1.425  0.5357  1.4327  1.7788
  426TIP3   OH222836   6.460   3.390   0.612 -0.1163 -0.2747 -0.4626
  426TIP3    H122837   6.451   3.436   0.695 -0.1126  0.7054 -0.9922
  426TIP3    H222838   6.371   3.386   0.577 -0.6000 -3.1268  0.8135
  427TIP3   OH222839   3.345   4.728   6.384 -0.1906  0.3570 -0.2798
  427TIP3    H122840   3.364   4.822   6.387  1.2269  0.2323 -2.4150
  427TIP3    H222841   3.258   4.722   6.345  0.0948  0.8004 -1.0084
  428TIP3   OH222842   6.718   4.805   0.794  0.8573  0.4504  0.4130
  428TIP3    H122843   6.679   4.762   0.718 -1.4684  0.6322  1.4096
  428TIP3    H222844   6.746   4.890   0.762  2.5047 -0.5069 -0.8343
  429TIP3   OH222845   4.992   3.573   6.310  0.4345  0.1636  0.2179
  429TIP3    H122846   5.081   3.538   6.303  0.6676  0.9571 -1.1535
  429TIP3    H222847   4.992   3.649   6.252 -1.0645  0.3498  0.4290
  430TIP3   OH222848   4.688   0.774   7.441  0.1977  0.2029 -0.7971
  430TIP3    H122849   4.611   0.817   7.478 -0.0226 -1.2974  0.6058
  430TIP3    H222850   4.663   0.682   7.434  2.1486 -0.5066  0.6583
  431TIP3   OH222851   4.570   6.033   1.239  0.1566  0.1435  0.1635
  431TIP3    H122852   4.606   6.093   1.173  0.4500  1.4976  1.5033
  431TIP3    H222853   4.648   5.998   1.283 -0.0535 -0.3613  0.1363
  432TIP3   OH222854   0.886   2.787   0.929 -0.4788  0.5420 -0.0389
  432TIP3    H122855   0.897   2.850   1.001 -0.0106 -0.3895  0.7233
  432TIP3    H222856   0.946   2.716   0.951  0.0491  0.4734 -1.6300
  433TIP3   OH222857   4.415   6.365   0.998 -0.3337 -0.3192  0.4418
  433TIP3    H122858   4.415   6.419   0.919 -2.3202 -0.9021 -0.0166
  433TIP3    H222859   4.482   6.299   0.983 -0.5754 -0.3157 -0.6947
  434TIP3   OH222860   2.789   2.575   1.138  0.3514  0.1029 -0.0172
  434TIP3    H122861   2.694   2.560   1.148  0.2794  0.2486 -0.4879
  434TIP3    H222862   2.828   2.489   1.155  0.3681  0.5917  3.1812
  435TIP3   OH222863   5.645   5.319   2.501  0.1149 -0.0732  0.0720
  435TIP3    H122864   5.574   5.340   2.441  0.1713 -2.5825 -0.9685
  435TIP3    H222865   5.720   5.367   2.467 -0.3192  0.0698 -0.7047
  436TIP3   OH222866   1.836   5.415   1.161  0.7147  0.0707  0.5052
  436TIP3    H122867   1.895   5.430   1.088 -1.5638 -2.1856 -2.0319
  436TIP3    H222868   1.761   5.472   1.144  0.3388 -0.1687  1.3073
  437TIP3   OH222869   6.092   3.334   8.270  0.2822  0.0614 -0.0071
  437TIP3    H122870   6.178   3.342   8.229 -0.0189  0.6992 -0.5417
  437TIP3    H222871   6.043   3.277   8.211 -0.0410  0.6955 -0.3665
  438TIP3   OH222872   4.839   2.302   0.695  0.5118 -0.5762  0.0456
  438TIP3    H122873   4.823   2.397   0.688  1.3602 -0.4364 -0.0758
  438TIP3    H222874   4.752   2.263   0.687 -0.1137  0.2858  2.0363
  439TIP3   OH222875   2.228   4.450   8.457 -0.0112 -0.4655  0.1409
  439TIP3    H122876   2.294   4.517   8.473 -1.1660  0.7037  0.2208
  439TIP3    H222877   2.221   4.402   8.540 -0.3379  0.4047  0.6314
  440TIP3   OH222878   2.445   1.426   7.878  0.6115  0.2519  0.2879
  440TIP3    H122879   2.361   1.379   7.881  0.2187  0.7896 -1.3241
  440TIP3    H222880   2.424   1.513   7.911  1.0714 -0.2702  2.0781
  441TIP3   OH222881   2.414   6.042   1.843  0.2200  0.1065 -0.4454
  441TIP3    H122882   2.341   6.103   1.841 -0.7929 -1.0373 -0.0557
  441TIP3    H222883   2.413   6.005   1.932  2.2858  1.2117  0.0949
  442TIP3   OH222884   6.408   2.806   7.189  0.6260  0.2105 -0.3466
  442TIP3    H122885   6.343   2.747   7.226  2.6004  0.2369  3.7598
  442TIP3    H222886   6.366   2.892   7.191  0.2784  0.0350  1.0061
  443TIP3   OH222887   1.984   5.561   7.564  0.0761 -0.5264  0.3662
  443TIP3    H122888   2.036   5.637   7.591  0.8329 -1.0786  0.5235
  443TIP3    H222889   1.955   5.582   7.476  1.4498 -0.6224 -0.1316
  444TIP3   OH222890   5.996   1.240   0.486  0.1051  0.0684  0.5310
  444TIP3    H122891   6.024   1.285   0.406 -1.2330  0.4504  0.2549
  444TIP3    H222892   6.061   1.171   0.498  1.7090  1.4895  0.4667
  445TIP3   OH222893   6.494   3.509   6.374 -0.2149 -0.1719 -0.7225
  445TIP3    H122894   6.490   3.424   6.330 -0.1449 -1.5481  1.7363
  445TIP3    H222895   6.410   3.549   6.357 -0.9902 -1.5858 -0.4001
  446TIP3   OH222896   1.074   1.302   0.111  0.4440 -0.4112 -0.2142
  446TIP3    H122897   1.159   1.306   0.068  0.8816 -0.4122  0.6265
  446TIP3    H222898   1.073   1.215   0.153 -0.0600 -0.4988 -0.4010
  447TIP3   OH222899   1.932   0.487   7.015 -0.3424 -0.0728  0.0039
  447TIP3    H122900   1.938   0.413   6.954  0.1623  1.3859 -1.8363
  447TIP3    H222901   1.979   0.558   6.971  0.2436  1.0262  2.2490
  448TIP3   OH222902   2.445   6.436   7.242  0.1346 -0.1187  0.1273
  448TIP3    H122903   2.370   6.444   7.184 -0.1195  1.1520  0.5955
  448TIP3    H222904   2.422   6.489   7.318  0.0800 -2.4154  1.8280
  449TIP3   OH222905   4.873   2.978   2.350 -0.1331  0.3719 -0.1511
  449TIP3    H122906   4.906   2.891   2.374  0.8149  0.5331 -0.7791
  449TIP3    H222907   4.952   3.032   2.344 -0.5808  0.9446 -1.0764
  450TIP3   OH222908   5.746   2.841   1.952  0.0648  0.1615 -0.5132
  450TIP3    H122909   5.732   2.926   1.911  0.7749  0.2235 -0.6439
  450TIP3    H222910   5.661   2.818   1.990 -0.3563  0.5365 -1.2009
  451TIP3   OH222911   4.124   2.278   0.355  0.4769  0.0779 -0.2340
  451TIP3    H122912   4.141   2.210   0.420 -0.7280  1.3131  1.4819
  451TIP3    H222913   4.126   2.233   0.271  0.1612 -1.9883  0.8060
  452TIP3   OH222914   4.405   1.689   7.226  0.0553  0.1888  0.1410
  452TIP3    H122915   4.365   1.683   7.139  0.2941 -1.9397  0.1248
  452TIP3    H222916   4.451   1.606   7.237  0.1353  0.4603  2.2654
  453TIP3   OH222917   4.087   3.357   7.405  0.2428 -0.1203  0.3746
  453TIP3    H122918   4.079   3.330   7.314  1.0602 -0.7732  0.4827
  453TIP3    H222919   4.031   3.434   7.412 -1.6016 -1.3407 -0.1327
  454TIP3   OH222920   4.748   4.168   6.952  0.1678 -0.1499  0.4949
  454TIP3    H122921   4.734   4.223   7.029 -0.1200 -0.3230  0.5663
  454TIP3    H222922   4.755   4.230   6.879 -1.3589 -0.0554  0.3873
  455TIP3   OH222923   6.353   2.426   1.469 -0.0760 -0.3764  0.2571
  455TIP3    H122924   6.392   2.513   1.457 -1.2803  0.1901  0.3382
  455TIP3    H222925   6.356   2.411   1.564 -0.9365  0.1026  0.3705
  456TIP3   OH222926   5.955   5.136   1.888 -0.4426 -0.3173 -0.1566
  456TIP3    H122927   5.944   5.063   1.948 -0.6795  0.0161  0.2107
  456TIP3    H222928   5.867   5.171   1.875 -0.1712  0.7781  0.7892
  457TIP3   OH222929   3.081   2.836   6.209  0.3148  0.2446 -0.2114
  457TIP3    H122930   2.996   2.879   6.207 -0.1334 -0.5370  0.8793
  457TIP3    H222931   3.061   2.742   6.203  0.9824 -0.0343  1.4484
  458TIP3   OH222932   5.793   5.993   1.301 -0.6508  0.5245  0.5930
  458TIP3    H122933   5.783   6.048   1.379  2.2190  1.1706  0.6055
  458TIP3    H222934   5.862   5.931   1.324  0.2782  0.7543 -1.4084
  459TIP3   OH222935   4.878   6.179   0.996  0.3203 -0.2718 -0.0769
  459TIP3    H122936   4.925   6.133   0.927  1.9958 -0.0542  0.8795
  459TIP3    H222937   4.942   6.238   1.035 -1.4801  2.2493 -0.6194
  460TIP3   OH222938   4.335   2.667   7.449  0.0794 -0.6792  0.6533
  460TIP3    H122939   4.410   2.718   7.418 -1.1479  1.2877  0.7738
  460TIP3    H222940   4.326   2.691   7.541  0.0733 -1.9404  1.0090
  461TIP3   OH222941   6.568   4.403   1.112 -0.8870  0.1185 -0.2475
  461TIP3    H122942   6.624   4.463   1.064 -0.2871  0.1920  0.5182
  461TIP3    H222943   6.479   4.432   1.092 -0.6075  1.8440  0.7817
  462TIP3   OH222944   1.611   2.683   8.125 -0.4270 -0.1340 -0.6592
  462TIP3    H122945   1.586   2.769   8.159  2.2580  0.5842 -0.2951
  462TIP3    H222946   1.677   2.702   8.058 -0.3328 -1.8722 -1.0982
  463TIP3   OH222947   0.608   5.798   7.202  0.5540  0.5855  0.1703
  463TIP3    H122948   0.555   5.875   7.179  1.8682  1.1580 -1.1179
  463TIP3    H222949   0.579   5.774   7.290 -2.0275  0.6741 -0.5734
  464TIP3   OH222950   1.189   2.073   1.432 -0.7244  0.3295 -0.6651
  464TIP3    H122951   1.180   1.991   1.383  1.5962 -0.3018 -0.1704
  464TIP3    H222952   1.178   2.047   1.524  0.3415  0.4857 -0.4831
  465TIP3   OH222953   0.881   4.528   0.161 -0.0231 -0.4605 -0.2006
  465TIP3    H122954   0.844   4.441   0.145 -0.6785 -0.1525 -0.3932
  465TIP3    H222955   0.911   4.526   0.251 -2.0469 -0.1876  0.5303
  466TIP3   OH222956   5.480   4.964   1.833 -0.3553  0.0807 -0.0757
  466TIP3    H122957   5.421   5.016   1.779  0.8411  1.3693 -0.1887
  466TIP3    H222958   5.505   5.022   1.905 -3.1199 -2.0593  2.8710
  467TIP3   OH222959   0.016   2.890   0.587  0.3506  0.1151 -0.7853
  467TIP3    H122960   0.049   2.947   0.656  2.2814 -0.5413 -1.1264
  467TIP3    H222961   0.003   2.948   0.512  0.0332  0.4991 -0.4425
  468TIP3   OH222962   1.627   2.930   0.059 -0.1779  0.4276  0.6705
  468TIP3    H122963   1.692   2.912   0.127  1.1793  0.3070 -0.6027
  468TIP3    H222964   1.662   3.005   0.011 -0.2999 -0.4181 -0.8315
  469TIP3   OH222965   4.234   4.424   0.171  0.2047  0.2439 -0.5765
  469TIP3    H122966   4.294   4.451   0.240 -0.8710 -1.1078  0.9401
  469TIP3    H222967   4.174   4.363   0.213 -0.8349 -0.2041 -2.5831
  470TIP3   OH222968   2.945   2.672   1.360  0.5781  0.4738  0.3620
  470TIP3    H122969   2.872   2.643   1.306  0.2184  0.6742  0.7403
  470TIP3    H222970   2.906   2.731   1.425  0.9898  0.1675  0.8983
  471TIP3   OH222971   3.303   2.125   0.301 -0.0730 -0.0126 -0.2306
  471TIP3    H122972   3.342   2.055   0.248 -0.8001  2.0655 -3.8485
  471TIP3    H222973   3.354   2.203   0.279 -0.2925  0.9787  2.4401
  472TIP3   OH222974   5.061   1.546   1.147  0.1969  0.1841 -0.0258
  472TIP3    H122975   5.140   1.581   1.188  0.3979  1.4821 -1.4136
  472TIP3    H222976   5.086   1.460   1.114 -0.1539 -1.2080  3.0209
  473TIP3   OH222977   0.745   1.742   7.088  0.3229 -0.2133  0.3290
  473TIP3    H122978   0.714   1.694   7.011  1.9513  0.2677 -0.6891
  473TIP3    H222979   0.676   1.732   7.153 -2.4780  1.7912 -2.1156
  474TIP3   OH222980   2.972   2.483   7.380  0.6994  0.2586  0.0097
  474TIP3    H122981   2.881   2.464   7.355  0.9036 -0.0972 -0.4806
  474TIP3    H222982   3.024   2.422   7.327  1.2124  0.3371  0.4247
  475TIP3   OH222983   0.868   4.949   7.138 -0.6632  0.3442  0.1266
  475TIP3    H122984   0.773   4.957   7.130 -0.6214 -0.4799 -1.6654
  475TIP3    H222985   0.897   4.917   7.053  1.2150  0.3716  0.7011
  476TIP3   OH222986   1.180   0.447   0.813  0.8352 -0.0558  0.2974
  476TIP3    H122987   1.257   0.450   0.870  0.4782 -1.4441  0.9012
  476TIP3    H222988   1.127   0.376   0.849 -0.6244  0.7147 -0.2476
  477TIP3   OH222989   2.372   4.535   0.279 -0.8186 -0.4588  0.2298
  477TIP3    H122990   2.394   4.626   0.260  0.0286 -0.3453  1.6122
  477TIP3    H222991   2.345   4.535   0.371 -1.0329 -1.5675  0.1814
  478TIP3   OH222992   5.087   6.688   8.398  0.4687 -0.0389 -0.2573
  478TIP3    H122993   5.178   6.668   8.373  0.0171 -1.2224 -1.0421
  478TIP3    H222994   5.063   6.616   8.457 -0.0655  0.0842 -0.3250
  479TIP3   OH222995   6.457   5.781   8.111 -0.0827  0.5288 -0.0906
  479TIP3    H122996   6.483   5.800   8.201 -2.6455  0.0851  0.8066
  479TIP3    H222997   6.413   5.861   8.082  0.2989  0.4921 -0.8009
  480TIP3   OH222998   4.296   3.487   0.050 -0.1190 -0.3086 -0.6452
  480TIP3    H122999   4.312   3.394   0.068  0.7106 -0.2271 -0.9226
  480TIP3    H223000   4.367   3.512  -0.009 -0.0377  0.6400 -0.1486
  481TIP3   OH223001   1.831   1.935   7.764  0.4174  0.1192 -0.1329
  481TIP3    H123002   1.916   1.928   7.805  0.7707  1.8042 -0.4940
  481TIP3    H223003   1.768   1.908   7.831  1.2356 -1.7770 -0.0780
  482TIP3   OH223004   2.454   2.357   0.209  0.8831 -0.2658 -0.1115
  482TIP3    H123005   2.532   2.413   0.213  0.8286 -0.1680 -0.3817
  482TIP3    H223006   2.411   2.382   0.127  0.4831 -0.2066  0.1135
  483TIP3   OH223007   2.562   0.812   1.375 -0.4964  0.2359  0.1865
  483TIP3    H123008   2.578   0.721   1.401  1.3735 -0.0842 -1.8059
  483TIP3    H223009   2.641   0.859   1.403 -0.5176  0.7994 -0.6734
  484TIP3   OH223010   6.227   0.194   8.169  0.1917 -0.6933  0.1111
  484TIP3    H123011   6.271   0.136   8.232  1.6381  0.4692  0.1981
  484TIP3    H223012   6.297   0.247   8.132 -1.0753  0.8879 -0.1038
  485TIP3   OH223013   2.485   3.800   7.370 -0.2835 -0.0011 -0.0775
  485TIP3    H123014   2.397   3.834   7.357  0.4437  2.3079  0.4105
  485TIP3    H223015   2.503   3.812   7.463  0.8428  0.4318 -0.3272
  486TIP3   OH223016   4.209   6.010   7.521 -0.2513 -0.5034  0.7120
  486TIP3    H123017   4.282   5.954   7.496 -0.3719 -1.4292  2.3076
  486TIP3    H223018   4.223   6.092   7.473 -0.5291 -2.1278 -2.3513
  487TIP3   OH223019   2.138   3.334   1.500 -0.8052  0.2214 -0.3900
  487TIP3    H123020   2.205   3.297   1.442 -1.3535  0.2147 -1.0398
  487TIP3    H223021   2.069   3.364   1.440 -0.7093  1.6225  0.1775
  488TIP3   OH223022   3.548   3.456   1.513 -0.5392  0.0185 -0.5190
  488TIP3    H123023   3.500   3.464   1.595  1.3068 -0.5732  0.6612
  488TIP3    H223024   3.539   3.542   1.471 -3.1389 -0.2565 -0.7055
  489TIP3   OH223025   1.589   4.048   7.098 -0.2924 -0.3539  0.4488
  489TIP3    H123026   1.560   4.136   7.072  0.7345 -0.3091 -0.6756
  489TIP3    H223027   1.544   3.989   7.038 -0.9382 -0.5895  1.1684
  490TIP3   OH223028   1.785   1.729   6.981  0.4898  0.2014  0.0077
  490TIP3    H123029   1.736   1.803   7.016  1.3971  0.7446  0.1469
  490TIP3    H223030   1.828   1.763   6.903  1.1942 -0.0728  0.2701
  491TIP3   OH223031   0.231   1.560   1.062  0.1937 -0.0381 -0.4669
  491TIP3    H123032   0.262   1.479   1.022  1.4548  0.1485  0.1079
  491TIP3    H223033   0.268   1.559   1.150  1.3819  1.7998 -0.8950
  492TIP3   OH223034   6.676   4.021   6.261  0.1929 -0.6398  0.3483
  492TIP3    H123035   6.708   3.964   6.191  1.0550  0.4516 -0.1966
  492TIP3    H223036   6.753   4.073   6.286 -0.5727  0.3315  0.7568
  493TIP3   OH223037   6.352   3.838   0.673  0.4036  0.3153  0.3343
  493TIP3    H123038   6.361   3.858   0.766  1.5275  1.7103 -0.0366
  493TIP3    H223039   6.438   3.807   0.646 -0.1904 -1.0959 -0.0432
  494TIP3   OH223040   6.051   6.406   1.670 -0.0157  0.0958  0.1831
  494TIP3    H123041   5.976   6.350   1.650  1.6096 -2.2191  0.1343
  494TIP3    H223042   6.127   6.355   1.642  1.5796  2.6868 -0.5790
  495TIP3   OH223043   2.851   1.739   1.433  0.2891  0.1485  0.1171
  495TIP3    H123044   2.914   1.767   1.367  2.5045 -2.2244  1.0424
  495TIP3    H223045   2.857   1.804   1.502  2.3005 -0.3720  0.4820
  496TIP3   OH223046   5.255   6.797   2.171  0.7618  0.1602  0.0260
  496TIP3    H123047   5.267   6.885   2.206  1.5059  0.0353  0.0894
  496TIP3    H223048   5.195   6.755   2.233  0.2230  0.6808 -0.1212
  497TIP3   OH223049   6.113   3.223   1.309 -0.2399 -0.1174 -0.0573
  497TIP3    H123050   6.149   3.194   1.225 -1.2972  1.1758 -1.0196
  497TIP3    H223051   6.180   3.281   1.345  0.1018 -0.4476 -0.1594
  498TIP3   OH223052   5.034   2.073   0.138  0.0655  0.2095 -0.3210
  498TIP3    H123053   5.025   1.978   0.127  1.2144  0.1600 -0.9797
  498TIP3    H223054   5.013   2.088   0.231 -0.8593 -0.5741 -0.3852
  499TIP3   OH223055   2.951   6.636   2.363  0.0360  0.0424 -0.3369
  499TIP3    H123056   3.023   6.691   2.333 -0.8399  1.2029 -0.3745
  499TIP3    H223057   2.993   6.555   2.393  1.1144 -0.3781 -2.8079
  500TIP3   OH223058   4.101   5.146   6.859 -0.4747  0.0904  0.2156
  500TIP3    H123059   4.079   5.075   6.919 -0.3043  0.1238  0.3192
  500TIP3    H223060   4.197   5.145   6.855 -0.5188 -1.1217 -1.5011
  501TIP3   OH223061   1.014   0.053   1.428 -0.1810  0.3923  0.0852
  501TIP3    H123062   1.017   0.137   1.382 -0.3976  1.1528  1.3884
  501TIP3    H223063   1.103   0.017   1.418 -0.7890 -0.5692 -2.7642
  502TIP3   OH223064   6.616   2.047   7.389  0.5402 -0.3352  0.4776
  502TIP3    H123065   6.681   2.045   7.460  1.5823 -0.2219 -0.4420
  502TIP3    H223066   6.667   2.066   7.311 -0.3859 -1.7948 -0.5283
  503TIP3   OH223067   6.268   1.768   1.363 -0.0039  0.0453  0.1210
  503TIP3    H123068   6.176   1.790   1.378  0.4024  1.8383  0.1343
  503TIP3    H223069   6.298   1.832   1.299  0.7360 -1.7693 -1.4293
  504TIP3   OH223070   3.961   0.263   7.793  0.1261  0.0789  0.1108
  504TIP3    H123071   3.888   0.214   7.755 -0.5468  0.6935  0.5759
  504TIP3    H223072   4.008   0.198   7.845  0.5755 -0.5765 -1.0856
  505TIP3   OH223073   3.215   6.099   1.956  0.1154 -0.7227 -0.5845
  505TIP3    H123074   3.122   6.123   1.957  0.1910 -0.4300 -0.5911
  505TIP3    H223075   3.228   6.050   2.037  0.5950  1.6661  0.8784
  506TIP3   OH223076   3.067   5.192   1.996 -0.1700 -0.2810 -0.1156
  506TIP3    H123077   3.149   5.153   2.026 -0.3056  0.4345  1.2950
  506TIP3    H223078   3.000   5.153   2.053 -0.3449  1.6655  1.1116
  507TIP3   OH223079   6.894   0.921   7.420 -0.2441  0.2550  0.8810
  507TIP3    H123080   6.868   1.001   7.375 -0.4607 -0.4315 -0.2498
  507TIP3    H223081   6.910   0.858   7.350 -2.2605 -1.3608  1.7588
  508TIP3   OH223082   5.487   3.106   1.898  0.0847 -0.6221 -0.0689
  508TIP3    H123083   5.511   3.105   1.991 -0.6361  2.9221  0.2818
  508TIP3    H223084   5.393   3.085   1.897  0.2075 -1.1699 -0.0456
  509TIP3   OH223085   3.662   2.334   7.026 -0.3839 -0.5332 -0.1493
  509TIP3    H123086   3.583   2.368   6.983  0.8198 -0.0024 -2.0799
  509TIP3    H223087   3.729   2.337   6.958  1.5615 -0.0669  1.6806
  510TIP3   OH223088   5.302   3.434   6.634  0.2138  0.0650  0.3924
  510TIP3    H123089   5.293   3.347   6.672  0.3862 -0.2715 -0.3224
  510TIP3    H223090   5.213   3.466   6.624  0.0024 -1.0260 -1.5972
  511TIP3   OH223091   4.925   1.765   8.306 -0.1164 -0.4151 -0.6490
  511TIP3    H123092   4.998   1.797   8.358 -2.2378 -0.5752  2.7043
  511TIP3    H223093   4.962   1.753   8.218  3.2447  1.5930  0.3063
  512TIP3   OH223094   0.427   2.033   8.416  0.3355  0.3761  0.0377
  512TIP3    H123095   0.464   1.993   8.495  2.0057  3.5797  1.0762
  512TIP3    H223096   0.384   2.113   8.447 -1.6590  0.2078 -2.0131
  513TIP3   OH223097   0.027   2.016   0.016  0.2865  0.0356  0.1729
  513TIP3    H123098  -0.041   2.051   0.074  1.0741  2.4920 -0.2804
  513TIP3    H223099  -0.019   1.955  -0.040 -1.2275  0.4116  0.9492
  514TIP3   OH223100   0.212   5.022   1.890 -0.4975  0.6812  0.0602
  514TIP3    H123101   0.231   4.961   1.962  0.0607 -1.0629 -1.4948
  514TIP3    H223102   0.123   5.000   1.864 -0.1896  0.2791 -0.6961
  515TIP3   OH223103   3.049   4.235   2.743  0.1073  0.2258 -0.5839
  515TIP3    H123104   3.139   4.268   2.741  0.3052 -0.3082 -0.7657
  515TIP3    H223105   3.000   4.295   2.686 -0.1699  1.9321  1.3288
  516TIP3   OH223106   4.787   5.635   0.175  0.7312  0.6248  0.1264
  516TIP3    H123107   4.768   5.686   0.096 -0.2942  0.8555  0.5095
  516TIP3    H223108   4.711   5.648   0.231 -0.1190 -2.2640 -0.2180
  517TIP3   OH223109   2.388   5.245   1.081  0.3320  0.1352  0.9222
  517TIP3    H123110   2.466   5.207   1.042 -1.2709  0.0648 -2.5811
  517TIP3    H223111   2.341   5.171   1.119  0.4945 -0.3437  0.2110
  518TIP3   OH223112   1.951   0.594   0.209  0.1359 -0.0770  0.2777
  518TIP3    H123113   1.933   0.680   0.173 -0.8398 -0.5824 -0.4885
  518TIP3    H223114   2.044   0.581   0.194  0.0368  0.3177 -0.7875
  519TIP3   OH223115   5.160   5.915   1.510  0.0999 -0.4458  0.3132
  519TIP3    H123116   5.213   5.955   1.579  1.3894 -1.0478 -0.2814
  519TIP3    H223117   5.191   5.824   1.505 -1.8219 -1.1662  0.7205
  520TIP3   OH223118   4.804   1.823   2.167 -0.2646  0.1651 -0.6130
  520TIP3    H123119   4.801   1.827   2.262  0.6497 -0.4127 -0.5451
  520TIP3    H223120   4.827   1.732   2.147 -1.1362  0.1017 -1.4110
  521TIP3   OH223121   2.357   4.961   7.423 -0.0999 -0.0194 -0.9329
  521TIP3    H123122   2.434   4.932   7.473  0.2208 -0.7818 -1.8521
  521TIP3    H223123   2.392   4.984   7.337 -0.6159  1.4897 -0.7708
  522TIP3   OH223124   3.445   3.555   0.101  0.2721  0.4207 -0.2197
  522TIP3    H123125   3.520   3.608   0.072 -0.1656  0.3487 -1.5499
  522TIP3    H223126   3.434   3.490   0.032  1.7806 -2.5272  2.0813
  523TIP3   OH223127   0.165   6.344   7.127 -0.6936  0.1292  0.7098
  523TIP3    H123128   0.095   6.311   7.183 -0.9681 -2.0029 -0.7570
  523TIP3    H223129   0.131   6.332   7.038  0.1877  2.3194  0.0081
  524TIP3   OH223130   3.019   3.875   7.711  0.7483 -0.4805  0.2806
  524TIP3    H123131   3.040   3.932   7.637 -1.0255  0.6993  0.6341
  524TIP3    H223132   3.099   3.824   7.725  1.9330  0.9447 -0.9382
  525TIP3   OH223133   6.292   5.540   2.556 -1.0525  0.1290 -0.1624
  525TIP3    H123134   6.258   5.540   2.645 -0.8157 -3.7794  0.1150
  525TIP3    H223135   6.246   5.468   2.513  0.7894  0.1525 -2.3401
  526TIP3   OH223136   6.818   4.336   1.631 -1.1292 -0.1664  0.7835
  526TIP3    H123137   6.816   4.370   1.720 -1.6897  1.1176  0.3067
  526TIP3    H223138   6.756   4.390   1.583  0.6472  0.5367 -0.8574
  527TIP3   OH223139   0.445   1.712   7.114  0.1258 -0.0068 -0.5361
  527TIP3    H123140   0.483   1.672   7.036 -0.7400 -0.0980 -0.9236
  527TIP3    H223141   0.394   1.786   7.080 -1.9697 -1.2600 -0.3104
  528TIP3   OH223142   4.357   5.455   7.336  0.1241 -0.1971  0.4668
  528TIP3    H123143   4.427   5.516   7.313  0.4475 -1.0041 -0.8251
  528TIP3    H223144   4.384   5.417   7.420  0.0760  1.1651  1.1204
  529TIP3   OH223145   3.586   5.309   0.229  0.1068 -0.2610  0.7707
  529TIP3    H123146   3.496   5.341   0.232 -0.1537 -0.9569  0.6718
  529TIP3    H223147   3.620   5.327   0.316  0.0874  0.6031  0.6053
  530TIP3   OH223148   5.301   2.166   2.156 -0.3795  0.0797  1.1452
  530TIP3    H123149   5.227   2.149   2.097  1.3224  0.7202 -1.3583
  530TIP3    H223150   5.364   2.096   2.137  0.6604  0.9150  1.3978
  531TIP3   OH223151   2.823   2.659   6.762  0.0765 -0.3650 -0.0163
  531TIP3    H123152   2.889   2.693   6.823  0.2877  1.3929 -1.1564
  531TIP3    H223153   2.744   2.648   6.815  0.2492  1.1214  0.5918
  532TIP3   OH223154   3.066   0.544   8.218 -0.6290  0.0638 -0.3106
  532TIP3    H123155   3.052   0.620   8.162 -0.3239  1.1381  1.0175
  532TIP3    H223156   3.126   0.574   8.286 -0.3542 -1.4203  0.1598
  533TIP3   OH223157   6.151   5.708   8.059 -0.4657  0.3726  0.3418
  533TIP3    H123158   6.186   5.786   8.103  0.5574  0.4055 -0.4871
  533TIP3    H223159   6.189   5.711   7.971 -1.3005 -0.4763 -0.0635
  534TIP3   OH223160   5.983   6.758   8.022 -0.4164  0.3934  0.2679
  534TIP3    H123161   6.052   6.719   7.968  0.1658  1.1198  0.4798
  534TIP3    H223162   5.982   6.705   8.102 -1.5180 -0.9066 -0.5696
  535TIP3   OH223163   3.971   4.074   7.997  0.5230  0.6317  0.1462
  535TIP3    H123164   3.897   4.133   7.982 -0.9221 -0.8925  0.9088
  535TIP3    H223165   3.976   4.021   7.918  0.3859  0.3068  0.3545
  536TIP3   OH223166   3.613   5.789   7.571  0.0943 -0.3487 -0.2583
  536TIP3    H123167   3.678   5.805   7.503  0.0909 -0.2711 -0.2433
  536TIP3    H223168   3.662   5.796   7.653  0.2743 -1.2785 -0.2784
  537TIP3   OH223169   2.679   4.434   0.585  0.1015  0.0547 -0.1514
  537TIP3    H123170   2.628   4.449   0.664 -2.7687 -0.2918 -1.7946
  537TIP3    H223171   2.747   4.373   0.611 -0.4647  0.3071  2.1176
  538TIP3   OH223172   2.663   1.266   1.242  0.0284  0.0994  0.1201
  538TIP3    H123173   2.745   1.311   1.221  0.0299  1.8903  3.2138
  538TIP3    H223174   2.608   1.334   1.281 -1.3857 -1.8511  1.7588
  539TIP3   OH223175   3.205   4.347   0.746  0.4526 -0.6380  0.5138
  539TIP3    H123176   3.273   4.284   0.723 -0.4495 -1.5350  0.2036
  539TIP3    H223177   3.155   4.358   0.665 -0.2800 -0.6572  0.9568
  540TIP3   OH223178   1.944   4.823   7.562  0.1631  0.1003 -0.1693
  540TIP3    H123179   2.003   4.886   7.603  1.2290 -0.9472 -0.0064
  540TIP3    H223180   1.978   4.812   7.473  0.0550 -0.3046 -0.1656
  541TIP3   OH223181   5.706   5.868   0.215  0.7731 -0.0454 -0.2797
  541TIP3    H123182   5.678   5.778   0.226  2.1456 -0.5124 -0.4633
  541TIP3    H223183   5.800   5.863   0.201  0.9835  1.4581  0.3678
  542TIP3   OH223184   6.387   5.833   0.118  0.0904 -0.2454 -0.0300
  542TIP3    H123185   6.418   5.824   0.209  2.3257 -1.6975 -0.8435
  542TIP3    H223186   6.328   5.758   0.106 -0.2847  0.0019  0.2194
  543TIP3   OH223187   4.913   0.121   8.261 -0.3951 -0.5180  0.2396
  543TIP3    H123188   4.876   0.068   8.190 -1.6784 -0.3823  0.7876
  543TIP3    H223189   4.905   0.065   8.339  2.9395 -1.5377  0.0017
  544TIP3   OH223190   4.870   3.600   7.104  0.4360  0.5497  0.1725
  544TIP3    H123191   4.875   3.627   7.196 -1.3045 -0.0597  0.4854
  544TIP3    H223192   4.777   3.604   7.084  0.5783 -1.1837 -1.0020
  545TIP3   OH223193   3.294   3.165   7.870 -0.1618 -0.1007 -0.2075
  545TIP3    H123194   3.202   3.170   7.844 -0.1635 -0.5608 -0.3009
  545TIP3    H223195   3.342   3.162   7.787 -0.1434 -1.1755 -0.1685
  546TIP3   OH223196   2.691   3.774   0.720  0.4074 -0.4488  0.4287
  546TIP3    H123197   2.724   3.712   0.785  0.2983 -0.6807  0.2615
  546TIP3    H223198   2.755   3.770   0.649 -0.4437 -1.5607 -0.2952
  547TIP3   OH223199   3.369   0.588   7.384 -0.1218 -0.0042 -0.2884
  547TIP3    H123200   3.281   0.618   7.362  0.0288  1.3765  0.8562
  547TIP3    H223201   3.369   0.579   7.479  0.9560 -0.0347 -0.2749
  548TIP3   OH223202   5.780   4.726   1.277 -0.0119 -0.1050 -0.0818
  548TIP3    H123203   5.821   4.812   1.273 -0.2968 -0.0074 -1.2764
  548TIP3    H223204   5.850   4.667   1.306  0.9517  0.1020 -1.8294
  549TIP3   OH223205   3.324   1.692   7.638  0.2179  0.7703 -0.4596
  549TIP3    H123206   3.269   1.740   7.575 -1.5912  0.5695  0.8964
  549TIP3    H223207   3.350   1.613   7.591 -0.3000  1.0786 -1.2985
  550TIP3   OH223208   3.291   3.050   2.840 -0.2990  0.2986 -0.3127
  550TIP3    H123209   3.368   3.037   2.895 -0.4970  0.6127  0.0455
  550TIP3    H223210   3.218   3.051   2.902 -0.6666 -0.6298 -0.6997
  551TIP3   OH223211   1.434   3.483   2.353  0.7023 -0.2014 -0.3322
  551TIP3    H123212   1.363   3.457   2.295  0.3100  0.6374 -0.2453
  551TIP3    H223213   1.500   3.415   2.342  0.9801  0.3288 -2.3485
  552TIP3   OH223214   0.426   6.289   7.621 -0.3945 -0.3167  0.1701
  552TIP3    H123215   0.369   6.219   7.589 -0.8887 -0.5896  1.5707
  552TIP3    H223216   0.510   6.246   7.639 -0.7621 -0.6176  1.2320
  553TIP3   OH223217   2.155   5.028   8.122  0.4933 -0.4210  0.4460
  553TIP3    H123218   2.215   4.969   8.076 -1.0510 -1.8652  0.2024
  553TIP3    H223219   2.196   5.041   8.208  2.2568  0.4794 -0.4655
  554TIP3   OH223220   6.116   6.190   0.506  0.4185 -0.6404 -0.3688
  554TIP3    H123221   6.023   6.175   0.493 -0.0040  0.7462  0.7970
  554TIP3    H223222   6.140   6.133   0.579  0.9815 -2.4780 -1.9080
  555TIP3   OH223223   2.913   0.325   8.280 -0.6039 -0.0729  0.3565
  555TIP3    H123224   2.856   0.334   8.203  0.0666  0.4456 -0.0939
  555TIP3    H223225   2.970   0.401   8.276 -0.4790 -0.1050  1.3168
  556TIP3   OH223226   4.316   0.390   7.509 -0.5317  0.3533 -0.6269
  556TIP3    H123227   4.228   0.424   7.525 -1.4007 -2.0870  0.0835
  556TIP3    H223228   4.306   0.330   7.435  0.7584  0.7450 -1.1596
  557TIP3   OH223229   2.945   3.920   7.077  0.0857  0.3202  0.0141
  557TIP3    H123230   2.851   3.922   7.093  0.0624 -1.4970  0.3627
  557TIP3    H223231   2.956   3.956   6.989 -0.8049  1.5175  0.3757
  558TIP3   OH223232   3.778   4.397   0.151  0.1208  0.2252 -0.3406
  558TIP3    H123233   3.855   4.344   0.132  1.6677  2.3870 -0.5425
  558TIP3    H223234   3.750   4.371   0.238  1.3678 -0.3013 -0.0844
  559TIP3   OH223235   6.353   6.564   1.437 -0.6150 -0.5141 -0.0556
  559TIP3    H123236   6.323   6.618   1.363 -0.8877  0.9730  1.0876
  559TIP3    H223237   6.448   6.562   1.427 -0.7108 -1.2322 -1.0231
  560TIP3   OH223238   2.266   6.479   8.389 -0.1226 -0.3949  0.2094
  560TIP3    H123239   2.277   6.487   8.294  0.1523  0.7549  0.3302
  560TIP3    H223240   2.182   6.521   8.407 -0.7010 -1.5731  0.3594
  561TIP3   OH223241   2.909   5.286   7.019 -0.3355 -0.2515 -0.5289
  561TIP3    H123242   2.826   5.259   6.980 -1.9379  2.6121  0.6386
  561TIP3    H223243   2.927   5.372   6.981  0.7782  0.2910  1.1329
  562TIP3   OH223244   4.886   4.939   8.277 -0.7760  1.1699 -0.0241
  562TIP3    H123245   4.879   4.917   8.184  0.0609 -0.3805  0.2406
  562TIP3    H223246   4.858   4.859   8.322 -4.0681  2.7999  1.1625
  563TIP3   OH223247   5.249   2.966   8.148 -0.2531  0.3505  0.8128
  563TIP3    H123248   5.276   2.887   8.195 -1.5031 -0.4969  0.1788
  563TIP3    H223249   5.201   2.933   8.072 -3.8879  1.6685  2.3215
  564TIP3   OH223250   1.549   1.587   0.524 -0.0200 -0.1987  0.7198
  564TIP3    H123251   1.601   1.554   0.450 -0.3301 -1.6183  1.0955
  564TIP3    H223252   1.604   1.653   0.565  0.7307 -0.3793  0.0316
  565TIP3   OH223253   2.958   0.393   7.267  0.3806  0.1244  0.0738
  565TIP3    H123254   2.960   0.447   7.346  0.4485 -3.0121  2.3909
  565TIP3    H223255   3.051   0.378   7.246  0.4971 -2.1192  1.8118
  566TIP3   OH223256   2.637   6.828   2.387  0.1978 -0.2052  0.2772
  566TIP3    H123257   2.627   6.923   2.393  1.6735  0.0560 -0.7923
  566TIP3    H223258   2.722   6.816   2.346 -0.5601 -1.9710 -0.8929
  567TIP3   OH223259   3.198   5.267   8.369 -0.1235 -0.0666 -0.3158
  567TIP3    H123260   3.180   5.189   8.317  0.0059 -0.8661  0.7948
  567TIP3    H223261   3.192   5.237   8.460 -1.1217  1.4467  0.1570
  568TIP3   OH223262   4.882   6.895   0.190 -0.3617 -0.6192 -0.6511
  568TIP3    H123263   4.914   6.818   0.141  0.0340  0.4883 -2.2168
  568TIP3    H223264   4.958   6.952   0.198  0.1456 -1.5702  3.1588
  569TIP3   OH223265   6.517   2.702   0.241 -0.8311  0.0622  0.7188
  569TIP3    H123266   6.500   2.664   0.327 -0.5968 -1.2681  0.2058
  569TIP3    H223267   6.503   2.630   0.180 -0.6702  0.8963 -0.3370
  570TIP3   OH223268   4.051   4.599   0.434  0.0416 -0.4214 -0.1686
  570TIP3    H123269   4.049   4.625   0.526  1.3561 -0.8478  0.0077
  570TIP3    H223270   4.138   4.624   0.404 -0.4670 -0.0298 -1.3877
  571TIP3   OH223271   1.747   6.393   0.280 -0.0001 -0.5003  0.3193
  571TIP3    H123272   1.728   6.485   0.263  2.8638  0.1224 -0.1125
  571TIP3    H223273   1.839   6.383   0.253  0.1027 -3.2179  1.4120
  572TIP3   OH223274   2.038   0.817   0.504 -0.5805  0.0546  0.2046
  572TIP3    H123275   2.065   0.730   0.534 -0.3800  0.0015 -0.1320
  572TIP3    H223276   1.944   0.819   0.518 -0.7115 -0.5188 -0.5417
  573TIP3   OH223277   6.896   2.538   8.358  0.1576 -0.1351 -0.0272
  573TIP3    H123278   6.806   2.555   8.329 -0.0927 -1.0143  0.2212
  573TIP3    H223279   6.898   2.571   8.448 -0.5899 -2.1565  0.7716
  574TIP3   OH223280   4.381   5.660   8.498 -0.4781  0.2082  0.0053
  574TIP3    H123281   4.450   5.606   8.536  0.9637  1.9751  0.0510
  574TIP3    H223282   4.351   5.715   8.570 -1.2160  0.1698 -0.2657
  575TIP3   OH223283   4.698   3.168   1.847 -0.3428 -0.1664 -0.0750
  575TIP3    H123284   4.619   3.220   1.831 -0.4112 -0.0227  0.6876
  575TIP3    H223285   4.668   3.077   1.840 -1.2654 -0.1984  3.0079
  576TIP3   OH223286   0.723   6.837   0.677 -0.7336 -0.0931  0.2265
  576TIP3    H123287   0.681   6.766   0.628 -2.2343  0.0974  1.2024
  576TIP3    H223288   0.692   6.826   0.767 -1.8890  2.4319  0.2064
  577TIP3   OH223289   0.881   3.439   8.529  0.1637  0.4334 -0.1539
  577TIP3    H123290   0.927   3.488   8.461 -0.1444 -0.4785 -1.0419
  577TIP3    H223291   0.914   3.475   8.611  3.6794 -1.1726 -0.6801
  578TIP3   OH223292   5.668   0.922   8.448 -0.1707  0.3479  0.1307
  578TIP3    H123293   5.658   0.990   8.514  0.0570  1.7868 -1.2754
  578TIP3    H223294   5.745   0.873   8.475  0.3957  1.4244  0.5009
  579TIP3   OH223295   1.784   2.932   8.291 -0.0091  0.1603  0.1682
  579TIP3    H123296   1.857   2.977   8.248  1.3051 -2.2772 -0.3810
  579TIP3    H223297   1.825   2.859   8.337 -1.9436 -0.2004  1.4261
  580TIP3   OH223298   1.267   0.844   2.094 -0.0520  0.1333  0.4669
  580TIP3    H123299   1.265   0.761   2.141  2.1468 -1.0475 -1.2898
  580TIP3    H223300   1.252   0.911   2.161  2.1793 -1.4566  2.7310
  581TIP3   OH223301   3.151   4.050   1.527 -0.6121 -0.4310 -0.2516
  581TIP3    H123302   3.175   4.028   1.437  2.7558  0.9382  0.1279
  581TIP3    H223303   3.144   3.965   1.572  0.1767 -1.0660 -1.2813
  582TIP3   OH223304   6.271   6.340   1.114 -0.1660 -0.4427  0.4998
  582TIP3    H123305   6.200   6.297   1.068 -0.0583 -1.0634  0.8924
  582TIP3    H223306   6.228   6.393   1.181 -0.2537 -1.2731  1.1199
  583TIP3   OH223307   2.476   6.800   8.069 -0.1703 -0.7089  0.2467
  583TIP3    H123308   2.399   6.856   8.084 -0.5267 -0.8663 -0.9042
  583TIP3    H223309   2.522   6.841   7.996  1.9584  0.4975  2.1624
  584TIP3   OH223310   1.496   2.591   1.574 -0.0952  0.1710 -0.7920
  584TIP3    H123311   1.407   2.626   1.573 -0.0996  0.4920  2.4173
  584TIP3    H223312   1.552   2.667   1.591  0.4499 -0.4748  0.4237
  585TIP3   OH223313   3.354   2.737   8.263 -0.1735 -0.2609 -0.0872
  585TIP3    H123314   3.288   2.806   8.269 -1.0697 -1.1872  1.0047
  585TIP3    H223315   3.358   2.715   8.170 -1.1083  0.0760 -0.2102
  586TIP3   OH223316   1.114   5.873   7.298 -0.0712  0.2314  0.3632
  586TIP3    H123317   1.143   5.872   7.390 -1.1625  0.1509  0.7130
  586TIP3    H223318   1.110   5.966   7.275 -0.6386  0.2800  0.6640
  587TIP3   OH223319   5.771   4.831   6.527 -0.2643  0.5117  0.7412
  587TIP3    H123320   5.699   4.798   6.474  0.3023 -1.1310  0.9406
  587TIP3    H223321   5.751   4.924   6.539 -0.7635  0.8225 -1.7715
  588TIP3   OH223322   1.704   3.779   0.155  0.6200 -0.1841 -0.1501
  588TIP3    H123323   1.785   3.745   0.193 -0.2859 -0.3138  1.7589
  588TIP3    H223324   1.642   3.707   0.161 -0.6692  0.9787  1.8818
  589TIP3   OH223325   4.299   5.353   1.754  0.4492  0.1444 -0.2053
  589TIP3    H123326   4.334   5.422   1.809  0.4613  0.0582 -0.1051
  589TIP3    H223327   4.222   5.392   1.712  1.1155  0.5965 -1.0467
  590TIP3   OH223328   2.047   2.580   7.921 -0.1007 -0.2317 -0.3696
  590TIP3    H123329   2.107   2.564   7.849 -1.4188  1.1954 -1.8904
  590TIP3    H223330   2.017   2.493   7.947 -0.3163 -0.7654 -2.2273
  591TIP3   OH223331   2.579   2.538   7.768  0.1571 -0.4186 -0.1226
  591TIP3    H123332   2.617   2.523   7.681 -0.2772  0.2499 -0.4443
  591TIP3    H223333   2.652   2.568   7.821  0.2841 -0.1169 -0.4629
  592TIP3   OH223334   2.347   4.581   7.361 -0.3442 -0.2465  0.2065
  592TIP3    H123335   2.300   4.531   7.294 -0.1127  0.8283 -0.7897
  592TIP3    H223336   2.433   4.596   7.324  0.0119 -0.1970  1.0334
  593TIP3   OH223337   6.442   0.400   6.939 -0.4109 -0.1535 -0.2027
  593TIP3    H123338   6.463   0.426   6.850  0.1934  3.0002  0.7504
  593TIP3    H223339   6.360   0.446   6.959  1.0621  1.7580  1.8253
  594TIP3   OH223340   3.566   4.687   1.992 -0.3040 -0.1306 -0.4982
  594TIP3    H123341   3.656   4.657   1.996  0.5904  2.3245 -0.4221
  594TIP3    H223342   3.560   4.754   2.060 -1.6134  1.0851 -1.7445
  595TIP3   OH223343   1.619   4.573   0.026  0.5101  0.1126  0.4127
  595TIP3    H123344   1.674   4.616  -0.039 -1.4693  1.8843 -0.2249
  595TIP3    H223345   1.613   4.635   0.098 -2.2972  1.0149 -0.4603
  596TIP3   OH223346   6.215   6.437   0.838 -0.8452  0.4933 -0.1377
  596TIP3    H123347   6.130   6.457   0.800 -0.7121 -2.6239 -2.5242
  596TIP3    H223348   6.199   6.361   0.893  0.3010  0.1336 -0.2759
  597TIP3   OH223349   4.783   3.396   6.348 -0.0650  0.6136  0.1717
  597TIP3    H123350   4.852   3.461   6.336 -2.0455  3.0101  1.0486
  597TIP3    H223351   4.707   3.432   6.302 -1.2936 -1.0011  0.8447
  598TIP3   OH223352   6.372   4.457   7.719  0.0350  0.7852  0.4722
  598TIP3    H123353   6.388   4.541   7.761  1.8307  1.5745 -1.6140
  598TIP3    H223354   6.319   4.478   7.642  0.5058  0.0112 -0.0782
  599TIP3   OH223355   2.027   6.323   1.109 -0.1868 -0.5872  0.3551
  599TIP3    H123356   2.061   6.282   1.189 -0.5429 -1.9243 -0.1551
  599TIP3    H223357   2.103   6.329   1.051 -0.0007  0.0668  0.6627
  600TIP3   OH223358   4.401   5.238   0.199 -0.1069 -0.2580 -0.0275
  600TIP3    H123359   4.408   5.260   0.106  0.9065 -0.0969  0.0781
  600TIP3    H223360   4.308   5.219   0.212 -0.4419  0.7480 -0.8351
  601TIP3   OH223361   5.641   2.212   1.883 -0.2746 -0.5938  0.5441
  601TIP3    H123362   5.659   2.263   1.962 -2.2704 -1.1957  1.4482
  601TIP3    H223363   5.576   2.147   1.910 -3.0175  0.7864 -2.1083
  602TIP3   OH223364   6.245   2.921   1.536  0.1981 -0.6646 -0.1204
  602TIP3    H123365   6.272   3.010   1.557 -0.4284 -0.3668 -0.5401
  602TIP3    H223366   6.323   2.867   1.551  1.3230  0.2812 -2.2020
  603TIP3   OH223367   5.533   4.765   6.393  0.1787 -0.2615 -0.1768
  603TIP3    H123368   5.469   4.808   6.335 -0.2194 -1.9342 -1.0294
  603TIP3    H223369   5.492   4.767   6.479 -0.6941 -0.6209 -0.5702
  604TIP3   OH223370   2.793   6.063   0.197  0.0898 -0.0721 -0.4952
  604TIP3    H123371   2.756   6.148   0.218 -1.2252 -1.1538  2.0680
  604TIP3    H223372   2.729   6.023   0.138 -0.1296  0.1005 -0.3761
  605TIP3   OH223373   1.129   6.344   1.497  0.2389 -0.2066  0.2398
  605TIP3    H123374   1.070   6.272   1.520 -1.1514  0.2816 -1.5736
  605TIP3    H223375   1.189   6.308   1.432 -0.8384  0.3662 -1.1213
  606TIP3   OH223376   6.018   2.795   1.643  0.1015  0.7959  0.2209
  606TIP3    H123377   6.006   2.784   1.549  2.4921 -1.2293  0.0572
  606TIP3    H223378   6.099   2.846   1.651  0.2622  0.4155  1.1761
  607TIP3   OH223379   3.085   4.619   2.000  0.0840 -0.5458 -0.0206
  607TIP3    H123380   3.072   4.714   2.005 -0.3688 -0.6081  0.0635
  607TIP3    H223381   3.149   4.607   1.931  2.4823  0.0256  1.9619
  608TIP3   OH223382   6.664   0.329   0.619 -0.3648 -0.9762  0.1423
  608TIP3    H123383   6.662   0.250   0.566 -0.3263 -0.6556 -0.3447
  608TIP3    H223384   6.578   0.369   0.607 -0.1200 -0.5478 -0.2355
  609TIP3   OH223385   1.465   5.562   8.161  0.1683 -0.2905 -0.3161
  609TIP3    H123386   1.448   5.614   8.240 -2.1746  0.1432 -1.0304
  609TIP3    H223387   1.527   5.615   8.111 -1.3772  1.4063 -0.5443
  610TIP3   OH223388   0.125   1.084   1.598  0.1871 -0.1243 -0.0015
  610TIP3    H123389   0.167   1.095   1.683 -1.1010  0.1464  0.6228
  610TIP3    H223390   0.074   1.164   1.585  0.1228 -0.2893 -0.8852
  611TIP3   OH223391   1.397   5.783   7.740 -0.0874 -0.6519 -0.2119
  611TIP3    H123392   1.485   5.776   7.704 -0.5747 -1.4248 -1.3181
  611TIP3    H223393   1.383   5.699   7.784 -0.4133 -0.6905 -0.3846
  612TIP3   OH223394   1.677   3.172   8.103  0.0728  0.5881 -0.0763
  612TIP3    H123395   1.767   3.160   8.132  0.3149  2.0745 -0.1059
  612TIP3    H223396   1.643   3.084   8.092  1.2937 -0.0007  0.6442
  613TIP3   OH223397   2.561   0.214   8.331 -0.0979 -0.2087  0.4085
  613TIP3    H123398   2.599   0.276   8.393  1.8735  0.7249 -1.5734
  613TIP3    H223399   2.503   0.267   8.276  1.1139 -0.1711 -0.9004
  614TIP3   OH223400   0.716   0.612   8.422 -0.3340  0.3002 -0.5293
  614TIP3    H123401   0.670   0.558   8.358  0.1203 -1.0946  0.2827
  614TIP3    H223402   0.779   0.662   8.371  1.0818 -1.9050 -1.0669
  615TIP3   OH223403   6.797   3.655   2.911  0.0319 -0.0615 -0.0988
  615TIP3    H123404   6.763   3.690   2.994  1.1613  1.3999 -0.2206
  615TIP3    H223405   6.883   3.618   2.934 -1.0062 -2.6408 -0.0260
  616TIP3   OH223406   1.963   3.525   1.735 -0.5417 -0.5340 -0.1680
  616TIP3    H123407   2.029   3.515   1.667 -0.8027 -2.1282 -0.2123
  616TIP3    H223408   1.885   3.481   1.701 -1.0558 -0.3036  0.6635
  617TIP3   OH223409   0.666   4.676   1.373  0.5868 -0.4558  0.5167
  617TIP3    H123410   0.748   4.725   1.383  0.1837  0.3545 -0.0550
  617TIP3    H223411   0.673   4.604   1.436  0.7725  0.9092  2.1151
  618TIP3   OH223412   3.444   1.209   0.176 -0.3332  0.1325 -0.1287
  618TIP3    H123413   3.537   1.192   0.184 -0.4428 -0.2962  0.2997
  618TIP3    H223414   3.408   1.187   0.263 -0.9395 -0.4619 -0.5185
  619TIP3   OH223415   3.811   0.622   1.626 -0.4356  0.6881  0.0041
  619TIP3    H123416   3.736   0.563   1.621 -0.9907  1.1885  1.7990
  619TIP3    H223417   3.885   0.565   1.646 -0.8387  0.4823  0.9847
  620TIP3   OH223418   0.655   0.862   1.511 -0.2744 -0.1290 -0.4121
  620TIP3    H123419   0.625   0.816   1.590 -2.9225  1.0539 -0.6336
  620TIP3    H223420   0.625   0.807   1.439  0.9999 -0.5399 -0.6578
  621TIP3   OH223421   3.027   6.649   1.413  0.0237  0.7085 -0.1698
  621TIP3    H123422   3.111   6.655   1.459  0.0781 -1.8261  0.1671
  621TIP3    H223423   3.048   6.606   1.330 -0.9536 -0.1563  0.0130
  622TIP3   OH223424   1.414   2.024   1.252  0.3536 -0.6235  0.4300
  622TIP3    H123425   1.332   2.037   1.299  0.1891 -2.5652  0.7578
  622TIP3    H223426   1.478   2.079   1.298 -0.7204  0.8963  0.1794
  623TIP3   OH223427   1.179   0.083   8.142  0.2421  0.4541 -0.3533
  623TIP3    H123428   1.180   0.179   8.142  0.3013  0.4846  1.1846
  623TIP3    H223429   1.269   0.059   8.164 -0.1075  0.0952  0.7395
  624TIP3   OH223430   3.914   2.169   6.954 -1.6152  0.3630  0.2361
  624TIP3    H123431   3.862   2.122   7.019 -0.4816 -2.0725 -0.5148
  624TIP3    H223432   3.849   2.204   6.893 -2.5932  1.3641  1.7622
  625TIP3   OH223433   6.271   2.218   0.920  0.4599  0.3205  0.0488
  625TIP3    H123434   6.353   2.173   0.899  1.0719  1.3023  0.2488
  625TIP3    H223435   6.277   2.235   1.014 -0.6992 -0.9877  0.3916
  626TIP3   OH223436   3.623   3.784   2.328  0.0683  0.2685 -0.1471
  626TIP3    H123437   3.542   3.734   2.326  1.0663 -1.3885 -0.5468
  626TIP3    H223438   3.629   3.825   2.241  1.1249 -2.1215 -1.2948
  627TIP3   OH223439   0.732   0.525   1.553 -0.5331 -0.0735 -0.3435
  627TIP3    H123440   0.685   0.557   1.476  0.1470  1.9315  0.0208
  627TIP3    H223441   0.693   0.573   1.626  0.9070  0.3606  0.1677
  628TIP3   OH223442   2.409   4.056   1.747 -0.4141 -0.1745  0.1866
  628TIP3    H123443   2.378   4.069   1.837  0.6465  1.2574  0.3811
  628TIP3    H223444   2.452   4.139   1.724 -1.0004 -0.3668 -1.7950
  629TIP3   OH223445   3.360   5.707   1.207  0.2684 -0.9130 -0.7638
  629TIP3    H123446   3.300   5.685   1.135 -0.1008 -0.6894 -0.5292
  629TIP3    H223447   3.437   5.742   1.164 -0.0967 -0.4362 -1.0458
  630TIP3   OH223448   4.555   0.079   7.988  0.1093  0.1876  0.7485
  630TIP3    H123449   4.586   0.162   7.953  2.0036  0.1283  2.1492
  630TIP3    H223450   4.497   0.104   8.060 -1.7117  0.2627 -0.6477
  631TIP3   OH223451   0.887   4.274   1.005 -0.1242  0.8479 -0.7570
  631TIP3    H123452   0.940   4.312   0.936 -0.0687  0.3687 -0.9791
  631TIP3    H223453   0.926   4.306   1.086  1.5818 -0.8437 -0.8359
  632TIP3   OH223454   5.793   2.108   1.664  0.3688 -0.3125 -0.0897
  632TIP3    H123455   5.738   2.128   1.740 -2.1553 -0.6048 -1.7461
  632TIP3    H223456   5.874   2.157   1.681  0.1238 -0.7598  2.9888
  633TIP3   OH223457   0.048   2.592   0.065 -0.4370  0.2754 -0.4199
  633TIP3    H123458  -0.017   2.653   0.099 -0.5619 -0.3552  0.4956
  633TIP3    H223459   0.122   2.599   0.124  0.2997  0.8994 -1.3907
  634TIP3   OH223460   4.569   1.792   1.666 -0.2396 -0.0351 -0.2543
  634TIP3    H123461   4.658   1.758   1.663  1.4383  3.6536  1.5076
  634TIP3    H223462   4.549   1.798   1.760 -0.8543  2.4268 -0.4810
  635TIP3   OH223463   6.296   0.095   7.149  0.1772  0.0065 -0.2612
  635TIP3    H123464   6.268   0.006   7.170  2.3199 -1.1796 -1.9909
  635TIP3    H223465   6.337   0.087   7.063 -0.7078  2.9495 -1.0501
  636TIP3   OH223466   3.266   3.338   1.177  0.4898 -0.2029  0.3210
  636TIP3    H123467   3.355   3.358   1.149  0.9166 -1.4388  0.7398
  636TIP3    H223468   3.274   3.257   1.227 -1.0168 -0.8764 -0.4638
  637TIP3   OH223469   4.138   2.599   2.435 -0.2401  0.1333  0.3201
  637TIP3    H123470   4.195   2.675   2.448  0.4031 -0.3958  0.6170
  637TIP3    H223471   4.049   2.635   2.438  0.0319  0.7643  1.2139
  638TIP3   OH223472   3.578   3.515   0.823  0.1026  0.4063 -0.3620
  638TIP3    H123473   3.498   3.464   0.812  0.5080 -0.0759 -1.2162
  638TIP3    H223474   3.648   3.454   0.802  0.8305  0.3577  1.9277
  639TIP3   OH223475   3.970   0.132   7.148  0.0460 -0.0668 -0.1545
  639TIP3    H123476   3.959   0.227   7.153 -1.9490 -0.2594 -0.0130
  639TIP3    H223477   3.898   0.103   7.094  0.2526 -1.5764  0.3489
  640TIP3   OH223478   0.207   1.157   6.294 -0.9870  0.5724  0.0279
  640TIP3    H123479   0.131   1.169   6.237 -0.5986  0.0409 -0.6219
  640TIP3    H223480   0.248   1.243   6.299 -1.7231  0.9055  0.5334
  641TIP3   OH223481   5.311   0.061   0.736  0.1139  0.2201 -0.5884
  641TIP3    H123482   5.355   0.128   0.787 -0.7957 -2.3180  4.0955
  641TIP3    H223483   5.220   0.090   0.729 -0.0934 -0.0643  0.6988
  642TIP3   OH223484   2.863   1.830   1.690  0.0274 -1.1028 -0.0070
  642TIP3    H123485   2.938   1.771   1.681 -0.0166 -1.1585 -0.0099
  642TIP3    H223486   2.830   1.813   1.778  0.4968 -0.5134  0.2887
  643TIP3   OH223487   2.957   1.021   8.441  0.3738  0.1619  0.9227
  643TIP3    H123488   2.891   1.084   8.470 -0.3577  0.9155 -2.0276
  643TIP3    H223489   3.031   1.075   8.412  0.4840 -0.4441  0.0533
  644TIP3   OH223490   2.036   0.641   1.235 -0.7490 -0.0991 -0.1664
  644TIP3    H123491   2.058   0.677   1.149 -1.4960 -1.4585 -0.9615
  644TIP3    H223492   2.116   0.648   1.286  0.1449 -0.6032 -1.4611
  645TIP3   OH223493   6.093   6.860   1.514 -0.2379 -0.1869 -0.2767
  645TIP3    H123494   6.137   6.884   1.432  0.5954  0.3968  0.3140
  645TIP3    H223495   6.000   6.875   1.497 -0.0325  0.3555 -0.9747
  646TIP3   OH223496   4.442   6.663   8.063  0.2893  0.1446  0.0215
  646TIP3    H123497   4.497   6.703   8.131  0.0314 -1.8037  1.4572
  646TIP3    H223498   4.353   6.671   8.096  0.0009  0.4765 -0.8057
  647TIP3   OH223499   5.827   4.550   1.921 -0.3298  0.2117  0.4467
  647TIP3    H123500   5.808   4.494   1.846  0.6317  0.9995 -0.4180
  647TIP3    H223501   5.759   4.618   1.919  1.2228  1.8534 -1.4382
  648TIP3   OH223502   5.592   3.538   0.486  0.5983 -0.8182  0.1252
  648TIP3    H123503   5.673   3.585   0.507  0.7191 -0.5172 -0.9526
  648TIP3    H223504   5.602   3.515   0.394 -0.6672 -0.5418 -0.0904
  649TIP3   OH223505   5.619   3.108   0.408  0.1583  0.1616 -0.0692
  649TIP3    H123506   5.556   3.051   0.364  0.8657  0.9739 -2.2498
  649TIP3    H223507   5.694   3.113   0.348  0.6028  2.4416  0.5692
  650TIP3   OH223508   2.830   6.177   1.773 -0.2649  0.0019  0.1349
  650TIP3    H123509   2.833   6.183   1.869 -0.5008  1.0685  0.0871
  650TIP3    H223510   2.828   6.268   1.743 -0.0578 -0.3209 -0.8937
  651TIP3   OH223511   3.558   1.694   0.455  0.0056 -0.2031 -0.3518
  651TIP3    H123512   3.513   1.770   0.492 -0.1885 -0.8297  0.7338
  651TIP3    H223513   3.614   1.663   0.527  1.0229 -0.3420 -1.1880
  652TIP3   OH223514   0.840   1.541   1.521 -0.1330 -0.0770  0.2937
  652TIP3    H123515   0.864   1.615   1.578 -0.2905  0.0943  0.1377
  652TIP3    H223516   0.885   1.466   1.559  0.4343  0.1944  0.1618
  653TIP3   OH223517   2.292   3.669   0.300  0.7067 -0.4446 -0.0581
  653TIP3    H123518   2.289   3.697   0.208 -1.0521 -1.3714 -0.3354
  653TIP3    H223519   2.354   3.728   0.341  2.3485 -0.6417 -2.0554
  654TIP3   OH223520   6.282   5.367   7.212 -0.9669  0.4098  0.0275
  654TIP3    H123521   6.193   5.332   7.213 -0.5292 -0.7278  0.5042
  654TIP3    H223522   6.274   5.450   7.259 -1.9618  0.8385 -0.8496
  655TIP3   OH223523   2.685   6.194   1.424 -0.0541  0.0572  0.4737
  655TIP3    H123524   2.736   6.275   1.423 -1.3108  0.9127 -1.7045
  655TIP3    H223525   2.666   6.178   1.516  1.8586  1.1398  1.1131
  656TIP3   OH223526   3.467   3.494   1.102 -0.2796  0.1421  0.0002
  656TIP3    H123527   3.540   3.541   1.142 -1.8508  1.0095  2.0539
  656TIP3    H223528   3.496   3.474   1.013  2.6546 -0.1110  0.9338
  657TIP3   OH223529   4.928   3.594   0.122 -0.0826  0.4770 -0.3567
  657TIP3    H123530   4.945   3.569   0.031 -0.8696 -0.3686 -0.2900
  657TIP3    H223531   4.858   3.659   0.116  0.7513  1.3973 -0.4181
  658TIP3   OH223532   3.447   1.146   8.361  0.5548  0.0076  0.2140
  658TIP3    H123533   3.542   1.137   8.356  0.4404 -0.6004 -3.4905
  658TIP3    H223534   3.428   1.228   8.317 -0.7010 -0.7902 -0.7915
  659TIP3   OH223535   6.039   5.081   6.641  0.3195  0.2964 -0.3642
  659TIP3    H123536   6.061   5.136   6.716 -0.6062  2.0028 -1.2756
  659TIP3    H223537   6.116   5.085   6.584  1.1530 -1.2606  0.5616
  660TIP3   OH223538   1.612   2.143   0.525  0.4825 -0.1054 -0.2050
  660TIP3    H123539   1.569   2.057   0.532 -0.7263  0.5005  0.1269
  660TIP3    H223540   1.704   2.125   0.541  0.1408 -1.2392  0.6121
  661TIP3   OH223541   4.301   0.596   7.899 -0.2452 -0.8024  0.1026
  661TIP3    H123542   4.239   0.540   7.852 -0.5383 -0.3133 -0.0973
  661TIP3    H223543   4.376   0.603   7.840 -0.9025  0.4003 -0.6409
  662TIP3   OH223544   2.529   3.782   2.488  0.2194 -0.4496  0.0016
  662TIP3    H123545   2.434   3.772   2.499  0.4926 -2.2753  1.0103
  662TIP3    H223546   2.566   3.700   2.521  2.1558  0.1719 -0.5036
  663TIP3   OH223547   6.798   5.156   0.745  0.5090 -0.2378  0.1886
  663TIP3    H123548   6.888   5.172   0.776  0.5789 -1.3311  0.5863
  663TIP3    H223549   6.764   5.244   0.728  1.8442  0.1783 -0.5537
  664TIP3   OH223550   2.266   3.072   0.435 -0.3661 -0.1412 -0.3699
  664TIP3    H123551   2.196   3.022   0.392  0.1236  0.5726 -2.1027
  664TIP3    H223552   2.347   3.034   0.401  0.0167  1.5676 -1.5142
  665TIP3   OH223553   3.678   3.866   7.922  0.0989  0.1113  0.0133
  665TIP3    H123554   3.632   3.851   7.839 -0.9001  0.6881  0.4348
  665TIP3    H223555   3.704   3.959   7.918 -1.7639  0.7450  1.1603
  666TIP3   OH223556   5.892   4.914   6.818  0.3504 -0.1980 -0.2008
  666TIP3    H123557   5.820   4.965   6.856 -1.8550 -1.8372 -1.9373
  666TIP3    H223558   5.933   4.975   6.757 -1.4765 -0.0514 -1.3654
  667TIP3   OH223559   2.790   6.619   8.447  0.4876 -0.0838 -0.6700
  667TIP3    H123560   2.713   6.594   8.396  0.6334  2.1900 -2.1668
  667TIP3    H223561   2.775   6.711   8.469  1.8036 -0.2054  0.9013
  668TIP3   OH223562   3.030   3.665   6.991 -0.0270  1.0559 -0.0969
  668TIP3    H123563   2.989   3.732   7.045 -0.4766  0.6343  0.0977
  668TIP3    H223564   2.987   3.673   6.906 -2.1481 -0.8033  0.7028
  669TIP3   OH223565   3.494   4.631   2.672 -0.1671  0.4729 -0.7895
  669TIP3    H123566   3.424   4.582   2.630 -0.1052 -1.0024  0.7451
  669TIP3    H223567   3.566   4.630   2.608 -0.5578 -0.4861 -1.2255
  670TIP3   OH223568   4.952   0.643   7.656  0.2238 -0.5389 -0.1737
  670TIP3    H123569   5.030   0.670   7.705 -0.0759 -0.7036  0.4122
  670TIP3    H223570   4.934   0.555   7.688 -0.6237 -0.2292  0.2334
  671TIP3   OH223571   2.938   5.913   1.709  0.2315  0.6349 -0.2381
  671TIP3    H123572   2.995   5.908   1.632 -1.4068 -1.0568 -1.4460
  671TIP3    H223573   2.929   6.007   1.727  4.2342  0.9917  0.7721
  672TIP3   OH223574   6.062   2.455   1.449 -0.0670 -0.5966  0.1735
  672TIP3    H123575   6.057   2.439   1.544 -0.4891  0.1377  0.2871
  672TIP3    H223576   6.156   2.462   1.431  0.2095 -3.4575  0.0336
  673TIP3   OH223577   0.063   1.585   1.968  0.4776 -0.4819 -0.2828
  673TIP3    H123578   0.020   1.610   1.887  2.7396 -0.2513 -1.4852
  673TIP3    H223579   0.065   1.665   2.020 -0.5422 -0.5169 -0.1547
  674TIP3   OH223580   0.765   2.125   1.342  0.2934  0.1691 -0.7745
  674TIP3    H123581   0.842   2.112   1.287 -0.4702 -0.5150 -1.7176
  674TIP3    H223582   0.693   2.139   1.281 -0.3620  0.6702  0.0850
  675TIP3   OH223583   6.715   0.179   0.324 -0.4508 -0.8240 -0.2722
  675TIP3    H123584   6.675   0.257   0.287 -0.2374 -1.5597 -2.1582
  675TIP3    H223585   6.641   0.119   0.339 -0.6253 -0.2742  1.2562
  676TIP3   OH223586   1.308   3.090   6.654 -0.4011 -0.0668  0.1496
  676TIP3    H123587   1.262   3.171   6.630  0.0455 -0.2343 -1.4422
  676TIP3    H223588   1.244   3.039   6.703 -0.6542  1.2835  1.2902
  677TIP3   OH223589   2.711   0.492   0.297  0.3067 -0.4025 -0.0019
  677TIP3    H123590   2.656   0.553   0.347  2.0837 -0.1138  1.6866
  677TIP3    H223591   2.730   0.538   0.215  0.5804  0.7940  0.7209
  678TIP3   OH223592   0.028   5.079   8.129 -0.3619 -0.5004  0.2025
  678TIP3    H123593   0.008   4.988   8.151 -0.2279 -0.3555  0.9187
  678TIP3    H223594   0.058   5.118   8.211  1.6555 -0.3701 -0.5305
  679TIP3   OH223595   0.091   3.474   7.107  0.0400  0.1287  0.4290
  679TIP3    H123596   0.127   3.386   7.119  0.0261  0.0492 -0.0901
  679TIP3    H223597   0.165   3.532   7.125  0.4633 -0.0371 -0.7220
  680TIP3   OH223598   1.050   1.934   7.191 -0.0769 -0.2194 -0.2820
  680TIP3    H123599   1.088   1.924   7.278 -0.8061 -0.7660 -0.0165
  680TIP3    H223600   0.960   1.961   7.207  0.0796  0.7242 -0.8985
  681TIP3   OH223601   4.156   2.239   1.250  0.5953  0.0194  0.2230
  681TIP3    H123602   4.197   2.157   1.279 -0.7227 -1.0818 -0.8464
  681TIP3    H223603   4.123   2.279   1.330 -2.2108 -2.5318  0.5440
  682TIP3   OH223604   3.324   0.579   6.914  0.5857 -0.2225 -0.7785
  682TIP3    H123605   3.320   0.548   6.823 -1.6627 -0.1638 -0.7749
  682TIP3    H223606   3.348   0.672   6.907  0.1298 -0.1390 -1.3664
  683TIP3   OH223607   5.938   3.428   7.834  0.1400 -0.1888 -0.4450
  683TIP3    H123608   5.941   3.345   7.787  1.1570 -0.5025  0.1494
  683TIP3    H223609   6.026   3.464   7.825  0.3665 -0.2550  1.2005
  684TIP3   OH223610   6.740   3.402   8.026 -0.3558 -0.2063 -0.1419
  684TIP3    H123611   6.811   3.449   7.982  0.4247 -0.1250  1.1435
  684TIP3    H223612   6.718   3.457   8.101 -1.0271 -0.7750  0.0889
  685TIP3   OH223613   3.857   4.838   1.896  0.1966 -0.1703 -0.5669
  685TIP3    H123614   3.945   4.864   1.924 -1.1984  2.6157  1.7708
  685TIP3    H223615   3.840   4.893   1.819 -0.7150  2.1493  1.1538
  686TIP3   OH223616   2.864   6.463   1.753  0.4622  0.7021 -0.2267
  686TIP3    H123617   2.831   6.541   1.707  0.4725 -0.2703 -1.9663
  686TIP3    H223618   2.900   6.497   1.835 -0.8194  2.3406 -0.2935
  687TIP3   OH223619   3.248   1.722   8.292  0.0021 -0.8635 -0.0844
  687TIP3    H123620   3.224   1.800   8.242  1.7513 -0.8172 -0.9348
  687TIP3    H223621   3.261   1.754   8.381  1.3076 -0.0160 -0.5427
  688TIP3   OH223622   5.326   4.843   7.342 -0.5098  0.0617  0.1863
  688TIP3    H123623   5.337   4.922   7.394  3.4378 -0.7726  0.9514
  688TIP3    H223624   5.311   4.773   7.406 -1.4268 -0.2078 -0.2936
  689TIP3   OH223625   3.719   6.289   6.516  0.9369  0.2215  0.1858
  689TIP3    H123626   3.713   6.384   6.524  0.9950  0.6937 -3.6705
  689TIP3    H223627   3.632   6.257   6.542  1.3741  1.0444  3.0247
  690TIP3   OH223628   1.081   2.271   8.175  0.1915 -0.1989 -0.3396
  690TIP3    H123629   1.162   2.235   8.139 -0.1819 -1.6096  0.1603
  690TIP3    H223630   1.062   2.215   8.251 -0.9653  0.4490 -0.1378
  691TIP3   OH223631   2.673   0.553   7.254 -0.8264 -0.3356  0.6665
  691TIP3    H123632   2.582   0.553   7.282 -0.9680  2.8884  0.5517
  691TIP3    H223633   2.721   0.589   7.328 -0.6796  4.5088 -1.4401
  692TIP3   OH223634   3.456   1.552   7.168  0.3382  0.3511  0.5283
  692TIP3    H123635   3.471   1.458   7.161  1.7673  0.5463  0.7209
  692TIP3    H223636   3.511   1.590   7.099  0.0675  1.0735  0.7000
  693TIP3   OH223637   6.760   0.592   0.545 -0.3550  0.0045 -0.4583
  693TIP3    H123638   6.820   0.638   0.603 -0.3352  0.3779 -0.7763
  693TIP3    H223639   6.754   0.504   0.583  0.2936 -0.0013 -0.3526
  694TIP3   OH223640   3.486   0.280   7.941 -0.2410 -0.5144 -0.4028
  694TIP3    H123641   3.538   0.256   8.018  0.8932 -1.2565 -1.3678
  694TIP3    H223642   3.513   0.369   7.921 -2.6887  0.8593  1.7403
  695TIP3   OH223643   3.297   0.624   0.321 -0.1566  0.1122 -0.1876
  695TIP3    H123644   3.365   0.580   0.269 -1.3321 -0.6494 -1.1219
  695TIP3    H223645   3.292   0.712   0.282 -0.4149 -0.1668 -0.7989
  696TIP3   OH223646   2.172   3.615   1.572  0.2500 -0.0693  0.5194
  696TIP3    H123647   2.226   3.688   1.602  1.3995  0.4234 -2.4011
  696TIP3    H223648   2.232   3.541   1.569  0.2269 -0.0562 -0.6300
  697TIP3   OH223649   3.149   3.187   6.861 -0.2456  0.5228  0.4513
  697TIP3    H123650   3.227   3.153   6.904  0.4633  0.4190 -0.8694
  697TIP3    H223651   3.097   3.225   6.932  0.4277 -0.4763  1.5172
  698TIP3   OH223652   0.993   2.466   2.716 -0.0931 -0.1166 -0.0590
  698TIP3    H123653   0.982   2.561   2.709  1.1806  0.0356 -0.3522
  698TIP3    H223654   1.084   2.451   2.690  0.2176 -1.2485  1.5130
  699TIP3   OH223655   1.682   6.091   0.784  0.3752 -0.1225 -0.4774
  699TIP3    H123656   1.727   6.118   0.864  5.0309 -4.5740 -1.0253
  699TIP3    H223657   1.729   6.135   0.713 -0.6146  0.2518 -0.9114
  700TIP3   OH223658   1.261   1.923   6.409  0.0475 -0.5371  0.4872
  700TIP3    H123659   1.346   1.936   6.450  0.4252  0.0116 -0.4334
  700TIP3    H223660   1.245   1.829   6.417  1.3053 -0.8511 -0.3730
  701TIP3   OH223661   3.140   4.824   8.484  0.7480 -0.1947 -0.1917
  701TIP3    H123662   3.140   4.729   8.472 -1.6896 -0.5189  1.7005
  701TIP3    H223663   3.232   4.846   8.502  1.4518 -2.0785 -1.2405
  702TIP3   OH223664   5.907   5.614   0.422 -0.4085  0.3280 -0.1354
  702TIP3    H123665   5.890   5.613   0.516  0.3241 -1.6282  0.0300
  702TIP3    H223666   5.952   5.698   0.407 -1.3134  1.0646  1.0784
  703TIP3   OH223667   0.072   2.498   1.975 -0.8902  0.0744  0.4364
  703TIP3    H123668   0.020   2.420   1.954 -1.2725  0.3039  0.5249
  703TIP3    H223669   0.027   2.538   2.049  0.3668 -0.6453  1.6299
  704TIP3   OH223670   4.007   5.302   8.366  0.5394  0.0338  0.4748
  704TIP3    H123671   4.060   5.280   8.290  1.4785 -1.4649  1.5130
  704TIP3    H223672   3.917   5.297   8.335  0.9196  1.0305 -0.9131
  705TIP3   OH223673   4.342   1.199   8.276 -0.0693  0.0533 -0.4335
  705TIP3    H123674   4.304   1.130   8.331  0.9029  0.3847  0.7003
  705TIP3    H223675   4.271   1.262   8.264 -0.7590 -0.7823 -0.8975
  706TIP3   OH223676   3.724   2.732   0.030  0.1534  0.3526 -0.6594
  706TIP3    H123677   3.667   2.746  -0.045 -1.2969  1.6741  0.6087
  706TIP3    H223678   3.775   2.813   0.037  2.4766 -0.8972 -1.9268
  707TIP3   OH223679   6.147   5.627   7.231 -0.4516  0.4096 -0.3482
  707TIP3    H123680   6.233   5.664   7.252 -0.4923  0.4201 -0.1957
  707TIP3    H223681   6.087   5.674   7.289 -0.3593 -0.7350  0.7171
  708TIP3   OH223682   5.194   1.482   7.704 -0.4232 -0.1872 -0.2569
  708TIP3    H123683   5.229   1.539   7.772 -0.0578  2.0778 -2.2242
  708TIP3    H223684   5.099   1.479   7.721 -0.2608 -0.1791  0.6916
  709TIP3   OH223685   5.049   2.467   8.073  0.2058 -0.3229  0.6161
  709TIP3    H123686   4.983   2.537   8.076 -0.9349 -1.3834  0.9502
  709TIP3    H223687   5.104   2.483   8.149  1.0145  1.1857 -0.2358
  710TIP3   OH223688   1.232   2.601   7.942 -0.7917 -0.0198 -0.4133
  710TIP3    H123689   1.264   2.681   7.900  0.4890  0.0489  0.6318
  710TIP3    H223690   1.205   2.545   7.869  0.0521  0.6425 -1.2552
  711TIP3   OH223691   0.037   0.426   1.823 -0.1051 -0.0068  0.0442
  711TIP3    H123692  -0.004   0.375   1.892  2.2995  1.2441  2.6193
  711TIP3    H223693   0.099   0.365   1.782 -0.6958 -0.4319 -0.2302
  712TIP3   OH223694   3.736   5.541   1.225  0.3108  0.5347  0.4998
  712TIP3    H123695   3.691   5.606   1.172 -0.2975  1.6065  2.2696
  712TIP3    H223696   3.673   5.468   1.232  0.2278  0.5680  0.1122
  713TIP3   OH223697   5.479   1.521   8.034  0.3401  0.5333 -0.3176
  713TIP3    H123698   5.511   1.438   7.998 -0.2439  0.9434 -1.8648
  713TIP3    H223699   5.542   1.586   8.003  1.9484  0.4780  2.5613
  714TIP3   OH223700   4.005   4.789   8.373 -0.0942  0.5348 -0.0082
  714TIP3    H123701   4.041   4.752   8.293 -2.3320 -0.2525 -0.7305
  714TIP3    H223702   3.958   4.716   8.414 -0.4792  1.3678  1.0946
  715TIP3   OH223703   0.627   6.167   7.716 -0.0255 -1.0395 -0.5859
  715TIP3    H123704   0.602   6.098   7.776 -1.2053  1.0816  1.5474
  715TIP3    H223705   0.722   6.158   7.706  0.0258 -2.1356  0.7136
  716TIP3   OH223706   6.301   0.145   6.514  0.1418  0.7708  0.2208
  716TIP3    H123707   6.327   0.231   6.483  1.6900 -0.0029 -0.7885
  716TIP3    H223708   6.340   0.137   6.601 -1.1286  1.5710  0.8789
  717TIP3   OH223709   6.457   6.583   1.896 -0.0040  0.5732 -0.4726
  717TIP3    H123710   6.421   6.516   1.838  1.2047  0.5855 -1.2780
  717TIP3    H223711   6.425   6.558   1.983 -0.9118 -0.1025 -0.9789
  718TIP3   OH223712   0.343   2.205   1.751  0.1345 -0.0333  0.3070
  718TIP3    H123713   0.407   2.232   1.685  1.1964 -0.5978  1.0769
  718TIP3    H223714   0.349   2.272   1.819 -1.7007  1.1245 -0.5755
  719TIP3   OH223715   5.505   3.707   8.388 -0.4274 -0.0635  0.3774
  719TIP3    H123716   5.585   3.677   8.431 -0.5410  0.3533  0.8865
  719TIP3    H223717   5.534   3.738   8.302 -0.3959 -2.2239 -0.4549
  720TIP3   OH223718   2.991   0.310   1.935 -0.0166 -0.3589  0.0452
  720TIP3    H123719   2.978   0.390   1.884 -0.5818  0.8639  1.9863
  720TIP3    H223720   2.924   0.250   1.903 -1.1823  0.8158  0.1597
  721TIP3   OH223721   6.560   0.388   2.335  0.5703 -0.0122  0.0468
  721TIP3    H123722   6.508   0.468   2.336 -0.2115 -0.5016  1.2589
  721TIP3    H223723   6.651   0.417   2.331  0.2854  0.9267  0.3048
  722TIP3   OH223724   0.507   4.056   7.901 -0.3477  0.1936 -0.2210
  722TIP3    H123725   0.416   4.063   7.874 -0.1337 -0.3053 -1.1224
  722TIP3    H223726   0.552   4.125   7.852 -0.0446 -0.3761 -0.7664
  723TIP3   OH223727   1.336   1.280   8.532  0.4760  0.0511  0.0197
  723TIP3    H123728   1.402   1.254   8.469  1.2006  1.0816  0.3188
  723TIP3    H223729   1.386   1.319   8.604 -0.4330  0.6308  0.3571
  724TIP3   OH223730   4.776   4.048   2.378 -0.1186  0.1704 -0.7538
  724TIP3    H123731   4.795   4.036   2.471  0.9922  1.7201 -0.7381
  724TIP3    H223732   4.763   3.960   2.345 -2.1958 -0.3399  1.1819
  725TIP3   OH223733   5.214   2.002   8.005  0.0489 -0.1901  0.1696
  725TIP3    H123734   5.290   1.969   8.053 -0.6303  0.1282  1.5169
  725TIP3    H223735   5.247   2.022   7.918  1.3069 -0.8763  0.4656
  726TIP3   OH223736   0.074   3.365   7.439  0.1424 -0.7377 -0.5404
  726TIP3    H123737   0.140   3.385   7.506  1.2554  1.5647 -2.1751
  726TIP3    H223738   0.059   3.271   7.447  1.2435 -0.7771  1.9949
  727TIP3   OH223739   2.567   4.867   7.796 -0.2011 -0.0172  0.0476
  727TIP3    H123740   2.551   4.773   7.809 -0.1171 -0.1025 -0.4348
  727TIP3    H223741   2.482   4.908   7.815 -0.2784 -0.2066  0.1211
  728TIP3   OH223742   1.064   2.927   6.599  0.3812  0.0157 -0.6506
  728TIP3    H123743   1.068   2.898   6.691  1.6701  0.8449 -0.4211
  728TIP3    H223744   0.990   2.880   6.563 -0.8295  0.4633  1.1049
  729TIP3   OH223745   2.032   5.354   1.359  0.4567 -0.1579  0.0140
  729TIP3    H123746   1.957   5.366   1.300  1.4251  0.0429 -1.2203
  729TIP3    H223747   2.018   5.419   1.428  0.1242  0.7646 -0.8814
  730TIP3   OH223748   1.714   1.456   7.792 -0.3718  0.2341 -0.1302
  730TIP3    H123749   1.631   1.430   7.751 -1.0185  0.2953  1.0870
  730TIP3    H223750   1.711   1.416   7.879  0.6532  0.6714  0.1184
  731TIP3   OH223751   6.140   5.773   0.713 -0.3749  0.3602 -0.5774
  731TIP3    H123752   6.154   5.841   0.778 -1.8586 -1.2016  1.5172
  731TIP3    H223753   6.218   5.718   0.719 -0.8966 -0.3061  0.6736
  732TIP3   OH223754   3.059   4.639   8.060  0.1117  0.0071 -0.2206
  732TIP3    H123755   3.013   4.556   8.072 -0.4143  0.1641 -1.0464
  732TIP3    H223756   2.990   4.706   8.069  0.1746  0.2527 -1.3842
  733TIP3   OH223757   5.187   4.565   6.548  0.1855  0.0125  0.1522
  733TIP3    H123758   5.253   4.503   6.517  0.1691 -0.5366  1.1795
  733TIP3    H223759   5.107   4.539   6.503  0.3905 -0.0786 -0.1706
  734TIP3   OH223760   6.375   3.190   6.809  0.2189  0.1328  0.0410
  734TIP3    H123761   6.423   3.270   6.828 -1.1653  1.1260 -0.4615
  734TIP3    H223762   6.326   3.172   6.889 -2.5341  2.0911 -1.0314
  735TIP3   OH223763   1.612   0.275   1.891  0.4810  0.6284  0.1238
  735TIP3    H123764   1.523   0.242   1.886  0.7917 -0.0446 -3.2181
  735TIP3    H223765   1.655   0.219   1.956 -0.5831 -1.5763 -0.9778
  736TIP3   OH223766   5.723   5.110   6.915 -0.2195  0.4368 -0.2810
  736TIP3    H123767   5.676   5.194   6.916 -1.6973 -0.3375  1.2556
  736TIP3    H223768   5.753   5.100   7.005 -0.8950 -1.0936 -0.1975
  737TIP3   OH223769   2.173   0.201   7.447 -0.1418 -0.1075 -0.4320
  737TIP3    H123770   2.263   0.185   7.419  0.7829  2.9499  0.4911
  737TIP3    H223771   2.125   0.212   7.365  1.1501  1.9842 -0.9748
  738TIP3   OH223772   5.910   6.720   8.476  0.0785  0.2617 -0.7748
  738TIP3    H123773   5.973   6.686   8.541 -0.5786  0.9714  0.2632
  738TIP3    H223774   5.954   6.708   8.392  1.3845  0.2392 -0.1158
  739TIP3   OH223775   5.027   6.614   1.112 -0.6675  0.0894  0.3721
  739TIP3    H123776   5.022   6.681   1.044 -1.0520 -0.2862  0.0158
  739TIP3    H223777   5.082   6.651   1.180 -3.7310  2.2703  1.9049
  740TIP3   OH223778   3.677   1.417   7.789 -0.6258 -0.5701 -0.0539
  740TIP3    H123779   3.662   1.511   7.778  0.9887 -0.2251  0.4624
  740TIP3    H223780   3.758   1.411   7.839 -1.9155 -2.2175  2.0085
  741TIP3   OH223781   4.797   0.015   6.570 -0.1916  0.3678 -0.4247
  741TIP3    H123782   4.843   0.099   6.569 -0.2545  0.4487 -3.0916
  741TIP3    H223783   4.705   0.037   6.555 -0.5192 -0.0665  0.8511
  742TIP3   OH223784   6.807   6.189   7.069 -0.4935 -0.8979 -0.4136
  742TIP3    H123785   6.854   6.108   7.086 -0.8924 -1.0643 -0.0765
  742TIP3    H223786   6.736   6.164   7.010 -0.7995 -0.8549 -0.0676
  743TIP3   OH223787   1.037   3.585   8.336  0.0497  0.0500  0.3820
  743TIP3    H123788   1.090   3.582   8.416 -0.6036  0.7820  0.8666
  743TIP3    H223789   0.997   3.672   8.338  1.8912  1.0515 -1.9835
  744TIP3   OH223790   3.687   6.139   0.141 -0.1228  0.2668 -0.8874
  744TIP3    H123791   3.614   6.138   0.203  1.6835 -0.0188  1.3864
  744TIP3    H223792   3.713   6.047   0.134  0.9773  0.5222 -0.3965
  745TIP3   OH223793   3.283   6.867   1.402 -0.2370  0.2150  0.1260
  745TIP3    H123794   3.374   6.854   1.428 -1.0486 -3.4070  1.8289
  745TIP3    H223795   3.235   6.875   1.484 -1.5525  1.8027 -0.7353
  746TIP3   OH223796   5.485   4.227   8.532  0.3512 -0.4750  0.5487
  746TIP3    H123797   5.526   4.184   8.607 -0.1018 -0.4771  0.7997
  746TIP3    H223798   5.416   4.166   8.504  0.9137 -0.7603 -0.2548
  747TIP3   OH223799   6.472   5.510   6.776 -0.0915 -0.5979  0.6265
  747TIP3    H123800   6.406   5.486   6.841 -1.6897 -1.1235 -1.0962
  747TIP3    H223801   6.554   5.513   6.825 -1.4398  0.6634  2.9720
  748TIP3   OH223802   4.862   1.730   1.012  0.3966  0.7354  0.0647
  748TIP3    H123803   4.907   1.659   1.059 -0.3284  0.7430  0.7884
  748TIP3    H223804   4.908   1.809   1.037  0.5149  0.6451  0.1320
  749TIP3   OH223805   5.871   0.524   2.183 -0.6060 -1.3205 -0.1678
  749TIP3    H123806   5.813   0.496   2.253 -0.6440 -1.1232 -0.1195
  749TIP3    H223807   5.829   0.602   2.147 -0.9385 -1.8053 -0.8579
  750TIP3   OH223808   4.952   1.401   7.874 -0.1143 -0.0871  0.1001
  750TIP3    H123809   4.890   1.341   7.834 -0.6061 -0.3331  1.2001
  750TIP3    H223810   4.916   1.418   7.961  0.2856  1.3874  0.0068
  751TIP3   OH223811   4.658   0.384   1.040 -0.3901  0.2039 -0.0118
  751TIP3    H123812   4.634   0.465   0.995  0.9749  0.7376  0.1683
  751TIP3    H223813   4.698   0.413   1.122  1.7968 -0.5462 -0.7498
  752TIP3   OH223814   3.268   6.351   2.313 -0.5092 -0.0349 -0.3144
  752TIP3    H123815   3.241   6.380   2.226 -2.2773  0.6312  0.4173
  752TIP3    H223816   3.187   6.348   2.364  0.2935 -1.6710  0.9788
  753TIP3   OH223817   5.157   0.694   7.843  0.3979  0.0237 -0.3373
  753TIP3    H123818   5.131   0.683   7.934 -0.7981 -1.3592 -0.8136
  753TIP3    H223819   5.237   0.746   7.847  0.9481 -0.8852  1.5580
  754TIP3   OH223820   5.603   3.284   1.019  0.1369  0.2123  0.1393
  754TIP3    H123821   5.516   3.290   0.979  0.3288  2.4806 -0.0432
  754TIP3    H223822   5.591   3.312   1.109  0.1604 -2.5499  1.0877
  755TIP3   OH223823   0.649   3.107   8.013  0.2341 -0.2093 -0.4169
  755TIP3    H123824   0.604   3.034   7.970 -0.5901 -1.9742  3.0842
  755TIP3    H223825   0.586   3.180   8.009 -0.1568 -0.5791 -1.3277
  756TIP3   OH223826   6.711   1.665   0.898  0.2120  0.4298 -0.4382
  756TIP3    H123827   6.761   1.694   0.974  0.8625 -1.4466 -0.1109
  756TIP3    H223828   6.761   1.698   0.823  0.4682  0.8529 -0.0908
  757TIP3   OH223829   5.324   3.761   0.236 -0.0267  0.1972 -0.3786
  757TIP3    H123830   5.265   3.810   0.178 -2.7791  0.4181  2.3011
  757TIP3    H223831   5.300   3.669   0.222 -1.6453  0.3186  1.1468
  758TIP3   OH223832   5.415   0.239   7.624 -0.8261 -0.1502  0.4286
  758TIP3    H123833   5.428   0.332   7.602 -2.2953 -0.4500 -2.2346
  758TIP3    H223834   5.496   0.213   7.667  0.0955  2.0920  0.2165
  759TIP3   OH223835   2.650   2.322   1.143 -0.4408 -0.4847 -0.0319
  759TIP3    H123836   2.698   2.241   1.157 -1.2933 -0.6817  2.0421
  759TIP3    H223837   2.558   2.297   1.147 -0.7134  0.5380  0.5473
  760TIP3   OH223838   3.085   4.266   6.858 -0.3386 -0.3955  0.3219
  760TIP3    H123839   3.043   4.181   6.850  0.3146 -0.7764  0.9095
  760TIP3    H223840   3.024   4.318   6.910 -0.9624 -0.3416 -0.4434
  761TIP3   OH223841   1.212   3.593   1.451 -0.0684  0.1583 -0.0326
  761TIP3    H123842   1.192   3.685   1.440 -1.2171  0.2577  2.2915
  761TIP3    H223843   1.188   3.574   1.542  0.1836 -2.4122 -0.4298
  762TIP3   OH223844   0.128   2.708   2.498  0.5355 -0.3081 -0.3141
  762TIP3    H123845   0.127   2.758   2.580 -1.1526 -1.4542  0.4066
  762TIP3    H223846   0.077   2.760   2.437  1.7265  0.5082 -0.6529
  763TIP3   OH223847   3.586   6.780   7.905  0.2135 -0.1228  0.2456
  763TIP3    H123848   3.559   6.783   7.997 -0.7536 -1.3771  0.0311
  763TIP3    H223849   3.633   6.697   7.896  1.3401  0.5314 -0.1479
  764TIP3   OH223850   0.363   1.231   7.191 -0.2569  0.0184 -0.2558
  764TIP3    H123851   0.408   1.256   7.111 -0.1713 -1.1560 -0.5947
  764TIP3    H223852   0.336   1.314   7.230  1.8424  0.7651 -0.2301
  765TIP3   OH223853   3.086   3.959   2.717 -0.4597  0.0512  0.2858
  765TIP3    H123854   3.077   4.054   2.725  1.9331  0.2026  2.2747
  765TIP3    H223855   3.010   3.925   2.764 -0.9535  0.9674  0.1927
  766TIP3   OH223856   0.595   3.032   1.029  0.4832 -0.4855  0.3719
  766TIP3    H123857   0.511   2.987   1.034  0.5903 -0.7284  0.0629
  766TIP3    H223858   0.646   2.980   0.966  0.5603  0.1497 -0.0996
  767TIP3   OH223859   0.313   6.871   7.555  0.0391  0.2715  0.0529
  767TIP3    H123860   0.372   6.923   7.500  0.7484 -1.4123 -0.8425
  767TIP3    H223861   0.370   6.816   7.607 -0.7039 -0.6398 -0.0705
  768TIP3   OH223862   2.184   5.053   1.179  0.1732 -1.0972 -0.0271
  768TIP3    H123863   2.097   5.076   1.147 -0.7415  0.3019  3.1049
  768TIP3    H223864   2.176   4.963   1.209  0.2527 -1.4693 -1.0954
  769TIP3   OH223865   3.436   4.236   0.630 -0.3422  0.2102  0.0318
  769TIP3    H123866   3.427   4.276   0.544  1.5511 -0.7613 -0.6861
  769TIP3    H223867   3.419   4.143   0.615  0.0641  0.0240  0.6851
  770TIP3   OH223868   5.882   4.985   8.021 -0.2810 -0.2087 -0.5757
  770TIP3    H123869   5.900   4.899   7.983 -0.7666  0.1965 -1.7502
  770TIP3    H223870   5.796   5.009   7.987 -0.6745  0.2393  0.6789
  771TIP3   OH223871   1.620   1.481   6.919  0.3968 -0.0402  0.1284
  771TIP3    H123872   1.620   1.568   6.957  4.8769  1.1073 -1.8283
  771TIP3    H223873   1.612   1.496   6.825 -0.7822 -1.9692 -0.1330
  772TIP3   OH223874   0.678   4.748   8.480 -0.1305  0.0948 -0.1499
  772TIP3    H123875   0.676   4.795   8.397 -0.8272 -1.1629 -0.8736
  772TIP3    H223876   0.768   4.759   8.511 -0.6495  3.3058  0.6085
  773TIP3   OH223877   0.239   1.682   8.217 -0.2355 -1.2854  0.2617
  773TIP3    H123878   0.162   1.694   8.272 -0.5193 -0.3472 -0.3202
  773TIP3    H223879   0.215   1.721   8.133  0.7356 -1.3321 -0.0519
  774TIP3   OH223880   4.189   1.289   0.642  0.2134  0.1916 -0.1459
  774TIP3    H123881   4.248   1.334   0.582 -0.9709  0.3032 -1.2608
  774TIP3    H223882   4.121   1.252   0.586 -0.5646 -0.2677  1.0650
  775TIP3   OH223883   5.395   2.503   2.388 -0.3792 -0.0005  0.2101
  775TIP3    H123884   5.468   2.469   2.336 -1.8097 -0.9905 -1.2815
  775TIP3    H223885   5.364   2.579   2.338 -2.1542 -1.3216 -0.8439
  776TIP3   OH223886   4.998   5.569   7.379 -0.1779  0.2490 -0.3712
  776TIP3    H123887   4.991   5.546   7.471  1.1624 -1.2747 -0.6068
  776TIP3    H223888   5.039   5.656   7.379  0.8692 -0.2204  0.4802
  777TIP3   OH223889   3.645   4.851   2.470 -0.1420 -0.2945 -0.0033
  777TIP3    H123890   3.695   4.928   2.447 -1.6336  0.8297  0.3550
  777TIP3    H223891   3.704   4.797   2.522  0.4058  1.4051  1.1826
  778TIP3   OH223892   5.657   6.748   7.500 -0.0907 -0.0925  0.1355
  778TIP3    H123893   5.649   6.688   7.574  2.0808 -0.2595  0.3122
  778TIP3    H223894   5.577   6.800   7.502  0.3993  0.8053  3.4326
  779TIP3   OH223895   3.278   1.705   6.879  0.0949 -0.6427  0.1587
  779TIP3    H123896   3.365   1.667   6.880  0.2254 -0.3512  0.1390
  779TIP3    H223897   3.275   1.755   6.797 -0.5156 -1.6129 -0.4305
  780TIP3   OH223898   6.466   4.832   2.287  0.2392 -0.3849  0.1571
  780TIP3    H123899   6.508   4.918   2.285 -0.1438 -0.2028 -0.5337
  780TIP3    H223900   6.382   4.847   2.330  0.4439 -0.5455  0.6184
  781TIP3   OH223901   2.564   2.368   6.821  0.5554  1.3047  0.4063
  781TIP3    H123902   2.603   2.284   6.843  0.5964  1.3105  0.3575
  781TIP3    H223903   2.529   2.356   6.732 -1.1761  0.7452  1.1269
  782TIP3   OH223904   2.540   0.629   0.082  0.4193 -0.0357 -0.0838
  782TIP3    H123905   2.527   0.623  -0.012  1.5871 -1.0812 -0.2165
  782TIP3    H223906   2.567   0.719   0.098 -2.5442  1.0049 -0.3157
  783TIP3   OH223907   6.696   0.178   7.024  0.0606 -0.0860 -0.3657
  783TIP3    H123908   6.655   0.129   7.095  0.3838 -1.3006 -0.9808
  783TIP3    H223909   6.684   0.123   6.947 -0.1355  1.1317 -1.2261
  784TIP3   OH223910   4.028   5.136   6.060 -0.6384  0.3292  0.3962
  784TIP3    H123911   4.035   5.216   6.112 -1.2334 -0.0956  1.1506
  784TIP3    H223912   4.119   5.111   6.042 -0.4370  1.6418 -0.6126
  785TIP3   OH223913   1.238   5.063   1.534 -1.0040  0.3187  0.0959
  785TIP3    H123914   1.328   5.075   1.564 -0.6228 -2.5789  0.3985
  785TIP3    H223915   1.186   5.061   1.614 -1.2929  1.4883 -0.0489
  786TIP3   OH223916   2.523   1.654   7.112 -0.8967 -0.3985  0.2109
  786TIP3    H123917   2.438   1.615   7.133 -0.9232  0.0294  0.8994
  786TIP3    H223918   2.509   1.748   7.118 -0.1623 -0.3332  1.2177
  787TIP3   OH223919   6.486   5.385   8.377  0.0649  0.5982  0.2461
  787TIP3    H123920   6.411   5.440   8.354 -1.9396 -1.5636  1.2669
  787TIP3    H223921   6.559   5.423   8.328 -1.3147  3.7175  0.3549
  788TIP3   OH223922   0.069   2.482   7.647  0.2065  0.6216 -0.0897
  788TIP3    H123923   0.034   2.468   7.735  1.1482 -1.0609  0.0458
  788TIP3    H223924   0.110   2.569   7.651  1.4205  0.0130  1.5487
  789TIP3   OH223925   1.017   2.848   1.324 -0.2585  0.2860 -0.0181
  789TIP3    H123926   1.019   2.943   1.321 -0.0874  0.2931  0.2689
  789TIP3    H223927   1.085   2.820   1.262 -1.2040  0.3237 -1.1178
  790TIP3   OH223928   0.682   5.479   0.968 -0.0614  0.1731 -0.1660
  790TIP3    H123929   0.734   5.478   1.049 -0.3688  1.9702  0.0840
  790TIP3    H223930   0.672   5.386   0.946  0.3182 -0.3508  1.6572
  791TIP3   OH223931   4.298   0.254   8.127 -0.4765 -0.0850  0.0212
  791TIP3    H123932   4.221   0.201   8.144 -0.6675  0.3209  0.4503
  791TIP3    H223933   4.299   0.267   8.032 -1.4382  0.6548  0.1003
  792TIP3   OH223934   0.558   6.284   7.991  0.0385  0.2530 -0.0040
  792TIP3    H123935   0.531   6.354   8.050  0.7115 -0.6298  1.4108
  792TIP3    H223936   0.637   6.318   7.948 -1.2528  1.4672 -1.5627
  793TIP3   OH223937   0.606   5.453   1.606  0.3461  0.6951 -0.0962
  793TIP3    H123938   0.633   5.533   1.650  1.1701  1.2030 -1.4686
  793TIP3    H223939   0.672   5.388   1.630  0.5930  0.8733 -0.2957
  794TIP3   OH223940   3.173   1.069   6.797  0.5662  0.5146  0.1462
  794TIP3    H123941   3.084   1.104   6.799  1.0378  1.7277  1.6494
  794TIP3    H223942   3.167   0.986   6.844  0.4483  1.2176  1.4082
  795TIP3   OH223943   4.078   1.385   7.226  0.2858 -0.5442 -0.0077
  795TIP3    H123944   3.985   1.375   7.210  0.1138 -3.1001  2.0154
  795TIP3    H223945   4.103   1.461   7.174 -2.8948  0.2337 -0.5932
  796TIP3   OH223946   5.973   3.150   8.105 -0.7215  0.8816  0.2363
  796TIP3    H123947   5.958   3.096   8.182  0.1713 -2.8406 -1.9829
  796TIP3    H223948   5.907   3.121   8.041 -0.2212  2.4624 -1.0747
  797TIP3   OH223949   4.813   6.040   7.054  1.0544  0.0332  0.6473
  797TIP3    H123950   4.788   6.003   6.969 -0.4135  0.8232  0.7084
  797TIP3    H223951   4.896   6.085   7.037  0.5946  0.4918 -0.4746
  798TIP3   OH223952   5.983   5.379   1.027 -0.3727  0.2476 -0.1592
  798TIP3    H123953   6.046   5.315   0.991  0.0896  0.8876 -0.5071
  798TIP3    H223954   5.910   5.325   1.058  0.7066 -0.6047  1.0537
  799TIP3   OH223955   4.540   0.533   1.710 -0.2227  0.0523 -0.1643
  799TIP3    H123956   4.634   0.519   1.717 -0.1511  0.7797  0.4998
  799TIP3    H223957   4.522   0.604   1.772 -1.1303  0.2534 -0.6395
  800TIP3   OH223958   1.232   0.724   1.489  0.0605 -0.1047  0.5023
  800TIP3    H123959   1.143   0.759   1.497  0.1822  0.4224 -0.2522
  800TIP3    H223960   1.259   0.707   1.579  0.1035  2.0981  0.9835
  801TIP3   OH223961   1.059   4.187   7.787  0.1776  0.5964  0.2024
  801TIP3    H123962   0.978   4.162   7.832 -1.0336  1.7987 -1.2061
  801TIP3    H223963   1.124   4.193   7.857 -0.4762 -2.0401  1.1675
  802TIP3   OH223964   3.232   3.669   7.493  0.1015 -0.2222  0.4026
  802TIP3    H123965   3.159   3.694   7.436  0.2430 -1.4308 -0.3467
  802TIP3    H223966   3.210   3.580   7.523  1.9162 -1.2493 -1.0409
  803TIP3   OH223967   6.470   3.753   7.689  0.1885 -0.4971  0.3612
  803TIP3    H123968   6.484   3.793   7.775 -0.2718 -1.1133  0.7339
  803TIP3    H223969   6.547   3.697   7.677  0.9053  0.5905 -0.2272
  804TIP3   OH223970   0.625   2.287   2.021  0.5402  0.2870 -0.3812
  804TIP3    H123971   0.655   2.293   2.112 -1.0652  1.3232  0.1250
  804TIP3    H223972   0.550   2.228   2.024  2.3106 -2.2287 -1.6184
  805TIP3   OH223973   2.211   4.183   7.489  0.1647  0.1442 -0.8508
  805TIP3    H123974   2.121   4.183   7.458 -0.5496  1.5485  1.0315
  805TIP3    H223975   2.241   4.273   7.476  1.2683 -0.2836 -1.3704
  806TIP3   OH223976   2.501   4.959   0.905  0.3334 -0.0022  0.3025
  806TIP3    H123977   2.499   5.016   0.981  0.0377  0.4849 -0.0625
  806TIP3    H223978   2.591   4.965   0.873 -0.0546  1.4684 -0.6188
  807TIP3   OH223979   3.119   3.204   0.805 -0.5979  0.3118 -0.1215
  807TIP3    H123980   3.118   3.109   0.813  0.9675  0.2929 -0.0094
  807TIP3    H223981   3.106   3.220   0.711 -0.8317 -0.0012 -0.1448
  808TIP3   OH223982   2.755   2.049   1.959  0.1028  0.1925 -0.8043
  808TIP3    H123983   2.760   1.954   1.963 -2.1643  0.0538  2.5315
  808TIP3    H223984   2.827   2.079   2.014  0.9490  0.5075 -2.0221
  809TIP3   OH223985   5.146   0.656   8.118  0.1552 -0.2045 -0.5734
  809TIP3    H123986   5.171   0.684   8.207  1.6309  0.8051 -1.2668
  809TIP3    H223987   5.210   0.589   8.095 -0.1420 -0.3648 -0.9329
  810TIP3   OH223988   5.488   4.531   0.001  0.0335  0.0478 -0.4229
  810TIP3    H123989   5.541   4.592   0.054 -1.6029 -0.9225  2.5897
  810TIP3    H223990   5.423   4.587  -0.042 -0.2856  0.6528  0.8002
  811TIP3   OH223991   3.035   2.741   7.292 -0.2311  0.3078  0.2698
  811TIP3    H123992   3.088   2.779   7.363 -0.4193 -0.9892  1.1363
  811TIP3    H223993   2.999   2.660   7.329 -1.9939  0.6247 -0.6457
  812TIP3   OH223994   4.046   2.196   7.184  0.3119 -0.3006 -0.4642
  812TIP3    H123995   4.140   2.183   7.176  0.3530 -0.3189  0.0402
  812TIP3    H223996   4.012   2.180   7.096  0.7876 -0.2203 -0.6644
  813TIP3   OH223997   1.667   0.297   1.143 -0.2898 -0.4790 -0.0538
  813TIP3    H123998   1.634   0.317   1.230 -1.9483 -0.2507 -0.6970
  813TIP3    H223999   1.697   0.381   1.109 -0.4983 -0.3965 -0.0367
  814TIP3   OH224000   2.212   4.730   7.864 -0.1139 -0.5049 -0.1210
  814TIP3    H124001   2.276   4.684   7.918 -0.3080 -2.5421 -1.5285
  814TIP3    H224002   2.250   4.817   7.850  1.1333 -0.8151  1.1128
  815TIP3   OH224003   1.227   1.994   8.373 -0.3138  0.2902  0.2028
  815TIP3    H124004   1.319   1.970   8.385 -0.0150  1.6241  0.8388
  815TIP3    H224005   1.213   1.991   8.279  0.1496 -0.7164  0.1585
  816TIP3   OH224006   6.845   1.223   7.562 -0.0728 -0.5794  0.6767
  816TIP3    H124007   6.921   1.216   7.505 -0.0917  0.4106  0.5097
  816TIP3    H224008   6.867   1.171   7.639  0.1864 -1.4558  0.0260
  817TIP3   OH224009   2.436   4.805   0.291 -0.7610 -0.0499  0.0640
  817TIP3    H124010   2.408   4.892   0.265 -0.8675 -0.2855 -0.6099
  817TIP3    H224011   2.482   4.819   0.374 -0.8136  0.6365 -0.0178
  818TIP3   OH224012   5.532   6.586   7.715  0.0531  0.0319 -0.1654
  818TIP3    H124013   5.446   6.545   7.708  0.1505 -0.5556  1.4917
  818TIP3    H224014   5.516   6.668   7.760  0.4369 -0.5204  1.0328
  819TIP3   OH224015   2.517   2.272   7.437  0.2422  0.2642 -0.0142
  819TIP3    H124016   2.575   2.347   7.451  1.0229 -0.1629 -0.8616
  819TIP3    H224017   2.553   2.203   7.493 -0.4048  0.4776  0.6754
  820TIP3   OH224018   2.185   0.341   8.386 -0.4850  0.6799  0.1088
  820TIP3    H124019   2.171   0.403   8.314 -3.4762  0.3999  0.3190
  820TIP3    H224020   2.108   0.285   8.385  0.4889 -0.8295  2.1107
  821TIP3   OH224021   0.655   4.220   8.167  0.0700 -0.3744 -0.1776
  821TIP3    H124022   0.611   4.156   8.111  0.5174 -1.0600  0.2475
  821TIP3    H224023   0.640   4.304   8.123 -1.8512 -0.5422  0.0702
  822TIP3   OH224024   4.823   5.925   7.733  0.0947 -0.1938 -0.4749
  822TIP3    H124025   4.907   5.907   7.690  0.0708 -0.7262 -0.3131
  822TIP3    H224026   4.758   5.889   7.672 -0.0642  0.8123 -0.9176
  823TIP3   OH224027   5.389   5.421   2.620  0.8164 -0.3483  0.1634
  823TIP3    H124028   5.424   5.439   2.533 -0.7178  1.5059 -0.1273
  823TIP3    H224029   5.450   5.462   2.681 -0.2415  2.0678 -0.2930
  824TIP3   OH224030   6.390   5.065   7.341  0.8652  0.5367  0.1275
  824TIP3    H124031   6.470   5.093   7.385  0.5781  0.0763  0.9648
  824TIP3    H224032   6.320   5.097   7.398  0.5068 -0.9882  0.5838
  825TIP3   OH224033   5.155   6.814   1.906  0.7346  0.0090  0.2246
  825TIP3    H124034   5.080   6.873   1.911  0.5455 -0.1815 -0.2742
  825TIP3    H224035   5.200   6.824   1.990 -1.5403 -2.1412  1.8390
  826TIP3   OH224036   2.651   5.094   0.331 -0.4603  0.1462  0.6169
  826TIP3    H124037   2.625   5.172   0.281 -0.4135  0.1339  0.5732
  826TIP3    H224038   2.569   5.047   0.347 -0.4423  0.0070  0.3094
  827TIP3   OH224039   2.189   3.947   8.242 -0.1722  0.1891  0.5418
  827TIP3    H124040   2.198   3.860   8.205  3.7954  0.0216  1.4679
  827TIP3    H224041   2.096   3.968   8.233 -0.8278 -3.0791 -1.9268
  828TIP3   OH224042   3.494   4.264   7.522 -0.1569  0.0030  0.0261
  828TIP3    H124043   3.463   4.197   7.583 -0.0468  0.1454  0.2360
  828TIP3    H224044   3.564   4.220   7.472  2.0582  0.8457  2.2173
  829TIP3   OH224045   1.420   6.671   7.155  0.1510 -0.3047 -0.4793
  829TIP3    H124046   1.506   6.661   7.113  0.0514 -0.8438 -0.5647
  829TIP3    H224047   1.409   6.765   7.165 -0.6432 -0.0061 -3.3483
  830TIP3   OH224048   3.252   5.591   1.448  0.4470  0.1246  0.4920
  830TIP3    H124049   3.166   5.620   1.480  0.2465 -0.5753  0.5892
  830TIP3    H224050   3.265   5.643   1.368 -1.3297 -1.6943 -1.0947
  831TIP3   OH224051   0.198   3.823   1.941 -0.0531 -0.2773  0.4137
  831TIP3    H124052   0.228   3.849   2.029  0.6544  0.5868 -0.0681
  831TIP3    H224053   0.149   3.742   1.956 -0.9711  0.4767  1.7652
  832TIP3   OH224054   6.501   0.358   1.693  0.0681  0.3513 -0.3814
  832TIP3    H124055   6.552   0.379   1.772  0.1138 -0.7079 -0.1117
  832TIP3    H224056   6.410   0.355   1.724  0.1282 -0.4894 -0.2653
  833TIP3   OH224057   4.568   1.224   0.495  0.6070  0.4981  0.5483
  833TIP3    H124058   4.563   1.313   0.528  2.5452  0.5746  0.7590
  833TIP3    H224059   4.601   1.173   0.569 -0.1049 -0.3352  0.3081
  834TIP3   OH224060   4.558   6.488   7.419  0.0539  0.3259 -0.2778
  834TIP3    H124061   4.548   6.440   7.501  3.2181  1.8089  1.1028
  834TIP3    H224062   4.526   6.576   7.439  3.4240  1.5244  0.4057
  835TIP3   OH224063   6.122   1.409   7.095  0.0870 -0.0989 -0.5319
  835TIP3    H124064   6.099   1.356   7.018 -1.7036 -0.9371  0.5329
  835TIP3    H224065   6.083   1.494   7.078 -1.4202 -0.6664 -0.0054
  836TIP3   OH224066   2.716   3.627   2.280  0.7264 -0.0730 -0.7333
  836TIP3    H124067   2.690   3.587   2.363 -0.5555  1.3864 -0.3942
  836TIP3    H224068   2.760   3.557   2.232 -3.1484 -2.5606 -1.0249
  837TIP3   OH224069   5.233   6.563   7.769 -0.4573 -0.2960  0.2744
  837TIP3    H124070   5.159   6.505   7.787 -1.1728  0.6406  0.3545
  837TIP3    H224071   5.202   6.622   7.701 -0.8943  2.1696  2.4922
  838TIP3   OH224072   4.106   2.669   6.147  0.2171 -0.4413 -0.0492
  838TIP3    H124073   4.121   2.725   6.223 -1.9699 -0.2760  0.3058
  838TIP3    H224074   4.130   2.581   6.178  0.9787 -0.1406  0.2617
  839TIP3   OH224075   4.358   2.849   0.926  0.3726 -0.1157  0.1176
  839TIP3    H124076   4.404   2.768   0.900 -0.1036 -0.4184  0.2048
  839TIP3    H224077   4.286   2.855   0.864  0.5321  0.3625 -0.0205
  840TIP3   OH224078   4.317   0.152   0.746 -0.1212  0.3666  0.0973
  840TIP3    H124079   4.408   0.181   0.734  0.1070 -0.0255  0.8205
  840TIP3    H224080   4.272   0.230   0.779  0.6831 -0.2279  2.8942
  841TIP3   OH224081   0.720   5.074   1.565 -0.0600  0.0463 -0.2682
  841TIP3    H124082   0.729   5.130   1.641 -1.7750  0.9263 -0.6663
  841TIP3    H224083   0.733   4.985   1.598  1.9533  0.5788  0.5012
  842TIP3   OH224084   3.647   2.873   2.637 -0.3483 -0.2184 -0.1725
  842TIP3    H124085   3.679   2.806   2.576 -1.0369 -0.5348 -0.1971
  842TIP3    H224086   3.558   2.890   2.607  0.2149  1.6032 -0.9253
  843TIP3   OH224087   2.799   1.631   1.086  0.4051  0.2555  0.0964
  843TIP3    H124088   2.792   1.547   1.132 -1.5791  0.5319  0.3990
  843TIP3    H224089   2.749   1.692   1.141  1.9652  1.6928 -0.0285
  844TIP3   OH224090   4.477   3.844   7.887 -0.6159  1.1597 -0.1440
  844TIP3    H124091   4.468   3.927   7.841 -1.3351  0.8198 -0.6229
  844TIP3    H224092   4.425   3.782   7.837  0.6922  0.1836 -0.3407
  845TIP3   OH224093   2.735   2.676   2.099  0.3635 -0.4523 -0.1897
  845TIP3    H124094   2.736   2.585   2.068 -0.5227 -0.4340 -0.3114
  845TIP3    H224095   2.783   2.674   2.182  1.0519 -0.8719 -0.5931
  846TIP3   OH224096   1.919   4.843   7.952  0.5665 -0.3646 -0.6196
  846TIP3    H124097   1.975   4.837   7.874  0.1722 -3.7819 -0.7970
  846TIP3    H224098   1.830   4.844   7.916  0.4129  0.0042 -0.2303
  847TIP3   OH224099   1.655   2.779   6.407  0.3060  0.0498 -0.1922
  847TIP3    H124100   1.660   2.691   6.444  0.9202  0.2456  0.2089
  847TIP3    H224101   1.745   2.812   6.410  0.3008  0.2298 -1.4984
  848TIP3   OH224102   6.626   3.565   8.196  0.3911 -0.2347 -0.3056
  848TIP3    H124103   6.616   3.658   8.214 -0.3826 -0.1201 -1.2401
  848TIP3    H224104   6.538   3.536   8.171  0.9263 -0.8417 -1.5977
  849TIP3   OH224105   4.295   1.783   8.268 -0.1437  0.3782 -0.3595
  849TIP3    H124106   4.368   1.840   8.242  0.4633  1.0798  2.5734
  849TIP3    H224107   4.337   1.701   8.294 -0.6129  0.0556 -0.6131
  850TIP3   OH224108   2.082   5.669   7.324 -0.2837  0.3091 -0.4897
  850TIP3    H124109   2.002   5.617   7.317 -0.0588 -0.2391  0.8695
  850TIP3    H224110   2.113   5.677   7.233  0.4705 -3.1676 -0.6681
  851TIP3   OH224111   5.010   0.390   6.992 -0.1581  0.5424 -0.0138
  851TIP3    H124112   5.013   0.480   7.025 -0.4731  0.7276 -0.4902
  851TIP3    H224113   5.100   0.359   6.999  0.0711  1.1025 -0.4276
  852TIP3   OH224114   5.074   4.468   7.428 -0.1632 -0.3718 -0.0319
  852TIP3    H124115   5.093   4.422   7.346  0.1801  2.5480 -1.7368
  852TIP3    H224116   4.992   4.515   7.412  0.8636  1.7496  0.5555
  853TIP3   OH224117   3.090   3.554   8.537  0.5017 -0.0451 -0.2001
  853TIP3    H124118   3.164   3.614   8.534  1.2005 -0.8195  0.7856
  853TIP3    H224119   3.097   3.502   8.457  2.7027 -1.9781  1.1137
  854TIP3   OH224120   5.678   6.136   8.323  0.1135 -0.0739  0.3658
  854TIP3    H124121   5.695   6.096   8.237 -1.3219  2.1754 -1.0856
  854TIP3    H224122   5.598   6.093   8.353  0.7740 -1.0695  0.7428
  855TIP3   OH224123   0.609   1.457   7.944  0.1240  0.2623 -0.0105
  855TIP3    H124124   0.641   1.547   7.951  1.1304 -0.1362  0.7787
  855TIP3    H224125   0.680   1.409   7.901 -1.5892  0.3891 -3.3877
  856TIP3   OH224126   6.293   5.161   7.582  0.3746 -0.3439 -0.4099
  856TIP3    H124127   6.236   5.191   7.653 -1.2395  0.6327 -2.0054
  856TIP3    H224128   6.367   5.222   7.584  0.1769 -0.1105  0.2160
  857TIP3   OH224129   6.652   4.650   6.942 -0.4788  0.0127 -0.3257
  857TIP3    H124130   6.657   4.582   7.010 -1.2026 -1.0043 -1.2549
  857TIP3    H224131   6.565   4.688   6.954  0.4452  1.8340  1.1225
  858TIP3   OH224132   2.874   4.785   6.829  0.1825  0.9071 -0.4419
  858TIP3    H124133   2.858   4.691   6.839 -0.2533  0.8319 -1.6911
  858TIP3    H224134   2.963   4.797   6.862 -0.3191  0.3611  1.2667
  859TIP3   OH224135   2.494   6.582   0.292  0.2972 -0.0452  0.1765
  859TIP3    H124136   2.561   6.643   0.322  0.7352 -0.2222 -0.4365
  859TIP3    H224137   2.489   6.595   0.197  1.5774 -2.0937 -0.2367
  860TIP3   OH224138   4.187   3.073   0.258  0.2043 -0.7736  0.5967
  860TIP3    H124139   4.151   3.152   0.218  1.2540 -0.3104  0.5216
  860TIP3    H224140   4.143   3.066   0.342 -0.0122 -0.1920  0.5383
  861TIP3   OH224141   3.220   1.511   0.372 -0.3266  0.6322 -0.2376
  861TIP3    H124142   3.235   1.476   0.459  2.0145  1.6209 -0.1784
  861TIP3    H224143   3.301   1.493   0.324 -1.5423  0.1296 -2.2268
  862TIP3   OH224144   4.305   5.335   0.639  0.3675 -0.0062 -0.3035
  862TIP3    H124145   4.237   5.401   0.624  2.1437  2.4181  1.5395
  862TIP3    H224146   4.354   5.333   0.556 -1.2243 -0.9809 -1.2674
  863TIP3   OH224147   0.574   3.347   0.933  0.1280 -0.2122  0.2562
  863TIP3    H124148   0.569   3.258   0.968 -2.0202 -0.1289  0.3249
  863TIP3    H224149   0.667   3.366   0.927  0.6513 -2.6117 -0.1174
  864TIP3   OH224150   2.607   3.958   0.324 -0.5500  0.2142 -0.2942
  864TIP3    H124151   2.626   3.929   0.235 -2.6678  1.0651 -1.0908
  864TIP3    H224152   2.595   3.877   0.374  1.7062 -0.2890 -0.4658
  865TIP3   OH224153   0.972   1.902   6.885 -0.3340 -0.2726 -0.3589
  865TIP3    H124154   0.890   1.928   6.926  0.2109 -1.0476  1.3404
  865TIP3    H224155   1.033   1.973   6.905 -0.0977 -0.5958  0.0911
  866TIP3   OH224156   0.381   0.069   1.622 -0.2425 -0.3887 -0.0467
  866TIP3    H124157   0.458   0.076   1.565 -1.5306 -2.2585 -2.1767
  866TIP3    H224158   0.415   0.031   1.703  1.4545  1.2292  0.0608
  867TIP3   OH224159   2.935   5.407   2.275 -0.7992  1.0892 -0.5470
  867TIP3    H124160   2.853   5.437   2.315 -1.9402 -0.6966 -1.4179
  867TIP3    H224161   2.907   5.355   2.200  0.8886 -2.7561  1.2116
  868TIP3   OH224162   3.407   3.057   6.975  0.0119 -0.1343  0.6492
  868TIP3    H124163   3.430   3.050   7.067 -0.5785  2.2566  1.0364
  868TIP3    H224164   3.490   3.076   6.931  0.2357 -0.9433  0.6918
  869TIP3   OH224165   5.701   3.943   8.299  0.0412  0.0858  0.0331
  869TIP3    H124166   5.659   4.028   8.290 -1.9390 -0.6139  1.8015
  869TIP3    H224167   5.700   3.925   8.393 -0.0557 -2.0822 -0.3097
  870TIP3   OH224168   6.424   6.120   8.255 -0.6280  0.6259 -0.1673
  870TIP3    H124169   6.362   6.054   8.224 -1.1971  1.4351 -0.8145
  870TIP3    H224170   6.422   6.112   8.350 -2.2040  1.0402 -0.1385
  871TIP3   OH224171   4.576   6.796   7.787  0.1264  0.5683 -0.2089
  871TIP3    H124172   4.529   6.854   7.847 -0.5929  0.4345 -0.6295
  871TIP3    H224173   4.655   6.772   7.834 -0.3901  0.5335  0.6588
  872TIP3   OH224174   1.506   6.299   8.009  0.3848  0.4012  0.0351
  872TIP3    H124175   1.601   6.290   8.022  0.7243  0.8443 -1.7962
  872TIP3    H224176   1.481   6.220   7.962 -0.1222  0.3611  0.3749
  873TIP3   OH224177   6.135   1.723   0.382  0.0627 -0.2190  0.6749
  873TIP3    H124178   6.178   1.808   0.370 -1.7226  0.6510  0.0320
  873TIP3    H224179   6.042   1.743   0.376 -0.4174 -2.1671  1.0643
  874TIP3   OH224180   2.766   4.762   8.118 -1.0606  0.1246 -0.2863
  874TIP3    H124181   2.767   4.794   8.208  1.3691  0.4243 -0.3508
  874TIP3    H224182   2.784   4.840   8.065 -1.1494 -0.2908 -0.9446
  875TIP3   OH224183   2.499   2.751   0.215 -0.1834 -0.1519 -0.3012
  875TIP3    H124184   2.542   2.666   0.225  0.0206 -0.2190 -1.6356
  875TIP3    H224185   2.506   2.790   0.302  0.5202 -1.1230  0.1106
  876TIP3   OH224186   6.472   2.687   1.268 -0.5044 -0.1169  0.0302
  876TIP3    H124187   6.522   2.680   1.349 -0.6708 -1.3590  0.0373
  876TIP3    H224188   6.536   2.675   1.199 -0.1812  1.9418 -0.0895
  877TIP3   OH224189   0.904   4.759   1.880 -0.0479 -0.1701 -0.0700
  877TIP3    H124190   0.928   4.667   1.870 -1.2611 -0.4546 -0.4993
  877TIP3    H224191   0.818   4.757   1.922  0.1819  0.7853  0.4808
  878TIP3   OH224192   1.130   6.311   1.105 -0.5461 -0.0901  0.2712
  878TIP3    H124193   1.122   6.346   1.017  0.5068 -0.4235  0.0311
  878TIP3    H224194   1.041   6.283   1.128 -0.9757  0.7314 -0.3635
  879TIP3   OH224195   6.349   4.473   0.950 -0.4681  1.2586  0.0264
  879TIP3    H124196   6.415   4.457   0.882  1.1511  0.8062  1.6303
  879TIP3    H224197   6.333   4.567   0.945 -1.9130  0.9696 -2.2735
  880TIP3   OH224198   0.971   6.633   0.895 -0.3977 -0.0525  0.0713
  880TIP3    H124199   0.879   6.607   0.891 -0.5580  0.4596  0.3440
  880TIP3    H224200   1.018   6.561   0.853 -0.9347 -0.2554 -0.1936
  881TIP3   OH224201   3.641   6.248   1.580  0.5712  0.1412  0.1495
  881TIP3    H124202   3.657   6.161   1.616 -1.7122 -0.5353 -0.3091
  881TIP3    H224203   3.672   6.243   1.490  2.1226  0.4159  0.6419
  882TIP3   OH224204   3.467   2.891   1.902  0.4567 -0.5958 -0.7165
  882TIP3    H124205   3.375   2.895   1.929  0.2784  0.1899 -1.4123
  882TIP3    H224206   3.498   2.808   1.937  0.2004  0.2873  1.7361
  883TIP3   OH224207   5.042   1.932   1.092  0.3079  0.3731 -0.5855
  883TIP3    H124208   5.040   1.966   1.003 -0.1823  0.8034 -0.4121
  883TIP3    H224209   5.130   1.895   1.102  0.4889  0.6602 -1.1170
  884TIP3   OH224210   4.221   3.196   8.542 -0.2572  0.1256  0.7783
  884TIP3    H124211   4.316   3.205   8.530 -0.1126 -0.2325  1.5819
  884TIP3    H224212   4.183   3.228   8.459  0.5803 -0.2198  0.2478
  885TIP3   OH224213   1.080   1.743   1.549  0.5110 -0.0252 -0.0735
  885TIP3    H124214   1.170   1.728   1.578  0.3892 -0.9068 -0.1242
  885TIP3    H224215   1.032   1.762   1.630  0.7710  0.6689 -0.0704
  886TIP3   OH224216   3.981   1.687   7.217  0.5023  0.7018  0.2275
  886TIP3    H124217   4.015   1.745   7.149  0.6452  0.8211  0.3984
  886TIP3    H224218   3.899   1.654   7.182  0.9972  0.0912 -0.3657
  887TIP3   OH224219   2.455   0.671   1.731  0.1969  0.2456  0.4420
  887TIP3    H124220   2.454   0.766   1.731 -1.3414  0.2770 -1.0339
  887TIP3    H224221   2.448   0.646   1.823  2.1621  1.5142  0.9829
  888TIP3   OH224222   1.858   5.079   6.401 -0.4194 -0.5647 -0.0280
  888TIP3    H124223   1.874   5.171   6.379  0.0346 -0.9516 -1.3985
  888TIP3    H224224   1.844   5.080   6.496 -3.4031  1.3284 -0.3381
  889TIP3   OH224225   0.482   6.870   0.408  0.0908 -0.3343  0.5490
  889TIP3    H124226   0.471   6.926   0.485  1.1814  0.1906  0.3382
  889TIP3    H224227   0.487   6.931   0.335  0.1551 -0.7721  0.1857
  890TIP3   OH224228   0.896   5.667   7.321  0.2188  0.4394 -0.1934
  890TIP3    H124229   0.954   5.728   7.276  0.6201 -0.9182 -1.5651
  890TIP3    H224230   0.953   5.615   7.377  0.6342 -1.8225 -2.5564
  891TIP3   OH224231   1.214   1.658   8.349  0.1941 -0.6650 -0.2590
  891TIP3    H124232   1.215   1.750   8.375 -2.2068 -0.5746 -0.2305
  891TIP3    H224233   1.298   1.623   8.379  1.5217  1.6755 -0.9956
  892TIP3   OH224234   4.954   5.371   1.013 -0.4756  0.3583  0.2091
  892TIP3    H124235   4.875   5.425   1.010  0.2877  1.5120 -2.8955
  892TIP3    H224236   5.026   5.431   0.992  0.5739 -1.4926 -2.0687
  893TIP3   OH224237   4.117   4.349   7.904  0.3876 -0.2556 -0.0251
  893TIP3    H124238   4.124   4.317   7.994  0.6685  0.8723  0.3810
  893TIP3    H224239   4.122   4.445   7.913  1.6428 -0.1715 -1.3562
  894TIP3   OH224240   0.186   6.779   6.764  0.0819 -0.0828  0.2755
  894TIP3    H124241   0.160   6.801   6.853 -0.1896 -0.9794  0.4256
  894TIP3    H224242   0.279   6.756   6.771  0.1161  0.0610  0.2897
  895TIP3   OH224243   2.822   4.982   7.015 -0.4164 -0.6666 -0.4243
  895TIP3    H124244   2.801   5.060   6.964  0.8838 -0.4763 -0.7008
  895TIP3    H224245   2.838   4.913   6.949  0.2051 -0.6915 -0.2595
  896TIP3   OH224246   1.978   3.920   7.315 -0.0935  0.3605  0.6893
  896TIP3    H124247   1.902   3.944   7.367 -1.8621 -1.7458 -0.7188
  896TIP3    H224248   1.947   3.924   7.224  0.1851 -4.0540  0.1833
  897TIP3   OH224249   4.926   1.277   0.889 -0.1497  0.1443  0.0422
  897TIP3    H124250   4.991   1.342   0.917 -2.0861  1.3661  1.9660
  897TIP3    H224251   4.909   1.225   0.968 -3.1755  1.3896  0.3204
  898TIP3   OH224252   0.206   5.615   1.372  0.0785  0.0262 -0.0236
  898TIP3    H124253   0.181   5.697   1.330 -0.7242 -0.6614 -0.9443
  898TIP3    H224254   0.134   5.555   1.351  0.8562 -1.0286  0.2610
  899TIP3   OH224255   2.191   2.453   6.327 -0.4805 -0.1814  0.0113
  899TIP3    H124256   2.158   2.455   6.237 -1.0168  2.4021  0.1779
  899TIP3    H224257   2.280   2.419   6.320 -0.4805  0.0755 -1.5290
  900TIP3   OH224258   4.369   5.219   6.901  0.4297 -0.3303 -0.2112
  900TIP3    H124259   4.414   5.224   6.817 -2.4432 -1.1529 -1.9027
  900TIP3    H224260   4.342   5.309   6.919 -0.1602 -0.3670 -0.8893
  901TIP3   OH224261   0.485   2.645   7.601 -0.4891  0.1756 -0.0611
  901TIP3    H124262   0.499   2.563   7.648 -1.3081  2.0151  3.7810
  901TIP3    H224263   0.571   2.687   7.598 -0.5641  0.3808  0.5337
  902TIP3   OH224264   5.451   4.409   6.540  0.1155 -0.3499  0.2220
  902TIP3    H124265   5.428   4.339   6.478  0.4768 -0.1707 -0.1164
  902TIP3    H224266   5.546   4.417   6.533  0.1168 -0.0664  0.5251
  903TIP3   OH224267   3.606   0.024   8.441 -0.0825  0.0862 -0.1929
  903TIP3    H124268   3.619   0.099   8.499 -1.6951 -0.4866  0.9823
  903TIP3    H224269   3.689  -0.023   8.443  1.0902  1.9716 -1.2289
  904TIP3   OH224270   2.526   4.575   6.962  0.7557  0.7975 -0.3639
  904TIP3    H124271   2.545   4.657   6.916  0.5094  0.5890 -0.8458
  904TIP3    H224272   2.441   4.547   6.927  1.0118  0.1465 -0.4733
  905TIP3   OH224273   4.251   4.480   1.764 -0.6067  0.3680  0.0351
  905TIP3    H124274   4.300   4.453   1.842 -0.9113  1.7864  0.7680
  905TIP3    H224275   4.166   4.437   1.774  0.3696 -2.0023 -1.1793
  906TIP3   OH224276   2.184   5.838   6.630  0.1785 -0.3605  0.2640
  906TIP3    H124277   2.146   5.910   6.681  1.2141 -0.1453  0.7632
  906TIP3    H224278   2.265   5.875   6.594 -0.6138 -0.4476 -1.7269
  907TIP3   OH224279   3.619   5.004   7.250  0.4763 -0.1313 -0.2636
  907TIP3    H124280   3.642   4.916   7.279  0.7319 -0.0612 -0.2535
  907TIP3    H224281   3.547   4.991   7.189  0.7867 -0.3812 -0.5760
  908TIP3   OH224282   3.335   6.050   6.981 -0.0516 -0.5573  0.4544
  908TIP3    H124283   3.248   6.020   6.955 -0.5867 -1.3243  2.8787
  908TIP3    H224284   3.373   5.976   7.029  2.0850 -0.3448 -0.7610
  909TIP3   OH224285   6.460   0.584   7.528  0.3154  0.1035 -0.4108
  909TIP3    H124286   6.471   0.660   7.470 -0.4520  0.9799  0.5571
  909TIP3    H224287   6.482   0.617   7.615 -1.6045 -0.3232  0.2861
  910TIP3   OH224288   3.129   1.150   7.492 -0.0738 -0.2622  0.0911
  910TIP3    H124289   3.082   1.221   7.534  0.2296 -0.2559  0.4193
  910TIP3    H224290   3.222   1.170   7.506  0.0118 -0.9661  0.5960
  911TIP3   OH224291   5.162   2.513   2.519 -0.0097  0.1973 -0.7556
  911TIP3    H124292   5.187   2.604   2.538  1.0670 -0.1690 -0.3305
  911TIP3    H224293   5.232   2.481   2.461 -1.2409  0.1239 -2.2628
  912TIP3   OH224294   5.150   5.544   0.346  0.1434  0.1358 -0.0615
  912TIP3    H124295   5.111   5.511   0.265  0.6006  0.3836 -0.3863
  912TIP3    H224296   5.230   5.491   0.357  0.9726  1.2173 -0.6708
  913TIP3   OH224297   5.021   4.732   6.743  0.4391 -0.1021  0.1324
  913TIP3    H124298   5.013   4.815   6.696 -0.3333  0.9142  1.9224
  913TIP3    H224299   5.079   4.678   6.689  0.5962  1.4294 -1.2988
  914TIP3   OH224300   3.220   0.481   7.886  0.4039 -0.0054 -0.6534
  914TIP3    H124301   3.225   0.387   7.870  0.1765  0.2255 -2.3186
  914TIP3    H224302   3.297   0.501   7.939  0.0380 -1.2307  0.3973
  915TIP3   OH224303   4.366   6.028   1.570  0.1893 -0.0542 -0.6728
  915TIP3    H124304   4.384   5.942   1.532 -0.8186 -0.0259 -1.2462
  915TIP3    H224305   4.279   6.020   1.608 -1.3237  1.5340 -3.4291
  916TIP3   OH224306   1.952   1.189   0.999  0.5360  0.2692  0.1677
  916TIP3    H124307   2.018   1.177   0.931  1.3487  3.5454  0.2157
  916TIP3    H224308   2.001   1.216   1.076 -0.4415 -2.7174  2.0297
  917TIP3   OH224309   0.013   0.455   0.369  0.3582 -0.0834  0.5303
  917TIP3    H124310  -0.029   0.377   0.332  1.9230 -0.6343 -0.1791
  917TIP3    H224311  -0.059   0.505   0.409 -1.1673 -0.3156 -1.7474
  918TIP3   OH224312   6.538   6.098   1.861 -0.6614 -0.0510 -0.5260
  918TIP3    H124313   6.520   6.035   1.930 -0.2084 -0.2323 -0.5734
  918TIP3    H224314   6.473   6.167   1.874 -0.0771  0.3055  0.5642
  919TIP3   OH224315   0.703   4.728   7.356  0.2443  0.1192  0.4968
  919TIP3    H124316   0.665   4.668   7.420 -0.7210 -2.1612 -1.9819
  919TIP3    H224317   0.794   4.701   7.349  0.7273  1.3053  1.8385
  920TIP3   OH224318   4.188   5.558   1.296  0.4704  0.1081  0.2690
  920TIP3    H124319   4.096   5.546   1.273 -0.8348  1.3280  4.1737
  920TIP3    H224320   4.214   5.637   1.248 -1.0129  0.6538  0.3032
  921TIP3   OH224321   3.684   5.601   6.266 -0.0560  0.3004 -0.0266
  921TIP3    H124322   3.712   5.523   6.218 -1.3785 -0.9932  1.2406
  921TIP3    H224323   3.662   5.664   6.197  2.1094  0.0117 -1.0688
  922TIP3   OH224324   2.926   6.141   0.930 -0.1526 -0.5191  0.0991
  922TIP3    H124325   2.898   6.161   1.019  2.3390  1.1850  0.6054
  922TIP3    H224326   2.869   6.194   0.875 -2.1142 -2.0314  0.5499
  923TIP3   OH224327   4.854   3.959   2.614 -0.7966 -0.3883 -0.1476
  923TIP3    H124328   4.770   3.940   2.656 -0.0503  0.1456  1.6690
  923TIP3    H224329   4.906   3.880   2.627 -0.6426 -0.3210 -0.3472
  924TIP3   OH224330   5.964   4.016   7.119  0.5823  0.3857  0.1937
  924TIP3    H124331   6.023   3.956   7.166 -3.3912 -0.6901  4.5783
  924TIP3    H224332   5.960   4.093   7.176  0.3810  1.9917 -1.8830
  925TIP3   OH224333   2.025   3.476   0.068 -0.0973  0.0524 -0.0848
  925TIP3    H124334   2.014   3.552   0.124  2.2179  1.2031 -1.0855
  925TIP3    H224335   1.944   3.474   0.016 -1.8752 -0.5026  2.5091
  926TIP3   OH224336   3.352   3.781   7.711  0.0034 -0.1743  0.2687
  926TIP3    H124337   3.442   3.758   7.688  0.2291  1.7695 -1.0465
  926TIP3    H224338   3.299   3.747   7.638 -0.1327  0.0151  0.2775
  927TIP3   OH224339   3.454   0.494   0.636  0.4438 -0.4157  0.1778
  927TIP3    H124340   3.475   0.517   0.726 -0.5719 -3.0508  1.2011
  927TIP3    H224341   3.358   0.487   0.634  0.5144 -1.4544 -0.7961
  928TIP3   OH224342   4.353   3.823   6.934  0.2467 -0.7685 -0.1688
  928TIP3    H124343   4.415   3.803   6.864  1.8161  0.4589  0.8076
  928TIP3    H224344   4.282   3.869   6.889 -0.3818 -2.8081 -1.4146
  929TIP3   OH224345   6.341   3.042   2.199 -0.3947 -0.5546 -0.4508
  929TIP3    H124346   6.256   3.006   2.176 -0.6158 -0.6999  0.5391
  929TIP3    H224347   6.391   2.968   2.233  0.2531 -0.5389 -1.3340
  930TIP3   OH224348   4.260   0.764   1.385 -0.3671 -0.5344  0.8905
  930TIP3    H124349   4.214   0.847   1.395 -0.9892 -0.7021 -0.4014
  930TIP3    H224350   4.268   0.752   1.291  1.4632 -1.0035  1.0719
  931TIP3   OH224351   4.104   3.264   8.303  0.4302  0.2248  0.1038
  931TIP3    H124352   4.072   3.184   8.262  0.6300  0.4433 -0.4861
  931TIP3    H224353   4.025   3.318   8.314 -0.1929 -1.0358  2.9030
  932TIP3   OH224354   0.549   6.267   0.345  0.6532  0.0317 -0.4024
  932TIP3    H124355   0.519   6.177   0.360  1.8251 -0.0709  1.7772
  932TIP3    H224356   0.511   6.292   0.261 -0.5458 -2.1327 -0.5619
  933TIP3   OH224357   6.098   1.929   6.530  0.5528 -0.1086 -0.6249
  933TIP3    H124358   6.111   1.873   6.454 -0.3624  0.0279 -0.8893
  933TIP3    H224359   6.175   1.986   6.531  1.7109 -1.6128 -0.1038
  934TIP3   OH224360   6.866   3.132   1.752 -0.5211  0.0140 -0.0301
  934TIP3    H124361   6.919   3.192   1.700 -1.1546 -0.1615 -0.8871
  934TIP3    H224362   6.816   3.189   1.811 -0.2699  0.2504 -0.0465
  935TIP3   OH224363   6.708   6.876   7.235  0.0642 -0.6128  0.4661
  935TIP3    H124364   6.724   6.949   7.295 -1.4318  0.5113 -0.4539
  935TIP3    H224365   6.684   6.803   7.292 -1.3046  0.4191  1.2745
  936TIP3   OH224366   3.610   1.691   7.799 -0.6173 -0.0985 -0.0731
  936TIP3    H124367   3.681   1.754   7.789  0.3982 -1.1819  0.1567
  936TIP3    H224368   3.531   1.742   7.779  0.2842  0.8689 -1.4217
  937TIP3   OH224369   4.941   3.612   8.409  0.2170 -0.1321  0.1007
  937TIP3    H124370   4.895   3.530   8.390  0.7847 -0.1447 -1.3627
  937TIP3    H224371   4.975   3.641   8.324 -1.0699  2.3168  0.3082
  938TIP3   OH224372   6.040   5.480   7.022 -0.6435 -0.2970 -0.1813
  938TIP3    H124373   6.081   5.545   7.079 -0.7224  1.2378 -1.7861
  938TIP3    H224374   5.964   5.525   6.985 -0.6674 -1.2820 -1.4016
  939TIP3   OH224375   2.797   5.314   1.947 -0.3241 -0.2915 -0.2820
  939TIP3    H124376   2.742   5.370   2.002  0.9311  0.1627  0.5606
  939TIP3    H224377   2.839   5.254   2.009 -2.6667 -3.1844 -1.2750
  940TIP3   OH224378   0.668   5.785   6.573 -0.2480  0.1585 -0.0413
  940TIP3    H124379   0.722   5.818   6.646  0.9823 -1.7117 -0.0328
  940TIP3    H224380   0.619   5.713   6.611 -0.9052  0.2654 -0.6741
  941TIP3   OH224381   3.363   6.504   7.242  0.6634  0.5509 -0.7185
  941TIP3    H124382   3.283   6.482   7.290 -0.3315 -0.2707 -2.6586
  941TIP3    H224383   3.379   6.428   7.187  1.5598  1.5961 -1.9430
  942TIP3   OH224384   6.372   3.863   8.010 -0.0365 -0.3358  0.1648
  942TIP3    H124385   6.407   3.862   8.099  0.0146 -0.3337  0.1448
  942TIP3    H224386   6.446   3.890   7.955  0.7037 -2.8179 -0.2014
  943TIP3   OH224387   6.082   2.048   1.079  0.2098 -0.1984  0.3317
  943TIP3    H124388   6.021   2.057   1.152 -0.3005  0.3031 -0.1419
  943TIP3    H224389   6.041   2.097   1.008  0.4025 -1.1829 -0.4801
  944TIP3   OH224390   3.356   5.419   0.189 -0.1394 -0.5862  0.0411
  944TIP3    H124391   3.271   5.375   0.195 -0.6817  0.3886 -0.3027
  944TIP3    H224392   3.343   5.504   0.231 -0.1875  0.7475 -2.4541
  945TIP3   OH224393   5.880   4.208   1.030  0.4495 -0.7960 -0.2510
  945TIP3    H124394   5.878   4.134   1.090 -1.4376  0.7758  1.8162
  945TIP3    H224395   5.868   4.285   1.087 -1.4431  0.7915 -2.6009
  946TIP3   OH224396   0.874   2.646   1.827  0.3740  0.6569 -0.8961
  946TIP3    H124397   0.786   2.670   1.856  1.5424  4.8867 -0.1551
  946TIP3    H224398   0.876   2.671   1.734  1.0219  1.5628 -0.6553
  947TIP3   OH224399   3.257   4.782   7.150  0.4896 -0.6261 -0.6908
  947TIP3    H124400   3.243   4.755   7.059 -2.0432  1.3366 -1.0002
  947TIP3    H224401   3.351   4.772   7.163  0.8672 -1.4778 -3.3386
  948TIP3   OH224402   0.512   2.149   8.031  0.3870 -0.2713 -0.2095
  948TIP3    H124403   0.487   2.067   8.073  1.9632 -0.4032  0.5524
  948TIP3    H224404   0.478   2.217   8.090 -0.3960 -0.3752 -0.5290
  949TIP3   OH224405   0.749   3.063   8.265 -0.4068 -0.1778 -0.0691
  949TIP3    H124406   0.762   2.968   8.262  0.6492 -0.0342 -1.9902
  949TIP3    H224407   0.718   3.085   8.177 -2.6873  1.0442  0.9658
  950TIP3   OH224408   3.438   5.953   1.820 -0.2770  0.3190 -0.1878
  950TIP3    H124409   3.384   5.899   1.763 -0.9691 -2.9403  3.2097
  950TIP3    H224410   3.376   6.001   1.874  0.2167 -0.4167  1.0762
  951TIP3   OH224411   0.402   4.725   0.699  0.2800 -0.2123  0.2644
  951TIP3    H124412   0.343   4.800   0.714  0.1467 -0.0782 -0.8115
  951TIP3    H224413   0.414   4.686   0.785  0.5580  1.2041  0.9031
  952TIP3   OH224414   1.179   2.298   7.030  0.3748 -0.5465 -0.5762
  952TIP3    H124415   1.213   2.208   7.039 -2.3830 -1.6476 -0.1574
  952TIP3    H224416   1.232   2.350   7.091  0.2875 -2.4647  1.2732
  953TIP3   OH224417   1.442   4.054   0.922 -0.2851 -0.1844  0.2166
  953TIP3    H124418   1.356   4.077   0.957 -0.3749 -2.0522  1.4200
  953TIP3    H224419   1.487   4.011   0.995  0.8529 -1.1529 -0.9830
  954TIP3   OH224420   1.306   0.157   0.519 -0.7301  0.2228  0.0354
  954TIP3    H124421   1.296   0.253   0.517  0.0607  0.3023 -1.0148
  954TIP3    H224422   1.399   0.143   0.502 -1.0604 -0.7600 -1.0720
  955TIP3   OH224423   6.192   2.758   7.730 -0.0182  0.4569 -0.2223
  955TIP3    H124424   6.243   2.744   7.810  0.3706  0.0294 -0.5390
  955TIP3    H224425   6.122   2.693   7.734  1.2945 -1.0881 -1.2846
  956TIP3   OH224426   6.525   3.664   7.198  0.0200  0.2697 -0.1089
  956TIP3    H124427   6.521   3.618   7.282  0.8025  1.6148  0.7034
  956TIP3    H224428   6.603   3.719   7.205  0.1791  0.2935 -1.7904
  957TIP3   OH224429   5.948   0.002   1.100  0.0815  0.0789  0.5362
  957TIP3    H124430   5.948   0.011   1.195  0.9132 -0.5415  0.6126
  957TIP3    H224431   5.900  -0.080   1.084 -0.1342  0.2294  0.4163
  958TIP3   OH224432   2.394   4.752   0.644 -0.9220  0.0259  0.2632
  958TIP3    H124433   2.366   4.669   0.604 -0.9395 -0.3909  1.1097
  958TIP3    H224434   2.378   4.740   0.737 -1.3015  1.1468  0.3553
  959TIP3   OH224435   3.308   2.421   0.180  0.1342 -0.3058  0.4218
  959TIP3    H124436   3.239   2.411   0.246 -0.8433  0.8013 -0.3614
  959TIP3    H224437   3.260   2.444   0.100  1.3478 -0.7317 -0.4527
  960TIP3   OH224438   6.467   2.278   0.545  0.4457  0.3085 -0.1319
  960TIP3    H124439   6.548   2.234   0.572 -1.8468 -2.0722  3.8173
  960TIP3    H224440   6.426   2.216   0.484  0.8914  0.8869 -1.0468
  961TIP3   OH224441   3.742   4.156   7.839 -0.2559 -1.1125  0.2927
  961TIP3    H124442   3.723   4.170   7.747  1.8599 -0.2823 -0.0782
  961TIP3    H224443   3.677   4.208   7.886 -0.9873 -1.0873 -0.7285
  962TIP3   OH224444   4.826   4.446   0.846  0.2646 -0.7990  0.3861
  962TIP3    H124445   4.910   4.441   0.891  0.1702  2.5962  1.2259
  962TIP3    H224446   4.761   4.436   0.916  0.0638  0.0313  0.3362
  963TIP3   OH224447   0.199   5.186   1.259  0.1065  0.2680  0.1429
  963TIP3    H124448   0.240   5.272   1.242 -0.5405  0.1191 -2.6282
  963TIP3    H224449   0.252   5.124   1.209 -0.0238 -0.8371  1.3268
  964TIP3   OH224450   0.585   1.948   2.111 -0.1346 -0.6791 -0.3309
  964TIP3    H124451   0.507   2.005   2.113  1.0949  1.0923 -0.4949
  964TIP3    H224452   0.624   1.959   2.197 -0.5977 -2.4193  0.1417
  965TIP3   OH224453   2.216   3.391   0.748  0.2868 -0.1268 -0.1404
  965TIP3    H124454   2.290   3.356   0.698  0.5562  0.1481  0.0674
  965TIP3    H224455   2.155   3.317   0.754  0.4906 -0.3188 -0.4145
  966TIP3   OH224456   6.043   1.930   1.425 -0.8639  0.1599 -0.0876
  966TIP3    H124457   6.015   1.868   1.357 -1.7829 -0.5022  0.8411
  966TIP3    H224458   6.006   2.014   1.399 -1.9614 -0.2736  0.0237
  967TIP3   OH224459   4.703   2.538   2.658 -0.3409  0.1168  0.6759
  967TIP3    H124460   4.730   2.629   2.647  2.9054 -0.7227  0.8046
  967TIP3    H224461   4.720   2.518   2.750  0.0002 -0.8968  0.4095
  968TIP3   OH224462   1.302   2.516   0.178  0.2679  0.3904  0.5417
  968TIP3    H124463   1.309   2.516   0.082 -0.0950 -0.0952  0.5094
  968TIP3    H224464   1.320   2.606   0.204 -0.3951  0.6993 -0.0391
  969TIP3   OH224465   5.182   3.937   0.084  0.3086 -0.0855  0.3074
  969TIP3    H124466   5.198   4.009   0.145 -0.8927 -2.1340  3.2783
  969TIP3    H224467   5.086   3.934   0.075  0.4512  0.0394 -1.6006
  970TIP3   OH224468   3.671   3.051   2.322 -0.1296 -0.1552  0.7528
  970TIP3    H124469   3.710   2.977   2.370 -1.1179 -0.9697  0.3414
  970TIP3    H224470   3.743   3.114   2.314  0.7302 -1.0413  1.1582
  971TIP3   OH224471   5.906   6.447   7.069 -0.1871  0.1936  0.2312
  971TIP3    H124472   5.974   6.485   7.125 -0.9357  1.5070  0.2890
  971TIP3    H224473   5.941   6.362   7.043  0.4512 -0.1967  2.1922
  972TIP3   OH224474   4.551   4.367   1.661 -0.2363 -0.1591 -0.0822
  972TIP3    H124475   4.466   4.367   1.706  0.5778  0.1471  1.5353
  972TIP3    H224476   4.596   4.289   1.695  0.8878  0.7822  0.6694
  973TIP3   OH224477   5.598   4.887   1.422  0.4973  0.0517 -0.5539
  973TIP3    H124478   5.520   4.848   1.462  1.5491 -2.1556 -0.5099
  973TIP3    H224479   5.637   4.815   1.372  1.8745  1.4300 -1.5365
  974TIP3   OH224480   4.481   5.717   0.605  0.1873 -0.2327  0.2221
  974TIP3    H124481   4.480   5.781   0.676 -0.5210  1.5932 -1.3339
  974TIP3    H224482   4.390   5.692   0.594  0.3475 -0.8296  0.2106
  975TIP3   OH224483   3.663   6.496   0.773  0.0433 -0.0700  0.1895
  975TIP3    H124484   3.621   6.469   0.691  1.1240  0.5807 -0.6143
  975TIP3    H224485   3.595   6.545   0.819 -0.9365 -1.4067  0.2175
  976TIP3   OH224486   2.808   0.584   2.386  0.6946  0.5729  0.2616
  976TIP3    H124487   2.739   0.589   2.451  1.1213 -1.2739  0.8974
  976TIP3    H224488   2.768   0.619   2.306 -0.2314  1.6495  1.1673
  977TIP3   OH224489   3.341   2.557   1.803 -0.4676 -0.0325  0.4305
  977TIP3    H124490   3.357   2.579   1.712  1.9173  0.7699  0.9699
  977TIP3    H224491   3.308   2.467   1.801 -1.4136  0.3094 -1.2441
  978TIP3   OH224492   6.090   0.047   0.294  0.7619 -0.1786  0.0399
  978TIP3    H124493   6.036   0.011   0.364 -0.6742 -1.7642 -1.7657
  978TIP3    H224494   6.038   0.118   0.257  0.9222 -0.2212 -0.2705
  979TIP3   OH224495   2.741   2.773   8.418 -0.0780 -0.0342 -0.0786
  979TIP3    H124496   2.719   2.680   8.412 -0.3249 -0.2029  2.4241
  979TIP3    H224497   2.691   2.814   8.347  0.1748 -1.7983 -1.3449
  980TIP3   OH224498   0.380   0.600   7.486  0.1142 -0.0400 -0.6174
  980TIP3    H124499   0.430   0.680   7.467  1.4319 -0.4848  0.7416
  980TIP3    H224500   0.446   0.538   7.515 -1.0448 -1.2616 -0.5193
  981TIP3   OH224501   2.225   0.001   0.036 -0.2935  0.5545  0.1148
  981TIP3    H124502   2.212   0.093   0.058  1.5405  0.8700 -0.0028
  981TIP3    H224503   2.286  -0.032   0.103 -1.9795 -0.9820  1.0071
  982TIP3   OH224504   2.441   3.397   7.565 -0.0287 -0.0859 -0.3590
  982TIP3    H124505   2.378   3.463   7.536  1.0222  0.9581 -0.3342
  982TIP3    H224506   2.467   3.425   7.653 -0.1452 -0.9735 -0.0293
  983TIP3   OH224507   4.137   1.029   0.313 -0.0492 -0.6479  0.0052
  983TIP3    H124508   4.093   1.107   0.345 -0.7982 -1.5042  1.1058
  983TIP3    H224509   4.152   1.047   0.220  0.0847  0.9243  0.3004
  984TIP3   OH224510   1.217   4.997   8.524 -0.1496  0.0390  0.1702
  984TIP3    H124511   1.187   5.065   8.584 -0.1837  1.3343 -1.2389
  984TIP3    H224512   1.312   4.998   8.532 -0.1886 -0.2793  0.6983
  985TIP3   OH224513   4.814   6.504   1.217  0.4021  0.8025 -0.3180
  985TIP3    H124514   4.873   6.560   1.166 -0.8399  1.0555 -1.5320
  985TIP3    H224515   4.753   6.565   1.258 -1.1922  0.3747 -1.9441
  986TIP3   OH224516   0.455   0.458   0.722  0.2470 -0.4506 -0.2523
  986TIP3    H124517   0.433   0.469   0.630 -0.6142  2.2808  0.2075
  986TIP3    H224518   0.371   0.442   0.765  0.3268  0.6516  0.3404
  987TIP3   OH224519   6.396   3.499   1.345  0.2019 -0.4759  0.2244
  987TIP3    H124520   6.381   3.443   1.269 -0.7741  1.8532 -1.4142
  987TIP3    H224521   6.451   3.570   1.312 -2.2524  1.9312  0.9376
  988TIP3   OH224522   6.061   5.907   0.471  0.3913  0.1916 -0.1446
  988TIP3    H124523   6.151   5.936   0.482  0.0624  1.0679  0.3765
  988TIP3    H224524   6.028   5.898   0.561 -0.0944  0.0750 -0.3305
  989TIP3   OH224525   2.231   5.034   8.382 -0.6414  0.0771 -0.3159
  989TIP3    H124526   2.174   4.969   8.423 -0.4268  0.4240  0.5591
  989TIP3    H224527   2.202   5.118   8.418  0.0466  0.3133 -0.2873
  990TIP3   OH224528   4.646   5.043   2.367 -0.1321 -0.5262 -0.1132
  990TIP3    H124529   4.724   4.996   2.338  0.2722 -1.1134  1.7970
  990TIP3    H224530   4.678   5.127   2.399 -0.5059 -0.1163 -0.7673
  991TIP3   OH224531   4.420   5.741   1.361 -0.7919  0.4000 -0.3043
  991TIP3    H124532   4.512   5.727   1.336 -1.1427 -2.7086 -0.3445
  991TIP3    H224533   4.380   5.784   1.286  0.3510  0.5880 -0.8292
  992TIP3   OH224534   1.074   5.819   0.090 -0.0507  1.0096  0.1036
  992TIP3    H124535   1.069   5.745   0.151 -0.7264  0.3873 -0.6937
  992TIP3    H224536   1.111   5.782   0.010 -3.0304  0.8117 -1.3111
  993TIP3   OH224537   6.299   5.419   6.955  0.3389  0.0539 -0.5088
  993TIP3    H124538   6.207   5.445   6.960  0.2121 -0.5241  0.3638
  993TIP3    H224539   6.324   5.404   7.046  1.7504  1.7305 -0.5664
  994TIP3   OH224540   1.352   3.919   8.292 -0.0161 -0.2741 -0.3341
  994TIP3    H124541   1.400   4.002   8.301 -1.4577  0.7501 -1.6259
  994TIP3    H224542   1.342   3.888   8.382  1.1488  0.5778  0.1261
  995TIP3   OH224543   3.693   3.037   2.002  0.1391 -0.8866  0.5092
  995TIP3    H124544   3.605   3.008   1.977  0.2041 -0.1398 -0.6739
  995TIP3    H224545   3.678   3.108   2.064 -0.1163 -0.3818 -0.1202
  996TIP3   OH224546   4.344   6.401   2.634 -0.5582  0.2090 -1.0011
  996TIP3    H124547   4.377   6.488   2.613  1.5603  0.2774  2.0662
  996TIP3    H224548   4.416   6.342   2.613  0.1582 -0.1088  1.9051
  997TIP3   OH224549   4.490   6.434   7.145  0.0511 -0.4346  0.1489
  997TIP3    H124550   4.427   6.368   7.116 -0.5606  0.7579 -1.3595
  997TIP3    H224551   4.516   6.405   7.232 -0.5672 -2.3906 -0.2628
  998TIP3   OH224552   4.786   0.584   1.865 -0.3992  0.5693  0.4329
  998TIP3    H124553   4.851   0.547   1.926  0.7690  0.3278 -0.8982
  998TIP3    H224554   4.773   0.674   1.896  1.3849  0.9671  0.1350
  999TIP3   OH224555   2.957   2.183   0.897  0.2118  0.5094 -0.2122
  999TIP3    H124556   2.880   2.234   0.869  0.7545  0.8085 -1.2480
  999TIP3    H224557   3.009   2.245   0.948 -0.2487  0.2979  0.5138
 1000TIP3   OH224558   2.412   1.846   1.081 -0.0090  0.8245 -0.1560
 1000TIP3    H124559   2.448   1.774   1.030  4.9509  1.4638  1.8441
 1000TIP3    H224560   2.441   1.925   1.035 -0.4080  1.4464  0.6277
 1001TIP3   OH224561   1.085   5.021   7.557 -0.6250  0.2868 -0.3498
 1001TIP3    H124562   1.065   4.951   7.618 -2.5408 -0.1309 -1.3855
 1001TIP3    H224563   1.178   5.040   7.571 -0.2683 -1.8738  0.5238
 1002TIP3   OH224564   6.407   5.282   0.888  0.1678  0.1874 -0.4535
 1002TIP3    H124565   6.432   5.291   0.796  0.3250  0.8460 -0.3469
 1002TIP3    H224566   6.418   5.188   0.906 -0.4214 -0.0516 -1.2567
 1003TIP3   OH224567   5.664   5.126   6.588  0.3355  0.1681 -0.3234
 1003TIP3    H124568   5.698   5.096   6.672  0.1516 -1.0922 -0.6785
 1003TIP3    H224569   5.657   5.221   6.597  0.4783  0.0654  1.0252
 1004TIP3   OH224570   0.239   5.653   6.117  0.3688  0.6585  0.0805
 1004TIP3    H124571   0.290   5.734   6.118 -0.8202  1.4749 -1.4978
 1004TIP3    H224572   0.171   5.666   6.183 -0.4460  1.4055 -0.8805
 1005TIP3   OH224573   3.028   3.383   6.988 -0.2200 -0.8813 -0.1176
 1005TIP3    H124574   2.954   3.372   7.047 -0.7545  0.2939 -0.5459
 1005TIP3    H224575   3.034   3.477   6.974  0.2397 -1.0968 -1.5148
 1006TIP3   OH224576   5.100   3.313   1.236 -0.5468 -0.0080 -0.0217
 1006TIP3    H124577   5.112   3.310   1.141  1.2996  1.0626  0.1090
 1006TIP3    H224578   5.137   3.398   1.261  0.8383 -1.0802  1.8548
 1007TIP3   OH224579   1.272   3.113   6.996 -0.5517 -0.0686  0.0182
 1007TIP3    H124580   1.361   3.146   6.999  0.1186 -1.8091  2.0114
 1007TIP3    H224581   1.232   3.144   7.077 -1.2811 -0.5397 -0.1513
 1008TIP3   OH224582   2.854   3.112   7.318  0.2910  0.6017 -0.0098
 1008TIP3    H124583   2.821   3.026   7.345 -0.6459  0.7380 -0.6558
 1008TIP3    H224584   2.814   3.173   7.379  1.1789  0.5701  0.6243
 1009TIP3   OH224585   4.771   2.694   1.682  0.2547 -0.2105  0.3978
 1009TIP3    H124586   4.752   2.700   1.589  1.7489 -1.7465 -0.0621
 1009TIP3    H224587   4.719   2.620   1.713  2.3461 -1.9901 -0.0551
 1010TIP3   OH224588   4.163   4.158   7.703 -0.5186  0.3936 -0.4296
 1010TIP3    H124589   4.078   4.137   7.666 -0.8677  1.5817 -0.3555
 1010TIP3    H224590   4.149   4.240   7.751  0.6834  0.6760 -0.5119
 1011TIP3   OH224591   6.877   1.340   2.092 -0.0894 -0.0723  0.2746
 1011TIP3    H124592   6.813   1.338   2.163 -3.6550  0.6338 -2.6356
 1011TIP3    H224593   6.872   1.429   2.057  0.7300 -0.6786 -1.5022
 1012TIP3   OH224594   1.020   1.115   1.281  0.0032 -0.2774 -0.1044
 1012TIP3    H124595   1.038   1.136   1.372  0.3607 -0.9903 -0.0001
 1012TIP3    H224596   1.094   1.153   1.233 -1.1192  1.7591 -0.3438
 1013TIP3   OH224597   0.199   6.651   8.484 -0.0277  0.3285  0.2002
 1013TIP3    H124598   0.159   6.716   8.542  1.8970  0.3587  1.5751
 1013TIP3    H224599   0.292   6.651   8.507  0.4249 -1.2829 -1.3570
 1014TIP3   OH224600   4.895   5.432   1.623 -0.4150  0.5451  0.1252
 1014TIP3    H124601   4.874   5.450   1.532  1.4127 -0.9511 -0.6470
 1014TIP3    H224602   4.821   5.380   1.655  0.2698 -1.5747 -1.4650
 1015TIP3   OH224603   5.827   3.590   6.938 -0.3249 -0.4990  0.6216
 1015TIP3    H124604   5.843   3.531   7.011  0.7983 -1.8292 -0.6306
 1015TIP3    H224605   5.914   3.626   6.917 -0.7746  0.5313  0.4759
 1016TIP3   OH224606   3.883   4.378   2.478 -0.5976 -0.1243  0.7380
 1016TIP3    H124607   3.799   4.339   2.454 -2.0742  2.5779  1.1175
 1016TIP3    H224608   3.912   4.424   2.399 -0.5870  0.7197  1.2175
 1017TIP3   OH224609   2.892   5.042   1.412  0.5933 -0.4896 -0.7819
 1017TIP3    H124610   2.924   5.043   1.321  0.2146  1.4228 -0.9442
 1017TIP3    H224611   2.972   5.044   1.465  0.8164  0.4344 -1.1274
 1018TIP3   OH224612   2.237   4.997   0.845  0.3262 -0.5350 -0.0469
 1018TIP3    H124613   2.329   4.977   0.861 -0.0172 -1.1003  1.4258
 1018TIP3    H224614   2.195   4.988   0.931 -0.7220  1.8802 -0.2213
 1019TIP3   OH224615   4.936   5.944   1.670  0.1108 -0.5621  0.5536
 1019TIP3    H124616   5.016   5.938   1.617 -0.3863 -2.0189 -0.0731
 1019TIP3    H224617   4.928   5.858   1.711 -0.9696 -0.3200  0.8700
 1020TIP3   OH224618   1.543   1.010   0.290  0.2747 -0.2313  0.1194
 1020TIP3    H124619   1.567   1.019   0.198 -1.7833  1.2727 -0.3366
 1020TIP3    H224620   1.605   1.065   0.337  0.7484 -0.2585 -0.4620
 1021TIP3   OH224621   3.761   4.014   6.768  0.1165  0.2885  0.3798
 1021TIP3    H124622   3.707   3.957   6.712 -0.8386  0.7346  0.8142
 1021TIP3    H224623   3.844   4.021   6.722 -0.2522 -0.2845 -0.4067
 1022TIP3   OH224624   4.132   1.284   2.077 -0.5680  0.4302  0.2972
 1022TIP3    H124625   4.189   1.243   2.011 -1.5783  1.3141 -1.1793
 1022TIP3    H224626   4.187   1.293   2.154  1.1318  0.7604 -0.9085
 1023TIP3   OH224627   6.870   0.693   1.846  0.6843 -0.0346 -0.0675
 1023TIP3    H124628   6.904   0.615   1.890 -0.2684 -0.1075  0.5652
 1023TIP3    H224629   6.778   0.698   1.874  0.7884  1.4284  0.0636
 1024TIP3   OH224630   2.095   5.392   8.262  0.0432 -0.2507  0.2242
 1024TIP3    H124631   2.094   5.473   8.312 -0.4772 -0.9109  1.2974
 1024TIP3    H224632   2.014   5.394   8.210 -0.6565 -0.6842  1.2618
 1025TIP3   OH224633   4.735   4.971   1.485 -0.0308  0.2912 -0.2106
 1025TIP3    H124634   4.825   4.993   1.507  0.2214  0.7724 -1.5989
 1025TIP3    H224635   4.699   5.052   1.448 -1.6202  0.6559  1.9884
 1026TIP3   OH224636   2.946   6.869   1.272 -0.2658  0.2835 -0.1006
 1026TIP3    H124637   2.880   6.808   1.240  0.1040 -1.0286  1.4715
 1026TIP3    H224638   3.002   6.815   1.329  0.8494  1.8251  0.3194
 1027TIP3   OH224639   0.918   5.914   7.542  0.5319 -0.0121 -0.5045
 1027TIP3    H124640   0.886   5.830   7.511 -2.5204  1.0075 -0.4489
 1027TIP3    H224641   0.954   5.956   7.465  0.2917 -0.6019 -0.9445
 1028TIP3   OH224642   1.764   3.860   2.277  0.0121 -0.1846  0.5801
 1028TIP3    H124643   1.801   3.947   2.292  0.6968 -0.4427  0.4602
 1028TIP3    H224644   1.802   3.806   2.346 -0.2658 -0.4308  0.5428
 1029TIP3   OH224645   0.842   5.403   7.065 -0.0881  0.4625  0.2149
 1029TIP3    H124646   0.898   5.366   6.997  0.7197  1.5619  0.2458
 1029TIP3    H224647   0.899   5.411   7.142 -0.4402  1.0901  0.4181
 1030TIP3   OH224648   4.963   6.795   6.369 -0.4080 -0.0776  0.3039
 1030TIP3    H124649   5.049   6.789   6.410  0.0807 -0.0908 -0.6953
 1030TIP3    H224650   4.905   6.824   6.439  0.6103  1.0111  0.7205
 1031TIP3   OH224651   1.745   3.419   0.417  0.1301 -0.3761 -0.1899
 1031TIP3    H124652   1.686   3.362   0.368 -0.6547 -0.4529  0.8043
 1031TIP3    H224653   1.696   3.501   0.428  1.1754  0.4684 -1.4521
 1032TIP3   OH224654   0.444   6.006   0.390  0.1860  0.0894  0.0321
 1032TIP3    H124655   0.488   5.934   0.436 -0.8178 -0.6464 -0.1277
 1032TIP3    H224656   0.407   5.965   0.312  0.0545  0.9026 -0.3381
 1033TIP3   OH224657   3.840   0.852   1.344  0.0818  0.1556  0.4004
 1033TIP3    H124658   3.825   0.883   1.434 -1.0454  1.2101 -0.1228
 1033TIP3    H224659   3.767   0.791   1.329 -0.2282  0.6411 -0.0848
 1034TIP3   OH224660   3.054   2.938   0.922  0.5480  0.3573 -0.2868
 1034TIP3    H124661   2.960   2.948   0.934  0.7674  2.4618  0.1537
 1034TIP3    H224662   3.090   2.949   1.010  1.2581  0.4003 -0.5774
 1035TIP3   OH224663   1.232   6.598   0.451  0.5560  0.9300 -0.5359
 1035TIP3    H124664   1.160   6.536   0.437 -0.1915  0.9721  2.4481
 1035TIP3    H224665   1.193   6.684   0.433  0.0358  0.8911  0.3367
 1036TIP3   OH224666   5.243   3.589   0.881  0.2863  0.9093 -0.4938
 1036TIP3    H124667   5.197   3.538   0.814  1.3425 -0.4403 -0.2550
 1036TIP3    H224668   5.201   3.674   0.880 -0.2535  0.6721 -2.3244
 1037TIP3   OH224669   2.116   5.492   1.093 -0.2764 -0.0599 -0.3361
 1037TIP3    H124670   2.100   5.486   1.187 -1.4695  1.9611 -0.3672
 1037TIP3    H224671   2.210   5.510   1.086 -0.0284 -0.9677  0.3874
 1038TIP3   OH224672   5.169   2.364   7.838 -0.3728  0.0918 -0.6710
 1038TIP3    H124673   5.261   2.342   7.852 -0.4107  1.0865  1.4622
 1038TIP3    H224674   5.135   2.383   7.925 -2.6127 -0.1981 -1.4033
 1039TIP3   OH224675   6.851   2.274   1.836 -0.4422  0.2629 -0.1873
 1039TIP3    H124676   6.831   2.235   1.751  0.0130  1.8148 -1.0508
 1039TIP3    H224677   6.824   2.208   1.900 -0.8077 -0.9333 -1.5278
 1040TIP3   OH224678   4.889   6.156   1.915  0.2437  0.2804  0.0104
 1040TIP3    H124679   4.823   6.168   1.983  1.7140 -1.9257  2.0055
 1040TIP3    H224680   4.973   6.174   1.958  1.2079 -0.8224 -1.2832
 1041TIP3   OH224681   1.641   4.884   7.931 -0.2899  0.4319 -0.2007
 1041TIP3    H124682   1.626   4.791   7.946  1.2243  0.1934  0.0752
 1041TIP3    H224683   1.569   4.912   7.875 -0.1509 -1.1814 -1.2495
 1042TIP3   OH224684   5.277   2.191   2.446 -0.1792 -0.5051  0.0354
 1042TIP3    H124685   5.294   2.201   2.353 -1.7145  0.7051 -0.1521
 1042TIP3    H224686   5.322   2.110   2.470  3.4020  1.0231 -0.9024
 1043TIP3   OH224687   6.258   4.471   7.469 -0.1694  0.9383 -0.1305
 1043TIP3    H124688   6.189   4.435   7.414  1.0471  1.2084 -1.9157
 1043TIP3    H224689   6.272   4.559   7.435  2.0210  0.3864 -0.8144
 1044TIP3   OH224690   1.931   0.921   7.311  0.3967  0.1836  0.7513
 1044TIP3    H124691   1.958   0.865   7.384  0.2483 -0.2347  0.4873
 1044TIP3    H224692   2.012   0.960   7.279  0.4840  0.2288  1.0225
 1045TIP3   OH224693   1.880   2.476   0.816 -0.4701  0.0767  0.2826
 1045TIP3    H124694   1.859   2.477   0.723 -1.2935  1.7130  0.4602
 1045TIP3    H224695   1.922   2.560   0.833 -2.0480  0.6564  1.7206
 1046TIP3   OH224696   3.549   4.481   1.621  0.2906  0.7679  0.4572
 1046TIP3    H124697   3.645   4.478   1.618  0.3313 -1.4210  1.9910
 1046TIP3    H224698   3.521   4.415   1.558 -0.2902  1.9417 -0.5731
 1047TIP3   OH224699   2.840   6.473   0.333 -0.2343 -0.5903  0.2216
 1047TIP3    H124700   2.910   6.434   0.385 -0.2512  0.7316  1.2798
 1047TIP3    H224701   2.788   6.398   0.303 -0.1032 -1.4081  1.9213
 1048TIP3   OH224702   5.912   5.317   7.919  0.4251  0.2905  0.7411
 1048TIP3    H124703   5.984   5.274   7.874  0.0842  0.1974  0.2812
 1048TIP3    H224704   5.874   5.249   7.975 -1.3471 -0.6209 -1.4251
 1049TIP3   OH224705   1.859   6.717   0.786  0.4802  0.0604  0.0367
 1049TIP3    H124706   1.885   6.712   0.694 -0.7549 -1.0953 -0.2743
 1049TIP3    H224707   1.915   6.653   0.830 -0.4584 -1.0279 -0.3090
 1050TIP3   OH224708   2.548   5.262   0.707  0.0420 -0.0672  0.1578
 1050TIP3    H124709   2.543   5.175   0.667  1.6254 -0.0046 -0.2581
 1050TIP3    H224710   2.641   5.285   0.704 -0.2521  1.3829  0.8354
 1051TIP3   OH224711   2.746   6.446   1.161  0.0139 -0.1997 -0.5074
 1051TIP3    H124712   2.765   6.455   1.255  0.2063 -2.8205 -0.1938
 1051TIP3    H224713   2.664   6.492   1.148  0.5714  1.2083  0.6849
 1052TIP3   OH224714   4.092   2.212   7.913 -0.3291 -0.0332  0.3284
 1052TIP3    H124715   4.044   2.156   7.852 -0.4150  1.9446 -1.4938
 1052TIP3    H224716   4.080   2.168   7.998  0.3711 -3.2394 -1.0713
 1053TIP3   OH224717   4.323   3.888   1.186  0.1992 -0.0168  0.5110
 1053TIP3    H124718   4.348   3.976   1.157  0.2931 -0.0626  0.4505
 1053TIP3    H224719   4.368   3.830   1.125 -1.1843 -0.0735 -0.5080
 1054TIP3   OH224720   6.132   3.922   8.425 -0.1010 -0.0935  0.0014
 1054TIP3    H124721   6.054   3.888   8.382 -0.9316 -0.2380  1.5505
 1054TIP3    H224722   6.122   3.896   8.517  1.8766 -0.3011  0.2018
 1055TIP3   OH224723   4.549   5.226   2.089 -0.1219  0.0583 -0.1297
 1055TIP3    H124724   4.553   5.131   2.097  1.5608  0.0656 -0.6375
 1055TIP3    H224725   4.639   5.256   2.096 -0.7135  1.7415  1.1429
 1056TIP3   OH224726   2.762   1.864   0.359  0.3884  0.0810 -0.2335
 1056TIP3    H124727   2.781   1.826   0.445 -0.7150  1.4940  0.6715
 1056TIP3    H224728   2.844   1.904   0.332  0.2408  1.4415  1.1549
 1057TIP3   OH224729   6.821   1.605   1.468 -0.1997 -0.3311 -0.3418
 1057TIP3    H124730   6.807   1.620   1.561  0.1525 -0.7280 -0.2255
 1057TIP3    H224731   6.793   1.687   1.426 -0.7289 -0.2965  0.0752
 1058TIP3   OH224732   3.983   3.526   0.754  0.0702 -0.4544  0.3398
 1058TIP3    H124733   3.906   3.542   0.699 -0.5944  0.5906  1.5498
 1058TIP3    H224734   3.953   3.464   0.820  0.1852  0.1965  1.0042
 1059TIP3   OH224735   6.436   4.986   1.932 -0.2130  0.0712 -0.0706
 1059TIP3    H124736   6.355   5.016   1.973  0.6122  1.4538  0.6294
 1059TIP3    H224737   6.498   5.058   1.947  1.0039 -0.7497 -1.0105
 1060TIP3   OH224738   2.743   4.186   7.264  0.4734  0.3612  0.4061
 1060TIP3    H124739   2.792   4.120   7.311  0.3986  1.1467  1.6388
 1060TIP3    H224740   2.750   4.265   7.318 -2.0021  0.5490  0.5863
 1061TIP3   OH224741   1.064   5.769   0.753  0.3177  0.5246  0.4976
 1061TIP3    H124742   1.142   5.713   0.749  0.8077  1.2386 -1.8056
 1061TIP3    H224743   0.990   5.708   0.754  0.8586 -0.2308 -1.0237
 1062TIP3   OH224744   4.739   4.289   8.220  0.4112  0.1807  0.3806
 1062TIP3    H124745   4.703   4.231   8.287 -1.1240  3.3684  2.5967
 1062TIP3    H224746   4.678   4.282   8.147 -0.4760 -0.0996  1.1271
 1063TIP3   OH224747   3.319   4.914   0.401  0.6666 -1.0151  0.3188
 1063TIP3    H124748   3.275   4.881   0.480 -0.2114  0.1183  0.3338
 1063TIP3    H224749   3.313   4.842   0.338 -0.0714 -1.3499  0.7586
 1064TIP3   OH224750   6.442   3.934   0.229 -0.1890 -0.0495 -0.2021
 1064TIP3    H124751   6.441   3.949   0.324  1.3228  0.4915 -0.2400
 1064TIP3    H224752   6.417   3.842   0.218  0.3402 -0.3197  0.7737
 1065TIP3   OH224753   2.311   3.855   1.175  0.0038  0.6275  0.0197
 1065TIP3    H124754   2.235   3.803   1.200  0.5813 -0.3075 -0.1264
 1065TIP3    H224755   2.296   3.940   1.216 -0.6257  0.1364  0.8416
 1066TIP3   OH224756   3.732   5.612   8.371  0.2122 -0.4449  0.1490
 1066TIP3    H124757   3.668   5.596   8.440  0.7519 -2.0663  0.3181
 1066TIP3    H224758   3.706   5.555   8.299  0.2774  0.4270 -0.5749
 1067TIP3   OH224759   6.010   6.745   0.769 -0.3009 -0.1055 -0.2969
 1067TIP3    H124760   5.917   6.749   0.789 -0.5900 -0.1750 -1.5686
 1067TIP3    H224761   6.017   6.691   0.690  1.0122 -1.7365  0.8516
 1068TIP3   OH224762   1.209   4.362   7.392 -0.4494  0.3786  0.5597
 1068TIP3    H124763   1.130   4.406   7.423 -1.0732  1.1155 -1.8428
 1068TIP3    H224764   1.216   4.386   7.300  1.0147 -1.9492 -0.0469
 1069TIP3   OH224765   1.716   4.749   0.211 -0.1608  0.0409  0.2991
 1069TIP3    H124766   1.716   4.841   0.187  0.1354  0.0959  0.5170
 1069TIP3    H224767   1.694   4.748   0.304  0.9019 -0.0423  0.5585
 1070TIP3   OH224768   2.804   2.823   1.529 -0.1602 -0.0980  0.3509
 1070TIP3    H124769   2.832   2.804   1.618  2.2068 -0.7424 -0.4646
 1070TIP3    H224770   2.808   2.919   1.522 -0.5233 -0.0335  0.9663
 1071TIP3   OH224771   6.552   0.401   6.680 -0.1729  0.1347  0.5637
 1071TIP3    H124772   6.617   0.337   6.654 -0.3295  0.0163  0.4591
 1071TIP3    H224773   6.597   0.485   6.674  0.3199 -0.0496  1.6522
 1072TIP3   OH224774   6.050   0.725   7.364 -0.1865 -0.6998 -0.4783
 1072TIP3    H124775   6.084   0.642   7.397  0.5392 -0.6232 -1.0069
 1072TIP3    H224776   6.100   0.741   7.284  1.7334  1.6668  1.0730
 1073TIP3   OH224777   0.934   4.611   7.202 -0.3401  0.0837  0.3879
 1073TIP3    H124778   0.975   4.695   7.180 -0.3685 -0.1709 -0.7114
 1073TIP3    H224779   0.991   4.545   7.163 -0.9766 -0.3423  0.1480
 1074TIP3   OH224780   4.136   4.913   7.940  0.2589  0.0596  0.1524
 1074TIP3    H124781   4.079   4.844   7.903 -2.0139  1.8219  0.1278
 1074TIP3    H224782   4.102   4.927   8.028  0.3153  1.4986 -0.0374
 1075TIP3   OH224783   2.846   3.074   1.701  0.0629 -0.1813  0.0708
 1075TIP3    H124784   2.868   3.071   1.608  0.8228  0.9067  0.1819
 1075TIP3    H224785   2.931   3.073   1.746 -0.3153 -1.6005  0.8060
 1076TIP3   OH224786   2.137   1.279   6.550 -0.0242  0.0352  0.2880
 1076TIP3    H124787   2.168   1.261   6.461  0.2577 -1.2795  0.6273
 1076TIP3    H224788   2.206   1.333   6.589 -0.0571  0.4524 -0.2137
 1077TIP3   OH224789   3.412   5.965   0.100 -0.1980  0.6507 -0.2335
 1077TIP3    H124790   3.494   5.946   0.146  0.1792  1.2835 -0.6295
 1077TIP3    H224791   3.419   5.917   0.018 -1.2523 -1.1954  0.6974
 1078TIP3   OH224792   3.588   0.210   7.000  0.0129  0.0952  0.0036
 1078TIP3    H124793   3.577   0.220   7.094  0.7370 -0.2275  0.1240
 1078TIP3    H224794   3.498   0.204   6.966 -0.3295 -3.7133  1.0864
 1079TIP3   OH224795   3.839   3.067   7.897 -1.1170 -0.0953 -0.0848
 1079TIP3    H124796   3.782   3.143   7.882  1.3878  1.5717 -2.3599
 1079TIP3    H224797   3.903   3.098   7.961 -1.6627 -1.2889  1.0602
 1080TIP3   OH224798   2.224   5.799   0.873 -0.3366 -0.1517 -0.3370
 1080TIP3    H124799   2.163   5.830   0.940 -0.0369 -0.2529 -0.0133
 1080TIP3    H224800   2.190   5.713   0.848 -1.0017  0.3042 -1.0248
 1081TIP3   OH224801   0.202   6.328   0.812 -0.0819  0.3149 -0.3852
 1081TIP3    H124802   0.135   6.390   0.838 -0.2330 -0.0519  0.1214
 1081TIP3    H224803   0.182   6.307   0.720 -1.4573 -0.7748  0.1247
 1082TIP3   OH224804   6.349   4.961   0.695 -0.3119  0.3141  0.0466
 1082TIP3    H124805   6.409   4.888   0.680  2.0106  1.9962  0.7447
 1082TIP3    H224806   6.315   4.946   0.783  1.4796  0.9013  0.8840
 1083TIP3   OH224807   2.288   2.969   7.277  0.5278  0.0872 -0.3642
 1083TIP3    H124808   2.297   2.978   7.183 -0.3954  0.6062 -0.4171
 1083TIP3    H224809   2.231   2.892   7.288  0.7260 -0.0407 -0.2240
 1084TIP3   OH224810   1.002   3.310   1.186 -0.0564 -0.2136  0.2004
 1084TIP3    H124811   0.944   3.348   1.252 -2.9295  1.2101 -2.8592
 1084TIP3    H224812   1.088   3.349   1.204 -0.7530  0.3273  2.8222
 1085TIP3   OH224813   6.674   0.419   0.869  0.0220  0.2638  0.7303
 1085TIP3    H124814   6.681   0.393   0.777 -0.3450 -1.1779  1.0907
 1085TIP3    H224815   6.585   0.394   0.894  0.3835 -0.0727  1.6923
 1086TIP3   OH224816   3.575   6.527   7.022  0.1131  0.0538  0.1250
 1086TIP3    H124817   3.583   6.451   7.079 -1.1214 -0.3544 -0.2138
 1086TIP3    H224818   3.523   6.496   6.948  0.0512  1.0891 -0.2818
 1087TIP3   OH224819   1.064   3.563   0.552  0.7189 -0.1805  0.0408
 1087TIP3    H124820   1.114   3.481   0.551  0.2073 -0.5839  2.2665
 1087TIP3    H224821   1.131   3.631   0.542  1.1031 -0.8212 -2.3102
 1088TIP3   OH224822   2.245   4.086   6.965  0.3196 -0.2055 -0.9011
 1088TIP3    H124823   2.297   4.163   6.940 -0.9671  0.2458 -2.3469
 1088TIP3    H224824   2.156   4.109   6.940  0.0956 -2.7257 -2.7399
 1089TIP3   OH224825   6.258   3.569   8.383 -0.4501  0.4889 -0.0381
 1089TIP3    H124826   6.252   3.474   8.376  1.8275  0.2220  0.9857
 1089TIP3    H224827   6.252   3.600   8.293 -0.0758 -0.7048 -0.4923
 1090TIP3   OH224828   2.896   3.874   2.907  0.2373  0.5125 -0.4445
 1090TIP3    H124829   2.847   3.944   2.952  1.1341  0.7723  0.1558
 1090TIP3    H224830   2.976   3.865   2.958 -0.4926 -2.0273  0.4039
 1091TIP3   OH224831   6.024   1.761   0.951  0.2727  0.1917  0.2345
 1091TIP3    H124832   6.063   1.800   1.029  0.0416  1.4339 -0.2600
 1091TIP3    H224833   6.098   1.738   0.895  0.4265 -0.4858  0.6989
 1092TIP3   OH224834   3.176   6.845   8.383 -0.0567 -0.1686 -0.1579
 1092TIP3    H124835   3.097   6.871   8.431 -1.3051 -1.4891 -1.3821
 1092TIP3    H224836   3.179   6.750   8.394  2.1160 -0.0233  0.9134
 1093TIP3   OH224837   6.606   1.506   1.826 -0.3240  0.6738  0.0319
 1093TIP3    H124838   6.630   1.485   1.916  0.2477  0.4888 -0.1573
 1093TIP3    H224839   6.637   1.595   1.813 -0.9709  0.9316  0.2099
 1094TIP3   OH224840   0.388   2.335   8.184  0.0026 -0.0372 -0.4613
 1094TIP3    H124841   0.323   2.306   8.248  1.3598  0.7853  1.3863
 1094TIP3    H224842   0.440   2.400   8.231  3.1500 -1.7358 -1.3045
 1095TIP3   OH224843   3.575   6.340   0.549  0.3487  0.6541  0.1989
 1095TIP3    H124844   3.549   6.423   0.510 -1.1450 -0.2422 -0.7894
 1095TIP3    H224845   3.495   6.305   0.587  1.0194 -0.2203  0.8538
 1096TIP3   OH224846   2.491   0.887   7.530 -0.1564 -0.3224 -0.2623
 1096TIP3    H124847   2.512   0.834   7.607 -1.7478  0.5278  0.8036
 1096TIP3    H224848   2.401   0.864   7.509 -0.5454  1.2323 -0.3929
 1097TIP3   OH224849   2.442   2.440   0.563 -0.2249  0.1342 -0.2978
 1097TIP3    H124850   2.507   2.371   0.578 -0.7687 -0.2321  0.4484
 1097TIP3    H224851   2.406   2.421   0.476  3.1655  2.4346 -2.4320
 1098TIP3   OH224852   6.401   1.287   7.969  0.1971  0.2214  0.6181
 1098TIP3    H124853   6.400   1.292   7.873  0.6995  0.3785  0.6190
 1098TIP3    H224854   6.327   1.231   7.990  0.3497 -0.1784  0.1134
 1099TIP3   OH224855   1.441   0.444   7.746  0.2241 -0.0487  0.4700
 1099TIP3    H124856   1.527   0.422   7.782  0.1707 -1.6813 -0.2836
 1099TIP3    H224857   1.404   0.359   7.720 -1.4895  0.6453  0.5035
 1100TIP3   OH224858   6.318   4.621   0.011  0.1077 -0.0208  0.1082
 1100TIP3    H124859   6.259   4.694   0.033 -2.3125 -1.4167 -1.3294
 1100TIP3    H224860   6.378   4.657  -0.054 -1.6661  0.5403 -1.3148
 1101TIP3   OH224861   4.922   3.691   7.760 -0.7202  0.7240 -0.2051
 1101TIP3    H124862   4.934   3.724   7.849 -2.3194  0.9659 -0.0408
 1101TIP3    H224863   4.850   3.744   7.724 -0.6146  0.1211 -1.3731
 1102TIP3   OH224864   2.830   2.798   2.349 -0.0536  0.0509 -0.6530
 1102TIP3    H124865   2.906   2.759   2.392  1.4487  0.2108 -2.9644
 1102TIP3    H224866   2.756   2.744   2.377  0.9020 -0.2442  1.5007
 1103TIP3   OH224867   4.508   4.980   6.718  0.3784 -0.7771 -0.2216
 1103TIP3    H124868   4.429   4.937   6.683  1.5518 -1.3467 -2.3358
 1103TIP3    H224869   4.536   4.924   6.790  0.3810 -2.1209 -1.2359
 1104TIP3   OH224870   5.159   3.859   0.706  0.1384  0.2017  0.1520
 1104TIP3    H124871   5.189   3.804   0.634 -1.3049 -0.9490  0.3718
 1104TIP3    H224872   5.090   3.913   0.667 -0.7914 -0.5668  0.6715
 1105TIP3   OH224873   4.389   6.217   1.858 -0.0517  0.5281  0.0117
 1105TIP3    H124874   4.407   6.310   1.845  1.4240  0.1611 -0.7961
 1105TIP3    H224875   4.461   6.186   1.912 -1.1048  0.0482  1.1905
 1106TIP3   OH224876   3.075   2.363   1.103 -1.1128  0.3819 -0.2649
 1106TIP3    H124877   3.025   2.355   1.184 -0.5346  0.3640  0.0990
 1106TIP3    H224878   3.030   2.431   1.053 -0.9475  1.0516  0.4786
 1107TIP3   OH224879   0.559   1.081   1.005  0.3928 -0.2317  0.7783
 1107TIP3    H124880   0.619   1.093   1.078  2.4669 -2.1021 -0.4742
 1107TIP3    H224881   0.602   1.016   0.949 -1.4765  0.4759 -1.6839
 1108TIP3   OH224882   1.723   5.802   0.195 -0.2025 -0.2814 -0.1181
 1108TIP3    H124883   1.686   5.860   0.128  1.2561 -1.0493 -1.6649
 1108TIP3    H224884   1.813   5.832   0.206 -0.2172 -0.5979  1.0475
 1109TIP3   OH224885   5.290   0.825   7.416  0.4133  0.1096  0.0434
 1109TIP3    H124886   5.267   0.825   7.323 -0.7243  1.3549  0.3022
 1109TIP3    H224887   5.244   0.900   7.453  0.8408 -0.3603  1.6275
 1110TIP3   OH224888   1.311   5.282   1.819 -0.2235  0.3193 -0.1125
 1110TIP3    H124889   1.356   5.329   1.749  0.3375  1.0809  0.7273
 1110TIP3    H224890   1.227   5.258   1.781  0.1358  0.5628 -1.1012
 1111TIP3   OH224891   1.286   3.396   1.270 -0.4319  0.0209 -0.3263
 1111TIP3    H124892   1.380   3.397   1.256 -0.0853 -3.0684  0.9747
 1111TIP3    H224893   1.271   3.458   1.342  1.4030 -2.7535  2.7251
 1112TIP3   OH224894   5.595   1.284   0.794  0.1777 -0.3602  0.1212
 1112TIP3    H124895   5.651   1.242   0.730 -0.8985 -2.8014  0.6521
 1112TIP3    H224896   5.618   1.243   0.877 -0.6577  0.4174  0.7629
 1113TIP3   OH224897   2.309   5.435   0.431 -0.4630  0.3538 -0.3801
 1113TIP3    H124898   2.329   5.486   0.510  1.8918  0.8571 -1.2293
 1113TIP3    H224899   2.290   5.501   0.364 -1.4412 -0.0373 -0.4950
 1114TIP3   OH224900   2.794   3.384   7.160 -0.7834  0.4064  0.0561
 1114TIP3    H124901   2.722   3.407   7.101 -0.5360 -0.1986 -0.4948
 1114TIP3    H224902   2.766   3.302   7.200 -1.3831  1.2868  1.5317
 1115TIP3   OH224903   3.253   1.072   0.752 -0.3036 -0.0156 -0.2118
 1115TIP3    H124904   3.216   1.040   0.670  0.9982  0.4339 -1.0114
 1115TIP3    H224905   3.338   1.028   0.758  0.2314  1.0304  0.1604
 1116TIP3   OH224906   3.517   6.086   1.221  0.1979 -0.1640 -0.0633
 1116TIP3    H124907   3.445   6.047   1.172 -0.3555  1.1082 -0.3188
 1116TIP3    H224908   3.563   6.012   1.260 -1.2127 -1.0155  0.0560
 1117TIP3   OH224909   1.973   5.970   1.382  0.1707  0.0864  0.0616
 1117TIP3    H124910   1.978   5.953   1.288 -1.9381 -0.6959  0.0370
 1117TIP3    H224911   2.054   5.933   1.417  1.0235  0.4400 -1.4175
 1118TIP3   OH224912   5.657   0.877   6.717  0.3292 -0.3985 -0.8674
 1118TIP3    H124913   5.615   0.943   6.772  3.4911  0.9145  0.1457
 1118TIP3    H224914   5.605   0.797   6.733 -0.5990  0.6228  1.7939
 1119TIP3   OH224915   1.128   2.792   8.440 -0.4591  0.0340  0.1789
 1119TIP3    H124916   1.172   2.718   8.398 -1.4319  0.1942 -1.1744
 1119TIP3    H224917   1.192   2.824   8.504  0.8912 -0.5028 -0.8527
 1120TIP3   OH224918   3.978   3.082   0.786 -0.3519 -0.4151 -0.5248
 1120TIP3    H124919   4.053   3.028   0.759 -0.8677 -1.9080  0.8205
 1120TIP3    H224920   3.905   3.020   0.791 -0.4788 -0.1703  3.2972
 1121TIP3   OH224921   6.111   1.283   0.238 -0.0301  0.0826  0.0899
 1121TIP3    H124922   6.130   1.193   0.266 -0.7065 -0.0432  0.1491
 1121TIP3    H224923   6.172   1.336   0.290  2.2657 -0.4877 -1.8135
 1122TIP3   OH224924   3.556   0.551   7.961  0.1501 -0.1570 -0.6451
 1122TIP3    H124925   3.512   0.563   8.045  0.3377 -0.7822 -0.4539
 1122TIP3    H224926   3.637   0.506   7.982  0.9709  1.1093 -0.9868
 1123TIP3   OH224927   1.240   0.880   7.420  0.5845 -0.0279  0.3750
 1123TIP3    H124928   1.229   0.875   7.325  0.3210 -0.0983  0.4103
 1123TIP3    H224929   1.317   0.936   7.432  2.7634 -2.6952  0.0110
 1124TIP3   OH224930   0.284   0.566   7.217  0.0633  0.5543 -0.0440
 1124TIP3    H124931   0.285   0.661   7.212 -1.8239  0.5511 -1.9028
 1124TIP3    H224932   0.277   0.547   7.311 -0.4833  2.2598  0.2913
 1125TIP3   OH224933   3.429   2.850   1.036  0.4761 -0.6373  0.2271
 1125TIP3    H124934   3.469   2.785   0.979  0.4738  0.8554 -1.5598
 1125TIP3    H224935   3.336   2.826   1.038  0.2979 -0.1226 -1.2565
 1126TIP3   OH224936   1.930   1.425   6.711 -0.1508  0.1846  0.3562
 1126TIP3    H124937   2.004   1.377   6.674  1.1287  1.2873  1.4122
 1126TIP3    H224938   1.958   1.450   6.799 -2.4881 -0.9871  1.5508
 1127TIP3   OH224939   5.182   3.946   7.764 -0.0255 -0.1956  0.6416
 1127TIP3    H124940   5.268   3.932   7.723 -0.0946 -2.5876  1.2004
 1127TIP3    H224941   5.136   3.863   7.753 -1.7523  0.5819  1.6021
 1128TIP3   OH224942   2.782   6.019   0.677 -0.1816 -0.0440  0.2722
 1128TIP3    H124943   2.700   6.012   0.627 -0.5482 -0.6701  0.9502
 1128TIP3    H224944   2.754   6.035   0.767  0.4338 -0.5059  0.5492
 1129TIP3   OH224945   4.483   3.559   8.420 -0.5825 -0.5402  0.0942
 1129TIP3    H124946   4.555   3.621   8.425 -3.2383  2.7579  1.2132
 1129TIP3    H224947   4.442   3.576   8.335 -0.5239 -1.8665 -0.2324
 1130TIP3   OH224948   1.046   4.801   0.881  0.0061 -0.3648 -0.7075
 1130TIP3    H124949   0.959   4.772   0.855 -0.1998 -0.9575  0.5841
 1130TIP3    H224950   1.049   4.893   0.855 -1.9912  0.4260  1.4789
 1131TIP3   OH224951   3.832   5.435   0.053 -0.2002 -0.1485  0.3728
 1131TIP3    H124952   3.750   5.386   0.040 -1.8231  2.4537 -0.0120
 1131TIP3    H224953   3.843   5.484  -0.028  0.6051  1.0937  1.1993
 1132TIP3   OH224954   0.493   2.454   0.405 -0.3460  0.4297  0.7173
 1132TIP3    H124955   0.557   2.388   0.379  0.3524  1.2275  0.3609
 1132TIP3    H224956   0.483   2.442   0.499  1.1789  0.9861  0.9873
 1133TIP3   OH224957   3.637   2.819   1.661  0.4148  0.2264 -0.8627
 1133TIP3    H124958   3.582   2.797   1.585 -0.7942 -0.7392  0.2445
 1133TIP3    H224959   3.577   2.863   1.722  0.7289 -1.2330  0.5635
 1134TIP3   OH224960   2.895   3.841   1.282 -0.2027  0.4904 -0.3193
 1134TIP3    H124961   2.880   3.796   1.365  0.3446 -0.4048 -0.6809
 1134TIP3    H224962   2.947   3.779   1.231  0.1749  1.3652 -1.0207
 1135TIP3   OH224963   0.297   5.552   7.623 -0.5148 -0.2993 -0.1868
 1135TIP3    H124964   0.314   5.523   7.712 -3.9614 -0.6324  0.5174
 1135TIP3    H224965   0.339   5.638   7.616  4.1412 -2.3209 -0.0791
 1136TIP3   OH224966   4.585   1.061   8.269  0.7625 -0.1781  0.6269
 1136TIP3    H124967   4.555   1.134   8.216  1.3531 -0.8236 -0.6440
 1136TIP3    H224968   4.506   1.028   8.312  0.2990  0.4692  0.2824
 1137TIP3   OH224969   0.235   0.875   6.623  0.3272 -0.5487 -0.0030
 1137TIP3    H124970   0.284   0.795   6.640 -1.8202 -1.9965 -0.2251
 1137TIP3    H224971   0.146   0.855   6.652 -0.5474  1.3540 -1.1879
 1138TIP3   OH224972   2.685   0.149   7.040  0.7666 -0.4769  0.6774
 1138TIP3    H124973   2.611   0.149   6.979  1.7709 -0.3293 -0.5943
 1138TIP3    H224974   2.703   0.056   7.056 -0.0928 -0.5115  1.5285
 1139TIP3   OH224975   5.253   6.029   1.771  0.1915 -0.2964  0.2222
 1139TIP3    H124976   5.347   6.040   1.788 -0.2022  0.5918  2.0807
 1139TIP3    H224977   5.221   6.117   1.756 -0.3531 -0.6079 -0.4800
 1140TIP3   OH224978   6.302   3.548   1.797 -0.4882  0.5525 -0.4489
 1140TIP3    H124979   6.311   3.629   1.847  0.0778  0.1803  0.0680
 1140TIP3    H224980   6.330   3.572   1.708 -0.8100  1.0419 -0.4216
 1141TIP3   OH224981   2.581   0.891   0.975 -0.1268 -0.4467 -0.0969
 1141TIP3    H124982   2.676   0.883   0.986 -0.2045 -2.4986 -0.5004
 1141TIP3    H224983   2.554   0.950   1.046  1.2848 -0.9452  0.9148
 1142TIP3   OH224984   5.745   3.806   2.129 -0.1548  0.0887 -0.1246
 1142TIP3    H124985   5.677   3.763   2.180 -1.3837  0.9515 -0.9788
 1142TIP3    H224986   5.784   3.870   2.189 -1.9031  1.4284 -0.3251
 1143TIP3   OH224987   0.326   1.924   6.989  0.3403 -0.6289  0.0490
 1143TIP3    H124988   0.236   1.939   7.017  0.1408  0.0574 -0.9071
 1143TIP3    H224989   0.354   2.008   6.952  0.3047 -1.6156 -2.4649
 1144TIP3   OH224990   3.043   3.039   2.472 -0.1006 -0.2196  0.1211
 1144TIP3    H124991   2.959   3.035   2.425  1.1026 -1.0454 -2.1169
 1144TIP3    H224992   3.074   3.128   2.456  1.4395 -1.1747 -2.9636
 1145TIP3   OH224993   5.226   3.832   1.656  0.6568  0.1513 -0.1667
 1145TIP3    H124994   5.169   3.870   1.722 -0.8759 -0.6374 -0.9777
 1145TIP3    H224995   5.291   3.783   1.705  0.1780  0.4266  0.7633
 1146TIP3   OH224996   2.885   5.144   8.174  0.6340 -0.2738  0.0517
 1146TIP3    H124997   2.876   5.068   8.232 -2.6805 -0.4094 -0.4167
 1146TIP3    H224998   2.850   5.113   8.090 -1.8340  1.9578  0.1343
 1147TIP3   OH224999   0.963   3.350   8.096  0.0737 -0.2288  0.1219
 1147TIP3    H125000   0.933   3.352   8.187 -2.0698  1.7834 -0.5353
 1147TIP3    H225001   1.039   3.292   8.097 -0.5553 -1.1434  2.9718
 1148TIP3   OH225002   5.748   5.500   7.520  1.1451  0.0833 -0.1679
 1148TIP3    H125003   5.765   5.458   7.436 -0.5820  1.4275 -1.2732
 1148TIP3    H225004   5.660   5.537   7.510  1.2512  1.0268  1.9387
 1149TIP3   OH225005   0.223   4.915   1.416 -0.5724  0.1842 -0.0446
 1149TIP3    H125006   0.187   4.828   1.404 -1.9472  0.8349 -0.9205
 1149TIP3    H225007   0.317   4.905   1.398 -1.1261 -0.6093 -3.0345
 1150TIP3   OH225008   3.362   1.255   7.412  0.1132 -0.1433 -0.0125
 1150TIP3    H125009   3.425   1.243   7.484  1.0261  0.2564 -0.7196
 1150TIP3    H225010   3.415   1.245   7.333 -1.1906 -2.2280 -0.6670
 1151TIP3   OH225011   1.773   0.198   1.670 -0.0918  0.2146  0.7052
 1151TIP3    H125012   1.730   0.207   1.755 -0.2955  0.0257  0.6244
 1151TIP3    H225013   1.704   0.164   1.613 -0.2091  1.1820  0.2527
 1152TIP3   OH225014   6.693   6.281   0.300  1.1472 -0.5950  0.0375
 1152TIP3    H125015   6.605   6.245   0.317  0.4581  0.9275 -0.1018
 1152TIP3    H225016   6.715   6.329   0.380  0.7499  1.0782 -0.7958
 1153TIP3   OH225017   3.530   1.483   1.016  0.4083  0.4516  0.5882
 1153TIP3    H125018   3.470   1.442   0.954  1.1456  0.2278  0.0057
 1153TIP3    H225019   3.549   1.569   0.979  1.7336 -0.1136 -0.1131
 1154TIP3   OH225020   5.856   0.012   0.437 -0.1462 -0.3517 -0.0842
 1154TIP3    H125021   5.871  -0.079   0.465  1.2859  0.3810  1.7284
 1154TIP3    H225022   5.766   0.030   0.462  0.4710 -0.3793  2.3842
 1155TIP3   OH225023   1.978   4.723   8.210  0.9286 -0.6797 -0.1607
 1155TIP3    H125024   2.027   4.644   8.190  0.6606 -0.9170  0.1035
 1155TIP3    H225025   1.959   4.763   8.125  0.3881 -1.3133 -0.3504
 1156TIP3   OH225026   4.207   4.408   0.835 -0.1892 -0.2530 -0.5309
 1156TIP3    H125027   4.297   4.385   0.813 -0.0745  0.6234 -1.0062
 1156TIP3    H225028   4.210   4.500   0.859 -1.0201 -0.1112 -0.9259
 1157TIP3   OH225029   4.192   3.278   0.869  0.6293  0.1087 -0.2793
 1157TIP3    H125030   4.143   3.241   0.796  2.7616  3.4733 -3.7990
 1157TIP3    H225031   4.283   3.256   0.849  1.1971 -0.4260  2.4964
 1158TIP3   OH225032   4.485   4.236   1.956 -0.4685  0.1155  0.9697
 1158TIP3    H125033   4.435   4.313   1.981 -0.5152  0.0133  1.1931
 1158TIP3    H225034   4.495   4.186   2.037 -1.1141 -0.5052  0.6782
 1159TIP3   OH225035   1.433   1.253   0.600  0.0358  0.5120 -0.4814
 1159TIP3    H125036   1.378   1.176   0.592  0.6483  0.1666 -1.6013
 1159TIP3    H225037   1.407   1.309   0.526 -0.7330  1.6168  0.5755
 1160TIP3   OH225038   0.740   1.207   0.054 -0.0694  0.1105 -0.0927
 1160TIP3    H125039   0.819   1.246   0.092 -0.3538  0.8786 -0.2618
 1160TIP3    H225040   0.760   1.114   0.048  2.7788  0.7123 -4.5989
 1161TIP3   OH225041   0.491   6.669   7.555  0.1494 -0.0350  0.7502
 1161TIP3    H125042   0.569   6.702   7.510 -0.0159 -0.2160  0.3303
 1161TIP3    H225043   0.458   6.600   7.498 -1.2995  1.1922  0.0527
 1162TIP3   OH225044   6.864   3.630   2.641  0.1632  0.2613 -0.7831
 1162TIP3    H125045   6.822   3.662   2.721 -2.8504 -1.5266 -1.4687
 1162TIP3    H225046   6.911   3.551   2.667  0.2908  0.4114 -0.5604
 1163TIP3   OH225047   6.876   2.612   2.201 -0.8255  0.0795  0.1715
 1163TIP3    H125048   6.828   2.686   2.238 -0.7837 -0.5533  1.5471
 1163TIP3    H225049   6.829   2.535   2.234  0.9914 -0.5566  1.4083
 1164TIP3   OH225050   5.461   6.895   8.442 -0.5458  0.0624 -0.4182
 1164TIP3    H125051   5.411   6.969   8.410 -0.6821  0.2022  0.1140
 1164TIP3    H225052   5.423   6.819   8.398 -0.1957  0.3342 -1.2104
 1165TIP3   OH225053   1.257   5.103   7.855  0.0710 -0.2250 -0.1717
 1165TIP3    H125054   1.302   5.022   7.831  1.9519  0.2842  1.3964
 1165TIP3    H225055   1.270   5.161   7.780  0.1803 -0.7945 -0.6019
 1166TIP3   OH225056   3.552   4.529   7.656 -0.2170  0.3006 -0.2505
 1166TIP3    H125057   3.497   4.590   7.606 -0.1542  0.2583 -0.3701
 1166TIP3    H225058   3.555   4.450   7.603 -0.2053  0.2319 -0.1476
 1167TIP3   OH225059   0.390   2.158   2.073 -0.3921 -0.0393 -0.1655
 1167TIP3    H125060   0.350   2.236   2.035 -2.4321 -1.7037 -1.7089
 1167TIP3    H225061   0.315   2.103   2.098  0.9228 -2.3752 -1.0758
 1168TIP3   OH225062   0.609   4.522   0.864 -0.3498 -0.4014 -0.2631
 1168TIP3    H125063   0.588   4.432   0.890  0.7531 -1.3124 -2.2719
 1168TIP3    H225064   0.665   4.555   0.934  1.5886 -2.3432 -0.7914
 1169TIP3   OH225065   5.243   4.326   0.102  0.5947 -0.4798 -0.4019
 1169TIP3    H125066   5.179   4.345   0.033  0.5839 -2.5366 -1.0243
 1169TIP3    H225067   5.328   4.325   0.057  0.6513 -1.2259 -0.3042
 1170TIP3   OH225068   3.773   1.825   7.380 -0.0632 -0.4297 -0.6378
 1170TIP3    H125069   3.690   1.795   7.343 -0.6386  0.1866  0.1213
 1170TIP3    H225070   3.753   1.909   7.421  0.2239 -1.5720  2.1213
 1171TIP3   OH225071   0.379   3.967   0.083  0.2880 -0.0262 -0.0891
 1171TIP3    H125072   0.314   4.024   0.126  0.2158 -0.1648 -0.0131
 1171TIP3    H225073   0.370   3.883   0.128  0.8965  0.1021  0.2865
 1172TIP3   OH225074   4.940   0.350   0.086  0.3239  0.5681 -0.0142
 1172TIP3    H125075   4.868   0.287   0.087  1.1020 -0.3490  0.0012
 1172TIP3    H225076   4.922   0.407   0.011  0.7560 -1.0822 -1.4256
 1173TIP3   OH225077   2.048   5.608   0.772 -0.8166 -0.8167  0.3646
 1173TIP3    H125078   1.976   5.575   0.826 -0.7869 -1.5600 -0.0391
 1173TIP3    H225079   2.056   5.544   0.701 -0.0219 -0.5230  0.1836
 1174TIP3   OH225080   1.614   4.565   1.405 -0.0299 -0.2561  0.2840
 1174TIP3    H125081   1.648   4.630   1.342  0.7097 -0.0929  0.8467
 1174TIP3    H225082   1.543   4.611   1.450 -2.1470 -1.0881 -1.9615
 1175TIP3   OH225083   4.041   0.397   6.316 -0.3666 -0.2719  0.2413
 1175TIP3    H125084   4.125   0.400   6.270 -0.2401  1.0629  0.5134
 1175TIP3    H225085   4.051   0.326   6.380  0.0387 -1.0458 -0.6615
 1176TIP3   OH225086   5.517   3.928   7.289 -0.0924 -0.4434 -0.5800
 1176TIP3    H125087   5.533   3.894   7.377 -0.4590 -0.5959 -0.5731
 1176TIP3    H225088   5.586   3.889   7.235 -1.2426 -2.2126 -0.8331
 1177TIP3   OH225089   4.678   5.525   0.662  0.4769  0.3841  0.7286
 1177TIP3    H125090   4.621   5.601   0.660  1.2483  0.9602  0.3657
 1177TIP3    H225091   4.624   5.456   0.701 -1.5203  0.0521 -2.2453
 1178TIP3   OH225092   5.430   5.290   8.349 -0.2689 -0.3761 -0.2190
 1178TIP3    H125093   5.421   5.359   8.284  0.2241 -0.5634 -0.4900
 1178TIP3    H225094   5.468   5.334   8.425  0.1127 -0.3550 -0.4161
 1179TIP3   OH225095   0.257   5.465   6.639  0.5913 -0.0583  0.2299
 1179TIP3    H125096   0.309   5.492   6.563  1.3009  0.3993  0.8481
 1179TIP3    H225097   0.283   5.374   6.655  2.6848  0.6814  1.6294
 1180TIP3   OH225098   0.809   3.684   8.100 -0.2742 -0.3074  0.0627
 1180TIP3    H125099   0.792   3.591   8.115  1.1540 -0.6149 -0.1221
 1180TIP3    H225100   0.882   3.685   8.038 -0.6445  0.9419 -0.3655
 1181TIP3   OH225101   5.605   4.045   0.149 -0.3059 -0.3100 -0.8235
 1181TIP3    H125102   5.683   4.000   0.115 -0.1626  0.5944 -1.7255
 1181TIP3    H225103   5.531   3.992   0.117 -0.1233 -0.1707 -1.4826
 1182TIP3   OH225104   0.600   0.092   7.142 -0.1751 -0.0351 -0.2572
 1182TIP3    H125105   0.561   0.142   7.213  1.4565  1.3617 -0.2701
 1182TIP3    H225106   0.533   0.028   7.117 -2.0436  1.6233  0.2951
 1183TIP3   OH225107   0.166   3.054   6.100 -0.1434 -0.3501 -0.0832
 1183TIP3    H125108   0.076   3.069   6.130 -0.2303 -1.3226  0.1798
 1183TIP3    H225109   0.207   3.006   6.172  0.5664  0.0229 -0.2370
 1184TIP3   OH225110   0.335   1.444   1.549 -0.5412  0.3752 -0.1309
 1184TIP3    H125111   0.405   1.490   1.503 -2.1233  1.3030 -1.7205
 1184TIP3    H225112   0.374   1.360   1.573  1.2629  1.0592 -0.5176
 1185TIP3   OH225113   5.825   6.664   1.074 -0.6841  0.3068 -0.3667
 1185TIP3    H125114   5.829   6.569   1.076 -0.1568  0.3153  1.5174
 1185TIP3    H225115   5.732   6.684   1.086 -0.8367  0.0322 -1.0833
 1186TIP3   OH225116   2.401   6.807   6.606 -0.2186  0.3749 -0.1054
 1186TIP3    H125117   2.479   6.853   6.576 -0.0998  0.2113 -0.0492
 1186TIP3    H225118   2.435   6.732   6.655 -0.4114  0.3475 -0.0141
 1187TIP3   OH225119   4.043   6.343   8.529 -0.2734 -0.0044 -0.0950
 1187TIP3    H125120   4.004   6.273   8.476 -1.3296 -0.7468  1.5696
 1187TIP3    H225121   3.973   6.370   8.589  1.5107 -0.9335  2.6108
 1188TIP3   OH225122   4.989   0.383   8.206  0.3845 -0.2261  0.3100
 1188TIP3    H125123   4.930   0.415   8.137  0.0570  0.8807  1.0788
 1188TIP3    H225124   4.965   0.291   8.217  1.6621 -0.9608 -2.2884
 1189TIP3   OH225125   4.339   5.819   2.226  0.0992  0.2025 -0.1617
 1189TIP3    H125126   4.292   5.795   2.307 -0.0671  1.7145  0.2250
 1189TIP3    H225127   4.431   5.800   2.246 -0.1656 -1.6882 -0.5102
 1190TIP3   OH225128   3.374   3.320   0.859 -0.1931  0.0155  0.0874
 1190TIP3    H125129   3.289   3.276   0.858  0.4422 -1.2585 -0.2113
 1190TIP3    H225130   3.433   3.259   0.814  0.4514  1.7843 -1.6421
 1191TIP3   OH225131   6.466   1.226   1.149 -0.1892 -0.3541 -0.5763
 1191TIP3    H125132   6.524   1.163   1.193 -1.5532  0.8940  3.4455
 1191TIP3    H225133   6.525   1.296   1.120  0.6317 -0.3388  1.0516
 1192TIP3   OH225134   5.177   0.501   7.468 -0.4530 -0.2585  0.7386
 1192TIP3    H125135   5.225   0.568   7.516 -0.5043  0.5675 -0.3444
 1192TIP3    H225136   5.108   0.549   7.422  0.2366 -0.8819 -1.0042
 1193TIP3   OH225137   0.191   6.607   7.038 -0.1405  0.1315 -0.1864
 1193TIP3    H125138   0.102   6.638   7.056 -0.4028 -0.7922  0.1980
 1193TIP3    H225139   0.199   6.526   7.089  1.2316  0.6398  0.4466
 1194TIP3   OH225140   4.851   6.021   8.263  0.2476  0.0584 -0.4174
 1194TIP3    H125141   4.884   5.932   8.279  1.5379  0.8085  1.4042
 1194TIP3    H225142   4.756   6.012   8.273  0.0137 -1.5833 -2.9608
 1195TIP3   OH225143   5.485   3.518   8.032  0.4114  0.3779 -0.0670
 1195TIP3    H125144   5.531   3.574   8.095 -0.9408  0.4356  0.9098
 1195TIP3    H225145   5.406   3.490   8.078 -0.2838 -0.1271 -1.5131
 1196TIP3   OH225146   0.792   1.745   1.356 -0.5946 -0.3539  0.0352
 1196TIP3    H125147   0.785   1.672   1.418  1.9089 -0.2739  0.5228
 1196TIP3    H225148   0.800   1.823   1.411 -0.8682  0.0100 -0.4360
 1197TIP3   OH225149   4.705   1.037   1.354 -0.0255 -0.9184 -0.4986
 1197TIP3    H125150   4.722   1.056   1.446 -1.1918  0.1251 -0.4713
 1197TIP3    H225151   4.774   0.975   1.329  0.0053 -1.6276  1.2000
 1198TIP3   OH225152   4.764   5.022   6.632  0.0251  0.2915  0.1253
 1198TIP3    H125153   4.723   4.981   6.708 -0.4267 -0.4982 -0.5368
 1198TIP3    H225154   4.852   4.984   6.630 -0.6647 -1.3505 -0.9792
 1199TIP3   OH225155   5.697   1.694   1.233 -0.2568  0.1149  0.3242
 1199TIP3    H125156   5.663   1.771   1.279 -1.1195 -1.1521  1.9536
 1199TIP3    H225157   5.635   1.678   1.162 -2.9077 -1.7354  2.8229
 1200TIP3   OH225158   1.244   0.415   8.024  0.1834  0.3181 -0.4865
 1200TIP3    H125159   1.337   0.412   8.001  0.0778 -1.7850 -0.7787
 1200TIP3    H225160   1.212   0.496   7.984  2.1037  1.6830  0.5678
 1201TIP3   OH225161   3.416   0.851   8.299  0.3159 -0.3923 -0.9017
 1201TIP3    H125162   3.440   0.844   8.207 -0.7474 -1.4307 -1.1383
 1201TIP3    H225163   3.445   0.937   8.326  1.0232 -0.2444 -2.1005
 1202TIP3   OH225164   4.805   1.743   7.984 -0.1707 -0.5664 -0.4411
 1202TIP3    H125165   4.757   1.702   8.056 -0.3677 -0.4550 -0.5086
 1202TIP3    H225166   4.896   1.746   8.015  0.6405 -4.4878 -1.8787
 1203TIP3   OH225167   3.320   5.961   8.165 -0.5722 -0.5250  0.7796
 1203TIP3    H125168   3.264   5.886   8.186 -1.5774  0.1660  0.6923
 1203TIP3    H225169   3.285   5.994   8.081  1.2217 -1.2249 -0.2854
 1204TIP3   OH225170   6.557   0.529   8.389  0.2109  0.2615  0.2260
 1204TIP3    H125171   6.516   0.570   8.465  0.1045  0.7802 -0.1002
 1204TIP3    H225172   6.546   0.593   8.319  1.8962  0.5691  0.2053
 1205TIP3   OH225173   2.339   5.693   0.565  0.0462  0.0226  0.1875
 1205TIP3    H125174   2.387   5.704   0.647  0.0308 -0.6782  0.2969
 1205TIP3    H225175   2.261   5.748   0.574 -0.9466 -1.5231  1.4353
 1206TIP3   OH225176   1.178   4.219   1.284  0.3095  0.0549  0.4377
 1206TIP3    H125177   1.266   4.217   1.324  0.6247  0.8995 -0.1745
 1206TIP3    H225178   1.150   4.310   1.294  0.0519  0.0915 -0.5215
 1207TIP3   OH225179   6.164   1.385   7.558 -0.3897  0.2029 -0.2547
 1207TIP3    H125180   6.080   1.352   7.527 -0.4210 -0.3399  0.3792
 1207TIP3    H225181   6.189   1.325   7.629  1.7181 -1.1340 -2.0058
 1208TIP3   OH225182   0.874   2.872   7.016  0.1020 -0.4957 -0.0968
 1208TIP3    H125183   0.829   2.800   7.059 -0.2896  0.8846  1.9337
 1208TIP3    H225184   0.874   2.848   6.923 -1.9819 -2.0459  0.2301
 1209TIP3   OH225185   6.243   5.695   0.448 -0.1263 -0.2436 -0.1489
 1209TIP3    H125186   6.271   5.786   0.436 -1.2751  0.2426  0.6452
 1209TIP3    H225187   6.196   5.696   0.531 -1.0450 -1.3461 -0.6364
 1210TIP3   OH225188   1.614   3.968   8.508 -0.0302 -0.4147 -0.4199
 1210TIP3    H125189   1.654   3.902   8.564 -0.9154 -0.4239  0.2296
 1210TIP3    H225190   1.645   3.946   8.420  0.2342 -1.2821 -0.1282
 1211TIP3   OH225191   3.688   2.232   6.475 -0.3400 -0.1785 -0.1259
 1211TIP3    H125192   3.611   2.214   6.422 -0.2227 -1.4586  0.1096
 1211TIP3    H225193   3.710   2.323   6.455 -0.9344 -0.3027 -1.4374
 1212TIP3   OH225194   2.606   3.862   1.943  0.1169 -0.6379  0.5159
 1212TIP3    H125195   2.540   3.840   2.008  1.4284 -2.5368  1.2985
 1212TIP3    H225196   2.687   3.871   1.993  0.6623  0.5976 -0.5431
 1213TIP3   OH225197   4.366   2.139   8.175  0.3307 -0.0767  0.3726
 1213TIP3    H125198   4.443   2.125   8.231  0.7713  1.4196  0.1991
 1213TIP3    H225199   4.390   2.099   8.091  0.3198 -0.9034  0.7538
 1214TIP3   OH225200   5.371   3.861   2.192 -0.3652  0.0255  0.4605
 1214TIP3    H125201   5.420   3.908   2.125  1.4259 -2.5877 -0.2575
 1214TIP3    H225202   5.432   3.793   2.222 -2.2664 -0.9368  2.3839
 1215TIP3   OH225203   5.179   3.333   7.899 -0.4486 -0.5610 -0.3905
 1215TIP3    H125204   5.210   3.367   7.816 -1.5236 -0.1230 -0.6321
 1215TIP3    H225205   5.256   3.296   7.941  0.4792  0.9055 -0.7507
 1216TIP3   OH225206   5.814   2.664   0.114  0.3865  0.4460  1.2266
 1216TIP3    H125207   5.797   2.591   0.173  0.4778 -0.0893  0.6069
 1216TIP3    H225208   5.866   2.625   0.043 -1.3298  0.6208 -0.1839
 1217TIP3   OH225209   2.306   5.781   0.062 -0.3992  0.2579  0.5332
 1217TIP3    H125210   2.284   5.869   0.030 -0.8397  1.0127  2.7019
 1217TIP3    H225211   2.339   5.735  -0.015 -0.0794  2.3441 -0.6667
 1218TIP3   OH225212   2.736   0.029   0.568 -0.0478  0.1615  0.1286
 1218TIP3    H125213   2.788   0.108   0.556 -0.4555  0.1582 -2.1309
 1218TIP3    H225214   2.679   0.048   0.643  1.0134  1.3353  0.6761
 1219TIP3   OH225215   2.022   3.076   2.063 -0.1639  0.4304 -0.4036
 1219TIP3    H125216   1.947   3.030   2.026  0.4138 -0.3336 -0.6669
 1219TIP3    H225217   2.013   3.064   2.158  0.4677 -1.0790 -0.4989
 1220TIP3   OH225218   2.058   3.316   1.087  0.4010  0.1613 -0.2609
 1220TIP3    H125219   2.058   3.371   1.165  0.1246  0.2161 -0.2992
 1220TIP3    H225220   2.058   3.377   1.014 -0.4130  0.1213 -0.3056
 1221TIP3   OH225221   1.354   6.688   1.419  0.2932  0.1872 -0.3343
 1221TIP3    H125222   1.436   6.661   1.458  0.8514  1.2085 -0.7665
 1221TIP3    H225223   1.359   6.658   1.328  0.4633  0.8002 -0.5305
 1222TIP3   OH225224   0.331   5.779   0.744 -0.1102  0.0439 -0.5288
 1222TIP3    H125225   0.318   5.716   0.673  0.8903  1.0348 -1.6496
 1222TIP3    H225226   0.392   5.736   0.804 -1.1285 -0.8861 -0.1369
 1223TIP3   OH225227   4.603   3.622   6.971  1.0404 -0.6360  0.0719
 1223TIP3    H125228   4.545   3.595   6.900  0.7393 -1.2752  0.5479
 1223TIP3    H225229   4.621   3.714   6.953  1.1486 -0.8370 -0.9551
 1224TIP3   OH225230   0.063   2.167   6.941  0.0148 -0.1817 -0.4688
 1224TIP3    H125231   0.028   2.100   6.882  0.6799 -2.4169  1.5256
 1224TIP3    H225232   0.078   2.121   7.023 -0.1305  2.6190  1.2455
 1225TIP3   OH225233   1.999   6.529   7.712 -0.1155  0.5400  0.4720
 1225TIP3    H125234   1.970   6.547   7.622 -0.0239  0.2210  0.3771
 1225TIP3    H225235   1.918   6.519   7.762 -0.2023 -1.0085  0.0754
 1226TIP3   OH225236   3.710   2.387   8.546  0.0695 -0.6614  0.3434
 1226TIP3    H125237   3.701   2.291   8.546  0.9274 -0.7686 -1.2029
 1226TIP3    H225238   3.635   2.418   8.496  1.1970 -0.7310 -1.4662
 1227TIP3   OH225239   2.043   3.705   2.153  0.7029 -0.1897 -0.0946
 1227TIP3    H125240   1.980   3.727   2.222 -0.5263 -1.1014 -0.8773
 1227TIP3    H225241   2.091   3.786   2.137 -1.8866  1.2724 -1.1052
 1228TIP3   OH225242   6.187   3.964   0.499  0.1223 -0.2384  0.4647
 1228TIP3    H125243   6.135   3.886   0.480  0.1437 -0.1458  0.0219
 1228TIP3    H225244   6.241   3.938   0.573  0.8013 -0.9602 -0.2531
 1229TIP3   OH225245   5.155   1.737   2.725 -0.4219  0.1669  0.4380
 1229TIP3    H125246   5.236   1.780   2.698  0.7215 -1.0877  1.6910
 1229TIP3    H225247   5.149   1.660   2.669  0.6006 -1.0589  1.9351
 1230TIP3   OH225248   6.058   5.828   7.713  0.1420  0.2555 -0.6888
 1230TIP3    H125249   6.134   5.778   7.684  1.0120  0.8015  0.5804
 1230TIP3    H225250   6.002   5.762   7.757  0.8541  0.2039  0.1712
 1231TIP3   OH225251   2.329   6.031   0.614  0.5574  0.7023  0.2241
 1231TIP3    H125252   2.349   6.076   0.696  0.5924  0.3044  0.4361
 1231TIP3    H225253   2.411   5.986   0.592  0.2371 -0.0084  0.4953
 1232TIP3   OH225254   6.350   6.092   0.691 -0.1440  0.3917  0.0583
 1232TIP3    H125255   6.375   6.021   0.750  2.1243 -1.0460 -2.4203
 1232TIP3    H225256   6.382   6.171   0.733  0.5294 -0.4764  1.2253
 1233TIP3   OH225257   4.822   4.636   7.117  0.4228 -0.4348 -0.3202
 1233TIP3    H125258   4.754   4.698   7.141  0.3764 -1.0484  1.2697
 1233TIP3    H225259   4.793   4.599   7.034  0.1201  1.1457 -0.9492
 1234TIP3   OH225260   2.957   1.955   2.156 -0.2962  0.5749  0.6242
 1234TIP3    H125261   2.986   1.950   2.247 -0.4107 -0.2772  0.6231
 1234TIP3    H225262   2.879   1.900   2.153 -0.9550  1.5034  0.2532
 1235TIP3   OH225263   2.305   6.557   8.114 -0.4156  0.0465 -0.2419
 1235TIP3    H125264   2.241   6.584   8.048 -1.0304 -0.5087  0.1152
 1235TIP3    H225265   2.364   6.632   8.123 -2.0841  1.3059  0.7431
 1236TIP3   OH225266   5.994   0.951   1.945 -0.1084  0.3230 -0.6252
 1236TIP3    H125267   5.944   0.981   2.020  0.1468 -0.5008 -0.1135
 1236TIP3    H225268   6.085   0.949   1.975 -0.2707 -2.5054 -0.0727
 1237TIP3   OH225269   4.652   1.879   1.248  0.5324 -0.0665 -0.9223
 1237TIP3    H125270   4.713   1.908   1.181  0.4621  0.3142 -0.8272
 1237TIP3    H225271   4.704   1.825   1.308  0.4634 -0.9188 -1.6135
 1238TIP3   OH225272   1.732   1.083   0.119  0.3159 -0.0427  0.4190
 1238TIP3    H125273   1.780   1.164   0.138 -0.4208  0.3137  0.8722
 1238TIP3    H225274   1.799   1.017   0.104  0.9342  0.5239  0.6458
 1239TIP3   OH225275   1.701   5.175   1.100 -0.3195  0.0208  0.0366
 1239TIP3    H125276   1.761   5.247   1.119  1.0336 -0.8956 -0.6061
 1239TIP3    H225277   1.685   5.134   1.185  0.0255  0.2195  0.1961
 1240TIP3   OH225278   3.044   6.618   8.128  0.4187  0.2697  0.2341
 1240TIP3    H125279   3.101   6.695   8.119 -0.0761  0.7850  1.2678
 1240TIP3    H225280   2.955   6.655   8.129 -0.1382 -0.6460 -3.1068
 1241TIP3   OH225281   3.822   3.397   0.302 -0.2055 -0.5704 -0.5715
 1241TIP3    H125282   3.780   3.481   0.285 -0.4965 -0.3947  0.8708
 1241TIP3    H225283   3.834   3.358   0.216  0.1186  1.0333 -1.2836
 1242TIP3   OH225284   0.584   4.475   8.018  0.4285  0.6626 -0.4699
 1242TIP3    H125285   0.680   4.482   8.025  0.8191 -2.1196 -1.4370
 1242TIP3    H225286   0.559   4.542   7.955  1.7272  1.4382 -0.2014
 1243TIP3   OH225287   3.550   0.485   8.520  0.1938  0.1970  0.3120
 1243TIP3    H125288   3.626   0.426   8.521 -0.3460 -0.5029  0.5685
 1243TIP3    H225289   3.493   0.450   8.453 -0.4451  0.0174  0.9342
 1244TIP3   OH225290   1.368   6.618   1.159 -0.1314 -0.0900 -0.3522
 1244TIP3    H125291   1.375   6.682   1.088  0.0859 -0.6056 -0.8091
 1244TIP3    H225292   1.417   6.542   1.127 -1.7896 -1.1284 -0.5510
 1245TIP3   OH225293   5.574   1.550   0.702 -0.7090 -0.3941  0.7909
 1245TIP3    H125294   5.580   1.528   0.609 -0.2800  0.3824  0.6297
 1245TIP3    H225295   5.564   1.465   0.746 -1.1996 -0.7457  0.0194
 1246TIP3   OH225296   1.770   0.504   1.735 -0.5726  0.3668  0.3810
 1246TIP3    H125297   1.705   0.441   1.767  0.8428 -2.6023 -2.0914
 1246TIP3    H225298   1.811   0.537   1.815 -0.7049 -2.6926  1.8789
 1247TIP3   OH225299   3.583   4.532   8.225  0.0669  0.2761 -0.0467
 1247TIP3    H125300   3.534   4.614   8.221 -0.8120 -0.2034  0.7116
 1247TIP3    H225301   3.675   4.559   8.218 -0.1733  1.3706  0.7493
 1248TIP3   OH225302   5.843   6.426   0.749  0.0371 -0.3615 -0.5600
 1248TIP3    H125303   5.795   6.485   0.808  2.3562 -1.6259  2.9203
 1248TIP3    H225304   5.891   6.484   0.691 -0.1765  1.0948  0.6531
 1249TIP3   OH225305   3.143   2.575   0.686  0.1609 -0.4666 -0.1830
 1249TIP3    H125306   3.083   2.524   0.740 -0.9281 -0.2894 -1.1777
 1249TIP3    H225307   3.094   2.591   0.605  0.7926  1.4131 -0.2469
 1250TIP3   OH225308   5.955   2.110   7.315 -0.2172  0.8650  0.2524
 1250TIP3    H125309   5.904   2.087   7.237 -0.7458 -1.4425  1.2239
 1250TIP3    H225310   6.045   2.117   7.283 -0.6731  1.8593 -0.8915
 1251TIP3   OH225311   4.803   4.569   7.389  0.2426 -0.3252  0.4367
 1251TIP3    H125312   4.822   4.610   7.305  1.2591 -1.4901  0.0688
 1251TIP3    H225313   4.709   4.584   7.402 -0.3422 -1.6213 -1.7487
 1252TIP3   OH225314   1.588   5.319   8.105 -0.4107 -0.7801  0.5468
 1252TIP3    H125315   1.524   5.391   8.108  0.8380  0.5409 -1.7894
 1252TIP3    H225316   1.610   5.310   8.013  2.0690 -1.8250  1.1526
 1253TIP3   OH225317   1.071   5.918   0.974 -0.0539 -0.1864 -0.0830
 1253TIP3    H125318   1.066   5.843   0.915 -0.9803 -0.9116  0.8718
 1253TIP3    H225319   0.980   5.934   0.999  0.2312  0.6782  0.4424
 1254TIP3   OH225320   6.681   5.757   1.526 -0.1943 -0.4863  0.2777
 1254TIP3    H125321   6.754   5.792   1.576  0.6871 -0.4331 -0.9900
 1254TIP3    H225322   6.606   5.811   1.552  0.8758  1.6437 -0.7500
 1255TIP3   OH225323   6.330   1.926   1.123 -0.0598 -0.2014 -0.3065
 1255TIP3    H125324   6.241   1.956   1.140  1.1781  2.8085  1.7311
 1255TIP3    H225325   6.360   1.981   1.052  1.0773  0.9519  1.0148
 1256TIP3   OH225326   4.312   1.223   1.886 -0.4275  0.4355  0.1289
 1256TIP3    H125327   4.372   1.296   1.876  1.6381 -1.0906  0.5634
 1256TIP3    H225328   4.295   1.192   1.797 -0.1161  0.5580  0.0265
 1257TIP3   OH225329   6.874   6.653   8.326  0.3964 -0.0654  0.1687
 1257TIP3    H125330   6.948   6.653   8.386 -0.7220 -0.2948  1.6153
 1257TIP3    H225331   6.912   6.672   8.240  2.1610 -0.5692  0.7987
 1258TIP3   OH225332   5.678   0.095   7.697  0.0518 -0.3765  0.1873
 1258TIP3    H125333   5.631   0.022   7.737 -0.7899  0.3872  0.6215
 1258TIP3    H225334   5.769   0.065   7.693 -0.3109 -1.5316  0.1429
 1259TIP3   OH225335   6.587   3.826   8.254 -0.5652  0.0030 -0.4258
 1259TIP3    H125336   6.530   3.850   8.326  1.7112  0.1231  1.4472
 1259TIP3    H225337   6.632   3.907   8.230 -1.2815 -0.0257 -2.0516
 1260TIP3   OH225338   6.182   3.128   6.177 -0.3575 -0.2260 -0.3534
 1260TIP3    H125339   6.226   3.079   6.108 -0.2431 -1.1383  0.3437
 1260TIP3    H225340   6.166   3.063   6.246 -2.2868  0.1991 -0.3507
 1261TIP3   OH225341   5.251   2.425   0.157 -0.0587 -0.3193  0.6544
 1261TIP3    H125342   5.321   2.360   0.149  0.4455 -0.0420  2.3852
 1261TIP3    H225343   5.215   2.411   0.245 -0.1508  1.4991  0.9505
 1262TIP3   OH225344   3.806   0.071   6.924 -0.3722 -0.4105 -0.2823
 1262TIP3    H125345   3.861   0.084   6.847  0.9601 -1.9719  0.3644
 1262TIP3    H225346   3.746   0.146   6.923  1.5269  1.1745 -1.1971
 1263TIP3   OH225347   2.431   4.500   1.502 -0.2985  0.0791  0.5046
 1263TIP3    H125348   2.473   4.501   1.416 -0.8611  2.4914  0.2121
 1263TIP3    H225349   2.485   4.558   1.556 -0.1055 -1.1936  1.7562
 1264TIP3   OH225350   2.612   2.092   7.652  0.4080 -0.1876  0.3239
 1264TIP3    H125351   2.610   2.149   7.729  1.3548 -1.1898  1.1308
 1264TIP3    H225352   2.566   2.013   7.679  1.5027 -0.9000  0.1865
 1265TIP3   OH225353   1.086   1.095   2.184 -0.1505  0.4783  0.2348
 1265TIP3    H125354   1.032   1.123   2.258 -0.6918  2.9420 -0.9769
 1265TIP3    H225355   1.031   1.035   2.135 -0.1706 -0.3491  1.2331
 1266TIP3   OH225356   3.551   0.959   2.254  0.1062  0.0761 -0.0037
 1266TIP3    H125357   3.579   0.869   2.235  0.6218  0.0057  0.9860
 1266TIP3    H225358   3.477   0.974   2.196 -0.2190 -1.1226  0.0668
 1267TIP3   OH225359   5.012   3.755   2.250  0.1337  0.0280  0.1097
 1267TIP3    H125360   5.016   3.763   2.154  1.5806  1.5630  0.2552
 1267TIP3    H225361   4.918   3.760   2.270 -0.2595 -1.1766 -1.2606
 1268TIP3   OH225362   1.270   4.646   7.151  0.2960  0.3574  0.1802
 1268TIP3    H125363   1.312   4.669   7.068  0.6105  0.5270  0.3843
 1268TIP3    H225364   1.216   4.570   7.130  1.0726 -0.1576  0.0124
 1269TIP3   OH225365   4.831   3.179   2.163 -0.1506  0.1809 -0.1104
 1269TIP3    H125366   4.830   3.098   2.213 -0.3659 -0.2190 -0.7563
 1269TIP3    H225367   4.867   3.244   2.224  0.6490 -0.5335  0.1956
 1270TIP3   OH225368   2.327   5.384   0.762 -0.6945 -0.0161  0.3965
 1270TIP3    H125369   2.416   5.351   0.747 -0.7069  0.7339 -1.6467
 1270TIP3    H225370   2.340   5.476   0.787 -0.8854  0.3492 -0.7684
 1271TIP3   OH225371   2.966   2.012   6.743 -0.5142 -0.5346 -0.3179
 1271TIP3    H125372   3.053   2.019   6.783 -1.2668  1.4141  1.1881
 1271TIP3    H225373   2.911   1.975   6.813 -0.7616 -2.6737 -1.5673
 1272TIP3   OH225374   1.495   2.857   1.239 -0.0327 -0.7261 -0.4715
 1272TIP3    H125375   1.405   2.857   1.208  0.0636  0.2933 -0.7957
 1272TIP3    H225376   1.494   2.917   1.314  0.1426 -1.6308  0.2774
 1273TIP3   OH225377   5.083   5.881   5.917 -0.2067 -0.4004  0.6032
 1273TIP3    H125378   5.057   5.858   6.006  0.3749 -2.0031  0.3792
 1273TIP3    H225379   5.176   5.901   5.923 -0.1391 -0.6325  0.3210
 1274TIP3   OH225380   1.664   4.305   2.382 -0.8538 -0.5190  0.0917
 1274TIP3    H125381   1.695   4.223   2.421 -2.1344 -0.4547  1.3362
 1274TIP3    H225382   1.575   4.315   2.416 -0.5328  1.6682  0.3934
 1275TIP3   OH225383   1.946   0.343   0.943  0.0098  0.3379 -0.0396
 1275TIP3    H125384   1.960   0.299   1.027 -0.1336  0.2180 -0.0803
 1275TIP3    H225385   1.954   0.436   0.964  0.1355  0.3013  0.0779
 1276TIP3   OH225386   6.513   5.383   0.653  0.4305 -0.2489 -0.4650
 1276TIP3    H125387   6.493   5.450   0.588 -1.4377  0.2802  0.5772
 1276TIP3    H225388   6.603   5.402   0.681 -0.6724  3.2065  1.2639
 1277TIP3   OH225389   2.926   3.777   0.495  0.4095 -0.2874  0.4748
 1277TIP3    H125390   2.949   3.721   0.421 -0.2410 -1.4969  1.1590
 1277TIP3    H225391   2.992   3.759   0.561  0.8257  0.5813  0.3148
 1278TIP3   OH225392   6.590   3.631   1.203 -0.1523  0.3110 -0.0467
 1278TIP3    H125393   6.657   3.563   1.203  0.3954  0.8456  0.0359
 1278TIP3    H225394   6.618   3.693   1.135  0.3898  1.4566  1.1716
 1279TIP3   OH225395   0.509   0.268   6.439 -0.0219  0.4836  0.2355
 1279TIP3    H125396   0.429   0.298   6.396  0.9376  1.5638 -0.9088
 1279TIP3    H225397   0.536   0.342   6.494  1.4727  1.1378 -1.2954
 1280TIP3   OH225398   5.287   5.865   7.306 -0.2568 -0.3595 -0.1641
 1280TIP3    H125399   5.279   5.813   7.225  0.6431 -1.7090  0.5773
 1280TIP3    H225400   5.206   5.917   7.309  0.0421  0.3116 -2.3161
 1281TIP3   OH225401   1.556   0.365   8.091 -0.0688  0.6610  0.6767
 1281TIP3    H125402   1.600   0.378   8.006 -0.2865 -0.4261  0.3794
 1281TIP3    H225403   1.605   0.294   8.132 -2.2613 -1.5244 -0.2219
 1282TIP3   OH225404   5.717   4.717   6.778 -0.8407  0.1102  0.3106
 1282TIP3    H125405   5.765   4.798   6.790  0.7242 -0.6449 -0.5192
 1282TIP3    H225406   5.713   4.705   6.683  0.0270 -1.3405  0.4176
 1283TIP3   OH225407   1.794   4.819   7.292  0.0827  0.3086 -0.0532
 1283TIP3    H125408   1.768   4.819   7.200  0.3481 -0.6357 -0.1382
 1283TIP3    H225409   1.806   4.726   7.313 -0.7138  0.4559  1.1369
 1284TIP3   OH225410   3.761   1.623   8.049 -0.1039  0.4009  0.3708
 1284TIP3    H125411   3.781   1.531   8.065  0.3090  0.5458  0.7121
 1284TIP3    H225412   3.665   1.627   8.044 -0.0674 -0.3226 -1.4271
 1285TIP3   OH225413   3.267   5.031   7.648  0.0756  0.0372 -0.2494
 1285TIP3    H125414   3.240   5.009   7.559 -0.2402 -0.1205 -0.1158
 1285TIP3    H225415   3.317   5.112   7.638  0.8302 -0.4583 -0.6873
 1286TIP3   OH225416   1.433   3.867   2.184  0.1105  0.3816 -0.4611
 1286TIP3    H125417   1.525   3.867   2.210  0.4768 -2.7915 -1.3582
 1286TIP3    H225418   1.418   3.955   2.148  3.3676  0.3667 -2.1927
 1287TIP3   OH225419   1.387   0.339   8.468  0.2257 -0.4751 -0.4598
 1287TIP3    H125420   1.304   0.352   8.423  0.2227  0.0137 -0.3149
 1287TIP3    H225421   1.434   0.276   8.413  0.0024 -0.3005 -0.8527
 1288TIP3   OH225422   4.202   2.449   0.595 -0.0139 -0.3274  0.2172
 1288TIP3    H125423   4.181   2.357   0.580  0.5081 -0.5480  0.8171
 1288TIP3    H225424   4.140   2.497   0.539 -0.5335 -1.0258  0.1800
 1289TIP3   OH225425   4.918   2.755   2.481  0.4683  0.0668  0.2580
 1289TIP3    H125426   4.999   2.726   2.524 -0.1086 -1.8756  0.1517
 1289TIP3    H225427   4.863   2.788   2.551  0.8222  0.0832  0.5280
 1290TIP3   OH225428   5.994   5.666   7.448  0.7883  0.0494  0.2187
 1290TIP3    H125429   5.930   5.595   7.455  1.4943 -0.8555 -1.9611
 1290TIP3    H225430   5.948   5.742   7.484 -1.6024 -0.5361 -1.3702
 1291TIP3   OH225431   3.127   0.963   8.048  0.2644  0.0130 -0.4596
 1291TIP3    H125432   3.101   0.969   7.957 -0.1487 -0.3340 -0.3667
 1291TIP3    H225433   3.206   1.017   8.054 -1.1243  2.1956 -0.4693
 1292TIP3   OH225434   3.947   5.726   7.755 -0.0492 -0.6947  0.4674
 1292TIP3    H125435   3.856   5.708   7.777 -0.1406 -0.4359  0.3052
 1292TIP3    H225436   3.997   5.667   7.811 -0.2796 -0.1111  1.3127
 1293TIP3   OH225437   4.610   3.283   2.311 -0.2482  0.4698 -0.7207
 1293TIP3    H125438   4.630   3.376   2.301 -0.4322  0.7280  1.0481
 1293TIP3    H225439   4.642   3.260   2.398 -1.8728 -0.6570 -0.3599
 1294TIP3   OH225440   3.363   6.222   1.604  0.4023  0.1428 -0.0684
 1294TIP3    H125441   3.459   6.217   1.608  0.5155  0.7220 -1.4589
 1294TIP3    H225442   3.337   6.141   1.559  0.3363  0.4540 -0.6043
 1295TIP3   OH225443   5.056   4.269   1.130 -0.8047 -0.1816 -0.1585
 1295TIP3    H125444   4.972   4.233   1.158  0.0681 -1.4791  0.9308
 1295TIP3    H225445   5.099   4.197   1.083 -1.1531  1.1462 -2.6608
 1296TIP3   OH225446   0.403   6.251   1.870  0.1228  0.6979 -0.1604
 1296TIP3    H125447   0.424   6.308   1.943  1.9573 -0.9489  0.6885
 1296TIP3    H225448   0.486   6.240   1.823 -0.2919 -0.7862 -0.6163
 1297TIP3   OH225449   1.453   2.143   0.903 -0.0687  0.2471  0.2960
 1297TIP3    H125450   1.516   2.079   0.937  0.4375  0.8600  0.5318
 1297TIP3    H225451   1.367   2.107   0.926  0.0577 -1.6859 -1.8732
 1298TIP3   OH225452   0.134   1.985   1.782 -0.2465  0.1078 -0.3079
 1298TIP3    H125453   0.150   2.070   1.741  1.5868 -0.1532 -0.1850
 1298TIP3    H225454   0.201   1.928   1.746  1.1525 -0.2633  2.6588
 1299TIP3   OH225455   5.812   3.832   2.497  0.2880 -0.1598 -0.0968
 1299TIP3    H125456   5.843   3.898   2.560 -2.1819  0.5438  0.5132
 1299TIP3    H225457   5.844   3.749   2.531 -0.5965  0.2534  1.9075
 1300TIP3   OH225458   6.195   3.959   7.536 -0.2561 -0.0570 -0.4441
 1300TIP3    H125459   6.201   4.055   7.528  0.2376 -0.1883 -2.0979
 1300TIP3    H225460   6.157   3.945   7.622  1.0907  1.5824  0.4843
 1301TIP3   OH225461   0.344   5.854   7.984 -0.9073 -0.3434 -0.0403
 1301TIP3    H125462   0.269   5.810   8.023 -1.0463  0.0267  0.1160
 1301TIP3    H225463   0.314   5.944   7.970 -0.2885 -0.0334  0.5979
 1302TIP3   OH225464   2.525   6.402   6.897  0.0918 -0.1109 -0.7870
 1302TIP3    H125465   2.440   6.380   6.934  0.3317 -1.9715 -1.2557
 1302TIP3    H225466   2.555   6.321   6.855  2.1694  0.4350 -0.4784
 1303TIP3   OH225467   5.273   3.533   2.040  0.5904 -0.5065  0.0086
 1303TIP3    H125468   5.227   3.499   1.964  0.1876  0.4540 -0.1854
 1303TIP3    H225469   5.204   3.565   2.099  0.9690  0.6387 -0.1396
 1304TIP3   OH225470   2.778   6.795   7.072 -0.1196 -0.0758  0.4672
 1304TIP3    H125471   2.784   6.806   6.978  0.3875 -0.0592  0.4965
 1304TIP3    H225472   2.745   6.706   7.084 -0.5997  0.0735  0.2721
 1305TIP3   OH225473   5.220   1.704   6.910 -0.1397 -0.3536  0.8048
 1305TIP3    H125474   5.252   1.740   6.827 -1.0706 -0.2852  0.4656
 1305TIP3    H225475   5.299   1.676   6.956  0.3511 -1.2357 -0.4946
 1306TIP3   OH225476   6.501   1.227   0.063  0.0230 -0.0180 -0.2621
 1306TIP3    H125477   6.497   1.252  -0.029  1.8766 -0.1701 -0.4399
 1306TIP3    H225478   6.511   1.309   0.111 -0.9355  0.0605 -0.1887
 1307TIP3   OH225479   6.639   5.142   1.489  0.0418 -0.0382  0.2677
 1307TIP3    H125480   6.598   5.214   1.440 -0.0068 -0.1293  0.1719
 1307TIP3    H225481   6.578   5.124   1.560  0.1980  0.2111  0.4656
 1308TIP3   OH225482   6.307   6.869   0.580 -0.3391 -0.0397  0.0137
 1308TIP3    H125483   6.270   6.791   0.539 -1.3736  0.4610 -0.0420
 1308TIP3    H225484   6.301   6.853   0.674 -1.0541  0.1851  0.0126
 1309TIP3   OH225485   4.284   6.524   1.362 -0.1232  0.2163 -0.3912
 1309TIP3    H125486   4.265   6.445   1.413 -0.5748 -0.5354 -1.6695
 1309TIP3    H225487   4.254   6.596   1.417  0.1312 -0.5070  0.7316
 1310TIP3   OH225488   3.320   6.128   7.403 -0.4813  0.2948  0.3479
 1310TIP3    H125489   3.296   6.122   7.496 -0.7584  1.8047  0.4024
 1310TIP3    H225490   3.385   6.199   7.400  0.7391 -0.8245 -0.4023
 1311TIP3   OH225491   5.892   6.628   2.094 -0.2294  0.2828  0.5778
 1311TIP3    H125492   5.863   6.593   2.178  0.1402 -1.3361  0.0529
 1311TIP3    H225493   5.820   6.685   2.066 -1.6039 -1.2937  0.7343
 1312TIP3   OH225494   5.610   1.248   0.294 -0.3104  0.5344  0.5630
 1312TIP3    H125495   5.519   1.253   0.265 -0.4608 -0.8905  0.7323
 1312TIP3    H225496   5.605   1.208   0.381  0.6123 -1.7912 -0.3852
 1313TIP3   OH225497   6.440   4.717   1.110  0.2488 -0.1553 -0.0407
 1313TIP3    H125498   6.380   4.752   1.044 -0.1807  1.5010  1.1822
 1313TIP3    H225499   6.390   4.718   1.191  1.9884  1.6159  1.0872
 1314TIP3   OH225500   2.206   6.141   1.280 -0.4336 -0.4401  0.1192
 1314TIP3    H125501   2.257   6.076   1.327 -0.3896 -0.6094 -0.1595
 1314TIP3    H225502   2.158   6.188   1.348  0.3760 -0.0264  0.4235
 1315TIP3   OH225503   4.015   5.730   8.071  0.2731  0.3456 -0.1873
 1315TIP3    H125504   4.036   5.659   8.010 -1.4761 -1.9069  1.6458
 1315TIP3    H225505   4.057   5.704   8.153 -2.1906  0.2118  1.1243
 1316TIP3   OH225506   2.730   0.737   6.437  1.1714 -0.2776 -0.2847
 1316TIP3    H125507   2.658   0.794   6.411  1.3288 -0.5579 -1.3772
 1316TIP3    H225508   2.743   0.678   6.363 -0.1697 -2.9765  1.4565
 1317TIP3   OH225509   0.049   3.641   7.382 -0.0534 -0.0869  0.1678
 1317TIP3    H125510   0.063   3.552   7.414 -0.8898 -0.0667  0.6195
 1317TIP3    H225511  -0.045   3.645   7.364 -0.2595  1.0941  1.3764
 1318TIP3   OH225512   3.658   4.636   7.898 -0.5489 -0.2889 -0.3327
 1318TIP3    H125513   3.643   4.558   7.950  0.5263 -1.3661 -1.5530
 1318TIP3    H225514   3.633   4.610   7.809  1.3261  0.1992 -1.0479
 1319TIP3   OH225515   1.324   6.041   1.704  0.3117  0.0113  0.2081
 1319TIP3    H125516   1.343   6.122   1.751  0.7686 -0.1510  0.3122
 1319TIP3    H225517   1.301   5.978   1.772  0.5850 -0.1151  0.1877
 1320TIP3   OH225518   1.011   6.506   7.193 -0.4001  0.6549  0.5809
 1320TIP3    H125519   0.965   6.590   7.182  0.1756  0.8283 -0.7268
 1320TIP3    H225520   0.971   6.449   7.128 -2.1774 -0.7676  2.7707
 1321TIP3   OH225521   2.625   5.653   0.645 -0.3654 -0.3860  0.0908
 1321TIP3    H125522   2.565   5.614   0.709 -1.5832  0.2611 -0.6133
 1321TIP3    H225523   2.627   5.590   0.573  2.2976 -1.9307  1.3446
 1322TIP3   OH225524   1.035   2.015   0.658  0.2728  0.1873  0.0629
 1322TIP3    H125525   1.039   2.006   0.563 -0.2246  3.0338 -0.2912
 1322TIP3    H225526   1.007   1.929   0.689  0.5791 -0.8365 -2.3232
 1323TIP3   OH225527   5.579   4.374   7.839  0.0927 -0.2474 -0.3341
 1323TIP3    H125528   5.580   4.367   7.744  2.0944  1.1650 -0.4659
 1323TIP3    H225529   5.499   4.423   7.859 -0.5334 -0.8680 -1.2265
 1324TIP3   OH225530   5.929   4.662   0.242  0.0850 -0.0516 -0.4460
 1324TIP3    H125531   5.951   4.717   0.318  2.0319 -0.4936 -0.6512
 1324TIP3    H225532   5.945   4.572   0.272 -0.0771 -0.2944 -1.0742
 1325TIP3   OH225533   0.475   1.023   7.860 -0.4798  0.7142  0.1748
 1325TIP3    H125534   0.512   0.941   7.827 -0.3256  0.6687  0.4578
 1325TIP3    H225535   0.416   1.053   7.790 -0.9558  0.0850  0.2943
 1326TIP3   OH225536   4.113   0.673   0.427 -0.0980  0.1209 -0.0436
 1326TIP3    H125537   4.208   0.668   0.438 -0.0964 -1.4663 -0.5600
 1326TIP3    H225538   4.077   0.631   0.506 -0.3686  0.4759  0.0259
 1327TIP3   OH225539   1.884   2.988   7.366  0.0297 -0.3308 -0.5431
 1327TIP3    H125540   1.841   3.068   7.396  0.3797 -0.0345 -0.8227
 1327TIP3    H225541   1.864   2.983   7.273 -1.0263 -1.2355 -0.2819
 1328TIP3   OH225542   3.170   3.680   0.953  0.3983  0.5957 -0.7500
 1328TIP3    H125543   3.237   3.656   1.017  0.0127  2.1174  0.2760
 1328TIP3    H225544   3.089   3.643   0.987  0.4297  0.1857 -1.1140
 1329TIP3   OH225545   4.558   0.216   2.627  0.4963  0.1934  0.5870
 1329TIP3    H125546   4.627   0.280   2.642  0.5275  0.2251  0.3151
 1329TIP3    H225547   4.495   0.261   2.571  0.4626  0.0235  0.4867
 1330TIP3   OH225548   6.575   1.317   2.086  0.0227  0.1101  0.8451
 1330TIP3    H125549   6.545   1.233   2.051  0.2274 -0.0642  1.0854
 1330TIP3    H225550   6.607   1.297   2.174  0.4155  0.3734  0.7671
 1331TIP3   OH225551   5.749   4.096   0.790 -0.0380 -0.2491  0.3231
 1331TIP3    H125552   5.787   4.115   0.876  0.8873 -0.1327 -0.0973
 1331TIP3    H225553   5.781   4.008   0.768  1.1483  0.3926 -0.6339
 1332TIP3   OH225554   5.715   4.646   2.362  0.0217 -0.0447  0.1138
 1332TIP3    H125555   5.749   4.568   2.317  1.5019 -0.2808  1.5405
 1332TIP3    H225556   5.737   4.719   2.304 -0.6968 -0.6025 -0.8832
 1333TIP3   OH225557   0.937   1.398   1.195 -0.1028  0.4174  0.0872
 1333TIP3    H125558   0.993   1.322   1.210 -2.2018 -1.3631 -0.6225
 1333TIP3    H225559   0.969   1.464   1.256  3.0471 -0.2986 -0.6173
 1334TIP3   OH225560   4.851   5.134   0.787  0.6041  0.4008 -0.4176
 1334TIP3    H125561   4.910   5.189   0.736  0.8365  0.9707  0.4371
 1334TIP3    H225562   4.770   5.132   0.736  1.2822 -0.2484 -1.5143
 1335TIP3   OH225563   2.589   1.052   8.336 -0.0679 -0.3339  0.4206
 1335TIP3    H125564   2.648   1.117   8.376 -2.4572  1.5440  1.1448
 1335TIP3    H225565   2.526   1.105   8.288 -1.0399 -2.2775 -0.5219
 1336TIP3   OH225566   5.911   2.969   8.326 -0.2115 -0.4055 -0.1943
 1336TIP3    H125567   6.004   2.949   8.336 -0.2691 -0.7724 -0.3798
 1336TIP3    H225568   5.880   2.985   8.415 -0.1607 -1.1254 -0.0444
 1337TIP3   OH225569   0.298   6.703   0.505 -0.1924 -0.7876 -0.3819
 1337TIP3    H125570   0.350   6.781   0.485  0.6290 -1.5507 -1.3910
 1337TIP3    H225571   0.264   6.718   0.593  1.8460 -0.2725  0.3835
 1338TIP3   OH225572   5.244   1.834   1.866 -0.3395 -0.1494  0.4393
 1338TIP3    H125573   5.323   1.879   1.836  0.7020 -2.1283  0.0409
 1338TIP3    H225574   5.206   1.893   1.931 -0.1447  2.1621 -1.4248
 1339TIP3   OH225575   0.830   6.015   0.050  0.0086 -0.1697  0.4452
 1339TIP3    H125576   0.903   5.963   0.015  1.1731  1.6582  0.0197
 1339TIP3    H225577   0.852   6.027   0.142 -0.7845 -1.2338  0.7956
 1340TIP3   OH225578   3.745   5.685   6.512  1.1649  0.0069 -0.0724
 1340TIP3    H125579   3.741   5.656   6.421  0.8487 -1.3286  0.3429
 1340TIP3    H225580   3.687   5.761   6.515  0.6548 -0.3341 -0.8560
 1341TIP3   OH225581   3.804   3.032   1.163  0.4031  0.1633 -0.8991
 1341TIP3    H125582   3.872   2.967   1.184 -0.1157  0.3112  1.5175
 1341TIP3    H225583   3.853   3.107   1.131  1.1019 -0.9598 -2.6124
 1342TIP3   OH225584   1.638   2.213   1.304 -0.1951 -0.5088 -0.6883
 1342TIP3    H125585   1.669   2.254   1.224 -0.2774  0.3858 -0.2668
 1342TIP3    H225586   1.603   2.285   1.356 -1.4392 -1.2620 -0.4378
 1343TIP3   OH225587   3.416   5.160   7.370 -0.3683 -0.3700  0.0617
 1343TIP3    H125588   3.368   5.079   7.386  0.1744 -0.4916  1.2249
 1343TIP3    H225589   3.508   5.133   7.362  0.3590  0.3441  3.8703
 1344TIP3   OH225590   4.505   4.515   8.053 -0.2749 -0.0555  0.1434
 1344TIP3    H125591   4.559   4.535   8.129  0.3067  0.2944 -0.3532
 1344TIP3    H225592   4.420   4.491   8.090  0.2275 -0.6652  0.9338
 1345TIP3   OH225593   1.882   2.809   0.724 -0.0521  0.3461  0.5089
 1345TIP3    H125594   1.851   2.859   0.800 -0.5262  3.1795 -1.4360
 1345TIP3    H225595   1.804   2.794   0.671  0.4787 -0.5427 -0.0572
 1346TIP3   OH225596   6.671   3.464   1.644  0.1703  0.2977 -0.3658
 1346TIP3    H125597   6.595   3.431   1.692 -0.7808  0.5455 -1.6280
 1346TIP3    H225598   6.739   3.475   1.710 -0.3502 -1.5393  0.5423
 1347TIP3   OH225599   0.205   1.391   0.845  0.1485 -0.6284  0.2085
 1347TIP3    H125600   0.180   1.483   0.835  0.8195 -0.5047 -0.3834
 1347TIP3    H225601   0.292   1.385   0.806 -0.6514 -1.9256 -1.4797
 1348TIP3   OH225602   5.593   3.991   2.437  0.5194 -0.0195 -0.0800
 1348TIP3    H125603   5.626   4.075   2.469 -0.5826  0.0568  0.9140
 1348TIP3    H225604   5.660   3.928   2.464  1.0592  0.4506 -0.2973
 1349TIP3   OH225605   1.325   5.982   0.471 -0.4369 -0.1474  0.0606
 1349TIP3    H125606   1.406   5.988   0.421 -0.2752 -3.2335 -0.2753
 1349TIP3    H225607   1.347   6.016   0.558  0.7289  0.6089 -0.5120
 1350TIP3   OH225608   0.965   5.350   2.413 -0.1744 -0.4141 -0.1266
 1350TIP3    H125609   0.869   5.347   2.406 -0.1415 -2.9467 -0.1117
 1350TIP3    H225610   0.987   5.439   2.386 -2.3695 -0.4011 -2.2460
 1351TIP3   OH225611   4.228   1.744   7.448 -0.2239  0.1841 -0.3237
 1351TIP3    H125612   4.287   1.733   7.373 -0.8582 -1.3184 -0.6474
 1351TIP3    H225613   4.282   1.782   7.517  1.1372 -1.1342 -0.6217
 1352TIP3   OH225614   5.404   4.587   6.900 -0.3388  0.0737 -0.0848
 1352TIP3    H125615   5.408   4.496   6.870 -0.4801 -0.3909  1.2143
 1352TIP3    H225616   5.440   4.638   6.828 -1.4440 -0.8805 -1.3557
 1353TIP3   OH225617   4.257   4.014   1.876 -0.1057 -0.0102  0.4977
 1353TIP3    H125618   4.301   4.056   1.950  3.6745 -1.5048 -0.6581
 1353TIP3    H225619   4.281   4.067   1.801 -1.6554 -0.0285 -0.0443
 1354TIP3   OH225620   2.091   6.743   0.230  0.4464  0.0735 -0.4333
 1354TIP3    H125621   2.127   6.814   0.178  2.9586 -0.2545  0.7357
 1354TIP3    H225622   2.151   6.670   0.216 -0.0369 -0.6834  1.2154
 1355TIP3   OH225623   6.094   5.132   7.777 -0.5408 -0.1119  0.3029
 1355TIP3    H125624   6.100   5.052   7.829 -2.0926 -1.7285 -1.8464
 1355TIP3    H225625   6.032   5.111   7.707  0.8945  2.1335 -1.8184
 1356TIP3   OH225626   1.916   2.952   7.791  0.1266 -0.1450 -0.0468
 1356TIP3    H125627   1.860   3.030   7.793  1.2424  0.7729 -1.7944
 1356TIP3    H225628   1.992   2.979   7.739  0.1462 -2.6491 -1.4789
 1357TIP3   OH225629   5.154   5.523   2.520 -0.7083  0.5214 -0.1189
 1357TIP3    H125630   5.222   5.468   2.559  0.2424  0.5987 -1.5968
 1357TIP3    H225631   5.077   5.508   2.575 -0.3691 -1.9494 -0.2305
 1358TIP3   OH225632   4.158   4.783   7.269 -0.2714  0.2269  0.4686
 1358TIP3    H125633   4.110   4.705   7.298  0.7782 -0.4008  0.5533
 1358TIP3    H225634   4.171   4.834   7.348  0.9381 -0.5784  0.8172
 1359TIP3   OH225635   4.217   3.591   0.872 -0.5550  0.0738  0.0527
 1359TIP3    H125636   4.279   3.524   0.843  0.2714 -0.3604  2.5961
 1359TIP3    H225637   4.138   3.574   0.821  0.3373 -1.4407 -0.9064
 1360TIP3   OH225638   5.588   4.704   0.797 -1.2340 -0.1328  0.0251
 1360TIP3    H125639   5.598   4.647   0.721 -0.3714  0.5581 -0.4057
 1360TIP3    H225640   5.599   4.792   0.762  0.0785  0.1601  1.0644
 1361TIP3   OH225641   6.559   3.714   2.554  0.1566 -0.2708  0.0693
 1361TIP3    H125642   6.495   3.662   2.506  0.0089  0.4208 -0.5127
 1361TIP3    H225643   6.625   3.737   2.488  0.8292 -0.6992  0.5861
 1362TIP3   OH225644   3.894   1.019   2.066 -0.6159 -0.2574  0.3460
 1362TIP3    H125645   3.978   0.975   2.070 -0.7810 -0.5564  0.5084
 1362TIP3    H225646   3.841   0.966   2.007 -0.6374  0.0221  0.1094
 1363TIP3   OH225647   3.568   6.647   1.924  0.1333  0.0377  0.4543
 1363TIP3    H125648   3.586   6.577   1.861 -0.3783 -1.7785  2.1930
 1363TIP3    H225649   3.473   6.653   1.927  0.0838 -0.7872  1.8677
 1364TIP3   OH225650   5.622   0.246   0.620 -0.4633 -0.3845 -0.1590
 1364TIP3    H125651   5.616   0.169   0.563 -1.0183 -0.5770  0.1501
 1364TIP3    H225652   5.670   0.215   0.697 -0.3673 -0.3255 -0.1956
 1365TIP3   OH225653   0.030   2.314   0.439 -0.3625 -0.3802 -0.0891
 1365TIP3    H125654   0.109   2.365   0.423 -1.6473  1.6344 -0.3446
 1365TIP3    H225655   0.058   2.223   0.430  2.2894  0.1615  1.5231
 1366TIP3   OH225656   0.210   4.955   0.383  0.5222 -0.4574 -0.2661
 1366TIP3    H125657   0.118   4.960   0.411  0.7256  0.4380  0.2709
 1366TIP3    H225658   0.207   4.904   0.302 -0.4345 -0.5653 -0.1775
 1367TIP3   OH225659   5.218   4.117   6.940  0.2169  0.6286  0.8184
 1367TIP3    H125660   5.261   4.176   7.002  0.6959 -0.4095  1.4963
 1367TIP3    H225661   5.158   4.174   6.891  0.8348  1.7173  1.2855
 1368TIP3   OH225662   3.240   3.109   8.488  0.3809  0.1987  0.0157
 1368TIP3    H125663   3.266   3.134   8.577  0.9423 -0.9867  0.2058
 1368TIP3    H225664   3.224   3.192   8.443 -0.7672  0.8095  1.4665
 1369TIP3   OH225665   4.877   2.146   1.145 -0.4261  0.1675  0.0077
 1369TIP3    H125666   4.875   2.228   1.095 -2.0778 -0.8085 -1.6094
 1369TIP3    H225667   4.940   2.091   1.099  1.3193  0.7137  1.5653
 1370TIP3   OH225668   6.219   6.440   7.301  0.0746  0.3547 -0.6770
 1370TIP3    H125669   6.288   6.379   7.327 -0.4588  0.2329  0.5530
 1370TIP3    H225670   6.237   6.460   7.209  0.2600 -1.6804 -1.1398
 1371TIP3   OH225671   5.275   5.996   8.209 -0.0961  0.0770  0.3435
 1371TIP3    H125672   5.252   6.056   8.138 -2.4384 -1.0941  0.0112
 1371TIP3    H225673   5.298   5.915   8.164  1.3737  0.1858  0.8521
 1372TIP3   OH225674   2.187   0.849   6.577 -0.9293  0.3208  0.2675
 1372TIP3    H125675   2.121   0.804   6.628 -1.0724  2.3545  2.0170
 1372TIP3    H225676   2.210   0.926   6.629 -0.0553  1.7905 -2.0921
 1373TIP3   OH225677   2.824   4.605   2.114 -0.5758 -0.0772 -0.0819
 1373TIP3    H125678   2.848   4.565   2.197 -0.6084 -2.0781 -0.9778
 1373TIP3    H225679   2.905   4.608   2.064 -0.6542  0.6360 -0.1773
 1374TIP3   OH225680   5.787   4.487   2.647 -0.0066 -0.7247 -0.3655
 1374TIP3    H125681   5.743   4.558   2.600 -1.4837 -1.5844 -0.3479
 1374TIP3    H225682   5.777   4.510   2.740  0.5038 -0.4092 -0.3830
 1375TIP3   OH225683   4.052   6.192   7.236 -0.4249 -0.3121  0.1997
 1375TIP3    H125684   4.040   6.239   7.154  0.1740  0.6341  0.6377
 1375TIP3    H225685   3.964   6.169   7.264 -0.6316 -0.6987 -0.7297
 1376TIP3   OH225686   5.543   0.747   7.469 -0.7083 -0.5603 -0.6932
 1376TIP3    H125687   5.459   0.763   7.424 -0.9726  1.6077  0.4431
 1376TIP3    H225688   5.590   0.829   7.460  0.6499 -1.2302  0.0718
 1377TIP3   OH225689   6.429   2.043   0.420 -0.4555  0.4034  0.6129
 1377TIP3    H125690   6.486   1.992   0.362  1.3119  1.5785  1.2306
 1377TIP3    H225691   6.413   1.985   0.494  0.3066  0.2094  0.6348
 1378TIP3   OH225692   5.792   0.130   0.803  0.0233  0.3735 -0.1855
 1378TIP3    H125693   5.726   0.139   0.872 -1.5417  0.4022 -1.6311
 1378TIP3    H225694   5.814   0.036   0.803 -1.5254 -0.0137 -1.0021
 1379TIP3   OH225695   0.907   0.196   1.727  0.2350  0.1701  0.1999
 1379TIP3    H125696   0.831   0.197   1.785 -1.6228  0.9031 -2.1144
 1379TIP3    H225697   0.939   0.106   1.730 -0.2646  0.0188  1.7358
 1380TIP3   OH225698   1.632   1.220   2.276  0.6654  0.2767 -0.1627
 1380TIP3    H125699   1.642   1.126   2.285  0.7164  0.3897  1.1191
 1380TIP3    H225700   1.553   1.241   2.326  1.7816  1.1546  1.3114
 1381TIP3   OH225701   0.574   5.967   8.537  0.4384 -0.1301 -0.6084
 1381TIP3    H125702   0.664   5.999   8.543 -0.6578  3.0156  2.4718
 1381TIP3    H225703   0.528   6.031   8.483 -0.7101  0.5937  1.1373
 1382TIP3   OH225704   1.775   0.551   1.432 -0.6223  0.2153 -0.1002
 1382TIP3    H125705   1.857   0.536   1.386 -1.2465 -1.7662 -0.6371
 1382TIP3    H225706   1.798   0.546   1.525 -0.1985 -0.8038 -0.2530
 1383TIP3   OH225707   4.807   5.925   1.375  0.2819 -0.5822  0.0807
 1383TIP3    H125708   4.865   5.924   1.451  1.9641  3.4674 -0.8506
 1383TIP3    H225709   4.865   5.914   1.300 -1.2795 -4.0254 -0.7984
 1384TIP3   OH225710   5.554   5.358   8.055  0.6039 -0.5586  0.1043
 1384TIP3    H125711   5.580   5.382   7.966  2.3901  1.3867  1.0652
 1384TIP3    H225712   5.474   5.407   8.071  1.3862  0.7312  0.2235
 1385TIP3   OH225713   2.495   3.428   6.740 -0.2710 -0.6742 -0.4037
 1385TIP3    H125714   2.552   3.443   6.664  1.3918  0.2988  0.9437
 1385TIP3    H225715   2.410   3.408   6.703 -0.0060  1.6699 -2.5308
 1386TIP3   OH225716   4.775   3.557   7.519  0.2236  0.0009 -0.2581
 1386TIP3    H125717   4.795   3.622   7.452 -4.0521  0.5646 -1.2664
 1386TIP3    H225718   4.740   3.608   7.592  1.2824 -0.9106  0.9416
 1387TIP3   OH225719   2.044   6.645   2.265 -0.2725 -0.7537 -0.6953
 1387TIP3    H125720   1.959   6.668   2.227  0.2135 -0.0409 -1.3800
 1387TIP3    H225721   2.036   6.666   2.358 -0.8162 -0.6232 -0.7693
 1388TIP3   OH225722   2.489   5.743   6.731 -0.2654 -0.0846 -0.1391
 1388TIP3    H125723   2.559   5.807   6.717 -1.8938  1.9374  0.3800
 1388TIP3    H225724   2.420   5.793   6.775 -2.1561 -1.8824 -0.9010
 1389TIP3   OH225725   4.278   4.165   1.618  0.0213 -0.5827 -0.1827
 1389TIP3    H125726   4.237   4.083   1.592  0.0111 -0.8341  0.6113
 1389TIP3    H225727   4.327   4.193   1.541  2.4197 -2.8156  0.4259
 1390TIP3   OH225728   2.915   4.900   2.864  0.5628 -0.5736  0.4101
 1390TIP3    H125729   2.861   4.827   2.895  1.3896 -1.4661 -0.1539
 1390TIP3    H225730   2.937   4.875   2.774 -0.8354  1.3763 -0.5397
 1391TIP3   OH225731   3.971   4.850   0.295 -0.2040  0.4888 -0.4825
 1391TIP3    H125732   4.056   4.836   0.253  1.4060 -0.6372  2.7147
 1391TIP3    H225733   3.923   4.768   0.280 -0.8734  1.1965 -2.4527
 1392TIP3   OH225734   6.232   0.279   7.403 -0.0367 -0.1857  0.8873
 1392TIP3    H125735   6.250   0.281   7.309 -2.7902 -0.1311  0.2887
 1392TIP3    H225736   6.278   0.201   7.434  1.4685  0.1544 -0.3372
 1393TIP3   OH225737   3.326   0.577   1.088 -0.4124 -0.4496  0.3978
 1393TIP3    H125738   3.242   0.538   1.065  0.2235 -1.6169 -0.0323
 1393TIP3    H225739   3.344   0.543   1.176  0.2874 -1.4238 -0.0993
 1394TIP3   OH225740   0.094   5.979   7.025 -0.3096  0.5916  0.4455
 1394TIP3    H125741   0.098   5.891   6.988  1.0843  0.1171  1.6054
 1394TIP3    H225742   0.144   6.034   6.965  1.2010  0.0050  1.1286
 1395TIP3   OH225743   3.047   4.438   7.135 -0.1655  0.9652 -0.2213
 1395TIP3    H125744   3.025   4.514   7.081  0.0655  0.8380 -0.4939
 1395TIP3    H225745   2.987   4.369   7.105  0.2205  0.7822 -0.5821
 1396TIP3   OH225746   4.315   3.532   1.316 -0.5658  0.3605 -0.3724
 1396TIP3    H125747   4.225   3.551   1.290 -0.5096  1.0161 -0.1045
 1396TIP3    H225748   4.355   3.493   1.238 -0.5163  1.9245 -1.1538
 1397TIP3   OH225749   5.048   2.680   1.214  0.4598 -0.1486  0.3042
 1397TIP3    H125750   5.119   2.713   1.269  1.8533  0.4575 -1.7564
 1397TIP3    H225751   5.038   2.589   1.241  0.7438  0.2586  1.8796
 1398TIP3   OH225752   3.651   5.629   1.689  0.0418 -0.1873 -0.0288
 1398TIP3    H125753   3.683   5.678   1.764  0.8580 -1.0836  0.2389
 1398TIP3    H225754   3.679   5.539   1.706 -1.3454 -0.7404 -0.5269
 1399TIP3   OH225755   3.679   5.308   1.728  0.1364  0.6844 -0.4124
 1399TIP3    H125756   3.773   5.314   1.714 -0.1563  0.9336 -2.4558
 1399TIP3    H225757   3.641   5.301   1.641 -1.7768  0.9029  0.3420
 1400TIP3   OH225758   3.559   4.905   2.731  0.0477 -0.6276 -0.8135
 1400TIP3    H125759   3.647   4.869   2.743  0.1326 -0.1535  0.0747
 1400TIP3    H225760   3.502   4.828   2.730  0.3990 -0.8936 -0.6517
 1401TIP3   OH225761   0.457   4.023   6.823  0.0819  0.2108 -0.8043
 1401TIP3    H125762   0.485   3.980   6.742  0.1405 -0.8058 -0.2674
 1401TIP3    H225763   0.361   4.016   6.820  0.1480 -3.0363  0.8219
 1402TIP3   OH225764   1.264   4.627   2.206  0.0115  0.1278 -0.3113
 1402TIP3    H125765   1.222   4.573   2.273  1.0891  0.5341  0.7171
 1402TIP3    H225766   1.353   4.594   2.200  0.3407  1.0150 -0.5217
 1403TIP3   OH225767   5.620   3.266   8.160  0.0096  0.1599  0.2046
 1403TIP3    H125768   5.654   3.351   8.135  2.0835 -0.1042  1.8632
 1403TIP3    H225769   5.697   3.211   8.170 -0.9590 -0.8944  2.7413
 1404TIP3   OH225770   2.751   4.089   0.917 -0.0974 -0.0063 -0.1583
 1404TIP3    H125771   2.659   4.076   0.893 -0.2774  2.3860 -0.9668
 1404TIP3    H225772   2.750   4.107   1.011 -0.5234  0.6101 -0.2804
 1405TIP3   OH225773   5.524   4.244   1.751  0.2434  0.0152  0.4841
 1405TIP3    H125774   5.499   4.171   1.696 -0.4335  0.7298 -0.1833
 1405TIP3    H225775   5.443   4.293   1.765  1.1343  2.2485 -1.4921
 1406TIP3   OH225776   4.208   6.210   8.281  0.3287 -0.4805  0.1799
 1406TIP3    H125777   4.222   6.302   8.304 -1.3224  0.6358 -2.6746
 1406TIP3    H225778   4.116   6.194   8.304 -0.4790 -0.2067 -2.4685
 1407TIP3   OH225779   1.515   1.926   8.356 -0.1617 -0.6637  0.6450
 1407TIP3    H125780   1.547   1.895   8.271  2.5757  0.0261  1.3391
 1407TIP3    H225781   1.543   2.017   8.361 -0.0579 -0.7505  2.3733
 1408TIP3   OH225782   5.261   3.804   1.062 -0.0157 -1.1451 -0.2924
 1408TIP3    H125783   5.331   3.743   1.039  0.4407 -0.3368 -1.1128
 1408TIP3    H225784   5.294   3.853   1.137  0.6843 -0.1783 -1.1974
 1409TIP3   OH225785   4.438   1.099   1.234 -0.6880  0.1543  0.5032
 1409TIP3    H125786   4.506   1.067   1.294  1.6576  0.5568 -1.7974
 1409TIP3    H225787   4.439   1.037   1.161 -0.2628  2.1095 -1.2253
 1410TIP3   OH225788   0.342   3.672   1.153  0.5481  0.6330 -0.4660
 1410TIP3    H125789   0.341   3.744   1.089 -0.2699  1.2635  0.2425
 1410TIP3    H225790   0.265   3.686   1.207  0.2500 -0.9120 -0.4327
 1411TIP3   OH225791   0.122   6.376   0.113  0.3632  0.0292  0.3086
 1411TIP3    H125792   0.214   6.352   0.120 -0.0182 -1.5262  0.2749
 1411TIP3    H225793   0.102   6.370   0.020  0.2657  0.5427  0.2923
 1412TIP3   OH225794   4.979   0.013   0.559  0.3489  0.2112 -0.1217
 1412TIP3    H125795   4.939  -0.040   0.628 -2.5823  0.4611 -1.4644
 1412TIP3    H225796   5.025  -0.050   0.503 -0.6689 -0.5513 -0.1207
 1413TIP3   OH225797   3.500   3.552   6.983  0.3553 -0.1731 -0.1629
 1413TIP3    H125798   3.565   3.600   7.034  0.2854 -0.4418  0.1807
 1413TIP3    H225799   3.532   3.557   6.893 -0.1205  1.3143 -0.2825
 1414TIP3   OH225800   1.509   3.923   7.344  0.0396  0.9076 -0.5126
 1414TIP3    H125801   1.492   3.829   7.334  0.1255  0.8414 -0.0817
 1414TIP3    H225802   1.511   3.957   7.255  0.3295  0.4397 -0.6903
 1415TIP3   OH225803   3.425   0.065   7.776  0.2565  0.0854  0.2155
 1415TIP3    H125804   3.419   0.139   7.836 -1.1795 -0.5875  0.9590
 1415TIP3    H225805   3.469  -0.003   7.828 -0.7529 -0.4114  0.4431
 1416TIP3   OH225806   0.866   4.940   7.846 -0.0583 -0.2153 -0.4446
 1416TIP3    H125807   0.926   5.004   7.885 -0.0228 -0.3279 -0.3141
 1416TIP3    H225808   0.923   4.870   7.815 -0.0873 -0.1352 -0.6869
 1417TIP3   OH225809   6.319   5.659   1.508  0.7286 -0.9154 -0.3740
 1417TIP3    H125810   6.357   5.621   1.429  0.3869  1.5467 -1.8291
 1417TIP3    H225811   6.316   5.753   1.490 -0.9326 -0.4489  1.9171
 1418TIP3   OH225812   1.691   1.757   8.503  0.4560  0.1239  0.0471
 1418TIP3    H125813   1.633   1.822   8.463 -0.4428 -0.2126  0.7948
 1418TIP3    H225814   1.658   1.673   8.472  0.5309 -0.0736  0.4964
 1419TIP3   OH225815   3.058   3.358   1.017  0.0609  0.0260  0.1348
 1419TIP3    H125816   3.140   3.365   1.065  0.3736  1.6114 -0.5623
 1419TIP3    H225817   3.071   3.287   0.955 -0.2882 -1.9421  2.1993
 1420TIP3   OH225818   0.242   3.210   1.314  0.3112 -0.0455 -0.2106
 1420TIP3    H125819   0.261   3.291   1.362  0.9054  0.9519 -2.0582
 1420TIP3    H225820   0.208   3.151   1.381 -1.4030  2.1205  0.9765
 1421TIP3   OH225821   2.066   0.565   1.795 -0.3750 -0.0981  0.4040
 1421TIP3    H125822   2.133   0.630   1.776  0.3581 -0.3179  1.9944
 1421TIP3    H225823   1.989   0.616   1.818  0.6616  0.3646  3.2989
 1422TIP3   OH225824   6.782   0.919   0.880  0.7993 -0.0158 -0.2939
 1422TIP3    H125825   6.851   0.960   0.828  0.3435 -0.5558 -1.3550
 1422TIP3    H225826   6.735   0.863   0.818  0.2918 -0.7514  0.7196
 1423TIP3   OH225827   5.825   4.823   8.441  0.8295  0.3067 -0.1500
 1423TIP3    H125828   5.844   4.914   8.463 -1.0926  0.8498 -0.5701
 1423TIP3    H225829   5.756   4.828   8.375  0.7914 -1.4696 -0.2972
 1424TIP3   OH225830   5.270   0.145   0.492 -0.4328 -0.2846  0.1822
 1424TIP3    H125831   5.303   0.111   0.576 -0.7031  0.4567  0.5958
 1424TIP3    H225832   5.241   0.067   0.445 -1.3704 -0.6219  1.2609
 1425TIP3   OH225833   5.473   0.474   7.242  0.0025  0.3876 -0.3912
 1425TIP3    H125834   5.483   0.485   7.337 -0.1457  0.5513 -0.3921
 1425TIP3    H225835   5.501   0.385   7.224  0.8703  0.6409 -0.3167
 1426TIP3   OH225836   2.702   5.251   8.375  0.2362 -0.9888  0.4516
 1426TIP3    H125837   2.693   5.185   8.306  1.4927  0.8089 -1.5719
 1426TIP3    H225838   2.775   5.220   8.429 -0.6942 -2.3744  0.9513
 1427TIP3   OH225839   4.846   1.283   0.489  0.3569  0.1234 -0.2180
 1427TIP3    H125840   4.768   1.231   0.509  1.4642 -1.0743  1.1534
 1427TIP3    H225841   4.862   1.333   0.569  2.2935 -1.3589  0.3727
 1428TIP3   OH225842   4.043   2.497   7.859  0.4150  0.1131 -0.2144
 1428TIP3    H125843   3.962   2.518   7.812 -0.6374  0.8666  1.8289
 1428TIP3    H225844   4.044   2.401   7.863 -1.8586  0.0731  2.0257
 1429TIP3   OH225845   6.068   0.768   1.152 -0.0509 -0.0502 -0.4153
 1429TIP3    H125846   6.133   0.767   1.223  0.9394  1.1843 -1.2415
 1429TIP3    H225847   6.108   0.714   1.083 -0.1216  0.2970 -0.7330
 1430TIP3   OH225848   5.030   2.658   0.052  0.2047 -0.3325 -0.1354
 1430TIP3    H125849   4.991   2.621   0.131  1.4839  1.7054  1.5752
 1430TIP3    H225850   5.125   2.653   0.067  0.4501  1.7093 -0.6585
 1431TIP3   OH225851   1.853   3.241   7.761 -0.2558 -0.7472  0.4221
 1431TIP3    H125852   1.890   3.267   7.677  1.2753 -0.7164  1.0773
 1431TIP3    H225853   1.758   3.249   7.749 -0.1416 -1.7372 -1.6267
 1432TIP3   OH225854   0.120   2.896   6.382  0.2894  0.3914 -0.2556
 1432TIP3    H125855   0.099   2.824   6.324  0.7465  0.0017  0.0532
 1432TIP3    H225856   0.064   2.968   6.353 -0.8556 -0.3653  0.0387
 1433TIP3   OH225857   0.821   4.292   0.616  0.7759  0.1575  0.1230
 1433TIP3    H125858   0.762   4.234   0.664 -1.2764 -1.0143 -3.5094
 1433TIP3    H225859   0.909   4.263   0.642 -0.1071  0.0509  3.5019
 1434TIP3   OH225860   1.711   1.353   0.617 -0.5749  0.1795 -0.0607
 1434TIP3    H125861   1.684   1.388   0.533 -0.5489  1.0453  0.2842
 1434TIP3    H225862   1.633   1.359   0.672 -1.1055 -1.9801 -0.4881
 1435TIP3   OH225863   0.703   0.766   2.063  0.5488  0.5552  0.0354
 1435TIP3    H125864   0.623   0.811   2.033 -0.3958 -0.9327  0.2033
 1435TIP3    H225865   0.701   0.682   2.018  0.7341 -0.4921  1.8927
 1436TIP3   OH225866   3.080   5.526   0.260  0.5427  0.4180  0.2910
 1436TIP3    H125867   3.092   5.619   0.278 -1.3145  0.7693 -0.1423
 1436TIP3    H225868   3.037   5.522   0.175 -0.2099 -0.7917  0.6985
 1437TIP3   OH225869   3.272   0.198   8.439 -0.3724  0.6957  0.3539
 1437TIP3    H125870   3.268   0.227   8.530 -0.2563 -0.0904  0.6182
 1437TIP3    H225871   3.259   0.103   8.444  0.0133  0.5988 -0.4187
 1438TIP3   OH225872   2.763   0.931   1.511  0.1373  0.0512 -0.5032
 1438TIP3    H125873   2.855   0.906   1.521  1.3017  2.8126 -2.7280
 1438TIP3    H225874   2.754   1.009   1.567 -0.7446  0.0250 -0.6019
 1439TIP3   OH225875   4.218   5.703   8.258 -0.2901  0.6369  0.0683
 1439TIP3    H125876   4.269   5.701   8.339 -2.0395  1.5957  1.2455
 1439TIP3    H225877   4.283   5.718   8.190  1.0076  2.0545  1.5228
 1440TIP3   OH225878   4.781   4.295   0.497 -0.0350  0.2873  0.5590
 1440TIP3    H125879   4.804   4.379   0.539  2.8793  0.5332 -1.2579
 1440TIP3    H225880   4.714   4.318   0.433 -0.0062  1.0580  0.7952
 1441TIP3   OH225881   6.175   5.193   0.674  0.1037 -0.1484  0.4869
 1441TIP3    H125882   6.216   5.113   0.642  0.6547  0.4194 -0.2798
 1441TIP3    H225883   6.189   5.257   0.604 -0.3465  0.6146  1.0695
 1442TIP3   OH225884   1.714   0.396   7.873  0.6509  0.4114 -0.2429
 1442TIP3    H125885   1.765   0.324   7.838  2.6012  1.1131  1.0234
 1442TIP3    H225886   1.777   0.468   7.884 -0.5017  1.2132  1.6941
 1443TIP3   OH225887   6.402   2.979   7.922  0.2817 -0.1369  0.5096
 1443TIP3    H125888   6.392   2.884   7.929 -0.6651 -0.1025 -0.2515
 1443TIP3    H225889   6.497   2.993   7.930  0.9080 -1.4946 -2.9344
 1444TIP3   OH225890   3.068   2.181   1.645  0.5633  0.0545  0.3190
 1444TIP3    H125891   2.974   2.167   1.662  0.1015  1.3188 -1.0496
 1444TIP3    H225892   3.095   2.102   1.598 -0.1298  0.2249 -0.3919
 1445TIP3   OH225893   0.284   6.269   1.364 -0.6666 -0.1335 -0.3879
 1445TIP3    H125894   0.254   6.299   1.450 -0.4403 -0.3426 -0.2347
 1445TIP3    H225895   0.278   6.173   1.368  0.8327 -0.2504 -0.0324
 1446TIP3   OH225896   6.890   1.541   8.426 -0.1514 -0.3445 -0.4458
 1446TIP3    H125897   6.887   1.609   8.494  0.2279  2.2732 -2.8256
 1446TIP3    H225898   6.860   1.462   8.470 -1.1605  1.4395  2.4148
 1447TIP3   OH225899   4.144   2.172   0.101 -0.1828 -0.1456  0.2653
 1447TIP3    H125900   4.145   2.095   0.043  3.1130 -1.4262  1.7847
 1447TIP3    H225901   4.170   2.245   0.045 -0.6046 -0.6518 -0.6129
 1448TIP3   OH225902   4.989   2.021   6.973 -0.7533 -0.6315 -0.4667
 1448TIP3    H125903   4.936   1.985   6.903  0.3136 -0.5980 -1.3206
 1448TIP3    H225904   4.998   2.114   6.951 -0.4570 -0.6060 -0.2498
 1449TIP3   OH225905   3.177   6.396   7.416 -0.3464  0.1834 -0.3684
 1449TIP3    H125906   3.089   6.374   7.387  0.2395 -2.6044 -0.3118
 1449TIP3    H225907   3.190   6.344   7.496  1.2733  0.6916 -0.2521
 1450TIP3   OH225908   5.390   6.115   7.197 -0.6162 -0.5746 -0.7025
 1450TIP3    H125909   5.311   6.132   7.146 -0.6494 -0.8572 -0.7472
 1450TIP3    H225910   5.380   6.025   7.227 -1.4254  0.1087  1.2470
 1451TIP3   OH225911   4.202   6.282   7.743  0.6972  0.2393  0.5265
 1451TIP3    H125912   4.236   6.317   7.660  1.9420 -1.2245  0.3791
 1451TIP3    H225913   4.123   6.233   7.717 -0.1190  1.5050  0.5218
 1452TIP3   OH225914   0.321   3.739   7.465  0.3254 -0.1094 -0.2275
 1452TIP3    H125915   0.332   3.761   7.558  1.4689 -1.5581  0.0204
 1452TIP3    H225916   0.235   3.696   7.461  0.1894  0.1194  0.1210
 1453TIP3   OH225917   6.417   6.688   1.166  0.1258  0.1085 -0.6005
 1453TIP3    H125918   6.509   6.686   1.196 -0.6390 -0.2753  2.0299
 1453TIP3    H225919   6.416   6.630   1.090  1.8461 -0.9264  0.0831
 1454TIP3   OH225920   3.875   1.858   0.459 -0.5663  0.5229  0.4208
 1454TIP3    H125921   3.853   1.861   0.366 -0.1039  0.7429  0.3161
 1454TIP3    H225922   3.948   1.920   0.468  0.3469 -0.5640  0.6653
 1455TIP3   OH225923   2.249   3.875   0.897  0.4600 -0.5921 -0.7106
 1455TIP3    H125924   2.271   3.851   0.987 -0.6999 -1.6603 -0.6880
 1455TIP3    H225925   2.183   3.944   0.907  1.3430  0.2922 -0.7735
 1456TIP3   OH225926   4.338   6.318   7.972  0.4346 -0.2572  0.3420
 1456TIP3    H125927   4.292   6.342   8.052 -1.1087 -0.3795 -0.4675
 1456TIP3    H225928   4.271   6.324   7.903  1.5081 -0.9545 -0.8028
 1457TIP3   OH225929   1.794   4.277   7.560  0.4221  0.3880 -0.5385
 1457TIP3    H125930   1.876   4.271   7.512  0.5250 -0.6701 -0.2441
 1457TIP3    H225931   1.742   4.340   7.509  1.2920  0.8627 -0.8779
 1458TIP3   OH225932   1.061   5.253   0.932 -0.0509  0.6205  0.2360
 1458TIP3    H125933   1.126   5.201   0.978 -2.6028  0.7143  4.5316
 1458TIP3    H225934   1.077   5.343   0.960 -0.3055  1.0750 -0.9975
 1459TIP3   OH225935   6.230   3.896   1.917  0.3869 -0.2146  0.0825
 1459TIP3    H125936   6.144   3.870   1.886  0.3788 -0.0057 -0.0743
 1459TIP3    H225937   6.219   3.909   2.011  0.3828 -0.7307  0.1535
 1460TIP3   OH225938   0.844   1.757   0.654 -0.1925 -0.3372 -0.0764
 1460TIP3    H125939   0.802   1.738   0.738  0.9274  1.6507  0.9741
 1460TIP3    H225940   0.777   1.805   0.605  0.1594  1.2105  0.8930
 1461TIP3   OH225941   5.646   4.020   1.452  0.6478 -0.6667  0.2566
 1461TIP3    H125942   5.568   4.051   1.498  0.0537 -0.3817 -0.9319
 1461TIP3    H225943   5.687   4.099   1.418  0.4663 -0.9700 -0.6813
 1462TIP3   OH225944   0.328   1.400   7.599  0.1949  0.4848 -0.6186
 1462TIP3    H125945   0.327   1.488   7.637  2.2218 -0.1830  1.1799
 1462TIP3    H225946   0.371   1.346   7.665 -0.6623 -1.8086 -1.8336
 1463TIP3   OH225947   3.827   3.628   2.002 -0.4523  0.7194 -0.2966
 1463TIP3    H125948   3.791   3.670   2.080  0.6877 -1.5407  1.5603
 1463TIP3    H225949   3.776   3.665   1.929 -4.3392  0.0426  1.8347
 1464TIP3   OH225950   2.415   4.085   8.501  0.2485  0.2580  0.2319
 1464TIP3    H125951   2.356   4.114   8.431 -0.0049  1.1976  0.8155
 1464TIP3    H225952   2.428   4.163   8.555  0.8358 -0.3283  0.9551
 1465TIP3   OH225953   0.358   4.761   0.154  0.6333 -0.1333 -0.8775
 1465TIP3    H125954   0.338   4.722   0.069 -0.9650 -1.4346  0.0205
 1465TIP3    H225955   0.305   4.710   0.216 -0.0674  2.2580  0.6205
 1466TIP3   OH225956   2.878   4.113   1.345  0.3536  0.6397 -0.2437
 1466TIP3    H125957   2.892   4.178   1.276  0.1646 -0.4196 -1.3085
 1466TIP3    H225958   2.890   4.029   1.302 -1.6269 -0.1212  0.5428
 1467TIP3   OH225959   2.713   2.904   1.896 -0.1423  0.5876  0.1491
 1467TIP3    H125960   2.781   2.943   1.841  0.3613 -0.1791  0.2229
 1467TIP3    H225961   2.755   2.829   1.937 -0.4960  1.1573  1.6317
 1468TIP3   OH225962   3.927   5.901   1.965 -0.2537  0.4850  0.3236
 1468TIP3    H125963   3.890   5.896   2.053 -0.7114 -1.7077  0.0704
 1468TIP3    H225964   3.854   5.930   1.910 -0.8259 -0.9322  0.2808
 1469TIP3   OH225965   4.527   1.658   0.978 -0.5105 -0.5538  0.2992
 1469TIP3    H125966   4.535   1.616   1.063  0.4839 -1.2706 -0.1390
 1469TIP3    H225967   4.617   1.667   0.947 -0.8653 -0.3585 -0.7037
 1470TIP3   OH225968   5.241   3.880   8.119 -0.1918  0.0297 -0.1309
 1470TIP3    H125969   5.252   3.811   8.054 -1.1075 -0.8795  0.6387
 1470TIP3    H225970   5.169   3.933   8.086 -0.3294 -0.1373 -0.0996
 1471TIP3   OH225971   3.398   2.177   7.706 -0.3963 -0.1791 -0.5199
 1471TIP3    H125972   3.489   2.145   7.701 -0.9567 -1.6816 -2.0671
 1471TIP3    H225973   3.389   2.236   7.632 -0.5773  0.3415 -0.0923
 1472TIP3   OH225974   4.485   3.773   7.210  0.5291 -0.1583  0.2362
 1472TIP3    H125975   4.452   3.861   7.230 -0.2441 -0.0308 -1.4294
 1472TIP3    H225976   4.493   3.771   7.115 -2.0446 -2.7064 -0.0795
 1473TIP3   OH225977   2.971   4.084   7.937  0.1528  0.1099  0.1760
 1473TIP3    H125978   2.887   4.110   7.898 -0.8595 -1.1783  1.3788
 1473TIP3    H225979   3.008   4.022   7.874 -0.3352 -0.1585  0.1436
 1474TIP3   OH225980   4.313   5.666   1.739  0.2988 -0.4509  0.0992
 1474TIP3    H125981   4.264   5.713   1.806 -1.0611  0.6834 -1.6238
 1474TIP3    H225982   4.397   5.645   1.781 -0.2029  0.9056  1.8780
 1475TIP3   OH225983   4.048   3.504   6.414  0.0138  0.3046  0.8861
 1475TIP3    H125984   4.104   3.434   6.379 -1.7427 -0.4258 -0.6760
 1475TIP3    H225985   3.973   3.458   6.452 -1.7231  1.2389 -1.1346
 1476TIP3   OH225986   5.986   3.277   7.418 -0.4855  0.1634 -1.2275
 1476TIP3    H125987   6.006   3.211   7.352  1.5461  0.0772 -0.6117
 1476TIP3    H225988   6.065   3.330   7.423 -0.7269  0.4116  0.8353
 1477TIP3   OH225989   5.194   0.820   8.316  0.5695 -0.3659  0.0061
 1477TIP3    H125990   5.157   0.892   8.266  0.0586 -0.0009  0.8798
 1477TIP3    H225991   5.175   0.842   8.408  0.3537 -1.6275  0.2926
 1478TIP3   OH225992   3.920   2.193   1.470 -0.2175 -0.4959 -0.6249
 1478TIP3    H125993   3.974   2.268   1.495 -1.0305 -0.8589  2.8262
 1478TIP3    H225994   3.979   2.118   1.476 -0.2927 -0.5253 -0.2029
 1479TIP3   OH225995   0.666   6.177   7.028  0.0314  0.3541  0.3143
 1479TIP3    H125996   0.747   6.130   7.049 -0.4594 -0.6851 -0.0574
 1479TIP3    H225997   0.682   6.216   6.943 -0.5842 -1.7028 -0.8287
 1480TIP3   OH225998   6.114   3.669   0.602 -0.2953 -0.1766  0.1675
 1480TIP3    H125999   6.206   3.693   0.612 -0.2593 -0.1317 -0.2524
 1480TIP3    H226000   6.092   3.623   0.683 -0.6346  2.0606  1.4392
 1481TIP3   OH226001   5.426   2.710   0.781 -0.5910  0.0865  0.5678
 1481TIP3    H126002   5.492   2.641   0.783  0.7294  1.3071  1.5010
 1481TIP3    H226003   5.352   2.673   0.828  0.6590 -0.2056  2.4295
 1482TIP3   OH226004   1.341   4.776   7.879  0.6259  0.1249 -0.0380
 1482TIP3    H126005   1.387   4.705   7.923 -0.7482 -1.3808 -0.9179
 1482TIP3    H226006   1.371   4.772   7.788 -2.8708 -2.6259 -1.3376
 1483TIP3   OH226007   6.713   4.647   7.668 -0.0008 -0.1444  0.1657
 1483TIP3    H126008   6.640   4.701   7.697  0.1931 -0.7508  1.8857
 1483TIP3    H226009   6.679   4.557   7.668  0.7236 -0.4372  1.0214
 1484TIP3   OH226010   0.349   4.830   7.338  0.3921 -0.0040  0.3306
 1484TIP3    H126011   0.259   4.818   7.309  0.6706  1.7467 -1.4657
 1484TIP3    H226012   0.402   4.800   7.265  1.1928  1.3061  0.3415
 1485TIP3   OH226013   4.104   1.333   7.519  0.1255  0.1866 -0.0410
 1485TIP3    H126014   4.020   1.381   7.520  0.3014  0.6338 -2.3084
 1485TIP3    H226015   4.114   1.304   7.429  1.6412 -1.3255  0.5690
 1486TIP3   OH226016   6.425   0.644   1.660 -0.9775  0.0221  0.5162
 1486TIP3    H126017   6.461   0.557   1.680  0.3811  0.5646  0.5422
 1486TIP3    H226018   6.479   0.676   1.588 -0.2008  1.6021  1.7391
 1487TIP3   OH226019   1.650   4.321   1.259 -0.3077 -0.2408  0.0392
 1487TIP3    H126020   1.659   4.342   1.166 -0.7189 -0.7108 -0.1096
 1487TIP3    H226021   1.644   4.406   1.303 -0.7209 -0.0315 -0.4230
 1488TIP3   OH226022   0.393   4.894   6.232 -0.5132  0.0824 -0.0622
 1488TIP3    H126023   0.425   4.956   6.298 -2.0764 -0.0464  0.8641
 1488TIP3    H226024   0.472   4.867   6.185  0.3145  2.1604  0.0220
 1489TIP3   OH226025   2.142   1.473   8.416 -0.3560  0.3727 -0.1599
 1489TIP3    H126026   2.228   1.508   8.392  0.1041 -1.0223 -0.6955
 1489TIP3    H226027   2.081   1.516   8.356  0.2533 -0.0892 -1.1406
 1490TIP3   OH226028   3.404   3.138   7.595  0.7196 -0.1977 -0.8816
 1490TIP3    H126029   3.399   3.232   7.581 -0.1064  0.1241  1.1427
 1490TIP3    H226030   3.377   3.099   7.512 -0.1941  1.3625 -1.3491
 1491TIP3   OH226031   3.622   0.213   8.169 -0.0957  0.0284 -0.3288
 1491TIP3    H126032   3.669   0.164   8.236 -1.6469 -0.8550  0.1711
 1491TIP3    H226033   3.684   0.279   8.139  0.8252  0.1084  1.5939
 1492TIP3   OH226034   2.133   2.590   1.416 -0.2634 -0.3276 -0.2762
 1492TIP3    H126035   2.066   2.583   1.348 -0.7333 -1.6909  0.2871
 1492TIP3    H226036   2.087   2.624   1.492 -0.3782 -1.4289  0.1628
 1493TIP3   OH226037   6.188   3.411   7.578 -0.2815 -0.2267  0.3167
 1493TIP3    H126038   6.230   3.494   7.600  1.5113 -0.9496 -0.2487
 1493TIP3    H226039   6.253   3.345   7.600 -2.1707 -1.6408  2.0365
 1494TIP3   OH226040   0.613   3.387   8.483 -0.6672 -0.7063 -0.7240
 1494TIP3    H126041   0.576   3.455   8.539  0.6516  0.0065 -0.6870
 1494TIP3    H226042   0.707   3.400   8.489 -0.4730 -1.0478 -2.6048
 1495TIP3   OH226043   2.067   6.718   1.500  0.4088 -0.1091 -0.5970
 1495TIP3    H126044   2.048   6.797   1.550  0.4644 -0.8443  0.6402
 1495TIP3    H226045   1.990   6.662   1.514 -0.0820  0.0818 -2.2666
 1496TIP3   OH226046   2.804   1.198   7.554 -0.5129 -0.3870 -0.2423
 1496TIP3    H126047   2.782   1.140   7.626  0.1874 -1.4472 -0.8514
 1496TIP3    H226048   2.824   1.282   7.595 -1.0805 -0.7042  0.6958
 1497TIP3   OH226049   6.111   0.575   7.718 -0.1078  0.4273  0.1266
 1497TIP3    H126050   6.055   0.643   7.754 -0.2135 -0.3020  1.4006
 1497TIP3    H226051   6.136   0.608   7.632 -2.3503  0.8707 -0.4322
 1498TIP3   OH226052   4.799   2.627   7.357 -0.2873 -0.5587 -0.3192
 1498TIP3    H126053   4.802   2.570   7.433  1.2787 -0.5792 -0.3522
 1498TIP3    H226054   4.811   2.715   7.392  1.3384 -0.6434 -0.5691
 1499TIP3   OH226055   4.104   2.206   0.975  0.3382  0.6023 -0.0302
 1499TIP3    H126056   4.140   2.219   1.062  1.6898  0.9242 -0.6219
 1499TIP3    H226057   4.132   2.118   0.950 -0.3369  0.3751 -0.0195
 1500TIP3   OH226058   4.150   1.072   1.563 -0.1389  0.8129 -0.9212
 1500TIP3    H126059   4.122   1.044   1.475  0.3184 -0.4398 -0.6959
 1500TIP3    H226060   4.219   1.135   1.548  0.3590  0.1465 -1.4733
 1501TIP3   OH226061   5.301   1.842   1.127 -0.2082  0.3359  0.1515
 1501TIP3    H126062   5.372   1.868   1.185  0.9085 -1.1271 -0.4972
 1501TIP3    H226063   5.271   1.758   1.162  0.0938 -0.2849 -1.0370
 1502TIP3   OH226064   1.228   3.066   0.817 -0.0037 -0.4927 -0.5808
 1502TIP3    H126065   1.147   3.085   0.770 -1.0851  0.5533  1.5716
 1502TIP3    H226066   1.239   2.971   0.808 -1.3070 -0.6153 -1.1409
 1503TIP3   OH226067   5.929   1.830   2.046 -0.3831 -0.0466  0.2031
 1503TIP3    H126068   5.850   1.794   2.086  0.8589 -0.2821  2.6007
 1503TIP3    H226069   5.989   1.844   2.119  1.5122  0.9077 -1.4397
 1504TIP3   OH226070   4.472   1.947   7.200  0.1337  0.0290 -0.4203
 1504TIP3    H126071   4.558   1.964   7.237  1.0364 -0.2714 -2.2559
 1504TIP3    H226072   4.448   1.861   7.234  0.7673 -0.0910 -0.2682
 1505TIP3   OH226073   4.650   4.220   2.189 -0.3114 -0.2195  0.2145
 1505TIP3    H126074   4.689   4.163   2.256  0.1235  0.8263  0.8935
 1505TIP3    H226075   4.571   4.255   2.231 -1.2000 -1.1889 -0.6165
 1506TIP3   OH226076   1.282   2.516   0.865  0.5466 -0.7226 -0.8310
 1506TIP3    H126077   1.350   2.450   0.848  1.0749  0.3460 -3.3626
 1506TIP3    H226078   1.232   2.519   0.784 -1.5836 -0.3427  0.4385
 1507TIP3   OH226079   3.598   0.468   1.551  0.0130  0.7166  0.4165
 1507TIP3    H126080   3.575   0.375   1.554  2.2256  0.0935 -0.1879
 1507TIP3    H226081   3.516   0.512   1.531 -0.5885 -1.3817 -2.3598
 1508TIP3   OH226082   3.401   5.429   1.795 -0.1797  0.3218  0.0203
 1508TIP3    H126083   3.409   5.517   1.760 -0.3575 -0.4596 -2.1491
 1508TIP3    H226084   3.315   5.399   1.766 -0.1285 -0.5776  0.7346
 1509TIP3   OH226085   3.588   0.134   1.729 -0.2135 -0.3993  0.5779
 1509TIP3    H126086   3.601   0.064   1.793 -1.3196 -0.4345  0.7827
 1509TIP3    H226087   3.634   0.209   1.766  0.6343 -0.8957  0.5577
 1510TIP3   OH226088   0.926   1.360   1.931  0.0616 -0.6672 -0.0618
 1510TIP3    H126089   0.869   1.301   1.980  1.7723 -0.3765  2.4591
 1510TIP3    H226090   1.009   1.358   1.978  1.0698  1.5899 -1.5470
 1511TIP3   OH226091   6.706   6.087   8.502  0.1312 -0.3732  0.3004
 1511TIP3    H126092   6.681   6.179   8.501  2.4892  0.3313 -0.6349
 1511TIP3    H226093   6.704   6.063   8.594  1.5876  1.2986  0.8328
 1512TIP3   OH226094   6.797   4.107   0.305  0.1945  0.3795  0.2875
 1512TIP3    H126095   6.871   4.167   0.304  1.5561 -1.1763  1.6694
 1512TIP3    H226096   6.756   4.120   0.391 -0.7812  0.7898 -0.2248
 1513TIP3   OH226097   4.962   3.321   1.551  0.3266 -0.4620 -0.1975
 1513TIP3    H126098   4.890   3.299   1.492  1.2123 -3.2101 -0.4237
 1513TIP3    H226099   5.001   3.400   1.514 -2.1895  0.7967 -0.3474
 1514TIP3   OH226100   5.533   6.225   1.599  0.2329 -0.0550  0.1159
 1514TIP3    H126101   5.563   6.305   1.643  0.1513  0.0680 -0.0502
 1514TIP3    H226102   5.506   6.255   1.512 -0.8773 -0.0767  0.4395
 1515TIP3   OH226103   6.296   6.149   7.577  0.2761  0.4597 -0.2342
 1515TIP3    H126104   6.283   6.083   7.645  0.0426 -0.7763 -1.4484
 1515TIP3    H226105   6.376   6.123   7.533  0.0189  0.8169 -0.9185
 1516TIP3   OH226106   4.943   4.770   1.476  0.0345  0.3164  0.1203
 1516TIP3    H126107   4.967   4.845   1.422 -3.2916  2.2813  1.0501
 1516TIP3    H226108   4.974   4.793   1.564  1.0125 -0.5198  0.0104
 1517TIP3   OH226109   1.236   4.135   1.585  0.5535  0.4304  0.0649
 1517TIP3    H126110   1.308   4.127   1.523  0.9399 -0.9491  0.6546
 1517TIP3    H226111   1.158   4.142   1.530  1.1849  4.0901 -0.6502
 1518TIP3   OH226112   1.237   0.772   7.141 -0.3831 -0.8104 -0.4858
 1518TIP3    H126113   1.292   0.826   7.084 -0.1287 -0.6306 -0.0786
 1518TIP3    H226114   1.175   0.730   7.082  0.3845 -1.2589 -0.9942
 1519TIP3   OH226115   6.828   0.665   7.650 -0.2344  0.4844 -0.1216
 1519TIP3    H126116   6.916   0.628   7.640 -0.3548 -0.6097  2.1338
 1519TIP3    H226117   6.837   0.730   7.720 -1.1371  0.6873 -0.1765
 1520TIP3   OH226118   2.196   1.108   7.280 -0.6073 -0.5242  0.4544
 1520TIP3    H126119   2.130   1.158   7.328 -0.0988  1.4059 -0.7349
 1520TIP3    H226120   2.195   1.146   7.192  0.5403 -1.9586 -0.2211
 1521TIP3   OH226121   4.770   2.087   8.331 -0.0466  0.4030  0.2083
 1521TIP3    H126122   4.865   2.074   8.332 -0.2303 -1.2668 -0.1657
 1521TIP3    H226123   4.757   2.168   8.282  1.1330 -0.0102 -0.8361
 1522TIP3   OH226124   3.993   2.316   7.426  0.0194  0.5324 -0.5159
 1522TIP3    H126125   3.985   2.274   7.341 -2.0295 -0.4173  0.0698
 1522TIP3    H226126   4.070   2.275   7.466  0.6197  0.5331 -1.6305
 1523TIP3   OH226127   5.506   3.241   7.276 -0.1562 -0.2499 -0.4623
 1523TIP3    H126128   5.540   3.179   7.212  1.2439 -1.0478  0.9940
 1523TIP3    H226129   5.540   3.326   7.248  0.7997 -0.6566 -0.5640
 1524TIP3   OH226130   1.242   1.188   7.230 -0.4481  0.1169  0.5377
 1524TIP3    H126131   1.244   1.177   7.135  0.1838  0.7299  0.4746
 1524TIP3    H226132   1.207   1.105   7.263 -1.4185  0.1888 -0.2699
 1525TIP3   OH226133   2.553   5.689   2.417 -0.3966 -0.1854 -0.0536
 1525TIP3    H126134   2.586   5.771   2.454  0.4793  0.3010 -1.7832
 1525TIP3    H226135   2.461   5.686   2.443 -0.0172  0.4647  1.4794
 1526TIP3   OH226136   1.915   3.137   0.245  0.5477 -0.0844  0.0644
 1526TIP3    H126137   1.988   3.078   0.263  1.0357  0.3943 -0.2860
 1526TIP3    H226138   1.907   3.190   0.324 -0.7752 -1.4861  0.9265
 1527TIP3   OH226139   1.898   0.851   0.094  0.5204 -0.1915 -0.5517
 1527TIP3    H126140   1.986   0.888   0.087  1.0379 -1.4924 -1.4226
 1527TIP3    H226141   1.886   0.803   0.011 -0.6738 -0.7043 -0.0985
 1528TIP3   OH226142   3.663   0.489   6.441  0.0145  0.3565  0.6527
 1528TIP3    H126143   3.656   0.548   6.516  1.7632 -1.0359  2.0240
 1528TIP3    H226144   3.685   0.404   6.480  0.6051 -0.4964 -1.4266
 1529TIP3   OH226145   3.681   3.304   7.930 -0.4485  0.2596  0.0192
 1529TIP3    H126146   3.693   3.398   7.947 -1.9314  0.8532 -1.7676
 1529TIP3    H226147   3.637   3.271   8.007 -0.3390  1.1423  0.4776
 1530TIP3   OH226148   5.491   6.482   0.822  0.4885 -0.0399  0.0928
 1530TIP3    H126149   5.517   6.548   0.759 -1.3608 -0.4682 -1.1887
 1530TIP3    H226150   5.438   6.529   0.887 -2.4238 -0.4339 -1.8258
 1531TIP3   OH226151   1.379   0.492   1.304 -0.2298  0.1079 -0.1099
 1531TIP3    H126152   1.299   0.492   1.356 -0.8898  0.8272 -1.0795
 1531TIP3    H226153   1.434   0.425   1.345  0.1344  1.9743  2.7332
 1532TIP3   OH226154   6.888   6.439   1.733 -0.0701 -0.3251 -0.3307
 1532TIP3    H126155   6.867   6.351   1.766  1.7843 -0.7562 -0.2061
 1532TIP3    H226156   6.967   6.427   1.682  0.0879  1.2561 -0.5030
 1533TIP3   OH226157   2.282   2.744   7.510 -0.1654  0.4123  0.1602
 1533TIP3    H126158   2.213   2.780   7.453  0.1278  0.1778 -0.3460
 1533TIP3    H226159   2.320   2.673   7.459  0.0398  0.1413  0.6913
 1534TIP3   OH226160   5.557   6.370   1.381  0.5599 -0.0016  0.4292
 1534TIP3    H126161   5.550   6.314   1.304  0.5440 -2.2957  2.0074
 1534TIP3    H226162   5.495   6.441   1.365 -0.3106 -1.0547 -1.1438
 1535TIP3   OH226163   3.806   6.737   7.713 -0.0021  1.0641 -0.2119
 1535TIP3    H126164   3.738   6.672   7.732  0.5838  0.1906 -1.0337
 1535TIP3    H226165   3.760   6.821   7.720 -1.1807  0.4940 -0.7892
 1536TIP3   OH226166   4.883   0.970   8.384 -0.0044  0.0426 -0.7333
 1536TIP3    H126167   4.977   0.986   8.390  0.0246  0.5766 -2.2249
 1536TIP3    H226168   4.855   0.956   8.475  1.4247  0.3094 -0.2283
 1537TIP3   OH226169   6.186   1.287   1.562  0.2108  0.3637 -0.6293
 1537TIP3    H126170   6.279   1.308   1.568  0.6033 -1.0011 -1.5408
 1537TIP3    H226171   6.181   1.194   1.582 -0.9626  0.4133 -0.6378
 1538TIP3   OH226172   2.157   6.058   0.215 -0.3677  0.0762  0.0573
 1538TIP3    H126173   2.103   6.076   0.292 -0.7540 -0.5474 -0.0654
 1538TIP3    H226174   2.111   5.988   0.168  0.1561  0.0576 -0.4434
 1539TIP3   OH226175   3.246   2.892   2.561  0.2222 -0.0272 -0.3554
 1539TIP3    H126176   3.240   2.884   2.657  2.1095  1.5188 -0.0347
 1539TIP3    H226177   3.174   2.951   2.538  1.0316  1.3339  0.4424
 1540TIP3   OH226178   1.083   1.428   8.311  0.2915 -0.0724  0.4081
 1540TIP3    H126179   1.106   1.371   8.238 -0.5196  1.1294 -0.8474
 1540TIP3    H226180   1.127   1.511   8.291  0.9165 -0.0223  1.8529
 1541TIP3   OH226181   6.504   1.561   7.652 -0.1918  0.2350  0.0787
 1541TIP3    H126182   6.431   1.507   7.681  0.1827 -0.2423  0.1450
 1541TIP3    H226183   6.541   1.513   7.578 -0.2601  0.7309 -0.2795
 1542TIP3   OH226184   1.295   0.929   1.841  0.4496 -0.5627 -0.0195
 1542TIP3    H126185   1.302   0.843   1.800 -1.3155 -1.0663  0.6433
 1542TIP3    H226186   1.290   0.911   1.935  0.5615  0.3085  0.1659
 1543TIP3   OH226187   4.997   1.357   1.400 -0.4212 -0.2933  0.4421
 1543TIP3    H126188   5.056   1.432   1.386 -1.9672  0.8271 -0.3522
 1543TIP3    H226189   4.922   1.375   1.344  0.3351 -3.8787 -2.0873
 1544TIP3   OH226190   1.807   0.748   8.400 -0.4855  0.1814  0.4542
 1544TIP3    H126191   1.787   0.788   8.315 -0.6712  1.5116  1.1075
 1544TIP3    H226192   1.762   0.664   8.397 -1.0753  0.5099 -0.4947
 1545TIP3   OH226193   0.329   2.221   6.887 -0.1374  0.5082  0.0662
 1545TIP3    H126194   0.234   2.209   6.882 -0.0757 -0.3370  0.6227
 1545TIP3    H226195   0.341   2.290   6.952 -0.3844  0.9764 -0.3789
 1546TIP3   OH226196   1.354   2.433   7.529 -0.4074  0.5538 -0.7715
 1546TIP3    H126197   1.361   2.516   7.482 -0.8389  0.9521 -0.1376
 1546TIP3    H226198   1.382   2.452   7.618 -1.1353  0.1828 -0.4508
 1547TIP3   OH226199   1.439   2.450   7.780 -0.0343 -0.3077 -0.0242
 1547TIP3    H126200   1.527   2.486   7.773  0.9330 -2.5959 -0.3905
 1547TIP3    H226201   1.414   2.464   7.871  0.4781  0.7707 -0.0313
 1548TIP3   OH226202   3.927   4.087   7.579 -0.5902 -0.1676  0.7538
 1548TIP3    H126203   3.969   4.006   7.548  0.6664  0.5569  0.4914
 1548TIP3    H226204   3.873   4.115   7.504 -0.7807 -0.5796  0.7301
 1549TIP3   OH226205   4.398   1.436   0.919  0.0669 -0.3130 -0.3904
 1549TIP3    H126206   4.420   1.524   0.948  0.4765 -0.2701 -0.8230
 1549TIP3    H226207   4.308   1.442   0.889  0.5261  0.2896 -1.7102
 1550TIP3   OH226208   4.567   6.573   1.437  0.1480 -0.2150 -0.4976
 1550TIP3    H126209   4.497   6.598   1.378 -0.7571 -2.1444 -0.3312
 1550TIP3    H226210   4.581   6.480   1.420  1.6007 -0.2357  0.5652
 1551TIP3   OH226211   5.014   5.114   1.738  0.1292  0.1461  0.2396
 1551TIP3    H126212   5.021   5.024   1.768 -0.1425  0.2094  0.4975
 1551TIP3    H226213   4.932   5.146   1.776  0.2382  0.5088  0.1748
 1552TIP3   OH226214   0.946   2.732   2.705 -0.0822 -0.0074  0.0778
 1552TIP3    H126215   0.906   2.778   2.632  3.7280 -0.6589 -2.7156
 1552TIP3    H226216   0.985   2.801   2.759 -0.6037  0.3429  0.0132
 1553TIP3   OH226217   3.685   1.205   0.475 -0.2570 -0.1070  0.5186
 1553TIP3    H126218   3.686   1.199   0.380  0.5544  0.2317  0.4999
 1553TIP3    H226219   3.689   1.299   0.494  2.2455 -0.2124  0.8727
 1554TIP3   OH226220   3.865   6.069   6.524  0.2891  0.6302  0.0402
 1554TIP3    H126221   3.836   6.043   6.436 -0.4694  0.1048  0.4286
 1554TIP3    H226222   3.824   6.154   6.539  0.1657  0.5774  0.0028
 1555TIP3   OH226223   2.859   4.271   7.040  0.2475  0.0865  0.1897
 1555TIP3    H126224   2.794   4.258   6.971  2.3292 -4.0259 -1.3171
 1555TIP3    H226225   2.812   4.249   7.121 -1.3567  1.7303 -0.2292
 1556TIP3   OH226226   1.274   3.765   0.467 -0.5857  0.1957  0.3779
 1556TIP3    H126227   1.320   3.817   0.533 -2.7590  1.1925  1.2135
 1556TIP3    H226228   1.261   3.826   0.394  0.6861 -0.5245 -0.4778
 1557TIP3   OH226229   3.810   4.566   1.886  0.1413  0.7443 -0.0785
 1557TIP3    H126230   3.856   4.649   1.889  0.0363  0.8043 -0.1081
 1557TIP3    H226231   3.808   4.543   1.793 -0.6769  1.1892 -0.1844
 1558TIP3   OH226232   1.457   3.224   6.364  0.9736 -0.0737  0.1183
 1558TIP3    H126233   1.449   3.129   6.361 -0.1942 -0.2121  3.1848
 1558TIP3    H226234   1.385   3.251   6.422  2.3313  2.4744  0.7434
 1559TIP3   OH226235   2.749   2.927   7.476 -0.0028  0.4502  0.4532
 1559TIP3    H126236   2.675   2.952   7.531 -0.7895 -2.4088  0.8851
 1559TIP3    H226237   2.710   2.884   7.400  1.1440 -1.3798  0.8231
 1560TIP3   OH226238   4.930   4.040   8.215  0.1677  0.1390  0.9111
 1560TIP3    H126239   4.857   4.101   8.207  0.9841  0.8880 -1.8171
 1560TIP3    H226240   4.952   4.041   8.308 -0.8132  2.8698  1.2058
 1561TIP3   OH226241   1.311   0.988   8.246  0.2943 -0.4150  0.7978
 1561TIP3    H126242   1.330   0.954   8.159 -0.3712 -0.6142  0.7268
 1561TIP3    H226243   1.351   1.075   8.247  0.0202 -0.2782  0.1746
 1562TIP3   OH226244   5.873   1.801   0.457  0.1931 -0.4597  0.4321
 1562TIP3    H126245   5.820   1.866   0.411  2.3072  0.4181 -0.8832
 1562TIP3    H226246   5.827   1.788   0.541 -3.0726 -1.1369 -1.2645
 1563TIP3   OH226247   3.148   2.626   0.999  0.5691  0.0231 -0.2779
 1563TIP3    H126248   3.090   2.614   0.924  0.2258 -0.0622 -0.0005
 1563TIP3    H226249   3.235   2.603   0.966  0.6569  1.3348 -1.0532
 1564TIP3   OH226250   5.742   5.750   1.820  0.0756 -0.1581 -0.0845
 1564TIP3    H126251   5.747   5.832   1.772 -0.6548  1.1007  1.8627
 1564TIP3    H226252   5.658   5.753   1.866 -0.0865 -2.1178 -0.1444
 1565TIP3   OH226253   0.410   2.811   6.828 -0.1588  0.2858 -0.0429
 1565TIP3    H126254   0.486   2.762   6.859 -0.7005 -0.4759  0.1050
 1565TIP3    H226255   0.379   2.763   6.752 -0.7737  0.3173  0.1777
 1566TIP3   OH226256   2.020   6.110   0.831 -0.4534 -0.0173 -0.5726
 1566TIP3    H126257   2.016   6.172   0.758  0.1127  0.7140  0.0064
 1566TIP3    H226258   1.991   6.027   0.793 -0.5719  0.4447 -1.5243
 1567TIP3   OH226259   6.238   3.055   0.623  0.5441  0.5631 -0.3544
 1567TIP3    H126260   6.250   3.146   0.597  2.5807  0.1777 -0.9251
 1567TIP3    H226261   6.298   3.006   0.567  0.8815 -0.9406  1.2324
 1568TIP3   OH226262   0.718   5.258   8.505 -0.1245 -0.0286 -0.5017
 1568TIP3    H126263   0.625   5.275   8.498 -0.0665  0.1297 -0.8925
 1568TIP3    H226264   0.759   5.316   8.441  0.2473 -0.0508 -0.2909
 1569TIP3   OH226265   5.430   2.938   0.281 -0.0367 -0.5540  0.4528
 1569TIP3    H126266   5.421   2.964   0.189 -0.6509  2.0001  1.1563
 1569TIP3    H226267   5.348   2.965   0.322  1.3059  1.0901  2.2820
 1570TIP3   OH226268   4.274   1.751   1.644  0.2887 -0.6793  0.1917
 1570TIP3    H126269   4.249   1.765   1.553  0.0950 -0.9699  0.1967
 1570TIP3    H226270   4.358   1.797   1.654 -0.6770  1.1095  0.4237
 1571TIP3   OH226271   3.430   5.135   0.728  0.3416  0.3573 -0.0870
 1571TIP3    H126272   3.372   5.137   0.653  1.1181  1.2326 -0.6939
 1571TIP3    H226273   3.463   5.045   0.732 -0.9354 -0.1131  0.1974
 1572TIP3   OH226274   2.972   5.948   1.250 -0.3623  0.0899 -0.1472
 1572TIP3    H126275   2.916   6.022   1.226 -1.5677 -0.4637  0.8423
 1572TIP3    H226276   2.982   5.899   1.168  0.3481  1.2579 -0.7865
 1573TIP3   OH226277   0.291   3.463   2.157 -0.0760  0.1526  0.1799
 1573TIP3    H126278   0.208   3.426   2.128  0.2298 -0.3107 -0.1089
 1573TIP3    H226279   0.269   3.511   2.237 -0.5640 -0.2339  0.2819
 1574TIP3   OH226280   3.979   3.603   6.670  0.0404  0.1318 -0.2072
 1574TIP3    H126281   3.916   3.629   6.602  0.1271  0.4254 -0.1798
 1574TIP3    H226282   3.953   3.655   6.747  0.8715  0.9483 -0.4617
 1575TIP3   OH226283   2.454   2.325   6.567 -0.7019  0.0467 -0.4281
 1575TIP3    H126284   2.455   2.373   6.484  1.4679  1.3241  0.2646
 1575TIP3    H226285   2.483   2.237   6.544  0.0203  0.4280 -1.0151
 1576TIP3   OH226286   5.069   5.613   8.206 -0.1669  0.0027 -0.6307
 1576TIP3    H126287   5.015   5.567   8.270  2.2034 -1.1792  0.6830
 1576TIP3    H226288   5.085   5.699   8.245  1.3686 -0.7567  0.5418
 1577TIP3   OH226289   4.012   3.603   0.037  0.2111  0.5441 -0.6607
 1577TIP3    H126290   4.072   3.665   0.077 -0.7286  1.0648 -0.0064
 1577TIP3    H226291   4.051   3.517   0.054  1.4035  0.9285 -1.3699
 1578TIP3   OH226292   4.899   2.770   1.024  0.4160 -0.4629  0.4611
 1578TIP3    H126293   4.966   2.728   1.078  1.3752 -0.5631 -0.7614
 1578TIP3    H226294   4.822   2.777   1.081  1.8047  0.7272  2.3077
 1579TIP3   OH226295   2.450   6.522   1.596  0.0193 -0.2255 -0.5639
 1579TIP3    H126296   2.437   6.615   1.611 -0.7959 -0.2274 -1.1870
 1579TIP3    H226297   2.487   6.489   1.678  1.8989  0.9268 -0.9077
 1580TIP3   OH226298   4.736   3.909   7.151 -0.2016 -0.1745 -0.0782
 1580TIP3    H126299   4.750   3.932   7.059 -0.9705 -0.0508 -0.1739
 1580TIP3    H226300   4.671   3.973   7.182  2.4756  2.0444  1.5246
 1581TIP3   OH226301   0.257   5.232   1.605  0.2115  0.2672 -0.5377
 1581TIP3    H126302   0.264   5.326   1.592 -1.0581  0.3239 -1.0234
 1581TIP3    H226303   0.263   5.220   1.700 -0.2183  0.9138 -0.4200
 1582TIP3   OH226304   2.593   3.324   8.086  0.1308  0.4878  0.3124
 1582TIP3    H126305   2.578   3.268   8.162  0.3787  1.0114  0.7552
 1582TIP3    H226306   2.541   3.403   8.104 -1.5647 -0.2481 -1.0758
 1583TIP3   OH226307   6.695   1.764   7.486 -0.1097 -0.1751 -0.1014
 1583TIP3    H126308   6.683   1.713   7.406 -0.9088  0.7012 -0.5647
 1583TIP3    H226309   6.782   1.802   7.477 -0.4232  0.4103 -0.8738
 1584TIP3   OH226310   1.879   3.877   0.835  0.1536 -0.7907 -0.0445
 1584TIP3    H126311   1.808   3.892   0.773  0.0215 -1.6257 -0.1089
 1584TIP3    H226312   1.953   3.849   0.780  0.9659  1.3407 -0.1233
 1585TIP3   OH226313   6.119   4.184   8.483 -0.2697 -0.0771 -0.6488
 1585TIP3    H126314   6.177   4.147   8.550 -0.3127  0.7559 -0.1361
 1585TIP3    H226315   6.112   4.116   8.416 -0.7294 -1.1811  0.4893
 1586TIP3   OH226316   2.991   2.603   7.951 -0.5131 -0.0708 -0.4380
 1586TIP3    H126317   2.997   2.574   7.861  2.5858  0.3564 -0.4642
 1586TIP3    H226318   3.042   2.684   7.955 -1.5193  0.5665  1.4929
 1587TIP3   OH226319   4.492   3.249   8.511 -0.6306 -0.1199  0.4828
 1587TIP3    H126320   4.541   3.288   8.583 -0.2817  1.9955 -0.8421
 1587TIP3    H226321   4.551   3.184   8.473  0.2839  0.8113  0.3034
 1588TIP3   OH226322   0.405   6.796   7.109  0.0788 -0.1002 -0.2624
 1588TIP3    H126323   0.395   6.809   7.014  1.4492  2.0558 -0.1644
 1588TIP3    H226324   0.325   6.749   7.134 -0.4573 -0.4842 -2.4239
 1589TIP3   OH226325   5.950   5.751   8.432  0.5631 -0.4798  0.6032
 1589TIP3    H126326   5.860   5.780   8.417 -0.0151 -0.4401  3.4820
 1589TIP3    H226327   5.947   5.657   8.415  0.2059 -0.3289 -0.2019
 1590TIP3   OH226328   6.745   4.589   0.989 -0.0854 -0.2572  0.4425
 1590TIP3    H126329   6.820   4.615   1.042  0.5168 -0.7007 -0.1787
 1590TIP3    H226330   6.738   4.657   0.922  0.5791 -0.8858 -0.2869
 1591TIP3   OH226331   4.713   3.259   0.751 -0.1233  0.2487 -0.1371
 1591TIP3    H126332   4.727   3.317   0.677 -0.2838 -0.7969 -1.0159
 1591TIP3    H226333   4.697   3.173   0.712  0.3995 -0.4570  1.1237
 1592TIP3   OH226334   4.981   0.137   7.095 -0.0274 -0.0703 -0.0499
 1592TIP3    H126335   5.023   0.096   7.019  2.3166  0.4073  0.8836
 1592TIP3    H226336   4.961   0.226   7.067  0.0830 -0.1419 -0.3562
 1593TIP3   OH226337   5.516   6.070   1.833  0.1004 -0.6003 -0.1372
 1593TIP3    H126338   5.533   6.115   1.750 -0.3951  0.3048  0.2425
 1593TIP3    H226339   5.508   6.141   1.897 -2.3032 -1.1075  0.2071
 1594TIP3   OH226340   6.051   0.617   1.602  0.4849  0.5140  0.1416
 1594TIP3    H126341   6.016   0.544   1.652  0.0089  0.0304 -0.8863
 1594TIP3    H226342   6.124   0.649   1.655 -0.0458  0.0587  1.1714
 1595TIP3   OH226343   1.583   1.106   1.297  0.0539 -0.2332 -1.2290
 1595TIP3    H126344   1.650   1.168   1.326 -0.4840  0.8558 -2.2007
 1595TIP3    H226345   1.622   1.020   1.310  1.0745  0.3258 -0.4248
 1596TIP3   OH226346   5.832   1.669   7.711  0.2938 -0.1877 -0.6333
 1596TIP3    H126347   5.836   1.754   7.754  0.4919  0.0524 -1.1223
 1596TIP3    H226348   5.920   1.633   7.721  0.3800 -0.0697 -0.9603
 1597TIP3   OH226349   2.287   5.667   7.969  0.0602 -0.0427  0.5180
 1597TIP3    H126350   2.253   5.607   7.903 -1.7920  0.2527  1.1399
 1597TIP3    H226351   2.309   5.610   8.043 -2.3031  0.0207  1.3503
 1598TIP3   OH226352   1.277   1.217   1.819  0.1388 -0.2052 -0.1310
 1598TIP3    H126353   1.265   1.256   1.906  0.8239  1.3704 -0.7035
 1598TIP3    H226354   1.305   1.127   1.837  0.7029  0.2193  1.2933
 1599TIP3   OH226355   4.541   2.452   7.737  0.3318 -0.4296 -0.5376
 1599TIP3    H126356   4.506   2.540   7.725  0.8830 -0.3594 -1.8245
 1599TIP3    H226357   4.474   2.406   7.788  0.0195  0.7067  0.1162
 1600TIP3   OH226358   6.606   1.485   0.002 -0.7102  0.4329 -0.1653
 1600TIP3    H126359   6.692   1.474   0.042 -1.1550  1.3898  1.1458
 1600TIP3    H226360   6.623   1.486  -0.092  1.0572  2.9667  0.0781
 1601TIP3   OH226361   4.631   5.173   6.192  0.1856  0.4979 -0.4803
 1601TIP3    H126362   4.669   5.178   6.280 -1.6911 -1.4300  0.5139
 1601TIP3    H226363   4.626   5.080   6.173 -0.4950  0.8472 -2.1736
 1602TIP3   OH226364   2.043   5.339   0.870  0.1393 -0.7195  0.0102
 1602TIP3    H126365   2.130   5.332   0.833 -0.1007  2.1708 -1.4086
 1602TIP3    H226366   2.056   5.382   0.955  0.0657  2.3159 -1.3665
 1603TIP3   OH226367   3.161   4.699   6.843  0.3310 -0.1256 -0.0669
 1603TIP3    H126368   3.244   4.724   6.803 -0.0496  0.8038 -0.3011
 1603TIP3    H226369   3.161   4.603   6.842  1.4176 -0.1318 -0.0135
 1604TIP3   OH226370   1.246   1.944   6.790 -0.3137  0.0192 -0.3063
 1604TIP3    H126371   1.169   1.921   6.739  0.4083  0.8822 -1.8490
 1604TIP3    H226372   1.312   1.878   6.766 -0.8847 -1.4793  1.9510
 1605TIP3   OH226373   1.644   5.491   1.905  0.3286 -0.1966 -0.4349
 1605TIP3    H126374   1.563   5.462   1.948 -0.5152 -1.1167 -2.5181
 1605TIP3    H226375   1.711   5.431   1.939  0.0450  0.1773  0.8401
 1606TIP3   OH226376   2.887   6.424   0.753  0.2809 -0.4396  0.0091
 1606TIP3    H126377   2.795   6.418   0.778  0.4764  0.3847  1.0046
 1606TIP3    H226378   2.911   6.515   0.772  1.4954 -0.8364  0.4858
 1607TIP3   OH226379   0.219   5.674   6.821 -0.1372  0.2427 -0.7953
 1607TIP3    H126380   0.215   5.611   6.748  2.8629 -0.1921 -0.7129
 1607TIP3    H226381   0.233   5.759   6.778 -1.1506  0.4215 -0.7931
 1608TIP3   OH226382   5.733   2.861   1.125 -0.2245  0.1009  0.3470
 1608TIP3    H126383   5.827   2.854   1.144  0.1308  0.5214 -1.1647
 1608TIP3    H226384   5.711   2.777   1.085 -0.5740 -0.1058  0.9593
 1609TIP3   OH226385   4.326   1.036   6.995  0.0199 -0.4358 -0.0684
 1609TIP3    H126386   4.359   1.067   6.911 -1.6065  2.6879  0.3039
 1609TIP3    H226387   4.301   1.115   7.042 -2.3456 -2.2424  2.0156
 1610TIP3   OH226388   1.020   3.863   8.346 -0.0781  0.3711  0.5732
 1610TIP3    H126389   1.078   3.889   8.274 -0.4946  1.6104  0.6577
 1610TIP3    H226390   0.960   3.937   8.356 -1.2443 -0.5878  0.9436
 1611TIP3   OH226391   2.125   6.686   7.919 -0.0542 -0.5696 -0.4132
 1611TIP3    H126392   2.064   6.743   7.966  0.9214  1.8842 -1.9614
 1611TIP3    H226393   2.069   6.637   7.858 -0.7464 -0.1481 -0.1295
 1612TIP3   OH226394   1.007   1.883   8.177  0.1646  0.1182 -0.0674
 1612TIP3    H126395   0.975   1.802   8.218 -0.1630  0.4294  0.2973
 1612TIP3    H226396   0.928   1.932   8.156  0.3795  0.5276  0.0820
 1613TIP3   OH226397   3.040   2.887   0.626  0.1775 -0.5870 -0.0722
 1613TIP3    H126398   3.034   2.904   0.720  0.9952 -0.7850  0.0239
 1613TIP3    H226399   3.126   2.846   0.614  0.0185 -0.7097 -0.8856
 1614TIP3   OH226400   0.848   0.194   7.103  0.1988 -0.2504  0.6219
 1614TIP3    H126401   0.758   0.171   7.126 -0.5227  1.8778  0.2158
 1614TIP3    H226402   0.889   0.215   7.187 -0.6308  1.6647  0.6068
 1615TIP3   OH226403   4.751   3.972   1.090 -0.1970  0.1059 -0.3181
 1615TIP3    H126404   4.726   3.885   1.058  0.2881 -0.2895  0.3567
 1615TIP3    H226405   4.784   4.017   1.012  0.0581 -0.5027 -0.5730
 1616TIP3   OH226406   6.313   4.730   7.424 -0.1772  0.0729  0.2056
 1616TIP3    H126407   6.407   4.730   7.409  0.3495 -2.2817  2.9013
 1616TIP3    H226408   6.302   4.771   7.510 -1.5181 -0.5560  0.3602
 1617TIP3   OH226409   3.587   2.940   8.076  0.7720  0.1074 -0.3256
 1617TIP3    H126410   3.498   2.940   8.109  0.7413  1.1966 -0.3878
 1617TIP3    H226411   3.623   3.025   8.099  2.0597 -0.5794  0.3643
 1618TIP3   OH226412   5.782   0.612   0.672 -0.1470 -0.3315  0.2035
 1618TIP3    H126413   5.692   0.626   0.703  0.6283  1.8939  1.6606
 1618TIP3    H226414   5.833   0.602   0.752  1.5235  2.9352 -0.3002
 1619TIP3   OH226415   1.912   4.808   0.913 -0.4269  0.1188 -0.0234
 1619TIP3    H126416   1.909   4.730   0.858  1.0257  0.7099 -1.0362
 1619TIP3    H226417   1.894   4.777   1.001 -1.9894 -0.9989 -0.6936
 1620TIP3   OH226418   6.646   4.519   1.517  0.1458  0.0620 -0.7844
 1620TIP3    H126419   6.557   4.542   1.544 -0.1401 -1.3762 -0.4213
 1620TIP3    H226420   6.647   4.534   1.423 -0.8127 -0.8552 -0.9657
 1621TIP3   OH226421   4.207   6.745   8.145 -0.1953 -0.4545  0.4264
 1621TIP3    H126422   4.151   6.697   8.083  1.2829 -1.7349  0.0203
 1621TIP3    H226423   4.166   6.732   8.230 -0.5558 -1.3357  0.1296
 1622TIP3   OH226424   4.410   3.395   1.088  0.0546 -0.7393 -0.0670
 1622TIP3    H126425   4.500   3.381   1.056 -0.1022 -0.7026 -0.5312
 1622TIP3    H226426   4.355   3.355   1.021 -0.3377  0.5670 -0.5664
 1623TIP3   OH226427   4.784   5.407   7.780 -0.5738  0.1603  0.2083
 1623TIP3    H126428   4.697   5.381   7.812 -1.5055  2.0288 -0.5954
 1623TIP3    H226429   4.765   5.461   7.703  1.2942  1.0087  0.3009
 1624TIP3   OH226430   0.738   5.721   1.145  0.0617 -0.4353  0.1935
 1624TIP3    H126431   0.652   5.753   1.173 -0.6087 -2.0064  0.0508
 1624TIP3    H226432   0.741   5.631   1.179  1.1841 -0.7713 -0.7739
 1625TIP3   OH226433   5.263   4.445   8.134  0.0349  0.1147 -0.0524
 1625TIP3    H126434   5.265   4.457   8.039  2.1041 -0.5314 -0.1461
 1625TIP3    H226435   5.173   4.421   8.153 -0.0089 -1.7482 -2.1508
 1626TIP3   OH226436   3.354   1.316   0.876 -0.6986  0.2012 -0.0434
 1626TIP3    H126437   3.352   1.226   0.844  0.2353 -1.0048  2.9237
 1626TIP3    H226438   3.274   1.324   0.929 -0.8333  1.1748 -0.3826
 1627TIP3   OH226439   5.887   0.714   1.863  0.1707 -0.0363  0.1505
 1627TIP3    H126440   5.886   0.764   1.945  0.3331  1.4953 -0.7490
 1627TIP3    H226441   5.970   0.737   1.821 -0.1827 -0.3207 -0.7381
 1628TIP3   OH226442   6.771   6.653   7.086 -0.0746  0.0011  0.2319
 1628TIP3    H126443   6.748   6.733   7.131  1.3451  1.2148 -1.0725
 1628TIP3    H226444   6.743   6.666   6.996 -0.2349 -1.1600  0.0922
 1629TIP3   OH226445   5.211   3.546   2.623  0.2666  0.1592 -0.2752
 1629TIP3    H126446   5.214   3.461   2.666  0.1390  0.7665  0.9819
 1629TIP3    H226447   5.127   3.584   2.649 -0.1815  0.2367 -1.7191
 1630TIP3   OH226448   2.348   0.478   1.082 -0.0360 -0.5642  0.1986
 1630TIP3    H126449   2.324   0.426   1.159 -0.0182  1.2930  1.5123
 1630TIP3    H226450   2.316   0.426   1.008 -0.1996 -2.3323  1.4419
 1631TIP3   OH226451   3.418   2.595   0.649 -0.1917 -0.4901  0.1663
 1631TIP3    H126452   3.327   2.567   0.660 -0.0086 -1.2821 -0.2638
 1631TIP3    H226453   3.461   2.521   0.607  0.4882  0.1720 -0.3268
 1632TIP3   OH226454   5.484   0.461   0.579 -0.8942  0.1926 -0.2767
 1632TIP3    H126455   5.528   0.544   0.595 -1.7917  1.0479 -2.0598
 1632TIP3    H226456   5.556   0.398   0.565 -0.2217  1.0264 -0.6499
 1633TIP3   OH226457   2.425   1.202   0.071  0.5065 -0.3162 -0.5479
 1633TIP3    H126458   2.412   1.107   0.071 -1.2596 -0.1696  1.2801
 1633TIP3    H226459   2.432   1.225   0.164 -1.5896  1.5629 -0.7533
 1634TIP3   OH226460   5.807   6.123   1.547  0.1341  0.4721 -0.1306
 1634TIP3    H126461   5.798   6.119   1.643 -0.8184  0.5014 -0.2038
 1634TIP3    H226462   5.790   6.215   1.526 -1.0941  0.2010 -0.4364
 1635TIP3   OH226463   0.493   1.214   8.144 -0.8699  0.2180  0.4379
 1635TIP3    H126464   0.560   1.244   8.206 -0.9285  1.9671 -0.3034
 1635TIP3    H226465   0.427   1.283   8.144 -1.8615 -0.6943 -0.1081
 1636TIP3   OH226466   1.636   5.257   7.391  0.3988  0.3880 -0.1650
 1636TIP3    H126467   1.577   5.186   7.418 -0.9444  1.0523 -1.2678
 1636TIP3    H226468   1.641   5.250   7.296  0.2931  1.7267 -0.2867
 1637TIP3   OH226469   2.010   2.439   0.293 -0.5437  0.1988  0.1623
 1637TIP3    H126470   2.074   2.495   0.338  2.1854 -1.4905 -1.3347
 1637TIP3    H226471   2.018   2.462   0.200 -0.7355 -1.3417 -0.2696
 1638TIP3   OH226472   2.259   6.271   0.469  0.6392  0.1780 -0.3180
 1638TIP3    H126473   2.287   6.188   0.508  0.6569  0.5964  0.5829
 1638TIP3    H226474   2.335   6.328   0.480 -0.1095  0.9653  1.0553
 1639TIP3   OH226475   4.235   5.210   7.413  0.6157  0.2654  0.0351
 1639TIP3    H126476   4.237   5.305   7.422  1.1047  0.1839  0.8379
 1639TIP3    H226477   4.278   5.193   7.329  1.9344  0.6669  0.6121
 1640TIP3   OH226478   2.884   1.293   1.918 -0.3715  0.0642 -0.5533
 1640TIP3    H126479   2.919   1.273   1.831 -1.5613  0.6155 -1.1857
 1640TIP3    H226480   2.791   1.312   1.903 -0.4005  1.0774  0.7032
 1641TIP3   OH226481   4.907   6.640   7.451 -0.1812 -0.1462  0.5435
 1641TIP3    H126482   4.939   6.587   7.378 -0.7169 -1.7401  1.4269
 1641TIP3    H226483   4.916   6.731   7.420  2.1205 -0.6317 -0.4802
 1642TIP3   OH226484   6.846   3.406   8.392  0.0658  0.0316  0.4973
 1642TIP3    H126485   6.824   3.424   8.301 -0.1109  2.4081  0.9383
 1642TIP3    H226486   6.940   3.389   8.390  0.0997  0.2414 -0.1260
 1643TIP3   OH226487   0.115   3.042   0.783 -0.0578  0.4341 -0.4532
 1643TIP3    H126488   0.051   3.111   0.769 -0.5188 -0.3292 -2.3819
 1643TIP3    H226489   0.197   3.089   0.803 -1.0639  1.4097  1.7130
 1644TIP3   OH226490   6.241   3.780   1.601 -0.1915  0.2313  0.9738
 1644TIP3    H126491   6.314   3.768   1.662  0.1336 -2.1468  0.2028
 1644TIP3    H226492   6.280   3.772   1.514 -1.1077  0.7343  0.4935
 1645TIP3   OH226493   3.723   1.356   1.623  0.2074 -0.1851 -0.5809
 1645TIP3    H126494   3.805   1.324   1.662  1.9212  3.4491 -0.8022
 1645TIP3    H226495   3.740   1.353   1.528 -0.5769 -0.8313 -0.7156
 1646TIP3   OH226496   1.056   3.152   0.607  0.1293  0.9546 -0.2903
 1646TIP3    H126497   1.134   3.192   0.569  1.3347  2.1338  3.0518
 1646TIP3    H226498   0.984   3.178   0.548  1.6993  3.1831 -1.3508
 1647TIP3   OH226499   5.647   3.109   7.084 -0.5093  0.3812  0.1226
 1647TIP3    H126500   5.721   3.049   7.096  0.3313  1.1457 -1.0372
 1647TIP3    H226501   5.635   3.114   6.989 -0.6663  1.9198  0.1971
 1648TIP3   OH226502   3.646   2.472   8.021 -0.0276  0.7519  0.2994
 1648TIP3    H126503   3.703   2.516   8.085 -1.2675  2.6893  0.1215
 1648TIP3    H226504   3.639   2.533   7.949 -1.6406  0.1649 -0.0701
 1649TIP3   OH226505   5.929   4.716   7.928  0.2950  0.1216 -0.2463
 1649TIP3    H126506   5.984   4.644   7.897  1.3264  1.0601 -0.6606
 1649TIP3    H226507   5.856   4.673   7.974  1.3337 -1.1530  0.2567
 1650TIP3   OH226508   0.960   5.337   7.304 -0.4403 -0.1610 -0.3262
 1650TIP3    H126509   0.873   5.328   7.343  0.8493 -1.4015  2.5975
 1650TIP3    H226510   0.979   5.251   7.266  0.9328 -1.2850  2.5953
 1651TIP3   OH226511   6.586   4.167   6.885  0.2041  0.2519  0.3619
 1651TIP3    H126512   6.556   4.253   6.854  0.7911  0.1117 -0.6486
 1651TIP3    H226513   6.529   4.105   6.840 -0.5805  0.1061  1.5106
 1652TIP3   OH226514   6.300   6.380   0.566 -0.1640 -0.2334  0.0386
 1652TIP3    H126515   6.253   6.303   0.535  0.7383  0.0035 -2.0781
 1652TIP3    H226516   6.264   6.397   0.653 -3.7970 -0.2136 -1.2984
 1653TIP3   OH226517   6.347   2.229   8.056 -0.3755 -0.2037  0.5351
 1653TIP3    H126518   6.429   2.184   8.039 -0.3051  0.0755  0.1232
 1653TIP3    H226519   6.335   2.222   8.151 -0.0823 -0.5927  0.5452
 1654TIP3   OH226520   5.494   2.826   6.921  0.1968  0.9837 -0.4769
 1654TIP3    H126521   5.505   2.829   7.016  0.2976 -0.4347 -0.4195
 1654TIP3    H226522   5.416   2.880   6.905  1.1182  2.6018  0.2007
 1655TIP3   OH226523   3.687   1.677   0.885  0.2377  0.1015 -0.3774
 1655TIP3    H126524   3.764   1.681   0.942  1.5038 -1.3054 -1.9071
 1655TIP3    H226525   3.722   1.664   0.797 -1.7523 -2.1549 -0.9465
 1656TIP3   OH226526   1.426   6.765   7.927  0.2345 -0.0251  0.2343
 1656TIP3    H126527   1.508   6.805   7.898  1.1041 -1.5634  0.4497
 1656TIP3    H226528   1.438   6.671   7.908 -0.5121 -0.6132  2.4483
 1657TIP3   OH226529   0.826   2.082   0.333  0.7065 -0.1893  0.1021
 1657TIP3    H126530   0.796   2.003   0.288  1.0923 -0.4453  0.2944
 1657TIP3    H226531   0.916   2.064   0.357  0.5519 -0.0081  0.8587
 1658TIP3   OH226532   5.412   6.034   0.502  0.1923  0.2596 -0.4313
 1658TIP3    H126533   5.409   6.059   0.409  1.0593 -0.1570 -0.5817
 1658TIP3    H226534   5.420   6.118   0.548  1.5362  0.3846 -0.8483
 1659TIP3   OH226535   1.552   4.550   7.641 -0.8449 -0.0799 -0.6949
 1659TIP3    H126536   1.608   4.550   7.563  0.5607 -0.5424  0.2984
 1659TIP3    H226537   1.497   4.472   7.630  1.6267 -2.0710  0.3271
 1660TIP3   OH226538   4.240   1.995   1.353 -0.0047 -0.7497  0.2382
 1660TIP3    H126539   4.327   1.957   1.360 -0.2874 -1.7126 -1.1095
 1660TIP3    H226540   4.184   1.923   1.324 -1.3568 -0.2742  1.5565
 1661TIP3   OH226541   3.980   3.295   7.128  0.1800  0.1570  0.5307
 1661TIP3    H126542   4.001   3.319   7.038 -2.1803  0.0838 -0.0967
 1661TIP3    H226543   4.015   3.206   7.138  2.6146  1.0337  0.5517
 1662TIP3   OH226544   6.226   2.531   2.196  0.1929  0.0112  0.1374
 1662TIP3    H126545   6.305   2.479   2.209  0.3494 -0.9118 -3.3871
 1662TIP3    H226546   6.255   2.622   2.208  2.0798 -0.2449 -1.7953
 1663TIP3   OH226547   0.805   3.192   6.235 -0.4577 -0.3235  0.1706
 1663TIP3    H126548   0.745   3.246   6.183  0.5528  0.4537 -0.2022
 1663TIP3    H226549   0.812   3.110   6.185 -0.4399 -0.0454 -0.2869
 1664TIP3   OH226550   2.466   4.312   0.147 -0.1475  0.3630 -0.2146
 1664TIP3    H126551   2.504   4.269   0.224  0.9465  0.2654 -0.7802
 1664TIP3    H226552   2.434   4.396   0.179  1.5997  0.9507  0.1035
 1665TIP3   OH226553   4.467   0.977   1.641  0.5276 -0.2796 -0.1004
 1665TIP3    H126554   4.381   0.956   1.677  0.5389 -0.3773 -0.1312
 1665TIP3    H226555   4.468   0.936   1.555  0.7175 -0.5328  0.0206
 1666TIP3   OH226556   3.940   0.963   7.036 -0.9281  0.9640 -0.2600
 1666TIP3    H126557   3.998   1.038   7.018  0.4261 -0.2687 -1.3060
 1666TIP3    H226558   3.876   0.964   6.965 -0.2923  0.5792 -0.8558
 1667TIP3   OH226559   6.847   0.797   7.905  0.1701  0.0232  0.2221
 1667TIP3    H126560   6.851   0.785   7.999  0.2148  1.0279  0.3595
 1667TIP3    H226561   6.769   0.852   7.891 -2.1257 -3.1871 -0.6838
 1668TIP3   OH226562   4.419   3.745   1.453  0.6276  0.3916 -0.5541
 1668TIP3    H126563   4.373   3.677   1.404 -1.0209  0.9519  0.1501
 1668TIP3    H226564   4.368   3.825   1.437  1.2463  1.0054  0.4214
 1669TIP3   OH226565   5.160   2.603   2.858  0.4627  0.3966 -0.1765
 1669TIP3    H126566   5.200   2.653   2.787 -1.1612  1.7471 -0.1880
 1669TIP3    H226567   5.125   2.669   2.918 -1.2216 -0.7107  0.1166
 1670TIP3   OH226568   5.371   1.098   1.203  0.1110 -0.4872 -0.1007
 1670TIP3    H126569   5.402   1.120   1.290 -0.0400 -0.9121  0.0625
 1670TIP3    H226570   5.322   1.017   1.214  1.1771 -1.2481 -0.7811
 1671TIP3   OH226571   1.371   0.670   0.334  0.2067 -0.3863  0.0409
 1671TIP3    H126572   1.391   0.585   0.295  0.3805 -1.1826  1.7555
 1671TIP3    H226573   1.440   0.683   0.400 -1.2257 -0.1024  1.5386
 1672TIP3   OH226574   4.479   5.339   0.431  0.3688  0.1512 -0.4435
 1672TIP3    H126575   4.438   5.317   0.348  2.6737  0.5035 -1.7683
 1672TIP3    H226576   4.570   5.359   0.408  0.5802  2.3669  1.8714
 1673TIP3   OH226577   5.508   6.618   0.363 -0.4667  0.1337  0.7396
 1673TIP3    H126578   5.450   6.679   0.317 -0.4716 -0.6072 -0.2792
 1673TIP3    H226579   5.463   6.534   0.359 -0.0636 -0.1199  1.3703
 1674TIP3   OH226580   2.836   2.576   6.511 -0.1447  0.1815 -0.1854
 1674TIP3    H126581   2.760   2.593   6.456 -1.3049 -1.3992  0.8482
 1674TIP3    H226582   2.808   2.602   6.599  0.0368 -1.5724  0.4184
 1675TIP3   OH226583   6.107   3.554   7.320 -0.1421 -0.0652 -0.4570
 1675TIP3    H126584   6.097   3.494   7.246  1.4131  0.8373 -1.4595
 1675TIP3    H226585   6.167   3.508   7.380 -0.3826 -0.2637 -0.3682
 1676TIP3   OH226586   3.173   3.511   0.423 -0.4607  0.6205  0.2049
 1676TIP3    H126587   3.158   3.574   0.493 -2.6398 -0.3331  0.6776
 1676TIP3    H226588   3.121   3.544   0.350  0.7085  0.8728 -0.5501
 1677TIP3   OH226589   5.472   1.923   1.740  0.0425  0.0907 -0.4151
 1677TIP3    H126590   5.540   1.933   1.806 -0.3668  0.1857 -0.0030
 1677TIP3    H226591   5.485   1.835   1.704  0.1888 -0.0053 -0.1257
 1678TIP3   OH226592   3.139   1.815   7.087 -0.6078  0.1369 -0.0733
 1678TIP3    H126593   3.199   1.785   7.018 -0.2430  0.5646  0.0538
 1678TIP3    H226594   3.123   1.737   7.140 -0.5823 -0.1038 -0.4112
 1679TIP3   OH226595   6.428   3.044   8.325 -0.0888 -0.2475  1.0915
 1679TIP3    H126596   6.481   2.972   8.360 -1.0516 -1.2813  0.5238
 1679TIP3    H226597   6.470   3.067   8.242 -1.4043 -2.2357 -0.2189
 1680TIP3   OH226598   6.445   6.272   0.873 -0.2023 -0.1158 -0.3343
 1680TIP3    H126599   6.382   6.332   0.912 -0.2250 -1.0385  1.1256
 1680TIP3    H226600   6.481   6.224   0.947 -0.4804 -2.1669 -1.4551
 1681TIP3   OH226601   2.897   4.778   7.548 -0.2849  0.6613  0.0909
 1681TIP3    H126602   2.808   4.750   7.568 -0.6393  1.7054  0.0038
 1681TIP3    H226603   2.938   4.700   7.509 -0.8833 -0.0879  0.9082
 1682TIP3   OH226604   5.154   6.026   7.929  0.2371 -0.1212  0.2907
 1682TIP3    H126605   5.076   6.009   7.877 -0.4412 -2.0331  1.8197
 1682TIP3    H226606   5.220   5.967   7.893  0.9119  1.1899 -0.7217
 1683TIP3   OH226607   2.902   0.524   1.766  0.0607 -0.1058  0.8653
 1683TIP3    H126608   2.973   0.586   1.750  0.7600 -0.8798  0.8622
 1683TIP3    H226609   2.913   0.457   1.698 -1.2370  0.2251  0.2980
 1684TIP3   OH226610   5.873   0.785   0.092  0.5115  0.1113  0.2064
 1684TIP3    H126611   5.835   0.853   0.148 -0.6595 -1.4928  1.4630
 1684TIP3    H226612   5.884   0.710   0.150 -0.0592 -1.4028 -1.5461
 1685TIP3   OH226613   3.185   5.682   0.990  0.1107 -0.5354  0.4936
 1685TIP3    H126614   3.252   5.673   0.922  0.1123 -0.7083  0.5161
 1685TIP3    H226615   3.140   5.764   0.970 -0.1680 -0.7978  0.0336
 1686TIP3   OH226616   0.206   6.289   1.653  0.2229  0.7297  0.0444
 1686TIP3    H126617   0.275   6.270   1.717 -0.4333  0.6599  0.7386
 1686TIP3    H226618   0.156   6.207   1.648  0.0438  0.8586 -0.2799
 1687TIP3   OH226619   1.417   1.401   7.736  0.0044  0.0897 -0.4020
 1687TIP3    H126620   1.336   1.425   7.781 -0.4984 -0.7919 -0.8195
 1687TIP3    H226621   1.400   1.314   7.700  1.2781 -0.2805 -0.1577
 1688TIP3   OH226622   1.897   4.412   2.198 -0.4906 -0.2019 -0.2675
 1688TIP3    H126623   1.981   4.441   2.163 -0.4626 -2.0636 -1.9328
 1688TIP3    H226624   1.918   4.379   2.286  0.1331  1.1402  0.1158
 1689TIP3   OH226625   6.120   4.800   0.061  0.0259 -0.3565  0.6419
 1689TIP3    H126626   6.100   4.888   0.092  1.6296 -0.3016  1.6355
 1689TIP3    H226627   6.050   4.745   0.099 -1.6700  0.5791 -0.9504
 1690TIP3   OH226628   3.594   0.762   8.490  0.3747  0.2527 -0.2903
 1690TIP3    H126629   3.526   0.810   8.443  1.5453  0.1257 -2.2239
 1690TIP3    H226630   3.548   0.688   8.530 -0.4779 -0.5578 -2.5948
 1691TIP3   OH226631   5.264   4.629   0.632 -0.4652 -0.1529 -0.7896
 1691TIP3    H126632   5.240   4.552   0.579 -1.3851 -1.7120  1.7143
 1691TIP3    H226633   5.359   4.637   0.619 -0.2206 -2.1501 -0.6471
 1692TIP3   OH226634   5.277   6.641   1.713  0.6193  0.2962  0.0761
 1692TIP3    H126635   5.266   6.694   1.792  0.5593  0.7785 -0.2508
 1692TIP3    H226636   5.295   6.705   1.644 -0.9428  0.0308 -0.6204
 1693TIP3   OH226637   4.754   3.959   2.042  0.5876  0.5127 -0.0687
 1693TIP3    H126638   4.801   4.041   2.060  2.9212 -0.3239 -1.8200
 1693TIP3    H226639   4.766   3.907   2.121  0.5313  1.2222  0.4168
 1694TIP3   OH226640   2.304   3.992   0.568 -0.2260  0.4627  0.4040
 1694TIP3    H126641   2.224   3.939   0.574 -1.1786  1.7907 -0.0738
 1694TIP3    H226642   2.375   3.928   0.576 -1.3197 -0.7691  0.7743
 1695TIP3   OH226643   5.432   4.798   8.041  0.4613 -0.2078  0.2275
 1695TIP3    H126644   5.437   4.713   7.996  0.7842  0.4538 -1.0311
 1695TIP3    H226645   5.365   4.786   8.109 -1.8238 -0.5540 -1.9630
 1696TIP3   OH226646   3.547   5.852   6.831 -0.2565  0.0248  0.0818
 1696TIP3    H126647   3.499   5.781   6.873  0.2501  0.2793  1.1167
 1696TIP3    H226648   3.572   5.911   6.903 -1.0259  1.4835 -0.7954
 1697TIP3   OH226649   4.162   3.903   1.586 -0.2399 -0.2298  0.3764
 1697TIP3    H126650   4.104   3.890   1.512  0.5363 -3.0642  0.1785
 1697TIP3    H226651   4.144   3.830   1.645 -0.3799  1.5759  2.7483
 1698TIP3   OH226652   5.237   5.754   7.887 -0.2176 -0.2987  0.0927
 1698TIP3    H126653   5.298   5.742   7.960 -1.3675 -0.4785  1.0604
 1698TIP3    H226654   5.162   5.700   7.910 -0.2953 -0.9465 -1.6211
 1699TIP3   OH226655   5.316   5.459   8.179  0.3967 -0.4171 -0.1759
 1699TIP3    H126656   5.387   5.515   8.212  0.8804  0.5228 -2.6379
 1699TIP3    H226657   5.236   5.507   8.200  0.6792  0.0884 -0.2364
 1700TIP3   OH226658   2.962   1.445   7.716  0.0325  0.2353 -0.0489
 1700TIP3    H126659   2.914   1.524   7.692  1.3318  1.2427  0.5299
 1700TIP3    H226660   3.023   1.475   7.783  1.7127 -0.9114 -1.0122
 1701TIP3   OH226661   1.279   0.082   1.358 -0.4112  0.4973 -0.1854
 1701TIP3    H126662   1.297   0.144   1.428 -2.9286 -0.5051  1.4878
 1701TIP3    H226663   1.328   0.003   1.383  0.2972  0.7875 -0.6451
 1702TIP3   OH226664   0.913   6.099   7.283 -0.8475  0.1841 -0.6544
 1702TIP3    H126665   0.960   6.178   7.311 -0.5113 -0.3251  0.2470
 1702TIP3    H226666   0.821   6.119   7.300 -1.0682  1.3413 -2.7974
 1703TIP3   OH226667   4.746   3.512   1.294 -0.3584  0.1119  0.1079
 1703TIP3    H126668   4.822   3.456   1.307  0.5386  1.2627 -0.0150
 1703TIP3    H226669   4.671   3.458   1.321  0.5448 -0.8307  0.7941
 1704TIP3   OH226670   5.905   4.192   1.543  0.7249  0.2206 -0.2181
 1704TIP3    H126671   5.924   4.110   1.497  1.7381  0.6593 -0.6076
 1704TIP3    H226672   5.833   4.231   1.493 -2.3805 -2.1012  2.0541
 1705TIP3   OH226673   3.179   0.841   1.001 -0.4922  0.2951 -0.1579
 1705TIP3    H126674   3.168   0.936   1.007  1.5972  0.4537  2.1962
 1705TIP3    H226675   3.273   0.827   0.997 -0.7236 -1.7219  0.2507
 1706TIP3   OH226676   5.378   4.368   7.349 -0.0642  0.1375  0.2052
 1706TIP3    H126677   5.340   4.445   7.306 -1.0205  0.2565  1.2208
 1706TIP3    H226678   5.302   4.315   7.375  0.4293  0.3033  2.1634
 1707TIP3   OH226679   1.003   3.043   2.375  0.3658 -0.0673 -0.1206
 1707TIP3    H126680   1.012   3.117   2.314 -1.7779  0.6162  0.3025
 1707TIP3    H226681   1.090   3.003   2.378  1.0197  1.0763 -2.0984
 1708TIP3   OH226682   2.506   3.375   0.084 -0.1491 -0.0430 -0.0865
 1708TIP3    H126683   2.465   3.433   0.020 -0.9386 -0.6987 -0.1836
 1708TIP3    H226684   2.441   3.308   0.101 -0.2516  0.5237  1.9900
 1709TIP3   OH226685   0.082   0.641   1.256 -0.8858  0.3573 -0.0927
 1709TIP3    H126686   0.003   0.688   1.230 -0.9893 -0.0048 -0.4382
 1709TIP3    H226687   0.055   0.549   1.261 -0.1445  0.0335 -1.6203
 1710TIP3   OH226688   3.200   0.692   8.405  0.1146 -0.0670 -0.1863
 1710TIP3    H126689   3.132   0.718   8.468 -0.6615 -1.0798 -0.5887
 1710TIP3    H226690   3.245   0.774   8.384  0.0851  0.3683  1.3292
 1711TIP3   OH226691   6.342   5.842   1.026 -0.5669 -0.4743  0.0700
 1711TIP3    H126692   6.394   5.906   0.979 -2.6037  1.0940 -0.1901
 1711TIP3    H226693   6.398   5.765   1.032  2.0380  1.3417  0.5243
 1712TIP3   OH226694   6.622   4.084   0.096 -0.4002  0.5821 -0.1028
 1712TIP3    H126695   6.690   4.086   0.164 -0.9679 -1.0982  0.5597
 1712TIP3    H226696   6.558   4.021   0.128 -1.0914  0.3555 -1.8383
 1713TIP3   OH226697   3.502   4.864   7.003  0.1160 -0.1054 -0.4656
 1713TIP3    H126698   3.593   4.840   7.020  1.1160  2.6331 -1.3888
 1713TIP3    H226699   3.506   4.918   6.924 -2.4277 -0.4911 -0.9224
 1714TIP3   OH226700   5.353   6.604   7.249  0.3819  0.2718  0.3397
 1714TIP3    H126701   5.438   6.648   7.260  0.0411  0.7414  1.1735
 1714TIP3    H226702   5.347   6.588   7.155  0.2164  2.6629 -0.1304
 1715TIP3   OH226703   1.216   0.428   0.530 -0.0666  0.0386 -0.0196
 1715TIP3    H126704   1.210   0.523   0.518  1.1918  0.3281  1.4267
 1715TIP3    H226705   1.210   0.415   0.624  1.5131 -1.1710 -0.0449
 1716TIP3   OH226706   4.138   1.513   0.811  0.1386  0.5371  0.3278
 1716TIP3    H126707   4.130   1.485   0.720  0.0820 -0.5863  0.6671
 1716TIP3    H226708   4.110   1.605   0.810  0.7661  0.7382 -0.8909
 1717TIP3   OH226709   3.567   2.562   6.495  0.2788  0.0889 -0.3799
 1717TIP3    H126710   3.518   2.490   6.534  0.9637 -1.5720 -2.3856
 1717TIP3    H226711   3.654   2.556   6.533  0.2943 -0.0633 -0.4388
 1718TIP3   OH226712   2.537   0.307   7.908  0.0616  0.1057 -0.6841
 1718TIP3    H126713   2.498   0.308   7.820 -0.6606 -1.1933 -0.4087
 1718TIP3    H226714   2.573   0.218   7.917 -0.3474  0.0526  0.5269
 1719TIP3   OH226715   0.806   3.513   7.124 -0.0913  0.0499 -0.4184
 1719TIP3    H126716   0.766   3.587   7.078 -2.2594  0.1130  1.4102
 1719TIP3    H226717   0.772   3.519   7.213  2.7292 -0.9432  0.8335
 1720TIP3   OH226718   0.078   6.740   7.643  0.3614 -0.0427  0.3567
 1720TIP3    H126719   0.033   6.790   7.711  0.2794  0.6790 -0.2138
 1720TIP3    H226720   0.144   6.800   7.608  1.0465 -0.7251  0.4434
 1721TIP3   OH226721   5.712   0.522   7.985 -0.2024  0.2701 -0.0723
 1721TIP3    H126722   5.721   0.430   7.961 -2.9338  0.3992 -2.0897
 1721TIP3    H226723   5.626   0.528   8.026  0.8312  1.6200  2.0588
 1722TIP3   OH226724   0.583   4.119   7.108  0.3950  0.1704  0.1287
 1722TIP3    H126725   0.542   4.120   7.022  0.5018  0.8326  0.0793
 1722TIP3    H226726   0.551   4.039   7.150 -0.4116  0.3418 -0.1600
 1723TIP3   OH226727   4.780   5.391   0.384  0.1516  0.1882  0.4431
 1723TIP3    H126728   4.831   5.363   0.460 -1.1096 -0.0230  1.2337
 1723TIP3    H226729   4.762   5.484   0.400 -0.1292  0.1406  0.4001
 1724TIP3   OH226730   3.556   2.425   6.795 -0.2069  0.5837 -0.2402
 1724TIP3    H126731   3.645   2.390   6.794 -0.6161 -0.5877  1.0324
 1724TIP3    H226732   3.509   2.374   6.729 -0.0910  0.7743 -0.4714
 1725TIP3   OH226733   6.167   4.054   7.995 -0.2206 -0.1188 -0.4201
 1725TIP3    H126734   6.207   3.981   8.042 -1.4225 -0.4304  0.1606
 1725TIP3    H226735   6.225   4.128   8.013  1.6613 -1.1193 -1.9616
 1726TIP3   OH226736   2.895   0.294   1.638 -0.3015  0.3502  0.2610
 1726TIP3    H126737   2.845   0.320   1.561 -1.6226  1.8306  1.5612
 1726TIP3    H226738   2.852   0.214   1.668  0.3546 -0.3593 -0.6111
 1727TIP3   OH226739   3.909   3.119   1.511  0.2838 -0.0689  0.1182
 1727TIP3    H126740   3.874   3.052   1.453 -0.8083 -0.2585  0.9703
 1727TIP3    H226741   3.991   3.081   1.544  0.3218 -0.4373 -0.3901
 1728TIP3   OH226742   2.977   3.626   0.268  0.7659 -0.0071 -0.2124
 1728TIP3    H126743   2.994   3.687   0.196 -0.7594 -1.1405 -1.6228
 1728TIP3    H226744   2.886   3.600   0.255  0.2025  0.2846  2.6051
 1729TIP3   OH226745   1.587   3.343   1.445 -0.1496 -0.0733  0.5648
 1729TIP3    H126746   1.611   3.275   1.382  0.4688 -3.3500  3.9853
 1729TIP3    H226747   1.656   3.339   1.511 -2.0453  1.3219  2.7503
 1730TIP3   OH226748   5.661   2.273   7.685 -0.1176 -0.4071 -0.1958
 1730TIP3    H126749   5.633   2.341   7.624 -1.7940 -2.0758 -1.4133
 1730TIP3    H226750   5.747   2.245   7.654 -0.1090  0.0841 -0.6171
 1731TIP3   OH226751   0.237   2.822   1.243 -0.0623 -0.8405  0.1982
 1731TIP3    H126752   0.248   2.903   1.193 -1.0035 -0.3272  0.7902
 1731TIP3    H226753   0.179   2.768   1.190  0.4712 -1.0859 -0.1420
 1732TIP3   OH226754   2.678   4.840   1.391 -0.1672  0.0278  0.7569
 1732TIP3    H126755   2.610   4.859   1.456 -0.4534  0.6378  0.2909
 1732TIP3    H226756   2.746   4.905   1.408 -0.8783  1.1421 -0.4515
 1733TIP3   OH226757   0.876   4.858   1.389 -0.0691 -0.3096 -0.2194
 1733TIP3    H126758   0.919   4.862   1.475  0.4392  0.4465 -0.4919
 1733TIP3    H226759   0.816   4.933   1.390  0.2718 -0.0223 -0.6859
 1734TIP3   OH226760   2.327   5.002   7.836 -0.2487  0.1897 -0.5457
 1734TIP3    H126761   2.238   5.023   7.808 -0.4100 -0.5144 -0.5766
 1734TIP3    H226762   2.356   5.080   7.883 -0.6053  0.7122 -1.1808
 1735TIP3   OH226763   2.515   0.647   0.679 -0.4125  0.6701 -0.0034
 1735TIP3    H126764   2.486   0.664   0.590 -1.7458  1.0062  0.4676
 1735TIP3    H226765   2.448   0.688   0.734  0.2958  0.3229  1.1524
 1736TIP3   OH226766   2.433   5.588   1.868 -0.3840  0.1197 -0.1346
 1736TIP3    H126767   2.404   5.557   1.953 -0.5901 -0.2888 -0.3488
 1736TIP3    H226768   2.376   5.663   1.849 -0.5229  0.0393 -0.0381
 1737TIP3   OH226769   1.919   3.471   8.130 -0.4485  0.2046 -0.1132
 1737TIP3    H126770   1.968   3.432   8.058 -0.2274  1.3407 -0.5869
 1737TIP3    H226771   1.875   3.396   8.172  1.4376 -0.8079  0.1562
 1738TIP3   OH226772   4.726   5.023   7.568  0.1386 -0.8288 -0.0305
 1738TIP3    H126773   4.633   5.028   7.591  0.6444  1.3957  1.9519
 1738TIP3    H226774   4.771   5.052   7.647  2.5481 -1.8384 -0.9591
 1739TIP3   OH226775   3.848   0.955   7.302  0.3685  0.5672 -0.1662
 1739TIP3    H126776   3.911   0.891   7.336 -1.2618 -1.5420 -0.8670
 1739TIP3    H226777   3.857   0.950   7.207  1.5670  2.9031 -0.2383
 1740TIP3   OH226778   5.145   0.630   0.766 -0.7604 -0.3154  0.0110
 1740TIP3    H126779   5.065   0.604   0.811 -0.6946  2.3456  1.9045
 1740TIP3    H226780   5.202   0.663   0.835  0.6942  0.8509 -1.6622
 1741TIP3   OH226781   0.755   0.653   0.142 -0.1569 -0.2457  0.3349
 1741TIP3    H126782   0.764   0.660   0.047 -1.2015  2.9969  0.3539
 1741TIP3    H226783   0.677   0.599   0.155 -0.1521 -0.5035 -0.6115
 1742TIP3   OH226784   6.249   6.641   0.444  0.9076  0.9783  0.1811
 1742TIP3    H126785   6.294   6.561   0.471  0.7639  0.9455  0.3208
 1742TIP3    H226786   6.274   6.652   0.352 -0.6128 -0.2822 -0.4268
 1743TIP3   OH226787   4.659   2.975   6.412 -0.3468 -0.2927 -0.0530
 1743TIP3    H126788   4.694   2.976   6.323 -0.2192 -0.6756 -0.0056
 1743TIP3    H226789   4.728   2.938   6.466 -0.3277  0.1783  0.2507
 1744TIP3   OH226790   6.278   6.880   7.833  0.2877 -0.2122  0.3655
 1744TIP3    H126791   6.365   6.846   7.813 -0.3615 -1.2129 -0.8662
 1744TIP3    H226792   6.228   6.805   7.864  0.1655  0.5835  2.2579
 1745TIP3   OH226793   6.463   6.715   1.673  0.7111  0.0763 -0.1609
 1745TIP3    H126794   6.457   6.637   1.618  0.3229  0.7900 -1.1587
 1745TIP3    H226795   6.455   6.682   1.762  2.9000 -1.2826 -0.3946
 1746TIP3   OH226796   1.130   6.274   0.177  0.5981  0.1363 -0.4743
 1746TIP3    H126797   1.098   6.271   0.087 -0.4257  0.6428 -0.1459
 1746TIP3    H226798   1.052   6.269   0.231  1.0640  1.2903  0.3653
 1747TIP3   OH226799   1.083   5.502   1.385  0.0739 -0.3006 -0.0274
 1747TIP3    H126800   1.132   5.582   1.366 -0.4719  0.6393  2.1942
 1747TIP3    H226801   1.139   5.432   1.355  1.3188  0.8678 -0.5388
 1748TIP3   OH226802   4.014   4.263   1.728 -0.3381 -0.3314 -0.2191
 1748TIP3    H126803   4.105   4.254   1.701  0.0740 -0.2116  1.0692
 1748TIP3    H226804   4.000   4.192   1.791 -0.6031  0.6903  0.9166
 1749TIP3   OH226805   1.711   4.139   6.788  0.5708 -0.0240  0.3284
 1749TIP3    H126806   1.626   4.108   6.818 -0.2443 -1.1200 -2.7669
 1749TIP3    H226807   1.697   4.230   6.765  0.2655 -0.1599 -0.0273
 1750TIP3   OH226808   0.658   5.334   2.366 -0.2901 -0.1294 -0.1068
 1750TIP3    H126809   0.589   5.397   2.346  0.2213  0.1178 -1.1602
 1750TIP3    H226810   0.612   5.254   2.391 -0.9463  0.5839  1.0756
 1751TIP3   OH226811   5.120   5.175   7.319  0.6422 -0.1681  0.1760
 1751TIP3    H126812   5.069   5.095   7.312 -2.3408  1.4983  1.0969
 1751TIP3    H226813   5.096   5.212   7.405  2.0349  1.6340 -0.1366
 1752TIP3   OH226814   2.772   5.018   7.956  0.0934 -0.5933 -0.0486
 1752TIP3    H126815   2.692   5.017   7.903  0.9020  0.4275 -1.3630
 1752TIP3    H226816   2.841   5.046   7.896  0.9400  1.4211  1.6792
 1753TIP3   OH226817   1.215   1.392   2.027  0.0162  0.0788  0.2222
 1753TIP3    H126818   1.217   1.422   2.118  1.0526  0.3381  0.1276
 1753TIP3    H226819   1.229   1.471   1.975 -0.1597 -0.1314 -0.1494
 1754TIP3   OH226820   4.874   0.397   0.476 -0.3446  0.3984  0.0685
 1754TIP3    H126821   4.796   0.378   0.425  0.7821  0.3748 -1.7271
 1754TIP3    H226822   4.866   0.490   0.499 -1.4084  0.1271  0.8879
 1755TIP3   OH226823   1.305   3.141   0.302 -0.2137  0.1173 -0.3347
 1755TIP3    H126824   1.330   3.148   0.210 -1.8900 -1.5282 -0.9714
 1755TIP3    H226825   1.325   3.050   0.325 -1.1112  0.1185  0.5021
 1756TIP3   OH226826   4.680   2.175   0.304 -0.0374 -0.3047  0.4991
 1756TIP3    H126827   4.706   2.160   0.213  0.9560  1.0657  0.5233
 1756TIP3    H226828   4.586   2.160   0.305 -0.5120  1.9868 -1.3314
 1757TIP3   OH226829   4.163   5.516   1.581  0.6490 -0.8383  0.3357
 1757TIP3    H126830   4.172   5.526   1.486  0.6019 -0.1359  0.4056
 1757TIP3    H226831   4.232   5.571   1.618  0.2656 -0.6152  0.7258
 1758TIP3   OH226832   3.241   4.966   7.387 -0.3434  0.0963  0.9631
 1758TIP3    H126833   3.185   5.023   7.335  1.2648  0.7601 -0.1405
 1758TIP3    H226834   3.253   4.887   7.333  1.3321  0.7879  0.2339
 1759TIP3   OH226835   5.047   4.915   7.331 -0.5508  0.5251 -0.1018
 1759TIP3    H126836   5.139   4.890   7.322 -0.5800  0.7355 -1.2617
 1759TIP3    H226837   5.011   4.857   7.398  0.9232  1.8299  1.9308
 1760TIP3   OH226838   5.427   2.257   7.921 -0.0154 -0.0299  0.1857
 1760TIP3    H126839   5.453   2.315   7.993  1.1816 -1.5264  1.0207
 1760TIP3    H226840   5.492   2.187   7.922 -1.8942 -1.8779 -0.2024
 1761TIP3   OH226841   3.224   3.930   1.285 -0.0041  0.3080  0.0222
 1761TIP3    H126842   3.154   3.868   1.265  0.3224 -0.2680  0.6272
 1761TIP3    H226843   3.230   3.986   1.207  0.0453 -0.7479 -0.7563
 1762TIP3   OH226844   2.751   5.693   0.923 -0.1792 -0.3848 -0.4993
 1762TIP3    H126845   2.770   5.623   0.986  0.9013 -0.4576 -0.8941
 1762TIP3    H226846   2.699   5.649   0.855  0.3807 -0.7900 -0.6772
 1763TIP3   OH226847   1.906   2.380   7.637 -0.3858  0.3677 -0.2505
 1763TIP3    H126848   1.838   2.327   7.678 -0.7391  0.6293 -0.4882
 1763TIP3    H226849   1.867   2.468   7.630 -1.6184 -0.2913 -3.9637
 1764TIP3   OH226850   2.055   3.488   7.670 -0.2082 -0.5108  0.2781
 1764TIP3    H126851   2.024   3.434   7.597 -0.9898  1.0490 -0.5863
 1764TIP3    H226852   2.128   3.538   7.635 -1.1435  0.9021  0.2692
 1765TIP3   OH226853   0.298   4.254   7.027 -0.2610  0.2453 -0.0777
 1765TIP3    H126854   0.222   4.197   7.035  0.5434 -0.8779 -0.1250
 1765TIP3    H226855   0.335   4.257   7.116 -1.3956  2.3260  0.3783
 1766TIP3   OH226856   1.441   2.899   0.344 -0.0356  0.1254  0.4861
 1766TIP3    H126857   1.443   2.823   0.403  1.5771 -0.6321 -0.4762
 1766TIP3    H226858   1.524   2.895   0.298 -1.2890  0.5809 -1.9836
 1767TIP3   OH226859   1.328   2.120   7.208  0.5339  0.3735 -0.3089
 1767TIP3    H126860   1.408   2.154   7.249  1.9055 -0.9861 -1.7289
 1767TIP3    H226861   1.287   2.066   7.275  1.4399  0.1375  0.0600
 1768TIP3   OH226862   5.173   3.702   7.633 -0.5369  0.2825 -0.1115
 1768TIP3    H126863   5.077   3.696   7.631 -0.5472 -0.0910  0.9541
 1768TIP3    H226864   5.199   3.644   7.704  0.3907  1.5329  0.6082
 1769TIP3   OH226865   4.887   6.475   1.626 -0.0741 -0.0399 -0.1927
 1769TIP3    H126866   4.820   6.426   1.579  0.5585 -1.9540  0.7923
 1769TIP3    H226867   4.845   6.500   1.708 -0.0154 -0.0227 -0.1682
 1770TIP3   OH226868   4.901   1.722   0.537 -0.2092 -0.2107  0.0245
 1770TIP3    H126869   4.900   1.678   0.622 -0.7062  0.3855  0.3307
 1770TIP3    H226870   4.914   1.814   0.557 -3.3181  0.4138 -0.3062
 1771TIP3   OH226871   1.345   4.502   1.097  0.0043 -0.5419  0.4498
 1771TIP3    H126872   1.293   4.471   1.171  0.2349 -0.5420  0.6139
 1771TIP3    H226873   1.301   4.582   1.068 -0.3317 -0.7762  0.3140
 1772TIP3   OH226874   2.903   0.564   6.619 -0.5338 -0.3681  0.1881
 1772TIP3    H126875   2.873   0.474   6.604 -1.0149 -0.2171  0.2361
 1772TIP3    H226876   2.851   0.617   6.559 -1.6894  0.1115  1.5742
 1773TIP3   OH226877   4.818   2.939   0.064  0.2788 -0.0373 -0.4580
 1773TIP3    H126878   4.864   3.022   0.052  1.6817 -0.7800 -0.3938
 1773TIP3    H226879   4.882   2.882   0.107 -0.5170 -1.2884 -0.8909
 1774TIP3   OH226880   1.263   4.570   0.510 -0.2274  0.1233  0.5597
 1774TIP3    H126881   1.265   4.514   0.587  0.6302  1.2183  1.3586
 1774TIP3    H226882   1.352   4.566   0.475 -1.2364 -2.7226 -2.1933
 1775TIP3   OH226883   0.909   5.299   1.550 -0.3584 -0.4868  0.1782
 1775TIP3    H126884   0.877   5.235   1.487 -0.6765  0.1123 -0.2806
 1775TIP3    H226885   0.961   5.360   1.498  0.5161 -0.7479  0.7194
 1776TIP3   OH226886   2.794   3.584   0.881  0.1478  0.0617  0.0694
 1776TIP3    H126887   2.705   3.554   0.895  0.0596  0.1311 -0.3329
 1776TIP3    H226888   2.833   3.519   0.822  0.1713  0.3506 -0.2412
 1777TIP3   OH226889   1.513   5.644   7.430 -0.4177  0.0298 -0.4395
 1777TIP3    H126890   1.570   5.720   7.447 -1.6326  0.8626  0.0434
 1777TIP3    H226891   1.462   5.670   7.353 -0.2243 -0.6709 -0.8125
 1778TIP3   OH226892   4.988   5.100   1.436  0.9011 -0.0923  0.3520
 1778TIP3    H126893   5.001   5.117   1.343 -2.0460  0.8926  0.0049
 1778TIP3    H226894   5.022   5.178   1.480 -0.8380  1.0617 -0.2418
 1779TIP3   OH226895   6.021   4.345   1.997  0.6617  0.4269 -0.3517
 1779TIP3    H126896   5.960   4.385   1.935 -0.5702  0.1550  0.6331
 1779TIP3    H226897   6.051   4.265   1.954  1.3430  1.2037 -1.3762
 1780TIP3   OH226898   3.138   3.611   0.667 -0.2542  0.2205 -0.0016
 1780TIP3    H126899   3.086   3.531   0.680 -1.0123  0.8451  0.9433
 1780TIP3    H226900   3.170   3.633   0.754  0.6640  0.4888 -0.3977
 1781TIP3   OH226901   1.362   0.429   1.029  0.2781  0.4026  0.0159
 1781TIP3    H126902   1.350   0.497   1.095  0.0005  0.7318 -0.3633
 1781TIP3    H226903   1.387   0.351   1.078  3.1123  1.3700  0.2879
 1782TIP3   OH226904   0.453   6.123   8.349  0.5702  1.1750 -0.9271
 1782TIP3    H126905   0.484   6.088   8.266  0.9683  2.7942 -1.4958
 1782TIP3    H226906   0.424   6.212   8.328 -1.6768  0.7675  0.1773
 1783TIP3   OH226907   0.081   2.690   1.077 -0.2629 -0.3751  0.5404
 1783TIP3    H126908  -0.012   2.704   1.094 -0.0950  0.9119  0.4952
 1783TIP3    H226909   0.094   2.721   0.988  0.6628  1.8370  1.3807
 1784TIP3   OH226910   0.739   5.253   0.248  0.6512 -0.4867  0.8534
 1784TIP3    H126911   0.659   5.291   0.283  1.4905  0.4405  1.8448
 1784TIP3    H226912   0.730   5.259   0.153 -0.4166 -0.3542  0.9514
 1785TIP3   OH226913   5.520   2.942   8.315  0.3129 -0.2556 -0.3300
 1785TIP3    H126914   5.548   2.890   8.390 -1.2513 -0.3847  0.2143
 1785TIP3    H226915   5.514   2.880   8.242 -2.4130 -1.1617  0.5173
 1786TIP3   OH226916   1.682   0.529   6.716  0.1179 -0.0305 -0.1217
 1786TIP3    H126917   1.592   0.562   6.717  0.4568  1.4164  4.3375
 1786TIP3    H226918   1.673   0.437   6.743 -0.0736 -0.2430 -0.8903
 1787TIP3   OH226919   5.054   1.994   7.540  0.0893 -0.0717 -1.3809
 1787TIP3    H126920   5.039   2.041   7.458  1.6505  1.6734 -0.7356
 1787TIP3    H226921   5.043   2.061   7.608  1.3864 -0.8707 -0.3441
 1788TIP3   OH226922   4.051   3.534   1.282 -0.3539 -0.1107 -0.2104
 1788TIP3    H126923   3.996   3.456   1.287  0.6877 -0.8325  0.0283
 1788TIP3    H226924   4.015   3.583   1.207 -1.1669 -0.6768 -0.2060
 1789TIP3   OH226925   4.279   6.367   0.137  0.6659 -0.2468  0.0407
 1789TIP3    H126926   4.189   6.376   0.107 -0.6118  0.4703  3.6200
 1789TIP3    H226927   4.323   6.446   0.103 -0.4719  0.2110 -0.4361
 1790TIP3   OH226928   0.914   6.220   7.713 -0.2687 -0.5474 -0.0485
 1790TIP3    H126929   0.975   6.264   7.772 -1.7140 -1.6051  2.3465
 1790TIP3    H226930   0.962   6.141   7.685  0.0975 -0.5016  0.4323
 1791TIP3   OH226931   0.672   6.097   1.232 -1.0698  0.2726  0.2719
 1791TIP3    H126932   0.711   6.043   1.163 -0.4843 -0.0963  0.8738
 1791TIP3    H226933   0.608   6.151   1.187 -0.5663  0.1731 -0.5898
 1792TIP3   OH226934   2.417   0.002   0.226 -0.0862 -0.0636  0.5971
 1792TIP3    H126935   2.439   0.093   0.205  1.8902 -1.0885 -2.3629
 1792TIP3    H226936   2.497  -0.035   0.262 -0.0675 -1.2447 -0.5912
 1793TIP3   OH226937   2.066   6.514   7.384 -0.2210  0.8066 -0.1944
 1793TIP3    H126938   2.065   6.485   7.292  1.9101 -1.2135  0.3354
 1793TIP3    H226939   2.123   6.590   7.384 -0.9135  1.3502 -0.6293
 1794TIP3   OH226940   3.603   2.716   7.599  0.5819 -0.1166 -0.2945
 1794TIP3    H126941   3.600   2.654   7.527 -2.2597 -1.9381  1.1890
 1794TIP3    H226942   3.607   2.802   7.557 -0.7461 -1.1051 -2.6209
 1795TIP3   OH226943   3.978   3.816   7.479  0.0703 -0.0053 -0.5549
 1795TIP3    H126944   3.939   3.729   7.481  0.0501  0.0226  0.5220
 1795TIP3    H226945   4.066   3.802   7.444  0.0604 -0.4535 -0.4087
 1796TIP3   OH226946   3.590   1.170   7.877 -0.3945 -0.6809 -0.3830
 1796TIP3    H126947   3.677   1.129   7.877 -0.8575 -1.7031 -0.6439
 1796TIP3    H226948   3.605   1.258   7.843  0.5821 -0.7337 -0.1371
 1797TIP3   OH226949   3.664   1.505   8.375 -0.0349  0.0658 -0.2268
 1797TIP3    H126950   3.621   1.554   8.305 -0.3556 -0.9435 -0.7725
 1797TIP3    H226951   3.659   1.414   8.345  1.4880 -0.1925  0.2371
 1798TIP3   OH226952   5.865   0.686   7.612 -0.9761 -0.0173 -0.1999
 1798TIP3    H126953   5.778   0.704   7.646 -1.0127 -0.3655 -0.1072
 1798TIP3    H226954   5.857   0.601   7.570 -0.1984 -0.9915  1.5370
 1799TIP3   OH226955   3.026   4.958   7.194 -0.2037  0.3861 -0.3045
 1799TIP3    H126956   3.079   4.886   7.158  0.0230  0.3791  0.0428
 1799TIP3    H226957   2.952   4.965   7.133  1.0570  1.5290 -1.7852
 1800TIP3   OH226958   3.891   1.763   1.098 -0.4178 -0.4124 -0.1070
 1800TIP3    H126959   3.973   1.717   1.117 -0.2387  0.4640  1.4462
 1800TIP3    H226960   3.908   1.854   1.125 -1.5647  0.0063 -0.7238
 1801TIP3   OH226961   6.858   3.185   7.747 -1.1525  0.3021  0.0114
 1801TIP3    H126962   6.858   3.279   7.727 -0.2874  0.3121  0.0548
 1801TIP3    H226963   6.925   3.148   7.691 -0.9498 -0.1765  0.5604
 1802TIP3   OH226964   1.679   3.206   7.312  0.6476  0.0870 -0.4825
 1802TIP3    H126965   1.645   3.286   7.270 -0.2956 -0.6383 -1.1340
 1802TIP3    H226966   1.605   3.146   7.312  0.2130  0.3914  3.2975
 1803TIP3   OH226967   2.454   5.087   7.209 -0.0054 -0.0315  0.0009
 1803TIP3    H126968   2.451   5.069   7.115  1.6782  0.1199 -0.1050
 1803TIP3    H226969   2.482   5.178   7.216 -0.3919  0.0482  0.6551
 1804TIP3   OH226970   5.226   5.703   1.233 -0.6463 -0.1596  0.4454
 1804TIP3    H126971   5.252   5.638   1.299 -0.1546  0.8356  1.2781
 1804TIP3    H226972   5.289   5.775   1.246  0.9746 -0.8496 -2.6626
 1805TIP3   OH226973   3.641   3.217   3.286 -0.8840  0.0208  0.1198
 1805TIP3    H126974   3.555   3.203   3.246 -0.7727 -1.8014  0.4137
 1805TIP3    H226975   3.626   3.283   3.354 -1.8217  0.5120 -0.5537
 1806TIP3   OH226976   5.939   6.518   0.282 -0.4861 -0.1770 -0.4970
 1806TIP3    H126977   5.916   6.430   0.251 -2.4530 -0.0007  0.3431
 1806TIP3    H226978   5.989   6.557   0.210 -0.8298 -1.4589 -1.4615
 1807TIP3   OH226979   2.079   4.728   2.253  0.0396 -0.4105 -0.0318
 1807TIP3    H126980   2.029   4.734   2.334 -0.3108 -0.5331 -0.2393
 1807TIP3    H226981   2.018   4.753   2.184  0.6402  0.7624 -0.1643
 1808TIP3   OH226982   3.347   5.403   6.947 -0.0261  0.0228  0.6273
 1808TIP3    H126983   3.285   5.463   6.905 -1.3276 -1.2767  0.6254
 1808TIP3    H226984   3.433   5.432   6.916 -0.6394  1.6030  0.2951
 1809TIP3   OH226985   1.265   3.182   7.575  0.0946 -0.1111 -0.1899
 1809TIP3    H126986   1.297   3.174   7.665  0.0956  2.7291  0.1837
 1809TIP3    H226987   1.170   3.183   7.584 -0.0576 -3.1525 -0.6776
 1810TIP3   OH226988   2.992   3.757   1.913 -0.2969  0.3264 -0.4053
 1810TIP3    H126989   2.989   3.690   1.844  0.2973  0.5405 -0.6442
 1810TIP3    H226990   3.012   3.838   1.867 -1.1366  0.7052 -0.1284
 1811TIP3   OH226991   3.272   1.531   1.537  0.1733  0.4673  0.2853
 1811TIP3    H126992   3.345   1.566   1.588 -0.0512  0.9860  0.2556
 1811TIP3    H226993   3.313   1.495   1.458  0.6519 -1.3189  1.2840
 1812TIP3   OH226994   6.874   4.732   6.536 -0.6119  0.4368  0.1170
 1812TIP3    H126995   6.966   4.742   6.510 -0.1406  2.0955  2.1740
 1812TIP3    H226996   6.826   4.790   6.476 -0.1573  0.6229 -0.0727
 1813TIP3   OH226997   0.273   4.832   2.059 -0.5549 -0.0577  0.2373
 1813TIP3    H126998   0.239   4.791   2.139 -1.1482 -1.2774 -0.6096
 1813TIP3    H226999   0.314   4.761   2.011  0.2584  0.7677 -0.3133
 1814TIP3   OH227000   2.119   6.367   2.425  0.0780 -0.0474  0.2816
 1814TIP3    H127001   2.161   6.447   2.395  0.3836  0.2422  1.4522
 1814TIP3    H227002   2.149   6.355   2.515 -0.9496 -0.7886  0.5546
 1815TIP3   OH227003   0.800   0.177   0.582 -0.1835 -0.3641  0.0481
 1815TIP3    H127004   0.744   0.108   0.620 -0.0500 -0.4999 -0.0016
 1815TIP3    H227005   0.881   0.173   0.633 -0.5522  0.4368  0.7216
 1816TIP3   OH227006   2.598   6.779   7.436  0.7433  0.4660 -0.1822
 1816TIP3    H127007   2.563   6.770   7.525  0.3395  0.6004 -0.3262
 1816TIP3    H227008   2.693   6.784   7.448  0.6448  1.3369  0.3124
 1817TIP3   OH227009   3.636   0.218   0.919  0.4257 -0.3698 -0.3602
 1817TIP3    H127010   3.601   0.169   0.845  2.1904 -0.2131 -1.3659
 1817TIP3    H227011   3.580   0.296   0.925 -0.4648 -0.9604 -0.7521
 1818TIP3   OH227012   6.096   4.228   6.669  0.6803 -0.5897  0.0700
 1818TIP3    H127013   6.104   4.182   6.586  0.5453  0.4635 -0.5546
 1818TIP3    H227014   6.083   4.320   6.644 -0.6359 -0.4219  1.2236
 1819TIP3   OH227015   4.317   5.519   1.032 -0.0692  0.0373 -1.0740
 1819TIP3    H127016   4.253   5.482   1.093 -1.3308  4.0275  0.2992
 1819TIP3    H227017   4.270   5.528   0.949 -0.8915  1.6313 -0.4617
 1820TIP3   OH227018   4.052   6.493   1.174  0.1093  0.1951  0.3802
 1820TIP3    H127019   3.964   6.482   1.210  0.3021  0.7986  1.0513
 1820TIP3    H227020   4.107   6.512   1.250  0.3347  2.6546 -0.3329
 1821TIP3   OH227021   1.981   1.336   7.709  0.2906  0.0968  0.3109
 1821TIP3    H127022   2.029   1.419   7.702  0.1838  0.1202 -0.1356
 1821TIP3    H227023   1.890   1.362   7.725  0.0849  0.0849 -0.8022
 1822TIP3   OH227024   2.039   3.168   1.684 -0.0013  0.2555  0.1461
 1822TIP3    H127025   2.085   3.216   1.614  0.6895  0.6580  0.8562
 1822TIP3    H227026   2.100   3.098   1.708  0.2138  0.7354  1.0327
 1823TIP3   OH227027   2.209   0.822   1.859 -0.2712  0.2556 -0.0453
 1823TIP3    H127028   2.156   0.897   1.888 -1.5519 -1.0466  1.1673
 1823TIP3    H227029   2.237   0.780   1.940  1.2860 -0.0287 -0.6970
 1824TIP3   OH227030   0.229   3.394   0.134  0.2204 -1.2577  0.2696
 1824TIP3    H127031   0.192   3.461   0.075 -1.2873 -0.6580  1.8304
 1824TIP3    H227032   0.203   3.311   0.095 -0.7251 -0.8750  0.0580
 1825TIP3   OH227033   0.838   0.035   2.052 -0.0111  0.4256 -0.4197
 1825TIP3    H127034   0.770  -0.023   2.019 -0.2020 -0.3904  1.2906
 1825TIP3    H227035   0.798   0.122   2.050 -1.2574 -0.0798  0.8523
 1826TIP3   OH227036   0.656   4.266   7.767 -0.5901  0.2608 -0.0999
 1826TIP3    H127037   0.598   4.341   7.754 -1.4757 -0.3795  0.0760
 1826TIP3    H227038   0.742   4.296   7.737 -1.2821  0.8105 -1.5797
 1827TIP3   OH227039   1.276   5.448   8.368  0.8118  0.1350 -0.0358
 1827TIP3    H127040   1.336   5.513   8.329 -0.6196  0.7783 -1.2751
 1827TIP3    H227041   1.200   5.448   8.310  1.0109 -3.1785 -0.4857
 1828TIP3   OH227042   1.406   3.199   0.057 -0.5234  0.0937  0.3124
 1828TIP3    H127043   1.499   3.181   0.042  0.4709  2.6354  2.6032
 1828TIP3    H227044   1.372   3.221  -0.030  0.7531 -1.7526 -0.7086
 1829TIP3   OH227045   1.562   2.380   0.807 -0.2229  0.3082 -0.0921
 1829TIP3    H127046   1.574   2.387   0.713  0.3668  2.6508  0.0930
 1829TIP3    H227047   1.532   2.290   0.821  3.7347 -1.5671 -2.0590
 1830TIP3   OH227048   3.687   4.940   1.149 -0.3239 -0.2150  0.4493
 1830TIP3    H127049   3.599   4.940   1.112 -0.0702  3.1066 -0.4927
 1830TIP3    H227050   3.708   5.033   1.162  3.0400 -0.8537  0.6541
 1831TIP3   OH227051   5.060   4.400   0.484  0.1754 -0.0408 -0.2064
 1831TIP3    H127052   4.984   4.430   0.534  0.2713 -0.3529  0.1272
 1831TIP3    H227053   5.072   4.309   0.511  0.0383 -0.3057 -1.0342
 1832TIP3   OH227054   4.252   4.353   8.471 -0.1466  0.4383  0.0998
 1832TIP3    H127055   4.245   4.262   8.499  0.4537  0.3740  0.0297
 1832TIP3    H227056   4.288   4.399   8.547  2.8297  0.0356 -0.9536
 1833TIP3   OH227057   5.114   6.549   1.505  0.3472  0.2729  0.5908
 1833TIP3    H127058   5.174   6.567   1.577 -0.0576  2.0882  0.5023
 1833TIP3    H227059   5.027   6.544   1.546  0.0911  1.4944  0.2474
 1834TIP3   OH227060   1.195   2.285   1.871  0.2658 -0.1836 -0.1266
 1834TIP3    H127061   1.178   2.351   1.804  0.1267 -0.5044 -0.4108
 1834TIP3    H227062   1.188   2.201   1.825 -0.2888 -0.4286  0.3778
 1835TIP3   OH227063   6.773   2.116   0.225  0.2314  0.2532 -0.1416
 1835TIP3    H127064   6.773   2.204   0.189 -0.1118  0.1841 -0.3162
 1835TIP3    H227065   6.782   2.128   0.319 -0.7553  0.5108 -0.0770
 1836TIP3   OH227066   2.681   6.449   7.967 -0.1591  0.1715  0.0303
 1836TIP3    H127067   2.687   6.534   8.010 -2.5472  0.5142 -0.1580
 1836TIP3    H227068   2.610   6.404   8.014  0.8577 -1.6291 -0.0618
 1837TIP3   OH227069   1.832   3.173   6.014  0.5008  0.3031  0.0187
 1837TIP3    H127070   1.772   3.227   5.962  1.1394 -0.5939 -1.7525
 1837TIP3    H227071   1.916   3.217   6.007  1.0951 -1.0088 -1.6971
 1838TIP3   OH227072   1.028   5.889   6.417 -0.1479 -0.5798 -0.3759
 1838TIP3    H127073   0.985   5.970   6.445  3.8936  1.8271 -0.2522
 1838TIP3    H227074   1.018   5.889   6.322  1.3496  1.2278 -0.5998
 1839TIP3   OH227075   4.852   5.267   6.727  0.4296 -0.4026 -0.0346
 1839TIP3    H127076   4.946   5.249   6.738  0.4273  0.0119  0.7556
 1839TIP3    H227077   4.814   5.183   6.702  0.6508 -1.1684  2.0157
 1840TIP3   OH227078   0.293   3.185   1.895 -0.4450  0.3828  0.5013
 1840TIP3    H127079   0.224   3.202   1.959 -0.5892 -1.9163  1.0475
 1840TIP3    H227080   0.311   3.091   1.903  3.1822  0.9436  0.8136
 1841TIP3   OH227081   5.753   4.214   8.305  1.0128  0.4273 -0.2690
 1841TIP3    H127082   5.825   4.154   8.325 -1.4875 -2.8909 -0.3338
 1841TIP3    H227083   5.750   4.217   8.209  0.9843  0.4622 -0.2671
 1842TIP3   OH227084   3.797   4.941   1.659 -0.1583 -0.1240  0.1290
 1842TIP3    H127085   3.773   4.917   1.570  1.4354  0.0256 -0.3680
 1842TIP3    H227086   3.866   5.006   1.648  0.9719 -1.0493  1.4613
 1843TIP3   OH227087   5.631   5.823   0.580  0.1936  0.2170  0.2593
 1843TIP3    H127088   5.660   5.885   0.647  0.7503  0.6809 -0.3960
 1843TIP3    H227089   5.577   5.876   0.521 -0.0072 -0.1113  0.1463
 1844TIP3   OH227090   5.298   1.913   0.849 -0.0752  0.0993 -0.0375
 1844TIP3    H127091   5.345   1.845   0.800 -0.7044  0.3561 -1.0288
 1844TIP3    H227092   5.289   1.877   0.937  1.5225 -0.1730  0.0527
 1845TIP3   OH227093   2.538   3.482   0.909  0.1912  0.0495 -0.8696
 1845TIP3    H127094   2.521   3.552   0.972  0.4918  0.1581 -0.9059
 1845TIP3    H227095   2.459   3.477   0.856 -1.8758 -2.7594  2.0583
 1846TIP3   OH227096   0.379   0.610   8.443 -0.7772  0.1958 -0.1075
 1846TIP3    H127097   0.336   0.687   8.408 -0.1192  1.1397  1.0744
 1846TIP3    H227098   0.432   0.577   8.371 -1.0584  0.8566 -0.6234
 1847TIP3   OH227099   5.512   5.622   7.332  0.1907  0.9263 -0.1048
 1847TIP3    H127100   5.501   5.597   7.241 -0.6064  1.5586 -0.2003
 1847TIP3    H227101   5.434   5.588   7.376 -0.0158  1.6343  0.0983
 1848TIP3   OH227102   1.727   5.394   7.621  0.0192  0.1232  0.1954
 1848TIP3    H127103   1.683   5.349   7.549  0.2709 -0.1147  0.1843
 1848TIP3    H227104   1.820   5.388   7.598 -0.0262  3.3307 -1.3953
 1849TIP3   OH227105   5.728   2.581   1.093 -0.1495 -0.2143  0.3823
 1849TIP3    H127106   5.683   2.496   1.096 -0.4153 -0.0797  0.2006
 1849TIP3    H227107   5.748   2.600   1.185  1.0236 -1.0614  0.3262
 1850TIP3   OH227108   3.937   3.304   6.864 -0.3139 -0.3826 -0.0642
 1850TIP3    H127109   3.864   3.313   6.802  0.6078  0.5812 -1.0451
 1850TIP3    H227110   4.014   3.331   6.814  0.3038  1.6632  1.8421
 1851TIP3   OH227111   5.896   1.189   1.342  0.4401  0.0121 -1.0269
 1851TIP3    H127112   5.954   1.241   1.398 -1.0181 -1.1056  1.7770
 1851TIP3    H227113   5.952   1.156   1.272  2.9035  0.0489  0.7765
 1852TIP3   OH227114   4.666   1.269   8.470 -0.5917 -0.0286  0.2678
 1852TIP3    H127115   4.573   1.276   8.491 -0.2777 -0.8774  2.1425
 1852TIP3    H227116   4.676   1.183   8.430 -0.5143 -0.2825  0.8151
 1853TIP3   OH227117   2.990   0.006   0.030 -0.6861  0.1182  0.2594
 1853TIP3    H127118   2.947  -0.057   0.087 -1.0388 -0.5612 -0.7345
 1853TIP3    H227119   2.933   0.083   0.032 -0.6138  0.1611  0.9337
 1854TIP3   OH227120   1.368   1.115   1.587  0.0267 -0.1249  0.3230
 1854TIP3    H127121   1.333   1.152   1.667  0.0207 -0.2563  0.3818
 1854TIP3    H227122   1.449   1.072   1.614  0.3298  0.3334  0.1566
 1855TIP3   OH227123   3.826   6.897   8.256  0.5974  0.0505 -0.3151
 1855TIP3    H127124   3.744   6.856   8.227 -0.1750  0.7924  0.7471
 1855TIP3    H227125   3.853   6.844   8.331  0.5705  0.3686 -0.0769
 1856TIP3   OH227126   2.494   3.740   0.506  0.2264  0.3358  0.1807
 1856TIP3    H127127   2.575   3.746   0.557  0.6559  0.0536 -0.4542
 1856TIP3    H227128   2.439   3.679   0.554 -0.0962  1.4188  1.2526
 1857TIP3   OH227129   5.029   4.751   0.583 -0.5605  0.0481  0.3448
 1857TIP3    H127130   5.114   4.707   0.592 -0.9309 -0.8125 -0.2320
 1857TIP3    H227131   5.033   4.823   0.645  1.1091  0.8304 -0.5826
 1858TIP3   OH227132   6.505   6.218   1.377  0.0152  0.0366 -0.0894
 1858TIP3    H127133   6.559   6.289   1.341 -0.4368  0.4569  0.0507
 1858TIP3    H227134   6.483   6.248   1.465 -0.7741  0.0493 -0.2899
 1859TIP3   OH227135   4.048   2.511   2.107 -0.4789 -0.4892 -0.5532
 1859TIP3    H127136   4.082   2.511   2.018  0.6070  1.0028 -0.1885
 1859TIP3    H227137   3.999   2.593   2.114 -0.4162 -0.5149  0.2532
 1860TIP3   OH227138   3.033   4.334   0.016  0.0025  0.1905 -0.2913
 1860TIP3    H127139   3.055   4.263  -0.044  1.1893 -0.8219  1.2894
 1860TIP3    H227140   2.941   4.320   0.037 -0.0622 -0.2276 -0.8446
 1861TIP3   OH227141   0.457   2.566   8.352 -0.0179  0.1904 -0.3257
 1861TIP3    H127142   0.451   2.660   8.338 -1.1235  0.2391  0.3646
 1861TIP3    H227143   0.476   2.557   8.446 -3.2993 -0.2991  0.3915
 1862TIP3   OH227144   2.976   5.031   1.157 -0.2003 -0.5638  0.0238
 1862TIP3    H127145   3.002   5.009   1.067 -0.7192 -1.7015  0.1353
 1862TIP3    H227146   3.057   5.023   1.208  0.2044  0.5754 -0.4079
 1863TIP3   OH227147   3.317   2.857   0.575  0.0113  0.1414 -0.1832
 1863TIP3    H127148   3.352   2.770   0.595  2.0024  1.1776  1.2774
 1863TIP3    H227149   3.343   2.872   0.484  1.8321  0.1143  0.2840
 1864TIP3   OH227150   3.096   2.133   7.682 -0.3559  0.0619  0.4174
 1864TIP3    H127151   3.101   2.151   7.776 -0.9380 -0.1782  0.5002
 1864TIP3    H227152   3.184   2.151   7.649 -0.3596  0.9675  0.8601
 1865TIP3   OH227153   6.062   1.053   7.414 -0.7258  0.1321 -0.3793
 1865TIP3    H127154   6.008   1.132   7.413 -1.6004 -0.4407 -0.6622
 1865TIP3    H227155   6.133   1.071   7.353  0.9153  1.8671  1.8407
 1866TIP3   OH227156   4.537   5.693   1.056 -0.0933  0.1361 -0.1578
 1866TIP3    H127157   4.459   5.638   1.058 -0.3265  0.4538 -0.4938
 1866TIP3    H227158   4.609   5.632   1.041  0.1999 -0.6955  3.6397
 1867TIP3   OH227159   4.772   6.399   8.045  0.0219 -0.0307  0.0417
 1867TIP3    H127160   4.735   6.313   8.065 -3.2495  1.6788  2.2161
 1867TIP3    H227161   4.724   6.428   7.967  0.2645  0.3027  0.0151
 1868TIP3   OH227162   5.531   2.948   7.498  0.3425 -0.2976 -0.2980
 1868TIP3    H127163   5.507   2.915   7.585 -2.2926  0.1833 -0.7656
 1868TIP3    H227164   5.624   2.969   7.505 -0.1337  1.4093  3.0081
 1869TIP3   OH227165   6.705   6.430   8.009  0.8387  0.2029 -0.3263
 1869TIP3    H127166   6.738   6.422   7.919  2.9878  0.2076  0.3971
 1869TIP3    H227167   6.738   6.352   8.053 -0.1989  0.1977  0.4794
 1870TIP3   OH227168   0.917   6.393   7.489 -0.2517 -0.0944  0.1998
 1870TIP3    H127169   0.922   6.345   7.571  0.5393 -0.3769 -0.0094
 1870TIP3    H227170   0.997   6.369   7.442 -0.7930 -0.1006 -0.7406
 1871TIP3   OH227171   5.414   4.065   6.624  0.3851  0.2275 -0.0594
 1871TIP3    H127172   5.419   4.013   6.704 -0.0693  1.3610  0.7343
 1871TIP3    H227173   5.396   4.154   6.654 -1.1165  0.4528 -1.4839
 1872TIP3   OH227174   2.740   6.680   8.108  0.0552 -0.3088 -0.0005
 1872TIP3    H127175   2.726   6.772   8.129  0.5427  0.3946 -2.4019
 1872TIP3    H227176   2.696   6.632   8.178 -1.4080  1.7487  0.5888
 1873TIP3   OH227177   2.556   2.622   8.177 -0.4427 -0.0165  0.3647
 1873TIP3    H127178   2.609   2.557   8.223  0.3845  0.1814 -0.2914
 1873TIP3    H227179   2.546   2.693   8.240  0.0602 -0.0601  0.4967
 1874TIP3   OH227180   4.401   6.098   7.821 -0.3081 -0.3473  0.4557
 1874TIP3    H127181   4.338   6.169   7.809  0.2574  0.0170 -0.4867
 1874TIP3    H227182   4.347   6.022   7.841 -0.9932  0.1216  0.4469
 1875TIP3   OH227183   5.458   0.206   1.726 -0.3761 -0.4073 -0.1274
 1875TIP3    H127184   5.386   0.145   1.712  0.4752 -2.3250  2.8900
 1875TIP3    H227185   5.512   0.165   1.793  2.0705  2.2229 -0.2682
 1876TIP3   OH227186   0.306   1.037   6.031 -0.3174 -0.0115 -1.2161
 1876TIP3    H127187   0.377   0.973   6.038 -1.4544 -1.3739 -1.6004
 1876TIP3    H227188   0.263   1.035   6.116  1.9108  3.1526  0.1663
 1877TIP3   OH227189   2.220   3.671   1.912 -0.0031  0.6613 -0.0432
 1877TIP3    H127190   2.222   3.579   1.937  0.6863  0.4811 -0.7129
 1877TIP3    H227191   2.197   3.718   1.993  0.1851 -0.0486  0.4299
 1878TIP3   OH227192   2.313   6.708   1.330 -0.2054  0.0751  0.2890
 1878TIP3    H127193   2.374   6.767   1.287  0.6930 -0.7440  0.3975
 1878TIP3    H227194   2.252   6.765   1.377 -0.4328  0.9373 -1.0283
 1879TIP3   OH227195   2.822   4.711   0.179  0.0328 -0.3176 -0.1578
 1879TIP3    H127196   2.756   4.723   0.248  1.4562 -1.4554  1.5098
 1879TIP3    H227197   2.829   4.796   0.137 -0.3725  0.6496  1.6234
 1880TIP3   OH227198   4.985   3.621   0.532 -0.2901 -0.3845  0.1555
 1880TIP3    H127199   5.016   3.591   0.617  0.6615 -0.5961 -0.2399
 1880TIP3    H227200   4.958   3.711   0.546 -1.3185 -0.8019  0.9433
 1881TIP3   OH227201   5.535   2.384   1.075  1.0829 -0.0107 -0.4108
 1881TIP3    H127202   5.539   2.288   1.069  0.3673  0.0197 -1.5307
 1881TIP3    H227203   5.454   2.401   1.124  1.8168  0.0112  0.8399
 1882TIP3   OH227204   1.664   0.474   8.367 -0.1053  0.3091  0.2293
 1882TIP3    H127205   1.595   0.448   8.306  1.7547 -1.9469 -1.0832
 1882TIP3    H227206   1.673   0.399   8.426  2.2892 -0.2067 -0.6946
 1883TIP3   OH227207   4.770   1.371   1.620  0.2932  0.2595  0.2466
 1883TIP3    H127208   4.846   1.319   1.593 -0.4495 -0.2398 -0.9510
 1883TIP3    H227209   4.722   1.314   1.680 -1.6903 -1.4636 -2.7134
 1884TIP3   OH227210   0.693   6.695   0.298 -0.6356  0.4954 -0.2541
 1884TIP3    H127211   0.634   6.765   0.326 -0.4726  1.2816 -1.8058
 1884TIP3    H227212   0.768   6.740   0.260  0.2204 -0.5168  0.1800
 1885TIP3   OH227213   0.150   0.820   1.040 -0.8984 -0.3797 -0.5117
 1885TIP3    H127214   0.175   0.807   0.949 -1.8674  0.1903 -0.8761
 1885TIP3    H227215   0.135   0.915   1.047 -0.0395 -0.3010  0.4527
 1886TIP3   OH227216   5.048   5.452   1.898  0.1013  0.6549 -0.6792
 1886TIP3    H127217   5.029   5.405   1.817 -1.6217  1.6882 -0.9380
 1886TIP3    H227218   5.032   5.388   1.967  0.7554  0.0082 -1.1136
 1887TIP3   OH227219   6.658   2.291   7.899  0.1106  0.7379  0.0436
 1887TIP3    H127220   6.609   2.343   7.835 -0.5363 -1.0990 -1.0106
 1887TIP3    H227221   6.749   2.296   7.868 -0.1140  0.3304 -0.7080
 1888TIP3   OH227222   2.136   0.909   1.438 -0.5742 -0.5140  0.3580
 1888TIP3    H127223   2.109   0.971   1.506  0.1621 -0.3257  0.4872
 1888TIP3    H227224   2.196   0.849   1.483  0.4613  0.0244 -0.2599
 1889TIP3   OH227225   2.994   3.256   7.827 -0.3166 -0.1008 -0.2632
 1889TIP3    H127226   2.903   3.257   7.855 -0.1890 -1.7340  0.2980
 1889TIP3    H227227   2.990   3.232   7.734 -0.4268 -1.5791  0.0942
 1890TIP3   OH227228   6.181   6.629   7.895 -0.4933 -0.1787 -0.4865
 1890TIP3    H127229   6.169   6.565   7.825 -0.7854  0.4048 -0.9789
 1890TIP3    H227230   6.254   6.595   7.947 -0.0805 -0.4675 -1.2429
 1891TIP3   OH227231   2.563   2.673   1.323  0.5925  0.1145 -0.1613
 1891TIP3    H127232   2.564   2.666   1.418  0.1898 -0.6275 -0.2053
 1891TIP3    H227233   2.611   2.754   1.304 -1.5688  1.7172  0.8017
 1892TIP3   OH227234   5.908   6.314   8.122 -0.5913  0.0501  0.0913
 1892TIP3    H127235   5.851   6.239   8.104 -0.4363 -0.0127 -0.1552
 1892TIP3    H227236   5.896   6.370   8.045 -0.5079  0.1512  0.1540
 1893TIP3   OH227237   1.644   6.827   8.416  0.0844 -0.1796 -0.2744
 1893TIP3    H127238   1.618   6.883   8.489 -0.4372 -0.0125 -0.5812
 1893TIP3    H227239   1.626   6.738   8.447 -1.6224 -0.0399 -0.7447
 1894TIP3   OH227240   1.868   3.094   6.941 -0.0113 -0.1680  0.2479
 1894TIP3    H127241   1.818   3.040   7.002  0.2669  0.6284  1.1943
 1894TIP3    H227242   1.802   3.127   6.879 -0.8306  1.4371  1.8873
 1895TIP3   OH227243   5.440   3.678   2.539  0.1580 -0.0748  0.9962
 1895TIP3    H127244   5.415   3.770   2.546 -0.5171 -0.1060 -0.5983
 1895TIP3    H227245   5.362   3.630   2.569 -0.4107 -0.1285 -0.4893
 1896TIP3   OH227246   1.321   6.830   1.651 -0.2476  0.0924 -0.1158
 1896TIP3    H127247   1.375   6.778   1.711 -0.7678 -0.1800  0.1195
 1896TIP3    H227248   1.301   6.771   1.579 -1.8201 -0.4386  0.7094
 1897TIP3   OH227249   2.004   1.308   0.663 -0.8108 -0.4119 -0.0613
 1897TIP3    H127250   2.051   1.245   0.608  0.3064  1.7242 -1.6733
 1897TIP3    H227251   1.924   1.262   0.688 -1.0666 -1.7681 -2.9336
 1898TIP3   OH227252   3.888   2.970   8.170  0.1105  0.1149 -0.6360
 1898TIP3    H127253   3.951   2.934   8.232 -1.1392 -0.9905  0.0574
 1898TIP3    H227254   3.857   3.051   8.211 -0.6072 -0.5401  0.1593
 1899TIP3   OH227255   1.378   5.508   1.148 -0.0134  0.0377  0.1421
 1899TIP3    H127256   1.425   5.591   1.161  0.4278 -0.0286 -0.9749
 1899TIP3    H227257   1.377   5.468   1.235  1.6933  0.2052  0.2734
 1900TIP3   OH227258   3.697   1.852   1.754 -0.0181 -0.2966 -0.2434
 1900TIP3    H127259   3.685   1.807   1.838  0.6102 -0.9868 -0.5173
 1900TIP3    H227260   3.717   1.783   1.692  2.1765  0.4239 -0.4329
 1901TIP3   OH227261   4.704   3.060   7.291  0.3842  0.0060 -0.2407
 1901TIP3    H127262   4.671   3.099   7.211 -0.3227  0.5891  0.3239
 1901TIP3    H227263   4.760   3.127   7.330  0.0069  0.0657  0.2052
 1902TIP3   OH227264   2.729   6.618   0.608  0.1294  0.7593  0.2426
 1902TIP3    H127265   2.721   6.693   0.550 -0.4988 -0.0422 -0.7237
 1902TIP3    H227266   2.781   6.555   0.559 -1.3586 -0.3775  0.0619
 1903TIP3   OH227267   0.388   2.046   0.570 -0.7269  0.3533  0.1666
 1903TIP3    H127268   0.377   2.134   0.534  0.8563 -0.1325 -1.6898
 1903TIP3    H227269   0.427   1.995   0.498 -0.3703 -1.5206  1.6023
 1904TIP3   OH227270   2.746   2.492   7.570  0.6305 -0.0295  0.1373
 1904TIP3    H127271   2.733   2.505   7.476 -0.9743 -0.6872  0.2398
 1904TIP3    H227272   2.805   2.417   7.576  1.1975  0.3634 -0.3266
 1905TIP3   OH227273   4.294   4.806   1.462  0.6574  0.3335  0.0545
 1905TIP3    H127274   4.269   4.898   1.463 -0.1338  0.2114 -2.2424
 1905TIP3    H227275   4.378   4.804   1.416  0.1881 -0.1651 -0.8045
 1906TIP3   OH227276   1.351   5.640   0.795  0.8779  0.2961 -0.1657
 1906TIP3    H127277   1.371   5.699   0.722  0.0280  0.4899 -0.2539
 1906TIP3    H227278   1.344   5.553   0.755  0.6074  0.3718 -0.2816
 1907TIP3   OH227279   0.423   1.272   1.150  0.1256  0.1726  0.5747
 1907TIP3    H127280   0.344   1.223   1.175 -0.4442 -0.2736 -1.8224
 1907TIP3    H227281   0.463   1.219   1.081  0.8015  1.9295 -0.4289
 1908TIP3   OH227282   1.391   5.058   0.934 -0.3515  0.6656 -0.5448
 1908TIP3    H127283   1.446   5.095   0.865  0.3730  0.6683  0.0317
 1908TIP3    H227284   1.405   4.963   0.927 -0.5461  0.6414 -0.6209
 1909TIP3   OH227285   2.195   6.592   1.866  0.3227  0.4464  0.1592
 1909TIP3    H127286   2.103   6.588   1.840  0.4408 -0.0202 -0.1985
 1909TIP3    H227287   2.196   6.652   1.941 -0.6411 -1.5056  1.8153
 1910TIP3   OH227288   6.052   2.077   0.498 -0.4670 -0.2110 -0.4452
 1910TIP3    H127289   6.074   2.025   0.421 -1.6368 -0.5799 -0.5502
 1910TIP3    H227290   6.068   2.168   0.472  0.5595 -0.4304 -0.6163
 1911TIP3   OH227291   2.328   3.805   1.716  0.1599 -0.0036  0.6486
 1911TIP3    H127292   2.382   3.878   1.746 -1.1206  0.7790  1.1356
 1911TIP3    H227293   2.313   3.752   1.793  0.0987 -0.1223  0.5552
 1912TIP3   OH227294   3.741   6.097   0.482  0.0139 -0.3137  0.0841
 1912TIP3    H127295   3.703   6.184   0.476 -0.1605 -0.4824 -1.9591
 1912TIP3    H227296   3.669   6.037   0.462  0.7684 -0.7384 -1.5589
 1913TIP3   OH227297   5.465   4.113   1.101  0.5367  0.5333  0.2650
 1913TIP3    H127298   5.376   4.091   1.075  0.8565 -0.6116  0.0849
 1913TIP3    H227299   5.520   4.046   1.059  1.4890  1.2708  0.2973
 1914TIP3   OH227300   0.239   6.003   1.114  0.8622 -0.0689 -0.4162
 1914TIP3    H127301   0.275   5.991   1.026  0.8016 -1.1992 -0.3067
 1914TIP3    H227302   0.214   6.095   1.118  1.5269  0.1611 -1.3283
 1915TIP3   OH227303   5.044   2.072   0.422 -0.0282 -0.3819 -0.3488
 1915TIP3    H127304   5.081   2.161   0.427 -1.6996  0.2843  1.9418
 1915TIP3    H227305   5.062   2.035   0.508 -2.5786 -0.8571  0.0482
 1916TIP3   OH227306   0.923   5.904   7.818  0.0868  0.0950 -0.1735
 1916TIP3    H127307   0.945   5.907   7.725 -0.7103  0.0920 -0.3708
 1916TIP3    H227308   0.940   5.993   7.849 -0.6796  0.3883 -0.5731
 1917TIP3   OH227309   3.382   0.594   7.678 -0.3740  0.3223  0.1973
 1917TIP3    H127310   3.465   0.550   7.692 -0.5325  0.4318  1.6214
 1917TIP3    H227311   3.325   0.561   7.747 -1.2669  0.8567 -0.2626
 1918TIP3   OH227312   0.314   1.761   2.627 -0.0016  0.1479  0.0625
 1918TIP3    H127313   0.291   1.846   2.590 -1.1223 -0.3517 -0.4561
 1918TIP3    H227314   0.409   1.754   2.618  0.0937  1.3186  0.0862
 1919TIP3   OH227315   5.536   5.688   2.420  0.5534 -0.3724  0.9858
 1919TIP3    H127316   5.549   5.693   2.514  2.7074 -0.5285  0.7544
 1919TIP3    H227317   5.521   5.595   2.402 -1.2960 -0.1636  1.2887
 1920TIP3   OH227318   3.008   5.501   8.347  0.2486 -0.2308  0.4773
 1920TIP3    H127319   2.961   5.491   8.264  0.6224  2.0722 -0.0870
 1920TIP3    H227320   3.065   5.425   8.352 -0.9705 -1.2587 -0.5487
 1921TIP3   OH227321   0.888   6.115   6.497  0.3164  0.4887 -0.4014
 1921TIP3    H127322   0.795   6.118   6.478  0.5624  0.1042 -1.7791
 1921TIP3    H227323   0.908   6.200   6.536 -0.6892  0.3885  0.3609
 1922TIP3   OH227324   1.395   3.394   1.674  0.2847 -0.0180 -0.5898
 1922TIP3    H127325   1.418   3.484   1.698  0.5771 -0.4533  0.8926
 1922TIP3    H227326   1.419   3.387   1.582 -1.3144  1.9141 -1.2142
 1923TIP3   OH227327   5.114   1.611   8.539 -0.1437 -0.1932  0.3819
 1923TIP3    H127328   5.094   1.604   8.446  0.1447  0.7788  0.2413
 1923TIP3    H227329   5.123   1.520   8.568  3.3661 -0.5533 -1.2995
 1924TIP3   OH227330   3.048   2.395   1.929  0.0870 -0.1774 -0.0900
 1924TIP3    H127331   3.094   2.322   1.970  1.1514 -0.1066 -1.0996
 1924TIP3    H227332   2.955   2.372   1.936  0.2856 -0.6085  1.4659
 1925TIP3   OH227333   4.959   0.924   1.274 -0.1136 -0.0187 -0.1630
 1925TIP3    H127334   4.932   0.869   1.348  1.8860  0.3057  0.8747
 1925TIP3    H227335   5.036   0.880   1.239 -0.4724  0.3676 -1.4636
 1926TIP3   OH227336   3.689   3.956   2.060  0.1625 -0.3291  0.2535
 1926TIP3    H127337   3.716   4.026   2.119 -1.6345  0.6090  0.0324
 1926TIP3    H227338   3.623   3.996   2.004  1.6689 -1.2098 -2.3341
 1927TIP3   OH227339   0.909   2.910   0.039  0.3844 -0.2494 -0.1928
 1927TIP3    H127340   1.001   2.898   0.015  0.3445 -2.4745  0.5791
 1927TIP3    H227341   0.907   2.901   0.134 -0.7083 -0.8379 -0.2526
 1928TIP3   OH227342   3.287   3.984   0.620 -0.1284  0.2249 -0.5704
 1928TIP3    H127343   3.258   3.979   0.711 -1.1369 -0.8532 -0.9258
 1928TIP3    H227344   3.324   3.897   0.602  0.8666  0.7084 -0.9406
 1929TIP3   OH227345   3.139   1.042   1.479  0.4087  0.0468  0.4461
 1929TIP3    H127346   3.088   1.104   1.532  1.4768  0.8050  0.6269
 1929TIP3    H227347   3.089   1.033   1.398 -0.4915  0.0273  0.9819
 1930TIP3   OH227348   4.375   3.941   6.529 -0.1963 -0.7988 -0.4830
 1930TIP3    H127349   4.321   3.880   6.578  0.8362 -0.0847  1.6660
 1930TIP3    H227350   4.328   4.024   6.532  0.2101 -0.5795 -0.0705
 1931TIP3   OH227351   4.749   4.909   7.989 -0.0660 -0.2522  0.3544
 1931TIP3    H127352   4.737   4.984   7.931 -0.7130 -0.8839 -0.3367
 1931TIP3    H227353   4.679   4.849   7.966  0.4852 -1.1066  0.8596
 1932TIP3   OH227354   6.320   2.488   7.645  0.1883 -0.0517  0.0103
 1932TIP3    H127355   6.267   2.433   7.586  1.0366 -0.2344 -0.5903
 1932TIP3    H227356   6.305   2.450   7.732 -0.1602 -0.4981 -0.2368
 1933TIP3   OH227357   0.773   5.280   0.588  0.1104  0.1610 -0.3971
 1933TIP3    H127358   0.713   5.225   0.537  1.1081  0.3296 -1.8357
 1933TIP3    H227359   0.845   5.298   0.527  1.7889 -0.3085  1.3770
 1934TIP3   OH227360   0.328   6.430   6.472  0.2557  0.2462 -0.2983
 1934TIP3    H127361   0.380   6.351   6.487 -0.9448 -0.2635  1.4031
 1934TIP3    H227362   0.353   6.489   6.543 -0.7504  0.3758 -0.0392
 1935TIP3   OH227363   0.908   2.249   6.729  0.0827  0.8869 -0.2415
 1935TIP3    H127364   0.940   2.164   6.756  0.3292  0.9258 -0.4129
 1935TIP3    H227365   0.936   2.259   6.638  0.4447  1.3388 -0.0861
 1936TIP3   OH227366   1.087   3.000   1.709 -0.0117  0.1497 -0.1428
 1936TIP3    H127367   1.100   3.091   1.734  1.6928 -0.1575  0.2348
 1936TIP3    H227368   1.103   2.951   1.790  0.7751 -0.5692 -0.7183
 1937TIP3   OH227369   3.661   4.105   0.181 -0.6910 -0.0213 -0.3908
 1937TIP3    H127370   3.725   4.155   0.232  1.6761 -0.9009 -2.3131
 1937TIP3    H227371   3.603   4.171   0.144 -1.5108  0.7383  2.0874
 1938TIP3   OH227372   2.719   5.257   7.222 -0.1374 -0.3125 -0.0668
 1938TIP3    H127373   2.717   5.279   7.315  0.6315  0.0891 -0.1355
 1938TIP3    H227374   2.811   5.269   7.197 -0.6202  1.2019 -1.2518
 1939TIP3   OH227375   3.184   4.515   2.265  0.2249 -0.0635 -0.3046
 1939TIP3    H127376   3.186   4.545   2.175 -0.7783  0.1241 -0.2829
 1939TIP3    H227377   3.144   4.429   2.261 -3.6001  1.4832  0.2687
 1940TIP3   OH227378   1.385   4.903   7.631  0.1838 -0.3326 -0.4684
 1940TIP3    H127379   1.358   4.836   7.568  0.5487 -0.4411 -0.5109
 1940TIP3    H227380   1.450   4.955   7.584 -1.4032  1.2103 -1.0839
 1941TIP3   OH227381   2.733   3.283   0.951 -0.2289  0.1910  0.4867
 1941TIP3    H127382   2.688   3.358   0.913 -0.1707 -0.3501 -0.6961
 1941TIP3    H227383   2.825   3.309   0.955 -0.1263  0.0084 -0.4171
 1942TIP3   OH227384   1.219   5.199   7.233 -0.3925 -0.1474 -0.2386
 1942TIP3    H127385   1.166   5.174   7.158  0.5410  0.1419 -1.0066
 1942TIP3    H227386   1.291   5.251   7.197  0.4555 -0.5678  0.7643
 1943TIP3   OH227387   0.194   0.122   0.994  0.8799  0.1514  0.1427
 1943TIP3    H127388   0.201   0.106   0.900 -0.1126  0.1881  0.0601
 1943TIP3    H227389   0.114   0.077   1.021 -0.9582  3.2355  0.2678
 1944TIP3   OH227390   6.830   0.223   8.117  0.5264  0.0790  0.2608
 1944TIP3    H127391   6.778   0.259   8.189  0.7447  0.0379  0.4391
 1944TIP3    H227392   6.856   0.136   8.147  1.2070  0.3388  0.4180
 1945TIP3   OH227393   4.829   0.723   1.463 -0.2756 -0.4604  0.0093
 1945TIP3    H127394   4.734   0.715   1.460 -0.3554  0.4765 -0.2219
 1945TIP3    H227395   4.859   0.639   1.496 -1.0420 -1.5137 -1.8645
 1946TIP3   OH227396   5.365   5.930   1.321 -0.0634 -0.1490 -0.5754
 1946TIP3    H127397   5.405   5.996   1.265 -0.6306  1.6772  1.0678
 1946TIP3    H227398   5.280   5.967   1.345  0.4767 -0.4319  2.1199
 1947TIP3   OH227399   4.853   0.508   8.406  1.0395  0.1838  0.5747
 1947TIP3    H127400   4.840   0.426   8.359 -3.7921  0.1834  1.4178
 1947TIP3    H227401   4.852   0.575   8.338 -1.6537 -0.1137  0.2234
 1948TIP3   OH227402   2.587   2.658   2.411 -0.1843 -0.1516 -0.3428
 1948TIP3    H127403   2.494   2.662   2.437 -0.3550 -0.5097 -0.8897
 1948TIP3    H227404   2.587   2.604   2.332  0.3479  0.8804 -1.0530
 1949TIP3   OH227405   2.636   6.054   1.650 -0.6223 -0.4663 -0.2959
 1949TIP3    H127406   2.557   6.042   1.702 -0.9074 -1.0659 -0.8469
 1949TIP3    H227407   2.700   6.091   1.711 -0.6809 -1.9413  0.7245
 1950TIP3   OH227408   3.555   2.382   0.475  0.3042 -0.5957  0.0759
 1950TIP3    H127409   3.545   2.435   0.397  1.7299 -0.7591 -0.2446
 1950TIP3    H227410   3.648   2.389   0.498  0.8445 -3.7823 -0.6169
 1951TIP3   OH227411   3.370   0.099   1.054 -0.0860  0.1698 -0.0644
 1951TIP3    H127412   3.402   0.027   1.108  0.5384  1.2481  1.0592
 1951TIP3    H227413   3.419   0.093   0.973 -0.1270 -0.7349 -0.0288
 1952TIP3   OH227414   5.044   4.904   1.962 -0.4546 -0.1719 -0.0894
 1952TIP3    H127415   5.020   4.967   2.031  0.0713 -0.4437  0.3394
 1952TIP3    H227416   5.051   4.820   2.007 -1.8623 -0.6925 -0.7820
 1953TIP3   OH227417   0.458   4.423   0.103  0.4824  0.2819  0.1468
 1953TIP3    H127418   0.512   4.369   0.161  0.8648  0.0614 -0.4027
 1953TIP3    H227419   0.520   4.461   0.041 -0.0843 -0.7371 -1.0950
 1954TIP3   OH227420   3.238   5.296   2.530  0.1135  0.1355  0.3213
 1954TIP3    H127421   3.270   5.241   2.601 -0.7731 -1.2302 -0.2766
 1954TIP3    H227422   3.274   5.383   2.547  0.5673 -0.3559  1.9705
 1955TIP3   OH227423   1.370   6.867   0.721 -0.1820  0.0044 -0.6394
 1955TIP3    H127424   1.345   6.940   0.664 -0.0286  2.1772  1.8425
 1955TIP3    H227425   1.457   6.841   0.691 -0.2914  0.7697 -1.6615
 1956TIP3   OH227426   6.168   0.588   2.109 -0.4420 -0.5172  0.0020
 1956TIP3    H127427   6.078   0.560   2.122 -0.8714  0.7050 -0.1839
 1956TIP3    H227428   6.161   0.682   2.091  0.6654 -0.8078 -2.2243
 1957TIP3   OH227429   2.059   0.441   1.479  0.2564 -0.0334 -0.1377
 1957TIP3    H127430   2.053   0.368   1.540  1.6888 -0.8947 -0.9750
 1957TIP3    H227431   2.114   0.505   1.523 -0.4005  0.2539  0.2919
 1958TIP3   OH227432   4.435   4.251   0.497  0.0854  0.1943 -0.0832
 1958TIP3    H127433   4.513   4.239   0.444  0.5530  1.4007  0.2861
 1958TIP3    H227434   4.363   4.216   0.444  0.8602 -0.9410 -0.4176
 1959TIP3   OH227435   1.909   0.665   6.717 -0.2066  0.1139  0.0810
 1959TIP3    H127436   1.818   0.636   6.715 -0.2774  0.1630  1.5755
 1959TIP3    H227437   1.959   0.593   6.679 -0.7400 -0.4967  0.5194
 1960TIP3   OH227438   1.149   4.593   8.147 -0.0023 -0.4463  0.2873
 1960TIP3    H127439   1.066   4.617   8.107  0.6111 -0.2346 -0.8905
 1960TIP3    H227440   1.196   4.676   8.157  0.4571 -0.6744  0.0508
 1961TIP3   OH227441   5.197   5.120   8.491  0.3556 -0.2914  0.4036
 1961TIP3    H127442   5.269   5.151   8.436  0.0647  0.9438  0.6798
 1961TIP3    H227443   5.225   5.140   8.580 -0.6727  0.9833  0.4611
 1962TIP3   OH227444   4.558   2.253   1.591  0.5068 -0.2291  0.3564
 1962TIP3    H127445   4.652   2.244   1.579  1.1593  3.6975  1.2777
 1962TIP3    H227446   4.544   2.244   1.685 -0.0130 -0.4594  0.2623
 1963TIP3   OH227447   6.551   5.347   1.344 -0.0121  0.4050  0.6809
 1963TIP3    H127448   6.611   5.422   1.344 -2.0510  2.1581  1.3427
 1963TIP3    H227449   6.495   5.361   1.268  0.1697 -0.9794  0.2817
 1964TIP3   OH227450   4.535   4.173   0.077 -0.1183  0.3892  0.4193
 1964TIP3    H127451   4.464   4.110   0.066  1.4722 -1.7302  1.6339
 1964TIP3    H227452   4.591   4.160  -0.000 -0.2007  0.9071  0.2671
 1965TIP3   OH227453   6.515   4.056   7.684  0.0676  0.1961  0.5684
 1965TIP3    H127454   6.473   3.979   7.646 -2.8272  0.9822  1.9005
 1965TIP3    H227455   6.444   4.102   7.730  1.6930  3.5680  0.0060
 1966TIP3   OH227456   4.730   6.567   1.847  0.3129 -0.1822 -0.4131
 1966TIP3    H127457   4.777   6.547   1.928  0.3387  0.0905 -0.3630
 1966TIP3    H227458   4.662   6.628   1.872  0.4399  0.0520 -0.6311
 1967TIP3   OH227459   2.917   6.366   2.084 -0.1211  0.5549 -0.7540
 1967TIP3    H127460   2.930   6.273   2.099 -0.7782  0.7741  1.4916
 1967TIP3    H227461   3.004   6.405   2.095  0.1446  0.2463 -1.6464
 1968TIP3   OH227462   1.691   2.674   1.185  0.0085  0.2328  0.0266
 1968TIP3    H127463   1.632   2.728   1.238 -1.2217  1.0381 -2.0159
 1968TIP3    H227464   1.633   2.625   1.127  1.2961 -0.4129 -0.7645
 1969TIP3   OH227465   4.947   2.429   2.960 -0.3949  0.4726  0.2594
 1969TIP3    H127466   5.022   2.450   2.905 -0.8419 -0.2945 -0.6612
 1969TIP3    H227467   4.892   2.507   2.958 -0.2572  0.5590 -0.1477
 1970TIP3   OH227468   1.490   4.317   7.070 -0.4026  0.1286 -0.5906
 1970TIP3    H127469   1.568   4.371   7.079 -0.3326  0.0969 -0.9584
 1970TIP3    H227470   1.420   4.379   7.047 -0.4795  0.1525 -0.2985
 1971TIP3   OH227471   4.701   2.138   6.985 -0.5625 -0.5223  0.2739
 1971TIP3    H127472   4.688   2.217   7.037  0.3443  0.5505 -1.0527
 1971TIP3    H227473   4.659   2.157   6.901  0.6915 -0.9485 -0.4826
 1972TIP3   OH227474   4.256   2.515   6.927 -0.4191 -0.3159  0.1777
 1972TIP3    H127475   4.234   2.579   6.860 -0.0746 -0.2558  0.1222
 1972TIP3    H227476   4.255   2.431   6.882 -0.2040 -0.2774  0.1017
 1973TIP3   OH227477   6.727   5.866   7.633 -0.1933 -0.1482  0.0202
 1973TIP3    H127478   6.792   5.873   7.563 -0.1225  0.6571  0.1636
 1973TIP3    H227479   6.777   5.878   7.713 -0.3387 -0.6821  0.1924
 1974TIP3   OH227480   3.296   2.602   8.004  0.1819 -0.7249 -0.2747
 1974TIP3    H127481   3.291   2.673   7.939 -2.6794  0.8400  1.4269
 1974TIP3    H227482   3.306   2.522   7.952  2.2509  0.7237 -2.3364
 1975TIP3   OH227483   0.949   0.547   1.736 -0.0197  0.8504 -0.1160
 1975TIP3    H127484   0.867   0.526   1.781  0.5404 -1.9942 -0.1928
 1975TIP3    H227485   0.923   0.596   1.658 -1.4524  1.5210  0.7605
 1976TIP3   OH227486   0.019   6.193   7.956 -0.6209  0.3372  0.0506
 1976TIP3    H127487  -0.023   6.118   7.997 -0.2182  0.9353  1.6086
 1976TIP3    H227488  -0.016   6.194   7.867 -1.3778 -1.1055  0.3057
 1977TIP3   OH227489   2.316   1.064   2.631  0.3475 -0.2360  0.3080
 1977TIP3    H127490   2.272   1.111   2.702  0.4430 -0.3148  0.4181
 1977TIP3    H227491   2.311   0.972   2.657 -0.5456 -0.3638 -0.2889
 1978TIP3   OH227492   1.160   1.584   1.820 -0.2191  0.1157  0.8513
 1978TIP3    H127493   1.064   1.592   1.821 -0.1471  1.0712  0.5591
 1978TIP3    H227494   1.192   1.671   1.842  0.6019 -0.8651  4.1474
 1979TIP3   OH227495   1.965   0.215   8.044 -0.3153 -0.3797 -0.2662
 1979TIP3    H127496   1.963   0.211   7.948 -0.0827  1.4754 -0.3858
 1979TIP3    H227497   1.890   0.269   8.067 -0.8667 -1.5158  0.6768
 1980TIP3   OH227498   5.339   5.691   1.627 -0.5145  0.0170 -0.1151
 1980TIP3    H127499   5.402   5.756   1.657 -1.2341  0.3509  0.6728
 1980TIP3    H227500   5.294   5.662   1.706  0.8296 -2.5843 -0.1897
 1981TIP3   OH227501   4.555   5.487   6.780  0.3837 -0.3481 -0.3762
 1981TIP3    H127502   4.649   5.504   6.781  0.3741 -0.3229  0.2318
 1981TIP3    H227503   4.546   5.401   6.739  0.6267 -0.0939 -0.9757
 1982TIP3   OH227504   1.154   3.981   8.135  0.5122  0.3512 -0.0484
 1982TIP3    H127505   1.197   4.041   8.075  0.5594  1.2722  0.8837
 1982TIP3    H227506   1.224   3.947   8.190  0.3890 -0.0681 -0.1440
 1983TIP3   OH227507   2.727   0.302   0.487 -0.4757  0.0171  0.1167
 1983TIP3    H127508   2.678   0.227   0.453 -0.6197  0.7247 -1.3168
 1983TIP3    H227509   2.727   0.365   0.415  0.0618  1.2033  1.1169
 1984TIP3   OH227510   5.442   4.118   8.104  0.4984  0.3589  0.0934
 1984TIP3    H127511   5.407   4.159   8.025  0.9882 -0.0558 -0.3430
 1984TIP3    H227512   5.374   4.058   8.133 -0.2054  1.4165  0.7032
 1985TIP3   OH227513   5.339   6.802   1.525  0.4882 -0.9360 -0.4419
 1985TIP3    H127514   5.320   6.772   1.436  0.3972 -1.9382 -0.1041
 1985TIP3    H227515   5.290   6.884   1.534  1.8053  0.0520 -1.8422
 1986TIP3   OH227516   5.749   0.187   7.376  0.2138  0.6540 -0.0360
 1986TIP3    H127517   5.714   0.201   7.289 -0.0115 -3.3710 -0.8156
 1986TIP3    H227518   5.681   0.137   7.421  1.8296 -0.6759  1.0585
 1987TIP3   OH227519   5.189   4.074   0.969 -0.8656  0.2018  0.1147
 1987TIP3    H127520   5.153   4.082   0.880  3.2476 -0.6538 -1.8643
 1987TIP3    H227521   5.191   3.980   0.985  1.9096  0.0310 -0.6868
 1988TIP3   OH227522   3.664   5.816   1.899 -0.3883 -0.8820 -0.0167
 1988TIP3    H127523   3.631   5.746   1.955  0.4000 -0.2896  1.2296
 1988TIP3    H227524   3.588   5.872   1.883 -0.3280 -0.2734  1.6804
 1989TIP3   OH227525   2.906   2.701   7.031  0.2199 -0.4228  0.1252
 1989TIP3    H127526   2.983   2.734   7.076  1.4568 -2.8379 -0.0410
 1989TIP3    H227527   2.832   2.735   7.081  1.3284  1.9855  0.2660
 1990TIP3   OH227528   0.094   6.207   0.562 -0.8483 -0.0048  0.1855
 1990TIP3    H127529   0.040   6.285   0.573 -0.2131  0.6009 -0.8410
 1990TIP3    H227530   0.098   6.194   0.467  1.0104  0.1215  0.2213
 1991TIP3   OH227531   1.059   3.849   0.083  0.0880  0.3021  0.1846
 1991TIP3    H127532   1.053   3.917   0.016 -1.1048 -0.5937 -0.6751
 1991TIP3    H227533   1.130   3.792   0.052  1.2976  1.2769  1.0654
 1992TIP3   OH227534   4.513   2.819   8.026  0.0498 -0.0769  0.8982
 1992TIP3    H127535   4.595   2.864   8.008 -1.5231  1.7900 -2.6892
 1992TIP3    H227536   4.462   2.882   8.077  0.0948 -0.4393  1.4022
 1993TIP3   OH227537   0.233   2.191   0.101  0.0571 -0.3965 -0.6460
 1993TIP3    H127538   0.203   2.248   0.031  0.5016  0.8559  0.1486
 1993TIP3    H227539   0.203   2.104   0.076 -0.6488  0.1810 -1.8819
 1994TIP3   OH227540   3.827   1.390   2.527 -0.0360 -0.1507  0.5011
 1994TIP3    H127541   3.788   1.476   2.546  1.9059  1.0668 -0.6468
 1994TIP3    H227542   3.871   1.402   2.442  0.6184 -2.1828  0.4956
 1995TIP3   OH227543   3.074   5.632   1.718 -0.0839 -0.5430  0.0323
 1995TIP3    H127544   3.165   5.647   1.741 -0.2715  0.9348 -0.0771
 1995TIP3    H227545   3.047   5.712   1.673 -1.9045 -0.2297  1.5486
 1996TIP3   OH227546   3.527   0.478   0.888  0.0548 -0.3642  0.0383
 1996TIP3    H127547   3.612   0.519   0.907 -0.0048  0.2564 -0.9479
 1996TIP3    H227548   3.464   0.535   0.932  0.0807 -0.2331 -0.0919
 1997TIP3   OH227549   6.152   6.643   1.754 -0.0877 -0.5640 -0.2581
 1997TIP3    H127550   6.112   6.567   1.713  0.4674 -1.1932  0.3452
 1997TIP3    H227551   6.186   6.695   1.681 -1.0624 -0.5489 -0.7090
 1998TIP3   OH227552   6.579   6.878   0.816  0.2250 -0.3451  0.0632
 1998TIP3    H127553   6.565   6.961   0.770 -1.2201  0.7173  2.2528
 1998TIP3    H227554   6.567   6.811   0.748  2.4636  1.1826 -1.9994
 1999TIP3   OH227555   6.044   4.687   2.054  0.1989 -0.4360  0.3354
 1999TIP3    H127556   6.086   4.648   2.130  0.0654  0.1386  0.7067
 1999TIP3    H227557   5.982   4.620   2.024  0.6895 -0.9070  0.3575
 2000TIP3   OH227558   0.793   5.676   6.356 -0.1114  0.4139  0.4954
 2000TIP3    H127559   0.880   5.653   6.388  0.4832  2.5710  0.6026
 2000TIP3    H227560   0.755   5.729   6.426 -1.3166 -0.0799  0.2295
 2001TIP3   OH227561   5.805   5.492   8.354 -0.3626  0.5556  0.2311
 2001TIP3    H127562   5.839   5.509   8.266 -0.0203 -0.3425  0.1834
 2001TIP3    H227563   5.719   5.536   8.355  0.0944  1.4812 -0.1773
 2002TIP3   OH227564   6.127   2.296   8.500 -0.7382 -0.0837 -0.3082
 2002TIP3    H127565   6.153   2.306   8.409  0.7425  2.0089  0.2635
 2002TIP3    H227566   6.083   2.211   8.504  1.8038 -1.6411 -2.3765
 2003TIP3   OH227567   3.337   4.714   1.101  0.0582 -0.3196  0.5201
 2003TIP3    H127568   3.351   4.666   1.020 -0.4815  0.5410 -0.0958
 2003TIP3    H227569   3.243   4.705   1.118 -0.3548  1.7948 -0.4437
 2004TIP3   OH227570   1.508   1.935   6.557 -0.3541  0.0548  0.4537
 2004TIP3    H127571   1.545   1.883   6.486  0.0610  0.2998  0.4868
 2004TIP3    H227572   1.506   1.875   6.632 -0.2859 -0.0426  0.3773
 2005TIP3   OH227573   0.793   5.996   0.431  0.3505  0.1789 -0.4523
 2005TIP3    H127574   0.716   5.950   0.465  0.5676 -0.3000 -0.6124
 2005TIP3    H227575   0.866   5.961   0.480  0.3241  1.6564  0.7201
 2006TIP3   OH227576   1.470   3.709   8.175 -0.6355 -0.6334 -0.6989
 2006TIP3    H127577   1.450   3.799   8.201  2.3837 -0.3748  1.2853
 2006TIP3    H227578   1.464   3.710   8.080 -0.8141  1.6499 -0.7344
 2007TIP3   OH227579   5.775   6.630   0.445 -0.3649  0.3789  0.5602
 2007TIP3    H127580   5.685   6.632   0.412 -0.5746 -1.2778  0.9622
 2007TIP3    H227581   5.824   6.582   0.379 -0.0883  0.0013  1.0312
 2008TIP3   OH227582   3.686   0.831   0.362 -0.4301 -0.3440  0.3437
 2008TIP3    H127583   3.702   0.815   0.455 -1.3761 -1.6041  0.3142
 2008TIP3    H227584   3.598   0.868   0.359  0.1932  1.1900  0.0545
 2009TIP3   OH227585   1.580   0.873   0.637  0.2213 -0.1593 -0.6456
 2009TIP3    H127586   1.616   0.929   0.568  2.9293  1.0262  1.5260
 2009TIP3    H227587   1.562   0.934   0.709  1.5096 -1.7830  1.1532
 2010TIP3   OH227588   1.158   5.494   0.046  0.1395  0.1453 -0.0448
 2010TIP3    H127589   1.068   5.487   0.012  0.0259  0.4303  0.1915
 2010TIP3    H227590   1.213   5.471  -0.029 -0.1584 -1.4981  0.2077
 2011TIP3   OH227591   0.717   0.440   0.461 -0.7038  0.0234  0.3939
 2011TIP3    H127592   0.808   0.463   0.442 -0.0967 -2.4526 -0.0700
 2011TIP3    H227593   0.723   0.360   0.514 -2.5895 -1.4603 -1.4733
 2012TIP3   OH227594   6.516   5.604   1.045  0.0397 -0.4462  0.3488
 2012TIP3    H127595   6.609   5.602   1.068  0.4418 -0.7187 -1.1820
 2012TIP3    H227596   6.470   5.591   1.128  1.3129  1.4042  1.4222
 2013TIP3   OH227597   2.515   0.158   6.798  0.8110  0.1997 -1.0096
 2013TIP3    H127598   2.446   0.217   6.826  1.3499 -0.3326  1.7297
 2013TIP3    H227599   2.471   0.095   6.740 -0.7808  0.4834 -0.1632
 2014TIP3   OH227600   3.499   6.631   0.556  0.4519 -0.0130  0.3514
 2014TIP3    H127601   3.521   6.715   0.598 -1.8648  0.0737  1.6082
 2014TIP3    H227602   3.480   6.654   0.465  1.7194  0.4758  0.1902
 2015TIP3   OH227603   5.543   4.643   7.408  0.7093  0.2824  0.0037
 2015TIP3    H127604   5.450   4.640   7.432  0.8780  1.2617  0.8255
 2015TIP3    H227605   5.566   4.551   7.392 -0.3248 -0.0013  0.0449
 2016TIP3   OH227606   5.045   6.445   8.527  0.4909 -0.1032  0.0269
 2016TIP3    H127607   5.020   6.386   8.456  1.0293 -1.2847  0.7812
 2016TIP3    H227608   5.040   6.391   8.606  0.4118  1.0367  0.8303
 2017TIP3   OH227609   3.293   5.505   7.648 -0.2237 -0.2110  0.0214
 2017TIP3    H127610   3.254   5.545   7.726 -1.4957 -3.1596  1.0522
 2017TIP3    H227611   3.351   5.437   7.682  0.5192 -0.4467 -1.6103
 2018TIP3   OH227612   6.201   0.120   1.069 -0.6241 -0.1907  0.0322
 2018TIP3    H127613   6.206   0.214   1.088  0.6831  0.1552 -1.7030
 2018TIP3    H227614   6.107   0.102   1.060 -0.8672  1.1183 -0.2911
 2019TIP3   OH227615   2.881   0.277   7.829  0.3708  0.3203 -0.2031
 2019TIP3    H127616   2.845   0.299   7.915  2.1119  0.4252  0.5430
 2019TIP3    H227617   2.829   0.202   7.800  1.1526 -1.1875  1.9891
 2020TIP3   OH227618   1.489   5.139   1.572 -0.4234 -0.1529  0.1214
 2020TIP3    H127619   1.519   5.160   1.484 -2.2114  0.2742 -0.4212
 2020TIP3    H227620   1.547   5.189   1.630 -0.3830  1.0175 -0.8944
 2021TIP3   OH227621   0.159   1.226   2.394 -0.7843  0.2286 -0.3844
 2021TIP3    H127622   0.213   1.206   2.470 -1.6431 -0.1630  0.1413
 2021TIP3    H227623   0.109   1.304   2.419  0.8716  1.7434 -1.5691
 2022TIP3   OH227624   0.056   2.995   6.819  0.6852 -0.9120  0.4445
 2022TIP3    H127625   0.111   2.934   6.771 -0.3273 -1.4392 -0.0769
 2022TIP3    H227626  -0.033   2.962   6.808  0.2893 -0.3205  1.6185
 2023TIP3   OH227627   5.767   4.463   2.167 -0.2972  0.1640 -0.0371
 2023TIP3    H127628   5.710   4.389   2.147 -0.4552 -0.2674  1.8000
 2023TIP3    H227629   5.822   4.473   2.089 -1.2488 -0.9528 -0.8874
 2024TIP3   OH227630   0.904   5.098   8.184 -0.2247  0.2415  0.4412
 2024TIP3    H127631   0.982   5.095   8.241  0.2844 -3.3253 -0.1898
 2024TIP3    H227632   0.934   5.141   8.104  1.0666 -0.7811  0.3393
 2025TIP3   OH227633   3.974   1.448   2.271 -0.6264  0.4845 -0.3547
 2025TIP3    H127634   4.068   1.466   2.271 -0.1433 -1.4071  2.0784
 2025TIP3    H227635   3.961   1.389   2.197  0.0201  0.9935 -0.8890
 2026TIP3   OH227636   6.267   4.215   0.958  0.0211  0.3289 -0.6496
 2026TIP3    H127637   6.292   4.308   0.964 -1.2665  0.6808 -0.4430
 2026TIP3    H227638   6.182   4.216   0.914 -0.1676 -0.7354 -0.3389
 2027TIP3   OH227639   4.544   3.318   7.712  0.7991 -0.0050 -0.0033
 2027TIP3    H127640   4.489   3.285   7.640  1.1433  1.8568 -1.1693
 2027TIP3    H227641   4.519   3.409   7.721  3.0329  0.6478  0.0569
 2028TIP3   OH227642   1.361   6.058   0.720  0.4271 -0.2174 -0.1264
 2028TIP3    H127643   1.307   6.059   0.799  0.8340  0.4900  0.1548
 2028TIP3    H227644   1.449   6.077   0.752  0.9047 -1.6196 -0.5436
 2029TIP3   OH227645   2.800   3.162   0.327  0.2671 -0.4727 -0.4988
 2029TIP3    H127646   2.791   3.159   0.232 -0.1907  0.0934 -0.4767
 2029TIP3    H227647   2.872   3.102   0.346 -0.9139 -2.1205 -1.0294
 2030TIP3   OH227648   6.775   5.781   7.209 -0.2977 -0.4650 -0.0057
 2030TIP3    H127649   6.688   5.741   7.218 -0.3417 -0.7058 -1.2349
 2030TIP3    H227650   6.797   5.768   7.117  0.1914  1.3485 -0.1845
 2031TIP3   OH227651   0.606   2.198   6.908  0.1964 -0.1949 -0.1309
 2031TIP3    H127652   0.517   2.181   6.878  0.2707  0.3049 -0.6538
 2031TIP3    H227653   0.635   2.273   6.856  0.6386  0.1476  0.5878
 2032TIP3   OH227654   5.111   3.125   7.650  0.0253 -0.8743 -0.3402
 2032TIP3    H127655   5.094   3.219   7.649  0.6745 -0.7615 -1.4340
 2032TIP3    H227656   5.119   3.103   7.743  1.5818  0.4629 -0.1286
 2033TIP3   OH227657   5.533   5.648   1.267  0.3771  0.9346  0.2652
 2033TIP3    H127658   5.610   5.608   1.308  0.3370  0.9223  0.3299
 2033TIP3    H227659   5.458   5.603   1.307  0.3698 -1.2164 -1.9770
 2034TIP3   OH227660   6.805   0.530   2.290 -0.1728 -0.3996 -0.4398
 2034TIP3    H127661   6.892   0.524   2.251  0.3917  0.0624  0.7048
 2034TIP3    H227662   6.785   0.624   2.289  0.0747 -0.3162  0.8151
 2035TIP3   OH227663   1.132   4.124   2.116  0.9061  0.2033 -0.4091
 2035TIP3    H127664   1.119   4.037   2.154 -2.3140 -0.5769 -2.8665
 2035TIP3    H227665   1.227   4.133   2.109  1.3722 -2.8187  0.5174
 2036TIP3   OH227666   3.560   1.639   6.833  0.0921 -0.2263 -0.2932
 2036TIP3    H127667   3.632   1.645   6.770 -0.4571  0.4918 -0.8713
 2036TIP3    H227668   3.563   1.722   6.881  0.6532 -0.8605  0.8220
 2037TIP3   OH227669   0.057   4.571   7.767 -0.2610 -0.1718 -0.0916
 2037TIP3    H127670  -0.032   4.606   7.775  0.1123  0.5919  0.9700
 2037TIP3    H227671   0.112   4.647   7.747  0.2164 -0.5563 -0.2611
 2038TIP3   OH227672   2.437   5.998   0.276  0.6243 -0.4318  0.7013
 2038TIP3    H127673   2.353   6.033   0.247  1.4011  0.0854 -1.0124
 2038TIP3    H227674   2.485   5.980   0.195  1.8489 -1.5173  1.6328
 2039TIP3   OH227675   2.606   0.807   2.289 -0.8770 -0.2291  0.0946
 2039TIP3    H127676   2.588   0.864   2.214 -0.5670  0.3292  0.4384
 2039TIP3    H227677   2.535   0.743   2.288  0.3443 -1.7001 -2.0640
 2040TIP3   OH227678   1.567   5.348   8.406  0.0289 -0.0921  0.2997
 2040TIP3    H127679   1.479   5.336   8.443 -0.5696  0.2122 -0.9666
 2040TIP3    H227680   1.556   5.330   8.313  1.4087 -0.4480  0.1843
 2041TIP3   OH227681   2.043   5.441   0.538 -0.5711 -0.6428  0.5492
 2041TIP3    H127682   2.107   5.395   0.483  0.1397  0.0187  0.8048
 2041TIP3    H227683   1.960   5.429   0.492 -0.2367 -1.3287  0.0901
 2042TIP3   OH227684   0.883   6.340   1.330  0.2990  0.1422  0.2088
 2042TIP3    H127685   0.794   6.375   1.323 -0.0585 -1.0650 -2.1562
 2042TIP3    H227686   0.883   6.291   1.413 -0.9007  0.9846  0.7388
 2043TIP3   OH227687   4.336   5.981   8.367  0.0021  0.4719  0.2083
 2043TIP3    H127688   4.319   6.055   8.308  1.8666 -1.7056 -3.4573
 2043TIP3    H227689   4.265   5.983   8.430 -1.1441  4.1400 -0.9508
 2044TIP3   OH227690   6.411   3.689   0.408 -0.2982 -0.1813 -0.0972
 2044TIP3    H127691   6.410   3.647   0.322 -0.6809 -1.0868  0.3390
 2044TIP3    H227692   6.504   3.705   0.426 -0.2906  1.4253 -1.3305
 2045TIP3   OH227693   2.793   5.198   1.044 -0.6707 -0.1566 -0.3482
 2045TIP3    H127694   2.793   5.170   0.952  1.0389 -1.3955 -0.0207
 2045TIP3    H227695   2.846   5.132   1.089  0.6427  1.7741  1.1116
 2046TIP3   OH227696   4.125   0.355   8.487  0.2173 -0.0929  0.2877
 2046TIP3    H127697   4.129   0.404   8.404  0.8550 -0.7279 -0.0717
 2046TIP3    H227698   4.149   0.419   8.554 -2.4740  1.0337  0.2872
 2047TIP3   OH227699   1.915   2.860   6.397  0.1973 -0.2418  0.2226
 2047TIP3    H127700   1.902   2.948   6.362 -0.7459 -0.3456  0.2954
 2047TIP3    H227701   2.006   2.839   6.374  0.4077  0.7127  0.1381
 2048TIP3   OH227702   6.703   0.095   7.695 -0.0664 -0.1662 -0.2096
 2048TIP3    H127703   6.729   0.127   7.608 -2.8192 -1.1658 -1.5270
 2048TIP3    H227704   6.634   0.154   7.722 -0.0628 -0.5961  0.7583
 2049TIP3   OH227705   2.929   5.842   7.138  0.2256 -0.2506  0.1173
 2049TIP3    H127706   3.005   5.836   7.196 -1.0362 -0.2933  1.8453
 2049TIP3    H227707   2.966   5.864   7.053  2.2903 -1.7266  0.5588
 2050TIP3   OH227708   1.099   5.116   0.362  0.3357 -0.2949 -0.2058
 2050TIP3    H127709   1.151   5.100   0.441 -0.2063 -0.3397  0.1525
 2050TIP3    H227710   1.147   5.183   0.315  1.0495 -0.7922 -0.2035
 2051TIP3   OH227711   0.625   2.834   0.862  0.5262 -0.4049  0.3676
 2051TIP3    H127712   0.606   2.791   0.946 -0.4129  0.0609  0.4127
 2051TIP3    H227713   0.718   2.820   0.848  0.6958 -0.4730  1.5010
 2052TIP3   OH227714   4.583   5.653   1.755 -0.1057  0.8138  0.2902
 2052TIP3    H127715   4.562   5.738   1.794  0.2275  0.5567  1.0522
 2052TIP3    H227716   4.620   5.602   1.827 -2.6507 -0.8652  0.5389
 2053TIP3   OH227717   0.343   2.621   0.878 -0.1254 -0.0857  0.2388
 2053TIP3    H127718   0.397   2.699   0.886 -0.8401  0.3936  0.4422
 2053TIP3    H227719   0.253   2.654   0.873 -0.3848 -0.8518 -0.3894
 2054TIP3   OH227720   0.077   0.096   0.652  0.6448 -0.9605 -0.2355
 2054TIP3    H127721  -0.003   0.080   0.701  1.0790 -0.9728  0.4909
 2054TIP3    H227722   0.113   0.177   0.690  1.1025 -1.0910 -0.3797
 2055TIP3   OH227723   0.976   0.802   6.898 -0.9907 -0.0892  0.4076
 2055TIP3    H127724   0.962   0.851   6.979 -0.3520  1.1899 -0.2327
 2055TIP3    H227725   1.054   0.841   6.860 -1.8394 -0.0015 -1.3219
 2056TIP3   OH227726   6.414   6.539   8.013  0.9602  0.3671 -0.1696
 2056TIP3    H127727   6.443   6.480   7.944  0.9882  0.2453 -0.0566
 2056TIP3    H227728   6.491   6.552   8.068  2.0193  3.4140 -2.1492
 2057TIP3   OH227729   3.156   1.158   8.293  0.0304 -0.0961 -0.4330
 2057TIP3    H127730   3.240   1.119   8.273 -0.1464 -0.4668 -0.4660
 2057TIP3    H227731   3.135   1.213   8.217  0.5991  0.6131 -0.0865
 2058TIP3   OH227732   3.687   1.016   8.352 -0.3981  0.7340  0.1378
 2058TIP3    H127733   3.707   0.929   8.317  0.0786  0.8001  0.2449
 2058TIP3    H227734   3.751   1.030   8.422 -0.6830  1.0352  0.3461
 2059TIP3   OH227735   3.942   4.994   2.151 -0.1543  0.4072  0.6309
 2059TIP3    H127736   3.910   5.010   2.240  0.3308 -0.9214  1.0813
 2059TIP3    H227737   4.016   4.933   2.163 -0.0303  0.2707 -0.6739
 2060TIP3   OH227738   4.539   2.255   0.991  0.0767  0.0607  0.3531
 2060TIP3    H127739   4.546   2.301   0.908  1.6486 -0.0633  0.3933
 2060TIP3    H227740   4.518   2.323   1.055  0.1700  0.3602  0.0630
 2061TIP3   OH227741   5.516   5.930   1.557  0.5073  0.1335 -0.1090
 2061TIP3    H127742   5.461   5.913   1.481  0.9820  0.9400 -0.6498
 2061TIP3    H227743   5.538   6.023   1.551  2.8775 -0.3810 -0.5771
 2062TIP3   OH227744   5.802   4.557   8.303  0.5880  0.0331 -0.2365
 2062TIP3    H127745   5.830   4.640   8.341 -0.8987  0.2974  0.3463
 2062TIP3    H227746   5.742   4.581   8.233  0.1037 -0.5531 -0.0301
 2063TIP3   OH227747   3.889   6.697   7.017  0.0091  0.5529  0.0366
 2063TIP3    H127748   3.942   6.677   7.094 -0.6051 -1.2958  0.0081
 2063TIP3    H227749   3.934   6.653   6.945 -0.2396  1.0446 -0.4288
 2064TIP3   OH227750   0.276   4.797   6.482  0.7333 -0.1950  0.1531
 2064TIP3    H127751   0.332   4.733   6.526  0.2105 -0.2751  0.7235
 2064TIP3    H227752   0.315   4.808   6.396  2.4988  0.8404  1.0179
 2065TIP3   OH227753   2.537   3.235   8.348  0.0269 -0.4837 -0.3538
 2065TIP3    H127754   2.444   3.252   8.363 -0.5008 -3.4996  0.5492
 2065TIP3    H227755   2.581   3.283   8.418 -0.8793  0.6705 -0.5559
 2066TIP3   OH227756   1.723   4.385   6.649 -0.7243  0.0960  0.2396
 2066TIP3    H127757   1.791   4.429   6.598  0.5270 -1.4091  0.5522
 2066TIP3    H227758   1.657   4.453   6.664  0.9092  1.7374  0.3101
 2067TIP3   OH227759   2.814   1.704   7.092  0.2501 -0.2874 -0.1362
 2067TIP3    H127760   2.878   1.713   7.162  0.6979  0.4987 -0.6225
 2067TIP3    H227761   2.811   1.611   7.072 -0.1434 -0.5674  1.1541
 2068TIP3   OH227762   0.091   0.092   7.274  0.0023  0.3756  0.6670
 2068TIP3    H127763   0.062   0.074   7.184  0.9973  1.4824  0.0871
 2068TIP3    H227764   0.138   0.013   7.300  0.5906  0.4223 -0.1904
 2069TIP3   OH227765   1.213   0.668   1.781  0.0877 -0.2817  0.1397
 2069TIP3    H127766   1.138   0.610   1.795  0.1881 -0.5374 -0.3747
 2069TIP3    H227767   1.286   0.622   1.824 -0.4839  1.0858  2.7913
 2070TIP3   OH227768   6.092   2.998   2.440 -0.0166 -0.0985  0.3052
 2070TIP3    H127769   6.126   2.988   2.351  1.1616  1.2805  0.5579
 2070TIP3    H227770   6.023   3.064   2.432 -0.3872 -0.4894  0.2993
 2071TIP3   OH227771   5.239   3.535   1.344  0.4161  0.3973  0.1421
 2071TIP3    H127772   5.289   3.577   1.415  0.8765 -0.2653  0.2264
 2071TIP3    H227773   5.298   3.539   1.268  0.3460  0.1783  0.0754
 2072TIP3   OH227774   4.094   5.335   0.106 -0.4456 -0.5181 -0.2180
 2072TIP3    H127775   4.143   5.414   0.084  2.2400 -1.9705 -0.0134
 2072TIP3    H227776   4.015   5.339   0.053  0.2182  1.6788 -1.1519
 2073TIP3   OH227777   3.249   6.536   0.920  0.1154  0.4921  0.0877
 2073TIP3    H127778   3.291   6.609   0.967  1.1208 -0.4186  0.6580
 2073TIP3    H227779   3.259   6.461   0.979 -1.7725  0.0815 -0.0516
 2074TIP3   OH227780   3.860   5.176   0.389 -0.0056 -0.2655  0.3732
 2074TIP3    H127781   3.778   5.137   0.358  0.2390  1.1113 -2.2713
 2074TIP3    H227782   3.874   5.137   0.475 -1.1464 -3.8702 -0.8899
 2075TIP3   OH227783   5.632   6.034   2.246 -0.0354  0.0733  0.2314
 2075TIP3    H127784   5.662   5.952   2.287  0.0395  0.1471  0.3261
 2075TIP3    H227785   5.680   6.102   2.293 -1.1865  0.2824  1.1651
 2076TIP3   OH227786   3.759   5.370   6.144  0.4466  0.0706 -0.7299
 2076TIP3    H127787   3.853   5.357   6.154  0.1461 -1.2472  0.7440
 2076TIP3    H227788   3.744   5.368   6.049  1.8278 -0.1192 -0.9624
 2077TIP3   OH227789   3.045   6.376   0.533  0.2635 -0.6644  0.3339
 2077TIP3    H127790   2.990   6.363   0.610 -0.1021  1.4142  0.4626
 2077TIP3    H227791   3.106   6.445   0.557  0.0768  0.0994 -1.2632
 2078TIP3   OH227792   1.316   1.653   6.415  0.2152  0.3043 -0.2066
 2078TIP3    H127793   1.411   1.663   6.411  0.3908 -1.2617 -0.2316
 2078TIP3    H227794   1.299   1.606   6.496 -0.5226  0.4004 -0.2971
 2079TIP3   OH227795   3.542   0.227   7.279  0.0360 -0.4090 -0.0011
 2079TIP3    H127796   3.499   0.303   7.318  0.6238 -0.0978  0.0450
 2079TIP3    H227797   3.628   0.224   7.319  0.0487 -1.0586 -0.0618
 2080TIP3   OH227798   2.092   0.765   8.144 -0.0805 -0.0431 -0.6133
 2080TIP3    H127799   2.146   0.755   8.066 -0.2330  0.8653 -0.8492
 2080TIP3    H227800   2.070   0.858   8.146  2.1072  0.5548  1.9378
 2081TIP3   OH227801   5.172   1.313   1.074 -0.0678 -0.3547 -0.5259
 2081TIP3    H127802   5.195   1.251   1.143 -0.2405  0.7494  0.5693
 2081TIP3    H227803   5.256   1.348   1.044 -0.0549  0.5633  0.5004
 2082TIP3   OH227804   2.911   3.517   7.377  0.1195 -0.1401  0.2790
 2082TIP3    H127805   2.854   3.481   7.309 -0.3364  0.2681  0.4381
 2082TIP3    H227806   2.852   3.566   7.434  0.7599  1.2275 -0.1752
 2083TIP3   OH227807   2.751   2.083   1.119  0.7090  0.1852  0.3275
 2083TIP3    H127808   2.814   2.066   1.049  2.1044 -1.3628  1.8674
 2083TIP3    H227809   2.733   1.997   1.157 -1.4801  0.7505  0.6914
 2084TIP3   OH227810   0.716   3.353   1.562  0.1957  0.0500 -0.4756
 2084TIP3    H127811   0.633   3.379   1.603 -0.3473 -1.8993 -0.2208
 2084TIP3    H227812   0.784   3.388   1.620 -0.4504  1.1540 -0.3564
 2085TIP3   OH227813   6.559   1.771   0.430  0.0993  0.6240 -0.1922
 2085TIP3    H127814   6.528   1.690   0.471 -0.0743  0.9703  0.3782
 2085TIP3    H227815   6.526   1.767   0.340 -0.5771  0.4316  0.0626
 2086TIP3   OH227816   0.935   2.940   0.342 -0.3348  0.4619 -0.0054
 2086TIP3    H127817   1.023   2.975   0.359  1.1327 -2.1440 -1.4538
 2086TIP3    H227818   0.875   3.006   0.376  2.1812  2.2227  1.3147
 2087TIP3   OH227819   3.564   2.219   8.019 -0.4917 -0.1281 -0.3222
 2087TIP3    H127820   3.594   2.310   8.010  0.5907 -0.5081 -0.6859
 2087TIP3    H227821   3.493   2.224   8.084 -1.2020  1.1228 -1.1525
 2088TIP3   OH227822   3.401   5.814   8.428  0.6341  0.4797 -0.0816
 2088TIP3    H127823   3.313   5.820   8.389 -0.4520  0.0964  2.1813
 2088TIP3    H227824   3.440   5.736   8.388 -0.8096 -0.4589  0.2708
 2089TIP3   OH227825   0.217   6.752   0.775  0.0782 -0.1317  0.1198
 2089TIP3    H127826   0.141   6.810   0.784  1.2422  1.5723 -0.5430
 2089TIP3    H227827   0.232   6.719   0.864 -1.1773 -0.1707  0.3330
 2090TIP3   OH227828   1.587   6.723   7.637 -0.2295 -0.3565  0.5379
 2090TIP3    H127829   1.650   6.660   7.601  0.1487  0.8171 -0.9530
 2090TIP3    H227830   1.627   6.752   7.719 -0.5383 -2.2146  1.3893
 2091TIP3   OH227831   6.544   5.509   6.350 -0.5292  0.0309 -0.0334
 2091TIP3    H127832   6.601   5.443   6.311  0.6165  0.5724  0.6649
 2091TIP3    H227833   6.493   5.544   6.277  1.6777  1.1552 -1.1533
 2092TIP3   OH227834   0.600   4.893   0.167  0.2647  0.1853 -0.2375
 2092TIP3    H127835   0.547   4.815   0.183 -0.0956  0.4616 -0.0616
 2092TIP3    H227836   0.632   4.883   0.077  2.5643 -1.5448  0.6708
 2093TIP3   OH227837   2.670   5.786   1.505  0.2488 -0.4316  0.1985
 2093TIP3    H127838   2.661   5.875   1.540 -0.5382  0.9133 -3.0062
 2093TIP3    H227839   2.748   5.790   1.449  0.4061 -1.8966  0.2696
 2094TIP3   OH227840   4.430   3.636   6.725  0.0570  0.6563 -0.1994
 2094TIP3    H127841   4.355   3.654   6.669 -0.7089  1.4477  1.0131
 2094TIP3    H227842   4.447   3.542   6.715 -1.5088  0.3308 -0.0198
 2095TIP3   OH227843   4.213   5.963   8.083  0.0612 -0.7048 -0.5766
 2095TIP3    H127844   4.305   5.989   8.086 -0.3057  0.6263 -0.0549
 2095TIP3    H227845   4.189   5.948   8.174 -0.0220 -1.9270 -0.7849
 2096TIP3   OH227846   3.984   0.355   0.581  0.0648  0.8245  0.0511
 2096TIP3    H127847   3.899   0.398   0.574  0.7461  2.0611 -1.4939
 2096TIP3    H227848   4.019   0.383   0.665 -1.4599 -0.5611  1.1924
 2097TIP3   OH227849   6.404   0.116   6.905  0.4527  0.5180 -0.4858
 2097TIP3    H127850   6.476   0.067   6.867  0.0193 -0.2425 -0.3308
 2097TIP3    H227851   6.430   0.208   6.893  0.5182  0.3107 -2.2333
 2098TIP3   OH227852   5.959   1.265   0.864 -0.5905 -0.6915  0.3407
 2098TIP3    H127853   5.949   1.358   0.884 -0.3355 -0.5927  0.0134
 2098TIP3    H227854   5.898   1.249   0.792  1.3714 -0.1294 -1.5296
 2099TIP3   OH227855   4.327   6.647   0.097  0.6655  0.1871  0.2018
 2099TIP3    H127856   4.389   6.673   0.028 -0.4087  0.5401 -0.6513
 2099TIP3    H227857   4.361   6.689   0.176  1.4006  0.5466 -0.2882
 2100TIP3   OH227858   0.743   1.454   0.965  0.6525  0.3098  0.0732
 2100TIP3    H127859   0.814   1.437   1.027 -0.5222  0.3973  1.5068
 2100TIP3    H227860   0.682   1.510   1.013 -0.7020 -0.2987 -0.8699
 2101TIP3   OH227861   1.236   1.783   7.848  0.4863 -0.7882  0.4989
 2101TIP3    H127862   1.299   1.800   7.778  2.3443 -1.1029  2.0107
 2101TIP3    H227863   1.210   1.692   7.836  0.7792 -0.8314  0.1857
 2102TIP3   OH227864   0.011   3.461   1.774  0.7805  0.1611 -0.1308
 2102TIP3    H127865   0.085   3.518   1.797  1.0168 -0.4714  0.7276
 2102TIP3    H227866  -0.010   3.416   1.855  0.5916 -0.9837 -0.8021
 2103TIP3   OH227867   6.746   3.235   0.047  0.7434 -0.3748 -0.3817
 2103TIP3    H127868   6.810   3.201   0.110  1.6276  1.8574  0.0108
 2103TIP3    H227869   6.799   3.286  -0.015 -0.7416  3.2796  1.1099
 2104TIP3   OH227870   6.633   0.498   8.076 -0.1395 -1.0941  0.1956
 2104TIP3    H127871   6.686   0.449   8.014  2.3857 -0.9011  2.0354
 2104TIP3    H227872   6.694   0.561   8.116 -2.5317  1.5096  0.0949
 2105TIP3   OH227873   5.329   2.192   0.883  0.0968  0.1635 -0.1312
 2105TIP3    H127874   5.376   2.168   0.962 -1.4464  0.2128  0.8351
 2105TIP3    H227875   5.275   2.116   0.862  0.8286 -0.0273 -1.4210
 2106TIP3   OH227876   0.477   5.971   6.234 -0.2553  0.2337 -0.0795
 2106TIP3    H127877   0.426   6.037   6.187 -1.0658 -0.6913 -0.5281
 2106TIP3    H227878   0.487   5.899   6.172  2.3247  0.6711 -0.3108
 2107TIP3   OH227879   5.500   2.247   1.590 -0.3920 -0.0535  0.4170
 2107TIP3    H127880   5.522   2.267   1.681  1.6541 -2.0344  0.4242
 2107TIP3    H227881   5.555   2.306   1.539 -0.5411  0.1183  0.4532
 2108TIP3   OH227882   3.569   0.899   1.229  0.3997 -0.2343 -0.2637
 2108TIP3    H127883   3.616   0.963   1.282  0.5378  0.5960 -1.3548
 2108TIP3    H227884   3.477   0.923   1.239  0.4418  0.0573 -0.5671
 2109TIP3   OH227885   4.517   6.878   1.070 -0.0283  0.9713 -0.4040
 2109TIP3    H127886   4.490   6.790   1.098  1.2751  0.6423 -0.1352
 2109TIP3    H227887   4.435   6.928   1.066 -0.8585 -0.3762 -1.0469
 2110TIP3   OH227888   2.083   3.218   6.479 -0.4715  0.6775 -0.1388
 2110TIP3    H127889   2.146   3.147   6.487  0.2578  1.4816  1.8571
 2110TIP3    H227890   2.006   3.177   6.440  0.5421 -0.7783 -0.7252
 2111TIP3   OH227891   6.396   3.281   1.171 -0.4909 -0.6657 -0.1238
 2111TIP3    H127892   6.484   3.303   1.140 -0.6015 -0.6508 -0.4270
 2111TIP3    H227893   6.404   3.191   1.203 -0.2531 -0.5003  0.2840
 2112TIP3   OH227894   3.512   3.970   1.716 -0.6728 -0.0397 -0.2576
 2112TIP3    H127895   3.506   4.020   1.634 -2.2794  0.9420  0.3927
 2112TIP3    H227896   3.605   3.969   1.738 -0.6362  4.3712  0.6342
 2113TIP3   OH227897   0.318   6.131   6.893  0.0151 -0.9807 -0.5459
 2113TIP3    H127898   0.317   6.225   6.912  1.0608 -1.3032  1.3191
 2113TIP3    H227899   0.384   6.122   6.824  0.8877 -0.4805  0.1999
 2114TIP3   OH227900   5.351   4.200   6.355 -0.4884  0.1680  0.3781
 2114TIP3    H127901   5.420   4.139   6.381  0.8964  1.7772  0.6756
 2114TIP3    H227902   5.351   4.198   6.260  1.0344  1.2097  0.3167
 2115TIP3   OH227903   2.043   5.438   7.015  0.0501 -0.1900 -0.5237
 2115TIP3    H127904   1.952   5.456   6.991  0.6816  1.6097 -1.7905
 2115TIP3    H227905   2.080   5.396   6.938  0.6731  0.4635 -0.5829
 2116TIP3   OH227906   3.039   1.668   0.955 -0.3686  0.3736  0.6179
 2116TIP3    H127907   3.037   1.752   0.909 -1.4510 -0.6542 -1.3720
 2116TIP3    H227908   2.951   1.657   0.990 -0.3156 -0.0427  0.6274
 2117TIP3   OH227909   0.819   3.674   0.440 -0.2498 -0.9377 -0.0467
 2117TIP3    H127910   0.895   3.650   0.492 -0.4961 -1.3806  0.1098
 2117TIP3    H227911   0.834   3.634   0.355  0.0003 -0.4794 -0.2236
 2118TIP3   OH227912   2.673   4.421   7.632 -0.5422 -0.1667 -0.2796
 2118TIP3    H127913   2.737   4.407   7.702  1.3657 -1.6755 -2.2111
 2118TIP3    H227914   2.609   4.352   7.644 -0.3528 -0.2799  0.1052
 2119TIP3   OH227915   0.378   3.255   7.361 -0.8667  0.7843 -0.3101
 2119TIP3    H127916   0.323   3.289   7.291  0.4162 -0.5520 -2.0359
 2119TIP3    H227917   0.383   3.161   7.345 -1.1804  0.2920  2.0677
 2120TIP3   OH227918   2.998   5.415   1.491 -0.5391  0.3360  0.5303
 2120TIP3    H127919   3.014   5.473   1.566 -0.8686  0.1050  0.7834
 2120TIP3    H227920   3.015   5.327   1.525  0.7240  0.3292 -0.0615
 2121TIP3   OH227921   4.089   1.193   7.011  0.0067  0.5440  0.3268
 2121TIP3    H127922   4.057   1.240   6.934  2.3884  0.6170 -0.6947
 2121TIP3    H227923   4.162   1.246   7.043  1.2366 -1.2098  0.5649
 2122TIP3   OH227924   3.948   3.247   0.035  0.1398 -0.5380 -0.0100
 2122TIP3    H127925   4.040   3.267   0.050 -0.2382  0.6082  1.0350
 2122TIP3    H227926   3.935   3.262  -0.059  1.3560 -2.3482 -0.5148
 2123TIP3   OH227927   1.203   5.843   7.557 -0.4591 -0.4302 -0.3602
 2123TIP3    H127928   1.154   5.766   7.588 -1.0691  0.0227 -0.1821
 2123TIP3    H227929   1.289   5.835   7.599 -0.7994 -0.5776  0.3231
 2124TIP3   OH227930   6.582   5.320   7.157 -0.6732 -0.0973 -0.1066
 2124TIP3    H127931   6.496   5.347   7.189 -2.1404  0.1833 -3.7375
 2124TIP3    H227932   6.573   5.226   7.143 -0.8662  0.0978 -1.5072
 2125TIP3   OH227933   3.700   2.884   5.885 -0.3052 -0.5644  0.4468
 2125TIP3    H127934   3.776   2.848   5.931 -0.3782 -0.7937  0.3866
 2125TIP3    H227935   3.647   2.925   5.954  1.0204  1.6826  0.2326
 2126TIP3   OH227936   6.557   1.100   7.455 -0.1735 -0.5379  0.7843
 2126TIP3    H127937   6.603   1.167   7.405  0.2291 -0.8319  0.7568
 2126TIP3    H227938   6.484   1.073   7.399 -0.3819 -0.0692  0.8285
 2127TIP3   OH227939   1.606   1.732   7.835 -0.0361  0.3713 -0.3673
 2127TIP3    H127940   1.541   1.773   7.778 -0.2354 -0.7501 -0.9590
 2127TIP3    H227941   1.661   1.680   7.777  0.7785  0.5049  0.2586
 2128TIP3   OH227942   1.909   0.370   0.068 -0.1505  0.2484 -0.4578
 2128TIP3    H127943   1.931   0.461   0.086 -0.6695  0.3308 -0.2228
 2128TIP3    H227944   1.985   0.335   0.023  0.6693  0.4008  0.7603
 2129TIP3   OH227945   0.167   1.198   6.843 -0.4029 -0.5386  0.8045
 2129TIP3    H127946   0.077   1.227   6.835 -1.0301 -2.2201  1.3128
 2129TIP3    H227947   0.180   1.139   6.769  0.4748  0.1164  0.4185
 2130TIP3   OH227948   6.686   3.695   6.372  0.0750  0.5672 -0.1335
 2130TIP3    H127949   6.756   3.637   6.343  1.8911  2.6402 -0.1424
 2130TIP3    H227950   6.611   3.637   6.386  2.0939 -1.9505  1.0928
 2131TIP3   OH227951   5.698   3.972   6.680  0.0108  0.4738  0.0238
 2131TIP3    H127952   5.666   4.049   6.634 -2.2290 -0.3420  0.1068
 2131TIP3    H227953   5.666   3.982   6.770  0.3972 -0.1581  0.2423
 2132TIP3   OH227954   3.972   2.818   2.371 -1.0336 -0.2810  0.5063
 2132TIP3    H127955   3.895   2.764   2.388 -0.6911 -0.8921  0.1575
 2132TIP3    H227956   3.956   2.856   2.284 -1.3436  0.3093  0.8159
 2133TIP3   OH227957   6.813   4.876   7.934  0.4195  0.2174  0.2360
 2133TIP3    H127958   6.853   4.932   7.868 -0.8675  1.1303  0.1918
 2133TIP3    H227959   6.719   4.896   7.930 -0.0707 -1.8135  0.3613
 2134TIP3   OH227960   1.910   6.563   8.464 -0.0702 -0.0541 -0.6670
 2134TIP3    H127961   1.837   6.617   8.494  0.2999 -0.1869  0.5025
 2134TIP3    H227962   1.974   6.626   8.430 -0.0160  0.1884 -0.1245
 2135TIP3   OH227963   4.892   1.883   1.907  0.5446  0.0335 -0.7306
 2135TIP3    H127964   4.891   1.947   1.835  1.3363  0.5055 -0.3305
 2135TIP3    H227965   4.928   1.931   1.981  1.4598 -0.9654 -0.5051
 2136TIP3   OH227966   3.806   2.409   7.661  0.0497  0.2701 -0.0199
 2136TIP3    H127967   3.852   2.346   7.606 -0.6254 -1.1479  0.9580
 2136TIP3    H227968   3.727   2.431   7.612  0.0008 -0.1132 -0.1173
 2137TIP3   OH227969   5.795   1.158   0.683  0.3982  0.3044 -0.0449
 2137TIP3    H127970   5.826   1.215   0.612  0.5863 -0.7287 -0.8189
 2137TIP3    H227971   5.846   1.078   0.674 -2.5462 -1.6062 -1.5793
 2138TIP3   OH227972   3.403   6.464   6.810  0.1737 -0.0577  0.1695
 2138TIP3    H127973   3.364   6.402   6.748  1.3127 -0.2734 -0.3430
 2138TIP3    H227974   3.344   6.540   6.807 -0.8432 -0.8134  0.2841
 2139TIP3   OH227975   3.719   5.099   6.920 -0.6375  0.2757 -0.5002
 2139TIP3    H127976   3.630   5.133   6.914 -0.8348  0.0035  0.6090
 2139TIP3    H227977   3.727   5.038   6.847 -1.9106 -0.8809  0.2929
 2140TIP3   OH227978   3.106   1.366   7.039 -0.3552 -0.4279 -0.4286
 2140TIP3    H127979   3.013   1.379   7.056 -0.9129 -3.3066 -0.7763
 2140TIP3    H227980   3.125   1.278   7.073  1.5839 -1.0135 -2.7555
 2141TIP3   OH227981   6.271   1.454   0.695 -0.0483  0.0252  0.2247
 2141TIP3    H127982   6.363   1.480   0.703 -0.0586 -0.1649  1.0785
 2141TIP3    H227983   6.268   1.365   0.730 -0.5691  0.0478  0.2397
 2142TIP3   OH227984   5.691   1.022   7.774 -0.2005 -0.1982  0.2818
 2142TIP3    H127985   5.756   1.075   7.821 -0.4998 -0.9358  1.5395
 2142TIP3    H227986   5.647   0.971   7.841 -1.8705  0.0192 -0.5891
 2143TIP3   OH227987   1.084   2.597   7.498  0.1311 -0.3034 -0.2816
 2143TIP3    H127988   1.098   2.692   7.505  0.6679 -0.5033  2.7446
 2143TIP3    H227989   1.162   2.565   7.454  1.4280  0.4094  1.3664
 2144TIP3   OH227990   3.923   4.296   1.318  0.3319 -0.1140  0.2986
 2144TIP3    H127991   3.850   4.318   1.259 -0.5846  0.7284  1.6789
 2144TIP3    H227992   4.000   4.335   1.277  0.5360 -2.9694 -2.4064
 2145TIP3   OH227993   6.074   5.123   7.129  0.1395  0.9890 -0.3746
 2145TIP3    H127994   6.120   5.077   7.059  1.9328  0.4981  1.0596
 2145TIP3    H227995   6.004   5.063   7.155 -0.1439  0.9087 -1.2932
 2146TIP3   OH227996   6.767   0.751   1.088  0.8000  0.4836 -0.0283
 2146TIP3    H127997   6.780   0.802   1.008 -0.1200 -1.5856 -1.5612
 2146TIP3    H227998   6.730   0.668   1.059 -0.3079 -0.0616  2.6194
 2147TIP3   OH227999   0.977   4.614   1.118  0.4542  0.0491  0.1775
 2147TIP3    H128000   1.014   4.538   1.074  1.3715 -0.5805  1.9539
 2147TIP3    H228001   0.982   4.684   1.052  0.4257 -1.1797 -1.1825
 2148TIP3   OH228002   4.147   4.994   1.785  0.6861 -0.3532 -0.2226
 2148TIP3    H128003   4.126   4.917   1.837 -0.7304  0.1044 -0.0825
 2148TIP3    H228004   4.243   4.995   1.781  0.7579 -3.3534 -2.1140
 2149TIP3   OH228005   6.378   4.691   7.007  0.1389 -0.0478  0.0486
 2149TIP3    H128006   6.350   4.768   7.055 -1.0360  0.5811 -1.5272
 2149TIP3    H228007   6.321   4.690   6.929  0.5709 -2.1221 -0.3026
 2150TIP3   OH228008   0.388   0.545   1.745 -0.1646  0.3551 -0.1354
 2150TIP3    H128009   0.362   0.487   1.816 -0.3881  0.5565 -0.0542
 2150TIP3    H228010   0.392   0.489   1.668  1.4732 -0.1783  0.2919
 2151TIP3   OH228011   1.499   4.774   0.782  0.3649  0.1537 -0.2646
 2151TIP3    H128012   1.500   4.690   0.737 -0.4828  1.4726 -2.9530
 2151TIP3    H228013   1.569   4.825   0.739  1.6542  0.5267  2.0814
 2152TIP3   OH228014   0.221   0.793   1.800 -0.2502 -0.2582  0.1109
 2152TIP3    H128015   0.129   0.765   1.798 -0.1627 -0.5512  0.1209
 2152TIP3    H228016   0.270   0.711   1.800 -0.0037 -0.1447  2.2756
 2153TIP3   OH228017   1.912   1.533   2.200  0.0621 -0.2387 -0.6959
 2153TIP3    H128018   1.932   1.626   2.210 -1.2172  0.1061 -1.1733
 2153TIP3    H228019   1.939   1.494   2.283  0.2842  0.6165 -0.3506
 2154TIP3   OH228020   3.491   1.281   1.756 -0.1862 -0.4236  0.4520
 2154TIP3    H128021   3.524   1.198   1.792 -2.4044 -0.7880  1.8410
 2154TIP3    H228022   3.566   1.319   1.711  1.4925 -2.1774  1.6043
 2155TIP3   OH228023   0.997   3.350   6.641 -0.2988  0.7244  0.2164
 2155TIP3    H128024   0.988   3.437   6.678 -1.2149  0.9857 -0.5758
 2155TIP3    H228025   1.013   3.293   6.717  0.7821  1.6208  0.6890
 2156TIP3   OH228026   4.350   2.047   0.795 -0.2899 -0.1647 -0.0285
 2156TIP3    H128027   4.330   1.963   0.836 -1.7078 -0.0429 -0.4201
 2156TIP3    H228028   4.435   2.033   0.752  0.0248 -1.0394  0.8395
 2157TIP3   OH228029   1.458   0.051   7.172  0.1235 -0.0006  0.1098
 2157TIP3    H128030   1.392   0.117   7.194  2.4564  2.0802  1.2838
 2157TIP3    H228031   1.519   0.097   7.114  0.8126 -1.7265 -0.5959
 2158TIP3   OH228032   2.715   1.052   2.350 -0.2469 -0.0415 -0.2284
 2158TIP3    H128033   2.666   0.971   2.344  0.1249 -0.4708  1.7691
 2158TIP3    H228034   2.807   1.025   2.346 -0.1287  0.3667 -0.3239
 2159TIP3   OH228035   5.291   1.228   7.602  0.5228  0.4128  0.2250
 2159TIP3    H128036   5.236   1.299   7.636 -1.6485 -1.8657  1.8045
 2159TIP3    H228037   5.377   1.244   7.643 -0.1215  1.7115  1.1553
 2160TIP3   OH228038   5.539   6.513   8.051  0.5895  0.0760 -0.4022
 2160TIP3    H128039   5.601   6.495   7.981  0.7520  0.1258 -0.2725
 2160TIP3    H228040   5.487   6.433   8.058  0.3367  0.2008 -0.8188
 2161TIP3   OH228041   3.512   4.804   8.253 -0.2626  0.3198 -0.1884
 2161TIP3    H128042   3.582   4.857   8.215 -1.1822  2.3277  0.7364
 2161TIP3    H228043   3.447   4.796   8.183  0.3423 -0.5387 -0.6692
 2162TIP3   OH228044   1.086   2.906   7.965 -0.3089  0.0743  0.0331
 2162TIP3    H128045   1.049   2.994   7.960  2.2698  1.1807 -2.0693
 2162TIP3    H228046   1.130   2.903   8.050  0.4203  1.2563 -0.2712
 2163TIP3   OH228047   6.035   2.043   8.493  0.3984 -0.4178  0.0731
 2163TIP3    H128048   6.016   2.033   8.399 -0.8491  0.1031  0.2508
 2163TIP3    H228049   6.028   1.954   8.528  0.1803 -0.5176 -0.2160
 2164TIP3   OH228050   2.596   6.899   1.559 -0.7347  0.3635  0.4805
 2164TIP3    H128051   2.554   6.816   1.581  0.1183 -0.5273 -1.0781
 2164TIP3    H228052   2.677   6.898   1.610 -0.1167 -0.3773 -0.4846
 2165TIP3   OH228053   5.078   0.849   1.898 -0.2061 -0.3345 -0.1026
 2165TIP3    H128054   4.990   0.831   1.930 -0.3300 -0.4390 -0.4916
 2165TIP3    H228055   5.135   0.838   1.974 -0.8590  2.9744  1.0334
 2166TIP3   OH228056   1.525   3.381   6.612 -0.1220  0.2305 -0.5007
 2166TIP3    H128057   1.484   3.384   6.698 -0.8696 -4.0414 -0.4833
 2166TIP3    H228058   1.608   3.426   6.623 -0.4283  0.2856  2.2949
 2167TIP3   OH228059   2.957   4.717   0.796  0.0878  0.5624 -0.0442
 2167TIP3    H128060   2.877   4.670   0.821  0.9700 -0.5244  0.8511
 2167TIP3    H228061   2.973   4.692   0.705  0.4898 -0.8337  0.3921
 2168TIP3   OH228062   6.832   6.642   0.347 -0.4532  0.3957 -0.1166
 2168TIP3    H128063   6.870   6.729   0.331  1.3409 -0.2258  0.5749
 2168TIP3    H228064   6.826   6.603   0.260 -0.3741  0.8516 -0.3332
 2169TIP3   OH228065   6.154   6.687   8.300  0.2723 -0.0165 -0.6247
 2169TIP3    H128066   6.171   6.780   8.284 -0.1802  1.0215  3.7266
 2169TIP3    H228067   6.235   6.654   8.338 -0.4671 -0.5567  0.5614
 2170TIP3   OH228068   6.710   3.809   2.307 -0.0925 -0.3263  0.2149
 2170TIP3    H128069   6.632   3.862   2.319  1.3347  1.6520  1.2197
 2170TIP3    H228070   6.738   3.825   2.217 -0.3988 -0.4354  0.1003
 2171TIP3   OH228071   1.240   0.063   7.853  0.0915  0.3330 -0.0598
 2171TIP3    H128072   1.202   0.111   7.927 -3.5797 -0.6465 -1.1065
 2171TIP3    H228073   1.278  -0.015   7.893  0.1554  0.8768  0.9922
 2172TIP3   OH228074   5.317   1.536   7.453  0.2706  0.3627 -0.4231
 2172TIP3    H128075   5.289   1.508   7.540 -0.8843  0.6844 -0.6609
 2172TIP3    H228076   5.316   1.632   7.458 -1.2958  0.4207 -1.1969
 2173TIP3   OH228077   6.298   6.233   7.130  0.1477  0.1717  0.1563
 2173TIP3    H128078   6.209   6.200   7.116  1.2674 -1.8473 -3.5556
 2173TIP3    H228079   6.297   6.320   7.090 -0.3459  0.5726  1.0095
 2174TIP3   OH228080   4.488   2.709   1.636  0.4588  0.5135 -0.3062
 2174TIP3    H128081   4.450   2.626   1.607  0.0775  0.9259 -1.0277
 2174TIP3    H228082   4.461   2.772   1.569 -1.9369  1.9110  1.7777
 2175TIP3   OH228083   2.482   2.499   7.033 -0.0015 -1.0675 -0.4769
 2175TIP3    H128084   2.496   2.581   6.986 -1.1355  0.2782  1.3741
 2175TIP3    H228085   2.511   2.431   6.972  1.3056  0.7020 -1.9465
 2176TIP3   OH228086   1.541   4.903   8.411 -0.1229  0.2995  0.2643
 2176TIP3    H128087   1.576   4.972   8.355 -1.3309  0.6578 -0.0970
 2176TIP3    H228088   1.521   4.947   8.494  0.7114 -0.0099  0.6441
 2177TIP3   OH228089   2.132   1.019   0.098  0.3668 -0.5663  0.0984
 2177TIP3    H128090   2.140   1.076   0.021 -1.3164 -2.2379 -1.4298
 2177TIP3    H228091   2.210   0.964   0.095  0.2240 -0.7430 -0.5553
 2178TIP3   OH228092   0.550   4.737   6.090 -0.0932  0.4316 -0.2614
 2178TIP3    H128093   0.625   4.785   6.056 -1.0063  1.4905 -0.8457
 2178TIP3    H228094   0.584   4.650   6.110  1.0666  0.5752 -1.4610
 2179TIP3   OH228095   6.643   3.633   1.999  0.2831 -0.1918 -0.7636
 2179TIP3    H128096   6.588   3.709   1.980  0.3281  0.1503  0.4377
 2179TIP3    H228097   6.608   3.598   2.081  3.4724  1.6233  1.5803
 2180TIP3   OH228098   6.202   3.340   0.547 -0.1536 -0.2688 -0.4877
 2180TIP3    H128099   6.137   3.360   0.614 -1.8484 -0.1964 -2.0792
 2180TIP3    H228100   6.154   3.347   0.464  1.0300 -3.3968 -1.5859
 2181TIP3   OH228101   2.029   3.782   7.986  0.3393  0.0913 -0.2324
 2181TIP3    H128102   2.017   3.759   8.078 -0.5051 -0.4720 -0.4774
 2181TIP3    H228103   2.083   3.711   7.951 -1.0407 -0.7976 -0.6386
 2182TIP3   OH228104   0.798   0.000   7.503 -0.4038  0.5594 -0.2117
 2182TIP3    H128105   0.802  -0.043   7.418 -2.1820  0.2156 -0.1633
 2182TIP3    H228106   0.832  -0.065   7.564 -1.6803 -0.2668 -0.3386
 2183TIP3   OH228107   5.425   2.953   6.636 -0.2639  0.1537  0.2086
 2183TIP3    H128108   5.480   2.876   6.645 -0.1424  0.1964 -0.1579
 2183TIP3    H228109   5.392   2.949   6.546 -0.8017  0.1640  0.3980
 2184TIP3   OH228110   1.356   4.578   0.077  0.1551  0.2770  0.6612
 2184TIP3    H128111   1.295   4.516   0.118  0.2183  0.3380  0.8478
 2184TIP3    H228112   1.442   4.550   0.107  0.2637 -0.0925  0.0335
 2185TIP3   OH228113   3.640   4.966   6.045  0.3888  0.3036  0.6120
 2185TIP3    H128114   3.549   4.973   6.072  0.4099  0.6700  0.5912
 2185TIP3    H228115   3.656   5.044   5.991  0.5711 -0.0143  0.1970
 2186TIP3   OH228116   2.755   5.449   7.942  0.8383  0.1652  0.2461
 2186TIP3    H128117   2.672   5.421   7.903 -0.0818  0.6481  1.7720
 2186TIP3    H228118   2.793   5.369   7.978  0.1941  0.1965  1.0245
 2187TIP3   OH228119   6.428   1.541   0.273  0.0706 -0.0910  0.3675
 2187TIP3    H128120   6.400   1.631   0.254 -1.2227 -0.1482  1.8163
 2187TIP3    H228121   6.359   1.506   0.329  2.2126 -0.8480  2.7256
 2188TIP3   OH228122   6.609   0.828   7.489 -0.6230  0.6099 -0.5689
 2188TIP3    H128123   6.701   0.833   7.514 -1.0227  1.0929  0.9107
 2188TIP3    H228124   6.583   0.919   7.473 -1.1203  0.5976  0.1299
 2189TIP3   OH228125   6.618   3.015   0.356 -0.1100  0.0328 -0.4092
 2189TIP3    H128126   6.539   2.977   0.394 -0.3582 -1.1106 -1.9694
 2189TIP3    H228127   6.587   3.067   0.282  0.3566  2.2382  0.8562
 2190TIP3   OH228128   6.605   3.328   1.401  0.2608  0.4492 -0.3376
 2190TIP3    H128129   6.524   3.378   1.392 -0.5556 -0.7820 -0.0269
 2190TIP3    H228130   6.650   3.369   1.475 -1.1292 -0.2077  0.9192
 2191TIP3   OH228131   5.410   2.577   8.392  0.0232 -0.2483  0.2637
 2191TIP3    H128132   5.475   2.640   8.423 -0.1633 -0.1491  0.4515
 2191TIP3    H228133   5.332   2.629   8.375 -0.0217 -0.3743  0.0746
 2192TIP3   OH228134   1.179   6.146   7.616  0.3508  0.4618  0.2639
 2192TIP3    H128135   1.185   6.056   7.583  0.0081  0.0712  1.2088
 2192TIP3    H228136   1.159   6.199   7.539  2.8715  0.0837 -0.7647
 2193TIP3   OH228137   5.802   4.349   1.750  0.2113  0.0392  0.1811
 2193TIP3    H128138   5.711   4.318   1.754  0.1938  0.1316  0.5553
 2193TIP3    H228139   5.851   4.274   1.716 -0.0381  0.0681 -0.2502
 2194TIP3   OH228140   4.084   6.837   0.900  0.6410  0.2640  0.0286
 2194TIP3    H128141   4.002   6.795   0.927 -0.1617  1.5400 -0.3006
 2194TIP3    H228142   4.058   6.898   0.831  1.9921  0.1996 -0.5653
 2195TIP3   OH228143   5.587   1.200   1.450 -0.5455 -0.3485 -0.0916
 2195TIP3    H128144   5.682   1.199   1.439 -0.5334 -0.8473  0.0243
 2195TIP3    H228145   5.573   1.247   1.532 -0.3918 -0.3565 -0.0598
 2196TIP3   OH228146   2.072   5.016   0.173 -0.2147  0.0274 -0.9570
 2196TIP3    H128147   2.091   5.079   0.104 -1.0514  1.1298 -0.2224
 2196TIP3    H228148   1.997   4.966   0.140  0.6456 -0.8122 -1.6733
 2197TIP3   OH228149   3.930   6.269   8.224 -0.2945 -1.2285  0.6218
 2197TIP3    H128150   3.959   6.359   8.242  2.1766 -1.6299 -0.8248
 2197TIP3    H228151   3.835   6.274   8.223 -0.2271  1.5637 -0.2466
 2198TIP3   OH228152   4.022   6.093   0.263  0.4437 -0.2094 -0.7112
 2198TIP3    H128153   4.070   6.110   0.344  2.1004 -0.7817 -1.5265
 2198TIP3    H228154   3.944   6.044   0.291  0.4828  0.4467  0.6128
 2199TIP3   OH228155   5.352   5.783   2.242  0.1998  0.2892 -0.6063
 2199TIP3    H128156   5.430   5.747   2.285 -0.7226 -0.8186  0.2027
 2199TIP3    H228157   5.373   5.875   2.229  1.8699 -0.0864 -0.9317
 2200TIP3   OH228158   0.297   0.781   0.503  0.6446  0.2722 -0.1632
 2200TIP3    H128159   0.377   0.729   0.504  1.6328  1.6814 -1.8118
 2200TIP3    H228160   0.252   0.755   0.423 -1.7459 -2.0756  1.7369
 2201TIP3   OH228161   5.686   2.129   8.516 -0.0231 -0.2319 -0.3196
 2201TIP3    H128162   5.640   2.212   8.508 -1.5423 -0.8409  1.4893
 2201TIP3    H228163   5.751   2.145   8.585  1.2048  0.0527 -1.5046
 2202TIP3   OH228164   1.040   4.201   0.740 -0.2510 -0.2652  0.1578
 2202TIP3    H128165   1.088   4.205   0.823  1.6917 -0.5607 -0.8985
 2202TIP3    H228166   1.094   4.146   0.683 -1.0308  0.7386 -1.6312
 2203TIP3   OH228167   2.036   3.800   6.898  0.1890  0.4134 -0.3244
 2203TIP3    H128168   2.110   3.825   6.954  0.0974 -0.7945  0.3727
 2203TIP3    H228169   2.074   3.741   6.833 -0.1551 -0.2809  0.0880
 2204TIP3   OH228170   5.137   3.854   6.785 -0.0016  0.9431  0.0516
 2204TIP3    H128171   5.074   3.889   6.722 -0.5936  1.4883  0.9354
 2204TIP3    H228172   5.129   3.911   6.862 -0.3204 -0.5556  1.1764
 2205TIP3   OH228173   2.384   4.352   1.964  0.4331  0.0290  0.3094
 2205TIP3    H128174   2.438   4.336   1.886  1.4497  1.6617  0.6298
 2205TIP3    H228175   2.339   4.269   1.979 -0.6159 -0.0704 -2.6106
 2206TIP3   OH228176   6.728   5.982   1.219 -0.4305  0.3785 -0.0340
 2206TIP3    H128177   6.745   6.044   1.289  0.1901  0.3062 -0.1190
 2206TIP3    H228178   6.794   5.913   1.230 -1.1498 -0.3139  0.1078
 2207TIP3   OH228179   4.597   1.261   0.987 -0.4087 -0.2686  0.0128
 2207TIP3    H128180   4.616   1.274   1.080 -0.8071  0.8584 -0.0468
 2207TIP3    H228181   4.545   1.338   0.962  0.8190  0.1291 -1.4635
 2208TIP3   OH228182   3.408   1.920   7.795  0.2300  0.4277  0.0794
 2208TIP3    H128183   3.369   1.871   7.723 -0.3083  1.5990 -0.4612
 2208TIP3    H228184   3.352   1.997   7.805 -0.0946 -0.0319  2.2166
 2209TIP3   OH228185   3.752   2.349   0.288 -0.6510 -0.3226  0.4142
 2209TIP3    H128186   3.686   2.280   0.288 -0.0389 -0.9240  0.6607
 2209TIP3    H228187   3.834   2.303   0.270 -0.6586  0.7997 -3.3450
 2210TIP3   OH228188   2.939   6.483   7.283 -0.4193  0.3194  0.0792
 2210TIP3    H128189   2.922   6.397   7.246  0.4781  0.3303 -0.3851
 2210TIP3    H228190   2.882   6.542   7.234  1.3279  0.4654 -1.9285
 2211TIP3   OH228191   6.802   0.385   0.129 -0.0940  0.4208  0.3842
 2211TIP3    H128192   6.820   0.447   0.058  0.4883 -0.3777 -0.1811
 2211TIP3    H228193   6.720   0.416   0.168  1.1602  2.7449  1.4342
 2212TIP3   OH228194   6.359   1.063   1.492 -0.2309 -0.0095 -0.0456
 2212TIP3    H128195   6.294   1.120   1.450  0.6417  0.5991 -0.5898
 2212TIP3    H228196   6.310   0.982   1.511 -0.7474 -0.2354 -2.0303
 2213TIP3   OH228197   3.581   1.886   6.959 -0.0677 -0.3952  0.1105
 2213TIP3    H128198   3.516   1.955   6.969 -0.2305 -0.3714 -0.9673
 2213TIP3    H228199   3.661   1.923   6.997 -0.2356  0.2821 -0.1711
 2214TIP3   OH228200   4.855   4.867   6.137  0.0842 -0.1053  0.1762
 2214TIP3    H128201   4.888   4.850   6.226 -1.1313  1.1727  0.9119
 2214TIP3    H228202   4.761   4.852   6.144 -0.2815  1.7541 -0.4405
 2215TIP3   OH228203   3.619   6.237   7.238  0.1605  0.9289  0.6800
 2215TIP3    H128204   3.530   6.234   7.202 -0.0261  1.2447  1.1081
 2215TIP3    H228205   3.606   6.245   7.333  0.6365 -0.1838  0.8581
 2216TIP3   OH228206   2.185   3.659   8.201  0.5101  0.5143  0.1299
 2216TIP3    H128207   2.278   3.649   8.181  0.9394  0.7011  1.8350
 2216TIP3    H228208   2.149   3.571   8.195  0.5036  0.6043 -1.7001
 2217TIP3   OH228209   4.845   4.884   2.259  0.4174 -0.1555 -0.3565
 2217TIP3    H128210   4.902   4.808   2.264 -0.2321 -0.6278 -0.0307
 2217TIP3    H228211   4.902   4.955   2.227  0.9250 -0.8647 -1.0554
 2218TIP3   OH228212   4.061   6.063   6.052  0.6813 -0.7818 -0.1119
 2218TIP3    H128213   4.039   6.011   6.130  2.6403  0.0650  1.0696
 2218TIP3    H228214   4.146   6.029   6.025 -0.0941 -1.2520 -2.1068
 2219TIP3   OH228215   5.827   3.841   0.757  0.3709 -0.3474 -0.0012
 2219TIP3    H128216   5.745   3.794   0.740  0.0556 -0.2458  1.1326
 2219TIP3    H228217   5.888   3.807   0.692 -0.5582 -0.4656 -0.8320
 2220TIP3   OH228218   4.239   0.244   1.599  0.1843  0.0940 -0.3113
 2220TIP3    H128219   4.202   0.156   1.588  1.4752 -0.5570  0.4262
 2220TIP3    H228220   4.271   0.267   1.512  1.7308 -1.0578 -0.0852
 2221TIP3   OH228221   6.676   0.402   7.549 -0.3214  0.8706 -0.5079
 2221TIP3    H128222   6.743   0.467   7.571 -0.0406  0.6257 -0.6420
 2221TIP3    H228223   6.595   0.453   7.545  0.0078  1.3389 -1.3204
 2222TIP3   OH228224   1.036   4.168   7.338  0.3729 -0.2279 -0.2059
 2222TIP3    H128225   1.037   4.100   7.405  2.1302  0.4014  0.4730
 2222TIP3    H228226   1.098   4.234   7.371 -2.0751  2.2622 -0.2600
 2223TIP3   OH228227   0.202   6.703   1.758 -0.0400  0.5567 -0.0235
 2223TIP3    H128228   0.211   6.645   1.834  0.0010  0.6802  0.0654
 2223TIP3    H228229   0.281   6.757   1.760  0.5180 -0.2032 -0.8018
 2224TIP3   OH228230   6.200   1.724   0.732  0.4856 -0.1410  0.2273
 2224TIP3    H128231   6.168   1.751   0.646  0.4571  0.0353  0.2924
 2224TIP3    H228232   6.201   1.628   0.729  2.1277 -0.1414 -0.5776
 2225TIP3   OH228233   0.072   4.057   1.795  0.6888 -1.1940  0.2958
 2225TIP3    H128234  -0.001   4.106   1.833  1.3646  1.1015 -1.1368
 2225TIP3    H228235   0.129   4.038   1.870  1.8439  2.9394  0.7078
 2226TIP3   OH228236   3.677   0.774   0.619 -0.0370  0.0536  0.3765
 2226TIP3    H128237   3.731   0.822   0.683 -1.0875  0.2881  1.1139
 2226TIP3    H228238   3.588   0.799   0.640 -0.4766 -0.7179 -0.5095
 2227TIP3   OH228239   2.445   2.670   6.600  0.7767  0.4626  0.1930
 2227TIP3    H128240   2.510   2.636   6.538 -0.6362 -0.9743 -0.5705
 2227TIP3    H228241   2.456   2.765   6.596  2.3558  0.2859 -0.4312
 2228TIP3   OH228242   3.239   1.893   8.512 -0.0483  0.0880  0.1867
 2228TIP3    H128243   3.196   1.971   8.476 -1.9045 -0.3022  1.4385
 2228TIP3    H228244   3.172   1.850   8.565  0.6292 -2.8913 -1.1671
 2229TIP3   OH228245   4.804   5.858   6.067  0.3363  0.0154 -0.0717
 2229TIP3    H128246   4.807   5.953   6.075 -2.6504  0.4044 -2.2275
 2229TIP3    H228247   4.869   5.837   6.000  1.8815  0.3191  1.2701
 2230TIP3   OH228248   2.463   2.360   7.938 -0.3365 -0.1556 -0.3025
 2230TIP3    H128249   2.484   2.436   7.884  1.4037  0.2585  0.8534
 2230TIP3    H228250   2.533   2.298   7.919 -0.4290 -0.5125  0.5082
 2231TIP3   OH228251   4.504   3.738   0.433 -0.0520 -0.0833 -0.0289
 2231TIP3    H128252   4.558   3.801   0.386 -1.3097  0.2582 -1.0646
 2231TIP3    H228253   4.561   3.704   0.503  1.2120  0.8482 -0.5855
 2232TIP3   OH228254   2.654   2.825   7.074  0.2439 -0.0252 -0.5753
 2232TIP3    H128255   2.586   2.830   7.006 -1.2587  0.0516  0.8472
 2232TIP3    H228256   2.605   2.806   7.154  2.0805 -1.2619  0.3059
 2233TIP3   OH228257   6.398   4.118   0.748 -0.1471 -0.4569 -0.2950
 2233TIP3    H128258   6.488   4.088   0.738  0.3587  1.3508 -1.6498
 2233TIP3    H228259   6.393   4.150   0.838  0.8697  0.2990 -0.4921
 2234TIP3   OH228260   1.445   5.752   0.571  0.1271  0.1009  0.5523
 2234TIP3    H128261   1.525   5.709   0.542  0.0818  0.3334  0.0824
 2234TIP3    H228262   1.437   5.830   0.516 -0.5356 -0.0345  0.4377
 2235TIP3   OH228263   6.361   2.939   1.267  0.4020  0.4899  0.5973
 2235TIP3    H128264   6.303   2.955   1.341  0.7374 -0.1303  0.9905
 2235TIP3    H228265   6.374   2.845   1.265  1.4406  0.6240  0.5359
 2236TIP3   OH228266   5.201   5.210   8.083  0.1179 -0.0036 -0.1831
 2236TIP3    H128267   5.123   5.202   8.137 -0.0329 -1.1015 -0.5414
 2236TIP3    H228268   5.250   5.283   8.122 -1.1238  0.7679 -0.0227
 2237TIP3   OH228269   6.009   1.786   7.270  0.4669  0.4046 -0.1168
 2237TIP3    H128270   5.989   1.775   7.177 -0.9737  0.7392  0.1208
 2237TIP3    H228271   6.041   1.701   7.298 -2.0202 -0.6683 -0.2603
 2238TIP3   OH228272   0.004   1.005   8.494 -0.2507  0.0744 -0.2268
 2238TIP3    H128273   0.039   1.052   8.569 -2.2037 -0.7936  1.3188
 2238TIP3    H228274  -0.048   0.933   8.532 -1.5187 -0.2442 -2.3684
 2239TIP3   OH228275   5.604   0.018   1.402  0.3282  0.0595 -0.3818
 2239TIP3    H128276   5.554   0.079   1.349  0.4713  0.2834 -0.2633
 2239TIP3    H228277   5.539  -0.024   1.459  0.5140  1.8693  1.2562
 2240TIP3   OH228278   4.025   1.429   1.651  0.4150 -0.2890  0.0332
 2240TIP3    H128279   3.988   1.342   1.658  1.2610 -0.6026  0.8039
 2240TIP3    H228280   4.120   1.416   1.657  0.7014  0.4779 -1.8911
 2241TIP3   OH228281   0.529   5.431   1.322 -0.0073  0.4099  0.2054
 2241TIP3    H128282   0.456   5.403   1.267  0.1432  0.8241 -0.2209
 2241TIP3    H228283   0.539   5.361   1.387 -0.1356 -0.1340 -0.3486
 2242TIP3   OH228284   6.327   5.392   8.037  0.6327  0.2271  0.1532
 2242TIP3    H128285   6.389   5.458   8.004  1.7862 -0.2460  1.3014
 2242TIP3    H228286   6.271   5.440   8.098 -0.1082  0.6375 -0.8208
 2243TIP3   OH228287   4.051   5.710   7.503  0.1017  0.2537  0.0236
 2243TIP3    H128288   4.021   5.704   7.594  2.2998 -0.1756  0.7978
 2243TIP3    H228289   4.038   5.801   7.479 -0.3242  0.4117  0.8309
 2244TIP3   OH228290   2.825   2.951   8.077 -0.2003  0.3398  0.7318
 2244TIP3    H128291   2.791   2.873   8.032 -0.0182 -1.0978  2.9431
 2244TIP3    H228292   2.761   2.969   8.146 -0.0960  2.0304  0.4202
 2245TIP3   OH228293   0.194   4.479   0.846  0.1265 -0.2330 -0.0311
 2245TIP3    H128294   0.254   4.405   0.839 -0.7799 -0.9548 -0.3573
 2245TIP3    H228295   0.221   4.524   0.927  0.7180 -0.8773  0.1417
 2246TIP3   OH228296   6.169   4.614   2.280 -0.0812  0.1800  0.0428
 2246TIP3    H128297   6.182   4.692   2.335 -0.1241 -1.1789  2.0860
 2246TIP3    H228298   6.109   4.559   2.330 -0.6021 -0.8991 -1.6658
 2247TIP3   OH228299   6.512   2.244   7.539 -0.3081 -0.5096  0.1860
 2247TIP3    H128300   6.598   2.284   7.549 -0.4679  0.5308 -2.0312
 2247TIP3    H228301   6.521   2.182   7.467 -2.2023  2.5713 -3.0140
 2248TIP3   OH228302   4.746   5.585   1.429  0.8490 -0.2368  0.1660
 2248TIP3    H128303   4.668   5.575   1.483  0.7393 -1.1376 -0.1452
 2248TIP3    H228304   4.759   5.680   1.422 -0.7098 -0.0411 -0.4731
 2249TIP3   OH228305   2.949   0.512   0.504 -0.3603  0.4152  0.6649
 2249TIP3    H128306   2.861   0.489   0.535  0.3162 -1.6909  1.1402
 2249TIP3    H228307   2.943   0.505   0.409 -0.9656  1.3552  0.6197
 2250TIP3   OH228308   4.103   5.986   1.649 -0.2771  0.2791 -0.5291
 2250TIP3    H128309   4.068   5.897   1.650  1.9607 -0.6763  0.8354
 2250TIP3    H228310   4.064   6.027   1.726  0.1544 -0.1524 -0.0770
 2251TIP3   OH228311   5.976   3.098   1.951 -0.4856 -0.3307 -0.1071
 2251TIP3    H128312   5.903   3.065   1.898  0.0197  0.2978 -1.2274
 2251TIP3    H228313   5.969   3.193   1.946  1.8722 -0.1630 -2.4303
 2252TIP3   OH228314   3.141   1.567   7.218  0.1877  0.4893 -0.1475
 2252TIP3    H128315   3.169   1.498   7.158 -0.3575  0.0725  0.0593
 2252TIP3    H228316   3.212   1.575   7.281  1.1116  1.4656 -1.2674
 2253TIP3   OH228317   4.943   3.676   1.719 -0.8467 -0.4141  0.2895
 2253TIP3    H128318   4.976   3.670   1.629 -0.4896 -1.4123  0.4685
 2253TIP3    H228319   4.980   3.598   1.762 -0.4118  0.4420  1.4970
 2254TIP3   OH228320   0.894   0.477   7.453  0.0801 -0.1524  0.3808
 2254TIP3    H128321   0.974   0.474   7.506 -0.5300 -0.2643  1.3216
 2254TIP3    H228322   0.922   0.449   7.366  1.5886  2.3184 -0.0178
 2255TIP3   OH228323   5.091   5.513   7.658 -0.3789 -0.1549 -0.4192
 2255TIP3    H128324   5.032   5.543   7.727  0.9182 -0.1173  0.7202
 2255TIP3    H228325   5.159   5.580   7.653  1.0983 -1.5202  0.2923
 2256TIP3   OH228326   1.215   3.213   8.059 -0.5386  0.0063 -0.2101
 2256TIP3    H128327   1.208   3.131   8.107 -1.5809 -0.0332 -0.4062
 2256TIP3    H228328   1.284   3.198   7.995 -0.3448 -0.5272  0.1190
 2257TIP3   OH228329   3.428   3.378   8.457 -0.2083 -0.6716  0.3760
 2257TIP3    H128330   3.403   3.289   8.433  1.1899 -0.7750 -0.8813
 2257TIP3    H228331   3.506   3.395   8.405  1.3472  0.1937  2.8032
 2258TIP3   OH228332   3.051   0.785   6.831  0.0370  0.3237 -0.4857
 2258TIP3    H128333   3.038   0.715   6.767 -1.7365  1.9007 -1.9962
 2258TIP3    H228334   2.989   0.765   6.901  1.3187 -0.9162  0.3211
 2259TIP3   OH228335   0.615   6.065   6.462 -0.7351 -0.3806 -0.3797
 2259TIP3    H128336   0.637   5.979   6.496  0.8308  0.4561  0.9003
 2259TIP3    H228337   0.572   6.048   6.378 -2.0965 -2.4275  0.6678
 2260TIP3   OH228338   6.276   5.552   0.880  0.3749 -0.2817  0.6575
 2260TIP3    H128339   6.337   5.572   0.951  0.3877 -0.4346  0.6916
 2260TIP3    H228340   6.315   5.476   0.836 -0.9588 -1.9640  2.1603
 2261TIP3   OH228341   6.219   3.388   0.155  0.5051  0.4145 -0.5840
 2261TIP3    H128342   6.234   3.332   0.078 -0.3153  0.9824 -1.1853
 2261TIP3    H228343   6.302   3.389   0.201  0.5142 -1.4159 -0.4778
 2262TIP3   OH228344   4.972   3.608   6.860 -0.0104  0.3359  0.1454
 2262TIP3    H128345   5.058   3.651   6.862  2.1116 -3.3076 -1.9478
 2262TIP3    H228346   4.938   3.621   6.949  3.4413  0.6044  1.6263
 2263TIP3   OH228347   4.853   1.486   8.547  0.1374  0.3234 -0.6429
 2263TIP3    H128348   4.916   1.435   8.597  0.7590  0.9099 -0.8172
 2263TIP3    H228349   4.780   1.425   8.531  0.1032  0.0115  0.6118
 2264TIP3   OH228350   5.723   3.492   8.340  0.1125 -0.7546  0.3938
 2264TIP3    H128351   5.804   3.510   8.388  1.1499 -0.4853 -1.3662
 2264TIP3    H228352   5.745   3.512   8.248 -2.0442 -0.3972 -0.0831
 2265TIP3   OH228353   1.365   3.411   7.424  0.0880 -0.1237 -0.2241
 2265TIP3    H128354   1.430   3.454   7.479  1.9055 -1.6221 -1.0848
 2265TIP3    H228355   1.322   3.348   7.481 -0.4799  0.6975  0.2836
 2266TIP3   OH228356   4.955   0.638   7.364 -0.0522  0.1955  0.1376
 2266TIP3    H128357   4.915   0.602   7.444 -1.4640 -0.6651 -0.9149
 2266TIP3    H228358   4.966   0.731   7.383 -2.0090  0.3417  0.7096
 2267TIP3   OH228359   5.834   6.205   0.527 -0.2829 -0.4166 -0.0621
 2267TIP3    H128360   5.773   6.267   0.567  0.1866 -0.5772  0.9453
 2267TIP3    H228361   5.781   6.154   0.466 -1.0046 -0.0807  0.2737
 2268TIP3   OH228362   1.974   4.534   7.625 -0.0609 -0.0862 -0.1502
 2268TIP3    H128363   1.884   4.544   7.656  0.2644  1.1677  0.4679
 2268TIP3    H228364   2.001   4.622   7.599  0.3644 -0.7415 -2.1769
 2269TIP3   OH228365   4.336   3.394   0.504 -0.1819 -0.1893 -0.5030
 2269TIP3    H128366   4.261   3.450   0.481 -0.1836 -0.3508 -0.9079
 2269TIP3    H228367   4.404   3.418   0.441 -0.1394 -0.5475 -0.5970
 2270TIP3   OH228368   3.555   0.746   7.165  0.0351 -0.4656 -1.1365
 2270TIP3    H128369   3.610   0.706   7.232 -0.7210  0.1635 -0.1118
 2270TIP3    H228370   3.482   0.685   7.154  0.2273 -0.6328 -1.4852
 2271TIP3   OH228371   2.027   2.327   1.388  0.7184  0.4605 -0.6062
 2271TIP3    H128372   2.038   2.378   1.469  0.5252  1.1403 -1.0027
 2271TIP3    H228373   2.025   2.392   1.319 -0.2528 -0.0400 -1.0694
 2272TIP3   OH228374   3.895   5.400   7.679 -0.2955  0.5349  0.0440
 2272TIP3    H128375   3.851   5.421   7.597 -0.7431  0.6405  0.3063
 2272TIP3    H228376   3.985   5.381   7.654 -0.4413  0.5116 -0.4776
 2273TIP3   OH228377   5.866   3.655   0.445  0.0493  0.5408  0.2167
 2273TIP3    H128378   5.842   3.728   0.388  0.9578  2.9980  2.7602
 2273TIP3    H228379   5.952   3.678   0.480  0.2974 -1.6698  1.2903
 2274TIP3   OH228380   0.092   0.435   6.831 -0.1443  0.3391 -0.4204
 2274TIP3    H128381   0.098   0.526   6.859  1.7083 -0.1090  0.7983
 2274TIP3    H228382   0.182   0.409   6.813 -0.3231 -1.8850  1.4311
 2275TIP3   OH228383   4.321   6.246   0.438 -0.1617  0.3024  0.0341
 2275TIP3    H128384   4.280   6.311   0.497 -1.7907 -0.4355 -0.2324
 2275TIP3    H228385   4.305   6.280   0.350  0.5942  0.4449 -0.0524
 2276TIP3   OH228386   1.966   4.402   8.288  0.1044 -0.5579  0.4379
 2276TIP3    H128387   1.983   4.354   8.207  1.1988  3.7591 -2.1887
 2276TIP3    H228388   2.046   4.390   8.340  1.8085  0.9701 -1.6618
 2277TIP3   OH228389   0.182   3.294   8.373  0.1917  0.4036 -0.7368
 2277TIP3    H128390   0.168   3.210   8.328  1.0248 -0.1391 -0.0108
 2277TIP3    H228391   0.260   3.331   8.332  1.1078 -0.2136  0.3921
 2278TIP3   OH228392   2.829   3.991   1.601 -0.5987 -0.3259 -0.1626
 2278TIP3    H128393   2.866   4.046   1.531 -1.6971  0.3242 -0.2457
 2278TIP3    H228394   2.876   4.018   1.680 -0.7791  0.3861 -0.2948
 2279TIP3   OH228395   4.086   0.974   1.336 -0.5990  0.1395  0.5147
 2279TIP3    H128396   4.126   0.963   1.250  1.4681 -0.3438  1.4693
 2279TIP3    H228397   4.010   0.917   1.334 -1.0031  0.6798 -1.2155
 2280TIP3   OH228398   2.593   0.236   0.965 -0.3470 -0.2297  0.5631
 2280TIP3    H128399   2.563   0.313   0.918  1.0307 -0.7932 -1.3763
 2280TIP3    H228400   2.664   0.267   1.021 -0.3967  0.0514  0.4704
 2281TIP3   OH228401   4.286   1.353   1.155  0.6660 -0.2330  0.0575
 2281TIP3    H128402   4.337   1.424   1.195 -0.7235  0.2650  1.0180
 2281TIP3    H228403   4.343   1.319   1.086  0.9949  2.5194 -1.1746
 2282TIP3   OH228404   6.003   5.886   0.191  0.1563  0.4359  0.3519
 2282TIP3    H128405   6.042   5.896   0.277  2.2894  1.6190 -0.6582
 2282TIP3    H228406   6.048   5.811   0.152  0.3809  0.8982 -0.3055
 2283TIP3   OH228407   6.327   3.558   6.989 -0.0051 -0.1512  0.0153
 2283TIP3    H128408   6.386   3.544   7.063  1.4481 -1.0154 -1.2659
 2283TIP3    H228409   6.352   3.492   6.925 -0.8441  0.9388 -1.5038
 2284TIP3   OH228410   0.524   2.543   0.098 -0.2021 -0.2122 -0.6129
 2284TIP3    H128411   0.482   2.460   0.120 -1.2644  0.7787  1.5045
 2284TIP3    H228412   0.585   2.559   0.170  1.8148 -0.2669 -2.2293
 2285TIP3   OH228413   1.156   3.674   7.020 -0.4774 -0.4755 -0.1868
 2285TIP3    H128414   1.105   3.737   7.072  1.5146  0.8197  0.2964
 2285TIP3    H228415   1.173   3.719   6.938  0.2053 -0.7239 -0.1868
 2286TIP3   OH228416   5.745   4.496   1.127  0.1462  0.3226  0.6971
 2286TIP3    H128417   5.689   4.555   1.078 -1.1483 -2.1150 -0.9986
 2286TIP3    H228418   5.761   4.540   1.210 -3.2831  1.6980  0.7629
 2287TIP3   OH228419   1.925   3.929   7.650 -0.8104 -0.2671  0.2567
 2287TIP3    H128420   1.900   3.839   7.670 -0.7820 -0.2777  0.2436
 2287TIP3    H228421   1.869   3.953   7.576  1.0870 -1.2052 -1.5655
 2288TIP3   OH228422   3.994   4.725   1.395  0.3296  0.3384 -0.5234
 2288TIP3    H128423   4.061   4.665   1.427 -0.1991 -0.6584 -1.2362
 2288TIP3    H228424   4.043   4.789   1.342  0.6670 -0.7184 -1.5259
 2289TIP3   OH228425   2.929   5.567   0.046  0.2666 -0.6533 -0.0417
 2289TIP3    H128426   2.836   5.587   0.037  0.1796 -0.4083  1.1690
 2289TIP3    H228427   2.954   5.527  -0.037 -0.3717  1.3632 -1.2714
 2290TIP3   OH228428   6.443   0.098   1.414 -0.0229  0.5179 -0.6691
 2290TIP3    H128429   6.375   0.034   1.393 -0.1593  0.2404  0.5378
 2290TIP3    H228430   6.498   0.101   1.336 -0.1309 -0.9270 -0.8315
 2291TIP3   OH228431   4.165   3.405   6.741  0.7042 -0.0156  0.3787
 2291TIP3    H128432   4.121   3.482   6.706 -0.9321 -0.9557  0.2204
 2291TIP3    H228433   4.220   3.373   6.670  1.5611  1.1002  0.5188
 2292TIP3   OH228434   0.564   1.826   0.770 -0.1319 -0.0893 -0.2123
 2292TIP3    H128435   0.528   1.771   0.700 -0.3006 -3.0469  2.0263
 2292TIP3    H228436   0.490   1.839   0.830  0.8857 -0.8120  1.2424
 2293TIP3   OH228437   4.691   1.605   8.204  0.5907 -0.0505  0.3073
 2293TIP3    H128438   4.608   1.594   8.157  0.5789  1.4395 -0.0714
 2293TIP3    H228439   4.673   1.672   8.269  1.4679  0.2102  0.2959
 2294TIP3   OH228440   1.898   2.701   8.424  0.4376 -0.0495  0.0429
 2294TIP3    H128441   1.971   2.680   8.367  0.5357 -0.1354  0.1992
 2294TIP3    H228442   1.825   2.648   8.391 -0.1798  1.6524 -1.4949
 2295TIP3   OH228443   0.762   5.917   6.790  0.1308  0.4025 -0.0770
 2295TIP3    H128444   0.693   5.983   6.800 -0.0913 -0.0204  1.2910
 2295TIP3    H228445   0.777   5.884   6.878 -0.4779 -2.0882 -0.8187
 2296TIP3   OH228446   0.539   3.646   7.317  0.3177  0.1614  0.4813
 2296TIP3    H128447   0.456   3.663   7.362  0.9477  0.0897  1.7185
 2296TIP3    H228448   0.589   3.594   7.379  1.1363 -0.1677 -0.4307
 2297TIP3   OH228449   0.927   3.514   7.582  0.0318 -0.3262  0.2266
 2297TIP3    H128450   1.021   3.515   7.565 -0.1080 -2.9744 -1.2910
 2297TIP3    H228451   0.888   3.488   7.499 -1.8569 -1.2008  1.3102
 2298TIP3   OH228452   0.278   3.342   7.607 -0.0491 -0.1326 -0.1588
 2298TIP3    H128453   0.352   3.382   7.652 -0.4812  1.4874 -0.7978
 2298TIP3    H228454   0.315   3.308   7.525  0.2672 -0.7926  0.2496
 2299TIP3   OH228455   0.431   0.051   6.195  0.5313 -0.2100  0.0711
 2299TIP3    H128456   0.483   0.085   6.268  0.8124  1.8984 -1.0087
 2299TIP3    H228457   0.424  -0.043   6.211  1.6441  0.0036  2.1196
 2300TIP3   OH228458   4.967   1.176   0.253  0.6293  0.0242  0.4871
 2300TIP3    H128459   4.878   1.144   0.236  0.6370  0.0912  0.3193
 2300TIP3    H228460   4.959   1.223   0.336  0.4235  0.3613  0.2804
 2301TIP3   OH228461   5.481   0.236   1.268 -0.5658 -0.5178  0.6007
 2301TIP3    H128462   5.536   0.314   1.277 -1.3258 -0.1120  2.2836
 2301TIP3    H228463   5.392   0.269   1.284 -0.9882 -1.5900  0.4972
 2302TIP3   OH228464   0.161   5.004   8.526  0.2476  0.0490 -0.1596
 2302TIP3    H128465   0.103   4.957   8.586 -0.9838  1.8769  0.1386
 2302TIP3    H228466   0.248   4.969   8.546 -0.5070 -1.4783  0.6214
 2303TIP3   OH228467   6.803   4.407   0.483  0.1023  0.6862 -0.2518
 2303TIP3    H128468   6.811   4.443   0.572 -0.2788  0.7956 -0.2613
 2303TIP3    H228469   6.846   4.472   0.427  0.3384  0.6197 -0.1466
 2304TIP3   OH228470   4.877   2.653   8.207  0.6949 -0.4678 -0.5262
 2304TIP3    H128471   4.892   2.729   8.263 -2.2009  0.6807 -1.1040
 2304TIP3    H228472   4.853   2.583   8.268 -1.0419  0.3845 -0.1555
 2305TIP3   OH228473   3.873   3.761   6.926  0.2743  0.1416 -0.3345
 2305TIP3    H128474   3.856   3.752   7.020 -0.4749 -1.9312 -0.6211
 2305TIP3    H228475   3.802   3.713   6.884  0.8620  0.6279 -1.9484
 2306TIP3   OH228476   1.243   2.031   1.717  0.8156  0.1744 -0.6742
 2306TIP3    H128477   1.234   1.947   1.762 -0.0344  0.2350 -0.7110
 2306TIP3    H228478   1.330   2.062   1.741  0.9091 -0.4453 -0.1882
 2307TIP3   OH228479   5.250   4.366   7.613  0.6358 -0.3165 -0.5418
 2307TIP3    H128480   5.297   4.425   7.672  0.0050 -1.0788  0.7712
 2307TIP3    H228481   5.201   4.424   7.555  0.1253  0.4653  0.6379
 2308TIP3   OH228482   4.555   1.802   7.904  0.5100 -0.4985 -1.4997
 2308TIP3    H128483   4.646   1.779   7.885  0.6836 -2.2103  0.8975
 2308TIP3    H228484   4.519   1.725   7.948 -1.6578  0.6845 -1.0074
 2309TIP3   OH228485   2.537   1.901   8.501  0.4241 -0.2264 -0.3332
 2309TIP3    H128486   2.557   1.961   8.429 -1.2367  1.4699  0.5321
 2309TIP3    H228487   2.443   1.889   8.497  0.3798 -0.5920  1.1727
 2310TIP3   OH228488   4.048   1.003   7.727  0.5275  0.8391  0.1287
 2310TIP3    H128489   3.987   1.055   7.675 -0.0239  0.3827  0.3133
 2310TIP3    H228490   4.126   0.994   7.672  0.0915  0.6831 -0.4647
 2311TIP3   OH228491   2.352   6.671   7.346  0.1286  0.5845 -0.3611
 2311TIP3    H128492   2.444   6.694   7.336  0.8966 -1.7680  0.6628
 2311TIP3    H228493   2.336   6.679   7.440 -0.2316 -0.6521 -0.3084
 2312TIP3   OH228494   0.368   2.439   7.046 -0.9951 -0.8008  0.3032
 2312TIP3    H128495   0.447   2.472   7.003 -1.1595 -1.0292 -0.1838
 2312TIP3    H228496   0.401   2.391   7.123 -0.7461  0.2503  0.8720
 2313TIP3   OH228497   2.991   0.798   7.741 -0.1046  0.2398  0.0855
 2313TIP3    H128498   2.987   0.809   7.646  1.5351  2.2623  0.1744
 2313TIP3    H228499   2.977   0.705   7.756 -0.3129 -0.1255 -2.1468
 2314TIP3   OH228500   6.124   3.141   1.026 -0.2019  0.1623 -0.6787
 2314TIP3    H128501   6.078   3.161   0.944 -0.1093  1.6850 -0.3911
 2314TIP3    H228502   6.212   3.114   0.999 -0.4045 -0.0941 -1.1006
 2315TIP3   OH228503   2.221   6.652   2.521  0.3468  0.3607 -0.9256
 2315TIP3    H128504   2.260   6.723   2.572  1.1676 -1.5179  1.2181
 2315TIP3    H228505   2.128   6.657   2.540  0.2743  1.3474 -1.4782
 2316TIP3   OH228506   0.046   5.258   6.234  0.4023  0.1427  0.3548
 2316TIP3    H128507   0.079   5.217   6.314 -3.6416 -2.5994  0.9322
 2316TIP3    H228508   0.087   5.209   6.163 -0.3159 -1.3694  0.9526
 2317TIP3   OH228509   0.980   6.804   0.687 -0.1753 -0.0976  0.1285
 2317TIP3    H128510   0.884   6.795   0.683 -0.1577 -0.5163  0.6030
 2317TIP3    H228511   1.005   6.757   0.766  0.6527 -1.8944 -1.1577
 2318TIP3   OH228512   1.682   6.709   8.143  0.3700 -0.4117  0.3418
 2318TIP3    H128513   1.688   6.739   8.234 -0.3854  1.8329 -0.2726
 2318TIP3    H228514   1.589   6.691   8.130  0.4832 -0.7674  0.0123
 2319TIP3   OH228515   4.958   6.449   6.973  0.5941 -0.4631 -0.1532
 2319TIP3    H128516   5.050   6.456   6.947  0.6488 -0.1420  0.1289
 2319TIP3    H228517   4.953   6.366   7.020  1.0994  0.2888  1.2980
 2320TIP3   OH228518   1.702   1.471   1.659 -0.1514  0.0480  0.2860
 2320TIP3    H128519   1.610   1.442   1.664  0.3609 -1.6084  0.7738
 2320TIP3    H228520   1.701   1.559   1.698 -1.8555  0.9888 -1.6874
 2321TIP3   OH228521   3.000   6.727   0.490  0.0757 -0.2239  0.4437
 2321TIP3    H128522   3.069   6.668   0.521  0.5734 -0.6932 -1.4528
 2321TIP3    H228523   2.999   6.798   0.554  3.2608  0.4838 -0.1225
 2322TIP3   OH228524   3.360   1.155   6.617 -0.4953 -0.1004  0.1430
 2322TIP3    H128525   3.293   1.185   6.555 -0.2596  0.9568  0.3807
 2322TIP3    H228526   3.313   1.140   6.698 -0.6045 -0.2982  0.0432
 2323TIP3   OH228527   6.354   1.817   2.231 -0.5487  0.4438  0.0706
 2323TIP3    H128528   6.402   1.803   2.313 -0.3094 -0.0242 -0.1467
 2323TIP3    H228529   6.418   1.803   2.162 -0.8107  0.5917 -0.2066
 2324TIP3   OH228530   6.700   3.797   0.354 -0.5963  0.4487  0.0724
 2324TIP3    H128531   6.667   3.876   0.312 -0.4213  0.4032 -0.1553
 2324TIP3    H228532   6.699   3.731   0.285 -3.7887 -0.6568  1.0138
 2325TIP3   OH228533   4.878   5.134   7.764 -0.0787  0.0672  0.0100
 2325TIP3    H128534   4.972   5.117   7.765  0.0340  0.5961 -0.7171
 2325TIP3    H228535   4.870   5.219   7.721 -0.8410  0.3600  0.7211
 2326TIP3   OH228536   1.082   5.732   1.203 -0.2507 -0.1591  1.0262
 2326TIP3    H128537   0.992   5.737   1.235 -0.0984  0.7400  1.3406
 2326TIP3    H228538   1.090   5.806   1.144  0.4368  0.0606  1.3884
 2327TIP3   OH228539   6.602   5.547   2.021 -0.0964  0.0096  0.4643
 2327TIP3    H128540   6.527   5.492   2.044 -0.5394  0.1486 -0.5945
 2327TIP3    H228541   6.567   5.635   2.016 -0.0721 -0.0236 -0.8268
 2328TIP3   OH228542   5.705   1.515   8.268 -0.3137 -0.2463  0.3278
 2328TIP3    H128543   5.798   1.511   8.287  0.0122  1.7093 -0.5620
 2328TIP3    H228544   5.695   1.470   8.184 -0.0435  0.1153  0.0965
 2329TIP3   OH228545   2.962   0.810   0.506 -0.0041  0.1470 -0.2973
 2329TIP3    H128546   2.871   0.816   0.534 -0.0063  0.8097 -0.4442
 2329TIP3    H228547   2.979   0.716   0.502 -0.2524  0.0098  1.1290
 2330TIP3   OH228548   1.118   4.443   0.930  0.3305 -0.0374  0.3609
 2330TIP3    H128549   1.200   4.394   0.939 -0.6585 -1.7466  0.6465
 2330TIP3    H228550   1.132   4.499   0.854  1.5268 -0.7978 -0.0148
 2331TIP3   OH228551   4.607   0.784   8.409  0.1916 -0.4663 -0.2295
 2331TIP3    H128552   4.633   0.830   8.489  2.3236 -0.3713 -0.9142
 2331TIP3    H228553   4.561   0.706   8.440  2.0108 -1.0598  1.1594
 2332TIP3   OH228554   6.519   0.769   8.542  0.4273 -0.3066  0.0256
 2332TIP3    H128555   6.485   0.850   8.581  2.1001  0.7309 -0.5386
 2332TIP3    H228556   6.511   0.783   8.448  0.7077 -0.8023 -0.0745
 2333TIP3   OH228557   0.349   2.408   1.034  0.0907 -0.1464  0.2290
 2333TIP3    H128558   0.443   2.388   1.035  0.3281  0.8404 -0.7536
 2333TIP3    H228559   0.339   2.473   0.964 -1.3946 -0.5672  0.0217
 2334TIP3   OH228560   6.686   3.136   0.619 -0.3574  0.2493 -0.2532
 2334TIP3    H128561   6.657   3.097   0.537  0.7552  0.5076 -0.7950
 2334TIP3    H228562   6.701   3.228   0.598  0.0989  0.2847  0.1916
 2335TIP3   OH228563   1.303   2.117   0.605  0.1857 -0.1838  0.3603
 2335TIP3    H128564   1.233   2.071   0.651 -0.6788 -1.0750 -1.7456
 2335TIP3    H228565   1.374   2.054   0.598  0.7172  0.2801  1.2876
 2336TIP3   OH228566   4.495   3.204   7.461 -0.2405 -0.2359  0.1133
 2336TIP3    H128567   4.480   3.109   7.465 -0.2694 -0.5963 -4.1756
 2336TIP3    H228568   4.588   3.212   7.440  0.3221  0.8968  2.6901
 2337TIP3   OH228569   0.909   1.224   2.358 -0.2166  0.1577 -0.1022
 2337TIP3    H128570   0.826   1.271   2.350 -0.6143 -0.4023  0.6690
 2337TIP3    H228571   0.889   1.146   2.410  1.0637  0.7296  1.3645
 2338TIP3   OH228572   2.209   3.250   7.393  0.4561  0.7531  0.5007
 2338TIP3    H128573   2.178   3.304   7.320 -1.6465 -1.1279 -0.1142
 2338TIP3    H228574   2.246   3.173   7.352 -1.8269 -0.8963  1.3034
 2339TIP3   OH228575   5.686   4.187   8.010  0.1489  0.3985  1.0752
 2339TIP3    H128576   5.657   4.254   7.947 -1.3442 -0.8783  0.3367
 2339TIP3    H228577   5.605   4.144   8.037  0.9614 -0.2493  2.5559
 2340TIP3   OH228578   3.895   0.705   0.230  0.1204  0.2752 -0.4401
 2340TIP3    H128579   3.973   0.708   0.286  0.3854  0.1095 -0.7910
 2340TIP3    H228580   3.824   0.736   0.286  0.2320 -0.6382  0.2226
 2341TIP3   OH228581   4.796   4.174   1.265 -0.3088 -0.3210  0.4035
 2341TIP3    H128582   4.756   4.151   1.349 -0.1476  1.6392  1.0616
 2341TIP3    H228583   4.766   4.106   1.205 -2.5047 -0.3729  1.4607
 2342TIP3   OH228584   0.857   2.573   1.207  0.0168  0.0785 -0.5636
 2342TIP3    H128585   0.806   2.494   1.185 -3.0717  1.9687 -0.7888
 2342TIP3    H228586   0.917   2.583   1.133 -2.8187  0.4363 -3.0212
 2343TIP3   OH228587   0.783   4.490   1.552 -0.2259  0.2377  0.3017
 2343TIP3    H128588   0.718   4.450   1.611  0.2932 -2.1710 -0.6570
 2343TIP3    H228589   0.867   4.455   1.581  0.0775 -0.7603 -1.6058
 2344TIP3   OH228590   2.703   0.252   7.422 -0.8922  0.1288 -0.0203
 2344TIP3    H128591   2.642   0.320   7.395 -1.3632 -0.2063  0.1887
 2344TIP3    H228592   2.768   0.248   7.352 -1.6667 -0.1994 -0.7357
 2345TIP3   OH228593   4.598   6.299   8.548  0.0384 -0.1907  0.4457
 2345TIP3    H128594   4.614   6.381   8.594 -0.8018 -0.4129  1.1698
 2345TIP3    H228595   4.660   6.237   8.586  1.1845  0.2674 -0.6190
 2346TIP3   OH228596   1.263   5.098   6.383  0.0384 -0.0880  0.3167
 2346TIP3    H128597   1.344   5.140   6.354  0.5934 -0.6768  0.9813
 2346TIP3    H228598   1.195   5.138   6.330  0.7436  0.5593 -0.1144
 2347TIP3   OH228599   0.657   1.908   0.489 -0.3102  0.0243 -0.8187
 2347TIP3    H128600   0.589   1.925   0.424  0.9207  1.8294 -1.7019
 2347TIP3    H228601   0.702   1.992   0.501  2.6203 -1.3440 -1.2831
 2348TIP3   OH228602   4.864   3.853   0.700  0.8826  0.3648 -0.4541
 2348TIP3    H128603   4.797   3.914   0.668 -0.3225 -1.1232 -0.8886
 2348TIP3    H228604   4.868   3.868   0.794 -0.9511 -0.3181 -0.2330
 2349TIP3   OH228605   3.151   3.374   7.331  0.2431  0.1499 -0.5679
 2349TIP3    H128606   3.189   3.434   7.266  0.6879 -0.7626 -1.1781
 2349TIP3    H228607   3.075   3.421   7.365  0.5517  1.0381 -1.0667
 2350TIP3   OH228608   3.376   5.702   1.682 -0.3664  0.4807  0.2689
 2350TIP3    H128609   3.471   5.705   1.668 -0.3741  0.8635  0.3012
 2350TIP3    H228610   3.341   5.673   1.598 -0.1971  0.0179  0.3550
 2351TIP3   OH228611   5.586   0.015   0.439 -0.4597 -0.6883 -0.1557
 2351TIP3    H128612   5.529   0.038   0.366 -0.7923 -1.4276 -0.1474
 2351TIP3    H228613   5.537  -0.052   0.487  0.5561 -1.6031 -0.3476
 2352TIP3   OH228614   1.563   3.655   6.958  0.5145  0.0775  0.4459
 2352TIP3    H128615   1.484   3.707   6.945  0.5352  0.1133  0.4630
 2352TIP3    H228616   1.631   3.703   6.911  0.1139 -1.0265 -1.3492
 2353TIP3   OH228617   4.878   0.158   7.530 -0.3618  0.1917 -0.9070
 2353TIP3    H128618   4.945   0.190   7.590 -0.5035 -2.3468  0.7264
 2353TIP3    H228619   4.926   0.117   7.459 -0.1668 -0.0960 -0.6119
 2354TIP3   OH228620   0.318   0.680   1.438 -0.1590 -0.6017  0.3795
 2354TIP3    H128621   0.344   0.738   1.510  0.7368 -0.6789  0.1204
 2354TIP3    H228622   0.256   0.619   1.479 -0.8089  0.2772  0.7454
 2355TIP3   OH228623   1.896   0.932   1.291  0.0358 -0.3736 -0.3286
 2355TIP3    H128624   1.985   0.901   1.306  1.0182  1.6500 -1.5318
 2355TIP3    H228625   1.853   0.923   1.376  1.0419 -2.2840  0.0443
 2356TIP3   OH228626   1.385   3.625   2.028  0.2417 -0.1557 -0.7009
 2356TIP3    H128627   1.341   3.667   2.102 -1.2154 -1.7367 -0.5991
 2356TIP3    H228628   1.475   3.657   2.031 -0.6287  2.4988 -0.3425
 2357TIP3   OH228629   0.646   6.164   1.745  1.0624 -0.0185 -0.2700
 2357TIP3    H128630   0.624   6.079   1.707 -1.4237  0.1175  0.7158
 2357TIP3    H228631   0.695   6.142   1.825 -1.0200 -0.6480  0.8924
 2358TIP3   OH228632   5.451   0.075   0.172 -0.1808 -0.1652 -0.2695
 2358TIP3    H128633   5.395   0.071   0.095 -0.3858  0.3852 -0.1509
 2358TIP3    H228634   5.539   0.091   0.137 -0.1174 -0.8752 -0.4444
 2359TIP3   OH228635   0.137   1.742   7.988 -0.0471  0.2120  0.0605
 2359TIP3    H128636   0.123   1.684   7.913  2.4701  0.5149 -0.7401
 2359TIP3    H228637   0.073   1.812   7.976  0.7257  0.6247 -2.2587
 2360TIP3   OH228638   1.942   5.824   7.981  0.4383 -0.0563  0.0892
 2360TIP3    H128639   1.948   5.908   8.027 -0.3763 -0.4564  0.9567
 2360TIP3    H228640   1.910   5.848   7.893 -0.8226  0.4588  0.6623
 2361TIP3   OH228641   3.704   5.657   0.729  0.0381 -0.6735 -0.3082
 2361TIP3    H128642   3.770   5.618   0.786 -0.1063 -1.9937 -1.0060
 2361TIP3    H228643   3.670   5.732   0.779  1.9325 -0.0566  0.1183
 2362TIP3   OH228644   1.097   2.315   7.833  0.2156 -0.0444 -0.4786
 2362TIP3    H128645   1.139   2.254   7.894  0.4430  0.9853  0.4117
 2362TIP3    H228646   1.123   2.282   7.746  1.5333 -0.3799  0.0167
 2363TIP3   OH228647   2.770   2.851   1.182 -0.0347  0.3110 -0.6607
 2363TIP3    H128648   2.787   2.779   1.121 -1.5873 -0.7589  0.0884
 2363TIP3    H228649   2.856   2.884   1.205  0.7238 -1.2740 -1.0804
 2364TIP3   OH228650   5.586   4.530   0.348 -0.0274 -0.5683 -0.2381
 2364TIP3    H128651   5.643   4.462   0.312 -0.4098 -1.4558  0.7543
 2364TIP3    H228652   5.628   4.613   0.323  1.4746 -1.1836  0.1157
 2365TIP3   OH228653   2.731   4.431   7.369  1.1264  0.1136  0.3143
 2365TIP3    H128654   2.731   4.458   7.461  0.5926 -1.8379  0.9331
 2365TIP3    H228655   2.698   4.508   7.323  1.4003  1.1430  1.7452
 2366TIP3   OH228656   6.043   4.527   6.864  0.4673 -0.5091 -0.4567
 2366TIP3    H128657   6.074   4.617   6.850 -0.6536 -0.1354 -0.6795
 2366TIP3    H228658   5.987   4.510   6.788 -1.0955 -0.5807  0.6826
 2367TIP3   OH228659   3.632   6.861   1.349  0.3573  0.2948 -0.0842
 2367TIP3    H128660   3.600   6.841   1.437  0.3763  1.3966  0.1804
 2367TIP3    H228661   3.683   6.941   1.360 -0.7108  1.1724 -1.3125
 2368TIP3   OH228662   0.568   3.536   2.282 -0.3615 -0.0011  0.4194
 2368TIP3    H128663   0.633   3.583   2.334 -0.3431  1.7975 -1.1374
 2368TIP3    H228664   0.484   3.559   2.321 -0.3850  1.7335 -0.5616
 2369TIP3   OH228665   4.187   2.580   0.830 -0.0957 -0.3064  0.4051
 2369TIP3    H128666   4.184   2.527   0.751 -1.6571 -0.9603  0.8737
 2369TIP3    H228667   4.111   2.637   0.824  0.4174  0.4596  0.9026
 2370TIP3   OH228668   0.331   3.395   1.495  0.0427  0.2072 -0.3980
 2370TIP3    H128669   0.402   3.425   1.438  0.0006 -0.8898 -1.0500
 2370TIP3    H228670   0.335   3.453   1.571  2.0669 -0.2394 -0.1082
 2371TIP3   OH228671   3.205   0.332   1.068 -0.3445 -0.1066  0.2708
 2371TIP3    H128672   3.217   0.247   1.025 -0.2930 -0.0021  0.0803
 2371TIP3    H228673   3.178   0.309   1.157  0.2375 -0.3323  0.3985
 2372TIP3   OH228674   0.006   5.171   7.519 -0.4796 -0.2121 -0.3989
 2372TIP3    H128675  -0.043   5.252   7.507  0.9965  0.8399  0.3945
 2372TIP3    H228676   0.079   5.178   7.457 -1.1593 -1.6804 -1.4504
 2373TIP3   OH228677   3.177   6.360   0.114 -0.1658 -0.1612  0.3961
 2373TIP3    H128678   3.267   6.374   0.083  0.2224 -1.8678  0.6821
 2373TIP3    H228679   3.123   6.389   0.041  0.6935 -1.8106 -0.9778
 2374TIP3   OH228680   1.544   6.300   1.124 -0.5726 -0.7023  0.1420
 2374TIP3    H128681   1.623   6.256   1.093 -0.9036 -0.4462 -1.1172
 2374TIP3    H228682   1.527   6.369   1.059 -2.3178 -1.3254 -0.1195
 2375TIP3   OH228683   6.897   4.277   7.775  0.2352 -0.2781 -0.0369
 2375TIP3    H128684   6.853   4.287   7.691  0.4177  1.6444  0.0398
 2375TIP3    H228685   6.925   4.366   7.798  1.7314 -1.0232  1.2258
 2376TIP3   OH228686   6.332   0.952   7.332 -0.6084  0.1371  0.1008
 2376TIP3    H128687   6.295   1.022   7.278  1.2212  0.0676 -1.3449
 2376TIP3    H228688   6.388   0.902   7.272 -0.0913 -1.1929  1.6192
 2377TIP3   OH228689   5.289   1.941   7.050  0.0691 -0.4371 -0.4352
 2377TIP3    H128690   5.214   1.930   6.991  0.4203 -0.2216 -0.9219
 2377TIP3    H228691   5.310   2.034   7.044 -0.6128 -0.1679  0.9133
 2378TIP3   OH228692   6.211   6.239   7.990 -0.6353 -0.1020  0.5325
 2378TIP3    H128693   6.157   6.239   7.911  0.7195 -0.7298 -0.4393
 2378TIP3    H228694   6.199   6.326   8.028 -0.3877  0.6566 -1.0467
 2379TIP3   OH228695   5.931   2.353   7.469  0.1313 -0.7508 -0.1503
 2379TIP3    H128696   5.907   2.270   7.428  0.2244 -1.6952  1.5844
 2379TIP3    H228697   6.026   2.356   7.464  0.0528 -0.0399 -1.4737
 2380TIP3   OH228698   6.461   0.509   1.178  0.4887  0.4034  0.0932
 2380TIP3    H128699   6.556   0.514   1.183  0.6585  1.8727 -2.8237
 2380TIP3    H228700   6.444   0.442   1.111 -0.5888 -0.1838  0.9130
 2381TIP3   OH228701   1.663   2.785   1.510 -0.1154  0.4140  0.9459
 2381TIP3    H128702   1.713   2.778   1.428  0.5536  0.2325  1.3574
 2381TIP3    H228703   1.686   2.872   1.544 -1.8268  1.2658  0.0455
 2382TIP3   OH228704   4.925   3.178   0.036  0.4620  0.6145 -0.8826
 2382TIP3    H128705   4.879   3.220  -0.036  0.6978  2.2278 -0.1364
 2382TIP3    H228706   5.009   3.223   0.042  0.7272  0.0419 -0.0451
 2383TIP3   OH228707   4.710   2.931   0.894  0.3363 -0.0833  0.2751
 2383TIP3    H128708   4.718   3.002   0.958  2.0429 -1.2205  1.3998
 2383TIP3    H228709   4.756   2.858   0.934  0.5185 -1.1744 -1.8176
 2384TIP3   OH228710   3.562   6.791   8.181  0.0408 -0.3921 -0.1059
 2384TIP3    H128711   3.587   6.699   8.189  2.0788  0.1734  0.7478
 2384TIP3    H228712   3.504   6.807   8.256  0.1739 -0.8254  0.0914
 2385TIP3   OH228713   2.892   6.305   8.254 -0.0326  0.0555  0.6240
 2385TIP3    H128714   2.801   6.333   8.265  0.1825  0.2924  1.9473
 2385TIP3    H228715   2.892   6.214   8.283 -0.2553 -0.6622 -1.4460
 2386TIP3   OH228716   4.816   1.506   2.261 -0.2181  0.3984  0.1345
 2386TIP3    H128717   4.721   1.506   2.252 -0.2613  1.4268  0.4412
 2386TIP3    H228718   4.832   1.544   2.347  0.4509 -0.6595  0.4895
 2387TIP3   OH228719   4.804   2.048   0.536  0.6739 -0.3784 -0.8059
 2387TIP3    H128720   4.883   2.065   0.484 -0.3476 -0.1949 -2.3572
 2387TIP3    H228721   4.743   2.117   0.509 -0.4558 -1.2592 -0.5538
 2388TIP3   OH228722   2.951   5.112   0.069 -0.0056  0.8264 -0.0348
 2388TIP3    H128723   2.872   5.060   0.056 -0.2632  1.4149 -0.8832
 2388TIP3    H228724   2.934   5.161   0.150 -0.4335  0.8226 -0.1215
 2389TIP3   OH228725   4.342   5.344   1.353 -0.2539 -0.4155 -0.4890
 2389TIP3    H128726   4.413   5.373   1.410  0.0385 -0.4340 -0.8450
 2389TIP3    H228727   4.292   5.423   1.334  1.3371  0.1613 -2.5912
 2390TIP3   OH228728   1.805   5.031   1.601 -0.0665  0.2006 -0.1796
 2390TIP3    H128729   1.857   5.110   1.615  0.9603 -0.6667  1.1651
 2390TIP3    H228730   1.820   4.978   1.679 -0.6763 -1.3590 -1.0667
 2391TIP3   OH228731   5.285   1.384   7.211  0.4842  0.5791  0.2141
 2391TIP3    H128732   5.288   1.427   7.297 -2.4671  0.3704  0.5379
 2391TIP3    H228733   5.330   1.445   7.153  3.4639  0.2726  1.9703
 2392TIP3   OH228734   0.816   5.508   8.084 -0.2634  0.5157 -0.4152
 2392TIP3    H128735   0.874   5.494   8.009  2.3837 -1.6782  1.8023
 2392TIP3    H228736   0.770   5.589   8.065  2.2444  1.4451 -3.1788
 2393TIP3   OH228737   1.563   0.981   7.789 -0.8902 -0.0420 -0.8907
 2393TIP3    H128738   1.565   0.887   7.802 -0.8906 -0.1594 -1.6649
 2393TIP3    H228739   1.651   1.004   7.759 -1.1011  0.0851 -1.4226
 2394TIP3   OH228740   4.534   2.886   6.911  0.5235 -0.7407 -0.1552
 2394TIP3    H128741   4.537   2.808   6.855 -2.9058 -1.5520  0.5713
 2394TIP3    H228742   4.552   2.852   6.999 -0.3034 -0.6211  0.0669
 2395TIP3   OH228743   5.075   0.794   1.614  0.0562  0.1672 -0.7794
 2395TIP3    H128744   4.980   0.801   1.620 -0.0791 -2.1171  0.8298
 2395TIP3    H228745   5.090   0.735   1.540  0.1162 -0.8939  0.0634
 2396TIP3   OH228746   4.726   6.624   0.602 -0.0340  0.6807 -0.1680
 2396TIP3    H128747   4.676   6.544   0.615  0.9325  0.1631  0.5800
 2396TIP3    H228748   4.669   6.682   0.552 -0.7331 -0.4870 -0.7366
 2397TIP3   OH228749   5.869   1.533   1.073 -0.3319  0.4548 -0.7151
 2397TIP3    H128750   5.775   1.551   1.085  0.1611  2.5937  0.3833
 2397TIP3    H228751   5.902   1.609   1.025  0.4320 -1.4622 -3.4499
 2398TIP3   OH228752   5.598   2.045   7.997  1.0680 -0.3812 -0.0640
 2398TIP3    H128753   5.528   1.985   8.019  0.8997 -0.2640 -0.2682
 2398TIP3    H228754   5.642   2.063   8.080 -0.9501  1.8365  0.6294
 2399TIP3   OH228755   5.908   6.571   8.242 -0.0317 -0.2616  0.9795
 2399TIP3    H128756   6.003   6.563   8.249  0.1217  0.0912 -0.3586
 2399TIP3    H228757   5.881   6.487   8.203  0.2995  1.1532 -2.7398
 2400TIP3   OH228758   5.965   3.540   8.433 -0.2309 -0.1448  0.2079
 2400TIP3    H128759   5.997   3.631   8.431  0.7913 -0.4877  0.6071
 2400TIP3    H228760   6.017   3.496   8.366  0.1405 -0.7213  0.8780
 2401TIP3   OH228761   2.841   5.041   1.809 -0.5036 -0.1067  0.6971
 2401TIP3    H128762   2.893   5.033   1.729 -0.9929 -0.4933  0.4116
 2401TIP3    H228763   2.865   5.127   1.844  0.5597 -0.4112  0.7441
 2402TIP3   OH228764   1.372   5.046   0.506  0.6112  0.1520 -0.3604
 2402TIP3    H128765   1.390   5.109   0.437  0.1254  0.0554 -0.5857
 2402TIP3    H228766   1.334   4.971   0.460 -2.5274  1.2066  0.2342
 2403TIP3   OH228767   6.430   1.891   0.671  0.3450 -0.0354  0.0023
 2403TIP3    H128768   6.365   1.830   0.706 -0.5840  0.7064 -0.3646
 2403TIP3    H228769   6.495   1.835   0.629  0.6404 -0.8573  1.4906
 2404TIP3   OH228770   0.080   1.922   7.083  0.0303  0.2097  0.1658
 2404TIP3    H128771   0.064   1.828   7.075  0.0548  0.3631 -2.4823
 2404TIP3    H228772   0.015   1.952   7.147  0.2666 -1.6114  1.3451
 2405TIP3   OH228773   3.332   6.255   0.673  0.2922  0.5299  0.5421
 2405TIP3    H128774   3.276   6.331   0.656  0.0967  0.2749  0.0237
 2405TIP3    H228775   3.287   6.206   0.742 -0.6888 -0.2409 -0.6105
 2406TIP3   OH228776   6.534   3.322   1.923 -0.7508  0.3853  0.2678
 2406TIP3    H128777   6.505   3.386   1.988  0.9675  0.3277  1.1450
 2406TIP3    H228778   6.629   3.316   1.937 -0.8094 -2.0248 -0.1095
 2407TIP3   OH228779   3.299   1.459   2.230 -0.1642 -0.4496 -0.0994
 2407TIP3    H128780   3.312   1.420   2.316  0.4218  2.3394  1.1935
 2407TIP3    H228781   3.385   1.452   2.187 -0.0655 -0.5995  0.1212
 2408TIP3   OH228782   4.880   6.499   2.118 -0.3557 -0.0296 -0.1948
 2408TIP3    H128783   4.941   6.453   2.176 -0.7505  0.4197  0.5996
 2408TIP3    H228784   4.814   6.434   2.095  0.6443 -0.6419 -1.4198
 2409TIP3   OH228785   4.744   0.161   6.840 -0.6570 -0.6291  0.3153
 2409TIP3    H128786   4.824   0.204   6.808 -1.3852 -0.0857 -0.8375
 2409TIP3    H228787   4.759   0.068   6.821  0.1976 -0.6944  1.2241
 2410TIP3   OH228788   6.028   2.294   7.076  0.0380  0.7446 -0.2747
 2410TIP3    H128789   6.108   2.285   7.129  0.3845 -2.0292 -1.0805
 2410TIP3    H228790   6.057   2.337   6.996  0.0624  2.4475  0.5969
 2411TIP3   OH228791   1.567   6.018   0.083  0.2474  0.0336 -0.8214
 2411TIP3    H128792   1.585   6.073   0.007 -0.1321  2.0575  0.4687
 2411TIP3    H228793   1.472   6.022   0.094  0.4421  1.3987  0.8287
 2412TIP3   OH228794   0.072   5.842   1.251  0.0900  0.2187  0.5761
 2412TIP3    H128795   0.125   5.865   1.327 -0.3332 -0.1849  0.9949
 2412TIP3    H228796   0.130   5.859   1.176  1.2868 -1.4716  1.0681
 2413TIP3   OH228797   3.754   2.648   1.350  0.0053 -0.4811 -0.1783
 2413TIP3    H128798   3.724   2.558   1.359  0.8520 -0.7085  0.4711
 2413TIP3    H228799   3.850   2.642   1.355  0.1202  0.3570 -0.9876
 2414TIP3   OH228800   3.056   2.260   8.252  0.9486  0.5797 -0.0225
 2414TIP3    H128801   2.972   2.306   8.252 -0.1385 -1.1959  2.5642
 2414TIP3    H228802   3.054   2.207   8.173 -1.2866 -0.8171  0.8557
 2415TIP3   OH228803   1.555   5.909   7.258  0.0358  0.0317 -0.1534
 2415TIP3    H128804   1.471   5.952   7.243  0.5506  1.1447  0.0071
 2415TIP3    H228805   1.577   5.931   7.349  0.1566 -0.8769  0.0465
 2416TIP3   OH228806   1.590   5.871   6.945  0.1740 -0.3117 -0.0814
 2416TIP3    H128807   1.508   5.823   6.930  0.8221 -0.8885 -2.1136
 2416TIP3    H228808   1.586   5.896   7.037 -1.1660 -2.4202  0.5135
 2417TIP3   OH228809   0.162   1.546   0.154  0.0670 -0.2926  0.0209
 2417TIP3    H128810   0.098   1.529   0.222  0.0603  1.2545  0.4454
 2417TIP3    H228811   0.247   1.533   0.196  0.1497 -4.0242 -0.9801
 2418TIP3   OH228812   4.276   1.802   0.232 -0.1003  0.5421  0.0185
 2418TIP3    H128813   4.342   1.789   0.163  0.8046 -0.8117  1.0849
 2418TIP3    H228814   4.223   1.722   0.230 -0.9166  1.0736  0.0246
 2419TIP3   OH228815   2.952   4.335   1.197 -0.4582  0.3798  0.1091
 2419TIP3    H128816   3.001   4.300   1.123 -0.4349  0.1105  0.2530
 2419TIP3    H228817   2.945   4.429   1.179  0.3098  0.4604  0.2018
 2420TIP3   OH228818   6.879   1.668   1.129 -0.3088 -0.4850  0.5481
 2420TIP3    H128819   6.960   1.625   1.099 -0.2423  0.1407 -0.1995
 2420TIP3    H228820   6.909   1.744   1.179 -0.4377 -0.3718  0.4534
 2421TIP3   OH228821   2.556   4.634   8.366 -0.0436 -0.4043  0.3058
 2421TIP3    H128822   2.511   4.668   8.444 -0.3065  2.7888 -1.0865
 2421TIP3    H228823   2.647   4.623   8.394 -0.1609  0.5673  1.1497
 2422TIP3   OH228824   3.710   0.100   7.730  0.4370 -0.3341  0.0032
 2422TIP3    H128825   3.625   0.090   7.772  0.1734 -0.9503 -0.6649
 2422TIP3    H228826   3.692   0.151   7.651  0.8272  0.2422  0.2759
 2423TIP3   OH228827   1.599   5.464   0.149  0.0854  0.1407  0.1737
 2423TIP3    H128828   1.555   5.538   0.108 -0.6200  0.0219  0.6945
 2423TIP3    H228829   1.590   5.479   0.243 -2.9936 -2.1824  0.4154
 2424TIP3   OH228830   4.998   3.201   0.483  0.3683  0.5627 -0.1409
 2424TIP3    H128831   4.968   3.163   0.565  1.5337  2.5994  1.3174
 2424TIP3    H228832   4.919   3.208   0.429 -0.0377 -3.0860 -0.2800
 2425TIP3   OH228833   4.308   3.662   8.231 -0.0710 -0.0244 -0.1772
 2425TIP3    H128834   4.278   3.576   8.203 -0.1539 -0.0855  0.0971
 2425TIP3    H228835   4.247   3.723   8.189  0.0266 -0.0938 -0.4224
 2426TIP3   OH228836   3.952   1.135   0.999 -0.1051 -0.3318 -0.1187
 2426TIP3    H128837   3.952   1.140   1.095  1.4190  1.6233 -0.1603
 2426TIP3    H228838   3.881   1.193   0.972 -0.2271 -0.5178 -0.2035
 2427TIP3   OH228839   4.169   3.083   1.874  0.1716 -0.1074 -0.1732
 2427TIP3    H128840   4.120   3.056   1.796 -1.3816 -0.1229  0.7651
 2427TIP3    H228841   4.193   3.174   1.857  0.7175 -0.4059 -1.0739
 2428TIP3   OH228842   0.431   5.631   0.991 -0.0149  0.2575 -0.3327
 2428TIP3    H128843   0.484   5.699   1.033  0.4711 -1.1565  1.4668
 2428TIP3    H228844   0.492   5.559   0.977 -1.0975 -0.7913  0.2381
 2429TIP3   OH228845   2.744   2.513   8.355 -0.1212  0.3023 -0.0048
 2429TIP3    H128846   2.835   2.523   8.326  0.9575 -1.5034  2.4175
 2429TIP3    H228847   2.748   2.443   8.420 -3.0150  1.2399  1.3048
 2430TIP3   OH228848   2.932   2.165   0.404 -0.2634 -0.3983  0.3201
 2430TIP3    H128849   2.932   2.128   0.493 -2.3934  1.7444  1.3429
 2430TIP3    H228850   2.917   2.090   0.347 -0.4132 -1.6371  1.9132
 2431TIP3   OH228851   6.824   1.004   0.622  0.1485  0.1432 -0.0159
 2431TIP3    H128852   6.833   1.096   0.644  0.1539  0.2933 -0.6111
 2431TIP3    H228853   6.763   1.003   0.548  1.0798 -0.2138 -0.8001
 2432TIP3   OH228854   4.840   3.511   8.097  0.5125 -0.0648 -0.4537
 2432TIP3    H128855   4.910   3.455   8.130 -0.1521 -0.2953  0.5949
 2432TIP3    H228856   4.772   3.450   8.069 -0.2325  0.2017  0.7289
 2433TIP3   OH228857   6.658   2.754   6.114 -1.1737 -0.1742  0.4017
 2433TIP3    H128858   6.742   2.799   6.125 -2.1332  1.5147  1.0859
 2433TIP3    H228859   6.667   2.707   6.031  0.4177  0.0218  0.4318
 2434TIP3   OH228860   6.580   0.482   0.236  0.2237 -0.3863  1.1513
 2434TIP3    H128861   6.560   0.553   0.297  0.8985  1.1936 -0.3759
 2434TIP3    H228862   6.518   0.494   0.164  0.4128 -1.2896  0.8304
 2435TIP3   OH228863   3.469   4.438   6.471 -0.0515  1.2703 -0.1006
 2435TIP3    H128864   3.412   4.411   6.543 -1.1051  0.4789 -1.1874
 2435TIP3    H228865   3.535   4.368   6.465 -0.1792  1.1535 -0.1371
 2436TIP3   OH228866   5.219   0.898   7.119  0.2549  0.8673  0.3108
 2436TIP3    H128867   5.290   0.918   7.058  1.0653  0.3190  1.0424
 2436TIP3    H228868   5.165   0.977   7.120 -0.4022  0.5218 -1.8984
 2437TIP3   OH228869   0.912   3.494   1.357  0.0671 -0.0394 -0.6861
 2437TIP3    H128870   0.820   3.497   1.384 -0.2375 -0.5260 -1.6358
 2437TIP3    H228871   0.957   3.551   1.420 -0.7158 -0.5846  0.4002
 2438TIP3   OH228872   6.473   4.224   1.330  0.0881  0.2102 -0.0460
 2438TIP3    H128873   6.385   4.211   1.296  0.4048 -1.1602 -0.3885
 2438TIP3    H228874   6.511   4.292   1.274 -0.2399 -0.2462 -0.8273
 2439TIP3   OH228875   3.579   2.395   1.626  0.1855 -0.1015 -0.3064
 2439TIP3    H128876   3.506   2.345   1.663  0.7969 -0.5189  0.3586
 2439TIP3    H228877   3.538   2.454   1.563 -0.9033  0.6839  1.0783
 2440TIP3   OH228878   3.462   6.226   0.279 -0.3140  0.1000  0.7593
 2440TIP3    H128879   3.470   6.240   0.184 -2.5047 -1.4908  0.2485
 2440TIP3    H228880   3.414   6.303   0.310  1.8515  1.4451  0.9260
 2441TIP3   OH228881   5.805   3.437   0.865  1.0864 -0.1645 -0.0963
 2441TIP3    H128882   5.755   3.356   0.853  0.5333  0.0874  0.4336
 2441TIP3    H228883   5.877   3.412   0.923 -0.3324  0.1651  1.9232
 2442TIP3   OH228884   6.046   1.433   0.000  0.3139 -0.2660  0.2573
 2442TIP3    H128885   5.950   1.430   0.003  0.2435  0.2106 -1.0474
 2442TIP3    H228886   6.073   1.384   0.078 -0.9838 -0.1330  0.8272
 2443TIP3   OH228887   1.628   1.625   1.163  0.4092 -0.1527  0.2012
 2443TIP3    H128888   1.717   1.660   1.172  1.0432 -1.6211 -0.0405
 2443TIP3    H228889   1.603   1.598   1.251  0.9310 -1.3999 -0.0248
 2444TIP3   OH228890   3.934   2.970   2.142 -0.0297 -0.2572  0.2068
 2444TIP3    H128891   3.848   2.976   2.101  0.0541  0.4447  0.1310
 2444TIP3    H228892   3.993   3.014   2.081  0.2142  0.1562  0.7344
 2445TIP3   OH228893   5.344   4.406   1.142  0.5212  0.0625  0.2056
 2445TIP3    H128894   5.365   4.319   1.109 -0.5776  0.2400 -1.0561
 2445TIP3    H228895   5.416   4.461   1.110  0.8141 -0.2446  0.3330
 2446TIP3   OH228896   4.885   0.686   8.193 -0.0814  0.5692  0.0541
 2446TIP3    H128897   4.976   0.694   8.163  0.0882 -1.7711 -0.2713
 2446TIP3    H228898   4.840   0.643   8.120 -1.1909  0.6286  0.6798
 2447TIP3   OH228899   3.320   5.364   0.531 -0.4341  0.1346 -0.3691
 2447TIP3    H128900   3.267   5.443   0.543  0.3586  0.4540  1.4240
 2447TIP3    H228901   3.262   5.292   0.556 -0.3570  0.4047  0.6519
 2448TIP3   OH228902   4.049   1.495   8.508  0.3418  0.2438 -0.4198
 2448TIP3    H128903   4.007   1.426   8.457 -0.9073 -0.5188  1.5347
 2448TIP3    H228904   4.141   1.468   8.513  0.2283 -0.3163 -1.1936
 2449TIP3   OH228905   2.934   2.212   7.005 -0.5526  0.6065 -0.2597
 2449TIP3    H128906   2.953   2.306   6.997  0.6204  0.2569 -2.4716
 2449TIP3    H228907   3.019   2.169   6.998 -1.0861 -0.6543  0.6087
 2450TIP3   OH228908   4.154   1.075   0.822  0.8503  0.2479  0.0598
 2450TIP3    H128909   4.171   1.149   0.765  1.6425  0.9295  1.1560
 2450TIP3    H228910   4.083   1.105   0.880 -0.3592 -0.6420 -0.8923
 2451TIP3   OH228911   1.443   6.594   1.780 -0.0289 -0.0897 -0.2302
 2451TIP3    H128912   1.383   6.601   1.855 -2.3108  0.8028 -2.0431
 2451TIP3    H228913   1.413   6.516   1.733  1.0150 -0.3036 -0.5661
 2452TIP3   OH228914   1.381   4.855   6.394 -0.4210 -0.3701  0.3750
 2452TIP3    H128915   1.326   4.918   6.347  0.2170 -0.8523 -1.0624
 2452TIP3    H228916   1.348   4.858   6.484 -0.9224  1.4294  0.1876
 2453TIP3   OH228917   3.092   4.102   2.123 -0.5294 -0.5941 -0.0093
 2453TIP3    H128918   3.118   4.151   2.044 -0.3973 -0.1451  0.3049
 2453TIP3    H228919   3.053   4.168   2.180 -1.2691 -1.0454  0.0233
 2454TIP3   OH228920   2.576   1.360   1.577  0.0245 -0.1641  0.1585
 2454TIP3    H128921   2.536   1.287   1.624 -0.5670  0.3369  0.4385
 2454TIP3    H228922   2.658   1.324   1.543  0.2545 -0.6653  1.1888
 2455TIP3   OH228923   1.660   4.948   7.577 -0.8962  0.4159 -0.3890
 2455TIP3    H128924   1.696   4.864   7.548 -3.2272 -1.5847  2.0526
 2455TIP3    H228925   1.715   4.973   7.651 -0.4922  0.8752 -0.8280
 2456TIP3   OH228926   3.261   6.751   1.133  0.1455 -0.1026  0.2719
 2456TIP3    H128927   3.197   6.680   1.142  0.1527 -0.3324 -1.2188
 2456TIP3    H228928   3.254   6.800   1.214 -1.1658 -0.7436  0.5731
 2457TIP3   OH228929   6.312   4.855   8.115  0.0147  0.0621  0.0503
 2457TIP3    H128930   6.347   4.941   8.140  0.6770 -0.8027  2.3411
 2457TIP3    H228931   6.292   4.812   8.198  1.3348 -2.6611 -0.9010
 2458TIP3   OH228932   4.270   6.681   7.326  0.3222  0.3657 -0.4621
 2458TIP3    H128933   4.304   6.764   7.292  0.4056 -0.0375 -1.4106
 2458TIP3    H228934   4.321   6.666   7.406  0.2911  1.2316 -0.2627
 2459TIP3   OH228935   1.949   6.061   0.394  0.9392 -0.0823  0.2695
 2459TIP3    H128936   1.934   6.111   0.474  0.5964 -0.8142  0.6809
 2459TIP3    H228937   1.885   5.989   0.399 -0.5709  1.0250 -1.6870
 2460TIP3   OH228938   3.249   6.280   1.128 -0.0657 -0.2619 -0.6249
 2460TIP3    H128939   3.343   6.266   1.123  0.0295  0.3464 -0.6471
 2460TIP3    H228940   3.233   6.302   1.220 -0.1039  0.1585 -0.7287
 2461TIP3   OH228941   2.318   5.357   1.652 -0.5207  0.5949  0.2298
 2461TIP3    H128942   2.349   5.433   1.603 -0.7457 -0.8123 -2.2450
 2461TIP3    H228943   2.273   5.302   1.587 -1.3948 -1.1192  2.1463
 2462TIP3   OH228944   4.719   6.304   7.624  0.1818 -0.0104  0.0391
 2462TIP3    H128945   4.789   6.254   7.665  1.1983  1.1422 -0.2349
 2462TIP3    H228946   4.669   6.340   7.697  1.3794  1.1917  0.3215
 2463TIP3   OH228947   5.623   1.728   7.949  0.0739 -0.5325 -0.0721
 2463TIP3    H128948   5.645   1.774   8.030  1.3364  0.6436 -1.0280
 2463TIP3    H228949   5.682   1.766   7.884  0.4732 -2.8019 -1.1490
 2464TIP3   OH228950   4.231   1.516   7.664  0.4198 -0.2249  0.1190
 2464TIP3    H128951   4.253   1.577   7.594  1.0379 -1.3684 -0.7097
 2464TIP3    H228952   4.200   1.438   7.619 -2.3311  0.1240  1.1789
 2465TIP3   OH228953   5.620   3.629   0.923 -0.2550 -0.3905  0.1608
 2465TIP3    H128954   5.595   3.662   0.837 -0.6718  0.2335  0.5156
 2465TIP3    H228955   5.656   3.542   0.906 -1.3771 -0.7413 -0.5253
 2466TIP3   OH228956   4.861   0.510   6.760  0.2190  0.2593  0.1776
 2466TIP3    H128957   4.865   0.602   6.785  1.5923  0.3577 -0.3144
 2466TIP3    H228958   4.886   0.462   6.840  3.6650  0.5350 -0.5659
 2467TIP3   OH228959   5.854   0.962   1.544  0.4296 -0.5610  0.1876
 2467TIP3    H128960   5.874   1.029   1.609 -1.0673 -0.3398  0.4655
 2467TIP3    H228961   5.841   1.011   1.463  0.7744 -0.6749  0.0628
 2468TIP3   OH228962   5.873   2.073   7.589 -0.6055 -0.6729  0.2249
 2468TIP3    H128963   5.885   2.076   7.494  2.0371 -1.0853  0.4836
 2468TIP3    H228964   5.961   2.074   7.625 -1.4369 -2.5852  2.6345
 2469TIP3   OH228965   2.241   4.162   6.626  0.3924  0.0467  0.4298
 2469TIP3    H128966   2.299   4.111   6.569 -2.5331 -1.4007 -1.5618
 2469TIP3    H228967   2.162   4.108   6.631 -1.9647  3.2484  0.3162
 2470TIP3   OH228968   0.921   5.100   2.551  0.0977 -0.4802  0.2369
 2470TIP3    H128969   0.832   5.102   2.516  1.2720 -0.1540 -3.0181
 2470TIP3    H228970   0.955   5.188   2.535  1.0983 -0.6518  1.2822
 2471TIP3   OH228971   0.216   0.709   6.862 -0.3557 -0.0505 -0.6426
 2471TIP3    H128972   0.139   0.743   6.817 -0.1994 -1.2477 -1.8864
 2471TIP3    H228973   0.268   0.667   6.793 -0.7329 -3.1183  0.7491
 2472TIP3   OH228974   2.429   3.346   1.157 -0.4133 -0.3063  0.1980
 2472TIP3    H128975   2.450   3.400   1.234 -0.8330 -0.4910  0.4476
 2472TIP3    H228976   2.514   3.323   1.120  0.0066 -3.0159  2.5287
 2473TIP3   OH228977   6.080   3.885   7.789 -0.6921 -0.0578  0.0566
 2473TIP3    H128978   6.001   3.926   7.824 -0.0038  3.9299 -2.4364
 2473TIP3    H228979   6.152   3.936   7.827  0.5161 -1.2880 -0.4764
 2474TIP3   OH228980   6.884   1.255   0.707 -0.3874  0.0482  0.4075
 2474TIP3    H128981   6.887   1.350   0.695  0.1279  0.0200  0.2931
 2474TIP3    H228982   6.915   1.241   0.797  4.0248 -0.2690 -0.9031
 2475TIP3   OH228983   0.748   0.924   0.051  0.0982  0.1933 -0.3348
 2475TIP3    H128984   0.740   0.834   0.081  0.1095  0.3250  0.0653
 2475TIP3    H228985   0.840   0.933   0.027 -0.2538 -0.4234 -2.0713
 2476TIP3   OH228986   0.834   2.655   0.515 -0.7438  0.4589  0.3673
 2476TIP3    H128987   0.882   2.598   0.455 -1.1544  0.2921  0.1994
 2476TIP3    H228988   0.745   2.656   0.482 -0.6390  1.6186  0.0591
 2477TIP3   OH228989   4.988   0.837   0.200 -0.0232  0.9247 -0.5580
 2477TIP3    H128990   5.063   0.793   0.160  3.3500  1.9525  3.8329
 2477TIP3    H228991   4.965   0.782   0.275 -1.3104  2.3933  0.1781
 2478TIP3   OH228992   3.271   5.943   0.781  1.0500 -0.3481 -0.1812
 2478TIP3    H128993   3.285   5.948   0.686 -2.4080 -0.0756 -0.8218
 2478TIP3    H228994   3.253   6.033   0.807  0.5348 -0.6215  0.4311
 2479TIP3   OH228995   2.426   0.108   7.365 -0.2584 -0.4466  0.0292
 2479TIP3    H128996   2.462   0.181   7.314 -0.6516 -0.9030 -0.9228
 2479TIP3    H228997   2.496   0.043   7.367  1.7410  1.3847  4.2911
 2480TIP3   OH228998   0.664   0.354   1.234  0.6401 -0.0388  0.5532
 2480TIP3    H128999   0.583   0.305   1.220  1.5297 -1.0996 -1.3432
 2480TIP3    H229000   0.720   0.295   1.285  0.3930  0.4995  1.4520
 2481TIP3   OH229001   6.489   2.799   2.573 -0.2465 -0.5073 -0.1507
 2481TIP3    H129002   6.556   2.734   2.591  0.5883  0.8241  1.9239
 2481TIP3    H229003   6.533   2.867   2.522 -0.2656 -0.0833  0.3922
 2482TIP3   OH229004   5.108   6.827   8.125 -0.1251 -0.7889 -0.1158
 2482TIP3    H129005   5.051   6.785   8.190 -1.5841 -0.3849 -1.0768
 2482TIP3    H229006   5.189   6.777   8.128 -0.3623 -1.1283  1.6131
 2483TIP3   OH229007   6.866   1.511   0.641 -0.4778 -0.2257 -0.2938
 2483TIP3    H129008   6.813   1.584   0.610  0.0951 -0.5463 -2.1738
 2483TIP3    H229009   6.951   1.550   0.663 -1.1428  0.1372  1.8027
 2484TIP3   OH229010   6.426   0.304   1.003 -0.2306 -0.1267 -0.0180
 2484TIP3    H129011   6.449   0.219   1.041  0.3156 -0.9621 -2.0772
 2484TIP3    H229012   6.391   0.283   0.917  1.4565  1.8106 -1.2843
 2485TIP3   OH229013   2.026   4.132   0.093  0.3480  0.1258 -0.6323
 2485TIP3    H129014   1.951   4.190   0.076  0.0071 -0.0256  0.3154
 2485TIP3    H229015   2.103   4.186   0.074  0.0200 -0.1071 -2.9085
 2486TIP3   OH229016   5.597   2.783   8.537 -0.2887 -0.2341 -0.5405
 2486TIP3    H129017   5.612   2.702   8.585  1.6890 -0.5662 -1.5995
 2486TIP3    H229018   5.659   2.845   8.575  0.8133 -0.3034 -2.0917
 2487TIP3   OH229019   1.362   2.221   8.138  0.2227 -0.2507 -0.3662
 2487TIP3    H129020   1.404   2.302   8.108 -0.8578 -0.1684 -1.7664
 2487TIP3    H229021   1.374   2.160   8.065  0.0464 -1.0035  0.2219
 2488TIP3   OH229022   2.521   2.151   0.581 -0.0312  0.2150  0.3414
 2488TIP3    H129023   2.479   2.164   0.666  0.7206 -0.2888  0.8100
 2488TIP3    H229024   2.527   2.056   0.571  0.0772  0.2728 -0.1714
 2489TIP3   OH229025   5.082   2.456   2.209  0.7866 -0.1651 -0.0378
 2489TIP3    H129026   5.125   2.501   2.282  1.7553 -0.3506 -0.4678
 2489TIP3    H229027   5.154   2.433   2.150  0.7023 -4.3407  1.2033
 2490TIP3   OH229028   1.679   1.948   7.441  0.4742 -0.5375  0.2001
 2490TIP3    H129029   1.658   2.025   7.387  1.1170 -0.7784 -0.4076
 2490TIP3    H229030   1.748   1.903   7.392 -0.0279 -1.6047  0.4629
 2491TIP3   OH229031   1.425   6.886   8.173 -0.3445 -0.5599 -0.3488
 2491TIP3    H129032   1.404   6.813   8.115 -2.6642 -0.0212 -0.2797
 2491TIP3    H229033   1.407   6.853   8.261 -1.8463  0.1919 -0.3492
 2492TIP3   OH229034   2.281   1.709   2.271  0.1910  0.0251  0.2895
 2492TIP3    H129035   2.200   1.755   2.291  0.4207  0.6415 -0.1627
 2492TIP3    H229036   2.253   1.631   2.223 -0.0481  1.0950 -1.3860
 2493TIP3   OH229037   4.196   1.007   7.954 -0.2111  0.3725 -0.0491
 2493TIP3    H129038   4.188   1.095   7.917  2.2368 -0.3358 -2.5200
 2493TIP3    H229039   4.148   0.951   7.894 -2.0167 -0.0402  1.6760
 2494TIP3   OH229040   1.788   1.097   7.696  0.5178 -0.3533 -0.1007
 2494TIP3    H129041   1.820   1.143   7.773  2.4190 -1.5078 -0.1414
 2494TIP3    H229042   1.768   1.166   7.633  0.7415  0.5164  0.7629
 2495TIP3   OH229043   3.205   4.282   7.511 -0.5807  0.9337  0.0700
 2495TIP3    H129044   3.197   4.306   7.603 -1.2581 -0.3720  0.3629
 2495TIP3    H229045   3.297   4.296   7.490 -0.2636  0.4951  1.1564
 2496TIP3   OH229046   5.188   6.426   7.394  0.1150 -0.3193 -0.3731
 2496TIP3    H129047   5.244   6.486   7.345 -0.2828  0.6734  0.3404
 2496TIP3    H229048   5.139   6.378   7.328  0.1261  0.4626 -0.9623
 2497TIP3   OH229049   1.711   5.048   1.354 -0.2721 -0.2019 -0.2363
 2497TIP3    H129050   1.788   5.034   1.299 -0.3985 -1.2792 -0.1627
 2497TIP3    H229051   1.745   5.047   1.443 -0.2828 -0.0708 -0.2316
 2498TIP3   OH229052   2.613   5.326   0.151  0.4908  0.4451 -0.3159
 2498TIP3    H129053   2.655   5.368   0.075  0.6688  1.4025  0.2873
 2498TIP3    H229054   2.522   5.315   0.124  0.4406  1.2265 -0.5067
 2499TIP3   OH229055   6.799   0.870   1.312  0.1787  0.3549 -0.4422
 2499TIP3    H129056   6.741   0.946   1.319 -0.4229 -0.1308  0.1164
 2499TIP3    H229057   6.781   0.834   1.225  0.5111  0.8789 -0.7324
 2500TIP3   OH229058   6.584   6.764   0.286 -0.3224  0.0315 -0.2591
 2500TIP3    H129059   6.563   6.748   0.378 -1.0341  0.5343 -0.3305
 2500TIP3    H229060   6.674   6.732   0.277  0.0590  0.7357  0.8072
 2501TIP3   OH229061   2.650   6.787   0.362 -0.0071  0.2868 -0.2687
 2501TIP3    H129062   2.663   6.849   0.434  0.6261 -1.4882  1.2445
 2501TIP3    H229063   2.730   6.793   0.310  0.6429 -0.2046  0.6541
 2502TIP3   OH229064   4.262   3.722   0.194  0.4884  0.2092 -0.1386
 2502TIP3    H129065   4.279   3.642   0.145 -0.7265 -1.2415  1.6858
 2502TIP3    H229066   4.336   3.730   0.254  0.9626  0.8855 -0.7873
 2503TIP3   OH229067   2.501   6.594   2.081 -0.6345  0.5182  0.7613
 2503TIP3    H129068   2.592   6.577   2.101 -0.0552  1.8538 -0.5459
 2503TIP3    H229069   2.455   6.584   2.164  0.7230  0.0387  1.4747
 2504TIP3   OH229070   6.685   1.468   6.988  0.0839 -0.1246 -0.0111
 2504TIP3    H129071   6.671   1.482   6.895 -0.4502  2.7063  0.3862
 2504TIP3    H229072   6.780   1.468   6.999  0.1408 -0.0628 -0.5046
 2505TIP3   OH229073   5.976   6.152   1.191 -0.2074 -0.2069  0.6802
 2505TIP3    H129074   5.955   6.060   1.175 -1.2212 -0.1004  1.3402
 2505TIP3    H229075   6.005   6.155   1.282  1.5298 -0.1415  0.1555
 2506TIP3   OH229076   4.766   3.398   2.702  0.0463 -0.1345 -0.2901
 2506TIP3    H129077   4.753   3.324   2.643 -1.2075  0.1231 -0.3895
 2506TIP3    H229078   4.677   3.419   2.733  0.8210 -1.3221  3.0499
 2507TIP3   OH229079   6.129   4.798   8.333  0.0764 -0.1967  0.1054
 2507TIP3    H129080   6.091   4.790   8.420  0.1709  0.1299  0.1761
 2507TIP3    H229081   6.055   4.784   8.273  0.0434 -0.5831  0.2342
 2508TIP3   OH229082   1.018   1.603   1.036 -0.4568  0.0550 -0.0573
 2508TIP3    H129083   1.075   1.632   1.108  1.3318 -2.4076 -0.3234
 2508TIP3    H229084   1.006   1.509   1.052  2.0610 -1.2122 -4.1503
 2509TIP3   OH229085   6.718   6.464   0.915 -0.3336  0.1642  0.1806
 2509TIP3    H129086   6.632   6.488   0.879 -0.1045 -1.4241 -1.5529
 2509TIP3    H229087   6.716   6.369   0.922  1.4859  0.0299 -0.4937
 2510TIP3   OH229088   0.147   3.895   1.368 -0.1666  0.4148  0.6598
 2510TIP3    H129089   0.113   3.861   1.450  2.7309 -1.8035  1.0774
 2510TIP3    H229090   0.108   3.839   1.301 -1.2664  1.2187  0.5765
 2511TIP3   OH229091   4.483   5.514   1.537 -0.3056 -0.6801  0.0960
 2511TIP3    H129092   4.430   5.570   1.479  0.4044  0.7170  0.7520
 2511TIP3    H229093   4.503   5.569   1.612  0.4391 -1.8339  0.7788
 2512TIP3   OH229094   1.521   4.290   0.799 -0.4241 -0.1890 -0.7500
 2512TIP3    H129095   1.487   4.232   0.866 -0.7441  0.1395 -0.6250
 2512TIP3    H229096   1.616   4.288   0.810 -0.4998  0.2134  0.0018
 2513TIP3   OH229097   5.235   5.619   0.761  0.5535 -0.0981 -0.3621
 2513TIP3    H129098   5.143   5.595   0.758  0.2192  0.6846  1.8519
 2513TIP3    H229099   5.237   5.710   0.730  0.6149 -0.2018 -0.6606
 2514TIP3   OH229100   2.797   5.486   7.466 -0.1604  0.0384  0.0060
 2514TIP3    H129101   2.786   5.581   7.469 -1.6020 -0.1141  0.6288
 2514TIP3    H229102   2.890   5.473   7.448  0.1943  1.5592  0.5734
 2515TIP3   OH229103   2.098   5.246   8.518  0.1086  0.1374 -0.0693
 2515TIP3    H129104   2.094   5.303   8.595 -0.3581  2.1166 -1.4784
 2515TIP3    H229105   2.044   5.291   8.453 -1.7134 -2.7891 -0.7476
 2516TIP3   OH229106   4.861   6.755   1.582  0.2384  0.2966 -0.0949
 2516TIP3    H129107   4.882   6.814   1.654 -0.7419  0.6558 -0.0816
 2516TIP3    H229108   4.836   6.673   1.624 -0.1512  0.4473 -0.0245
 2517TIP3   OH229109   2.920   1.123   0.792  0.8516  0.4366 -0.4331
 2517TIP3    H129110   2.917   1.061   0.865 -1.6498 -1.2773 -1.8514
 2517TIP3    H229111   3.009   1.158   0.795  1.6127 -1.3743  1.9339
 2518TIP3   OH229112   2.923   3.895   0.009 -0.1442  0.2015  0.1333
 2518TIP3    H129113   2.869   3.963   0.050 -1.1749 -0.7258  0.3589
 2518TIP3    H229114   2.866   3.858  -0.059  1.4998  1.6709 -2.1662
 2519TIP3   OH229115   1.777   0.984   1.540 -0.4523  0.4325  1.3916
 2519TIP3    H129116   1.861   1.009   1.577  0.0078 -0.5234  1.0370
 2519TIP3    H229117   1.720   0.968   1.616 -0.2335  0.8177  1.6353
 2520TIP3   OH229118   0.077   2.827   7.076  0.1582 -0.2971  0.0893
 2520TIP3    H129119   0.004   2.812   7.016  0.1570  0.7971 -0.2141
 2520TIP3    H229120   0.140   2.759   7.055 -1.4458 -2.3780  1.5342
 2521TIP3   OH229121   3.591   4.551   1.271 -0.1202  0.3576  0.7834
 2521TIP3    H129122   3.552   4.510   1.195 -2.8502  2.9696  0.5718
 2521TIP3    H229123   3.681   4.571   1.245 -0.1935 -1.1323 -0.7370
 2522TIP3   OH229124   6.407   3.836   1.355 -0.6208 -0.3526 -0.0912
 2522TIP3    H129125   6.388   3.915   1.305 -0.9766  0.1850  0.8589
 2522TIP3    H229126   6.485   3.799   1.313  1.6871  2.3456  1.3845
 2523TIP3   OH229127   4.722   2.233   7.370 -0.4122 -0.3240  0.0977
 2523TIP3    H129128   4.713   2.287   7.448 -1.6277 -0.2463 -0.0718
 2523TIP3    H229129   4.706   2.294   7.297 -0.0472 -0.5497 -0.1722
 2524TIP3   OH229130   1.586   4.303   0.508  0.1970 -0.2355 -0.5223
 2524TIP3    H129131   1.561   4.268   0.593  0.1305  1.5286  0.2369
 2524TIP3    H229132   1.675   4.270   0.493  0.7131  0.4536  0.8596
 2525TIP3   OH229133   0.427   6.510   7.798 -0.4670 -0.4764  0.5639
 2525TIP3    H129134   0.428   6.582   7.734  2.4442 -1.4309 -0.6325
 2525TIP3    H229135   0.413   6.432   7.745 -0.1827 -1.0947  1.3825
 2526TIP3   OH229136   6.690   1.779   8.154 -0.2925  0.3897  0.3071
 2526TIP3    H129137   6.666   1.690   8.180  0.0154 -0.2618 -1.4947
 2526TIP3    H229138   6.607   1.824   8.145 -0.5352 -0.0977  0.0289
 2527TIP3   OH229139   2.430   6.693   0.937  0.0766 -0.6090 -0.4558
 2527TIP3    H129140   2.351   6.738   0.968  1.9884  1.9948  1.0041
 2527TIP3    H229141   2.462   6.646   1.015 -0.5849 -2.6675 -1.3497
 2528TIP3   OH229142   2.015   5.607   6.694  0.1517  0.1577  0.3462
 2528TIP3    H129143   2.072   5.684   6.694 -0.9333  1.1408 -2.8070
 2528TIP3    H229144   1.927   5.641   6.708 -0.1838 -0.7008  0.3941
 2529TIP3   OH229145   1.178   6.751   2.412  0.3212 -0.0890 -0.1797
 2529TIP3    H129146   1.253   6.754   2.352 -0.1433  0.6877 -0.7451
 2529TIP3    H229147   1.158   6.658   2.420  0.8060 -0.2509 -0.7162
 2530TIP3   OH229148   5.016   2.334   0.047  0.2368 -0.7570 -0.3146
 2530TIP3    H129149   5.093   2.361   0.097 -0.8445 -1.8106  2.1132
 2530TIP3    H229150   5.012   2.239   0.060 -1.2832 -0.7600 -0.6467
 2531TIP3   OH229151   5.712   0.346   0.319  0.1942  0.0730 -0.1185
 2531TIP3    H129152   5.619   0.355   0.301  0.1718 -0.4473 -0.2732
 2531TIP3    H229153   5.722   0.373   0.410 -0.0040  0.7542 -0.2872
 2532TIP3   OH229154   1.465   3.021   1.470 -0.3329 -0.5304 -0.5839
 2532TIP3    H129155   1.374   3.029   1.442 -0.1938  0.1788 -0.8384
 2532TIP3    H229156   1.474   3.083   1.542 -0.2462 -1.1442 -0.0599
 2533TIP3   OH229157   4.120   4.975   7.468 -0.0196 -0.0182  0.6450
 2533TIP3    H129158   4.173   5.044   7.429 -0.5231  0.0482  0.0626
 2533TIP3    H229159   4.055   5.021   7.521 -3.1997  0.3097 -3.1534
 2534TIP3   OH229160   6.116   5.739   1.224  0.1523 -0.2245  0.4545
 2534TIP3    H129161   6.102   5.829   1.254 -1.9473 -0.1537 -0.5300
 2534TIP3    H229162   6.136   5.747   1.130 -0.2014 -0.7751  0.3237
 2535TIP3   OH229163   1.213   6.252   1.963  0.2712 -0.5574 -0.1469
 2535TIP3    H129164   1.260   6.289   2.037 -0.0414  0.4690 -0.4451
 2535TIP3    H229165   1.243   6.303   1.888 -1.0731 -0.0825 -0.3938
 2536TIP3   OH229166   1.877   0.622   7.768  0.0004 -0.1492 -0.2197
 2536TIP3    H129167   1.911   0.627   7.679 -1.3503  2.1888 -0.6746
 2536TIP3    H229168   1.881   0.712   7.801 -2.6525 -0.3298  0.8260
 2537TIP3   OH229169   2.283   4.512   0.849  0.3210  0.4046 -0.1517
 2537TIP3    H129170   2.300   4.419   0.866  0.4461  0.3516 -0.5387
 2537TIP3    H229171   2.331   4.558   0.918  2.8373  0.2878 -1.6698
 2538TIP3   OH229172   3.543   5.553   0.038  0.7792 -0.0312 -0.1523
 2538TIP3    H129173   3.471   5.515   0.090  1.1442 -0.7736 -0.1763
 2538TIP3    H229174   3.599   5.596   0.102  0.6901 -0.0675 -0.0492
 2539TIP3   OH229175   1.666   4.061   0.618 -1.1584  0.0509 -0.4616
 2539TIP3    H129176   1.576   4.028   0.616 -1.8738  1.7961  0.4547
 2539TIP3    H229177   1.711   4.012   0.550 -2.0509 -2.8583  0.9063
 2540TIP3   OH229178   6.665   1.477   1.198 -0.5733 -0.6853 -0.2915
 2540TIP3    H129179   6.705   1.560   1.173 -0.3762 -1.0998 -1.4337
 2540TIP3    H229180   6.583   1.501   1.239 -2.0478  0.0644 -3.3668
 2541TIP3   OH229181   0.875   5.990   7.058 -0.1291  0.4439  0.0780
 2541TIP3    H129182   0.892   5.897   7.042  1.2909  0.4357  1.4005
 2541TIP3    H229183   0.883   6.000   7.153 -2.8983  1.4507  0.3009
 2542TIP3   OH229184   2.508   3.068   7.621  0.4279  0.0245 -0.2868
 2542TIP3    H129185   2.478   3.146   7.573  2.5131  0.4847 -0.9556
 2542TIP3    H229186   2.478   3.082   7.711 -1.8152  0.1158 -0.9677
 2543TIP3   OH229187   1.401   4.123   2.072  0.2215 -0.1092  0.6569
 2543TIP3    H129188   1.470   4.188   2.088  2.0801 -2.0718  1.1306
 2543TIP3    H229189   1.391   4.121   1.977 -0.6256  1.5594  0.6772
 2544TIP3   OH229190   3.661   3.160   1.709  0.2309 -0.4457 -0.1170
 2544TIP3    H129191   3.738   3.104   1.720 -0.2944 -1.2971 -0.7482
 2544TIP3    H229192   3.661   3.215   1.788  2.5449  0.9028 -0.9496
 2545TIP3   OH229193   4.976   2.520   7.721  0.3246 -0.2706  0.1668
 2545TIP3    H129194   4.938   2.543   7.806 -0.4561 -2.4561  0.4852
 2545TIP3    H229195   5.054   2.469   7.744  0.7026  0.0238 -0.4474
 2546TIP3   OH229196   2.176   0.233   0.190 -0.0315 -0.3377 -0.4558
 2546TIP3    H129197   2.110   0.276   0.245  2.1929  1.5703  0.9413
 2546TIP3    H229198   2.209   0.303   0.134  0.7346 -1.2670 -1.1989
 2547TIP3   OH229199   5.093   0.035   6.825  0.0830  0.1350 -0.3145
 2547TIP3    H129200   5.185   0.020   6.843  0.5741  0.9887 -1.9484
 2547TIP3    H229201   5.090   0.061   6.733 -1.8927 -0.7838 -0.5648
 2548TIP3   OH229202   6.827   3.059   6.317 -0.3364  0.2498  0.3175
 2548TIP3    H129203   6.758   3.077   6.253  0.9338  0.1165 -1.1786
 2548TIP3    H229204   6.783   3.059   6.401 -2.3706 -0.9560 -0.6539
 2549TIP3   OH229205   3.527   1.374   2.414 -0.1791  0.2934 -0.1415
 2549TIP3    H129206   3.595   1.320   2.453 -1.0507  0.2854  1.4719
 2549TIP3    H229207   3.561   1.399   2.329  3.2068  2.7880  1.6797
 2550TIP3   OH229208   2.347   3.642   0.700  0.4123  0.4091  0.2408
 2550TIP3    H129209   2.290   3.569   0.725 -2.8042  2.0957 -1.4715
 2550TIP3    H229210   2.353   3.696   0.778 -1.1352  0.5975  0.2710
 2551TIP3   OH229211   1.236   2.746   1.138 -0.2027  0.5184  0.1182
 2551TIP3    H129212   1.224   2.652   1.124  1.4764  0.1311  1.0485
 2551TIP3    H229213   1.240   2.783   1.049 -0.5786 -0.3302 -0.2607
 2552TIP3   OH229214   6.394   4.969   8.474  0.0751 -0.3696  0.7121
 2552TIP3    H129215   6.318   4.912   8.465 -2.6830  3.2557 -2.9766
 2552TIP3    H229216   6.448   4.949   8.397 -0.3069  1.0326  0.0423
 2553TIP3   OH229217   4.074   1.554   1.095 -0.2378  0.2676  0.4335
 2553TIP3    H129218   3.991   1.507   1.092 -0.7102  1.0509  0.8944
 2553TIP3    H229219   4.136   1.496   1.050 -1.6772  1.0340 -2.7969
 2554TIP3   OH229220   4.280   3.106   0.562  0.3412  0.2498 -0.5324
 2554TIP3    H129221   4.350   3.075   0.506 -0.9918  0.4526 -2.4013
 2554TIP3    H229222   4.293   3.201   0.567  0.5636  0.2099 -0.3353
 2555TIP3   OH229223   3.854   1.455   7.488  0.1307  1.0268 -0.6147
 2555TIP3    H129224   3.817   1.395   7.423 -1.1162  0.2413  0.7549
 2555TIP3    H229225   3.778   1.494   7.532  0.9262  1.6678  0.2543
 2556TIP3   OH229226   2.345   1.873   7.877 -0.4112  0.1553  0.6853
 2556TIP3    H129227   2.418   1.820   7.845  1.3150  2.6527  0.1892
 2556TIP3    H229228   2.383   1.924   7.949 -1.2878  2.3562 -0.3276
 2557TIP3   OH229229   1.198   6.108   8.104 -0.1018  0.2120  0.0043
 2557TIP3    H129230   1.194   6.202   8.118 -1.4383  0.2799 -0.6010
 2557TIP3    H229231   1.110   6.085   8.072  0.1260 -1.2700  0.3466
 2558TIP3   OH229232   2.026   0.011   1.694 -0.0812 -0.0607 -0.2058
 2558TIP3    H129233   1.992  -0.013   1.781 -0.0275  1.3838  0.2506
 2558TIP3    H229234   1.961   0.073   1.660  1.4761  1.8965  0.2081
 2559TIP3   OH229235   6.201   5.086   2.030  0.6739  0.3698  0.5315
 2559TIP3    H129236   6.144   5.078   2.106  1.6521 -2.2046  1.0944
 2559TIP3    H229237   6.143   5.119   1.961 -1.0281 -0.2412  1.5921
 2560TIP3   OH229238   3.996   5.626   1.894  0.1418  0.6840 -0.4304
 2560TIP3    H129239   3.939   5.635   1.970 -1.2769  0.7665 -1.4709
 2560TIP3    H229240   4.058   5.699   1.902  1.6830 -0.7670  1.9616
 2561TIP3   OH229241   0.658   5.204   6.624 -0.2078  0.1610  0.0602
 2561TIP3    H129242   0.706   5.174   6.701  0.6540 -3.1033 -1.5408
 2561TIP3    H229243   0.727   5.225   6.560 -0.7263 -2.3061 -1.4699
 2562TIP3   OH229244   3.492   2.038   1.736 -0.1555 -0.0938 -0.6192
 2562TIP3    H129245   3.568   1.981   1.746  0.1321  0.5939  1.8540
 2562TIP3    H229246   3.501   2.075   1.648  2.0588 -0.4664 -0.6101
 2563TIP3   OH229247   3.064   5.578   8.007 -0.0790 -0.0565  0.3800
 2563TIP3    H129248   3.157   5.597   8.021 -0.2233 -0.2238  1.7137
 2563TIP3    H229249   3.057   5.483   8.015 -0.6171  0.1025  2.0763
 2564TIP3   OH229250   0.209   6.580   2.030  0.7051  0.1855  0.3330
 2564TIP3    H129251   0.148   6.646   2.065  0.2636  0.0206 -0.1220
 2564TIP3    H229252   0.295   6.617   2.045  0.4767  0.6310  0.5660
 2565TIP3   OH229253   1.698   0.039   1.998  0.4994  0.7208 -0.0138
 2565TIP3    H129254   1.791   0.017   2.010  0.3405  0.4213  0.6984
 2565TIP3    H229255   1.669   0.068   2.084 -0.3839 -0.3556  0.0739
 2566TIP3   OH229256   5.542   2.582   1.769  0.6316  0.1211 -0.2024
 2566TIP3    H129257   5.575   2.648   1.830 -1.1577 -0.5170  1.5812
 2566TIP3    H229258   5.449   2.603   1.759  0.6612 -0.4390 -1.9070
 2567TIP3   OH229259   5.406   0.934   0.284  0.1325  0.1385 -0.1857
 2567TIP3    H129260   5.346   0.891   0.346 -0.0586  0.1788 -0.3437
 2567TIP3    H229261   5.485   0.950   0.336 -0.3806  1.0798  0.3454
 2568TIP3   OH229262   5.252   2.705   2.275 -0.4119 -0.2995 -0.4290
 2568TIP3    H129263   5.223   2.764   2.345  0.7415  0.3046 -0.4368
 2568TIP3    H229264   5.289   2.763   2.208  0.1506 -0.9818 -0.7222
 2569TIP3   OH229265   6.483   3.769   1.711 -0.3913  0.4196  0.2776
 2569TIP3    H129266   6.546   3.783   1.641 -1.3155  1.8644 -0.3300
 2569TIP3    H229267   6.520   3.816   1.786  1.0725 -1.9359  1.1121
 2570TIP3   OH229268   2.405   1.048   0.684  0.3247 -0.2424  1.0199
 2570TIP3    H129269   2.337   1.050   0.752 -0.0988  2.2704  0.6221
 2570TIP3    H229270   2.446   0.962   0.694 -0.8215 -0.6078  3.3471
 2571TIP3   OH229271   3.559   0.574   0.237 -0.3463  0.0184  0.0291
 2571TIP3    H129272   3.616   0.651   0.233 -1.6188  0.9639 -0.7074
 2571TIP3    H229273   3.581   0.524   0.158  1.3171 -1.0523  1.0924
 2572TIP3   OH229274   3.069   3.519   2.148  0.3042 -0.0412 -0.0111
 2572TIP3    H129275   2.979   3.492   2.166  1.0466 -2.3364  0.6930
 2572TIP3    H229276   3.108   3.533   2.235  0.1534  2.9101 -0.3346
 2573TIP3   OH229277   3.551   1.585   6.315 -0.2566  0.0462  0.6489
 2573TIP3    H129278   3.620   1.524   6.286 -2.2882 -1.9161 -0.3266
 2573TIP3    H229279   3.582   1.671   6.288  1.3604 -0.8900 -0.6559
 2574TIP3   OH229280   5.878   4.203   7.313  0.7080 -0.0569 -0.4927
 2574TIP3    H129281   5.796   4.225   7.269 -0.5399  0.2348  1.8099
 2574TIP3    H229282   5.853   4.141   7.381  2.1366  1.0130  1.1000
 2575TIP3   OH229283   1.519   2.921   8.269 -0.0527 -0.5491 -0.2034
 2575TIP3    H129284   1.514   2.862   8.344 -0.9048 -0.6565 -0.3360
 2575TIP3    H229285   1.612   2.943   8.262 -0.1019  0.3832  1.5823
 2576TIP3   OH229286   1.955   1.808   7.536 -0.3492 -0.7038  0.2934
 2576TIP3    H129287   1.897   1.836   7.607 -0.4898 -0.2785  0.0169
 2576TIP3    H229288   2.041   1.840   7.561 -0.5821  0.4155 -0.2328
 2577TIP3   OH229289   4.985   5.330   0.605 -1.0959 -0.1261  0.2708
 2577TIP3    H129290   5.074   5.320   0.572 -1.3407  1.9200 -1.2872
 2577TIP3    H229291   4.988   5.409   0.658 -2.0608  0.3206 -0.2955
 2578TIP3   OH229292   6.215   5.822   8.318 -0.1448  0.0192 -0.2250
 2578TIP3    H129293   6.266   5.849   8.395 -0.4442  1.0111 -0.3626
 2578TIP3    H229294   6.127   5.807   8.351 -0.6587  1.9453 -0.5993
 2579TIP3   OH229295   1.696   1.998   6.996 -0.2686  0.0967  0.1810
 2579TIP3    H129296   1.743   2.064   6.944  1.2371  2.3657  4.0012
 2579TIP3    H229297   1.605   2.027   6.994 -0.1549  0.4435 -0.6463
 2580TIP3   OH229298   1.756   1.507   0.356 -0.1181  0.4379  0.3015
 2580TIP3    H129299   1.837   1.503   0.407 -0.2758 -1.7214  0.4655
 2580TIP3    H229300   1.771   1.578   0.293  2.9455 -1.4627 -1.3359
 2581TIP3   OH229301   4.820   4.549   0.580  0.7534  0.1833 -0.7317
 2581TIP3    H129302   4.875   4.627   0.586  1.0948 -0.0245 -1.1109
 2581TIP3    H229303   4.821   4.512   0.669  0.6423  0.5705 -0.5682
 2582TIP3   OH229304   0.906   5.409   8.382  0.0142  0.0307 -0.0125
 2582TIP3    H129305   0.941   5.321   8.366 -2.3479 -0.7689 -1.1490
 2582TIP3    H229306   0.894   5.446   8.294 -0.4718  0.8974  0.4042
 2583TIP3   OH229307   0.677   6.541   1.208  0.0725 -0.0306 -0.8186
 2583TIP3    H129308   0.689   6.629   1.246 -0.8540  0.0426 -0.6785
 2583TIP3    H229309   0.612   6.499   1.265 -0.9327 -0.1164 -1.9988
 2584TIP3   OH229310   0.154   2.318   7.968 -0.1748 -0.1888  0.0796
 2584TIP3    H129311   0.079   2.377   7.953  0.0931 -0.2607 -1.8401
 2584TIP3    H229312   0.215   2.370   8.020 -0.1730  1.0807 -1.1319
 2585TIP3   OH229313   1.996   1.833   1.901  0.4112 -0.8944 -0.5581
 2585TIP3    H129314   2.057   1.900   1.932  0.5584 -0.6579 -1.3152
 2585TIP3    H229315   1.953   1.874   1.826 -1.1503 -0.8248  0.3382
 2586TIP3   OH229316   1.153   2.736   7.138 -0.3099 -0.6825  0.0937
 2586TIP3    H129317   1.069   2.742   7.091 -0.5147 -1.7632  0.3005
 2586TIP3    H229318   1.174   2.642   7.138  0.3695 -0.5428  0.9741
 2587TIP3   OH229319   4.414   1.529   1.344  0.0593  0.2458 -0.5869
 2587TIP3    H129320   4.497   1.519   1.296  0.2646 -0.3214 -0.1336
 2587TIP3    H229321   4.417   1.618   1.379  0.4196  0.2806 -0.6995
 2588TIP3   OH229322   4.200   0.560   7.231  0.0289 -0.8388 -0.3096
 2588TIP3    H129323   4.125   0.573   7.172  0.3068  1.2915 -0.2671
 2588TIP3    H229324   4.237   0.476   7.204 -0.8065 -0.6784 -2.1050
 2589TIP3   OH229325   0.726   3.966   2.610  0.0027  0.5779  0.3255
 2589TIP3    H129326   0.632   3.967   2.627  0.2756  0.0762  2.0310
 2589TIP3    H229327   0.763   4.024   2.677  0.9864  0.1737  0.1503
 2590TIP3   OH229328   6.713   2.805   7.534 -0.1310 -0.6732 -0.3452
 2590TIP3    H129329   6.696   2.756   7.454 -0.2213 -0.2261 -0.6018
 2590TIP3    H229330   6.683   2.894   7.515 -0.0199 -0.5281  0.1346
 2591TIP3   OH229331   2.634   4.704   7.571 -0.4824 -0.0448  0.2005
 2591TIP3    H129332   2.616   4.627   7.624  1.1238 -2.2167 -2.1593
 2591TIP3    H229333   2.577   4.694   7.494  0.8038  0.2609 -0.8334
 2592TIP3   OH229334   5.515   0.570   8.175  0.4088 -0.1207 -0.1336
 2592TIP3    H129335   5.440   0.521   8.143 -0.1372  0.7824 -0.2543
 2592TIP3    H229336   5.484   0.659   8.185  1.2411  0.1090  0.5968
 2593TIP3   OH229337   0.726   3.970   7.423 -0.3402 -0.4809  0.6368
 2593TIP3    H129338   0.648   3.963   7.367 -0.6507 -0.5074  1.0616
 2593TIP3    H229339   0.733   4.064   7.441  0.8800 -0.2277 -0.9856
 2594TIP3   OH229340   4.743   3.258   1.403 -0.0702 -0.2638 -0.0732
 2594TIP3    H129341   4.757   3.164   1.395 -0.1077 -0.3041  0.3174
 2594TIP3    H229342   4.659   3.267   1.447  0.8574 -0.0917  1.8019
 2595TIP3   OH229343   4.741   0.862   1.752  0.2536 -0.7091  0.5374
 2595TIP3    H129344   4.722   0.840   1.844  0.9651 -1.3529  0.5423
 2595TIP3    H229345   4.655   0.874   1.712 -0.0511  0.2248  1.4413
 2596TIP3   OH229346   6.684   0.977   0.358  0.4138 -0.8828 -0.4440
 2596TIP3    H129347   6.628   1.055   0.353 -0.2977 -1.2927  0.6940
 2596TIP3    H229348   6.733   0.978   0.276  0.7994  1.0359 -0.2364
 2597TIP3   OH229349   0.773   2.010   7.172 -0.3336  0.0254  0.0959
 2597TIP3    H129350   0.759   1.934   7.116  0.1087  1.0565 -1.5058
 2597TIP3    H229351   0.687   2.027   7.212 -0.8007 -0.4433 -0.6904
 2598TIP3   OH229352   0.427   1.953   1.430  0.4594 -0.8073 -0.5517
 2598TIP3    H129353   0.410   1.974   1.338 -1.0219 -0.3460 -0.2081
 2598TIP3    H229354   0.413   2.036   1.476  0.3350 -1.2214  0.1783
 2599TIP3   OH229355   1.662   6.556   2.896 -0.7115  0.0410 -0.2250
 2599TIP3    H129356   1.723   6.485   2.875  1.2184  1.5630  0.0074
 2599TIP3    H229357   1.712   6.636   2.880 -3.0258  1.3940 -1.0987
 2600TIP3   OH229358   4.757   3.326   6.616  0.0866 -0.2713 -0.4274
 2600TIP3    H129359   4.781   3.330   6.524 -0.9420  0.3415 -0.6855
 2600TIP3    H229360   4.792   3.242   6.646  0.8529 -0.2601 -1.2428
 2601TIP3   OH229361   3.407   3.903   2.950  0.6102 -0.1064 -0.5330
 2601TIP3    H129362   3.414   3.971   3.017 -0.7003  1.1074 -1.5547
 2601TIP3    H229363   3.431   3.822   2.995 -0.2248  0.6557  1.3987
 2602TIP3   OH229364   3.865   0.073   1.094  0.2929  0.8749 -0.2021
 2602TIP3    H129365   3.923   0.136   1.050  0.5902 -0.4991 -1.8875
 2602TIP3    H229366   3.803   0.047   1.027  1.2616 -1.9293 -0.1357
 2603TIP3   OH229367   6.095   2.968   7.598 -0.0487 -0.5547  0.2473
 2603TIP3    H129368   6.066   2.931   7.515  1.5802 -0.3894 -0.4319
 2603TIP3    H229369   6.122   2.892   7.650  0.0193 -0.5783  0.1785
 2604TIP3   OH229370   3.138   6.696   7.557 -0.1025 -0.2036 -0.1121
 2604TIP3    H129371   3.220   6.745   7.551 -0.1316 -0.2925 -1.6189
 2604TIP3    H229372   3.157   6.612   7.516 -0.5270 -0.8446  0.9516
 2605TIP3   OH229373   3.372   6.543   0.304  0.8040  0.1102 -0.2075
 2605TIP3    H129374   3.280   6.554   0.279  0.3826 -1.7459  0.4086
 2605TIP3    H229375   3.417   6.617   0.262 -0.6908  0.0999 -1.9475
 2606TIP3   OH229376   3.318   2.863   7.865  0.1800  0.1551  0.6497
 2606TIP3    H129377   3.370   2.944   7.863 -1.3935  1.1972 -1.2369
 2606TIP3    H229378   3.233   2.890   7.900  0.4500 -1.2921  2.5685
 2607TIP3   OH229379   4.778   5.229   6.436 -0.2299  0.1947 -0.0605
 2607TIP3    H129380   4.793   5.141   6.472  1.0824 -0.2431 -1.5557
 2607TIP3    H229381   4.857   5.277   6.458 -0.5239  0.7074 -0.1196
 2608TIP3   OH229382   4.460   4.967   0.734 -0.2959 -0.6364 -0.1626
 2608TIP3    H129383   4.414   4.901   0.682  0.8748 -1.0434 -0.7055
 2608TIP3    H229384   4.523   5.006   0.674 -1.3662  1.4259 -0.0084
 2609TIP3   OH229385   3.398   1.839   0.628  0.0872 -0.6180  0.0809
 2609TIP3    H129386   3.456   1.846   0.704 -0.7762 -0.6539  0.7624
 2609TIP3    H229387   3.341   1.916   0.634  2.2632  1.3911 -2.5337
 2610TIP3   OH229388   6.706   2.388   6.491  0.8231  0.5663  0.4491
 2610TIP3    H129389   6.644   2.327   6.532  0.6508  0.9079  0.6985
 2610TIP3    H229390   6.774   2.331   6.453 -0.5276  0.0745 -1.3511
 2611TIP3   OH229391   1.356   0.304   7.067  0.0403  0.2335 -0.4096
 2611TIP3    H129392   1.336   0.393   7.099 -0.1264  0.7384 -1.8597
 2611TIP3    H229393   1.274   0.256   7.076  0.3348 -0.0515  1.1529
 2612TIP3   OH229394   4.626   2.751   2.247 -0.6151  0.2351 -0.3621
 2612TIP3    H129395   4.700   2.693   2.265 -0.4885  0.7175  0.7414
 2612TIP3    H229396   4.664   2.838   2.242 -0.6974  0.1965 -2.7501
 2613TIP3   OH229397   5.758   4.032   1.734  0.1915  0.0739 -0.4434
 2613TIP3    H129398   5.735   4.017   1.643  2.0213 -2.8890 -0.5570
 2613TIP3    H229399   5.679   4.067   1.774 -1.7017 -1.6006 -2.5115
 2614TIP3   OH229400   2.409   2.146   7.154 -1.0332 -0.8200  0.1466
 2614TIP3    H129401   2.497   2.133   7.119 -1.9715 -1.2530 -2.2351
 2614TIP3    H229402   2.417   2.223   7.211  1.3061 -2.1694  1.8039
 2615TIP3   OH229403   4.105   0.538   1.662  0.0050  0.4399  0.7033
 2615TIP3    H129404   4.143   0.477   1.599 -1.9380  1.0791 -1.1876
 2615TIP3    H229405   4.167   0.612   1.664  0.6485 -0.0804  0.4084
 2616TIP3   OH229406   3.398   5.633   0.390  0.1595  0.0158  0.1765
 2616TIP3    H129407   3.343   5.604   0.463 -0.0728 -0.2688 -0.1144
 2616TIP3    H229408   3.463   5.564   0.380 -0.3754 -0.3984 -0.4948
 2617TIP3   OH229409   3.787   2.511   0.601 -0.1708 -0.4431 -0.4714
 2617TIP3    H129410   3.817   2.578   0.664 -0.6712  0.0759 -0.7742
 2617TIP3    H229411   3.847   2.520   0.527  0.0053 -0.5973 -0.3473
 2618TIP3   OH229412   0.770   1.814   0.200 -0.1055 -0.6609  0.3077
 2618TIP3    H129413   0.827   1.826   0.124 -1.9525  0.6627 -0.9997
 2618TIP3    H229414   0.755   1.720   0.205 -0.4124 -0.7456 -1.4104
 2619TIP3   OH229415   3.165   3.642   1.503  0.3978 -0.1813 -0.1659
 2619TIP3    H129416   3.210   3.631   1.420  0.7522  0.0066 -0.0020
 2619TIP3    H229417   3.202   3.722   1.540 -0.4475  0.2710 -0.2643
 2620TIP3   OH229418   0.960   0.201   7.687  0.4655  0.0344  0.0271
 2620TIP3    H129419   1.026   0.153   7.637 -1.4351 -1.0800 -1.5591
 2620TIP3    H229420   0.974   0.292   7.663  2.5852  0.0959  1.2184
 2621TIP3   OH229421   4.181   5.872   6.909 -0.8723  0.1402  0.0211
 2621TIP3    H129422   4.115   5.932   6.875 -2.1572  0.4810  2.7794
 2621TIP3    H229423   4.132   5.792   6.929  0.6286 -1.5817 -2.6587
 2622TIP3   OH229424   4.493   2.323   0.042 -0.5861  0.0425  0.5930
 2622TIP3    H129425   4.513   2.340  -0.050 -0.9929 -0.4799  0.4020
 2622TIP3    H229426   4.577   2.298   0.081 -0.5673 -0.5841  0.1630
 2623TIP3   OH229427   5.694   0.202   1.077  0.3121  0.1569  0.3763
 2623TIP3    H129428   5.759   0.246   1.132 -1.2747  1.2734  1.4631
 2623TIP3    H229429   5.618   0.260   1.079 -0.2498 -0.3919 -2.0340
 2624TIP3   OH229430   6.206   2.527   7.190 -0.5860  0.1319 -0.1058
 2624TIP3    H129431   6.277   2.472   7.225  0.3733  0.9771 -0.6702
 2624TIP3    H229432   6.213   2.518   7.095 -1.1036  0.3900 -0.1716
 2625TIP3   OH229433   4.399   2.625   2.206  0.3095  0.3152  0.5170
 2625TIP3    H129434   4.430   2.587   2.123 -2.1200  1.5751 -1.0940
 2625TIP3    H229435   4.475   2.669   2.242  1.7132 -1.1666 -0.4734
 2626TIP3   OH229436   1.536   0.423   0.668 -0.4082  0.2541  0.3379
 2626TIP3    H129437   1.491   0.507   0.667 -1.0712 -0.1006 -0.9100
 2626TIP3    H229438   1.555   0.408   0.761 -1.0138  1.3843  0.6669
 2627TIP3   OH229439   5.524   3.860   0.427  0.1692  0.2569  0.1106
 2627TIP3    H129440   5.616   3.876   0.405  0.4873 -2.5632 -1.0647
 2627TIP3    H229441   5.487   3.823   0.346 -1.1553 -1.5487  1.4616
 2628TIP3   OH229442   2.937   1.098   1.302 -0.1065 -0.3308  0.0126
 2628TIP3    H129443   2.949   1.147   1.384 -0.4075  1.0515 -0.7349
 2628TIP3    H229444   2.842   1.097   1.288 -0.0884 -0.9540 -0.0935
 2629TIP3   OH229445   6.530   3.401   6.853 -0.4651  0.2665  0.5369
 2629TIP3    H129446   6.549   3.479   6.801 -1.4579 -0.4318 -0.9408
 2629TIP3    H229447   6.597   3.401   6.922  1.0757  1.0721 -0.8980
 2630TIP3   OH229448   3.693   3.712   7.178  0.1875  0.8213  0.1888
 2630TIP3    H129449   3.755   3.642   7.197  0.2120 -0.0928 -2.7867
 2630TIP3    H229450   3.623   3.701   7.243 -0.0642 -2.3213 -0.4764
 2631TIP3   OH229451   2.438   5.504   6.577  0.0467  0.4376  0.2772
 2631TIP3    H129452   2.428   5.585   6.627  0.2182  0.5379  0.1507
 2631TIP3    H229453   2.425   5.531   6.486  0.5694  0.4101  0.1929
 2632TIP3   OH229454   5.554   3.414   2.065 -0.2678  0.7064 -0.4180
 2632TIP3    H129455   5.534   3.361   2.142  0.1853  0.9855 -0.1094
 2632TIP3    H229456   5.468   3.442   2.032 -0.5824 -0.9557 -1.1127
 2633TIP3   OH229457   0.244   4.320   8.499 -0.0583 -0.5456 -0.0263
 2633TIP3    H129458   0.196   4.395   8.462 -0.0774  0.8839  2.6172
 2633TIP3    H229459   0.330   4.356   8.521  0.7034 -1.9140 -0.7026
 2634TIP3   OH229460   2.824   6.044   7.652 -0.5230 -0.0219 -0.0350
 2634TIP3    H129461   2.770   6.115   7.687 -0.6582 -0.3788  0.4888
 2634TIP3    H229462   2.910   6.056   7.694 -0.3912  0.1306 -0.3386
 2635TIP3   OH229463   0.948   3.071   1.053  0.2895  0.2049  0.4099
 2635TIP3    H129464   0.948   3.150   1.107 -0.3097 -0.4460  1.3866
 2635TIP3    H229465   1.018   3.086   0.989  1.5020  0.7161  1.7878
 2636TIP3   OH229466   3.526   3.978   8.439  0.1664 -0.2632 -0.4226
 2636TIP3    H129467   3.530   4.065   8.479 -0.8717 -0.1715 -0.4890
 2636TIP3    H229468   3.581   3.985   8.361  1.0117 -0.0116  0.1845
 2637TIP3   OH229469   2.056   0.430   2.386 -0.7495  0.1604 -0.2597
 2637TIP3    H129470   2.020   0.501   2.439 -1.3507 -1.7107  2.0438
 2637TIP3    H229471   1.996   0.421   2.312 -3.4919 -0.9510  1.9401
 2638TIP3   OH229472   4.808   5.529   6.809 -0.2827 -0.3167 -0.3491
 2638TIP3    H129473   4.866   5.594   6.768  1.4581 -1.4414  0.1923
 2638TIP3    H229474   4.832   5.447   6.768 -1.0172 -0.9199  0.3979
 2639TIP3   OH229475   6.173   2.743   8.144 -0.2298  0.4158 -0.2721
 2639TIP3    H129476   6.080   2.756   8.126 -0.6734 -0.1382  1.4214
 2639TIP3    H229477   6.194   2.807   8.213  0.6019  0.4020 -0.4940
 2640TIP3   OH229478   0.534   0.658   0.454 -0.8475  0.1010  0.1038
 2640TIP3    H129479   0.586   0.724   0.409  0.0566 -0.0094  0.9480
 2640TIP3    H229480   0.597   0.593   0.484 -1.6461 -0.8279 -0.1511
 2641TIP3   OH229481   1.393   6.549   8.125 -0.1348  0.2380  0.1439
 2641TIP3    H129482   1.448   6.472   8.104  0.4318  0.4940  0.6673
 2641TIP3    H229483   1.392   6.552   8.220 -0.3591  0.7420  0.1252
 2642TIP3   OH229484   6.260   1.526   7.837 -0.2682  0.3557 -0.1580
 2642TIP3    H129485   6.272   1.614   7.801 -0.2646  0.5970  0.4208
 2642TIP3    H229486   6.168   1.505   7.819  0.1294 -0.1519 -1.6627
 2643TIP3   OH229487   1.090   2.315   0.008  0.2686  0.1080  0.1734
 2643TIP3    H129488   1.040   2.242  -0.029  0.8027  0.1716 -0.6866
 2643TIP3    H229489   1.065   2.391  -0.043  2.1831 -0.0897 -1.1671
 2644TIP3   OH229490   4.504   6.257   1.474 -0.8614  0.0714  0.4287
 2644TIP3    H129491   4.418   6.294   1.490 -0.7921 -0.4515  2.3375
 2644TIP3    H229492   4.504   6.174   1.522  0.9536  0.4565  1.2248
 2645TIP3   OH229493   3.402   2.319   7.474  0.0714  0.1773 -0.2001
 2645TIP3    H129494   3.358   2.274   7.402 -1.1724  1.5657 -0.3386
 2645TIP3    H229495   3.336   2.378   7.510  1.4239  1.3412  0.4609
 2646TIP3   OH229496   5.943   1.650   7.040  0.5132  0.4418 -0.5169
 2646TIP3    H129497   5.851   1.666   7.021  0.4348 -0.4943 -1.0004
 2646TIP3    H229498   5.985   1.643   6.955  0.7115 -0.8217 -0.3363
 2647TIP3   OH229499   1.353   3.806   0.013  0.0241  0.1667  1.0777
 2647TIP3    H129500   1.358   3.885   0.068  2.7318  0.1911  0.9041
 2647TIP3    H229501   1.440   3.768   0.017  0.0512 -0.4111 -2.3933
 2648TIP3   OH229502   5.784   3.039   7.502  0.6509 -0.1565  0.4167
 2648TIP3    H129503   5.796   3.088   7.421 -0.3506  0.9746  0.9172
 2648TIP3    H229504   5.823   3.094   7.570 -3.0169  1.4876  1.4247
 2649TIP3   OH229505   1.438   6.168   7.678  0.1159 -0.2898 -0.6237
 2649TIP3    H129506   1.450   6.128   7.764 -0.8031  1.1555  0.2155
 2649TIP3    H229507   1.345   6.159   7.660 -0.4311  2.5894  0.2447
 2650TIP3   OH229508   2.440   6.021   7.949  0.4537  0.0977 -0.2555
 2650TIP3    H129509   2.444   6.025   7.854  0.6486  0.9770 -0.2147
 2650TIP3    H229510   2.518   5.971   7.974  1.0526  0.8807 -0.5027
 2651TIP3   OH229511   5.247   3.521   8.190  0.3202 -0.3290  0.1970
 2651TIP3    H129512   5.251   3.617   8.195 -1.3200 -0.2337  0.2566
 2651TIP3    H229513   5.284   3.491   8.273  0.0221  0.2811  0.5580
 2652TIP3   OH229514   6.473   2.032   0.905 -0.0627  0.3445  0.0593
 2652TIP3    H129515   6.432   1.976   0.840 -0.7973 -2.4358  2.6896
 2652TIP3    H229516   6.566   2.007   0.904 -0.5800 -2.1243  2.0882
 2653TIP3   OH229517   4.784   6.788   1.052  0.3874 -0.5027  0.0111
 2653TIP3    H129518   4.691   6.811   1.053  0.3053 -0.6498 -1.6913
 2653TIP3    H229519   4.811   6.794   1.144 -0.9291  1.0093  0.3427
 2654TIP3   OH229520   2.596   4.809   6.821  0.1886  0.0324  0.2483
 2654TIP3    H129521   2.691   4.813   6.831  0.1245  0.5749  0.6598
 2654TIP3    H229522   2.570   4.897   6.795 -0.0408 -0.4828 -1.3611
 2655TIP3   OH229523   2.026   3.539   6.770  0.5714  0.0678  0.6110
 2655TIP3    H129524   2.053   3.580   6.688  0.3823 -1.4731 -0.2721
 2655TIP3    H229525   2.082   3.461   6.777 -0.2326 -0.4658  1.3173
 2656TIP3   OH229526   0.177   0.548   7.656  0.1992 -0.1709 -0.2651
 2656TIP3    H129527   0.226   0.557   7.574  1.2103  1.2740  0.4617
 2656TIP3    H229528   0.242   0.559   7.724 -0.6191 -1.4506  0.7690
 2657TIP3   OH229529   2.626   2.034   8.286 -0.1390 -0.8377 -0.5296
 2657TIP3    H129530   2.632   2.127   8.263 -2.3738 -0.7416 -0.9617
 2657TIP3    H229531   2.690   1.991   8.228  0.2124  0.3263 -1.0307
 2658TIP3   OH229532   5.948   0.164   8.147  0.6869  0.4202 -0.0421
 2658TIP3    H129533   6.041   0.164   8.168  0.6440 -1.5025  0.3652
 2658TIP3    H229534   5.941   0.111   8.067  0.1302  2.2138 -1.2426
 2659TIP3   OH229535   1.932   1.828   0.813 -0.4655 -0.0143  0.1633
 2659TIP3    H129536   1.987   1.828   0.891 -0.1643 -0.4008 -0.0469
 2659TIP3    H229537   1.990   1.800   0.742 -0.4350  1.5051 -0.4339
 2660TIP3   OH229538   2.275   5.802   1.784 -0.0587  0.0969  0.5952
 2660TIP3    H129539   2.187   5.787   1.749  0.2554  0.4816 -0.3903
 2660TIP3    H229540   2.286   5.897   1.783  0.8164  0.0122 -0.4762
 2661TIP3   OH229541   6.239   6.785   6.496 -0.2086  0.6051  0.2390
 2661TIP3    H129542   6.270   6.873   6.475  0.4816  0.2558 -0.2603
 2661TIP3    H229543   6.244   6.737   6.414 -0.7417  0.1459  0.4709
 2662TIP3   OH229544   0.385   0.636   7.850 -0.4615  0.2155  0.5687
 2662TIP3    H129545   0.333   0.713   7.875  2.5113  2.4810  0.2647
 2662TIP3    H229546   0.432   0.613   7.930  1.2273  0.9301 -0.1790
 2663TIP3   OH229547   0.775   5.017   7.589  0.2767  0.0390 -0.2989
 2663TIP3    H129548   0.839   4.976   7.531  0.3940 -1.3991  0.7933
 2663TIP3    H229549   0.785   4.972   7.672 -0.6727  1.2798  0.5315
 2664TIP3   OH229550   4.220   5.871   7.840 -0.1548 -0.6390  0.1522
 2664TIP3    H129551   4.215   5.893   7.933  0.3059  0.7882 -0.1359
 2664TIP3    H229552   4.131   5.844   7.817 -0.5194  0.0085  0.7704
 2665TIP3   OH229553   2.743   1.638   7.601 -0.1800  0.3381  0.3841
 2665TIP3    H129554   2.662   1.590   7.588 -0.1429 -0.0513  1.5097
 2665TIP3    H229555   2.785   1.639   7.515 -1.6201  1.0245 -0.3386
 2666TIP3   OH229556   3.852   1.501   0.172 -0.6987  0.7554  0.2345
 2666TIP3    H129557   3.770   1.532   0.134  0.3628  1.8112 -1.3216
 2666TIP3    H229558   3.919   1.528   0.109  0.7645 -0.8043  1.0607
 2667TIP3   OH229559   4.957   0.848   6.889  0.5692  0.3809 -0.3510
 2667TIP3    H129560   4.925   0.938   6.902 -2.3993 -0.7520  1.1744
 2667TIP3    H229561   4.983   0.819   6.976  0.3949 -0.6061 -0.6176
 2668TIP3   OH229562   6.030   4.295   2.280 -0.1481 -0.7816  0.2284
 2668TIP3    H129563   6.000   4.360   2.344 -3.1494 -1.0279 -0.7351
 2668TIP3    H229564   6.033   4.342   2.197  1.8639 -0.9114  0.1930
 2669TIP3   OH229565   0.222   3.973   7.339 -0.2857 -0.4630  0.8748
 2669TIP3    H129566   0.229   3.881   7.362 -2.2397 -1.0478 -0.6054
 2669TIP3    H229567   0.159   4.009   7.401 -0.3231 -0.3833  0.7912
 2670TIP3   OH229568   2.427   5.828   8.177 -0.1112 -0.2537  0.1204
 2670TIP3    H129569   2.487   5.754   8.165 -0.8542 -0.7790 -0.4511
 2670TIP3    H229570   2.379   5.834   8.095 -1.6265 -0.5696  0.9296
 2671TIP3   OH229571   4.799   6.315   7.350 -0.9661  0.0053 -0.3144
 2671TIP3    H129572   4.800   6.316   7.446  0.7345  1.8123 -0.2828
 2671TIP3    H229573   4.740   6.387   7.326  1.3273  1.9759 -0.4860
 2672TIP3   OH229574   5.213   2.573   0.922  0.3319  0.1819  1.1283
 2672TIP3    H129575   5.247   2.572   1.011  0.5980 -0.6474  1.0255
 2672TIP3    H229576   5.225   2.483   0.890 -0.5992  0.2432  0.5713
 2673TIP3   OH229577   4.687   4.059   0.622  0.4908  0.9726  0.5352
 2673TIP3    H129578   4.610   4.058   0.566  1.0710  2.0072 -0.3371
 2673TIP3    H229579   4.747   4.120   0.578  1.3064  1.1494  1.8426
 2674TIP3   OH229580   3.063   3.761   7.297  0.5701  0.1769  0.2095
 2674TIP3    H129581   3.038   3.823   7.228  1.2979  0.0667 -0.1599
 2674TIP3    H229582   2.997   3.692   7.292  1.0327 -0.2157 -0.8940
 2675TIP3   OH229583   4.715   0.155   1.406 -0.0347 -0.1435 -0.6183
 2675TIP3    H129584   4.775   0.084   1.383  1.2133  0.1350  1.5014
 2675TIP3    H229585   4.631   0.111   1.422  0.5124 -1.0574 -0.1605
 2676TIP3   OH229586   3.284   4.592   7.577 -0.0437  0.5514 -0.3464
 2676TIP3    H129587   3.189   4.579   7.569 -0.4015  1.6226  1.6396
 2676TIP3    H229588   3.299   4.681   7.546  0.4689  0.1020 -1.4446
 2677TIP3   OH229589   1.746   3.845   6.826  0.2666 -0.0878  0.0631
 2677TIP3    H129590   1.835   3.838   6.861  1.0736  0.8276 -1.6642
 2677TIP3    H229591   1.739   3.935   6.796 -1.7086  0.2082  1.2295
 2678TIP3   OH229592   6.361   4.730   2.011 -0.7260 -0.3958  0.0107
 2678TIP3    H129593   6.302   4.735   2.086 -0.3258  1.0519  0.2623
 2678TIP3    H229594   6.364   4.819   1.976  1.4721 -0.3583  0.1509
 2679TIP3   OH229595   2.243   3.832   8.507  0.1630 -0.0769  0.2647
 2679TIP3    H129596   2.242   3.884   8.587 -0.0943  1.2894 -0.6079
 2679TIP3    H229597   2.157   3.846   8.468  0.6763  0.1727 -0.8160
 2680TIP3   OH229598   0.838   6.645   7.552  0.4613  1.1198 -0.1838
 2680TIP3    H129599   0.799   6.604   7.630 -0.6819  2.4920  0.0058
 2680TIP3    H229600   0.860   6.571   7.496  0.1325  0.1532  0.9063
 2681TIP3   OH229601   5.677   2.003   0.279  0.9461 -0.4771  0.4004
 2681TIP3    H129602   5.652   2.049   0.359 -1.7734  0.9357 -1.1123
 2681TIP3    H229603   5.727   2.067   0.229  0.6461 -0.5392  0.0158
 2682TIP3   OH229604   5.144   4.207   6.535 -0.5334 -0.6093 -0.3446
 2682TIP3    H129605   5.081   4.140   6.506  0.8797 -2.0842 -0.1600
 2682TIP3    H229606   5.192   4.229   6.456 -2.6988  2.2604 -1.0222
 2683TIP3   OH229607   2.020   6.283   0.589  0.3175 -0.1114 -0.2587
 2683TIP3    H129608   2.111   6.280   0.558 -0.3862 -0.6736 -2.4800
 2683TIP3    H229609   1.979   6.351   0.537 -1.1338 -1.6517 -1.2466
 2684TIP3   OH229610   1.818   1.345   0.157 -0.1435  0.4464  0.3062
 2684TIP3    H129611   1.911   1.326   0.147 -0.6330 -2.3267  0.3389
 2684TIP3    H229612   1.810   1.380   0.247  0.8638  0.9647  0.2057
 2685TIP3   OH229613   0.693   0.389   7.986 -0.4655  0.2609  0.0254
 2685TIP3    H129614   0.697   0.470   7.936 -0.8116  0.5750  0.4919
 2685TIP3    H229615   0.777   0.384   8.031 -0.2478  0.1011 -0.3979
 2686TIP3   OH229616   6.451   1.706   6.115 -0.2105  0.1666 -0.1090
 2686TIP3    H129617   6.541   1.725   6.087 -0.4812  1.9796  0.1912
 2686TIP3    H229618   6.409   1.791   6.121 -0.8047 -0.2628  3.7444
 2687TIP3   OH229619   2.860   2.251   7.581 -0.3606 -0.1345  0.3088
 2687TIP3    H129620   2.936   2.219   7.629 -0.4397  0.2235  0.6766
 2687TIP3    H229621   2.789   2.192   7.606 -0.1741 -0.5648 -0.1554
 2688TIP3   OH229622   3.098   1.720   1.215  0.2786  0.6100 -0.2002
 2688TIP3    H129623   3.083   1.812   1.240  0.3731  1.4451 -2.8484
 2688TIP3    H229624   3.123   1.725   1.123  0.4372 -2.1027 -0.3682
 2689TIP3   OH229625   1.779   4.173   0.844  0.4979  0.7074 -0.3931
 2689TIP3    H129626   1.874   4.172   0.846  0.6085  2.9888 -1.4643
 2689TIP3    H229627   1.756   4.106   0.779  1.1689 -1.5088  1.4975
 2690TIP3   OH229628   1.622   3.615   6.051  1.0155 -0.3836  0.0161
 2690TIP3    H129629   1.582   3.592   6.135  0.8572 -0.3404 -0.0473
 2690TIP3    H229630   1.711   3.642   6.074  0.9767 -0.3805  0.1686
 2691TIP3   OH229631   6.529   0.813   8.280  0.1942 -0.7117  0.3556
 2691TIP3    H129632   6.579   0.788   8.202 -0.6963 -1.6650  0.0666
 2691TIP3    H229633   6.465   0.877   8.249  1.8038  1.2656  0.9075
 2692TIP3   OH229634   3.884   2.972   0.074  0.2238  0.2054 -0.2042
 2692TIP3    H129635   3.883   3.068   0.070  0.8890  0.2489  0.5526
 2692TIP3    H229636   3.884   2.951   0.168  1.0245 -0.5177 -0.3494
 2693TIP3   OH229637   1.985   6.866   1.001 -0.1262 -0.1870 -0.0817
 2693TIP3    H129638   1.933   6.831   0.929  0.2455 -1.4476  0.2416
 2693TIP3    H229639   2.010   6.789   1.053 -1.8507  0.7858  2.4245
 2694TIP3   OH229640   0.530   3.565   1.674  0.3243 -0.4817  0.4649
 2694TIP3    H129641   0.504   3.573   1.766 -1.5805 -2.0232  0.1237
 2694TIP3    H229642   0.527   3.654   1.641 -2.1461 -0.2395  1.1497
 2695TIP3   OH229643   4.119   5.015   1.240 -0.0549  0.8257 -0.0714
 2695TIP3    H129644   4.194   5.017   1.300 -0.7358  1.6490  0.7975
 2695TIP3    H229645   4.127   5.095   1.189 -0.3957  0.9839  0.1154
 2696TIP3   OH229646   1.013   3.519   0.257 -0.5805 -0.0447  0.3913
 2696TIP3    H129647   1.044   3.532   0.347 -0.3323  0.4765  0.2344
 2696TIP3    H229648   1.092   3.519   0.204 -0.6022 -1.8617  0.3289
 2697TIP3   OH229649   0.325   0.228   7.071 -0.8517  0.1985  0.4637
 2697TIP3    H129650   0.371   0.187   6.998 -1.7823 -0.1791  0.0836
 2697TIP3    H229651   0.234   0.201   7.061 -0.6641 -1.8796  3.1038
 2698TIP3   OH229652   5.033   4.607   7.827 -0.3435 -0.0675 -0.1336
 2698TIP3    H129653   4.982   4.540   7.781 -1.8706  0.6867  0.3897
 2698TIP3    H229654   5.117   4.564   7.846 -0.8275 -1.4169 -0.8737
 2699TIP3   OH229655   6.350   1.025   0.664 -0.0612 -0.1064  0.5991
 2699TIP3    H129656   6.325   1.109   0.702 -0.3532 -0.4722  1.2423
 2699TIP3    H229657   6.308   0.960   0.721 -0.3681 -0.6772 -0.2660
 2700TIP3   OH229658   3.093   1.808   7.520  0.2126  0.9126  0.1639
 2700TIP3    H129659   3.037   1.737   7.488  0.6859  0.9300 -0.7235
 2700TIP3    H229660   3.049   1.839   7.599  0.8673 -1.4994  1.5768
 2701TIP3   OH229661   0.273   1.437   7.325  0.0808  0.0929 -0.0847
 2701TIP3    H129662   0.283   1.436   7.420 -1.7783  0.9993  0.1566
 2701TIP3    H229663   0.301   1.525   7.299 -0.6376  0.2992 -0.1939
 2702TIP3   OH229664   3.319   2.282   1.727  0.3812  0.3593  0.0670
 2702TIP3    H129665   3.231   2.253   1.704  0.3763  0.6206 -0.2558
 2702TIP3    H229666   3.365   2.202   1.752 -0.7237  0.5381  2.9524
 2703TIP3   OH229667   4.490   3.338   6.668  0.3611 -0.5152  0.3124
 2703TIP3    H129668   4.579   3.344   6.636  0.1983  1.0346  0.0908
 2703TIP3    H229669   4.456   3.256   6.630  0.8805  0.1325 -1.6742
 2704TIP3   OH229670   5.490   1.995   7.684  0.2737 -0.0605 -0.2141
 2704TIP3    H129671   5.439   1.984   7.604  0.2616 -0.5594 -0.1404
 2704TIP3    H229672   5.501   2.090   7.693  0.4515 -0.0119 -0.9172
 2705TIP3   OH229673   6.059   5.260   6.843  0.0255 -0.2388 -0.3406
 2705TIP3    H129674   6.025   5.216   6.921 -0.4387  0.1299 -0.3336
 2705TIP3    H229675   6.071   5.351   6.870  1.8982 -0.5285 -0.0671
 2706TIP3   OH229676   0.167   0.122   8.300  0.4682 -0.0317 -0.0036
 2706TIP3    H129677   0.143   0.129   8.207  3.0679 -1.2070 -0.8553
 2706TIP3    H229678   0.095   0.072   8.339 -0.5193  0.1920 -1.4437
 2707TIP3   OH229679   0.395   2.878   1.962 -0.6914 -0.1643  0.5901
 2707TIP3    H129680   0.340   2.849   2.034 -1.9375 -2.1831 -1.0551
 2707TIP3    H229681   0.363   2.829   1.886  1.8189  0.4017 -0.9491
 2708TIP3   OH229682   4.792   1.681   1.371 -0.5026 -0.1193 -0.9563
 2708TIP3    H129683   4.875   1.652   1.334 -0.0347  2.1254 -1.7925
 2708TIP3    H229684   4.811   1.700   1.462  0.0819  0.9778 -1.2955
 2709TIP3   OH229685   3.992   2.577   0.388  1.0053 -0.4116  0.5101
 2709TIP3    H129686   4.023   2.664   0.363  0.7712 -0.3741  0.3359
 2709TIP3    H229687   4.001   2.525   0.308 -0.6792 -0.0365  0.0224
 2710TIP3   OH229688   3.954   6.519   6.760 -0.0003  0.1292 -0.1111
 2710TIP3    H129689   4.002   6.586   6.710  1.4989 -0.0285  1.0527
 2710TIP3    H229690   3.941   6.447   6.698  2.2444 -0.2624 -0.1973
 2711TIP3   OH229691   4.700   2.198   2.151  0.2238  0.1858  0.2594
 2711TIP3    H129692   4.679   2.107   2.130  0.4240 -0.0425  1.0340
 2711TIP3    H229693   4.670   2.210   2.241  0.1045  0.9193  0.1308
 2712TIP3   OH229694   2.882   4.258   0.648  0.4402 -0.7349 -0.0349
 2712TIP3    H129695   2.861   4.196   0.717 -0.1839 -2.2582 -1.5252
 2712TIP3    H229696   2.933   4.207   0.585  0.6350  0.4937 -0.9066
 2713TIP3   OH229697   0.182   0.351   0.707 -0.5034 -0.3995  0.2594
 2713TIP3    H129698   0.221   0.397   0.633 -1.7223 -0.3632 -0.3888
 2713TIP3    H229699   0.121   0.413   0.745  0.2682 -0.3452  1.4538
 2714TIP3   OH229700   4.902   0.059   1.760  0.4192  0.4206 -0.1828
 2714TIP3    H129701   4.855   0.143   1.756 -2.1767 -0.9000  0.7086
 2714TIP3    H229702   4.897   0.032   1.851 -0.1832 -1.4532 -0.7278
 2715TIP3   OH229703   4.145   4.347   2.003 -0.1072  0.3869  0.5419
 2715TIP3    H129704   4.230   4.382   2.027  1.7589 -2.7172 -0.8329
 2715TIP3    H229705   4.120   4.291   2.077 -0.2929  0.2708  0.3945
 2716TIP3   OH229706   6.431   3.220   6.248 -0.5578 -0.4436 -0.2862
 2716TIP3    H129707   6.422   3.209   6.342  0.0375 -0.9618 -0.2798
 2716TIP3    H229708   6.342   3.210   6.213 -0.4703 -2.7343 -0.0126
 2717TIP3   OH229709   5.001   5.606   7.909 -0.4691 -0.0189 -0.3359
 2717TIP3    H129710   4.951   5.530   7.880  0.4155 -1.6650  2.1815
 2717TIP3    H229711   5.010   5.595   8.004  2.2703  1.6608 -0.2962
 2718TIP3   OH229712   4.528   3.130   7.046 -0.0101  0.0087  0.2372
 2718TIP3    H129713   4.436   3.117   7.069  0.4533 -1.2207  1.5045
 2718TIP3    H229714   4.546   3.061   6.982  0.0638  0.1925  0.0582
 2719TIP3   OH229715   5.364   5.089   7.460 -0.2918 -0.0747  0.2433
 2719TIP3    H129716   5.295   5.153   7.479 -0.3983 -0.2980  0.6148
 2719TIP3    H229717   5.432   5.140   7.413 -0.7244  0.1330 -0.1677
 2720TIP3   OH229718   5.661   6.204   6.467 -0.6821  0.0673 -0.2165
 2720TIP3    H129719   5.621   6.291   6.467 -2.3445 -0.6506 -1.1468
 2720TIP3    H229720   5.755   6.221   6.469 -0.9569  1.8351  1.8405
 2721TIP3   OH229721   2.375   5.976   8.425  0.9353  0.2673 -0.6400
 2721TIP3    H129722   2.410   5.955   8.339  1.9027 -0.2266 -0.1493
 2721TIP3    H229723   2.368   6.072   8.426 -1.9770  0.1597 -2.3229
 2722TIP3   OH229724   1.292   4.168   7.973 -0.3662 -0.2077  0.0899
 2722TIP3    H129725   1.291   4.264   7.967 -1.5609 -0.1449  1.0035
 2722TIP3    H229726   1.384   4.146   7.987 -0.1799  0.8649  0.6634
 2723TIP3   OH229727   1.858   2.124   6.800  0.5525  0.6327  0.3790
 2723TIP3    H129728   1.865   2.044   6.748 -0.6301  0.4196  0.5198
 2723TIP3    H229729   1.837   2.192   6.736 -0.0074  0.5390  0.4652
 2724TIP3   OH229730   3.913   2.700   1.923 -0.3862 -0.0037  0.1207
 2724TIP3    H129731   3.901   2.781   1.873 -1.1223  1.1073  1.9976
 2724TIP3    H229732   3.878   2.631   1.866 -0.0104  1.0004 -1.3958
 2725TIP3   OH229733   1.154   4.148   0.992 -0.6237 -0.2214 -0.2143
 2725TIP3    H129734   1.083   4.087   0.977 -1.3987 -0.6990  4.1006
 2725TIP3    H229735   1.137   4.184   1.079  3.5621  0.8263  0.4033
 2726TIP3   OH229736   6.277   4.076   6.923 -0.5972  0.3244  0.5036
 2726TIP3    H129737   6.308   4.003   6.976 -2.6474  0.0843  1.4802
 2726TIP3    H229738   6.333   4.075   6.845 -0.0853 -1.7998  0.8410
 2727TIP3   OH229739   1.238   5.970   1.345  0.3704  0.3231 -0.4855
 2727TIP3    H129740   1.145   5.970   1.325  0.3464  0.6026 -0.3759
 2727TIP3    H229741   1.271   6.052   1.308  0.3527  0.7924  0.4939
 2728TIP3   OH229742   0.573   5.601   6.971 -0.1758 -0.0599 -0.1450
 2728TIP3    H129743   0.534   5.630   7.053  0.5437 -0.5674  0.3915
 2728TIP3    H229744   0.667   5.616   6.983 -0.1040  0.3172 -1.0704
 2729TIP3   OH229745   4.244   2.351   8.460 -0.2953  0.3600  0.0019
 2729TIP3    H129746   4.334   2.366   8.489 -0.4548  2.5447 -0.4069
 2729TIP3    H229747   4.250   2.343   8.365 -0.6147  1.6657 -0.1485
 2730TIP3   OH229748   4.222   3.572   7.851 -0.4024  0.0571  0.4085
 2730TIP3    H129749   4.169   3.493   7.852 -1.6701  0.8096 -1.4661
 2730TIP3    H229750   4.164   3.641   7.883  0.0498  0.5583  0.1680
 2731TIP3   OH229751   5.021   4.346   8.170  0.4255 -0.0503 -0.2511
 2731TIP3    H129752   5.023   4.292   8.091 -0.4983  1.1590 -1.1313
 2731TIP3    H229753   4.929   4.366   8.183  0.5461 -0.3422  1.2437
 2732TIP3   OH229754   6.607   2.552   1.508  0.1684  0.6753  0.5503
 2732TIP3    H129755   6.663   2.520   1.579  1.0448  0.5048 -0.1975
 2732TIP3    H229756   6.668   2.568   1.435 -0.4508  2.5987  0.4139
 2733TIP3   OH229757   2.127   6.648   1.128 -0.6223  0.3650  0.2514
 2733TIP3    H129758   2.141   6.567   1.077 -0.7259  1.2689 -1.2763
 2733TIP3    H229759   2.197   6.647   1.193  0.2987 -0.2515 -0.7022
 2734TIP3   OH229760   3.369   1.137   7.000  0.0764 -0.3833  0.2172
 2734TIP3    H129761   3.448   1.190   7.005  0.0201 -0.2196 -0.5088
 2734TIP3    H229762   3.306   1.193   6.955 -1.7225  1.0096  4.0018
 2735TIP3   OH229763   2.970   0.744   1.485 -0.1035  0.2449  0.1857
 2735TIP3    H129764   2.944   0.708   1.400 -0.2101  1.2534 -0.2139
 2735TIP3    H229765   3.015   0.672   1.529 -0.2620 -0.3559 -0.6243
 2736TIP3   OH229766   2.330   1.450   1.848 -0.6212 -0.4418 -0.5449
 2736TIP3    H129767   2.303   1.440   1.757 -1.7107  0.3027 -0.3262
 2736TIP3    H229768   2.247   1.460   1.896  0.0036  1.0566  0.2749
 2737TIP3   OH229769   2.100   5.443   1.840 -0.7530 -0.4726 -0.4682
 2737TIP3    H129770   2.186   5.425   1.802 -0.0267  1.6393  0.0283
 2737TIP3    H229771   2.104   5.404   1.927 -0.7689 -1.4059 -0.8682
 2738TIP3   OH229772   0.154   6.379   6.288  0.0305 -0.0124 -0.5124
 2738TIP3    H129773   0.099   6.456   6.276 -0.0694  0.1530  0.7946
 2738TIP3    H229774   0.226   6.410   6.344 -0.5771 -1.0754  0.9314
 2739TIP3   OH229775   0.360   4.673   8.462 -0.6354 -0.2784 -0.2099
 2739TIP3    H129776   0.451   4.701   8.472 -1.1048  0.7936  1.3649
 2739TIP3    H229777   0.342   4.685   8.368  0.8712 -0.6534 -0.5780
 2740TIP3   OH229778   0.582   6.751   6.492 -0.5637  0.4697  0.0724
 2740TIP3    H129779   0.616   6.675   6.443 -1.9202  0.4612 -0.9339
 2740TIP3    H229780   0.537   6.712   6.567 -2.2544  0.1263 -1.0457
 2741TIP3   OH229781   4.767   0.319   1.751 -0.1538  0.0607  0.7043
 2741TIP3    H129782   4.809   0.400   1.780  0.0969  0.0104  0.4896
 2741TIP3    H229783   4.781   0.318   1.656  0.1574 -0.4102  0.7544
 2742TIP3   OH229784   2.885   6.077   8.401  0.2574  0.3508  0.4012
 2742TIP3    H129785   2.930   6.015   8.459  2.4663  2.7779  1.4624
 2742TIP3    H229786   2.848   6.142   8.461 -0.6455  0.9354 -0.7578
 2743TIP3   OH229787   5.904   1.264   7.382  0.8121 -0.3729  0.1278
 2743TIP3    H129788   5.827   1.291   7.432  1.3901  1.3189  0.1895
 2743TIP3    H229789   5.872   1.254   7.292  0.2053 -1.2958  0.4380
 2744TIP3   OH229790   3.209   3.961   0.871  0.1206 -0.2913 -0.0113
 2744TIP3    H129791   3.249   3.878   0.895  0.0400 -0.3240  0.0095
 2744TIP3    H229792   3.119   3.938   0.846  0.6668 -0.5240 -1.9860
 2745TIP3   OH229793   5.326   1.007   0.659  0.1948 -0.2076  0.2061
 2745TIP3    H129794   5.256   0.998   0.595  0.5005  0.6561 -0.2776
 2745TIP3    H229795   5.282   1.000   0.744 -0.4135 -0.0843 -0.0906
 2746TIP3   OH229796   2.343   1.874   7.158 -0.4032 -0.0429 -0.5366
 2746TIP3    H129797   2.338   1.969   7.143  1.1661  0.1162 -0.2209
 2746TIP3    H229798   2.272   1.856   7.219 -0.6092  0.9674 -0.4551
 2747TIP3   OH229799   0.290   4.408   7.784  0.5097 -0.5210 -0.2403
 2747TIP3    H129800   0.364   4.440   7.732 -0.0379  1.0905 -0.0659
 2747TIP3    H229801   0.215   4.459   7.754 -0.4413 -1.7347 -0.0127
 2748TIP3   OH229802   1.083   2.553   1.946 -0.0131 -0.2208  0.1605
 2748TIP3    H129803   1.011   2.584   1.891  1.0879 -0.0012 -1.1931
 2748TIP3    H229804   1.084   2.458   1.933  0.2533 -0.1676 -0.2098
 2749TIP3   OH229805   1.688   4.467   7.403  0.2157  0.3321 -0.1056
 2749TIP3    H129806   1.767   4.485   7.352  0.0857 -0.0186 -0.4369
 2749TIP3    H229807   1.618   4.464   7.338  0.1281 -0.6578  0.0146
 2750TIP3   OH229808   6.763   1.873   6.286  0.1799 -0.1928  0.0143
 2750TIP3    H129809   6.812   1.917   6.356  0.2397 -0.6774  0.2917
 2750TIP3    H229810   6.671   1.890   6.306  0.2163  0.1566 -0.1204
 2751TIP3   OH229811   5.918   2.811   8.098 -0.0161 -0.3575  0.3948
 2751TIP3    H129812   5.886   2.880   8.040  1.1744 -0.6459 -0.6584
 2751TIP3    H229813   5.895   2.840   8.186 -0.3595  0.9187 -0.1047
 2752TIP3   OH229814   5.703   6.766   0.745  0.0140 -0.4474 -0.3312
 2752TIP3    H129815   5.627   6.748   0.690  0.5069 -0.2500 -1.1010
 2752TIP3    H229816   5.670   6.761   0.835 -1.4612  1.9525 -0.6497
 2753TIP3   OH229817   1.567   3.540   7.590 -0.5907  0.2043  0.1248
 2753TIP3    H129818   1.608   3.461   7.623 -0.8487 -0.4693 -1.0937
 2753TIP3    H229819   1.638   3.605   7.589  0.7870 -1.1227 -2.6187
 2754TIP3   OH229820   0.699   3.096   1.735 -0.1281 -0.0305 -0.0867
 2754TIP3    H129821   0.747   3.160   1.681 -0.6130  0.0266 -0.4562
 2754TIP3    H229822   0.609   3.102   1.704 -0.3262 -0.3183  0.4373
 2755TIP3   OH229823   0.027   5.593   6.280  0.1098  0.1367  0.2680
 2755TIP3    H129824   0.020   5.500   6.260 -0.5717  0.3326 -0.4719
 2755TIP3    H229825  -0.043   5.609   6.344  0.2584  0.1284  0.4321
 2756TIP3   OH229826   0.953   4.447   1.810  0.0803 -0.6238  0.4008
 2756TIP3    H129827   0.935   4.353   1.812  0.4357 -0.6964  0.1523
 2756TIP3    H229828   1.034   4.457   1.860  0.8193 -0.6259 -0.7535
 2757TIP3   OH229829   4.146   5.378   7.635 -0.3036 -0.2436  0.6739
 2757TIP3    H129830   4.204   5.441   7.678 -0.0101  0.3033 -0.4826
 2757TIP3    H229831   4.205   5.308   7.606 -0.2463  0.1864 -0.2718
 2758TIP3   OH229832   2.587   5.064   1.743  0.5396 -1.0723  0.1359
 2758TIP3    H129833   2.674   5.065   1.781  1.1026  0.7070 -1.0722
 2758TIP3    H229834   2.541   5.138   1.783 -0.6586 -2.3325  1.1975
 2759TIP3   OH229835   1.295   6.608   2.018  0.6987  0.6727  0.0813
 2759TIP3    H129836   1.303   6.521   2.056  1.1080 -0.0808 -1.6436
 2759TIP3    H229837   1.321   6.667   2.089 -0.2237 -0.5326  1.4982
 2760TIP3   OH229838   0.491   2.391   7.740 -0.5364  0.2240  0.0830
 2760TIP3    H129839   0.415   2.338   7.717 -0.4236 -0.2601  0.8083
 2760TIP3    H229840   0.560   2.362   7.681 -0.2245 -1.0757  1.0393
 2761TIP3   OH229841   5.129   0.253   7.604 -0.4806  0.4644  0.4220
 2761TIP3    H129842   5.137   0.331   7.549  1.6103  0.8471  1.1484
 2761TIP3    H229843   5.219   0.233   7.630 -1.3026  0.1277  3.4071
 2762TIP3   OH229844   0.610   1.579   6.894  0.0417 -0.7240 -0.1150
 2762TIP3    H129845   0.598   1.505   6.835  0.0679 -1.0285  0.2617
 2762TIP3    H229846   0.576   1.654   6.846 -0.6602 -1.0980 -0.2046
 2763TIP3   OH229847   2.407   5.504   1.150 -0.7866 -0.3347  0.2216
 2763TIP3    H129848   2.502   5.519   1.155 -0.9499  2.1518 -1.9566
 2763TIP3    H229849   2.399   5.411   1.128  1.5120  0.2179 -4.0560
 2764TIP3   OH229850   0.401   2.619   7.933  0.0115  0.0170 -1.2589
 2764TIP3    H129851   0.462   2.621   8.006 -1.3341  0.8874 -0.0952
 2764TIP3    H229852   0.424   2.539   7.885  1.4281 -0.1711 -0.3328
 2765TIP3   OH229853   1.521   1.004   0.862 -0.8784 -0.0033 -0.5072
 2765TIP3    H129854   1.596   1.034   0.914 -0.4680 -0.5494 -0.7680
 2765TIP3    H229855   1.450   1.063   0.886 -0.8374 -0.5549  1.0649
 2766TIP3   OH229856   4.256   6.798   0.634 -0.2704 -0.1010  0.0739
 2766TIP3    H129857   4.236   6.879   0.681  0.2078 -0.0884  0.2580
 2766TIP3    H229858   4.193   6.796   0.561  0.9391  1.3966 -1.0629
 2767TIP3   OH229859   2.863   0.560   0.985  0.2790  0.0623 -0.0717
 2767TIP3    H129860   2.850   0.468   1.009 -1.8947  0.0752 -0.9343
 2767TIP3    H229861   2.776   0.599   0.995  1.0253  1.8792 -0.3764
 2768TIP3   OH229862   2.321   3.036   0.053 -0.8073 -0.0172 -0.3697
 2768TIP3    H129863   2.277   3.120   0.067 -0.5745  0.4849 -2.4602
 2768TIP3    H229864   2.381   3.029   0.127 -0.3843  1.9550 -0.4701
 2769TIP3   OH229865   2.316   2.786   1.846  0.1644  0.5195  0.6734
 2769TIP3    H129866   2.301   2.880   1.857  0.2469  0.7557 -1.0499
 2769TIP3    H229867   2.237   2.745   1.881 -0.9830  1.3647 -0.8200
 2770TIP3   OH229868   0.262   4.558   0.514 -0.0893 -0.1494 -0.0719
 2770TIP3    H129869   0.174   4.593   0.502 -0.8125 -1.7178  0.2923
 2770TIP3    H229870   0.299   4.611   0.584 -1.5651 -0.7697  1.2548
 2771TIP3   OH229871   2.040   6.351   8.080  0.2992 -0.0374  0.7779
 2771TIP3    H129872   1.951   6.385   8.087  0.7188  1.0352  1.2351
 2771TIP3    H229873   2.088   6.420   8.035  0.8157 -0.7955  0.1446
 2772TIP3   OH229874   3.783   4.504   7.475  0.3777  0.3966 -0.1103
 2772TIP3    H129875   3.730   4.534   7.549  2.2728  1.3313  0.9194
 2772TIP3    H229876   3.744   4.420   7.450  0.3185 -0.4706  2.6160
 2773TIP3   OH229877   3.706   5.615   0.253  0.3596 -0.1487 -0.1430
 2773TIP3    H129878   3.789   5.570   0.237  0.6973  0.4436 -0.1090
 2773TIP3    H229879   3.677   5.582   0.338  1.2094  0.5727  0.4505
 2774TIP3   OH229880   4.316   0.935   8.385  0.0963 -0.0799 -0.1612
 2774TIP3    H129881   4.332   0.891   8.301 -0.0174 -0.8416  0.2022
 2774TIP3    H229882   4.299   0.863   8.446 -2.4539  0.5540 -0.0247
 2775TIP3   OH229883   4.961   5.587   0.676 -0.1829 -0.0686 -0.3280
 2775TIP3    H129884   4.869   5.580   0.704 -0.8548  0.9837 -2.0641
 2775TIP3    H229885   4.957   5.641   0.597  1.7397 -1.5108 -1.4991
 2776TIP3   OH229886   6.827   5.720   6.953 -0.3186 -0.0789  0.0808
 2776TIP3    H129887   6.760   5.711   6.885 -0.6410  0.3134  0.3394
 2776TIP3    H229888   6.901   5.669   6.921 -1.5466 -2.5414  0.8774
 2777TIP3   OH229889   0.887   3.822   1.626  0.8095 -0.1635  0.2858
 2777TIP3    H129890   0.824   3.842   1.695  1.1356 -0.2257  0.6018
 2777TIP3    H229891   0.921   3.736   1.648 -1.1305 -1.4831 -1.4810
 2778TIP3   OH229892   1.685   5.704   7.711  0.3029  0.4340  0.3622
 2778TIP3    H129893   1.724   5.627   7.669 -2.0415  0.5427 -2.3879
 2778TIP3    H229894   1.739   5.777   7.681  0.2711  0.2091 -0.2786
 2779TIP3   OH229895   0.831   6.781   1.288  0.0112  0.1023 -0.1870
 2779TIP3    H129896   0.868   6.804   1.373 -1.1058 -1.9658  0.9162
 2779TIP3    H229897   0.899   6.729   1.245  0.2574  0.4618 -0.2378
 2780TIP3   OH229898   3.982   4.975   8.159  0.1012 -0.0115 -0.0789
 2780TIP3    H129899   3.893   4.949   8.137  0.3192 -0.9969  0.1445
 2780TIP3    H229900   3.989   4.958   8.253 -0.0441  1.8011  0.3037
 2781TIP3   OH229901   1.117   4.434   6.653  0.0815 -0.6030  0.2951
 2781TIP3    H129902   1.157   4.405   6.735 -0.0407 -0.8142  0.2799
 2781TIP3    H229903   1.155   4.521   6.638  0.1629 -0.5955  0.5339
 2782TIP3   OH229904   6.490   3.435   7.818 -0.8512  0.6997 -0.3990
 2782TIP3    H129905   6.567   3.424   7.874 -0.4663  2.8272 -0.4405
 2782TIP3    H229906   6.519   3.410   7.731 -0.5743  0.3192 -0.2009
 2783TIP3   OH229907   4.578   4.646   1.085  0.2211  0.4187 -0.3481
 2783TIP3    H129908   4.624   4.565   1.107 -0.1194  0.3758  0.2315
 2783TIP3    H229909   4.563   4.688   1.170 -0.0466  0.8489 -0.6059
 2784TIP3   OH229910   1.985   6.406   0.159 -0.1772 -0.1227 -0.3282
 2784TIP3    H129911   2.073   6.410   0.196  0.1726 -0.5559 -1.0932
 2784TIP3    H229912   1.985   6.473   0.090 -0.3968 -0.2275 -0.4307
 2785TIP3   OH229913   4.122   4.020   2.770 -0.0349  0.2701  0.1524
 2785TIP3    H129914   4.146   3.997   2.681  2.1886  0.6366  0.5964
 2785TIP3    H229915   4.126   4.115   2.773 -1.5965  0.3601  0.2898
 2786TIP3   OH229916   5.301   3.358   0.267  0.3526  0.1092 -0.1565
 2786TIP3    H129917   5.252   3.315   0.196  2.2263 -0.8862 -0.9212
 2786TIP3    H229918   5.240   3.423   0.302 -1.3951 -0.8650 -1.2330
 2787TIP3   OH229919   0.918   0.951   2.064 -0.1690  0.1350 -0.0240
 2787TIP3    H129920   0.893   1.022   2.005  1.3601 -0.2297 -1.1666
 2787TIP3    H229921   0.836   0.905   2.082 -1.2444  2.2870  0.9533
 2788TIP3   OH229922   2.991   5.701   2.124  0.3877 -0.2397 -0.3007
 2788TIP3    H129923   2.937   5.626   2.148  1.7977 -1.3794 -0.5096
 2788TIP3    H229924   2.971   5.768   2.189  0.4252 -1.4629  1.0136
 2789TIP3   OH229925   5.037   4.994   0.393  0.0517 -0.3896  0.1949
 2789TIP3    H129926   5.120   5.008   0.348 -0.8512 -1.0227 -1.7881
 2789TIP3    H229927   5.056   4.927   0.458  1.4665  0.7364  0.9846
 2790TIP3   OH229928   4.816   1.088   1.629  0.4978  0.0163  0.1184
 2790TIP3    H129929   4.751   1.117   1.693 -1.1838  1.0860 -1.9579
 2790TIP3    H229930   4.823   0.993   1.644 -1.8555 -0.2072  0.2068
 2791TIP3   OH229931   5.201   0.614   1.409  0.3484  0.1070 -0.2057
 2791TIP3    H129932   5.199   0.525   1.373 -0.3455 -0.3446  0.8793
 2791TIP3    H229933   5.189   0.672   1.334 -0.3797 -0.7645 -0.7784
 2792TIP3   OH229934   3.199   1.982   8.188  0.0587  0.2631  0.0005
 2792TIP3    H129935   3.160   2.020   8.109  1.8008  0.2725 -0.8958
 2792TIP3    H229936   3.277   2.035   8.205  0.2670 -0.3765  1.1400
 2793TIP3   OH229937   5.912   2.625   6.326  0.3288 -0.1160  0.3293
 2793TIP3    H129938   5.877   2.699   6.376  0.6716  0.3047 -0.0469
 2793TIP3    H229939   6.007   2.636   6.330  0.4341 -1.1288  1.1513
 2794TIP3   OH229940   3.709   0.938   6.524  0.1096 -0.2922 -0.3084
 2794TIP3    H129941   3.756   1.016   6.557 -2.1294  0.7089  0.7504
 2794TIP3    H229942   3.623   0.943   6.567 -0.6397 -2.5333 -1.4413
 2795TIP3   OH229943   6.386   0.789   1.234 -0.3911 -0.3532 -0.2578
 2795TIP3    H129944   6.345   0.773   1.319  1.0590 -0.7344  0.3967
 2795TIP3    H229945   6.409   0.702   1.202  1.2055 -0.0755  0.0720
 2796TIP3   OH229946   0.447   2.201   0.812  0.2579  0.2258 -0.0709
 2796TIP3    H129947   0.418   2.157   0.732  0.5722 -0.5304  0.2274
 2796TIP3    H229948   0.511   2.141   0.851  0.6551  0.9238  0.3675
 2797TIP3   OH229949   1.064   1.759   6.640 -0.2981  0.0084  0.0204
 2797TIP3    H129950   0.989   1.789   6.692 -1.1882 -3.1179  0.7083
 2797TIP3    H229951   1.025   1.710   6.568  1.0799  0.7154 -1.2653
 2798TIP3   OH229952   0.283   3.743   8.387 -0.1227 -0.0489 -0.2871
 2798TIP3    H129953   0.308   3.666   8.335 -0.9562 -0.5004 -0.0308
 2798TIP3    H229954   0.226   3.708   8.455  0.5646  0.6084  0.6487
 2799TIP3   OH229955   0.371   2.127   7.634 -0.4449  0.1297  0.4388
 2799TIP3    H129956   0.343   2.191   7.568 -0.5851  0.0365  0.4077
 2799TIP3    H229957   0.328   2.045   7.608 -1.4528  0.3678  1.3152
 2800TIP3   OH229958   0.995   3.585   6.815 -0.6901 -0.7328 -0.7277
 2800TIP3    H129959   1.033   3.636   6.743 -1.5515  0.4872 -0.3609
 2800TIP3    H229960   1.025   3.631   6.894 -0.7650 -1.3299 -0.3504
 2801TIP3   OH229961   2.743   0.669   7.490 -0.4643 -0.3433 -0.0086
 2801TIP3    H129962   2.770   0.760   7.486 -0.7057 -0.2810 -0.2740
 2801TIP3    H229963   2.669   0.667   7.550 -1.0012 -0.2212 -0.6477
 2802TIP3   OH229964   1.127   1.514   0.561  0.3162 -0.2475  0.3119
 2802TIP3    H129965   1.186   1.569   0.613  0.9825 -0.5684 -0.0850
 2802TIP3    H229966   1.073   1.577   0.513  0.6736  0.0633  0.3063
 2803TIP3   OH229967   6.412   0.407   0.560 -0.0200  0.2461  0.9257
 2803TIP3    H129968   6.372   0.464   0.495  0.8170  0.8255  0.8999
 2803TIP3    H229969   6.395   0.318   0.528  1.0247  0.5192 -0.5137
 2804TIP3   OH229970   5.782   5.751   2.272 -0.7403 -0.5633 -0.8454
 2804TIP3    H129971   5.707   5.697   2.246  0.4940 -1.5100 -2.6249
 2804TIP3    H229972   5.848   5.688   2.301 -0.1688  0.1681 -0.5307
 2805TIP3   OH229973   5.987   3.728   7.163  0.3648  0.6517  0.2179
 2805TIP3    H129974   6.003   3.646   7.211 -0.1009  0.6968  0.4559
 2805TIP3    H229975   6.003   3.705   7.072 -0.2719  0.1553  0.2236
 2806TIP3   OH229976   3.815   0.479   1.360  0.4262  0.2173 -0.5470
 2806TIP3    H129977   3.894   0.531   1.378  0.9586 -0.3187 -1.2551
 2806TIP3    H229978   3.751   0.510   1.424  1.6893 -0.4549  1.1186
 2807TIP3   OH229979   6.779   2.867   1.390  0.0982 -0.3979  0.7103
 2807TIP3    H129980   6.754   2.890   1.479  2.8247  0.1017  1.4420
 2807TIP3    H229981   6.736   2.932   1.335 -0.6758  0.0023  1.7608
 2808TIP3   OH229982   4.810   0.395   1.477 -0.2664  0.4227  0.3130
 2808TIP3    H129983   4.778   0.310   1.447  0.7662  0.5456 -1.2415
 2808TIP3    H229984   4.811   0.449   1.398  1.7028  1.0339  0.6948
 2809TIP3   OH229985   2.583   5.499   8.432 -0.0577 -0.6168  0.1526
 2809TIP3    H129986   2.612   5.416   8.395  2.1124  1.0650 -2.3666
 2809TIP3    H229987   2.493   5.508   8.403 -1.1779 -3.0176  2.4749
 2810TIP3   OH229988   4.091   1.298   8.265  0.4672  0.4453  0.0774
 2810TIP3    H129989   4.036   1.341   8.199  0.5267  1.9936  0.9933
 2810TIP3    H229990   4.057   1.209   8.270  0.6664  0.1837 -2.2508
 2811TIP3   OH229991   5.617   5.362   0.830  0.2169 -0.1292 -0.4959
 2811TIP3    H129992   5.595   5.455   0.827  0.9904  0.0403 -1.4856
 2811TIP3    H229993   5.557   5.325   0.895 -2.5449  0.3851 -2.5638
 2812TIP3   OH229994   5.939   3.192   7.683  0.2925 -0.4796  0.1228
 2812TIP3    H129995   5.954   3.227   7.595 -2.0629 -1.3062 -0.6814
 2812TIP3    H229996   5.996   3.116   7.689  0.5717 -0.3394 -0.6329
 2813TIP3   OH229997   2.502   3.076   0.239 -0.5270 -0.5674  0.0493
 2813TIP3    H129998   2.565   3.145   0.260 -0.9128 -0.5448  1.2078
 2813TIP3    H229999   2.512   3.012   0.309 -3.0278  0.3047  1.3421
 2814TIP3   OH230000   2.035   3.522   0.910 -0.0467  0.5225 -0.2365
 2814TIP3    H130001   2.066   3.477   0.830  0.7386  1.1899 -0.3247
 2814TIP3    H230002   2.114   3.562   0.946 -0.3460  0.0030  1.0413
 2815TIP3   OH230003   5.403   2.301   8.354  0.6152 -0.3820  0.1853
 2815TIP3    H130004   5.366   2.219   8.389  1.5009 -1.0828 -0.4551
 2815TIP3    H230005   5.340   2.368   8.380 -1.0800 -1.4928 -0.7604
 2816TIP3   OH230006   6.566   2.229   2.001 -0.3838 -0.0395 -0.3467
 2816TIP3    H130007   6.514   2.159   1.960 -0.7833  0.0945 -0.0631
 2816TIP3    H230008   6.653   2.190   2.012 -0.8448 -0.8105  0.6531
 2817TIP3   OH230009   5.425   2.760   2.898  0.2724  0.2809  0.2082
 2817TIP3    H130010   5.400   2.788   2.810  0.3152  0.9947  0.4131
 2817TIP3    H230011   5.345   2.768   2.950  0.3198  0.1467  0.3027
 2818TIP3   OH230012   1.644   4.241   2.080  0.5021  0.2472 -0.0522
 2818TIP3    H130013   1.686   4.322   2.051 -0.3020  1.1781  1.2250
 2818TIP3    H230014   1.669   4.233   2.172  0.0453 -0.6154  0.0044
 2819TIP3   OH230015   4.135   4.473   7.084  0.0615 -0.1848 -0.1200
 2819TIP3    H130016   4.226   4.504   7.088  0.2320 -0.4310 -1.6314
 2819TIP3    H230017   4.084   4.545   7.121  0.5718  1.4255 -2.3274
 2820TIP3   OH230018   3.440   5.511   8.320 -0.2095 -0.0173 -0.0782
 2820TIP3    H130019   3.438   5.512   8.416 -2.6245  1.4260 -0.0708
 2820TIP3    H230020   3.415   5.422   8.297  0.4814 -0.4035  0.6333
 2821TIP3   OH230021   3.448   5.092   6.848 -0.6605 -0.0797 -0.3912
 2821TIP3    H130022   3.362   5.076   6.885 -1.0964  0.2884 -1.2132
 2821TIP3    H230023   3.431   5.113   6.756  0.2179  0.9144 -0.3423
 2822TIP3   OH230024   6.393   5.369   1.137 -0.0519 -0.8105 -0.1780
 2822TIP3    H130025   6.323   5.418   1.182 -0.0961  0.3545 -1.4428
 2822TIP3    H230026   6.363   5.364   1.046  0.4161 -2.4002 -0.2707
 2823TIP3   OH230027   1.418   5.759   2.025 -0.0084  0.2756  0.5368
 2823TIP3    H130028   1.491   5.777   1.966  0.0763  0.2662  0.6398
 2823TIP3    H230029   1.356   5.830   2.009 -0.6458 -0.4929 -0.6307
 2824TIP3   OH230030   0.389   3.730   7.011 -0.2211  0.3241 -0.6929
 2824TIP3    H130031   0.320   3.757   7.072 -1.6358 -3.2131 -0.4972
 2824TIP3    H230032   0.343   3.695   6.935  1.3971 -0.2229 -1.4875
 2825TIP3   OH230033   0.534   3.753   7.802 -0.4115  0.2447  0.1321
 2825TIP3    H130034   0.610   3.799   7.768  0.7136 -2.1727 -0.9197
 2825TIP3    H230035   0.545   3.753   7.897  0.3412  0.7951  0.0510
 2826TIP3   OH230036   0.241   2.263   7.416  0.2053  0.2923  0.3661
 2826TIP3    H130037   0.233   2.358   7.406  0.3407  0.1537 -1.3379
 2826TIP3    H230038   0.222   2.228   7.329 -4.2699 -1.5764  1.7784
 2827TIP3   OH230039   1.251   5.541   7.899 -0.0222  0.2047  0.3849
 2827TIP3    H130040   1.287   5.519   7.985 -1.4476 -0.7168  0.7766
 2827TIP3    H230041   1.315   5.506   7.837  1.4535  1.6212  1.0218
 2828TIP3   OH230042   2.216   3.814   2.418 -0.1229 -0.3904  0.6918
 2828TIP3    H130043   2.222   3.909   2.409  0.6900 -0.3855  1.1459
 2828TIP3    H230044   2.232   3.781   2.330 -1.7555 -0.0840  0.2436
 2829TIP3   OH230045   1.914   5.197   8.081  0.6602 -0.3687 -0.3920
 2829TIP3    H130046   1.994   5.146   8.095  0.8636  0.3081  1.1187
 2829TIP3    H230047   1.888   5.225   8.168  0.5746  2.1283 -1.1430
 2830TIP3   OH230048   0.721   3.347   6.532  0.4527 -0.3634 -0.2355
 2830TIP3    H130049   0.627   3.361   6.542  0.3226 -2.1315  1.8130
 2830TIP3    H230050   0.760   3.399   6.603  1.0610  0.3421 -1.0587
 2831TIP3   OH230051   0.674   4.418   2.029  0.7767  0.0225  0.1124
 2831TIP3    H130052   0.605   4.414   2.095  0.0726  0.2992 -0.5885
 2831TIP3    H230053   0.755   4.412   2.079  0.2640  0.4310  1.0277
 2832TIP3   OH230054   6.239   0.213   0.460  0.4611  0.3833 -0.3166
 2832TIP3    H130055   6.264   0.156   0.388 -1.4228  0.4753 -1.0880
 2832TIP3    H230056   6.143   0.214   0.459  0.3820  0.9404  1.7532
 2833TIP3   OH230057   2.720   4.841   1.921 -0.2315  0.1365  0.2298
 2833TIP3    H130058   2.758   4.859   2.007  1.9902 -0.4342 -0.5509
 2833TIP3    H230059   2.756   4.909   1.865  0.2757 -0.8619 -0.6963
 2834TIP3   OH230060   5.288   4.561   0.284  0.4065 -0.0994 -0.0573
 2834TIP3    H130061   5.298   4.505   0.207  2.3866  1.6715 -1.1867
 2834TIP3    H230062   5.377   4.592   0.303  0.0737 -0.7820  3.2534
 2835TIP3   OH230063   2.116   1.844   7.299 -0.5122 -0.0824  0.0540
 2835TIP3    H130064   2.047   1.891   7.252 -0.7886 -0.2445  0.2987
 2835TIP3    H230065   2.105   1.868   7.390  0.0991  0.3208  0.0283
 2836TIP3   OH230066   5.494   5.776   6.829  0.6416  0.1944 -0.5261
 2836TIP3    H130067   5.547   5.697   6.813 -0.0182 -0.2274 -0.6945
 2836TIP3    H230068   5.463   5.801   6.743  2.8983  2.1742 -0.8830
 2837TIP3   OH230069   0.922   0.822   0.443  0.0606  0.7158 -0.5242
 2837TIP3    H130070   0.839   0.859   0.472  1.0341  2.2963  0.3678
 2837TIP3    H230071   0.904   0.789   0.355 -1.2741  1.8545 -0.7029
 2838TIP3   OH230072   1.314   1.711   8.080  0.1089  0.1445  0.6110
 2838TIP3    H130073   1.243   1.722   8.143 -0.9636 -2.1234 -0.0909
 2838TIP3    H230074   1.287   1.761   8.003  0.3614  1.0781  1.1078
 2839TIP3   OH230075   3.769   6.509   1.278 -0.5839  0.1395 -0.3693
 2839TIP3    H130076   3.735   6.420   1.291 -0.5127  0.0445 -0.7885
 2839TIP3    H230077   3.829   6.523   1.351 -1.2832  0.1951  0.2098
 2840TIP3   OH230078   4.459   3.700   1.019 -0.2059 -0.2550  0.0020
 2840TIP3    H130079   4.553   3.699   1.000  0.1571  0.7489  1.6042
 2840TIP3    H230080   4.442   3.615   1.060  0.3915  0.2180  1.2966
 2841TIP3   OH230081   2.077   4.838   0.394  0.9055 -0.3244 -0.0509
 2841TIP3    H130082   2.085   4.863   0.486  1.5862 -0.7660  0.0197
 2841TIP3    H230083   2.087   4.920   0.346 -0.2735  0.0379  0.2868
 2842TIP3   OH230084   4.730   0.542   1.264 -0.4714 -0.2471  0.6365
 2842TIP3    H130085   4.651   0.582   1.301 -0.1094 -0.0164  1.1689
 2842TIP3    H230086   4.777   0.615   1.224 -0.4651 -0.3641  0.4291
 2843TIP3   OH230087   1.821   6.598   2.089 -0.0919 -0.0403  0.7101
 2843TIP3    H130088   1.767   6.656   2.036 -0.6909 -1.0283  0.2237
 2843TIP3    H230089   1.759   6.545   2.139  0.3959 -1.1430  0.1980
 2844TIP3   OH230090   1.829   4.988   8.367  0.4095 -0.0402 -0.3395
 2844TIP3    H130091   1.880   4.985   8.286 -0.2954  0.0081 -0.7893
 2844TIP3    H230092   1.814   5.081   8.383  2.3189  0.0884  0.9867
 2845TIP3   OH230093   6.364   3.655   0.114 -0.0270  0.5927 -0.2840
 2845TIP3    H130094   6.433   3.602   0.072  0.3253  0.8544 -0.0407
 2845TIP3    H230095   6.287   3.642   0.058  0.2396  0.3558 -0.6029
 2846TIP3   OH230096   1.477   5.973   1.494  0.4652 -0.1932 -1.1051
 2846TIP3    H130097   1.438   5.979   1.581  0.6433  0.3885 -1.0613
 2846TIP3    H230098   1.402   5.979   1.434  0.5381  1.7985 -1.0428
 2847TIP3   OH230099   3.782   3.479   7.268  0.0950  0.0273 -0.3173
 2847TIP3    H130100   3.871   3.511   7.251  0.1596  0.8383  1.4003
 2847TIP3    H230101   3.783   3.388   7.235  1.5321  0.0456 -0.3806
 2848TIP3   OH230102   4.286   5.253   8.193 -0.4907  0.2650 -0.2608
 2848TIP3    H130103   4.328   5.175   8.157  0.9823  0.7440  0.3602
 2848TIP3    H230104   4.350   5.323   8.179 -2.3480  1.7276 -2.1403
 2849TIP3   OH230105   5.709   6.089   0.041  0.0353  0.3894  0.8909
 2849TIP3    H130106   5.615   6.102   0.030 -0.1121 -0.7856  0.6888
 2849TIP3    H230107   5.718   6.032   0.117  0.6573  1.3972  1.6095
 2850TIP3   OH230108   3.644   2.439   7.375 -0.4268 -0.7112 -0.4629
 2850TIP3    H130109   3.681   2.352   7.357 -2.1127 -1.5428 -0.0757
 2850TIP3    H230110   3.553   2.422   7.397 -0.1783  0.8942  2.2627
 2851TIP3   OH230111   0.116   6.901   1.529 -0.0338  0.3728  0.5331
 2851TIP3    H130112   0.203   6.887   1.567  0.1954 -0.3978 -0.2183
 2851TIP3    H230113   0.057   6.853   1.587  0.1964 -0.0486  0.4257
 2852TIP3   OH230114   6.449   6.658   8.440  0.1817  0.3459  0.0287
 2852TIP3    H130115   6.414   6.571   8.457 -0.0991  0.7177  1.5888
 2852TIP3    H230116   6.487   6.653   8.353 -1.1595 -0.9026 -0.5197
 2853TIP3   OH230117   3.962   3.560   8.051 -0.2242  0.2682 -0.2610
 2853TIP3    H130118   3.870   3.564   8.026  0.3111  1.3930 -2.2657
 2853TIP3    H230119   3.962   3.515   8.136 -2.5728  0.0422 -0.3184
 2854TIP3   OH230120   4.462   0.357   7.042  0.1609 -0.3244  0.1361
 2854TIP3    H130121   4.458   0.429   6.978  0.5743 -1.2406 -0.9548
 2854TIP3    H230122   4.500   0.397   7.120 -1.9849  1.2649  0.4587
 2855TIP3   OH230123   6.702   2.705   1.084  0.1742  0.4502  0.3576
 2855TIP3    H130124   6.647   2.775   1.049  0.7792  0.2465 -1.0373
 2855TIP3    H230125   6.703   2.639   1.016 -1.0023 -1.3078  1.9328
 2856TIP3   OH230126   2.575   4.208   8.001 -0.2467  0.3188  0.1907
 2856TIP3    H130127   2.521   4.268   7.950 -2.0603 -1.0109  0.4554
 2856TIP3    H230128   2.576   4.245   8.089  2.6263  2.4474 -0.5767
 2857TIP3   OH230129   2.713   0.119   1.279  0.1271 -0.1519 -0.3233
 2857TIP3    H130130   2.688   0.074   1.359  1.0050  0.4428  0.3153
 2857TIP3    H230131   2.802   0.089   1.261  0.5869  0.9922 -0.0950
 2858TIP3   OH230132   4.278   3.864   7.645 -0.2505  0.2267  0.1832
 2858TIP3    H130133   4.301   3.855   7.553  0.4305 -1.8846  0.5133
 2858TIP3    H230134   4.311   3.951   7.670  2.2788 -0.3728 -0.8176
 2859TIP3   OH230135   0.793   5.357   6.440 -0.2626  0.1659  0.3541
 2859TIP3    H130136   0.781   5.289   6.374  1.3815 -0.9660  1.1674
 2859TIP3    H230137   0.857   5.417   6.401 -0.8768  0.6715  0.0948
 2860TIP3   OH230138   4.103   6.518   0.394  0.5625  0.2863 -0.0840
 2860TIP3    H130139   4.113   6.579   0.468  1.1722  0.2370 -0.1214
 2860TIP3    H230140   4.013   6.486   0.402  0.7490 -0.0241  0.8738
 2861TIP3   OH230141   1.494   4.575   0.352  0.3574 -0.6309  0.6564
 2861TIP3    H130142   1.521   4.488   0.323  1.7935  0.2303 -0.7531
 2861TIP3    H230143   1.566   4.605   0.408 -0.9178 -0.9831  2.5817
 2862TIP3   OH230144   2.921   3.269   8.388  0.0808 -0.0853  0.3405
 2862TIP3    H130145   2.880   3.346   8.428 -1.1848 -0.6905  0.2367
 2862TIP3    H230146   3.010   3.298   8.367  0.3991  0.6273  2.4554
 2863TIP3   OH230147   6.141   2.614   1.001  0.4816  0.1255 -0.2363
 2863TIP3    H130148   6.116   2.534   1.048 -0.3592  0.4502 -0.1049
 2863TIP3    H230149   6.078   2.619   0.929  1.4244 -0.0799 -1.0950
 2864TIP3   OH230150   5.693   4.707   0.116  0.3302  0.0497  0.0368
 2864TIP3    H130151   5.776   4.699   0.165  0.6729  0.8242 -0.3998
 2864TIP3    H230152   5.720   4.729   0.027 -0.3113 -0.9735 -0.4312
 2865TIP3   OH230153   3.900   5.392   7.262  0.0341 -0.2362  0.0844
 2865TIP3    H130154   3.895   5.377   7.167  1.4578 -0.7207  0.0730
 2865TIP3    H230155   3.974   5.451   7.274 -1.1755  1.1927  0.7714
 2866TIP3   OH230156   5.966   3.946   6.737  0.0776 -0.1882 -0.6086
 2866TIP3    H130157   5.987   3.858   6.706  0.5524 -0.3307  0.1009
 2866TIP3    H230158   5.877   3.962   6.705  0.1995 -0.7034 -1.2152
 2867TIP3   OH230159   1.811   4.972   0.393 -0.3041 -0.1515 -0.3937
 2867TIP3    H130160   1.839   4.995   0.305  1.5830 -0.5223  0.0797
 2867TIP3    H230161   1.891   4.975   0.446 -1.3101 -0.3958  1.2150
 2868TIP3   OH230162   4.799   4.121   0.863  0.7974 -0.2998 -0.1570
 2868TIP3    H130163   4.744   4.104   0.787  1.5391  0.4492 -0.8829
 2868TIP3    H230164   4.885   4.144   0.826  0.9231  0.9930  0.8437
 2869TIP3   OH230165   2.819   6.171   1.167 -0.2966 -0.0108  0.8235
 2869TIP3    H130166   2.796   6.263   1.164 -0.4564  0.1334  3.7696
 2869TIP3    H230167   2.788   6.141   1.252  1.8283 -2.2179  0.9230
 2870TIP3   OH230168   3.829   0.597   1.918  0.1955  0.7023  0.3948
 2870TIP3    H130169   3.793   0.674   1.873 -1.8648 -0.0081  0.7550
 2870TIP3    H230170   3.828   0.621   2.011  0.0017  0.4220  0.4657
 2871TIP3   OH230171   1.705   3.189   0.045  0.3288 -0.8632 -0.2655
 2871TIP3    H130172   1.774   3.189   0.111 -0.3296  0.2248  0.4545
 2871TIP3    H230173   1.716   3.272  -0.001  0.0365 -1.0703 -0.7175
 2872TIP3   OH230174   5.464   1.922   2.185  0.0402  0.1173  0.0033
 2872TIP3    H130175   5.452   1.934   2.280  1.7003  1.2917  0.1197
 2872TIP3    H230176   5.439   1.831   2.169 -1.3538  0.2168  1.3532
 2873TIP3   OH230177   3.223   6.649   6.695  0.3635  0.2818 -0.5127
 2873TIP3    H130178   3.166   6.697   6.636 -1.2386 -0.9490 -0.0283
 2873TIP3    H230179   3.164   6.600   6.752  1.8455  0.8818  1.6816
 2874TIP3   OH230180   2.881   4.693   1.651 -0.2731 -0.0512 -0.2003
 2874TIP3    H130181   2.922   4.728   1.730  0.6554  0.2383 -0.7898
 2874TIP3    H230182   2.931   4.732   1.579  0.3083 -1.9633 -0.8985
 2875TIP3   OH230183   1.119   6.886   8.431  0.4635  0.2356 -0.4611
 2875TIP3    H130184   1.121   6.867   8.337  1.0460 -0.2320 -0.3623
 2875TIP3    H230185   1.044   6.944   8.442 -0.4682 -0.8005 -1.0169
 2876TIP3   OH230186   5.554   4.459   0.679  0.3537 -0.4281 -0.1027
 2876TIP3    H130187   5.565   4.421   0.767 -0.2834  0.3715  0.3396
 2876TIP3    H230188   5.643   4.466   0.645  0.6145 -0.7391  0.4887
 2877TIP3   OH230189   3.162   6.055   2.312  0.2404  0.2247  0.0572
 2877TIP3    H130190   3.156   6.147   2.339  0.6897  0.3046 -0.1052
 2877TIP3    H230191   3.072   6.030   2.294 -0.1105  0.1116  1.7997
 2878TIP3   OH230192   6.488   4.153   1.969 -0.2910 -0.1686 -0.7412
 2878TIP3    H130193   6.412   4.144   2.026 -0.0462 -0.5214 -0.4687
 2878TIP3    H230194   6.453   4.195   1.890 -0.5037  0.9809 -0.0720
 2879TIP3   OH230195   4.208   4.086   7.404 -0.0216  0.3411 -0.0289
 2879TIP3    H130196   4.234   4.025   7.334  0.0549  0.5509 -0.1850
 2879TIP3    H230197   4.134   4.043   7.446  0.0508  0.1244 -0.1182
 2880TIP3   OH230198   6.194   0.772   1.776 -0.3809  0.4213  0.9334
 2880TIP3    H130199   6.268   0.711   1.770 -0.1305  0.5954  2.0473
 2880TIP3    H230200   6.209   0.819   1.858 -0.5136  2.0739  0.0435
 2881TIP3   OH230201   3.281   2.445   6.849  0.2323 -0.3255 -0.6588
 2881TIP3    H130202   3.352   2.434   6.786  1.9851  0.6552  1.0036
 2881TIP3    H230203   3.326   2.472   6.930 -2.0179 -0.1334  0.5981
 2882TIP3   OH230204   4.351   4.097   2.163 -0.0129 -0.4772 -0.1306
 2882TIP3    H130205   4.269   4.133   2.196  1.3712  2.4961  0.3621
 2882TIP3    H230206   4.404   4.080   2.241 -0.0500 -2.2920 -0.4430
 2883TIP3   OH230207   3.076   4.677   1.050  0.0408 -0.3431 -0.0213
 2883TIP3    H130208   3.088   4.719   0.965 -1.8278  1.2291  0.4132
 2883TIP3    H230209   3.012   4.608   1.035 -0.8553  0.4146  0.2003
 2884TIP3   OH230210   5.578   3.749   6.569 -0.1745  0.0583 -0.2449
 2884TIP3    H130211   5.487   3.778   6.568 -0.5363 -1.0178 -0.2910
 2884TIP3    H230212   5.627   3.824   6.602 -1.2764  0.1202  1.3888
 2885TIP3   OH230213   6.229   0.715   0.227 -0.5353 -0.5504 -1.0540
 2885TIP3    H130214   6.309   0.681   0.185 -0.9710 -0.8878 -1.6238
 2885TIP3    H230215   6.257   0.738   0.315  0.0434 -1.3093 -1.0232
 2886TIP3   OH230216   2.638   0.002   6.530  0.1587 -0.1068  0.5082
 2886TIP3    H130217   2.705   0.025   6.595 -0.5092  0.8143  0.8855
 2886TIP3    H230218   2.643   0.073   6.465 -0.1876 -0.2435  0.3338
 2887TIP3   OH230219   1.685   3.932   8.264 -0.6726 -0.4223 -0.0543
 2887TIP3    H130220   1.670   3.838   8.258 -0.4967 -0.4857  0.4162
 2887TIP3    H230221   1.760   3.949   8.208 -2.0283 -0.2045 -1.9067
 2888TIP3   OH230222   0.964   0.773   1.510  0.4370  0.1270 -0.2743
 2888TIP3    H130223   0.952   0.822   1.592 -1.6582 -0.5758 -0.1071
 2888TIP3    H230224   0.881   0.783   1.464  1.1251 -0.5955 -1.7224
 2889TIP3   OH230225   6.421   5.460   0.142  0.0452 -0.2958  0.3240
 2889TIP3    H130226   6.476   5.450   0.064  1.1606 -0.5764  1.1187
 2889TIP3    H230227   6.368   5.380   0.143 -0.2721 -0.1021 -0.3615
 2890TIP3   OH230228   5.714   6.848   8.063 -0.1300 -0.3040 -0.0017
 2890TIP3    H130229   5.689   6.788   8.133  0.0066 -0.5371 -0.1525
 2890TIP3    H230230   5.805   6.826   8.044 -0.2265 -0.3752 -0.3907
 2891TIP3   OH230231   1.164   0.257   7.384  0.0045  0.0318 -0.0411
 2891TIP3    H130232   1.130   0.168   7.389 -0.7872  0.4048  2.4465
 2891TIP3    H230233   1.107   0.301   7.322  0.0251 -1.0148 -0.8277
 2892TIP3   OH230234   5.539   2.082   1.051 -0.3493 -0.7481  0.1980
 2892TIP3    H130235   5.600   2.019   1.014 -2.6186 -1.2874 -2.9868
 2892TIP3    H230236   5.492   2.034   1.119  0.8988 -1.0929  0.8430
 2893TIP3   OH230237   2.166   1.838   8.175 -0.1056  0.1085  0.1152
 2893TIP3    H130238   2.083   1.885   8.180  0.3010  1.1332 -1.6162
 2893TIP3    H230239   2.232   1.907   8.165  0.7252 -0.7430 -0.5781
 2894TIP3   OH230240   5.626   5.659   0.362  0.3940 -0.0097 -0.1100
 2894TIP3    H130241   5.717   5.633   0.379  0.9503  1.7297 -0.2671
 2894TIP3    H230242   5.602   5.712   0.438 -0.2964  0.0268 -0.3481
 2895TIP3   OH230243   4.740   0.619   0.521 -0.2012  0.2907 -0.3768
 2895TIP3    H130244   4.805   0.689   0.512 -0.5561  0.5135 -1.2749
 2895TIP3    H230245   4.658   0.658   0.491 -0.4152 -0.4927 -0.8372
 2896TIP3   OH230246   5.810   3.325   1.977  0.0047 -0.3267  0.0320
 2896TIP3    H130247   5.828   3.417   1.962 -1.1394 -0.6058 -4.2867
 2896TIP3    H230248   5.721   3.323   2.012  0.3841  0.1573  1.0881
 2897TIP3   OH230249   0.453   1.094   6.593  0.1704  0.4385 -0.2827
 2897TIP3    H130250   0.540   1.096   6.632  0.5791 -0.4827 -1.1070
 2897TIP3    H230251   0.457   1.159   6.522  0.5311 -0.3325 -0.9850
 2898TIP3   OH230252   3.906   6.683   1.905  0.8088  0.0314 -0.1946
 2898TIP3    H130253   3.858   6.627   1.844  0.6165  1.1403 -1.0941
 2898TIP3    H230254   3.869   6.770   1.892  2.5184  0.7705 -0.3335
 2899TIP3   OH230255   2.610   4.588   1.898  0.5367  0.1139 -0.1977
 2899TIP3    H130256   2.583   4.579   1.806 -0.8265  1.3890  0.0398
 2899TIP3    H230257   2.652   4.674   1.902  0.2469  0.2283  0.4404
 2900TIP3   OH230258   3.325   3.189   1.710 -0.0533  0.6161 -0.4219
 2900TIP3    H130259   3.323   3.285   1.707 -0.2695  0.5902 -1.2302
 2900TIP3    H230260   3.408   3.165   1.669  0.3725  0.4702  0.4923
 2901TIP3   OH230261   0.598   2.073   7.779  0.2983 -0.2974 -0.6149
 2901TIP3    H130262   0.584   2.114   7.864 -0.2380 -2.0050  0.1797
 2901TIP3    H230263   0.523   2.101   7.726 -2.3093 -3.2438  1.1671
 2902TIP3   OH230264   1.731   1.892   0.520  0.2127  0.4194  0.0591
 2902TIP3    H130265   1.696   1.907   0.433 -0.3520  0.5450  0.3073
 2902TIP3    H230266   1.821   1.864   0.505 -0.1279 -0.3338 -0.5961
 2903TIP3   OH230267   3.911   5.575   1.455  0.5974  0.4047  0.6945
 2903TIP3    H130268   3.951   5.489   1.441  0.6354  0.2610  1.5882
 2903TIP3    H230269   3.826   5.570   1.411 -0.2252 -0.7753  2.2949
 2904TIP3   OH230270   2.431   3.164   0.855 -0.5012 -0.0840  0.2868
 2904TIP3    H130271   2.363   3.183   0.920  0.4174  1.8345  0.7563
 2904TIP3    H230272   2.512   3.163   0.905  0.2679  1.8098 -0.8221
 2905TIP3   OH230273   1.160   4.524   1.300  0.0037  0.3447 -0.1561
 2905TIP3    H130274   1.146   4.525   1.394  0.2944 -0.2435 -0.1003
 2905TIP3    H230275   1.087   4.573   1.264 -1.0562 -0.8719  0.2703
 2906TIP3   OH230276   4.154   4.891   1.004  0.1481  0.2973  0.1250
 2906TIP3    H130277   4.164   4.913   1.097 -0.9290 -0.0043  0.3280
 2906TIP3    H230278   4.201   4.808   0.995  1.0793  0.8057  0.1727
 2907TIP3   OH230279   4.589   5.695   0.335  0.1301  0.2303 -0.0038
 2907TIP3    H130280   4.536   5.744   0.273  0.5904  0.0171 -0.5769
 2907TIP3    H230281   4.541   5.701   0.418 -1.6809 -1.3513 -0.8497
 2908TIP3   OH230282   2.897   5.762   0.650  0.2058 -0.0888  0.2478
 2908TIP3    H130283   2.811   5.725   0.669  0.3418  0.3844  1.9343
 2908TIP3    H230284   2.894   5.851   0.686  1.0938  0.2670 -0.5157
 2909TIP3   OH230285   2.953   1.884   0.034 -0.4131 -0.2951 -0.1151
 2909TIP3    H130286   2.943   1.879  -0.061 -0.8956 -0.8409 -0.0377
 2909TIP3    H230287   2.900   1.812   0.068  0.9435 -1.0517  0.4960
 2910TIP3   OH230288   5.966   1.880   6.777 -0.0902 -0.0315  0.5627
 2910TIP3    H130289   6.017   1.919   6.706 -0.6724  0.0839  0.2014
 2910TIP3    H230290   5.992   1.788   6.777  0.3982  0.1067  0.6308
 2911TIP3   OH230291   2.929   4.604   0.532  0.0734 -0.7779 -0.4347
 2911TIP3    H130292   2.993   4.538   0.505 -0.8836 -1.8150 -0.2181
 2911TIP3    H230293   2.845   4.558   0.532 -0.7106  0.6155 -0.8913
 2912TIP3   OH230294   6.414   6.222   0.300 -0.7472 -0.1777 -0.5334
 2912TIP3    H130295   6.390   6.284   0.231  1.0702  2.4938  1.0441
 2912TIP3    H230296   6.364   6.252   0.377 -0.8977 -1.5768 -0.0665
 2913TIP3   OH230297   0.279   2.130   7.187  0.1973  0.1223 -0.1845
 2913TIP3    H130298   0.372   2.155   7.186  0.6140 -1.2511  0.7439
 2913TIP3    H230299   0.280   2.034   7.187 -1.2782  0.0618 -1.7344
 2914TIP3   OH230300   4.471   5.864   1.944 -0.3155 -0.1794 -0.1200
 2914TIP3    H130301   4.525   5.928   1.992 -1.6602  1.4243 -0.6493
 2914TIP3    H230302   4.394   5.852   1.999 -0.3344 -0.9354 -0.3051
 2915TIP3   OH230303   6.413   5.139   8.167 -0.1653 -0.5347  0.1679
 2915TIP3    H130304   6.388   5.208   8.104  1.5822 -0.1989 -0.2050
 2915TIP3    H230305   6.435   5.187   8.247  0.4222 -0.7148  0.1150
 2916TIP3   OH230306   0.730   5.548   0.567  0.4164  0.4008  0.0626
 2916TIP3    H130307   0.790   5.571   0.496  0.1354  0.8880 -0.0205
 2916TIP3    H230308   0.731   5.452   0.569  0.6458  0.3917 -0.4103
 2917TIP3   OH230309   5.882   5.012   0.909 -0.0173  0.3088 -0.1130
 2917TIP3    H130310   5.833   5.055   0.979 -0.5185 -0.3088 -0.0740
 2917TIP3    H230311   5.962   5.064   0.899  0.1216  0.3151  1.0026
 2918TIP3   OH230312   1.753   3.018   1.710 -0.0184  0.2474  0.5423
 2918TIP3    H130313   1.826   2.956   1.707  0.7336  1.1661 -1.3402
 2918TIP3    H230314   1.788   3.094   1.758 -1.2365 -1.0335  3.7140
 2919TIP3   OH230315   2.710   2.308   8.176 -0.1578 -0.3262  0.2322
 2919TIP3    H130316   2.712   2.399   8.206  0.1056 -0.3961  0.4305
 2919TIP3    H230317   2.702   2.314   8.081 -1.0627 -0.1026  0.3157
 2920TIP3   OH230318   0.786   1.277   8.122 -0.5434 -0.1490 -0.2126
 2920TIP3    H130319   0.704   1.268   8.073 -0.8753 -2.3109  0.6462
 2920TIP3    H230320   0.819   1.187   8.130  1.5703  0.5998  0.0631
 2921TIP3   OH230321   4.139   6.892   7.644 -0.0943  0.3650  0.0178
 2921TIP3    H130322   4.110   6.974   7.603 -2.0939  0.1951  0.9656
 2921TIP3    H230323   4.135   6.910   7.738  0.1960 -0.5871  0.2209
 2922TIP3   OH230324   2.407   5.277   8.380 -0.5504 -0.2683  0.0112
 2922TIP3    H130325   2.493   5.235   8.380  0.0662  0.9335 -0.0399
 2922TIP3    H230326   2.346   5.208   8.357  0.6188 -0.7363 -1.9072
 2923TIP3   OH230327   2.228   1.219   0.504 -0.2130 -0.1748 -0.0380
 2923TIP3    H130328   2.268   1.144   0.549  0.2055 -1.6743 -2.7377
 2923TIP3    H230329   2.292   1.289   0.512 -0.7937  0.1570  2.9109
 2924TIP3   OH230330   0.474   5.082   8.416  0.3255 -0.1267 -0.2468
 2924TIP3    H130331   0.543   5.128   8.369  0.2338  1.0234  0.6872
 2924TIP3    H230332   0.477   5.118   8.505 -1.9877  0.5613 -0.3680
 2925TIP3   OH230333   5.135   6.306   1.711 -0.0447  0.2767 -0.2351
 2925TIP3    H130334   5.066   6.348   1.660 -1.4021 -0.7772  0.6358
 2925TIP3    H230335   5.135   6.353   1.794  0.8150  0.7350 -0.4805
 2926TIP3   OH230336   4.777   0.969   7.272  0.2338 -0.4718 -0.2472
 2926TIP3    H130337   4.756   0.885   7.313  0.2400  0.7177  2.4131
 2926TIP3    H230338   4.734   0.966   7.187 -2.1579 -2.0923  0.9068
 2927TIP3   OH230339   5.406   3.985   0.658  0.1070  0.3322 -0.0212
 2927TIP3    H130340   5.429   3.936   0.580 -0.0527  0.1651  0.0369
 2927TIP3    H230341   5.327   3.942   0.691  0.0172  0.5707  0.0771
 2928TIP3   OH230342   6.445   3.979   6.711  0.4744  0.0444 -0.4194
 2928TIP3    H130343   6.521   3.968   6.654  0.6177  0.6072 -0.3445
 2928TIP3    H230344   6.390   3.903   6.693  1.4512 -0.8257  0.1444
 2929TIP3   OH230345   2.940   2.290   6.665  0.0078 -0.2395  0.0931
 2929TIP3    H130346   2.938   2.198   6.691 -0.5644  0.3051  2.1355
 2929TIP3    H230347   2.894   2.336   6.735  1.5443  1.7776 -0.1319
 2930TIP3   OH230348   4.431   3.347   0.777  0.3731 -0.0120 -0.0864
 2930TIP3    H130349   4.423   3.387   0.690  2.0605 -1.3381 -0.9224
 2930TIP3    H230350   4.502   3.283   0.767  0.4721 -0.3397  2.2346
 2931TIP3   OH230351   3.113   5.870   7.695  0.3947 -0.2150  0.6272
 2931TIP3    H130352   3.066   5.791   7.721 -2.0655  0.7491 -0.5632
 2931TIP3    H230353   3.084   5.887   7.605  1.9832  1.2609  0.3269
 2932TIP3   OH230354   6.043   0.262   8.424 -0.1864 -0.2462 -0.0088
 2932TIP3    H130355   6.066   0.272   8.332  0.2148 -1.1713 -0.0315
 2932TIP3    H230356   6.109   0.314   8.471 -0.6346  0.5516 -0.2516
 2933TIP3   OH230357   4.451   2.641   0.812 -0.0338  0.1007 -0.2137
 2933TIP3    H130358   4.521   2.591   0.853  0.9238  0.1416 -1.7236
 2933TIP3    H230359   4.374   2.584   0.817 -0.0580  0.2220  1.8344
 2934TIP3   OH230360   4.273   0.115   6.497 -0.5992  0.2354 -0.6830
 2934TIP3    H130361   4.187   0.147   6.525 -1.8246 -4.1482  1.5576
 2934TIP3    H230362   4.253   0.053   6.426  0.6475 -0.8644 -0.1163
 2935TIP3   OH230363   4.306   3.520   2.306 -0.0121 -0.2234 -0.2732
 2935TIP3    H130364   4.260   3.591   2.351 -0.0256  0.6203 -1.5664
 2935TIP3    H230365   4.398   3.547   2.307  0.1754 -0.8654  0.4257
 2936TIP3   OH230366   3.763   4.156   1.497 -0.2093 -0.6487 -0.3090
 2936TIP3    H130367   3.699   4.209   1.448  0.3374  0.8539  0.5170
 2936TIP3    H230368   3.848   4.188   1.466  0.1535  0.5604  1.7610
 2937TIP3   OH230369   5.816   3.589   1.963  0.1203  0.1705 -0.3895
 2937TIP3    H130370   5.782   3.604   1.875 -2.8815 -1.1356  0.4295
 2937TIP3    H230371   5.774   3.657   2.016  0.2652 -0.3294  0.3747
 2938TIP3   OH230372   2.345   2.117   1.553  0.0252 -0.1745  0.1788
 2938TIP3    H130373   2.353   2.136   1.647  2.6425  1.6284 -0.2948
 2938TIP3    H230374   2.313   2.198   1.515  0.4140 -0.3947 -0.6327
 2939TIP3   OH230375   6.800   2.849   1.676 -0.3780  0.0135  0.4161
 2939TIP3    H130376   6.828   2.808   1.758  1.5925 -0.4560 -0.4229
 2939TIP3    H230377   6.840   2.936   1.679 -2.6429  1.0949  1.1597
 2940TIP3   OH230378   5.403   3.691   1.814  0.7717 -0.4609  0.7805
 2940TIP3    H130379   5.453   3.612   1.792 -0.7770 -1.7837  1.8464
 2940TIP3    H230380   5.360   3.671   1.897 -2.0400  0.3686 -0.3576
 2941TIP3   OH230381   4.537   4.839   6.452 -0.9077 -0.3503  0.1908
 2941TIP3    H130382   4.462   4.843   6.511  0.1827 -0.3139  1.6577
 2941TIP3    H230383   4.612   4.860   6.509  0.2400 -0.7197 -1.1410
 2942TIP3   OH230384   2.691   3.633   7.480  0.0688 -0.4657 -0.0214
 2942TIP3    H130385   2.637   3.679   7.416  0.3619 -0.0164  0.0466
 2942TIP3    H230386   2.703   3.697   7.551 -0.2617 -0.9563  0.4869
 2943TIP3   OH230387   6.146   5.644   0.144  0.2538 -0.3202  0.1137
 2943TIP3    H130388   6.210   5.594   0.195  1.8237  1.4227 -0.0158
 2943TIP3    H230389   6.111   5.581   0.081  2.2967 -1.2403 -0.1987
 2944TIP3   OH230390   4.984   6.347   1.352 -0.2993 -0.0140  0.3930
 2944TIP3    H130391   5.040   6.419   1.382  1.1297 -0.2692 -1.5024
 2944TIP3    H230392   4.931   6.385   1.282  0.2125 -0.6988 -0.3809
 2945TIP3   OH230393   4.474   2.128   7.498 -0.2727 -0.4820 -0.3673
 2945TIP3    H130394   4.423   2.205   7.474 -0.2704  0.2237  1.6976
 2945TIP3    H230395   4.562   2.146   7.465 -0.1961  0.5563  0.3584
 2946TIP3   OH230396   0.040   6.184   0.287  0.1261 -0.3009 -0.0719
 2946TIP3    H130397   0.064   6.249   0.221  2.0861  0.3859  1.2526
 2946TIP3    H230398  -0.051   6.206   0.309  0.1865  0.8989 -0.8886
 2947TIP3   OH230399   2.169   2.324   7.651  0.1461 -0.3729  0.6924
 2947TIP3    H130400   2.074   2.320   7.643  0.1930 -1.1167  0.4393
 2947TIP3    H230401   2.200   2.246   7.604  0.9605  0.6850 -0.5852
 2948TIP3   OH230402   5.368   6.535   0.050 -0.1294  0.0150  0.1295
 2948TIP3    H130403   5.331   6.448   0.064 -0.2078  0.2323  1.4266
 2948TIP3    H230404   5.308   6.594   0.095  0.8100  0.5550  0.7199
 2949TIP3   OH230405   4.466   3.489   8.009  0.2963  0.4150 -0.2963
 2949TIP3    H130406   4.375   3.518   8.003  0.7698  1.7784 -1.5760
 2949TIP3    H230407   4.508   3.525   7.931  1.1302 -3.4367 -1.8306
 2950TIP3   OH230408   0.833   3.845   1.964 -0.6478 -0.6340 -0.3926
 2950TIP3    H130409   0.869   3.928   1.996 -3.2585  0.9935 -1.2932
 2950TIP3    H230410   0.834   3.787   2.040 -0.8253  0.9803  0.8966
 2951TIP3   OH230411   5.871   2.937   6.955 -1.0642 -0.7266 -0.0042
 2951TIP3    H130412   5.890   2.927   6.862  2.1973 -0.0225  0.4554
 2951TIP3    H230413   5.862   2.847   6.987 -2.3931 -0.9759 -0.9729
 2952TIP3   OH230414   3.459   6.864   6.913 -0.2087 -0.4179  0.5931
 2952TIP3    H130415   3.433   6.817   6.833  1.1440  0.8463 -0.6625
 2952TIP3    H230416   3.387   6.925   6.930  0.5060  0.9918 -1.1174
 2953TIP3   OH230417   5.576   3.370   0.227  0.0074 -0.0283  0.0951
 2953TIP3    H130418   5.482   3.371   0.210  0.2469 -1.0763 -1.4935
 2953TIP3    H230419   5.595   3.280   0.253  0.8060 -0.2910 -1.2896
 2954TIP3   OH230420   2.087   1.587   7.759 -0.7482  0.1114  0.4819
 2954TIP3    H130421   2.063   1.570   7.850 -0.6655  1.4639  0.7737
 2954TIP3    H230422   2.093   1.682   7.753  1.0904 -0.0143 -0.4644
 2955TIP3   OH230423   1.653   2.474   1.380 -0.2221 -0.3295  0.2296
 2955TIP3    H130424   1.629   2.541   1.315 -0.1184 -0.0908  0.4373
 2955TIP3    H230425   1.613   2.505   1.462  0.8705  0.1299  0.6058
 2956TIP3   OH230426   4.312   1.411   1.677  0.0442 -0.3755 -0.6848
 2956TIP3    H130427   4.339   1.400   1.586 -0.8203  4.3690 -1.8083
 2956TIP3    H230428   4.387   1.452   1.720 -0.3619 -0.4268  0.0863
 2957TIP3   OH230429   0.877   3.641   7.830 -0.4572  0.6729 -0.6520
 2957TIP3    H130430   0.892   3.621   7.738  0.0442  1.4094 -0.7417
 2957TIP3    H230431   0.965   3.651   7.868 -0.5820 -1.4435  0.3537
 2958TIP3   OH230432   0.674   1.208   7.116 -0.6991 -0.2604  0.1894
 2958TIP3    H130433   0.687   1.220   7.022 -2.2045  0.1209 -0.0035
 2958TIP3    H230434   0.636   1.291   7.145 -0.4460 -0.4554  1.0866
 2959TIP3   OH230435   2.125   0.508   8.180  0.3637 -0.3621  0.3870
 2959TIP3    H130436   2.059   0.482   8.116  1.8522 -0.6449 -1.0866
 2959TIP3    H230437   2.122   0.604   8.179  2.7701 -0.1812 -2.8502
 2960TIP3   OH230438   3.314   0.005   0.635  0.0897  0.5464  0.2759
 2960TIP3    H130439   3.408  -0.002   0.650  0.0556  1.2169  0.8350
 2960TIP3    H230440   3.290   0.090   0.670 -1.0582 -0.3892  1.9434
 2961TIP3   OH230441   4.251   3.431   6.059  0.6866  0.5697 -0.0179
 2961TIP3    H130442   4.240   3.354   6.115 -0.6773 -1.4713 -2.8024
 2961TIP3    H230443   4.166   3.474   6.059  1.2904  1.8103  1.0900
 2962TIP3   OH230444   4.066   4.184   7.131  0.0363  0.4624  0.2761
 2962TIP3    H130445   4.073   4.274   7.099 -0.6777  0.2194 -0.5876
 2962TIP3    H230446   4.009   4.190   7.208 -1.1677  0.5860 -0.5893
 2963TIP3   OH230447   2.238   4.150   7.785 -0.6622 -0.6143  0.3696
 2963TIP3    H130448   2.223   4.121   7.695  1.2592 -1.1296  0.1677
 2963TIP3    H230449   2.151   4.147   7.826 -1.5882 -0.3205 -1.4580
 2964TIP3   OH230450   1.221   6.835   0.947  0.2327  0.6475 -0.0903
 2964TIP3    H130451   1.283   6.854   0.876  2.2523 -1.1183  1.0712
 2964TIP3    H230452   1.161   6.771   0.909  1.8748 -1.0144 -0.0156
 2965TIP3   OH230453   1.405   3.951   0.654 -0.1544 -0.0897  0.3856
 2965TIP3    H130454   1.310   3.943   0.654 -0.2963  1.0810 -1.3775
 2965TIP3    H230455   1.427   3.978   0.743 -1.2508 -2.1204  1.3452
 2966TIP3   OH230456   3.255   1.619   0.796 -0.4730 -0.2126 -0.2570
 2966TIP3    H130457   3.266   1.688   0.730 -1.2721 -0.2728 -0.4679
 2966TIP3    H230458   3.215   1.664   0.871  2.0566  0.2454  0.9357
 2967TIP3   OH230459   4.817   5.857   1.091  0.4764 -0.1797 -0.1782
 2967TIP3    H130460   4.757   5.791   1.127  2.6537 -1.4991  1.2811
 2967TIP3    H230461   4.854   5.816   1.013  0.1729  0.2511 -0.5504
 2968TIP3   OH230462   2.696   6.532   7.158 -0.0789  0.1763 -1.0377
 2968TIP3    H130463   2.616   6.512   7.207  1.1981 -0.7417  0.7631
 2968TIP3    H230464   2.700   6.463   7.091 -1.4930  1.0486 -2.0680
 2969TIP3   OH230465   2.961   1.709   7.967 -0.1883 -0.2840  0.2397
 2969TIP3    H130466   2.909   1.628   7.969 -1.4100  0.4350 -0.7087
 2969TIP3    H230467   3.051   1.680   7.950 -0.7344 -1.4083 -0.9132
 2970TIP3   OH230468   1.345   5.390   0.711  0.0675  0.0138  0.0068
 2970TIP3    H130469   1.281   5.326   0.741 -1.7292  1.4815 -0.4995
 2970TIP3    H230470   1.411   5.339   0.665 -1.0303 -1.5114  0.0682
 2971TIP3   OH230471   3.675   1.638   1.570 -0.2646 -0.0886 -0.3448
 2971TIP3    H130472   3.639   1.614   1.485  0.1833 -1.6109 -0.1305
 2971TIP3    H230473   3.607   1.616   1.633 -0.8635  1.6647 -0.3298
 2972TIP3   OH230474   0.890   4.328   1.299  0.7230 -0.0413  0.2548
 2972TIP3    H130475   0.821   4.395   1.296 -0.3417 -1.1562 -1.5515
 2972TIP3    H230476   0.892   4.302   1.391 -0.6993  0.6036  0.5125
 2973TIP3   OH230477   3.748   5.895   7.350  0.4085 -0.2525  0.3602
 2973TIP3    H130478   3.773   5.976   7.395  0.4795 -0.0054 -0.1100
 2973TIP3    H230479   3.820   5.880   7.287  0.5670 -0.8673  0.6781
 2974TIP3   OH230480   6.453   3.516   2.202 -0.0890  0.2534 -0.2395
 2974TIP3    H130481   6.407   3.443   2.243  2.6099 -0.1911  2.2152
 2974TIP3    H230482   6.403   3.593   2.228 -2.0524 -0.4794 -1.5605
 2975TIP3   OH230483   4.455   3.579   5.965  0.4307  0.2270  0.1489
 2975TIP3    H130484   4.381   3.540   6.012  0.0897  2.2258  1.3608
 2975TIP3    H230485   4.464   3.525   5.886 -1.2060 -1.1062  0.8225
 2976TIP3   OH230486   4.938   4.013   1.533  0.0905 -0.0209 -0.0444
 2976TIP3    H130487   4.926   3.937   1.591 -0.0293  0.4436  0.5525
 2976TIP3    H230488   4.935   4.088   1.592 -1.2413  0.5501 -0.7892
 2977TIP3   OH230489   5.477   6.091   6.672 -0.0732 -0.0680  0.0474
 2977TIP3    H130490   5.541   6.136   6.616  0.9409  0.7252  1.7666
 2977TIP3    H230491   5.464   6.006   6.630  1.2535  0.1851 -0.9390
 2978TIP3   OH230492   5.795   4.521   6.948 -0.0276 -0.5027 -0.1849
 2978TIP3    H130493   5.764   4.582   6.882 -0.2421  0.0573  0.4173
 2978TIP3    H230494   5.890   4.518   6.937  0.4075  2.3281  1.7085
 2979TIP3   OH230495   2.622   4.691   0.480 -0.1751  0.2095 -0.1752
 2979TIP3    H130496   2.551   4.731   0.530 -0.7515 -0.7477 -0.2136
 2979TIP3    H230497   2.627   4.601   0.512  1.5632  0.4760  0.3869
 2980TIP3   OH230498   3.368   0.001   7.211  0.2132 -0.0473  0.2542
 2980TIP3    H130499   3.426   0.052   7.267 -0.8663  1.1459  0.3210
 2980TIP3    H230500   3.344   0.061   7.140  0.3279 -1.0438 -0.6508
 2981TIP3   OH230501   3.376   2.518   0.927 -0.1223 -0.2316 -0.1562
 2981TIP3    H130502   3.352   2.430   0.956  0.9103 -0.2125  0.8191
 2981TIP3    H230503   3.443   2.504   0.860 -1.1860 -0.2156 -1.2614
 2982TIP3   OH230504   6.343   2.682   7.938  0.0303  0.4097  0.1478
 2982TIP3    H130505   6.310   2.602   7.897  1.4877 -0.8386  1.2814
 2982TIP3    H230506   6.281   2.699   8.009 -0.0196  0.0145  0.2028
 2983TIP3   OH230507   6.029   2.864   1.116 -0.0441 -0.2180  0.1991
 2983TIP3    H130508   6.078   2.784   1.100 -1.6408 -1.0899 -0.6179
 2983TIP3    H230509   6.089   2.934   1.092  0.5661 -1.2555 -1.4859
 2984TIP3   OH230510   0.001   2.049   7.758  0.1126 -0.1835 -0.0078
 2984TIP3    H130511   0.061   2.084   7.825  1.9655 -1.8092 -0.7332
 2984TIP3    H230512  -0.051   1.984   7.805 -1.1488  1.2159  0.6205
 2985TIP3   OH230513   3.204   3.404   1.886 -0.0897 -0.1004  0.4002
 2985TIP3    H130514   3.134   3.446   1.936 -0.0127  2.6338 -1.5906
 2985TIP3    H230515   3.174   3.314   1.874 -1.3142 -0.1301  2.9903
 2986TIP3   OH230516   4.538   6.019   7.604 -0.6904  0.1198 -0.5323
 2986TIP3    H130517   4.601   6.066   7.549  1.4765 -1.1758  0.7156
 2986TIP3    H230518   4.507   6.085   7.667  0.3409  0.4841 -0.3956
 2987TIP3   OH230519   0.384   4.288   1.944  0.1324 -0.0907  0.2011
 2987TIP3    H130520   0.381   4.254   1.854 -0.4620 -1.0746  0.5747
 2987TIP3    H230521   0.292   4.297   1.969  0.2940  0.8888  0.4598
 2988TIP3   OH230522   2.086   0.003   0.660  0.7980  0.1496 -0.0265
 2988TIP3    H130523   2.136   0.049   0.592  2.1500 -0.6601  0.3679
 2988TIP3    H230524   2.143  -0.070   0.685 -0.3422 -0.4493  0.9037
 2989TIP3   OH230525   1.369   6.772   2.224  0.3444  0.1898 -0.1843
 2989TIP3    H130526   1.395   6.864   2.227  0.4313  0.2276 -1.6191
 2989TIP3    H230527   1.443   6.725   2.263 -0.0893  0.7611  1.4336
 2990TIP3   OH230528   1.944   0.755   6.385 -0.0119 -0.3608  0.5731
 2990TIP3    H130529   2.019   0.813   6.398 -0.8050  0.3663  2.3809
 2990TIP3    H230530   1.982   0.668   6.374  1.2707  0.5071 -3.3790
 2991TIP3   OH230531   1.889   1.660   1.123  0.5278 -0.0427  0.9798
 2991TIP3    H130532   1.874   1.604   1.046 -0.0826  1.8915 -0.4054
 2991TIP3    H230533   1.958   1.720   1.095 -0.2931  1.2366  1.6037
 2992TIP3   OH230534   5.604   6.807   1.099 -0.0539 -0.3112 -0.0405
 2992TIP3    H130535   5.515   6.820   1.131  0.1743  0.1102  0.4341
 2992TIP3    H230536   5.651   6.886   1.126  0.6802 -0.9131  0.4666
 2993TIP3   OH230537   4.697   6.584   7.084  0.1381  0.3012  0.4632
 2993TIP3    H130538   4.730   6.604   7.172 -2.7601 -0.7506  1.9357
 2993TIP3    H230539   4.613   6.540   7.100 -0.8548  0.7350 -2.8809
 2994TIP3   OH230540   3.004   1.255   0.526  0.5187  0.3062 -0.4202
 2994TIP3    H130541   3.076   1.310   0.555 -0.1209  0.8150  0.2434
 2994TIP3    H230542   3.039   1.166   0.528  0.8651  0.4579  0.7401
 2995TIP3   OH230543   1.361   1.361   6.905 -0.6229  0.3467  0.3272
 2995TIP3    H130544   1.456   1.369   6.915 -0.3478 -0.6749 -1.2066
 2995TIP3    H230545   1.343   1.268   6.919 -1.4083  0.5470  0.6789
 2996TIP3   OH230546   3.846   0.004   1.667 -0.4012 -0.0015 -0.0553
 2996TIP3    H130547   3.850   0.090   1.626 -1.1903  2.1998  3.9734
 2996TIP3    H230548   3.754  -0.006   1.694 -0.0558 -1.5287  0.6816
 2997TIP3   OH230549   4.517   6.777   0.767  0.3360 -0.2679  0.6989
 2997TIP3    H130550   4.516   6.821   0.853 -1.7258 -0.1478  0.6624
 2997TIP3    H230551   4.444   6.816   0.720 -0.6601 -2.7184  0.1124
 2998TIP3   OH230552   1.003   6.585   1.477  0.0454  0.0462  0.1232
 2998TIP3    H130553   1.038   6.496   1.484  1.6658  0.5753 -0.7014
 2998TIP3    H230554   1.006   6.604   1.383 -0.3888  0.9224  0.2796
 2999TIP3   OH230555   3.926   3.872   8.505 -0.6043 -0.5235 -0.0956
 2999TIP3    H130556   3.959   3.783   8.509  2.2299  0.3742 -0.9496
 2999TIP3    H230557   3.975   3.912   8.433 -1.3084  1.8943  0.6716
 3000TIP3   OH230558   6.180   5.848   6.693 -0.1777 -0.1180 -0.3778
 3000TIP3    H130559   6.209   5.825   6.782  1.9451 -0.6614 -1.1500
 3000TIP3    H230560   6.095   5.806   6.684  0.0881 -1.0244  1.0145
 3001TIP3   OH230561   5.462   3.995   1.666 -0.4357 -0.1703 -0.3226
 3001TIP3    H130562   5.383   3.953   1.632 -1.2496 -0.3838  1.6826
 3001TIP3    H230563   5.506   3.926   1.716 -0.6924  0.7350  1.2443
 3002TIP3   OH230564   5.227   5.892   0.296  0.0944 -0.0124  0.0665
 3002TIP3    H130565   5.202   5.809   0.337  1.5732 -0.3629  0.3016
 3002TIP3    H230566   5.160   5.954   0.325  0.1789 -0.6282  1.6570
 3003TIP3   OH230567   4.346   0.911   7.261 -0.2547 -0.5126 -0.2293
 3003TIP3    H130568   4.320   0.994   7.222 -1.9854 -2.1123 -2.8071
 3003TIP3    H230569   4.406   0.872   7.197  1.3237 -0.9032  1.3889
 3004TIP3   OH230570   3.590   4.755   7.421 -0.1181  0.2805  0.6570
 3004TIP3    H130571   3.683   4.743   7.438 -0.3227 -1.6066  0.6539
 3004TIP3    H230572   3.568   4.688   7.356 -1.1076  1.9164 -0.7707
 3005TIP3   OH230573   4.968   6.542   0.500 -0.2570 -0.2283  0.4838
 3005TIP3    H130574   4.982   6.450   0.521 -1.4552 -0.8173 -1.0921
 3005TIP3    H230575   4.891   6.567   0.551  0.4252  0.1086  1.3816
 3006TIP3   OH230576   5.449   3.948   8.516  0.4314  0.1884  0.5301
 3006TIP3    H130577   5.359   3.933   8.543 -0.1531  1.3677 -0.6697
 3006TIP3    H230578   5.476   3.865   8.474  0.2679 -0.5075  1.7587
 3007TIP3   OH230579   6.664   1.340   1.447  0.5900  0.4473 -0.0264
 3007TIP3    H130580   6.610   1.410   1.483  1.5205  1.6460 -0.8955
 3007TIP3    H230581   6.663   1.354   1.353  3.1140  1.0774 -0.0300
 3008TIP3   OH230582   5.387   0.609   0.990  0.1959  0.0539  0.1712
 3008TIP3    H130583   5.358   0.528   1.033 -1.0698 -0.1983 -1.0837
 3008TIP3    H230584   5.338   0.678   1.034  0.9078  0.1088  0.9086
 3009TIP3   OH230585   5.927   6.778   7.447 -0.2602  0.3596 -0.0574
 3009TIP3    H130586   5.976   6.855   7.477  1.2117 -1.4363  2.6013
 3009TIP3    H230587   5.839   6.792   7.480 -0.3235  1.3947 -0.6117
 3010TIP3   OH230588   0.783   6.874   1.028  0.4459 -0.1020  0.3586
 3010TIP3    H130589   0.793   6.968   1.040  0.6977 -0.0508 -0.2636
 3010TIP3    H230590   0.812   6.836   1.111  0.0029  0.3822  0.7440
 3011TIP3   OH230591   6.337   6.385   0.121  0.0763 -0.5523  0.0680
 3011TIP3    H130592   6.264   6.326   0.138 -0.1677 -0.8622 -1.8793
 3011TIP3    H230593   6.297   6.471   0.107 -0.0500 -0.8902 -1.8853
 3012TIP3   OH230594   6.813   2.567   1.336  0.9916  0.3515 -0.1079
 3012TIP3    H130595   6.870   2.512   1.282 -0.2580 -0.9111 -0.1852
 3012TIP3    H230596   6.797   2.644   1.281  0.1869 -0.6610 -1.3701
 3013TIP3   OH230597   3.802   5.887   8.391 -0.0963  0.1766 -0.5078
 3013TIP3    H130598   3.831   5.921   8.307  2.3356 -0.0478  0.1831
 3013TIP3    H230599   3.783   5.795   8.375  1.3399 -0.1168 -0.6257
 3014TIP3   OH230600   6.642   2.637   8.014  0.0858  0.2967  0.6862
 3014TIP3    H130601   6.719   2.686   7.987  0.6446 -0.4231  0.9607
 3014TIP3    H230602   6.573   2.668   7.955  1.0440 -0.5052 -0.9438
 3015TIP3   OH230603   1.688   1.229   7.497  0.2794 -0.0907  0.2765
 3015TIP3    H130604   1.671   1.321   7.481 -0.8063 -0.2670  0.3525
 3015TIP3    H230605   1.738   1.200   7.421  0.7100  0.5688  0.2974
 3016TIP3   OH230606   0.459   3.931   2.638 -0.0612  0.2311  0.4036
 3016TIP3    H130607   0.406   4.010   2.629 -0.7145 -0.2044  0.3822
 3016TIP3    H230608   0.396   3.860   2.646  0.4683 -0.5599 -1.6749
 3017TIP3   OH230609   6.805   1.929   8.338 -0.1472 -0.5773  0.0688
 3017TIP3    H130610   6.744   2.003   8.332  0.1435 -0.1483  1.9389
 3017TIP3    H230611   6.773   1.866   8.273 -2.0414  0.0339  0.3602
 3018TIP3   OH230612   1.805   0.708   0.573  0.6752 -0.3582  0.7571
 3018TIP3    H130613   1.783   0.705   0.480  1.7211 -0.6523  0.5013
 3018TIP3    H230614   1.730   0.750   0.614 -0.3177 -1.2507 -0.0600
 3019TIP3   OH230615   5.207   1.132   1.760 -0.1807 -0.1593  0.1219
 3019TIP3    H130616   5.301   1.133   1.779 -0.4705 -0.3701  1.6793
 3019TIP3    H230617   5.184   1.225   1.750  0.5216 -0.1684 -2.2563
 3020TIP3   OH230618   1.412   4.313   7.591  0.2691 -0.1646  0.2736
 3020TIP3    H130619   1.409   4.217   7.584  0.0496 -0.0945 -0.8349
 3020TIP3    H230620   1.361   4.343   7.516  1.6896  0.8480 -0.3193
 3021TIP3   OH230621   6.809   2.754   1.926  0.0085 -0.1093  0.2171
 3021TIP3    H130622   6.844   2.694   1.992  0.5856  0.9254  0.8892
 3021TIP3    H230623   6.806   2.839   1.971  0.2715  0.5847 -1.0377
 3022TIP3   OH230624   2.335   2.403   1.524 -0.1347 -0.0404 -0.1762
 3022TIP3    H130625   2.285   2.473   1.483 -0.7386  0.6132  1.5747
 3022TIP3    H230626   2.355   2.436   1.612  1.3152 -1.2601 -0.0083
 3023TIP3   OH230627   4.116   3.562   0.458  0.0833 -0.0426  0.2395
 3023TIP3    H130628   4.027   3.550   0.491 -0.2886  1.0792 -0.2951
 3023TIP3    H230629   4.130   3.656   0.459  0.7671 -0.1056 -0.9577
 3024TIP3   OH230630   1.523   5.194   0.295 -0.2037 -0.2727 -0.2171
 3024TIP3    H130631   1.471   5.271   0.271  2.0465  1.8035  1.0368
 3024TIP3    H230632   1.573   5.222   0.371  1.5611 -2.6428 -0.3919
 3025TIP3   OH230633   0.299   4.315   0.381 -0.1275  0.1563  0.1448
 3025TIP3    H130634   0.287   4.393   0.435 -2.4417 -0.4686  0.6542
 3025TIP3    H230635   0.394   4.302   0.378  0.2732  2.5201  0.6778
 3026TIP3   OH230636   6.381   2.870   0.039  0.3557  0.4244  0.2507
 3026TIP3    H130637   6.449   2.870   0.106  1.5401  1.6860 -0.8842
 3026TIP3    H230638   6.429   2.865  -0.044 -0.9938  0.2970 -0.5531
 3027TIP3   OH230639   0.770   2.328   2.645  0.8062 -0.2305 -0.6343
 3027TIP3    H130640   0.812   2.253   2.603  0.2779  0.1926 -1.9658
 3027TIP3    H230641   0.842   2.377   2.686  1.3726 -0.4886 -1.3108
 3028TIP3   OH230642   2.935   5.769   0.362 -0.0556 -0.0169  0.1802
 3028TIP3    H130643   2.926   5.771   0.457 -1.7419  1.3083  0.0364
 3028TIP3    H230644   2.861   5.717   0.331  0.0668  0.1599 -0.4309
 3029TIP3   OH230645   2.967   2.581   6.168 -0.3627 -0.0931  0.0403
 3029TIP3    H130646   2.970   2.602   6.074 -1.8604 -0.7474 -0.1797
 3029TIP3    H230647   2.877   2.552   6.183  0.4379 -2.2223  1.1962
 3030TIP3   OH230648   6.576   2.303   7.164 -0.5093  0.0990 -0.4033
 3030TIP3    H130649   6.533   2.266   7.087 -0.1846 -0.1260 -0.4814
 3030TIP3    H230650   6.660   2.335   7.131 -0.1790 -0.4011 -0.0587
 3031TIP3   OH230651   6.122   6.018   2.392 -0.1291 -0.4074 -0.1197
 3031TIP3    H130652   6.062   6.012   2.318  1.0856 -1.7115 -1.0393
 3031TIP3    H230653   6.116   6.110   2.419 -0.5560  0.1325 -1.8727
 3032TIP3   OH230654   1.037   3.115   6.399  0.0582 -0.2859  0.6406
 3032TIP3    H130655   1.076   3.060   6.467  1.4534 -1.1156 -0.7440
 3032TIP3    H230656   0.989   3.053   6.343 -1.3312  0.4210  1.0076
 3033TIP3   OH230657   0.903   1.312   1.647 -0.2676  0.6056  0.6445
 3033TIP3    H130658   0.981   1.275   1.605 -0.8004  1.4325 -1.1467
 3033TIP3    H230659   0.920   1.302   1.741  2.2551  1.2658  0.3301
 3034TIP3   OH230660   5.208   6.710   7.514 -0.3371  0.0940 -0.3067
 3034TIP3    H130661   5.288   6.670   7.478  0.0645 -2.0634  2.5955
 3034TIP3    H230662   5.137   6.666   7.468  0.0940  0.4966 -1.4081
 3035TIP3   OH230663   4.396   5.010   7.116 -0.0315  0.1336  0.2745
 3035TIP3    H130664   4.392   4.949   7.042  3.5774  1.3895 -1.2136
 3035TIP3    H230665   4.390   5.097   7.075 -2.7484  0.9388  2.0936
 3036TIP3   OH230666   0.817   2.804   8.319 -0.2745  0.1285  0.0683
 3036TIP3    H130667   0.910   2.790   8.305 -0.3125 -1.3748  0.9946
 3036TIP3    H230668   0.812   2.853   8.401 -0.2627  2.6389 -1.3429
 3037TIP3   OH230669   4.914   3.961   6.649  0.2546  0.0488 -0.0029
 3037TIP3    H130670   4.852   4.034   6.657  0.8646  0.6240 -0.3301
 3037TIP3    H230671   4.953   3.973   6.562 -0.4923 -1.3782 -0.5649
 3038TIP3   OH230672   3.529   3.756   8.196  0.2852 -0.2952 -0.2215
 3038TIP3    H130673   3.450   3.740   8.247  0.2687  2.5437  0.8121
 3038TIP3    H230674   3.515   3.841   8.155  1.8376 -0.8377 -2.0080
 3039TIP3   OH230675   2.613   0.395   0.727  0.0339 -0.4417  0.8560
 3039TIP3    H130676   2.591   0.488   0.725  1.8966  0.1266  2.6470
 3039TIP3    H230677   2.677   0.384   0.656 -0.3306 -0.3978  0.5204
 3040TIP3   OH230678   3.097   1.724   1.599  0.6580  0.2625 -0.2809
 3040TIP3    H130679   3.018   1.703   1.548  0.2762  0.9365  0.0077
 3040TIP3    H230680   3.155   1.650   1.586  0.3789  0.2168 -1.3236
 3041TIP3   OH230681   2.880   6.816   7.443  0.2367 -0.0147 -0.0426
 3041TIP3    H130682   2.946   6.756   7.478  0.9246  1.1531  0.6856
 3041TIP3    H230683   2.927   6.872   7.383 -0.3161  0.1265 -0.3532
 3042TIP3   OH230684   2.737   0.621   8.177 -0.7025 -0.3092  0.6169
 3042TIP3    H130685   2.815   0.678   8.174 -0.3839 -0.7654 -0.0697
 3042TIP3    H230686   2.707   0.627   8.268 -0.1996  0.3179  0.7580
 3043TIP3   OH230687   2.659   5.008   7.570 -0.3172 -0.6680 -0.0794
 3043TIP3    H130688   2.641   4.948   7.642 -0.8477  2.4242  2.6470
 3043TIP3    H230689   2.753   5.002   7.556  0.0348 -0.4621  1.8670
 3044TIP3   OH230690   1.053   3.892   1.239 -0.4251 -0.1210  0.6331
 3044TIP3    H130691   1.126   3.898   1.178 -1.1221  1.5676 -0.0951
 3044TIP3    H230692   1.010   3.809   1.217  0.0087 -0.0847 -0.4113
 3045TIP3   OH230693   1.881   1.474   0.897 -0.1109 -0.0046 -0.0415
 3045TIP3    H130694   1.858   1.452   0.807  0.8873 -0.1439 -0.2727
 3045TIP3    H230695   1.927   1.397   0.930  3.3041  1.5310 -0.8146
 3046TIP3   OH230696   0.600   5.894   7.551  0.7930 -0.1863 -0.1052
 3046TIP3    H130697   0.609   5.833   7.478  0.7387  0.3982 -0.6068
 3046TIP3    H230698   0.592   5.980   7.510 -2.5303 -0.1120  0.4149
 3047TIP3   OH230699   4.952   3.164   7.909  0.3879 -0.4435 -0.4019
 3047TIP3    H130700   5.025   3.223   7.895 -1.2290  1.3389 -1.9253
 3047TIP3    H230701   4.882   3.219   7.944 -1.0108 -1.5435 -1.3226
 3048TIP3   OH230702   0.344   0.323   6.720 -0.2461  0.1768  0.1235
 3048TIP3    H130703   0.391   0.256   6.769 -0.4013  0.7465  1.0864
 3048TIP3    H230704   0.410   0.360   6.661  0.4440  0.7148  1.1946
 3049TIP3   OH230705   1.542   1.030   2.025 -0.0084 -0.3477  0.0146
 3049TIP3    H130706   1.472   1.040   2.090  1.1889  0.3767  1.2328
 3049TIP3    H230707   1.586   0.949   2.049 -0.1513 -0.5845 -0.5020
 3050TIP3   OH230708   0.002   6.595   6.708 -0.4910 -0.2627  0.8047
 3050TIP3    H130709  -0.074   6.648   6.734 -0.1479  0.7312 -0.1278
 3050TIP3    H230710   0.075   6.657   6.705  0.1759 -1.0279  0.8115
 3051TIP3   OH230711   3.386   2.255   0.984  0.6465 -0.2383 -0.2331
 3051TIP3    H130712   3.300   2.224   1.013  0.6596  0.9812  1.2058
 3051TIP3    H230713   3.377   2.264   0.889 -1.4880  1.7930  0.0837
 3052TIP3   OH230714   5.876   2.819   7.205 -0.0228 -0.2105  0.0902
 3052TIP3    H130715   5.919   2.764   7.140 -0.4562  1.3380 -1.5971
 3052TIP3    H230716   5.875   2.766   7.285  2.4465 -1.3711 -0.5445
 3053TIP3   OH230717   2.266   4.631   1.931  0.2651 -0.1990 -0.6169
 3053TIP3    H130718   2.274   4.653   1.838  0.5032 -0.2512 -0.6106
 3053TIP3    H230719   2.174   4.608   1.943  0.1933 -0.0073 -0.7991
 3054TIP3   OH230720   5.972   2.228   6.775 -0.9614 -0.0229 -0.2022
 3054TIP3    H130721   5.983   2.311   6.821  0.0541 -0.0261 -0.4051
 3054TIP3    H230722   5.953   2.253   6.684 -0.4938  0.0020 -0.2987
 3055TIP3   OH230723   5.595   1.903   8.385  0.7481  0.5402 -0.0801
 3055TIP3    H130724   5.642   1.985   8.400 -0.6786  1.2653  0.6382
 3055TIP3    H230725   5.559   1.880   8.470  1.1594 -0.8803 -0.2631
 3056TIP3   OH230726   4.944   3.358   7.624 -0.3377  0.2673 -0.0177
 3056TIP3    H130727   4.897   3.425   7.574  1.2866  1.4761 -0.0209
 3056TIP3    H230728   4.975   3.404   7.702 -0.3532 -0.8530  0.6642
 3057TIP3   OH230729   3.264   4.306   1.150 -0.0394 -0.1713 -0.3511
 3057TIP3    H130730   3.338   4.359   1.120 -0.6028 -0.3231 -2.1120
 3057TIP3    H230731   3.232   4.352   1.227  1.4580  0.2710  0.0447
 3058TIP3   OH230732   3.803   3.906   1.469  0.5707 -0.0326  0.3126
 3058TIP3    H130733   3.771   3.995   1.454  1.5215 -0.1182 -3.0039
 3058TIP3    H230734   3.884   3.901   1.419  1.8851 -2.0660  2.4454
 3059TIP3   OH230735   3.637   3.734   8.546 -0.4054  0.6655  0.0705
 3059TIP3    H130736   3.599   3.820   8.531  0.9314  0.9887 -1.7269
 3059TIP3    H230737   3.710   3.750   8.606 -0.6025  0.6520  0.3182
 3060TIP3   OH230738   6.025   3.768   1.000 -0.4716 -0.5934  0.4902
 3060TIP3    H130739   5.977   3.760   1.083 -0.8463  1.6546  0.5583
 3060TIP3    H230740   5.958   3.789   0.935  0.0592 -0.3439  0.0121
 3061TIP3   OH230741   1.393   6.379   0.268  0.0012  0.1751  0.3344
 3061TIP3    H130742   1.305   6.352   0.240 -1.1927  2.8130  1.2000
 3061TIP3    H230743   1.378   6.426   0.350  2.2821  0.5336  0.6054
 3062TIP3   OH230744   4.416   0.303   0.182  0.0487  0.3814  0.5476
 3062TIP3    H130745   4.331   0.290   0.225  0.5054  0.4136  1.4720
 3062TIP3    H230746   4.474   0.333   0.251  0.9895 -0.2877  0.0723
 3063TIP3   OH230747   2.663   2.166   7.074  0.4701 -0.0964  0.3853
 3063TIP3    H130748   2.736   2.204   7.024  0.4286  1.6344  1.5466
 3063TIP3    H230749   2.702   2.092   7.120  1.3366  0.3706  0.4307
 3064TIP3   OH230750   1.182   2.465   0.610  0.0390  0.2330  0.1610
 3064TIP3    H130751   1.111   2.495   0.553 -1.1716  0.5330  1.7768
 3064TIP3    H230752   1.151   2.382   0.645  2.2312 -1.7800 -2.1916
 3065TIP3   OH230753   4.626   0.038   7.522  0.5256  0.0837  0.3300
 3065TIP3    H130754   4.717   0.067   7.517  0.6881 -0.5086 -0.3020
 3065TIP3    H230755   4.626  -0.029   7.590  0.8506 -0.8868 -0.5910
 3066TIP3   OH230756   6.732   3.624   7.593 -0.1940 -0.6715  0.5399
 3066TIP3    H130757   6.726   3.697   7.531 -1.9027 -1.7984 -0.7213
 3066TIP3    H230758   6.780   3.660   7.667  2.5119  0.5789 -1.6479
 3067TIP3   OH230759   0.768   5.176   0.856  0.3441  0.7260 -1.1402
 3067TIP3    H130760   0.736   5.151   0.769  0.3920  1.5037 -1.3945
 3067TIP3    H230761   0.863   5.169   0.849  0.2817 -1.0685 -0.5485
 3068TIP3   OH230762   1.528   2.414   1.809  0.0147 -0.4362 -0.2431
 3068TIP3    H130763   1.533   2.463   1.728  0.8286 -0.3774 -0.1658
 3068TIP3    H230764   1.467   2.464   1.864  0.8983  0.5507 -0.1277
 3069TIP3   OH230765   1.581   1.750   6.347  0.1034 -0.7899 -0.5698
 3069TIP3    H130766   1.589   1.743   6.252  1.3997  1.6002 -0.7183
 3069TIP3    H230767   1.671   1.744   6.380 -0.0445  0.7785  0.2369
 3070TIP3   OH230768   2.136   0.559   0.544  0.7008  0.1692 -0.7330
 3070TIP3    H130769   2.201   0.534   0.478  0.0773  1.0940 -1.7274
 3070TIP3    H230770   2.073   0.487   0.544  0.7563  0.1202 -1.0652
 3071TIP3   OH230771   4.483   1.208   7.317 -0.3077 -0.4253 -0.0066
 3071TIP3    H130772   4.504   1.132   7.371 -0.4518 -1.6567 -1.5796
 3071TIP3    H230773   4.390   1.198   7.296  0.1565 -1.0991 -2.0214
 3072TIP3   OH230774   0.006   3.765   7.745  0.6878  0.5487  0.1017
 3072TIP3    H130775  -0.023   3.853   7.767  3.2916  1.1684  1.3887
 3072TIP3    H230776   0.101   3.770   7.744  0.9104 -2.0995 -0.5372
 3073TIP3   OH230777   3.976   5.801   6.625 -0.0528 -0.3848 -0.5592
 3073TIP3    H130778   4.042   5.764   6.566 -0.3171  1.4238 -2.0552
 3073TIP3    H230779   3.892   5.782   6.582 -0.4722 -1.6501  0.7537
 3074TIP3   OH230780   6.091   6.273   8.340 -0.5562 -0.5542 -0.3018
 3074TIP3    H130781   6.015   6.261   8.283  0.0014 -2.0396 -0.7735
 3074TIP3    H230782   6.083   6.203   8.406 -0.5740  0.4317  0.7741
 3075TIP3   OH230783   2.225   3.034   1.874 -0.0170  0.0273  0.1544
 3075TIP3    H130784   2.156   3.051   1.939 -0.6174  0.6692 -0.6289
 3075TIP3    H230785   2.290   3.101   1.891 -0.0536  0.0387  0.2547
 3076TIP3   OH230786   5.375   3.210   8.044  0.5282 -0.6013  0.3355
 3076TIP3    H130787   5.357   3.124   8.082 -1.5688  0.9652  3.2968
 3076TIP3    H230788   5.455   3.239   8.087 -0.4803  0.1326  1.8158
 3077TIP3   OH230789   5.312   2.328   2.705  0.1658 -0.3516  0.4209
 3077TIP3    H130790   5.282   2.312   2.615 -1.7447 -1.4314  1.1926
 3077TIP3    H230791   5.269   2.409   2.730  1.2639  0.3313  0.1505
 3078TIP3   OH230792   6.816   0.241   1.994 -0.2256  0.0118 -0.4589
 3078TIP3    H130793   6.840   0.182   2.065 -1.2046 -0.8692 -0.8295
 3078TIP3    H230794   6.751   0.300   2.032  1.5491  1.6326  0.2195
 3079TIP3   OH230795   0.329   3.526   2.423  0.1706 -0.4691 -0.1409
 3079TIP3    H130796   0.269   3.586   2.467  1.0928 -0.0672  0.6209
 3079TIP3    H230797   0.323   3.445   2.474  0.1991 -0.4566 -0.1172
 3080TIP3   OH230798   2.054   1.702   0.024  0.4236 -0.0857 -0.0469
 3080TIP3    H130799   2.009   1.702   0.108 -0.1857 -2.1899 -0.3069
 3080TIP3    H230800   2.078   1.610   0.010  2.2743  0.5228 -1.2617
 3081TIP3   OH230801   1.983   4.638   0.194  0.1186  0.2865  0.0323
 3081TIP3    H130802   2.030   4.662   0.274  1.2015 -1.0915 -0.1520
 3081TIP3    H230803   1.893   4.669   0.209  0.1961 -0.2626  1.9555
 3082TIP3   OH230804   5.343   3.534   7.401  0.2871  0.1205  0.1891
 3082TIP3    H130805   5.305   3.617   7.372  1.0504  0.1945 -0.6609
 3082TIP3    H230806   5.431   3.534   7.364 -0.0628 -1.5453 -0.7554
 3083TIP3   OH230807   0.736   1.085   1.235  0.1150 -0.2808 -0.1908
 3083TIP3    H130808   0.831   1.078   1.240 -0.0257 -1.8881  0.7802
 3083TIP3    H230809   0.711   1.132   1.315  0.0746 -0.0189 -0.3560
 3084TIP3   OH230810   3.394   5.619   0.782  0.0205  0.5044 -0.3458
 3084TIP3    H130811   3.424   5.532   0.756  0.6751  0.0986  1.5464
 3084TIP3    H230812   3.474   5.670   0.790 -0.2074  0.8068  0.0749
 3085TIP3   OH230813   3.519   0.351   0.386  0.7019 -0.1064  0.2103
 3085TIP3    H130814   3.527   0.434   0.340 -2.9668  0.2804  0.0308
 3085TIP3    H230815   3.498   0.374   0.476  1.2451 -0.8832  0.5564
 3086TIP3   OH230816   6.177   1.081   8.338 -0.0205  0.6652  0.0016
 3086TIP3    H130817   6.210   0.992   8.353  1.6768  1.4954  1.6731
 3086TIP3    H230818   6.102   1.089   8.397 -0.0567  0.3951 -0.0073
 3087TIP3   OH230819   0.249   6.031   7.498  0.2432  0.3706 -0.5891
 3087TIP3    H130820   0.236   5.975   7.422 -1.7168  0.7053 -0.5694
 3087TIP3    H230821   0.238   5.973   7.573 -2.2307  0.7409 -0.5604
 3088TIP3   OH230822   4.067   6.457   1.724  0.0692 -0.2589 -0.3711
 3088TIP3    H130823   4.104   6.502   1.799 -1.3908 -1.0086  0.8545
 3088TIP3    H230824   4.079   6.364   1.743 -3.5911 -0.6382  0.8532
 3089TIP3   OH230825   2.942   3.363   1.289  0.4505  0.3094 -0.0326
 3089TIP3    H130826   2.913   3.454   1.292  0.9183  0.4487  0.6172
 3089TIP3    H230827   3.019   3.364   1.233 -0.6980 -0.0423 -1.6694
 3090TIP3   OH230828   2.621   5.468   2.128  0.2317  0.2511  0.2155
 3090TIP3    H130829   2.651   5.484   2.217  0.7275  0.3045  0.0417
 3090TIP3    H230830   2.526   5.466   2.135  0.2007  1.6681  0.5172
 3091TIP3   OH230831   5.626   6.625   0.020  0.0451  0.1657  0.4110
 3091TIP3    H130832   5.640   6.541  -0.024 -0.5575 -0.0185  0.5703
 3091TIP3    H230833   5.531   6.632   0.030  0.0299  1.1819 -0.2250
 3092TIP3   OH230834   1.173   3.074   1.440 -0.2577  0.1772 -0.7839
 3092TIP3    H130835   1.106   3.142   1.429  0.2579  0.7865 -0.1963
 3092TIP3    H230836   1.160   3.042   1.529  1.8807  2.1415  0.3435
 3093TIP3   OH230837   5.818   2.986   0.032  0.0533  0.0343 -0.1363
 3093TIP3    H130838   5.888   2.937   0.075  0.7132  0.7675 -0.3542
 3093TIP3    H230839   5.828   3.076   0.064 -1.2501 -0.0015  0.3950
 3094TIP3   OH230840   1.636   2.758   6.836 -0.0185  0.1464 -0.2100
 3094TIP3    H130841   1.631   2.820   6.763  4.2030  2.3144  0.9870
 3094TIP3    H230842   1.689   2.686   6.803  0.6972  0.4398  0.2827
 3095TIP3   OH230843   4.901   0.682   1.104  0.2299  0.1191  0.6542
 3095TIP3    H130844   4.987   0.720   1.127  0.5311 -0.1426 -0.0279
 3095TIP3    H230845   4.922   0.608   1.047 -0.2993 -1.5687  2.5309
 3096TIP3   OH230846   0.912   0.204   1.046 -0.2787  0.0913 -0.4516
 3096TIP3    H130847   1.000   0.192   1.081 -0.6201  0.7599  0.6877
 3096TIP3    H230848   0.906   0.297   1.025 -1.1495  0.3529  0.8133
 3097TIP3   OH230849   0.730   5.236   7.739 -0.2372 -0.2690  0.3751
 3097TIP3    H130850   0.750   5.158   7.688  1.5240  0.7585 -0.5905
 3097TIP3    H230851   0.645   5.266   7.705 -1.1285 -1.9024  1.0198
 3098TIP3   OH230852   1.275   2.492   7.221  0.3871 -0.1256 -0.2093
 3098TIP3    H130853   1.354   2.546   7.217  1.0006 -0.9132  0.8548
 3098TIP3    H230854   1.286   2.439   7.300 -1.2947 -0.1209  0.0621
 3099TIP3   OH230855   0.120   3.435   7.863  0.2564  0.2457 -0.1500
 3099TIP3    H130856   0.183   3.456   7.793 -0.1690  0.2942 -0.5257
 3099TIP3    H230857   0.131   3.506   7.926  1.5914 -0.5046  0.5043
 3100TIP3   OH230858   6.753   0.171   7.433  0.4802  0.3530  0.0682
 3100TIP3    H130859   6.834   0.199   7.389  0.7422  0.4202  0.5863
 3100TIP3    H230860   6.714   0.253   7.465 -0.3043  0.4267 -1.0274
 3101TIP3   OH230861   2.209   2.787   8.065  0.7287 -0.3545  0.4262
 3101TIP3    H130862   2.132   2.732   8.082 -0.3964 -0.4427 -3.7609
 3101TIP3    H230863   2.226   2.775   7.971  3.5489  2.5955  0.4014
 3102TIP3   OH230864   5.543   3.814   1.223 -0.2007  0.3092 -0.2385
 3102TIP3    H130865   5.576   3.852   1.142  0.8598  1.1393  0.5629
 3102TIP3    H230866   5.503   3.887   1.271 -0.1644 -0.0198  0.3099
 3103TIP3   OH230867   6.303   3.019   2.656 -0.6086  0.1186 -0.6586
 3103TIP3    H130868   6.321   2.925   2.651 -1.1833 -0.0455  0.1518
 3103TIP3    H230869   6.236   3.033   2.589  0.2140  0.1543 -1.4971
 3104TIP3   OH230870   6.337   4.993   1.025  0.2569 -0.0681 -0.0095
 3104TIP3    H130871   6.280   4.918   1.045 -0.6869  0.9129  1.1162
 3104TIP3    H230872   6.408   4.986   1.090 -0.6680  0.8669  1.1313
 3105TIP3   OH230873   3.577   2.144   1.461 -0.2329  1.1985 -0.3896
 3105TIP3    H130874   3.604   2.229   1.495 -3.0363  2.2352 -0.4606
 3105TIP3    H230875   3.544   2.163   1.373  2.7286 -0.6949 -2.0489
 3106TIP3   OH230876   5.087   0.166   1.363  0.1956  0.1298 -0.6023
 3106TIP3    H130877   5.152   0.105   1.327 -1.3371 -0.5263 -2.4385
 3106TIP3    H230878   5.084   0.145   1.456  2.4161  0.0326 -0.5062
 3107TIP3   OH230879   0.691   0.090   0.125  0.1451 -0.1274 -0.2099
 3107TIP3    H130880   0.728   0.118   0.208 -1.2241  2.2447 -0.3248
 3107TIP3    H230881   0.666   0.171   0.080 -4.2659 -1.3823 -0.5324
 3108TIP3   OH230882   3.562   4.643   0.457  0.4567 -0.2592  0.2879
 3108TIP3    H130883   3.643   4.644   0.405  0.9414 -0.7826  1.0092
 3108TIP3    H230884   3.523   4.557   0.438 -0.0624  0.0883 -0.2445
 3109TIP3   OH230885   3.532   3.349   7.191 -0.2078  0.4434  0.9182
 3109TIP3    H130886   3.568   3.438   7.201  0.4486  0.0313  2.5125
 3109TIP3    H230887   3.462   3.359   7.127  1.1715  1.7323 -0.4816
 3110TIP3   OH230888   5.921   6.042   7.815 -0.3008 -0.4848  0.4570
 3110TIP3    H130889   5.971   6.121   7.795 -1.5740  0.2249  0.0240
 3110TIP3    H230890   5.980   5.970   7.791  0.2518  0.3362 -0.7299
 3111TIP3   OH230891   2.923   4.051   0.407  0.2109 -0.7326  0.1250
 3111TIP3    H130892   2.903   3.981   0.469 -0.5804 -1.2579 -0.7142
 3111TIP3    H230893   2.865   4.036   0.333 -0.3303  1.0903  0.1167
 3112TIP3   OH230894   4.279   4.610   7.806 -0.0486 -0.3270  0.0490
 3112TIP3    H130895   4.374   4.620   7.812  0.0707 -1.1511 -0.3016
 3112TIP3    H230896   4.253   4.662   7.730  0.3007 -1.0954 -0.6122
 3113TIP3   OH230897   5.620   2.531   0.812 -0.1863  0.2437 -0.3931
 3113TIP3    H130898   5.646   2.514   0.903 -1.4014 -0.2054 -0.1071
 3113TIP3    H230899   5.679   2.477   0.760  1.2097  1.2910  0.0472
 3114TIP3   OH230900   4.046   6.804   0.474 -0.5942 -0.2924  0.1991
 3114TIP3    H130901   3.982   6.733   0.479 -1.4851  0.4620 -0.1687
 3114TIP3    H230902   3.994   6.884   0.486  0.3295  0.3184  0.2067
 3115TIP3   OH230903   3.636   3.210   6.869 -0.0413  0.2518 -0.1675
 3115TIP3    H130904   3.672   3.218   6.781  1.2840  0.8052  0.3917
 3115TIP3    H230905   3.667   3.288   6.915 -0.2380 -0.3004  0.9529
 3116TIP3   OH230906   0.491   6.256   1.133  0.1621 -0.1342 -0.3742
 3116TIP3    H130907   0.449   6.252   1.219  0.9100 -1.0316 -0.0370
 3116TIP3    H230908   0.450   6.332   1.090  0.7181  1.1749  1.2853
 3117TIP3   OH230909   4.803   1.603   0.276 -0.0183 -0.0212 -0.5154
 3117TIP3    H130910   4.820   1.599   0.370 -1.6719  2.0336 -0.0548
 3117TIP3    H230911   4.720   1.557   0.265  0.2690 -0.4297 -1.0298
 3118TIP3   OH230912   6.354   3.012   0.941  0.4647  0.7917 -0.0156
 3118TIP3    H130913   6.424   3.076   0.930  0.5402  0.4210 -2.1107
 3118TIP3    H230914   6.399   2.933   0.973  1.1379  0.4466 -1.6771
 3119TIP3   OH230915   3.947   5.035   0.921 -0.3436 -0.1006 -0.3993
 3119TIP3    H130916   4.028   4.987   0.939 -1.7282 -1.5737  2.6163
 3119TIP3    H230917   3.894   4.974   0.870 -1.1034 -0.8475  1.2204
 3120TIP3   OH230918   4.346   2.813   2.467  0.7076  0.2524 -0.1108
 3120TIP3    H130919   4.402   2.737   2.480  2.5433  1.2491 -1.6279
 3120TIP3    H230920   4.389   2.883   2.517 -2.0451 -0.0242  2.9825
 3121TIP3   OH230921   4.358   4.293   7.092 -0.3729 -0.8198 -0.5768
 3121TIP3    H130922   4.357   4.257   7.003 -0.4137 -0.3916 -0.7505
 3121TIP3    H230923   4.266   4.299   7.116 -0.3565 -1.0899 -0.4412
 3122TIP3   OH230924   3.515   4.539   7.284 -0.3755  0.5633 -0.8850
 3122TIP3    H130925   3.432   4.495   7.270 -0.6640 -0.7430  3.6257
 3122TIP3    H230926   3.581   4.471   7.272  0.0938  1.2963 -3.1161
 3123TIP3   OH230927   1.269   3.459   0.780  0.5819 -0.1611  0.0639
 3123TIP3    H130928   1.270   3.386   0.841  0.8809  0.2336  0.5417
 3123TIP3    H230929   1.229   3.531   0.829  1.4178  0.3455  0.0268
 3124TIP3   OH230930   2.021   4.932   0.668  0.2513  0.9825 -0.5478
 3124TIP3    H130931   1.978   5.017   0.683  0.9488  1.1220  0.7657
 3124TIP3    H230932   2.076   4.919   0.745 -0.0711 -0.8143 -0.5869
 3125TIP3   OH230933   3.988   6.338   6.972  0.5448 -0.1195 -0.3259
 3125TIP3    H130934   3.950   6.404   6.914  0.1105 -0.4399 -0.4078
 3125TIP3    H230935   3.921   6.271   6.980  0.3338  0.2118  1.0430
 3126TIP3   OH230936   1.747   4.004   7.458 -0.4854 -0.2387  0.5620
 3126TIP3    H130937   1.673   3.959   7.416  0.3676 -0.8108 -0.3544
 3126TIP3    H230938   1.717   4.095   7.467 -1.1303 -0.3553 -0.2473
 3127TIP3   OH230939   6.379   2.902   0.458  0.0391 -0.3221 -0.1043
 3127TIP3    H130940   6.333   2.860   0.385  0.9781 -0.4196 -0.6582
 3127TIP3    H230941   6.424   2.830   0.502 -1.0364 -0.3598  0.9840
 3128TIP3   OH230942   4.470   1.477   7.764 -0.5215 -0.1165 -0.4375
 3128TIP3    H130943   4.380   1.491   7.734 -0.4881  1.1449 -0.0361
 3128TIP3    H230944   4.522   1.471   7.683 -0.5078  2.6741 -0.7493
 3129TIP3   OH230945   0.538   5.694   6.156 -0.2649 -0.2722 -0.0956
 3129TIP3    H130946   0.630   5.667   6.167  0.0654  0.7858 -0.1665
 3129TIP3    H230947   0.497   5.620   6.112  1.1246  0.1577 -2.2604
 3130TIP3   OH230948   4.663   4.916   8.492  0.2422  0.3600 -0.3895
 3130TIP3    H130949   4.697   5.002   8.517  2.0768 -0.8565  1.6456
 3130TIP3    H230950   4.652   4.921   8.397  0.7576  2.6678 -0.3872
 3131TIP3   OH230951   0.714   1.135   1.522 -0.4344 -0.2610  0.2162
 3131TIP3    H130952   0.700   1.040   1.520 -1.4043 -0.1216 -0.5917
 3131TIP3    H230953   0.791   1.147   1.577  1.0062 -1.6614 -1.3903
 3132TIP3   OH230954   2.603   0.424   6.677 -0.0275  0.1040 -0.1333
 3132TIP3    H130955   2.691   0.388   6.670 -0.2483 -0.6085  0.6499
 3132TIP3    H230956   2.547   0.348   6.689 -0.7440  0.5603 -0.5430
 3133TIP3   OH230957   1.904   6.549   1.293  0.4805 -0.5276  0.4800
 3133TIP3    H130958   1.979   6.609   1.302  0.4818 -0.3970 -0.3307
 3133TIP3    H230959   1.851   6.588   1.224  0.1094 -1.0892  0.4456
 3134TIP3   OH230960   4.053   4.159   0.918  0.1717 -0.3004  0.0001
 3134TIP3    H130961   4.076   4.244   0.880  0.1344 -0.4913 -0.4567
 3134TIP3    H230962   4.137   4.120   0.940  0.2185 -0.4026 -0.3577
 3135TIP3   OH230963   4.179   2.711   6.730 -0.3215  0.0686 -0.1939
 3135TIP3    H130964   4.090   2.681   6.749 -0.6502  0.1484 -1.4613
 3135TIP3    H230965   4.167   2.791   6.679  0.4630 -0.0033 -0.5125
 3136TIP3   OH230966   1.345   5.915   8.265  0.1307 -0.0893 -0.2959
 3136TIP3    H130967   1.288   5.980   8.225 -0.4271  0.0976  0.7512
 3136TIP3    H230968   1.428   5.922   8.218  0.2029  1.6419  0.0398
 3137TIP3   OH230969   0.334   3.269   2.775  0.5578 -0.2667  0.2028
 3137TIP3    H130970   0.376   3.190   2.808  0.0937 -0.7632 -0.3782
 3137TIP3    H230971   0.349   3.267   2.681  0.6134  0.3814  0.1924
 3138TIP3   OH230972   2.531   5.374   7.790  0.0125  0.6972  0.2336
 3138TIP3    H130973   2.559   5.371   7.698  0.8935  2.2582  0.4068
 3138TIP3    H230974   2.442   5.407   7.786  0.5522  2.2163 -0.0249
 3139TIP3   OH230975   6.288   6.795   0.858 -0.1028 -0.3548 -0.1333
 3139TIP3    H130976   6.198   6.763   0.853  0.8090 -3.2370  0.0291
 3139TIP3    H230977   6.289   6.854   0.933 -2.2439  1.4536 -1.3839
 3140TIP3   OH230978   4.403   3.830   0.750 -0.3784 -0.2377  0.3276
 3140TIP3    H130979   4.378   3.764   0.816 -1.9459  0.1841  0.1945
 3140TIP3    H230980   4.397   3.913   0.797  1.4496 -0.1416  0.4510
 3141TIP3   OH230981   0.817   1.931   1.971  0.5127  0.2417 -0.0861
 3141TIP3    H130982   0.728   1.943   2.004  0.2604 -1.9060  0.1500
 3141TIP3    H230983   0.867   1.905   2.049  0.3204 -2.9909 -0.9087
 3142TIP3   OH230984   1.242   1.107   0.346 -0.2140 -0.5762 -0.4574
 3142TIP3    H130985   1.238   1.094   0.441 -0.4174 -1.8952 -0.6246
 3142TIP3    H230986   1.323   1.064   0.320 -1.5979 -2.9212 -1.2275
 3143TIP3   OH230987   3.873   3.389   7.738  0.6125 -0.1781  0.6077
 3143TIP3    H130988   3.937   3.375   7.807  0.1126 -3.4659  0.5688
 3143TIP3    H230989   3.790   3.359   7.776 -0.2143  0.5779 -0.5294
 3144TIP3   OH230990   1.670   0.174   0.539  0.3439 -0.7677  0.3148
 3144TIP3    H130991   1.613   0.245   0.569 -0.2533 -0.2791 -1.7661
 3144TIP3    H230992   1.758   0.202   0.563 -0.1102 -0.6585  1.9568
 3145TIP3   OH230993   0.853   3.319   0.947  0.0808  0.1792 -0.0244
 3145TIP3    H130994   0.905   3.372   0.887 -0.2206  1.3077  0.6784
 3145TIP3    H230995   0.915   3.291   1.014 -0.0509  0.9755  0.4526
 3146TIP3   OH230996   4.467   0.403   8.284 -0.4301 -0.0007  0.1066
 3146TIP3    H130997   4.408   0.364   8.220 -0.6004  1.8661 -0.9756
 3146TIP3    H230998   4.525   0.332   8.311 -1.1855 -1.1409 -1.1633
 3147TIP3   OH230999   2.743   6.296   8.544  0.1123 -0.6334 -0.3868
 3147TIP3    H131000   2.834   6.325   8.536 -0.3116  0.5562 -1.1262
 3147TIP3    H231001   2.698   6.339   8.472 -1.0206 -1.3297 -0.1146
 3148TIP3   OH231002   0.663   0.211   7.629 -0.0288 -0.1424  0.4993
 3148TIP3    H131003   0.751   0.201   7.668 -0.5473 -2.3519  1.2743
 3148TIP3    H231004   0.660   0.145   7.560  0.2198  2.5250 -2.3133
 3149TIP3   OH231005   2.652   2.599   1.600  0.6455  0.3361 -0.4904
 3149TIP3    H131006   2.693   2.670   1.551  1.1731 -0.1684 -0.7931
 3149TIP3    H231007   2.723   2.566   1.656 -0.0282  1.1428  0.9028
 3150TIP3   OH231008   1.062   0.405   1.141 -0.1137  0.4528  0.2080
 3150TIP3    H131009   1.116   0.325   1.136  3.6852  2.8102 -0.3209
 3150TIP3    H231010   1.071   0.433   1.232  0.6106  1.4844 -0.1673
 3151TIP3   OH231011   4.563   3.221   6.358  0.3954 -0.3482  0.1340
 3151TIP3    H131012   4.616   3.145   6.384  0.7454  0.1467  0.9240
 3151TIP3    H231013   4.625   3.294   6.356 -0.3004  0.3290  1.5137
 3152TIP3   OH231014   2.467   6.878   1.155  0.4757  0.0413  0.1140
 3152TIP3    H131015   2.543   6.928   1.127  0.5513 -0.5509 -0.7746
 3152TIP3    H231016   2.392   6.922   1.115  0.4822 -0.1724 -0.1363
 3153TIP3   OH231017   6.084   1.534   1.564  0.2013  0.1828 -0.0828
 3153TIP3    H131018   6.066   1.541   1.470 -1.8181  0.1181  0.2691
 3153TIP3    H231019   6.108   1.443   1.577 -2.4103 -0.5702 -0.1224
 3154TIP3   OH231020   6.321   2.068   0.167  0.0747 -0.2089 -0.2860
 3154TIP3    H131021   6.340   2.132   0.098 -1.5207  2.1021  1.2559
 3154TIP3    H231022   6.358   2.106   0.246 -1.1778 -1.0411  0.7437
 3155TIP3   OH231023   4.736   1.645   1.913 -0.1429  0.2328  0.3878
 3155TIP3    H131024   4.792   1.570   1.932 -0.7386 -0.4081 -0.2828
 3155TIP3    H231025   4.790   1.722   1.930  0.1508 -0.3279  2.0582
 3156TIP3   OH231026   4.284   4.024   0.255  0.4608 -0.0780 -0.1817
 3156TIP3    H131027   4.241   4.048   0.337 -3.1148 -1.4237 -1.4649
 3156TIP3    H231028   4.284   3.928   0.255  3.2057 -0.1398 -0.5015
 3157TIP3   OH231029   2.391   3.412   7.844  0.2399 -0.5233  0.4537
 3157TIP3    H131030   2.461   3.368   7.893  0.1450  0.2043  1.2493
 3157TIP3    H231031   2.340   3.340   7.807  0.5674 -1.0780  1.0504
 3158TIP3   OH231032   4.258   1.085   7.564  1.3285 -0.6041  0.5959
 3158TIP3    H131033   4.232   1.120   7.479  0.1541 -0.2876  1.0626
 3158TIP3    H231034   4.353   1.099   7.568  1.4792 -1.0884 -0.8567
 3159TIP3   OH231035   3.697   2.894   2.906  0.6340 -0.0127 -0.2646
 3159TIP3    H131036   3.679   2.895   2.812 -2.3257  1.0531  0.1929
 3159TIP3    H231037   3.658   2.812   2.937 -2.0226  1.3893  0.4697
 3160TIP3   OH231038   0.524   3.417   1.272  0.5086  0.2442  0.5581
 3160TIP3    H131039   0.596   3.355   1.258 -0.0638 -0.2106 -0.5074
 3160TIP3    H231040   0.507   3.454   1.186 -1.2419 -0.4673  0.5428
 3161TIP3   OH231041   5.295   0.242   0.014 -0.2257  0.7516  0.3662
 3161TIP3    H131042   5.283   0.334  -0.011 -0.2650  0.6726  0.0881
 3161TIP3    H231043   5.277   0.193  -0.067  2.5770  0.6448 -0.2916
 3162TIP3   OH231044   4.303   2.601   0.252  0.6931 -0.2797  0.6651
 3162TIP3    H131045   4.282   2.522   0.301 -1.7264 -1.2461 -1.7328
 3162TIP3    H231046   4.390   2.585   0.216  2.2788  0.2066  3.9282
 3163TIP3   OH231047   0.319   0.110   1.319 -0.3257  0.2144  0.0014
 3163TIP3    H131048   0.329   0.016   1.338 -0.2677 -0.2015 -1.8556
 3163TIP3    H231049   0.245   0.137   1.373  0.3690 -0.5998  1.4373
 3164TIP3   OH231050   1.632   3.981   1.536  0.0609  0.2355 -0.0940
 3164TIP3    H131051   1.609   3.905   1.481 -1.6959  0.7613 -0.1614
 3164TIP3    H231052   1.725   3.994   1.521  0.0692 -0.9529 -1.2990
 3165TIP3   OH231053   4.349   2.799   1.373  0.4030  0.9300  0.6770
 3165TIP3    H131054   4.329   2.742   1.299  1.7618  0.2660  0.7937
 3165TIP3    H231055   4.288   2.872   1.364  1.0640  1.2850 -1.5583
 3166TIP3   OH231056   3.885   4.229   1.977 -0.2897 -0.5542  0.0684
 3166TIP3    H131057   3.889   4.244   2.071 -0.3646 -0.6139  0.0814
 3166TIP3    H231058   3.957   4.281   1.941 -0.9588  0.3914  0.0425
 3167TIP3   OH231059   0.343   1.439   0.341 -0.3379  0.2002 -0.3236
 3167TIP3    H131060   0.257   1.408   0.371 -0.1513 -0.1815 -0.1721
 3167TIP3    H231061   0.405   1.398   0.402  0.0642 -0.6954 -1.3115
 3168TIP3   OH231062   1.816   6.143   1.509 -0.0955 -0.0480 -0.0034
 3168TIP3    H131063   1.882   6.103   1.452 -1.3316 -1.8533 -0.2488
 3168TIP3    H231064   1.778   6.213   1.457 -1.1556 -1.6120 -1.4475
 3169TIP3   OH231065   0.910   5.005   8.507 -0.0837 -0.4574 -0.0084
 3169TIP3    H131066   0.861   5.085   8.485  2.7814  1.8833  1.4275
 3169TIP3    H231067   0.890   4.989   8.599 -0.6952 -1.5004 -0.3087
 3170TIP3   OH231068   2.175   4.209   0.387 -0.1071 -0.0123 -0.2587
 3170TIP3    H131069   2.126   4.221   0.306 -0.1671 -0.3558 -0.2716
 3170TIP3    H231070   2.112   4.173   0.449  0.2850 -1.0970 -0.4673
 3171TIP3   OH231071   4.934   6.314   0.649  0.0431 -0.2755  0.4523
 3171TIP3    H131072   4.841   6.291   0.642 -0.2774  1.0444  0.1968
 3171TIP3    H231073   4.941   6.361   0.732  0.1716  0.9909 -0.2547
 3172TIP3   OH231074   1.812   5.840   0.512  0.4884 -0.0794  0.6681
 3172TIP3    H131075   1.850   5.756   0.485  0.5989  0.5128 -1.1638
 3172TIP3    H231076   1.856   5.861   0.594  3.1181 -0.1145 -0.6355
 3173TIP3   OH231077   6.200   0.706   1.402  0.6793  0.2722 -0.2104
 3173TIP3    H131078   6.118   0.716   1.451  1.0695  0.1382  0.4797
 3173TIP3    H231079   6.232   0.619   1.427  0.9568  0.2620 -0.5941
 3174TIP3   OH231080   3.573   4.242   8.489  0.1784  0.1178  0.2866
 3174TIP3    H131081   3.648   4.293   8.458 -0.0968 -0.6318 -1.7750
 3174TIP3    H231082   3.498   4.298   8.473  0.2591  1.0036  2.6642
 3175TIP3   OH231083   5.420   1.899   0.464  0.1301 -1.2472 -0.3336
 3175TIP3    H131084   5.414   1.833   0.533 -0.1338  0.2553  1.1196
 3175TIP3    H231085   5.510   1.931   0.470  0.0878 -1.0662 -0.6560
 3176TIP3   OH231086   3.404   0.876   6.990 -0.2500 -0.0040  0.3013
 3176TIP3    H131087   3.452   0.840   7.064  0.9424 -0.0575 -0.4659
 3176TIP3    H231088   3.412   0.971   6.999  1.7730 -0.0019 -0.8768
 3177TIP3   OH231089   4.638   3.792   8.339 -0.2628  0.0917  0.0291
 3177TIP3    H131090   4.699   3.762   8.271 -0.5462 -0.9672  0.2364
 3177TIP3    H231091   4.578   3.849   8.292 -0.3002 -0.4300 -0.5722
 3178TIP3   OH231092   6.385   1.808   0.177 -0.0615 -0.3439 -0.2960
 3178TIP3    H131093   6.397   1.776   0.087  0.5040  2.0002 -1.1340
 3178TIP3    H231094   6.347   1.895   0.166 -0.3542 -0.1738  1.7731
 3179TIP3   OH231095   3.188   2.067   7.021 -0.8364  0.0094 -0.3978
 3179TIP3    H131096   3.282   2.066   6.999 -0.4405  0.3077  1.1470
 3179TIP3    H231097   3.174   1.983   7.065 -1.1947  0.1769 -0.1957
 3180TIP3   OH231098   3.493   5.858   0.504  0.1807  0.3203  0.2776
 3180TIP3    H131099   3.420   5.919   0.494 -0.2409 -0.2084  0.1287
 3180TIP3    H231100   3.469   5.782   0.452  1.2865  0.5339 -0.5717
 3181TIP3   OH231101   5.019   6.598   7.189  0.5213  0.2053 -0.0817
 3181TIP3    H131102   5.094   6.654   7.170  0.8659 -0.4658 -0.7070
 3181TIP3    H231103   4.972   6.592   7.106 -1.0500  1.7812  0.6050
 3182TIP3   OH231104   4.692   5.623   8.188 -0.2555  0.1366  0.0833
 3182TIP3    H131105   4.747   5.678   8.132 -0.6290 -0.9229 -1.4149
 3182TIP3    H231106   4.755   5.566   8.234  0.0096  0.2577 -0.1235
 3183TIP3   OH231107   0.347   1.434   8.089 -0.1666  0.0686 -0.0576
 3183TIP3    H131108   0.426   1.451   8.039  0.2100 -1.2980  0.0513
 3183TIP3    H231109   0.321   1.520   8.123 -0.3577  1.0259 -2.4363
 3184TIP3   OH231110   3.109   0.113   8.150  0.1303 -0.6378 -0.3655
 3184TIP3    H131111   3.182   0.069   8.194 -0.3613  0.5483  1.7482
 3184TIP3    H231112   3.088   0.187   8.207 -3.1507 -1.3178 -0.5141
 3185TIP3   OH231113   1.479   2.995   0.629  0.0469 -0.4958 -0.2137
 3185TIP3    H131114   1.417   2.987   0.701 -2.0812  0.1510 -1.8711
 3185TIP3    H231115   1.520   2.908   0.622  0.6232 -0.4454  1.9814
 3186TIP3   OH231116   0.868   4.492   2.193  0.5164  0.1128  0.0233
 3186TIP3    H131117   0.897   4.407   2.227 -1.5777 -0.6113  0.1312
 3186TIP3    H231118   0.940   4.551   2.214  0.5841 -0.8867  3.1628
 3187TIP3   OH231119   5.091   2.877   1.735 -0.4828 -0.3458  0.4651
 3187TIP3    H131120   5.002   2.886   1.769 -1.0341 -0.9633 -0.7531
 3187TIP3    H231121   5.110   2.962   1.694 -0.6158 -0.3075  0.4845
 3188TIP3   OH231122   0.763   5.930   0.982  0.1934  0.0129 -0.3751
 3188TIP3    H131123   0.796   5.876   0.910 -0.9912  1.9002 -2.4635
 3188TIP3    H231124   0.702   5.872   1.029 -0.4239 -0.7373 -2.0309
 3189TIP3   OH231125   2.226   0.674   6.847 -0.1893  1.2504  0.5807
 3189TIP3    H131126   2.294   0.679   6.780  0.6552  0.1110  1.3027
 3189TIP3    H231127   2.191   0.585   6.839 -2.1603  2.0417 -0.2715
 3190TIP3   OH231128   3.945   1.660   1.510 -0.3092 -0.4243  0.2474
 3190TIP3    H131129   3.991   1.580   1.533 -0.3503 -0.1990  1.1591
 3190TIP3    H231130   3.854   1.645   1.537 -0.2433  0.0541  0.7685
 3191TIP3   OH231131   4.163   5.606   0.830  0.1328  0.0868  0.4812
 3191TIP3    H131132   4.103   5.669   0.869 -0.0019  1.6036 -1.9855
 3191TIP3    H231133   4.189   5.645   0.747  2.0148 -2.0108 -0.0217
 3192TIP3   OH231134   4.755   5.772   7.155 -0.7816 -0.2827 -0.3514
 3192TIP3    H131135   4.827   5.724   7.114 -0.3104 -0.6256  0.8482
 3192TIP3    H231136   4.766   5.862   7.126 -0.4397 -0.5071 -0.9415
 3193TIP3   OH231137   0.637   6.182   0.875  0.3998 -0.4035  0.3304
 3193TIP3    H131138   0.564   6.176   0.937  0.9466  0.5180  1.0873
 3193TIP3    H231139   0.668   6.092   0.865  0.9694 -0.4600  2.2384
 3194TIP3   OH231140   5.805   3.928   0.363  0.4915 -0.6731 -0.4291
 3194TIP3    H131141   5.854   3.985   0.303  1.5647  0.0645  1.0674
 3194TIP3    H231142   5.745   3.987   0.408 -1.3226 -1.4562 -1.7081
 3195TIP3   OH231143   1.033   5.185   7.024  0.2364  0.9325 -0.1208
 3195TIP3    H131144   1.008   5.182   6.932 -3.2476  3.4377  0.4898
 3195TIP3    H231145   0.972   5.124   7.067 -1.0532  2.7677  0.8285
 3196TIP3   OH231146   5.319   4.668   8.373  0.0184 -0.2642  0.0311
 3196TIP3    H131147   5.308   4.598   8.309  0.2459  0.4388 -0.8110
 3196TIP3    H231148   5.285   4.746   8.329 -0.0931  0.1874  0.8868
 3197TIP3   OH231149   0.323   5.190   7.605  0.7769  0.3484 -0.0387
 3197TIP3    H131150   0.242   5.229   7.638  0.9683  0.3100  0.4949
 3197TIP3    H231151   0.355   5.136   7.678  1.1189  0.1166 -0.3553
 3198TIP3   OH231152   1.889   3.128   6.269  0.1441 -0.2433  0.4554
 3198TIP3    H131153   1.815   3.168   6.315  0.0147 -1.2499  1.1754
 3198TIP3    H231154   1.861   3.122   6.178 -0.2298  0.3611  0.5269
 3199TIP3   OH231155   2.147   3.970   1.493 -0.7279 -0.0758  0.5662
 3199TIP3    H131156   2.199   4.020   1.431 -0.2497  0.7979  1.6228
 3199TIP3    H231157   2.212   3.922   1.545 -1.1845 -2.0074 -0.5604
 3200TIP3   OH231158   1.464   5.710   8.419 -0.4471  0.0658 -0.3679
 3200TIP3    H131159   1.442   5.718   8.512  0.4290 -1.9158  0.0668
 3200TIP3    H231160   1.415   5.780   8.377 -1.0621  0.8676  1.5483
 3201TIP3   OH231161   3.401   0.585   8.165 -0.2507 -0.8103 -0.0745
 3201TIP3    H131162   3.397   0.490   8.177 -2.3774 -0.8461 -0.6619
 3201TIP3    H231163   3.372   0.621   8.249 -0.3278 -0.7132 -0.1416
 3202TIP3   OH231164   2.744   6.752   1.118 -0.3259 -0.5119  0.2459
 3202TIP3    H131165   2.744   6.755   1.023  0.0327 -0.0003  0.2557
 3202TIP3    H231166   2.652   6.748   1.142 -0.3959 -2.6713 -0.1549
 3203TIP3   OH231167   3.895   6.402   7.420 -0.2124  0.2895 -0.6432
 3203TIP3    H131168   3.945   6.463   7.475 -0.2583  0.0656 -0.3472
 3203TIP3    H231169   3.897   6.441   7.333 -0.8733  1.0974 -0.3127
 3204TIP3   OH231170   2.275   0.097   8.044  0.7794  0.5175 -0.4691
 3204TIP3    H131171   2.180   0.110   8.050  0.6799  0.3171 -1.3726
 3204TIP3    H231172   2.312   0.167   8.097  0.1233  0.4184  0.1370
 3205TIP3   OH231173   5.664   1.350   7.488  0.1653  0.7529 -0.1117
 3205TIP3    H131174   5.583   1.302   7.474 -0.3606  1.4127  0.5662
 3205TIP3    H231175   5.654   1.389   7.575  1.9599 -0.6040  0.7691
 3206TIP3   OH231176   1.240   5.561   2.137 -0.8083  0.2390 -0.1233
 3206TIP3    H131177   1.313   5.623   2.136 -1.1727  0.6809  0.1526
 3206TIP3    H231178   1.280   5.476   2.119 -0.4309  0.6860 -1.5324
 3207TIP3   OH231179   0.187   4.536   0.165 -0.2352 -0.3955 -0.0530
 3207TIP3    H131180   0.161   4.520   0.256 -0.9070  2.1516  0.3030
 3207TIP3    H231181   0.264   4.481   0.151  0.7605  0.1723  2.5535
 3208TIP3   OH231182   2.348   5.912   1.430  0.0287 -0.1010  0.0753
 3208TIP3    H131183   2.391   5.926   1.515  2.2812  1.5541 -1.2196
 3208TIP3    H231184   2.320   5.821   1.432 -0.3769 -0.0052  2.7349
 3209TIP3   OH231185   2.273   1.767   1.341 -0.2964  0.0436  0.2984
 3209TIP3    H131186   2.302   1.807   1.259 -2.2529 -1.7756 -1.4268
 3209TIP3    H231187   2.219   1.834   1.383  1.6025  1.3825  0.7073
 3210TIP3   OH231188   4.010   2.586   1.252  0.7561  0.1664 -0.0845
 3210TIP3    H131189   3.964   2.515   1.207  0.8841  0.1738 -0.2279
 3210TIP3    H231190   4.100   2.555   1.262  0.9341  0.5048 -0.5902
 3211TIP3   OH231191   5.627   0.826   7.950 -0.2975  0.1893  0.2133
 3211TIP3    H131192   5.615   0.859   8.039 -0.2910  0.0330  0.2724
 3211TIP3    H231193   5.666   0.740   7.961 -1.7607 -0.5108  0.1057
 3212TIP3   OH231194   6.379   2.360   1.757 -0.1100  0.1429 -0.3400
 3212TIP3    H131195   6.294   2.379   1.796  0.1459 -0.3234  0.4736
 3212TIP3    H231196   6.437   2.345   1.832  0.6518  0.3010 -0.8828
 3213TIP3   OH231197   6.796   2.522   1.732 -0.2187  0.5245 -0.0302
 3213TIP3    H131198   6.836   2.442   1.767 -0.8269 -0.5633 -1.6662
 3213TIP3    H231199   6.783   2.578   1.808 -0.0402 -1.0648  1.2224
 3214TIP3   OH231200   1.265   1.752   0.893 -0.3122 -0.0080  0.3075
 3214TIP3    H131201   1.302   1.703   0.819 -1.1593  0.1065 -0.2115
 3214TIP3    H231202   1.194   1.696   0.925 -0.0034 -0.0156  0.9824
 3215TIP3   OH231203   5.066   4.816   1.706  0.3918 -0.1571  0.0455
 3215TIP3    H131204   5.065   4.833   1.800 -2.4553  2.5304 -0.2981
 3215TIP3    H231205   5.141   4.866   1.674 -0.5576  1.7177  0.5919
 3216TIP3   OH231206   2.092   0.967   7.003 -0.1533  0.8001  1.0188
 3216TIP3    H131207   2.134   0.996   6.922 -0.6242  0.7475  0.7555
 3216TIP3    H231208   2.003   1.001   6.998 -0.8711 -1.0296  0.4887
 3217TIP3   OH231209   3.830   0.942   0.785 -0.1621  0.0017 -0.3663
 3217TIP3    H131210   3.872   0.991   0.855 -0.6051  0.8280 -0.6674
 3217TIP3    H231211   3.890   0.948   0.711 -0.5337  0.6935 -0.6186
 3218TIP3   OH231212   2.389   5.035   0.172 -0.2365 -0.3984  0.5408
 3218TIP3    H131213   2.386   4.997   0.084  0.5580  0.7414 -0.0109
 3218TIP3    H231214   2.387   5.129   0.157  2.7854 -0.0595  1.5296
 3219TIP3   OH231215   5.757   1.683   6.350  0.0056  0.0911 -0.2055
 3219TIP3    H131216   5.759   1.760   6.408 -0.1976 -0.0643  0.0103
 3219TIP3    H231217   5.846   1.677   6.316  0.4607 -0.5228  1.0301
 3220TIP3   OH231218   4.685   6.675   8.276  0.7583 -0.4425  0.1060
 3220TIP3    H131219   4.729   6.599   8.239  1.7807  0.0094  0.3776
 3220TIP3    H231220   4.676   6.736   8.203 -1.7373 -1.5024 -0.5909
 3221TIP3   OH231221   0.459   3.720   8.117 -0.0470 -0.2576  0.2727
 3221TIP3    H131222   0.510   3.684   8.190  0.1486  0.0130  0.2674
 3221TIP3    H231223   0.412   3.644   8.082  1.3290 -0.7605 -0.5303
 3222TIP3   OH231224   3.758   4.291   0.433  0.6312 -0.4689  1.0727
 3222TIP3    H131225   3.850   4.285   0.405  0.1902 -2.8990 -0.1604
 3222TIP3    H231226   3.761   4.276   0.527  1.4707 -1.3428  0.9307
 3223TIP3   OH231227   1.394   5.231   7.665 -0.2557 -0.3954 -0.2747
 3223TIP3    H131228   1.402   5.322   7.635  0.2441 -0.0076  0.9597
 3223TIP3    H231229   1.366   5.183   7.588 -0.4285  0.7927 -0.9848
 3224TIP3   OH231230   5.814   5.094   2.303  0.3851 -0.1680 -0.2324
 3224TIP3    H131231   5.823   5.189   2.308 -0.7885 -0.1177  1.9017
 3224TIP3    H231232   5.787   5.068   2.390  0.8319 -2.5088 -0.7303
 3225TIP3   OH231233   0.421   0.129   8.435 -0.3786  0.2304 -0.4924
 3225TIP3    H131234   0.347   0.104   8.379 -0.2897  0.3567 -0.6685
 3225TIP3    H231235   0.423   0.063   8.504 -0.7095  0.2784 -0.4397
 3226TIP3   OH231236   4.535   4.434   1.401 -0.0868 -0.4497  0.2680
 3226TIP3    H131237   4.565   4.414   1.490  0.5323 -0.2492  0.1093
 3226TIP3    H231238   4.615   4.439   1.349 -0.4131 -0.1213 -0.2149
 3227TIP3   OH231239   3.136   3.124   2.173 -0.8498  0.3978 -0.3083
 3227TIP3    H131240   3.183   3.049   2.209 -2.1897  0.1567  1.0106
 3227TIP3    H231241   3.114   3.178   2.248  0.0509  2.1470 -1.2316
 3228TIP3   OH231242   4.272   6.057   1.266  0.3678 -0.1345 -0.6134
 3228TIP3    H131243   4.360   6.061   1.303  0.1670 -1.3078  0.0590
 3228TIP3    H231244   4.263   6.138   1.216  1.8669 -0.0505 -0.7993
 3229TIP3   OH231245   4.411   4.302   7.402 -0.3685  0.4532  0.0031
 3229TIP3    H131246   4.344   4.234   7.402 -0.8655  0.9066 -1.3135
 3229TIP3    H231247   4.432   4.315   7.309  0.3559  1.4727  0.2888
 3230TIP3   OH231248   1.718   6.386   8.389  0.2784  0.6439 -0.1424
 3230TIP3    H131249   1.681   6.347   8.468 -0.6329  0.5138 -0.6152
 3230TIP3    H231250   1.782   6.450   8.421  1.5495 -0.9496  0.6593
 3231TIP3   OH231251   2.919   4.515   7.826 -0.2972  0.1332  0.6992
 3231TIP3    H131252   2.842   4.502   7.882 -0.9403  0.8614  0.0090
 3231TIP3    H231253   2.937   4.609   7.833 -1.9778  0.7821 -2.2849
 3232TIP3   OH231254   3.640   0.100   0.411 -0.3415 -0.6044  0.5599
 3232TIP3    H131255   3.631   0.084   0.505  0.3325  0.0457  0.7449
 3232TIP3    H231256   3.585   0.176   0.393  1.1979  0.6375  0.8657
 3233TIP3   OH231257   4.405   1.195   7.983 -0.0313 -0.0975 -0.1204
 3233TIP3    H131258   4.339   1.208   7.915  0.2581 -0.9040 -0.5625
 3233TIP3    H231259   4.356   1.198   8.065 -0.2715  1.7581 -0.2733
 3234TIP3   OH231260   6.578   0.679   1.997 -0.1182  0.0029 -0.0221
 3234TIP3    H131261   6.618   0.713   2.077  1.0891  0.2684 -0.7258
 3234TIP3    H231262   6.500   0.734   1.984  0.7128  1.1946 -0.0452
 3235TIP3   OH231263   6.593   1.493   8.284 -0.4720 -0.1258  0.2179
 3235TIP3    H131264   6.649   1.444   8.224 -2.1556 -1.5699 -0.2604
 3235TIP3    H231265   6.509   1.500   8.239 -0.6991  2.1052  0.8538
 3236TIP3   OH231266   4.169   4.718   2.488  0.5258  0.1706  0.2369
 3236TIP3    H131267   4.245   4.735   2.543  0.3690  1.1844  0.1606
 3236TIP3    H231268   4.125   4.803   2.482 -1.1675 -0.5994  1.1050
 3237TIP3   OH231269   0.782   2.784   7.699  0.7471 -0.0746  0.4489
 3237TIP3    H131270   0.855   2.834   7.663 -0.4678 -0.2622 -2.5341
 3237TIP3    H231271   0.801   2.693   7.677  0.1060 -0.2437  0.5694
 3238TIP3   OH231272   3.819   6.779   8.524  0.1944  0.0231  0.2007
 3238TIP3    H131273   3.903   6.758   8.566 -0.7162 -1.5432  1.3494
 3238TIP3    H231274   3.778   6.694   8.509 -1.5166  0.7795  0.3842
 3239TIP3   OH231275   0.624   0.495   7.551 -0.0036  0.0147 -0.1616
 3239TIP3    H131276   0.636   0.416   7.604  1.0660  0.9966  1.1177
 3239TIP3    H231277   0.693   0.492   7.486  0.3649  0.1409  0.2182
 3240TIP3   OH231278   5.137   1.144   7.209 -0.5194  0.0223  0.3852
 3240TIP3    H131279   5.073   1.130   7.138 -1.6128 -0.3392  1.4074
 3240TIP3    H231280   5.154   1.238   7.207  1.1173 -0.2491 -1.7105
 3241TIP3   OH231281   6.188   5.404   7.796  0.0233  0.4868  0.8515
 3241TIP3    H131282   6.242   5.386   7.873  0.4900 -0.3351  0.3470
 3241TIP3    H231283   6.158   5.317   7.767 -3.4809  0.9789  2.4397
 3242TIP3   OH231284   4.849   1.004   8.060  0.3272  0.3940 -0.8069
 3242TIP3    H131285   4.841   1.085   8.009 -2.2153  0.0059 -1.1755
 3242TIP3    H231286   4.848   0.934   7.994  2.3295 -0.0012 -0.4845
 3243TIP3   OH231287   3.191   4.421   1.376  1.0054  0.1811  0.5206
 3243TIP3    H131288   3.122   4.373   1.422  2.7755 -1.1869  1.8629
 3243TIP3    H231289   3.165   4.513   1.384 -1.0096 -0.3366  0.3628
 3244TIP3   OH231290   5.199   4.570   1.604  0.5748  0.4129 -0.3045
 3244TIP3    H131291   5.151   4.649   1.626 -0.3769 -0.6491  1.6251
 3244TIP3    H231292   5.180   4.555   1.511 -2.7711  0.1077  0.3357
 3245TIP3   OH231293   5.499   3.552   7.149  0.3199 -0.1580 -0.0770
 3245TIP3    H131294   5.532   3.619   7.089  0.0791 -0.5678 -0.6834
 3245TIP3    H231295   5.438   3.500   7.096  0.5672 -0.9087  0.3562
 3246TIP3   OH231296   1.835   5.050   6.679 -0.5963 -0.9079 -0.1232
 3246TIP3    H131297   1.783   5.124   6.709 -0.4775 -0.7881 -0.2118
 3246TIP3    H231298   1.801   4.976   6.729 -1.2327 -0.9346 -0.5698
 3247TIP3   OH231299   5.363   6.253   0.075  0.1194  0.4225 -0.0557
 3247TIP3    H131300   5.365   6.256  -0.021  0.0067  0.8533 -0.0481
 3247TIP3    H231301   5.375   6.161   0.096  0.5912  0.3813 -0.4742
 3248TIP3   OH231302   5.510   3.083   0.063 -0.0543 -0.0982 -0.2687
 3248TIP3    H131303   5.606   3.087   0.069 -0.1068  1.9885 -0.1385
 3248TIP3    H231304   5.486   3.157   0.008 -1.6702  0.3052  0.9007
 3249TIP3   OH231305   3.760   0.197   1.321  0.7220  0.6737  0.5862
 3249TIP3    H131306   3.786   0.146   1.244  0.0681  1.1734  0.0129
 3249TIP3    H231307   3.755   0.287   1.288 -1.4153  0.6403  0.7235
 3250TIP3   OH231308   4.759   0.830   2.032  0.1934 -1.1876  0.0639
 3250TIP3    H131309   4.691   0.857   2.094  0.2680  0.6575 -0.5872
 3250TIP3    H231310   4.840   0.865   2.070  0.5552 -1.9450  0.0063
 3251TIP3   OH231311   0.643   0.636   0.813 -0.1009 -0.0697  0.1325
 3251TIP3    H131312   0.712   0.595   0.867  0.0163  0.9840  0.8261
 3251TIP3    H231313   0.596   0.563   0.775  0.3628 -0.8482  0.9968
 3252TIP3   OH231314   5.898   0.521   0.897 -0.2736  0.6257  1.1286
 3252TIP3    H131315   5.920   0.441   0.849 -0.1103  1.0890  0.4260
 3252TIP3    H231316   5.982   0.553   0.929 -0.0308  1.6741 -0.4310
 3253TIP3   OH231317   6.311   1.023   1.104  0.7229  0.2157 -0.1748
 3253TIP3    H131318   6.359   0.954   1.151 -0.2047 -0.1185  0.3190
 3253TIP3    H231319   6.368   1.099   1.108  2.3129 -0.8199 -1.7639
 3254TIP3   OH231320   0.607   0.279   1.759 -0.3758  0.0871 -0.1887
 3254TIP3    H131321   0.694   0.311   1.784 -0.6823  1.1028 -0.3833
 3254TIP3    H231322   0.578   0.229   1.834  0.2415  0.0148  0.0109
 3255TIP3   OH231323   6.270   6.735   7.190 -0.2486  0.6618 -0.4362
 3255TIP3    H131324   6.339   6.718   7.254 -0.7378  1.1979  0.2443
 3255TIP3    H231325   6.278   6.662   7.128  0.6296  0.4669 -0.1225
 3256TIP3   OH231326   1.091   2.595   8.179 -0.4755  0.2199 -0.0242
 3256TIP3    H131327   1.043   2.514   8.165  1.8176 -1.5078  1.4238
 3256TIP3    H231328   1.124   2.620   8.092  2.2179 -2.7740 -0.0474
 3257TIP3   OH231329   2.496   1.524   7.626  0.7848  0.0689  0.2009
 3257TIP3    H131330   2.498   1.442   7.577  0.7859 -0.3124  0.8340
 3257TIP3    H231331   2.492   1.498   7.718 -1.4090  0.7458  0.3738
 3258TIP3   OH231332   3.995   5.136   1.587 -0.2056  0.0292  0.0005
 3258TIP3    H131333   3.974   5.211   1.643  0.5094  0.4934 -0.3412
 3258TIP3    H231334   4.071   5.096   1.629 -0.6659 -0.6033  0.2591
 3259TIP3   OH231335   4.036   5.645   7.013  0.5813 -0.1348 -0.8727
 3259TIP3    H131336   3.941   5.654   7.019  0.5568  0.5761 -2.0080
 3259TIP3    H231337   4.065   5.633   7.104 -0.4574  1.1923 -0.3333
 3260TIP3   OH231338   1.378   6.900   7.523  0.0541  0.2422 -0.4976
 3260TIP3    H131339   1.410   6.846   7.450 -1.2646  0.0226 -0.9569
 3260TIP3    H231340   1.435   6.878   7.596  2.0123  1.1618 -1.6815
 3261TIP3   OH231341   0.042   5.226   8.408  0.1248  0.1102 -0.5178
 3261TIP3    H131342  -0.050   5.214   8.431  0.3285 -0.7041 -0.0498
 3261TIP3    H231343   0.084   5.144   8.436  0.9711  0.4302 -0.8138
 3262TIP3   OH231344   5.194   1.845   8.391  0.2127 -0.6264 -0.0516
 3262TIP3    H131345   5.196   1.766   8.444 -0.1918 -0.0939  0.7771
 3262TIP3    H231346   5.285   1.867   8.376  0.3427 -0.3034  1.1561
 3263TIP3   OH231347   1.091   1.132   8.406 -0.0592  0.2130  0.1786
 3263TIP3    H131348   1.086   1.223   8.435  2.9512  0.6069 -0.2315
 3263TIP3    H231349   1.181   1.121   8.376 -0.5324 -2.7189 -0.4881
 3264TIP3   OH231350   5.641   5.872   1.088 -0.5146 -0.5484  0.5580
 3264TIP3    H131351   5.678   5.918   1.164  0.7453 -1.5743  0.5906
 3264TIP3    H231352   5.598   5.795   1.125 -0.0593 -0.9534  0.2456
 3265TIP3   OH231353   3.416   2.026   2.125  0.4363 -0.7854  0.1869
 3265TIP3    H131354   3.497   1.980   2.102  1.7101 -0.1601  2.9759
 3265TIP3    H231355   3.397   1.999   2.215  0.2007  2.5839  1.3020
 3266TIP3   OH231356   0.266   2.577   0.290 -0.2345  0.6577 -0.3610
 3266TIP3    H131357   0.340   2.542   0.341  0.4296  0.5860 -1.3417
 3266TIP3    H231358   0.278   2.672   0.292 -1.5077  0.8305  1.5090
 3267TIP3   OH231359   0.763   3.880   0.152  0.3047 -0.7407 -0.0971
 3267TIP3    H131360   0.740   3.928   0.232 -2.4376 -0.1298 -1.1592
 3267TIP3    H231361   0.856   3.899   0.140  0.0714  1.7964  1.2552
 3268TIP3   OH231362   6.508   2.753   1.942  0.7271  0.3216  0.0935
 3268TIP3    H131363   6.567   2.679   1.927  0.9348  0.7104 -1.1598
 3268TIP3    H231364   6.530   2.815   1.873  0.3011  1.4024  0.9028
 3269TIP3   OH231365   1.712   6.359   1.331  0.3810  0.4544 -0.5450
 3269TIP3    H131366   1.661   6.371   1.252 -0.5947  0.8672  0.1286
 3269TIP3    H231367   1.775   6.432   1.331  1.6712 -0.6045 -1.8677
 3270TIP3   OH231368   0.963   4.847   7.383  0.1360  0.1727 -0.4389
 3270TIP3    H131369   1.008   4.928   7.406 -1.4581  1.0232 -0.1349
 3270TIP3    H231370   0.898   4.874   7.317  0.5356 -1.1334 -1.4034
 3271TIP3   OH231371   3.080   5.093   1.636 -0.0369 -0.7259 -0.6014
 3271TIP3    H131372   3.113   5.177   1.665 -0.3719  0.0667 -2.3799
 3271TIP3    H231373   3.157   5.037   1.630  0.4525 -0.0038 -1.1374
 3272TIP3   OH231374   6.899   6.342   7.462 -0.0554  0.1476 -0.2135
 3272TIP3    H131375   6.902   6.246   7.461 -0.9250  0.0936  0.8035
 3272TIP3    H231376   6.815   6.364   7.422  0.0004  0.4722 -0.1546
 3273TIP3   OH231377   1.927   4.498   0.446  0.1618 -0.2927 -0.2426
 3273TIP3    H131378   1.888   4.414   0.423 -1.3376  0.4104 -0.3634
 3273TIP3    H231379   1.991   4.476   0.515 -1.4209 -1.3398  0.9874
 3274TIP3   OH231380   3.177   2.606   1.441  0.1081 -0.5435 -0.5170
 3274TIP3    H131381   3.083   2.619   1.424  0.3342  1.0875 -0.6351
 3274TIP3    H231382   3.214   2.583   1.355  0.0330  0.2159 -0.7603
 3275TIP3   OH231383   2.941   4.822   7.809 -0.1257 -0.0071  0.0384
 3275TIP3    H131384   2.914   4.818   7.717 -2.2656 -0.7669  0.6525
 3275TIP3    H231385   2.928   4.913   7.834 -0.8076 -0.0681 -0.0737
 3276TIP3   OH231386   4.009   0.709   7.603  0.1387  0.0224 -0.3319
 3276TIP3    H131387   3.991   0.801   7.620 -0.9073 -0.1830 -0.2826
 3276TIP3    H231388   4.076   0.709   7.535 -0.4840  0.8155 -0.9518
 3277TIP3   OH231389   3.778   4.831   0.836 -0.2324 -0.8304  0.1185
 3277TIP3    H131390   3.697   4.876   0.857 -0.0752 -0.0664 -0.8439
 3277TIP3    H231391   3.808   4.794   0.920 -1.4092 -0.8812  0.5252
 3278TIP3   OH231392   2.521   4.315   8.251  0.5513  0.7280 -0.4160
 3278TIP3    H131393   2.529   4.408   8.271 -0.5589  0.7123  0.1621
 3278TIP3    H231394   2.428   4.296   8.260  0.8865 -0.6561  0.4806
 3279TIP3   OH231395   2.392   0.349   8.152 -0.8557 -0.1019  0.2844
 3279TIP3    H131396   2.427   0.361   8.064 -1.0900 -2.1013 -0.1341
 3279TIP3    H231397   2.317   0.407   8.156 -0.2017  0.8264 -0.4382
 3280TIP3   OH231398   3.272   2.193   7.269 -0.3974 -0.0904 -0.3021
 3280TIP3    H131399   3.178   2.211   7.266 -0.2609  0.8311  0.5356
 3280TIP3    H231400   3.301   2.203   7.178 -0.6542  2.2940 -0.1952
 3281TIP3   OH231401   0.719   1.933   1.543  0.1751  0.5087  0.1041
 3281TIP3    H131402   0.625   1.952   1.538  0.4927  2.0091 -0.5522
 3281TIP3    H231403   0.761   2.010   1.505  1.6707 -0.2677  0.1332
 3282TIP3   OH231404   2.942   4.383   8.167 -0.2102 -0.1037 -0.4897
 3282TIP3    H131405   2.964   4.301   8.125 -0.7870 -0.2874 -0.4439
 3282TIP3    H231406   3.016   4.401   8.225  0.7523  0.3252 -1.8025
 3283TIP3   OH231407   1.975   3.561   0.521 -0.2350  0.5589 -0.4856
 3283TIP3    H131408   1.904   3.500   0.537 -0.8955  1.4905  0.2454
 3283TIP3    H231409   2.051   3.506   0.505 -0.3092 -0.5245  2.2729
 3284TIP3   OH231410   3.499   6.672   0.900 -0.3525  0.3437  0.0861
 3284TIP3    H131411   3.539   6.686   0.986 -0.1097  1.5218 -0.2099
 3284TIP3    H231412   3.528   6.746   0.848 -1.8326  0.5065 -0.5422
 3285TIP3   OH231413   0.503   0.901   1.217 -0.0091 -0.4075  0.0503
 3285TIP3    H131414   0.554   0.967   1.264 -1.1415 -0.1852  1.0212
 3285TIP3    H231415   0.531   0.910   1.125  0.0899  1.2190  0.2096
 3286TIP3   OH231416   0.844   6.807   8.540 -0.3191 -0.1482 -0.9349
 3286TIP3    H131417   0.789   6.879   8.571 -1.2222 -1.1086 -0.2324
 3286TIP3    H231418   0.932   6.829   8.570 -0.6240  0.5697 -0.5481
 3287TIP3   OH231419   6.360   0.028   8.339  0.1576  0.3931 -0.3166
 3287TIP3    H131420   6.328  -0.026   8.411  0.6311  1.0589  0.4073
 3287TIP3    H231421   6.445  -0.009   8.317 -1.6341 -2.4398 -3.3605
 3288TIP3   OH231422   6.270   6.673   0.150  0.0139  0.2307 -0.0549
 3288TIP3    H131423   6.346   6.729   0.135  0.1701 -0.4475 -2.0212
 3288TIP3    H231424   6.206   6.700   0.084 -0.3187 -1.1518 -0.3353
 3289TIP3   OH231425   5.243   6.777   0.469 -0.3913 -0.6119  0.0275
 3289TIP3    H131426   5.266   6.697   0.516 -1.8567 -1.3101 -0.3838
 3289TIP3    H231427   5.230   6.750   0.378 -0.8446  0.0926 -0.1341
 3290TIP3   OH231428   4.822   4.523   1.409  0.2903  0.0044  0.4065
 3290TIP3    H131429   4.868   4.605   1.425 -0.8985  0.9391 -0.6771
 3290TIP3    H231430   4.883   4.455   1.436  1.5070  1.2308  0.8584
 3291TIP3   OH231431   2.779   4.124   0.121 -0.1952  0.4496 -0.8139
 3291TIP3    H131432   2.747   4.187   0.185  0.4173  0.6647 -0.7191
 3291TIP3    H231433   2.766   4.167   0.036  0.7546  0.9498 -0.7159
 3292TIP3   OH231434   4.921   2.637   6.545  0.7256  0.5321 -1.2297
 3292TIP3    H131435   4.920   2.732   6.535  1.4073  0.5914 -0.8417
 3292TIP3    H231436   4.859   2.605   6.480  0.6899  1.2256 -1.5472
 3293TIP3   OH231437   4.608   5.995   8.375 -0.5125 -0.0878 -0.1111
 3293TIP3    H131438   4.517   5.980   8.349 -0.7215  0.3861  0.3225
 3293TIP3    H231439   4.603   6.066   8.439  0.2564  0.6069 -0.7929
 3294TIP3   OH231440   1.222   0.842   0.162  0.2533  0.2148 -0.1617
 3294TIP3    H131441   1.286   0.849   0.092  0.3692  0.4494 -0.0335
 3294TIP3    H231442   1.272   0.805   0.236 -0.5445 -3.1554 -1.1102
 3295TIP3   OH231443   2.695   1.111   7.794  0.1873 -0.0317  0.0149
 3295TIP3    H131444   2.680   1.163   7.873 -1.8730  1.0925 -1.0309
 3295TIP3    H231445   2.701   1.021   7.826 -1.8746  0.2368  1.3870
 3296TIP3   OH231446   2.034   0.395   2.063  0.1342  0.2086 -0.7391
 3296TIP3    H131447   1.999   0.475   2.022  0.1807  1.0963  0.8909
 3296TIP3    H231448   2.128   0.412   2.072 -0.0338  0.4701  0.6707
 3297TIP3   OH231449   0.159   0.927   1.360 -0.1083 -0.8092 -0.0604
 3297TIP3    H131450   0.181   0.973   1.441  0.9645 -1.5775  0.1020
 3297TIP3    H231451   0.066   0.907   1.368 -0.1485 -0.3245  0.7046
 3298TIP3   OH231452   3.224   1.413   0.638 -0.4085  0.0848 -0.2878
 3298TIP3    H131453   3.242   1.485   0.699  1.6841 -1.1647  0.7016
 3298TIP3    H231454   3.244   1.334   0.689 -3.8881 -1.3650 -0.8721
 3299TIP3   OH231455   0.983   5.445   7.892  0.6827 -0.0918 -0.1017
 3299TIP3    H131456   0.978   5.437   7.797 -1.6433  0.7002 -0.1080
 3299TIP3    H231457   1.055   5.505   7.908 -1.2814  2.9227 -1.6579
 3300TIP3   OH231458   2.779   0.866   7.898  0.0327  0.2869 -0.0373
 3300TIP3    H131459   2.861   0.827   7.870 -0.7646 -1.7297  0.2695
 3300TIP3    H231460   2.791   0.883   7.991 -0.1653 -0.8085  0.2009
 3301TIP3   OH231461   3.181   5.968   7.233 -0.6191  0.1934 -0.0908
 3301TIP3    H131462   3.167   5.879   7.265  1.7516  0.0094  0.6169
 3301TIP3    H231463   3.250   6.003   7.288 -0.2044  1.8304 -1.5529
 3302TIP3   OH231464   3.524   1.684   8.166 -0.0225 -0.3175 -0.1054
 3302TIP3    H131465   3.549   1.767   8.126 -1.8458 -0.3376 -1.4326
 3302TIP3    H231466   3.450   1.706   8.222 -1.5243 -1.2080 -1.6471
 3303TIP3   OH231467   6.882   6.159   1.380 -0.3211 -1.0079  0.8195
 3303TIP3    H131468   6.870   6.134   1.472 -0.7421  0.7267  1.2653
 3303TIP3    H231469   6.974   6.140   1.362  0.0418 -0.4297  1.9265
 3304TIP3   OH231470   6.526   3.546   0.855  0.3038 -0.0765 -0.6182
 3304TIP3    H131471   6.546   3.473   0.913 -0.2583 -0.4268 -0.8535
 3304TIP3    H231472   6.454   3.592   0.899 -1.1445 -1.1927 -1.7002
 3305TIP3   OH231473   3.218   2.835   7.602  0.3158 -0.2727 -0.0051
 3305TIP3    H131474   3.149   2.777   7.633  0.5245  0.5066  2.1032
 3305TIP3    H231475   3.283   2.836   7.673  1.3854  0.8043 -0.9357
 3306TIP3   OH231476   6.730   2.160   0.639  0.7333  0.1408 -0.8155
 3306TIP3    H131477   6.789   2.135   0.568  2.0617 -1.8444  0.8618
 3306TIP3    H231478   6.754   2.250   0.661  3.3208 -0.6568 -0.1011
 3307TIP3   OH231479   6.580   1.110   6.904  0.0389  0.2899 -0.2409
 3307TIP3    H131480   6.506   1.165   6.931  0.3116  0.9764 -0.8445
 3307TIP3    H231481   6.560   1.024   6.939 -1.9687  0.0073 -1.8548
 3308TIP3   OH231482   4.956   3.046   0.714  0.5515 -0.3635  0.1181
 3308TIP3    H131483   4.879   3.003   0.751 -0.4725  0.2586 -1.1966
 3308TIP3    H231484   5.028   3.022   0.772 -0.4033 -1.9734  0.6887
 3309TIP3   OH231485   1.779   0.564   1.131 -0.2263  0.2831  0.1427
 3309TIP3    H131486   1.774   0.655   1.102 -2.1776  1.0604  2.5007
 3309TIP3    H231487   1.848   0.564   1.198 -2.7588  1.1257  3.0164
 3310TIP3   OH231488   0.097   0.681   0.283  0.0240  0.0696  0.3278
 3310TIP3    H131489   0.028   0.732   0.241 -0.1095  0.0806  0.5549
 3310TIP3    H231490   0.056   0.597   0.302  0.0363  0.1176  0.5701
 3311TIP3   OH231491   1.962   1.829   6.778  0.0549 -0.1865  0.4951
 3311TIP3    H131492   1.948   1.810   6.685  0.4334 -1.2430  0.6466
 3311TIP3    H231493   2.041   1.780   6.801  0.3154  0.5559  1.2304
 3312TIP3   OH231494   4.547   5.890   0.867 -0.1447  0.1174  0.1716
 3312TIP3    H131495   4.535   5.830   0.941 -0.2390  0.0305  0.0858
 3312TIP3    H231496   4.550   5.977   0.907  2.3338 -0.0782  0.5598
 3313TIP3   OH231497   3.807   6.738   7.381 -0.5476 -0.3860 -0.0130
 3313TIP3    H131498   3.775   6.672   7.442 -0.6486 -0.6296 -0.3272
 3313TIP3    H231499   3.736   6.749   7.318 -0.3034 -0.3980 -0.2917
 3314TIP3   OH231500   1.438   5.774   1.026  0.3587  0.2059  0.2798
 3314TIP3    H131501   1.402   5.862   1.038 -0.9612 -0.3145  0.3316
 3314TIP3    H231502   1.388   5.738   0.952  1.2259 -0.3211 -0.0552
 3315TIP3   OH231503   1.272   1.379   0.379 -0.2704 -0.0034  0.6306
 3315TIP3    H131504   1.189   1.388   0.426 -0.8082  1.0759 -0.4667
 3315TIP3    H231505   1.263   1.297   0.331 -0.8503  0.2672  0.2648
 3316TIP3   OH231506   6.539   4.290   2.482  0.5743  0.2209 -0.4979
 3316TIP3    H131507   6.626   4.322   2.460  0.8199  0.2794  0.5270
 3316TIP3    H231508   6.553   4.207   2.525  0.1861  0.6151  0.4164
 3317TIP3   OH231509   2.838   1.949   8.095  0.3134  0.1570  0.2477
 3317TIP3    H131510   2.895   2.015   8.056 -0.8510 -0.1487 -2.2223
 3317TIP3    H231511   2.859   1.869   8.047 -0.0585 -0.6711  1.4358
 3318TIP3   OH231512   0.983   2.096   8.409 -0.9102 -0.0498 -0.6538
 3318TIP3    H131513   1.057   2.039   8.392 -0.3515  0.0443  1.3102
 3318TIP3    H231514   0.906   2.041   8.395 -0.4507 -0.5283 -1.3323
 3319TIP3   OH231515   2.295   6.330   1.916  0.3987  0.1184  0.1271
 3319TIP3    H131516   2.266   6.417   1.888  0.9040  0.6250  1.1211
 3319TIP3    H231517   2.289   6.332   2.011  0.4917 -0.9172  0.1708
 3320TIP3   OH231518   4.244   3.624   7.083 -0.2306  0.0595  0.7954
 3320TIP3    H131519   4.274   3.690   7.020 -1.7513 -1.0712 -1.2057
 3320TIP3    H231520   4.268   3.540   7.044 -2.5673 -0.7300  0.9157
 3321TIP3   OH231521   6.417   4.531   0.259 -0.4114 -0.0806 -0.1675
 3321TIP3    H131522   6.426   4.626   0.269  2.2786 -0.0378 -1.8844
 3321TIP3    H231523   6.373   4.520   0.175  1.4728 -0.2567 -1.1948
 3322TIP3   OH231524   6.444   6.055   2.104  0.4351 -0.5076  0.3210
 3322TIP3    H131525   6.372   6.108   2.071  1.2857  1.0123  0.8102
 3322TIP3    H231526   6.404   5.996   2.168 -0.4550 -0.0926  0.1554
 3323TIP3   OH231527   1.965   1.544   6.967  0.2370  0.1945  0.4645
 3323TIP3    H131528   2.047   1.580   7.000 -0.2950  0.0367  2.0218
 3323TIP3    H231529   1.900   1.613   6.983 -0.6766 -1.1167  2.9613
 3324TIP3   OH231530   2.668   3.107   6.019  0.1754 -0.1162 -0.2364
 3324TIP3    H131531   2.723   3.162   5.963 -0.4097  1.7663  0.9360
 3324TIP3    H231532   2.610   3.168   6.063 -0.6351 -1.7164  1.0408
 3325TIP3   OH231533   5.341   3.938   2.536 -0.1930  0.4242  0.4554
 3325TIP3    H131534   5.424   3.985   2.527 -0.4834  0.9924  0.7263
 3325TIP3    H231535   5.284   3.977   2.470  0.9152 -2.6288 -2.5684
 3326TIP3   OH231536   4.775   6.238   1.496 -0.2790 -0.0375 -0.4020
 3326TIP3    H131537   4.687   6.243   1.459 -0.3534  0.3624 -0.1797
 3326TIP3    H231538   4.833   6.257   1.423 -0.4205  0.6742 -0.3418
 3327TIP3   OH231539   0.843   4.113   8.355  0.0765 -0.1624  0.2138
 3327TIP3    H131540   0.916   4.167   8.386  0.5672 -1.5643  1.6244
 3327TIP3    H231541   0.802   4.165   8.286  3.6039 -0.1132 -2.1046
 3328TIP3   OH231542   4.464   2.381   0.457  0.2344  0.7347 -0.5384
 3328TIP3    H131543   4.392   2.422   0.506  0.4557  0.8730 -0.3302
 3328TIP3    H231544   4.440   2.289   0.453  0.6851  0.5433  0.6716
 3329TIP3   OH231545   0.228   4.029   0.718 -0.2493 -0.2953 -0.4463
 3329TIP3    H131546   0.291   4.099   0.702  0.4934 -0.3671  1.7733
 3329TIP3    H231547   0.144   4.067   0.694  0.3397  0.7605 -0.9117
 3330TIP3   OH231548   6.857   6.440   0.526  0.6241 -0.0965 -0.0590
 3330TIP3    H131549   6.766   6.463   0.544  1.0138  1.0149  0.5320
 3330TIP3    H231550   6.884   6.500   0.457  1.3965  0.7048  0.9152
 3331TIP3   OH231551   1.598   4.511   0.986  0.7747 -0.3912  0.2978
 3331TIP3    H131552   1.582   4.529   0.893  0.5112 -0.1910  0.3805
 3331TIP3    H231553   1.510   4.500   1.023  0.8901 -3.4275 -0.0415
 3332TIP3   OH231554   5.308   1.613   1.280 -1.0051  0.2035  0.2116
 3332TIP3    H131555   5.332   1.631   1.371  0.2968  0.6220 -0.1932
 3332TIP3    H231556   5.327   1.520   1.268 -1.4214  0.0858  0.4246
 3333TIP3   OH231557   2.030   6.185   1.909 -0.1091  0.0069 -0.1168
 3333TIP3    H131558   2.021   6.158   2.000  0.0491 -0.1758 -0.1540
 3333TIP3    H231559   2.122   6.209   1.899 -0.1692  0.2177 -0.1777
 3334TIP3   OH231560   2.991   0.559   7.489 -0.0685  0.5732  0.1354
 3334TIP3    H131561   2.907   0.602   7.476 -1.0778 -1.5057 -0.6667
 3334TIP3    H231562   3.000   0.552   7.584 -0.5237  1.2811  0.2352
 3335TIP3   OH231563   3.084   4.968   0.917 -0.5337 -0.6967  0.3190
 3335TIP3    H131564   3.004   4.944   0.869 -0.8807  2.2036 -0.7336
 3335TIP3    H231565   3.155   4.955   0.854 -0.5862 -0.2019  0.1500
 3336TIP3   OH231566   0.481   3.417   1.918  0.4125 -0.2188  0.0668
 3336TIP3    H131567   0.446   3.337   1.878 -0.3086  0.7943 -1.4486
 3336TIP3    H231568   0.419   3.437   1.988 -0.6630  0.2007 -0.9849
 3337TIP3   OH231569   5.569   4.344   7.544 -0.6575  0.2968  0.1510
 3337TIP3    H131570   5.491   4.341   7.488 -0.0614  0.0757 -0.6947
 3337TIP3    H231571   5.599   4.253   7.547  0.4496  0.6025 -0.8423
 3338TIP3   OH231572   3.176   6.097   0.152 -0.0902 -0.4071  0.3575
 3338TIP3    H131573   3.179   6.193   0.158 -1.3155 -0.2023 -1.4565
 3338TIP3    H231574   3.260   6.073   0.114 -0.6537  0.2349 -1.4463
 3339TIP3   OH231575   5.051   4.171   7.960  0.3152  0.9610  0.3722
 3339TIP3    H131576   5.028   4.087   7.920  0.4805  0.6443  0.9421
 3339TIP3    H231577   5.141   4.187   7.933 -0.1858  1.6784 -0.9620
 3340TIP3   OH231578   4.428   6.475   1.817  0.7264 -0.5242 -0.5089
 3340TIP3    H131579   4.344   6.519   1.824 -0.7094 -2.8450 -2.0357
 3340TIP3    H231580   4.492   6.544   1.837 -1.3503  2.1099 -2.1698
 3341TIP3   OH231581   2.381   4.806   2.507  0.5391  0.1254 -0.0331
 3341TIP3    H131582   2.292   4.836   2.523 -0.2110 -2.4152  1.1152
 3341TIP3    H231583   2.435   4.885   2.512 -1.6376  1.7540 -0.9688
 3342TIP3   OH231584   6.578   2.218   1.544 -0.0907 -0.6173  0.6258
 3342TIP3    H131585   6.520   2.152   1.506 -0.2832 -1.0646  1.6558
 3342TIP3    H231586   6.531   2.301   1.532  0.2125 -0.6247 -0.7901
 3343TIP3   OH231587   2.048   1.006   7.577 -0.2833 -0.2595 -0.1308
 3343TIP3    H131588   1.954   1.020   7.566 -0.0509 -0.0818 -2.3109
 3343TIP3    H231589   2.088   1.092   7.562  0.2650 -0.4511  0.1853
 3344TIP3   OH231590   4.322   2.333   6.428  0.2158 -0.1683 -0.0930
 3344TIP3    H131591   4.267   2.356   6.353  0.1031 -0.4783 -0.1059
 3344TIP3    H231592   4.396   2.285   6.391  0.1292 -0.3746 -0.0008
 3345TIP3   OH231593   5.720   2.919   2.225 -0.0809 -0.1536  0.1466
 3345TIP3    H131594   5.788   2.898   2.161  0.1000 -0.9325  0.5809
 3345TIP3    H231595   5.638   2.892   2.182  0.1946 -2.4097  0.9150
 3346TIP3   OH231596   4.350   2.258   7.818  0.8179 -0.2774 -0.2018
 3346TIP3    H131597   4.258   2.243   7.841  0.6217  0.2418 -0.6276
 3346TIP3    H231598   4.389   2.171   7.820  0.5562 -0.3746  0.9742
 3347TIP3   OH231599   5.969   0.404   1.806  0.2579 -0.1069  0.1315
 3347TIP3    H131600   5.917   0.480   1.833 -0.5784 -0.9565  0.9901
 3347TIP3    H231601   5.940   0.334   1.865  0.2174 -1.3733 -1.3586
 3348TIP3   OH231602   0.996   2.492   0.367  0.3127  0.2595  0.5230
 3348TIP3    H131603   0.934   2.474   0.296  0.3519  0.5889  0.4041
 3348TIP3    H231604   1.064   2.426   0.357  0.2689  0.2462  0.3112
 3349TIP3   OH231605   5.845   3.675   1.257 -0.2680 -0.0896 -0.2640
 3349TIP3    H131606   5.918   3.715   1.305  0.0432  0.0628 -0.8619
 3349TIP3    H231607   5.883   3.597   1.217 -0.9515 -1.2222  1.1773
 3350TIP3   OH231608   2.511   0.670   0.391  0.0093 -0.5105  0.0246
 3350TIP3    H131609   2.464   0.753   0.380 -0.1307 -0.2870  1.9266
 3350TIP3    H231610   2.443   0.603   0.390  0.1287 -0.6494 -1.5819
 3351TIP3   OH231611   3.155   3.475   7.700 -0.3179  0.3328  0.1123
 3351TIP3    H131612   3.091   3.408   7.723 -0.9110  0.0564 -2.1236
 3351TIP3    H231613   3.134   3.549   7.757 -3.5868  0.7680 -1.4170
 3352TIP3   OH231614   1.823   2.880   7.114 -0.0262  0.2401 -0.0548
 3352TIP3    H131615   1.856   2.803   7.068 -0.4694  0.1686 -0.2642
 3352TIP3    H231616   1.728   2.867   7.116 -0.0914  0.7128  0.0281
 3353TIP3   OH231617   6.200   0.552   8.009  0.3415  0.4677  0.0501
 3353TIP3    H131618   6.178   0.550   7.916  1.4255 -0.0847 -0.2069
 3353TIP3    H231619   6.115   0.553   8.053 -0.1853  0.4828 -0.9387
 3354TIP3   OH231620   6.582   2.976   1.097 -0.0273  0.2913 -0.4227
 3354TIP3    H131621   6.633   3.036   1.152  0.9072 -1.5910  0.8693
 3354TIP3    H231622   6.496   2.973   1.139 -0.3845  1.3997 -1.0360
 3355TIP3   OH231623   4.886   4.806   6.416 -0.1948  0.7248  0.4325
 3355TIP3    H131624   4.956   4.864   6.444  1.0124  0.1872 -1.3358
 3355TIP3    H231625   4.923   4.718   6.423 -0.1858  0.5093 -1.7575
 3356TIP3   OH231626   0.628   2.047   6.673 -0.3513 -0.2622 -0.4736
 3356TIP3    H131627   0.627   2.092   6.758 -0.0043 -0.5578 -0.3116
 3356TIP3    H231628   0.535   2.030   6.655 -0.4737  0.3666 -0.4609
 3357TIP3   OH231629   4.102   1.745   1.309 -0.4667  0.2896 -1.1360
 3357TIP3    H131630   4.123   1.687   1.235  0.2050  0.8327 -1.3807
 3357TIP3    H231631   4.043   1.693   1.364  1.7315 -1.4664 -0.2667
 3358TIP3   OH231632   3.082   6.559   1.160 -0.1068 -0.0526  0.5446
 3358TIP3    H131633   3.092   6.471   1.195 -0.3892 -0.6488 -0.8344
 3358TIP3    H231634   3.042   6.547   1.074 -1.1894  1.4890  0.7945
 3359TIP3   OH231635   5.692   3.703   1.455 -0.4419 -0.0992  0.5488
 3359TIP3    H131636   5.724   3.681   1.368 -1.0340  0.6615  0.1223
 3359TIP3    H231637   5.699   3.799   1.459 -1.0727 -0.0680  1.0665
 3360TIP3   OH231638   1.361   3.514   8.329  0.0743  0.1426  0.1644
 3360TIP3    H131639   1.272   3.510   8.293 -0.0581 -1.2692  0.5963
 3360TIP3    H231640   1.404   3.583   8.278 -1.6085  1.7173  0.7643
 3361TIP3   OH231641   5.660   5.146   0.352 -0.3168 -0.4267 -0.0554
 3361TIP3    H131642   5.600   5.078   0.321 -1.8274  0.8686 -0.0904
 3361TIP3    H231643   5.614   5.189   0.423  0.6553  0.4886  0.0531
 3362TIP3   OH231644   5.134   3.562   0.295  0.2597 -0.4327  0.0301
 3362TIP3    H131645   5.056   3.536   0.247 -0.9050  1.3748  0.8306
 3362TIP3    H231646   5.104   3.573   0.386  1.8861 -1.5327  0.7445
 3363TIP3   OH231647   3.533   5.107   7.959 -0.7328  0.1557  0.2842
 3363TIP3    H131648   3.545   5.140   8.048 -0.2808  1.8652 -0.3778
 3363TIP3    H231649   3.554   5.014   7.966  1.5605  0.6839  1.5406
 3364TIP3   OH231650   3.721   5.256   1.426  0.4323 -0.4441  0.4058
 3364TIP3    H131651   3.700   5.251   1.333  1.9736 -0.2286  0.0228
 3364TIP3    H231652   3.810   5.223   1.432  1.1627  1.5516  1.4856
 3365TIP3   OH231653   0.730   3.956   8.083  0.9915  0.2904  0.2635
 3365TIP3    H131654   0.762   3.866   8.072  0.0714  0.0183 -0.3128
 3365TIP3    H231655   0.683   3.955   8.166  0.4998  0.0883 -0.0150
 3366TIP3   OH231656   5.749   2.589   6.876 -0.3464 -0.0591 -0.2985
 3366TIP3    H131657   5.824   2.601   6.934  0.6172 -1.0116 -1.2971
 3366TIP3    H231658   5.779   2.622   6.791 -0.3428 -2.2500 -1.1905
 3367TIP3   OH231659   0.588   2.147   1.143  0.0086 -0.1806 -0.1043
 3367TIP3    H131660   0.500   2.112   1.156 -0.3513  0.3574 -0.9844
 3367TIP3    H231661   0.624   2.094   1.072  0.3475 -0.3065  0.1596
 3368TIP3   OH231662   5.745   1.053   0.145 -0.2846  0.0419  0.6103
 3368TIP3    H131663   5.692   1.125   0.180 -2.8456 -1.4180 -0.0625
 3368TIP3    H231664   5.724   0.979   0.202  0.4825 -0.7721 -0.1513
 3369TIP3   OH231665   0.677   1.747   6.473 -0.3578 -0.1926 -0.1689
 3369TIP3    H131666   0.619   1.681   6.437 -2.2813 -0.2957  2.7800
 3369TIP3    H231667   0.764   1.708   6.467 -0.9054 -1.2363 -2.1245
 3370TIP3   OH231668   0.586   4.329   1.282  0.1319 -0.5316  0.1316
 3370TIP3    H131669   0.522   4.374   1.338  0.2199 -1.9144  1.4174
 3370TIP3    H231670   0.618   4.256   1.336  0.2717 -1.9147 -1.7190
 3371TIP3   OH231671   5.928   0.758   0.488  0.2651  0.5736  0.4791
 3371TIP3    H131672   5.974   0.813   0.550  0.5909  0.9006 -0.0416
 3371TIP3    H231673   5.877   0.697   0.542 -0.0363  1.3250  1.0603
 3372TIP3   OH231674   4.119   0.467   7.699  0.7343 -0.0033  0.1629
 3372TIP3    H131675   4.068   0.395   7.736  2.4736 -0.8236  1.1569
 3372TIP3    H231676   4.060   0.511   7.639 -0.6512 -1.7791  0.1341
 3373TIP3   OH231677   3.245   1.992   1.120  0.4422  0.2089  0.0515
 3373TIP3    H131678   3.195   2.002   1.201 -0.9149 -3.0487 -0.2420
 3373TIP3    H231679   3.328   1.953   1.148  0.1756 -0.4374 -0.0281
 3374TIP3   OH231680   0.863   4.437   7.942 -0.2549  0.0728  0.0218
 3374TIP3    H131681   0.877   4.481   8.025  1.7629  1.4416 -0.9518
 3374TIP3    H231682   0.875   4.344   7.961  1.3072  0.4491  1.0938
 3375TIP3   OH231683   2.517   2.685   6.848  0.1649  0.0354 -0.0858
 3375TIP3    H131684   2.520   2.628   6.771 -1.7729  0.1088 -0.2662
 3375TIP3    H231685   2.460   2.757   6.822 -0.1861  0.2720  1.2707
 3376TIP3   OH231686   1.942   1.621   1.589  0.0020 -0.4620  0.3819
 3376TIP3    H131687   1.942   1.710   1.552 -0.3105 -0.2545  0.8728
 3376TIP3    H231688   1.851   1.605   1.613  0.1978 -0.5850  1.0750
 3377TIP3   OH231689   0.253   0.831   2.112  0.2235  0.0400  0.0144
 3377TIP3    H131690   0.196   0.796   2.043  0.8001 -0.5156 -0.1951
 3377TIP3    H231691   0.307   0.757   2.137  0.2623  0.3325  0.8287
 3378TIP3   OH231692   3.249   0.385   7.152  0.0399 -0.1092 -0.4785
 3378TIP3    H131693   3.266   0.439   7.229  1.0546  0.8285 -1.3231
 3378TIP3    H231694   3.295   0.430   7.081  1.1310 -2.1999 -1.1831
 3379TIP3   OH231695   0.913   3.113   7.926 -0.0931 -0.0818 -0.1597
 3379TIP3    H131696   0.862   3.194   7.923 -2.1916 -1.3299  0.0803
 3379TIP3    H231697   0.849   3.045   7.946  1.0299 -2.2424 -3.1386
 3380TIP3   OH231698   4.812   2.625   1.401 -0.3352  0.0837 -0.4950
 3380TIP3    H131699   4.823   2.622   1.305 -0.5055  0.1434 -0.5151
 3380TIP3    H231700   4.861   2.702   1.428 -0.5121  0.2205 -0.5632
 3381TIP3   OH231701   3.411   5.280   2.103 -0.9591  0.1218 -0.2630
 3381TIP3    H131702   3.341   5.300   2.164 -0.4263  0.6582  0.1834
 3381TIP3    H231703   3.481   5.244   2.158  0.6100  3.1697 -0.0996
 3382TIP3   OH231704   4.416   5.860   7.416 -0.0046 -0.2062 -0.1991
 3382TIP3    H131705   4.437   5.894   7.503 -2.2500 -1.5592  0.9602
 3382TIP3    H231706   4.483   5.793   7.400  0.5292  0.1697  0.3773
 3383TIP3   OH231707   4.462   1.247   6.764 -0.6884  0.3288 -0.4515
 3383TIP3    H131708   4.393   1.305   6.732 -0.2874  0.3386 -1.3240
 3383TIP3    H231709   4.520   1.304   6.815 -1.6207  0.2114  0.7971
 3384TIP3   OH231710   6.829   0.313   8.403  0.3289 -0.4292  0.5293
 3384TIP3    H131711   6.738   0.286   8.388 -0.1893  1.1386  0.6749
 3384TIP3    H231712   6.879   0.232   8.396 -0.9019 -1.1286 -1.0283
 3385TIP3   OH231713   4.227   0.869   1.788  0.0338  0.2900  0.1224
 3385TIP3    H131714   4.177   0.873   1.870  1.5779 -3.6745  1.4481
 3385TIP3    H231715   4.194   0.944   1.737 -5.4243 -0.4924  1.8297
 3386TIP3   OH231716   3.536   1.841   6.516 -0.5814  0.4399 -0.3993
 3386TIP3    H131717   3.608   1.782   6.537  0.6330  1.7008 -0.8946
 3386TIP3    H231718   3.555   1.921   6.566 -1.1851  1.0787 -1.1641
 3387TIP3   OH231719   3.254   3.360   0.150  0.1623  0.4468  0.0520
 3387TIP3    H131720   3.318   3.430   0.161 -0.3767  1.2463 -1.5959
 3387TIP3    H231721   3.183   3.400   0.100 -0.6519 -1.0034 -0.0100
 3388TIP3   OH231722   4.544   1.504   0.200 -0.0130  0.1244 -0.6624
 3388TIP3    H131723   4.459   1.482   0.239  1.3664 -1.7659  1.5656
 3388TIP3    H231724   4.546   1.599   0.198 -2.0418  0.2052 -0.4028
 3389TIP3   OH231725   0.882   1.597   8.459  0.0946  0.1373  0.0925
 3389TIP3    H131726   0.952   1.552   8.505  0.7679 -2.1854 -2.8652
 3389TIP3    H231727   0.885   1.687   8.491  2.9590 -0.4135  1.6464
 3390TIP3   OH231728   3.070   1.978   1.328 -0.4646  0.7615  0.0554
 3390TIP3    H131729   3.120   1.992   1.409  1.0688 -1.1729 -0.4920
 3390TIP3    H231730   2.979   1.987   1.354 -0.0992 -1.4095  2.4025
 3391TIP3   OH231731   3.449   3.773   0.567  0.0306 -0.3093  0.0779
 3391TIP3    H131732   3.469   3.802   0.478 -1.1735 -0.5697 -0.3038
 3391TIP3    H231733   3.478   3.682   0.571  0.7962 -0.0650  0.2131
 3392TIP3   OH231734   4.267   0.005   0.355 -0.8573  0.1924  0.3065
 3392TIP3    H131735   4.258   0.096   0.385  0.4077 -0.1696  1.9264
 3392TIP3    H231736   4.188  -0.038   0.387 -1.5576  0.7417 -0.6389
 3393TIP3   OH231737   6.006   4.494   2.461  0.4480  0.7199 -0.1389
 3393TIP3    H131738   6.082   4.453   2.501 -0.5249 -2.6791 -1.4071
 3393TIP3    H231739   5.943   4.503   2.533  1.2289  1.4917  0.4675
 3394TIP3   OH231740   1.184   5.494   7.418  0.8384 -0.2324  0.5794
 3394TIP3    H131741   1.174   5.410   7.372  1.1493 -1.3385  2.4311
 3394TIP3    H231742   1.243   5.545   7.363 -1.5196 -0.0600 -2.0468
 3395TIP3   OH231743   4.129   4.271   2.518 -0.7110 -0.4418 -0.1177
 3395TIP3    H131744   4.166   4.274   2.606 -0.2354  2.0847 -0.3451
 3395TIP3    H231745   4.039   4.303   2.527 -0.0832  1.6423 -0.7564
 3396TIP3   OH231746   4.641   2.280   7.942  0.1173  0.5010  0.3589
 3396TIP3    H131747   4.643   2.339   7.867  2.5125  2.2439  1.6705
 3396TIP3    H231748   4.701   2.209   7.918  0.8542  1.0376  0.5829
 3397TIP3   OH231749   0.684   2.320   7.575 -0.0327 -0.8912 -0.8766
 3397TIP3    H131750   0.726   2.234   7.580  1.6152 -0.1324  3.6712
 3397TIP3    H231751   0.753   2.378   7.545  0.1514 -0.6348  0.0044
 3398TIP3   OH231752   0.931   4.450   0.429  0.0441  0.0914 -0.2850
 3398TIP3    H131753   0.917   4.414   0.517  2.6030  1.6920  0.9251
 3398TIP3    H231754   0.891   4.536   0.432  1.0991  0.5940 -0.2683
 3399TIP3   OH231755   4.510   4.064   7.154  0.3045 -0.2885  0.2360
 3399TIP3    H131756   4.496   4.158   7.162 -0.3424 -0.3614  0.0228
 3399TIP3    H231757   4.460   4.038   7.076  1.9799 -0.5098 -0.8028
 3400TIP3   OH231758   3.261   4.870   0.746  0.0208  0.0218 -0.2108
 3400TIP3    H131759   3.344   4.841   0.709 -0.5452 -0.8814 -0.8411
 3400TIP3    H231760   3.195   4.828   0.691 -0.8510  0.3039  0.5903
 3401TIP3   OH231761   0.194   4.232   1.088 -0.1718  0.2737 -0.1199
 3401TIP3    H131762   0.108   4.254   1.121 -0.3171 -1.2112  0.6028
 3401TIP3    H231763   0.228   4.168   1.150  1.8404  1.4831  0.1133
 3402TIP3   OH231764   2.790   4.420   1.680  0.3161  0.0201 -0.9120
 3402TIP3    H131765   2.808   4.511   1.658  1.0388  0.1683  0.2127
 3402TIP3    H231766   2.866   4.372   1.647 -0.0182 -0.1671 -1.4174
 3403TIP3   OH231767   5.265   3.789   7.308 -0.4390 -0.1410 -0.1566
 3403TIP3    H131768   5.346   3.837   7.321  0.3874 -1.9870  2.5435
 3403TIP3    H231769   5.198   3.844   7.348 -0.4036  0.9660 -1.5614
 3404TIP3   OH231770   4.962   5.496   6.458 -0.0648  0.4382 -0.3434
 3404TIP3    H131771   4.886   5.543   6.424 -0.4449  0.9544  1.1393
 3404TIP3    H231772   5.015   5.477   6.381 -2.8038 -2.0491 -1.8196
 3405TIP3   OH231773   2.125   2.624   8.282  0.0455 -0.2663  0.0001
 3405TIP3    H131774   2.174   2.703   8.305  1.3797 -1.1460  0.2573
 3405TIP3    H231775   2.191   2.562   8.253 -0.8387 -1.7478  1.0241
 3406TIP3   OH231776   2.773   3.571   1.503  0.1243  0.0604 -0.1716
 3406TIP3    H131777   2.774   3.648   1.559 -1.9549 -0.1617  0.2527
 3406TIP3    H231778   2.813   3.502   1.556 -0.2772  0.2661  0.4103
 3407TIP3   OH231779   1.200   2.473   1.681 -0.5948 -0.7537 -0.4844
 3407TIP3    H131780   1.251   2.553   1.693 -0.1369 -1.2216  0.9303
 3407TIP3    H231781   1.250   2.423   1.616  1.4510 -1.6627  1.6111
 3408TIP3   OH231782   3.004   6.423   8.464 -0.2351  0.6097  0.0586
 3408TIP3    H131783   2.992   6.397   8.373 -1.7557 -0.8695  0.6326
 3408TIP3    H231784   2.938   6.492   8.477 -1.9031 -1.0396  0.7119
 3409TIP3   OH231785   6.621   3.114   7.043 -0.1938  0.0968  0.2145
 3409TIP3    H131786   6.642   3.200   7.079  1.4372 -0.7782  1.5068
 3409TIP3    H231787   6.529   3.100   7.064 -0.3813  1.3706  0.2847
 3410TIP3   OH231788   4.551   2.454   1.235 -0.2609  0.0813 -0.4801
 3410TIP3    H131789   4.558   2.376   1.290 -0.3267 -0.1788 -0.8337
 3410TIP3    H231790   4.481   2.506   1.275  1.2320  1.0247  1.0355
 3411TIP3   OH231791   5.849   3.288   0.576  0.1527  0.8969 -0.6940
 3411TIP3    H131792   5.792   3.350   0.621 -0.2838  0.1856 -0.2403
 3411TIP3    H231793   5.878   3.335   0.498  0.2475  1.8455 -0.1060
 3412TIP3   OH231794   4.773   2.047   7.871  0.1002 -0.0462  0.4615
 3412TIP3    H131795   4.747   1.995   7.796  2.7860 -0.3636 -0.3479
 3412TIP3    H231796   4.795   1.983   7.939 -0.9042  0.2050  1.0529
 3413TIP3   OH231797   5.976   2.623   7.048  0.2996 -0.2822  0.1146
 3413TIP3    H131798   6.036   2.588   7.114  0.4731  0.7945  0.5464
 3413TIP3    H231799   5.989   2.567   6.972  1.2493 -0.5725  0.4764
 3414TIP3   OH231800   0.208   5.942   6.716  0.0413  0.4323 -0.6756
 3414TIP3    H131801   0.251   6.010   6.767 -0.5792  1.1964 -1.1418
 3414TIP3    H231802   0.239   5.956   6.626 -0.8645  0.7450 -0.9469
 3415TIP3   OH231803   0.744   0.326   8.548  0.9429  0.4637  0.0638
 3415TIP3    H131804   0.723   0.366   8.632 -1.7305 -0.6019 -0.0180
 3415TIP3    H231805   0.745   0.400   8.486 -1.8169  0.7954  0.2825
 3416TIP3   OH231806   3.320   0.834   1.344 -0.4089  0.6454  0.3148
 3416TIP3    H131807   3.261   0.909   1.340 -1.6837 -0.3216  0.3038
 3416TIP3    H231808   3.324   0.810   1.437  0.8532  1.3615  0.4653
 3417TIP3   OH231809   3.799   3.462   1.691  0.6741  0.1068  0.5268
 3417TIP3    H131810   3.778   3.436   1.781  0.3281 -0.3337  0.3186
 3417TIP3    H231811   3.751   3.544   1.679 -0.8056 -0.7788  0.1268
 3418TIP3   OH231812   2.394   1.527   8.314  0.2679  0.3361  0.1981
 3418TIP3    H131813   2.450   1.456   8.345 -1.1403 -0.9241 -0.0232
 3418TIP3    H231814   2.451   1.604   8.313  1.7956 -0.7422  0.6044
 3419TIP3   OH231815   1.012   6.536   2.151 -0.3874  0.4801  0.0061
 3419TIP3    H131816   1.023   6.529   2.245  0.2880  0.5648 -0.0654
 3419TIP3    H231817   1.088   6.491   2.114 -0.0974  1.3668 -0.4929
 3420TIP3   OH231818   6.138   0.014   8.516 -1.2785  0.3252  0.3438
 3420TIP3    H131819   6.122   0.020   8.610 -1.1911 -1.9730  0.5712
 3420TIP3    H231820   6.090   0.087   8.478 -1.3187  1.2958  2.1551
 3421TIP3   OH231821   1.384   4.704   1.488  0.3662 -0.2443  0.0257
 3421TIP3    H131822   1.298   4.665   1.504  0.8501 -0.7764  1.5054
 3421TIP3    H231823   1.370   4.763   1.413 -1.9491  1.8800  1.9482
 3422TIP3   OH231824   5.613   1.939   1.954  0.0433  0.3571 -0.3901
 3422TIP3    H131825   5.600   1.931   2.048 -0.1113  2.4054 -0.1936
 3422TIP3    H231826   5.696   1.894   1.937 -0.6592 -1.3425  0.4436
 3423TIP3   OH231827   4.268   0.073   1.064 -0.1754  0.1348 -0.3256
 3423TIP3    H131828   4.248   0.005   1.000  0.3615  1.3420 -1.8124
 3423TIP3    H231829   4.194   0.133   1.058 -1.0348 -0.6251  1.5308
 3424TIP3   OH231830   3.913   4.442   2.741  0.3747 -0.8495  0.2182
 3424TIP3    H131831   3.874   4.428   2.655 -3.1117  1.2588  1.2781
 3424TIP3    H231832   3.867   4.381   2.799  0.5529 -0.2106  1.0587
 3425TIP3   OH231833   0.495   0.431   7.091 -0.3835 -0.2129  0.3868
 3425TIP3    H131834   0.437   0.356   7.101 -1.4601  0.6240  0.5225
 3425TIP3    H231835   0.451   0.503   7.136 -0.9181  1.3051 -2.3330
 3426TIP3   OH231836   3.115   4.544   8.406 -0.0955 -0.4861 -0.0836
 3426TIP3    H131837   3.094   4.473   8.466 -0.9874 -0.2000 -0.0452
 3426TIP3    H231838   3.202   4.522   8.373 -1.0359 -2.5868 -1.4591
 3427TIP3   OH231839   1.094   0.491   1.384 -0.4460 -0.9806 -0.4226
 3427TIP3    H131840   1.114   0.581   1.409  0.4747 -1.2799 -0.0549
 3427TIP3    H231841   1.005   0.476   1.417 -0.7997 -0.0563 -0.9229
 3428TIP3   OH231842   1.190   1.756   7.071  0.4885  0.1874 -0.1871
 3428TIP3    H131843   1.194   1.794   6.983 -1.2013 -0.4558 -0.5650
 3428TIP3    H231844   1.129   1.812   7.119  0.2017 -0.3728  0.1077
 3429TIP3   OH231845   0.040   0.064   7.817 -0.5226 -0.1492 -0.5406
 3429TIP3    H131846  -0.048   0.062   7.780 -0.0350 -0.9512 -1.7506
 3429TIP3    H231847   0.081   0.142   7.779  0.6598 -2.0305 -3.5765
 3430TIP3   OH231848   1.332   1.653   1.134 -0.3189  0.1765 -0.2483
 3430TIP3    H131849   1.332   1.670   1.040  1.7753 -0.1813 -0.3574
 3430TIP3    H231850   1.423   1.669   1.162 -0.8647  0.1929  1.7019
 3431TIP3   OH231851   1.620   0.481   0.261 -0.2879 -0.1066 -0.5204
 3431TIP3    H131852   1.697   0.459   0.208 -0.3777 -0.8944 -0.3471
 3431TIP3    H231853   1.643   0.563   0.304  1.0766 -1.0282  0.6472
 3432TIP3   OH231854   6.459   2.417   0.052 -0.2135  0.0580  0.3850
 3432TIP3    H131855   6.552   2.404   0.033 -0.5221 -0.2603 -1.0362
 3432TIP3    H231856   6.420   2.440  -0.032 -1.6343 -1.0556  0.6865
 3433TIP3   OH231857   3.272   4.270   0.161  0.0320  0.6430  0.0423
 3433TIP3    H131858   3.235   4.199   0.212 -1.0405  1.0698 -0.1179
 3433TIP3    H231859   3.205   4.291   0.095  1.2754  0.2607 -1.4166
 3434TIP3   OH231860   3.222   0.239   0.705 -0.5207 -0.0938  0.3864
 3434TIP3    H131861   3.135   0.258   0.740 -0.1001  2.1071  0.3701
 3434TIP3    H231862   3.234   0.304   0.635  0.0632 -2.1405 -1.5213
 3435TIP3   OH231863   3.051   6.020   6.905 -0.3730 -0.3455 -0.4988
 3435TIP3    H131864   3.032   5.928   6.889 -2.3300  0.0841 -0.8618
 3435TIP3    H231865   2.966   6.063   6.907  0.4739  1.4458 -0.1364
 3436TIP3   OH231866   2.329   3.180   1.372 -0.2556  0.6224 -0.4158
 3436TIP3    H131867   2.352   3.194   1.280  0.6195 -1.8939 -0.6599
 3436TIP3    H231868   2.311   3.086   1.378  0.6378  0.5424  2.1879
 3437TIP3   OH231869   5.788   3.009   7.953 -0.2605  0.2597  0.7035
 3437TIP3    H131870   5.720   2.949   7.922 -0.4661  0.6856  0.2983
 3437TIP3    H231871   5.785   3.082   7.890  2.4442 -0.9461 -0.9675
 3438TIP3   OH231872   5.750   0.563   1.698  0.8037  0.4032  0.2264
 3438TIP3    H131873   5.725   0.625   1.629 -0.1248  1.2343  1.2552
 3438TIP3    H231874   5.803   0.616   1.759  0.4295  0.0693  0.8547
 3439TIP3   OH231875   4.635   1.534   1.196  0.7307 -0.6604  0.5503
 3439TIP3    H131876   4.664   1.443   1.205  1.2331 -0.7277 -1.3237
 3439TIP3    H231877   4.695   1.584   1.251  1.4653 -1.2990  0.3477
 3440TIP3   OH231878   2.358   6.760   1.666  0.1632 -0.1717  0.4064
 3440TIP3    H131879   2.317   6.843   1.642  0.3399 -0.3060 -0.4130
 3440TIP3    H231880   2.291   6.713   1.714 -0.1869  0.1489  0.2404
 3441TIP3   OH231881   1.727   6.190   0.509 -0.1406 -0.1384  0.2830
 3441TIP3    H131882   1.664   6.125   0.478 -0.9589  0.8333 -0.1456
 3441TIP3    H231883   1.733   6.254   0.438  0.4127  0.4186  0.8177
 3442TIP3   OH231884   0.573   3.660   6.498 -0.2360  0.2350  0.1744
 3442TIP3    H131885   0.550   3.569   6.520  1.1169  0.1468  1.4111
 3442TIP3    H231886   0.668   3.658   6.485 -0.0412  1.6139  1.1269
 3443TIP3   OH231887   5.954   1.152   7.868 -0.4926  0.0482  0.5607
 3443TIP3    H131888   5.929   1.238   7.834  0.2518  0.4910  1.0899
 3443TIP3    H231889   5.944   1.160   7.963  0.0192 -0.2931  0.6494
 3444TIP3   OH231890   1.775   6.744   7.854  0.4786  0.3790 -0.4171
 3444TIP3    H131891   1.738   6.656   7.862 -3.6012  1.8585 -0.6561
 3444TIP3    H231892   1.821   6.758   7.937 -0.3676 -1.3511  0.4047
 3445TIP3   OH231893   3.189   4.133   0.409 -0.0271 -0.0481 -0.1097
 3445TIP3    H131894   3.230   4.110   0.493  1.0637  1.4151 -0.2007
 3445TIP3    H231895   3.107   4.084   0.408  1.0992 -2.0844  0.6792
 3446TIP3   OH231896   2.458   5.210   7.991 -0.0094  0.4281 -0.2425
 3446TIP3    H131897   2.418   5.278   8.045  0.9840  0.1256  0.9449
 3446TIP3    H231898   2.509   5.258   7.926  1.4591  0.8921  1.1738
 3447TIP3   OH231899   4.691   0.862   0.714 -0.7932 -0.0366  0.0831
 3447TIP3    H131900   4.761   0.851   0.649 -0.6743  1.0088  0.0124
 3447TIP3    H231901   4.661   0.952   0.701 -1.4299 -0.1319  0.8340
 3448TIP3   OH231902   0.932   4.191   1.767  0.1669  0.0492 -0.4369
 3448TIP3    H131903   0.907   4.168   1.677  1.6225  0.9179 -1.1093
 3448TIP3    H231904   1.004   4.131   1.788 -0.7980 -0.8044  0.5429
 3449TIP3   OH231905   2.669   5.448   1.364 -0.3822  0.1894 -0.1979
 3449TIP3    H131906   2.696   5.372   1.416 -1.3882 -0.3208 -0.4017
 3449TIP3    H231907   2.616   5.500   1.424  1.0063  1.2019  0.2076
 3450TIP3   OH231908   3.722   2.216   7.264 -0.4854  0.0593  0.0947
 3450TIP3    H131909   3.718   2.270   7.185 -1.3403 -0.6126 -0.3409
 3450TIP3    H231910   3.773   2.139   7.238  1.2639  0.8858  0.8864
 3451TIP3   OH231911   2.352   2.562   7.313  0.2405 -0.1933  0.3882
 3451TIP3    H131912   2.328   2.548   7.221  1.9304  0.3958 -0.1858
 3451TIP3    H231913   2.410   2.489   7.334  0.9198  0.3850  0.5561
 3452TIP3   OH231914   0.232   0.850   7.880 -0.5543 -0.2643  0.6418
 3452TIP3    H131915   0.142   0.826   7.902 -0.5614 -0.9216 -0.0699
 3452TIP3    H231916   0.228   0.876   7.788 -0.0987  0.1579  0.7400
 3453TIP3   OH231917   5.888   4.529   1.438  0.9181  0.0516 -0.2715
 3453TIP3    H131918   5.861   4.597   1.500 -1.2278 -0.2606 -0.7935
 3453TIP3    H231919   5.890   4.448   1.489  0.7996  0.0700 -0.2378
 3454TIP3   OH231920   0.534   6.868   0.883 -0.1904 -0.1846  0.2449
 3454TIP3    H131921   0.603   6.890   0.946 -0.8525  0.7653  0.6572
 3454TIP3    H231922   0.458   6.849   0.936 -0.3600 -0.8404 -0.2252
 3455TIP3   OH231923   2.788   0.695   8.437 -0.1976 -0.1680 -0.3653
 3455TIP3    H131924   2.754   0.759   8.499  0.2332  1.8046 -2.0632
 3455TIP3    H231925   2.881   0.688   8.458 -0.0315  0.5735 -0.8128
 3456TIP3   OH231926   1.868   5.066   7.411 -0.5876  0.8906 -0.3481
 3456TIP3    H131927   1.792   5.103   7.456 -1.4513  0.4571 -1.4029
 3456TIP3    H231928   1.839   4.978   7.384  1.5575 -0.8615  2.5138
 3457TIP3   OH231929   0.504   5.983   1.413 -0.1440  0.3294 -0.4685
 3457TIP3    H131930   0.573   6.029   1.365  0.4919 -0.0453  0.0647
 3457TIP3    H231931   0.551   5.924   1.472 -0.9261 -0.0151 -0.1745
 3458TIP3   OH231932   3.540   2.848   7.159 -0.1568  0.1496  0.0432
 3458TIP3    H131933   3.580   2.935   7.167  0.3609 -0.1636  0.9226
 3458TIP3    H231934   3.472   2.848   7.226  1.3721 -0.9472  1.6622
 3459TIP3   OH231935   6.810   1.681   0.174 -0.0759  0.5148  0.1196
 3459TIP3    H131936   6.893   1.694   0.128 -0.5460 -2.4279 -1.8868
 3459TIP3    H231937   6.829   1.611   0.237 -0.7691  0.5231  0.3448
 3460TIP3   OH231938   3.146   2.743   6.785  0.5552 -0.0377 -0.3641
 3460TIP3    H131939   3.231   2.749   6.829  0.1285  0.3243  0.4136
 3460TIP3    H231940   3.099   2.822   6.811 -0.7970 -1.2003  0.8776
 3461TIP3   OH231941   4.818   3.484   2.080 -0.4021 -0.0742  0.2531
 3461TIP3    H131942   4.826   3.392   2.055  1.4265  0.5573 -1.7081
 3461TIP3    H231943   4.825   3.483   2.176 -0.2059 -1.9452  0.2600
 3462TIP3   OH231944   4.277   1.651   6.655  0.0245 -0.1286  1.0038
 3462TIP3    H131945   4.262   1.558   6.639 -0.4369  0.3298 -1.6922
 3462TIP3    H231946   4.190   1.690   6.648  0.2340  0.5472  2.0000
 3463TIP3   OH231947   5.043   0.634   0.374  0.2062 -0.4622  0.1421
 3463TIP3    H131948   5.087   0.568   0.426  1.1581 -1.1598 -1.4740
 3463TIP3    H231949   4.993   0.584   0.309 -0.6047  0.3807  0.0992
 3464TIP3   OH231950   0.569   6.768   8.338 -0.1940 -0.1606 -0.0929
 3464TIP3    H131951   0.504   6.768   8.407 -1.3996  1.1412 -1.1782
 3464TIP3    H231952   0.647   6.807   8.378 -0.9533  0.7999  0.4732
 3465TIP3   OH231953   3.451   3.067   0.699  0.0920  0.1187  0.5926
 3465TIP3    H131954   3.464   3.036   0.789  0.8747 -0.5917  0.2403
 3465TIP3    H231955   3.379   3.013   0.666  0.0466  0.1338  0.6643
 3466TIP3   OH231956   3.857   1.025   7.950  0.2602 -0.6366  0.3621
 3466TIP3    H131957   3.857   1.119   7.972  0.8273 -0.7984  1.0855
 3466TIP3    H231958   3.915   1.019   7.873  1.4282 -0.5799  1.2162
 3467TIP3   OH231959   5.665   5.073   1.078 -0.2377 -0.1312  0.0419
 3467TIP3    H131960   5.593   5.133   1.096 -0.4972 -0.4367  0.0321
 3467TIP3    H231961   5.624   4.997   1.036  0.1295 -0.1721 -0.2534
 3468TIP3   OH231962   1.704   0.234   8.472  0.2206  0.0442  0.5096
 3468TIP3    H131963   1.756   0.248   8.551  0.1993 -0.0445  0.5397
 3468TIP3    H231964   1.638   0.169   8.498  0.6678 -0.5369  0.2175
 3469TIP3   OH231965   5.839   4.528   0.650 -0.0239 -0.0539  0.1469
 3469TIP3    H131966   5.864   4.617   0.676  1.4491 -0.2339 -0.5740
 3469TIP3    H231967   5.892   4.509   0.573 -2.2943 -0.5716 -1.4040
 3470TIP3   OH231968   0.478   5.115   7.347 -0.0687  0.1799  0.5135
 3470TIP3    H131969   0.395   5.138   7.390 -0.4868 -1.7806  0.8604
 3470TIP3    H231970   0.504   5.033   7.390  0.2064 -1.1492 -2.0213
 3471TIP3   OH231971   1.946   4.535   7.329  0.0490  0.4999 -0.5564
 3471TIP3    H131972   1.987   4.488   7.401  0.7803  1.2405 -0.4712
 3471TIP3    H231973   2.001   4.515   7.253 -0.2327  0.3950 -0.7344
 3472TIP3   OH231974   3.799   0.300   7.383  0.1860  0.1880 -0.4685
 3472TIP3    H131975   3.836   0.230   7.436  0.9190 -0.5022 -1.8466
 3472TIP3    H231976   3.728   0.335   7.436  1.8038  0.5105  1.5876
 3473TIP3   OH231977   0.485   0.309   6.096 -0.2055  0.1131 -0.1763
 3473TIP3    H131978   0.479   0.213   6.094 -1.0058  0.1616 -0.5567
 3473TIP3    H231979   0.450   0.334   6.181 -0.2600  0.0802 -0.1890
 3474TIP3   OH231980   0.585   2.784   0.546  0.9233 -0.2804  0.0536
 3474TIP3    H131981   0.606   2.873   0.573 -0.0716 -0.1482  0.4284
 3474TIP3    H231982   0.507   2.761   0.596  0.3789 -0.8822 -1.0281
 3475TIP3   OH231983   1.204   1.117   0.601 -0.0909 -0.0268 -0.3008
 3475TIP3    H131984   1.153   1.045   0.638  0.9578 -0.7227 -0.1683
 3475TIP3    H231985   1.161   1.196   0.635 -0.5407 -0.6036  0.5261
 3476TIP3   OH231986   6.876   6.847   0.895  0.1019 -0.1022  0.0720
 3476TIP3    H131987   6.889   6.771   0.952  1.1586 -0.2395 -0.3333
 3476TIP3    H231988   6.783   6.845   0.873 -0.5341  0.3893  2.4012
 3477TIP3   OH231989   6.210   5.501   1.285  0.1286  0.2793  0.4953
 3477TIP3    H131990   6.160   5.583   1.293  0.1533  0.3750 -0.3218
 3477TIP3    H231991   6.148   5.433   1.309 -0.6897  0.3184 -1.3974
 3478TIP3   OH231992   6.862   4.474   7.093 -0.2539 -0.3811 -0.2002
 3478TIP3    H131993   6.829   4.517   7.172  0.3495  1.3677 -0.8608
 3478TIP3    H231994   6.891   4.388   7.123 -0.8344 -0.0775  1.3101
 3479TIP3   OH231995   0.827   2.329   7.152 -0.5064  0.1511 -0.2624
 3479TIP3    H131996   0.793   2.250   7.109  1.7886 -1.2151  0.2793
 3479TIP3    H231997   0.858   2.384   7.080 -0.4608 -0.2536 -0.5571
 3480TIP3   OH231998   3.814   6.152   7.011 -0.1720  0.3720 -0.0799
 3480TIP3    H131999   3.737   6.143   6.955 -0.0298 -1.0455 -0.0917
 3480TIP3    H232000   3.779   6.143   7.100 -0.1185  0.4779 -0.0485
 3481TIP3   OH232001   6.464   3.336   7.223  0.6684 -0.0083  0.3145
 3481TIP3    H132002   6.442   3.366   7.312 -0.7852  0.7228 -0.2661
 3481TIP3    H232003   6.404   3.264   7.206  1.3437 -0.5393  0.1247
 3482TIP3   OH232004   5.867   2.049   0.696 -0.7427  0.1515 -0.0398
 3482TIP3    H132005   5.930   2.040   0.624 -0.9950 -0.5600 -0.1783
 3482TIP3    H232006   5.910   2.108   0.758 -0.0836 -0.0503 -0.2917
 3483TIP3   OH232007   3.101   2.827   1.172 -0.2923  0.0873 -0.0599
 3483TIP3    H132008   3.113   2.747   1.121 -0.1410  1.3856 -2.2086
 3483TIP3    H232009   3.080   2.797   1.260  0.6828 -2.2909 -0.5678
 3484TIP3   OH232010   5.791   6.438   7.913  0.3912 -0.1843 -0.2284
 3484TIP3    H132011   5.725   6.380   7.875  0.4477  0.4564 -1.3385
 3484TIP3    H232012   5.834   6.478   7.838 -0.6694  2.4736  0.4771
 3485TIP3   OH232013   5.732   5.846   8.300  0.1657 -0.1422  0.9860
 3485TIP3    H132014   5.667   5.913   8.322 -0.1111  0.2025 -0.7208
 3485TIP3    H232015   5.682   5.764   8.298 -0.6749  0.3010 -1.7832
 3486TIP3   OH232016   0.478   5.412   8.382  0.3999  0.3118 -0.3894
 3486TIP3    H132017   0.387   5.429   8.405 -0.2848 -0.5600 -2.2512
 3486TIP3    H232018   0.513   5.497   8.354  0.5510  0.8838  1.3855
 3487TIP3   OH232019   3.376   3.106   1.226 -0.5406  0.4835  0.1198
 3487TIP3    H132020   3.462   3.097   1.268 -0.0816 -0.0259 -0.8965
 3487TIP3    H232021   3.370   3.030   1.167 -1.9482  0.1894  0.6182
 3488TIP3   OH232022   2.033   4.224   0.726  0.7136  0.6326  0.1987
 3488TIP3    H132023   2.013   4.317   0.736  1.0510  0.7200  0.0703
 3488TIP3    H232024   2.121   4.215   0.761  0.4014  0.2244  0.8878
 3489TIP3   OH232025   0.677   4.031   0.369  0.4859  0.3017  0.8485
 3489TIP3    H132026   0.598   3.989   0.404  2.0479 -2.4493  1.3770
 3489TIP3    H232027   0.718   4.073   0.446 -0.4834  1.9035  0.5375
 3490TIP3   OH232028   0.571   1.740   2.553 -0.2781 -0.3248  0.1720
 3490TIP3    H132029   0.608   1.689   2.481  0.4168  0.4815 -0.0509
 3490TIP3    H232030   0.646   1.776   2.599 -0.7558  0.7459  0.1510
 3491TIP3   OH232031   3.216   5.315   7.252  0.7761  0.1946  0.2850
 3491TIP3    H132032   3.266   5.343   7.175  0.0105  1.4428  0.2266
 3491TIP3    H232033   3.281   5.272   7.308  1.7671  1.1374 -0.1121
 3492TIP3   OH232034   1.195   4.491   1.924 -0.7990  0.1278 -0.1197
 3492TIP3    H132035   1.219   4.529   2.009 -0.3926 -2.0170  0.7965
 3492TIP3    H232036   1.279   4.478   1.879 -0.9144  0.1599 -0.3446
 3493TIP3   OH232037   3.695   1.044   6.246 -0.5123 -0.7873 -0.3786
 3493TIP3    H132038   3.739   0.968   6.207 -2.0567 -1.3973 -1.0376
 3493TIP3    H232039   3.651   1.009   6.323 -0.6046 -0.3880 -0.2485
 3494TIP3   OH232040   6.307   5.998   7.796 -0.3616  0.2703 -0.4236
 3494TIP3    H132041   6.391   6.034   7.823  0.7288 -1.5179 -1.2780
 3494TIP3    H232042   6.268   5.963   7.876 -0.3452  1.1691 -0.0139
 3495TIP3   OH232043   3.451   5.065   1.545  0.2437 -0.3116 -0.4126
 3495TIP3    H132044   3.390   5.138   1.534  1.1008  0.6617  0.8982
 3495TIP3    H232045   3.535   5.099   1.513  1.3173  0.3882  2.7595
 3496TIP3   OH232046   4.624   4.826   7.162  0.0146 -0.1919 -0.1345
 3496TIP3    H132047   4.548   4.883   7.152 -0.7557 -0.8521  1.5563
 3496TIP3    H232048   4.628   4.808   7.256  0.2986 -2.8158 -0.5745
 3497TIP3   OH232049   6.405   0.880   7.762 -0.3703 -0.6198  0.2378
 3497TIP3    H132050   6.441   0.793   7.778  1.4061 -0.2068 -1.1620
 3497TIP3    H232051   6.481   0.934   7.742 -1.3829  1.3747  1.4610
 3498TIP3   OH232052   6.680   4.026   2.573 -0.0059  0.3798 -0.1338
 3498TIP3    H132053   6.681   3.930   2.568  1.4339  0.3971 -0.8833
 3498TIP3    H232054   6.612   4.046   2.637 -1.7500 -1.0480 -1.4469
 3499TIP3   OH232055   1.021   5.927   0.545  0.8556 -0.5344  0.1912
 3499TIP3    H132056   1.107   5.944   0.507  1.7139 -2.1091  1.3124
 3499TIP3    H232057   1.038   5.865   0.616 -0.9587  0.5898  1.7143
 3500TIP3   OH232058   6.613   3.384   2.522  0.1206  0.2350 -0.5146
 3500TIP3    H132059   6.628   3.434   2.603  0.3456 -1.3949  0.5119
 3500TIP3    H232060   6.526   3.347   2.533 -0.8252  1.8157 -2.0999
 3501TIP3   OH232061   2.930   0.932   7.469  0.6251 -0.1329  0.2930
 3501TIP3    H132062   3.006   0.981   7.499  2.0712 -0.9234 -1.8032
 3501TIP3    H232063   2.864   0.999   7.450  1.2027  0.6622  1.0169
 3502TIP3   OH232064   5.008   4.913   0.811  0.5172 -0.4663  0.3063
 3502TIP3    H132065   4.956   4.992   0.794 -0.7038 -1.3419 -0.1511
 3502TIP3    H232066   4.945   4.849   0.842  1.5030 -1.2664  0.6981
 3503TIP3   OH232067   4.524   1.771   0.125  0.2341  0.1610 -0.7254
 3503TIP3    H132068   4.546   1.803   0.213 -0.9915 -1.4388  0.2124
 3503TIP3    H232069   4.587   1.814   0.067  0.7488  1.6508  0.8559
 3504TIP3   OH232070   5.045   4.716   1.102  0.2532  0.1961 -0.5026
 3504TIP3    H132071   5.101   4.639   1.102  0.2528  0.1969 -0.6937
 3504TIP3    H232072   4.989   4.706   1.025  0.8095  0.7971 -0.9914
 3505TIP3   OH232073   4.861   6.832   8.461  0.0901 -0.0197  0.9373
 3505TIP3    H132074   4.947   6.791   8.453  1.7124  2.7340  2.6983
 3505TIP3    H232075   4.801   6.769   8.421  3.0316 -1.4947 -1.6122
 3506TIP3   OH232076   2.544   4.258   1.302  0.0165  0.0133  0.3695
 3506TIP3    H132077   2.556   4.197   1.375  1.1757  0.7470  0.8268
 3506TIP3    H232078   2.606   4.329   1.320 -0.6769  0.8914 -0.6108
 3507TIP3   OH232079   1.835   5.110   7.789  0.4775 -0.1002 -0.4802
 3507TIP3    H132080   1.761   5.171   7.798  1.6057  1.3704 -0.8663
 3507TIP3    H232081   1.860   5.089   7.879 -0.0480 -0.1767 -0.3464
 3508TIP3   OH232082   6.681   5.739   0.029 -0.1118 -0.1129 -0.3912
 3508TIP3    H132083   6.770   5.773   0.021  0.0348 -0.4426 -0.1532
 3508TIP3    H232084   6.635   5.778  -0.045  0.3788 -0.4128 -0.8646
 3509TIP3   OH232085   1.303   5.649   7.210  0.1776 -0.0648  0.5670
 3509TIP3    H132086   1.219   5.695   7.213  1.0402  1.6615 -0.3290
 3509TIP3    H232087   1.341   5.674   7.126  1.6332 -0.7400  0.9930
 3510TIP3   OH232088   4.574   3.106   2.097 -0.0570  0.2460 -0.2462
 3510TIP3    H132089   4.588   3.175   2.162 -0.5007 -0.7391  0.9271
 3510TIP3    H232090   4.641   3.121   2.031  2.4128 -0.5208  1.9544
 3511TIP3   OH232091   5.662   6.256   2.024 -0.4181 -0.3445  0.7603
 3511TIP3    H132092   5.596   6.315   2.060 -0.5867 -0.5050  0.7168
 3511TIP3    H232093   5.715   6.232   2.100 -0.9107 -0.8595  0.9498
 3512TIP3   OH232094   1.805   0.828   1.070 -0.2283  0.1077 -0.2635
 3512TIP3    H132095   1.839   0.896   1.012 -1.2180  0.7466 -0.1040
 3512TIP3    H232096   1.827   0.858   1.158 -0.7728  0.2831 -0.1864
 3513TIP3   OH232097   3.059   4.892   1.940 -0.1294 -0.5787  0.0257
 3513TIP3    H132098   3.034   4.965   1.883 -0.2185 -0.0345  0.7408
 3513TIP3    H232099   3.135   4.925   1.988 -0.5986 -0.6977  0.8637
 3514TIP3   OH232100   1.084   1.102   1.549 -0.7106  0.1278 -0.1735
 3514TIP3    H132101   1.043   1.068   1.629 -0.9656 -1.1221 -0.8136
 3514TIP3    H232102   1.176   1.076   1.556 -0.9049 -0.7188 -0.6620
 3515TIP3   OH232103   5.511   2.134   7.060  0.1693  0.8175 -0.6266
 3515TIP3    H132104   5.428   2.168   7.028  1.0450  1.3263 -2.4952
 3515TIP3    H232105   5.517   2.164   7.150 -1.2946  1.4527 -0.7253
 3516TIP3   OH232106   1.782   3.391   1.028 -0.5871  0.2192  0.4052
 3516TIP3    H132107   1.858   3.431   0.985 -0.8825  0.3855  0.0357
 3516TIP3    H232108   1.819   3.316   1.076 -0.2699 -0.0489 -0.2445
 3517TIP3   OH232109   4.104   2.404   1.512  0.5071 -0.3804 -0.1511
 3517TIP3    H132110   4.198   2.422   1.526  0.1071  0.6550  1.5602
 3517TIP3    H232111   4.061   2.486   1.534 -0.7461 -0.3062 -2.6010
 3518TIP3   OH232112   2.175   4.464   7.168  0.6223  0.3213  1.0332
 3518TIP3    H132113   2.129   4.384   7.145 -0.6626  1.0491  0.9407
 3518TIP3    H232114   2.221   4.489   7.088 -0.9200  0.9244  0.2904
 3519TIP3   OH232115   0.551   1.106   7.365 -0.4363  0.4877 -0.1078
 3519TIP3    H132116   0.497   1.152   7.301  0.3417  1.0990 -0.3508
 3519TIP3    H232117   0.617   1.171   7.390 -0.7202  0.2438  1.3034
 3520TIP3   OH232118   0.995   5.321   6.769  0.2219  0.2863  0.6831
 3520TIP3    H132119   0.909   5.363   6.756  0.6525  1.1033  0.3593
 3520TIP3    H232120   1.044   5.345   6.690  0.5647 -0.6488  0.6113
 3521TIP3   OH232121   1.892   3.310   7.473  0.2232  0.5489  0.1383
 3521TIP3    H132122   1.827   3.263   7.421  0.6363 -1.8206  1.5925
 3521TIP3    H232123   1.954   3.346   7.409 -0.7024  0.0167 -1.0963
 3522TIP3   OH232124   1.054   4.731   0.541  0.0824 -0.4834  0.8747
 3522TIP3    H132125   1.111   4.781   0.599  1.0717  2.7164 -2.4300
 3522TIP3    H232126   1.109   4.662   0.505  1.2888  1.0705 -0.4259
 3523TIP3   OH232127   0.028   1.731   1.715  0.0354 -0.3352  0.3717
 3523TIP3    H132128   0.108   1.738   1.663 -0.1107 -0.8148  0.0840
 3523TIP3    H232129   0.018   1.818   1.754  0.0646  0.0788 -0.5153
 3524TIP3   OH232130   5.526   2.540   0.166 -0.7060 -0.1293  0.2096
 3524TIP3    H132131   5.496   2.455   0.197 -0.1622 -0.6155 -0.5828
 3524TIP3    H232132   5.534   2.592   0.246  1.1729 -1.5235  0.9963
 3525TIP3   OH232133   0.075   3.070   7.443  0.3072 -0.0341  0.1866
 3525TIP3    H132134   0.120   2.985   7.438 -0.2533 -0.3425  0.3200
 3525TIP3    H232135   0.017   3.071   7.367  0.2597  0.1987  0.2251
 3526TIP3   OH232136   1.583   3.111   1.049 -0.7285  0.1880 -0.2666
 3526TIP3    H132137   1.490   3.131   1.062 -1.5105 -3.8453  2.2131
 3526TIP3    H232138   1.608   3.063   1.128  3.6087  1.2559 -0.7437
 3527TIP3   OH232139   1.263   5.369   0.268 -0.0800  0.2911 -0.0138
 3527TIP3    H132140   1.263   5.434   0.338  0.5062 -1.2908  1.5078
 3527TIP3    H232141   1.235   5.418   0.190  0.7724  2.4536  0.9599
 3528TIP3   OH232142   3.343   3.593   1.308 -0.2182 -0.2949  0.2959
 3528TIP3    H132143   3.425   3.635   1.331 -0.4044 -0.5690  1.5480
 3528TIP3    H232144   3.363   3.541   1.230  0.5333  0.4073  0.0072
 3529TIP3   OH232145   3.599   1.016   1.569 -0.0511 -0.0891 -0.5463
 3529TIP3    H132146   3.514   0.981   1.599  0.3416 -1.4201 -0.9258
 3529TIP3    H232147   3.575   1.086   1.509 -0.8735  0.4224  0.3404
 3530TIP3   OH232148   1.355   6.027   1.018  1.2391 -0.3836  0.2126
 3530TIP3    H132149   1.263   6.002   1.015  1.2585 -0.4017 -0.3541
 3530TIP3    H232150   1.360   6.095   1.086  0.9198 -0.8135  0.6715
 3531TIP3   OH232151   3.062   6.615   6.205  0.1709  0.2495  0.0581
 3531TIP3    H132152   3.068   6.522   6.226 -2.5042  0.0407  0.1592
 3531TIP3    H232153   3.068   6.659   6.289 -1.9878 -0.0935  0.4489
 3532TIP3   OH232154   1.082   4.805   7.753 -0.0249 -0.4943 -0.1495
 3532TIP3    H132155   1.130   4.760   7.822 -0.1682 -1.4260 -0.6451
 3532TIP3    H232156   1.076   4.741   7.682 -1.8479 -0.3500 -0.1799
 3533TIP3   OH232157   1.816   2.189   8.501  0.5129  0.0972  0.0142
 3533TIP3    H132158   1.870   2.247   8.448  0.7666 -1.4348 -1.4725
 3533TIP3    H232159   1.733   2.183   8.452 -0.2714  0.7780  1.2052
 3534TIP3   OH232160   0.745   3.468   6.805  0.0831 -0.1276 -0.5031
 3534TIP3    H132161   0.821   3.524   6.822 -0.5411  1.1759 -1.7833
 3534TIP3    H232162   0.670   3.525   6.820 -0.5826 -0.7933 -1.2506
 3535TIP3   OH232163   4.468   0.581   7.659  0.7161  0.5207  0.2558
 3535TIP3    H132164   4.434   0.509   7.606  1.4678  0.4301 -0.1233
 3535TIP3    H232165   4.455   0.659   7.606 -1.2014  0.8668  1.1592
 3536TIP3   OH232166   2.537   0.041   0.784  0.1098  0.3619 -0.5981
 3536TIP3    H132167   2.541   0.111   0.850 -1.4583  1.4512 -1.5882
 3536TIP3    H232168   2.520  -0.038   0.835 -0.8568  1.1403  0.3609
 3537TIP3   OH232169   3.694   5.449   2.060 -0.7354  0.2305 -0.2144
 3537TIP3    H132170   3.773   5.493   2.091  0.7882 -1.3919 -1.5333
 3537TIP3    H232171   3.622   5.509   2.081  1.1446  3.2720 -1.7514
 3538TIP3   OH232172   2.820   5.289   0.675 -1.0243  0.0201 -0.0856
 3538TIP3    H132173   2.850   5.276   0.584 -0.0330 -2.9252  0.5560
 3538TIP3    H232174   2.863   5.370   0.702  1.4800 -0.7918 -1.2407
 3539TIP3   OH232175   3.563   4.536   0.019 -0.2296 -0.5678 -0.2217
 3539TIP3    H132176   3.596   4.625   0.007 -0.0223 -0.7749 -1.4075
 3539TIP3    H232177   3.641   4.482   0.030 -0.4085 -0.4150  2.2675
 3540TIP3   OH232178   3.945   4.444   0.770  0.1017 -0.5801  0.6242
 3540TIP3    H132179   4.039   4.433   0.755 -0.1068 -0.9099 -0.6106
 3540TIP3    H232180   3.927   4.536   0.750 -0.1392 -0.9704 -1.1737
 3541TIP3   OH232181   2.754   4.340   1.985  0.4726 -0.2943  0.1306
 3541TIP3    H132182   2.732   4.384   2.067  0.7971 -0.6500  0.4126
 3541TIP3    H232183   2.739   4.406   1.918  1.0497  0.2788  0.5562
 3542TIP3   OH232184   6.494   3.475   8.511  0.0223  0.2438 -0.4644
 3542TIP3    H132185   6.413   3.474   8.460  0.3091  0.2356 -0.9276
 3542TIP3    H232186   6.541   3.396   8.484  0.0605  0.0981  0.0117
 3543TIP3   OH232187   1.968   5.660   0.355  0.3699  0.0404  0.4678
 3543TIP3    H132188   2.016   5.739   0.329  0.5834 -0.1196  0.3744
 3543TIP3    H232189   2.013   5.630   0.433  0.7395 -0.3931  0.0952
 3544TIP3   OH232190   3.472   6.340   7.450  0.8443  0.3512  0.7977
 3544TIP3    H132191   3.454   6.359   7.542  0.4998 -0.5744  0.9321
 3544TIP3    H232192   3.438   6.416   7.403 -1.2406 -0.2352  1.2478
 3545TIP3   OH232193   1.517   3.264   0.541  0.1764 -0.1079 -0.0591
 3545TIP3    H132194   1.575   3.282   0.615 -0.2932  0.6011  0.1487
 3545TIP3    H232195   1.499   3.170   0.547  1.0994 -0.2926  0.0133
 3546TIP3   OH232196   1.248   3.513   7.826 -0.2059 -0.2311 -0.0968
 3546TIP3    H132197   1.217   3.540   7.740 -3.2541 -3.0634 -0.0653
 3546TIP3    H232198   1.182   3.545   7.887  0.4621 -0.6493  0.8796
 3547TIP3   OH232199   4.688   6.769   6.802  0.2122  0.0278  0.2607
 3547TIP3    H132200   4.733   6.769   6.717 -1.2156  0.7896 -0.5272
 3547TIP3    H232201   4.596   6.758   6.780 -0.0044 -1.9138  1.8534
 3548TIP3   OH232202   2.447   0.626   6.683 -0.1563 -0.5456  0.3751
 3548TIP3    H132203   2.460   0.677   6.603 -1.4238  0.4693  0.7796
 3548TIP3    H232204   2.516   0.560   6.681  0.4054  0.0451 -1.0848
 3549TIP3   OH232205   3.976   1.207   0.479 -0.0203 -0.1611  0.0523
 3549TIP3    H132206   3.950   1.295   0.450  0.9178  0.6812  1.6312
 3549TIP3    H232207   3.897   1.154   0.468 -1.3776  1.4645  1.3351
 3550TIP3   OH232208   5.256   3.334   1.631  0.4169  0.1935 -0.1948
 3550TIP3    H132209   5.338   3.354   1.675 -0.0104  2.5218 -0.3286
 3550TIP3    H232210   5.264   3.373   1.545 -0.7746  0.3612 -0.2507
 3551TIP3   OH232211   5.774   2.459   0.310 -0.1113 -0.6414  0.3261
 3551TIP3    H132212   5.817   2.518   0.371  0.4660 -0.4527 -0.2553
 3551TIP3    H232213   5.686   2.447   0.346 -0.5414  1.2618 -0.0114
 3552TIP3   OH232214   0.029   3.967   2.463 -0.4384  0.5664 -0.2820
 3552TIP3    H132215  -0.054   3.994   2.502 -0.5791 -1.1169  0.6634
 3552TIP3    H232216   0.004   3.927   2.380 -0.5405  0.3605 -0.1523
 3553TIP3   OH232217   4.451   1.111   0.113 -0.6215  0.0990 -0.1284
 3553TIP3    H132218   4.392   1.127   0.039  0.4357 -0.3291 -1.0756
 3553TIP3    H232219   4.443   1.017   0.130 -0.6541  0.1476  0.1341
 3554TIP3   OH232220   5.318   1.315   0.664 -0.2340  0.0024  0.1603
 3554TIP3    H132221   5.368   1.246   0.708 -1.4659 -0.8027  0.3428
 3554TIP3    H232222   5.375   1.392   0.669  1.0393 -0.8968  0.2434
 3555TIP3   OH232223   1.616   3.326   7.861  0.1925 -0.5086 -0.8641
 3555TIP3    H132224   1.638   3.313   7.953 -0.8626  1.5223 -0.2737
 3555TIP3    H232225   1.643   3.415   7.842 -0.5957 -0.5269 -2.2206
 3556TIP3   OH232226   3.470   5.296   7.715 -0.7079  0.0781  0.0300
 3556TIP3    H132227   3.461   5.224   7.776 -1.1772 -0.9471 -1.1908
 3556TIP3    H232228   3.508   5.257   7.636 -2.4223  0.7859 -1.2348
 3557TIP3   OH232229   6.857   3.049   7.192 -0.2092  0.6113  0.0218
 3557TIP3    H132230   6.789   3.060   7.125 -0.2644 -0.8360 -0.1892
 3557TIP3    H232231   6.915   2.982   7.157  1.3371  1.7723  0.2291
 3558TIP3   OH232232   2.088   3.039   7.584 -0.0721 -0.2429  0.0797
 3558TIP3    H132233   2.137   3.115   7.550 -0.5657  0.4759  0.9309
 3558TIP3    H232234   2.041   3.006   7.507  0.8312 -0.2307 -0.4945
 3559TIP3   OH232235   4.119   4.750   1.926 -0.1229 -0.0934  0.1794
 3559TIP3    H132236   4.174   4.765   2.003  0.2639  0.5460 -0.2106
 3559TIP3    H232237   4.125   4.655   1.910  0.0085 -0.1885  0.7748
 3560TIP3   OH232238   2.308   1.844   0.288  0.1997 -0.1869  0.2942
 3560TIP3    H132239   2.384   1.903   0.288 -0.1008  0.2276 -0.6717
 3560TIP3    H232240   2.331   1.776   0.224 -1.7772  2.0917 -3.1578
 3561TIP3   OH232241   6.512   2.376   1.091 -0.1917 -0.0981  0.1047
 3561TIP3    H132242   6.433   2.388   1.144 -1.6543 -1.0526 -1.7302
 3561TIP3    H232243   6.541   2.287   1.112  0.7508  0.4408  1.1759
 3562TIP3   OH232244   0.019   3.216   1.155 -0.0971  0.0342  0.5434
 3562TIP3    H132245   0.101   3.212   1.205  0.0073 -0.1154  0.3636
 3562TIP3    H232246   0.047   3.210   1.064 -0.3153 -0.0827  0.4849
 3563TIP3   OH232247   4.857   5.701   1.713  0.0831 -0.5373 -0.0155
 3563TIP3    H132248   4.773   5.679   1.672  0.6352 -0.4465 -1.2280
 3563TIP3    H232249   4.913   5.626   1.695  1.6881  1.2498 -3.3253
 3564TIP3   OH232250   0.771   3.419   7.913 -0.2020  0.1438 -0.5760
 3564TIP3    H132251   0.848   3.409   7.968  0.5370 -0.9036 -1.7310
 3564TIP3    H232252   0.780   3.506   7.874 -0.0311  0.3420 -0.1043
 3565TIP3   OH232253   6.354   3.294   2.308  0.1541 -0.1636 -0.3134
 3565TIP3    H132254   6.344   3.224   2.244  0.5403 -0.2081 -0.3274
 3565TIP3    H232255   6.329   3.255   2.392  0.8160 -0.4544 -0.2464
 3566TIP3   OH232256   0.888   0.591   2.374  0.6381 -0.7036 -0.7901
 3566TIP3    H132257   0.871   0.575   2.281 -2.7178  2.0705 -0.8738
 3566TIP3    H232258   0.821   0.541   2.420  1.1132 -0.6082  0.0316
 3567TIP3   OH232259   6.093   4.440   0.037 -0.0634  0.8676  0.1044
 3567TIP3    H132260   6.071   4.367  -0.021 -0.1663  2.0781 -1.4576
 3567TIP3    H232261   6.180   4.466   0.009 -0.4111  1.9307 -0.0179
 3568TIP3   OH232262   3.942   4.006   0.712  0.7630 -0.9996  0.8275
 3568TIP3    H132263   3.979   4.059   0.783 -1.6698  2.4190 -0.1923
 3568TIP3    H232264   3.891   3.939   0.757  0.3523  0.2652  2.3612
 3569TIP3   OH232265   4.745   3.459   0.559 -0.4107  0.5802 -0.1157
 3569TIP3    H132266   4.685   3.527   0.588 -0.1279  1.5001 -1.5920
 3569TIP3    H232267   4.821   3.506   0.525  0.7058 -0.5328  0.6949
 3570TIP3   OH232268   0.045   5.192   1.001 -0.3981 -0.7251 -0.3516
 3570TIP3    H132269   0.006   5.104   1.002 -3.1855  0.4317 -0.2244
 3570TIP3    H232270   0.079   5.203   1.090 -2.6856 -0.6320  0.5769
 3571TIP3   OH232271   3.980   5.600   1.145  0.2896 -0.1943  0.5188
 3571TIP3    H132272   3.952   5.614   1.054  0.3607 -0.1811  0.4990
 3571TIP3    H232273   3.898   5.591   1.194  0.2174  1.0159  0.6479
 3572TIP3   OH232274   5.568   3.473   6.574 -0.2387 -0.4325 -0.9225
 3572TIP3    H132275   5.479   3.453   6.600  0.2161 -0.5261  0.7219
 3572TIP3    H232276   5.562   3.558   6.531 -1.2299 -0.8481 -1.6226
 3573TIP3   OH232277   4.209   0.259   7.296 -0.0103 -0.4999 -0.0186
 3573TIP3    H132278   4.141   0.200   7.261  0.3295 -0.2165 -1.2053
 3573TIP3    H232279   4.291   0.226   7.259  0.2088  0.5756 -0.5410
 3574TIP3   OH232280   2.980   3.598   1.118 -0.3408  0.4795  0.7424
 3574TIP3    H132281   2.904   3.629   1.069  0.3171  0.5626 -0.2714
 3574TIP3    H232282   2.988   3.506   1.092 -1.0578  0.0102  2.1220
 3575TIP3   OH232283   2.067   0.899   0.926  0.4426 -0.4250 -0.4860
 3575TIP3    H132284   2.113   0.976   0.961  0.2989 -0.3259 -0.5190
 3575TIP3    H232285   2.114   0.825   0.964 -0.3790 -0.3146  0.8010
 3576TIP3   OH232286   4.733   0.881   0.986  0.0419 -0.2757  0.6195
 3576TIP3    H132287   4.779   0.811   1.033  0.0371 -0.6604  0.0523
 3576TIP3    H232288   4.719   0.846   0.898 -0.6536  0.1364  0.5616
 3577TIP3   OH232289   4.846   4.214   7.407 -0.2282 -0.0630  0.1169
 3577TIP3    H132290   4.906   4.232   7.480 -3.0952 -0.0058  2.6458
 3577TIP3    H232291   4.903   4.186   7.335  2.7703 -0.1420  2.3514
 3578TIP3   OH232292   1.772   6.414   0.961 -0.3128 -0.3776  0.3193
 3578TIP3    H132293   1.865   6.414   0.939 -0.7672  1.1829 -1.9006
 3578TIP3    H232294   1.756   6.326   0.996  1.6162 -1.3139 -0.9515
 3579TIP3   OH232295   0.358   2.202   2.568  0.0192  1.1255  0.4493
 3579TIP3    H132296   0.272   2.240   2.587  0.1317  1.7795 -0.2652
 3579TIP3    H232297   0.419   2.250   2.624 -0.2294 -0.3562  2.0772
 3580TIP3   OH232298   2.533   3.537   1.330  0.3833  0.6196 -0.3452
 3580TIP3    H132299   2.491   3.559   1.413  0.8013  2.8050 -0.6654
 3580TIP3    H232300   2.626   3.532   1.351  0.3773 -0.2031 -0.4489
 3581TIP3   OH232301   6.449   4.271   7.446  0.4652  0.1566 -0.0869
 3581TIP3    H132302   6.383   4.322   7.494 -0.8760 -1.1593 -0.4451
 3581TIP3    H232303   6.405   4.247   7.364  1.8463  0.2708 -0.8979
 3582TIP3   OH232304   5.338   6.040   7.687 -0.4150  0.3692  0.0557
 3582TIP3    H132305   5.417   6.014   7.639 -0.6279 -2.9822  1.3271
 3582TIP3    H232306   5.276   6.062   7.618 -0.4191 -3.4273 -1.3841
 3583TIP3   OH232307   1.202   3.626   7.586 -0.1908 -0.0339 -0.1088
 3583TIP3    H132308   1.170   3.695   7.526  2.8183  0.3064 -1.5040
 3583TIP3    H232309   1.283   3.595   7.545  0.6296 -1.6549  2.5383
 3584TIP3   OH232310   0.740   5.172   6.213  0.1472  0.3252  0.0655
 3584TIP3    H132311   0.739   5.093   6.159 -0.7045 -0.2126  0.8318
 3584TIP3    H232312   0.692   5.237   6.162 -1.3987 -0.4233  0.4913
 3585TIP3   OH232313   5.529   3.948   1.999  0.2794  0.2437  0.6697
 3585TIP3    H132314   5.579   3.867   1.999  0.0740  0.1103  0.3062
 3585TIP3    H232315   5.594   4.017   2.008  0.5175  0.0669  0.3345
 3586TIP3   OH232316   5.930   0.303   1.565  0.1684  0.4520 -0.2925
 3586TIP3    H132317   5.938   0.326   1.658  0.2603 -0.4363 -0.0686
 3586TIP3    H232318   6.021   0.295   1.535  0.1467 -0.2504 -0.1931
 3587TIP3   OH232319   1.101   2.854   1.941 -0.4663  0.0202  0.5292
 3587TIP3    H132320   1.045   2.779   1.920  2.1991 -1.2618 -2.8881
 3587TIP3    H232321   1.159   2.821   2.010 -1.0472 -0.0756  0.9890
 3588TIP3   OH232322   1.851   4.069   1.169 -0.3644 -0.4883  0.0221
 3588TIP3    H132323   1.759   4.042   1.165 -0.6094  0.4341 -2.5734
 3588TIP3    H232324   1.861   4.108   1.256 -2.4916 -0.4306  0.2904
 3589TIP3   OH232325   0.885   5.476   0.319 -0.5922 -0.6409  0.4003
 3589TIP3    H132326   0.882   5.549   0.257  1.4905  0.3263  1.3309
 3589TIP3    H232327   0.876   5.398   0.265  1.5034  0.1498 -1.2464
 3590TIP3   OH232328   2.952   2.746   1.749 -0.8563 -0.0078 -0.5608
 3590TIP3    H132329   2.966   2.655   1.722 -0.4636 -0.0602 -0.1850
 3590TIP3    H232330   3.032   2.770   1.795 -2.1752 -0.5565  2.2227
 3591TIP3   OH232331   5.343   2.043   1.539 -0.0724 -0.1288  0.4460
 3591TIP3    H132332   5.369   1.994   1.616  3.3176 -0.1306 -0.5097
 3591TIP3    H232333   5.401   2.119   1.538 -2.2822  1.6807 -0.3920
 3592TIP3   OH232334   0.776   6.853   6.961  0.4032  0.3144 -0.4661
 3592TIP3    H132335   0.829   6.856   6.881  1.2104  0.7876  0.0610
 3592TIP3    H232336   0.771   6.945   6.989  1.9640 -0.0250  1.1575
 3593TIP3   OH232337   4.934   0.519   0.896  0.1556  0.6731  0.3076
 3593TIP3    H132338   4.840   0.505   0.883  0.3056  0.1560 -0.2750
 3593TIP3    H232339   4.974   0.435   0.871  0.6694  0.4281  1.8186
 3594TIP3   OH232340   1.265   1.634   0.304 -0.6051 -0.6216 -0.1063
 3594TIP3    H132341   1.195   1.610   0.244 -0.1740 -1.1844 -0.3873
 3594TIP3    H232342   1.294   1.551   0.342  1.2355 -0.6619 -1.4444
 3595TIP3   OH232343   1.237   3.715   1.812  0.0946  0.3911  0.1204
 3595TIP3    H132344   1.264   3.665   1.888 -0.3321 -1.3003 -0.7744
 3595TIP3    H232345   1.305   3.781   1.800  0.4751  0.2804  1.5805
 3596TIP3   OH232346   1.682   1.592   6.656  1.1134  0.0094 -0.3295
 3596TIP3    H132347   1.685   1.506   6.614  0.0774  0.5215 -1.5090
 3596TIP3    H232348   1.774   1.613   6.674  1.3247 -1.7403  0.8948
 3597TIP3   OH232349   1.564   4.990   6.993  0.3630  0.3406 -0.1406
 3597TIP3    H132350   1.532   4.942   6.917 -1.4021  0.7589  0.2944
 3597TIP3    H232351   1.534   4.939   7.068  2.4522 -0.2998  0.3161
 3598TIP3   OH232352   5.315   5.508   1.396  0.0029 -0.6299 -0.0359
 3598TIP3    H132353   5.268   5.428   1.420 -1.6337  0.5182  0.7805
 3598TIP3    H232354   5.333   5.551   1.480 -1.2428  0.9646 -0.5330
 3599TIP3   OH232355   4.096   3.796   8.053 -0.3333  0.1045  0.1461
 3599TIP3    H132356   4.063   3.854   7.983  2.0718  0.9608 -0.3690
 3599TIP3    H232357   4.055   3.711   8.035  0.2289  0.2805 -2.3942
 3600TIP3   OH232358   6.438   5.678   2.373  0.2658  0.2899  0.3741
 3600TIP3    H132359   6.471   5.610   2.314  0.7780  0.8440  0.0085
 3600TIP3    H232360   6.375   5.633   2.429  0.4895 -0.4521  0.0386
 3601TIP3   OH232361   2.888   0.032   8.012  0.1587  0.7314  0.1298
 3601TIP3    H132362   2.925  -0.028   7.947 -3.0228 -1.4575  0.0632
 3601TIP3    H232363   2.960   0.052   8.071  1.8010 -1.8485 -0.8487
 3602TIP3   OH232364   0.039   0.646   0.727  0.8364 -0.0683 -0.2763
 3602TIP3    H132365   0.108   0.710   0.739 -0.9388  1.7964  0.5499
 3602TIP3    H232366   0.028   0.605   0.813 -0.1020  0.7898  0.0402
 3603TIP3   OH232367   1.771   5.603   6.986  0.3356 -0.2147 -0.4195
 3603TIP3    H132368   1.680   5.624   7.008  0.6050  1.0086 -0.4108
 3603TIP3    H232369   1.796   5.668   6.921  1.7663  0.6465  0.9113
 3604TIP3   OH232370   5.287   2.843   7.688 -0.1513  0.1172  0.1325
 3604TIP3    H132371   5.223   2.885   7.631  0.4998  0.2776 -0.4890
 3604TIP3    H232372   5.308   2.760   7.645  0.0532  0.0608  0.3386
 3605TIP3   OH232373   5.696   0.756   1.527  0.2485 -0.1671 -0.8256
 3605TIP3    H132374   5.774   0.812   1.532  0.0757  0.0913 -1.0005
 3605TIP3    H232375   5.645   0.793   1.455  0.6018 -1.1677 -1.6116
 3606TIP3   OH232376   0.973   6.292   1.830 -0.2927 -0.0696  0.1612
 3606TIP3    H132377   0.909   6.239   1.877 -0.9694 -1.1773 -1.9083
 3606TIP3    H232378   1.056   6.274   1.875 -0.6137 -2.4056 -0.0672
 3607TIP3   OH232379   0.248   3.176   7.925 -0.1701 -0.1160 -0.0967
 3607TIP3    H132380   0.208   3.139   7.846 -1.1293 -0.3316  0.4641
 3607TIP3    H232381   0.218   3.267   7.926 -0.8049 -0.3169  0.4017
 3608TIP3   OH232382   2.824   3.082   0.056 -0.1650  0.1642  0.0300
 3608TIP3    H132383   2.860   2.999   0.024 -0.1720 -0.0254  0.5059
 3608TIP3    H232384   2.803   3.131  -0.024  2.5904  0.9261 -0.3393
 3609TIP3   OH232385   5.519   0.692   0.753 -0.4220 -0.4698  0.2268
 3609TIP3    H132386   5.457   0.646   0.809 -2.3091  1.4006 -0.2028
 3609TIP3    H232387   5.542   0.771   0.803  0.3163 -0.3227 -0.3287
 3610TIP3   OH232388   4.602   1.376   7.504  0.0564  0.3279  0.2785
 3610TIP3    H132389   4.572   1.311   7.441  2.7718 -0.0201 -0.7596
 3610TIP3    H232390   4.626   1.452   7.451  1.4824  0.3832  0.9654
 3611TIP3   OH232391   2.296   0.774   0.779  0.0952 -0.3513 -0.4269
 3611TIP3    H132392   2.315   0.792   0.872  0.4468 -2.0258 -0.1442
 3611TIP3    H232393   2.211   0.731   0.780 -0.1606  0.1452 -0.9408
 3612TIP3   OH232394   5.355   2.674   7.474  0.3898  0.1213  0.2745
 3612TIP3    H132395   5.380   2.749   7.420  1.6071 -0.2257  0.3281
 3612TIP3    H232396   5.261   2.665   7.460  0.6996 -0.1333 -2.0476
 3613TIP3   OH232397   3.999   5.414   0.729  0.4048 -0.0929 -0.0870
 3613TIP3    H132398   3.906   5.414   0.752  0.6108 -1.0560  0.8294
 3613TIP3    H232399   4.039   5.477   0.789  0.4431 -0.2120  0.0146
 3614TIP3   OH232400   5.971   1.721   1.260 -0.3990  0.0550 -0.1652
 3614TIP3    H132401   6.011   1.636   1.278 -0.5863  0.0116  0.0698
 3614TIP3    H232402   5.877   1.703   1.263 -0.5974  0.8824  3.3580
 3615TIP3   OH232403   6.369   5.937   0.460  0.5535 -0.1826  0.5335
 3615TIP3    H132404   6.393   6.007   0.399  0.5453 -0.0505  0.6793
 3615TIP3    H232405   6.388   5.974   0.547 -0.6712  0.1284  0.6852
 3616TIP3   OH232406   2.053   6.309   1.407  0.1250 -0.2151 -0.8531
 3616TIP3    H132407   2.003   6.383   1.373 -1.5421 -1.2099 -0.6856
 3616TIP3    H232408   2.090   6.341   1.489  0.0339  0.6484 -1.1394
 3617TIP3   OH232409   1.860   0.622   1.960  0.0837 -0.0744 -0.4158
 3617TIP3    H132410   1.888   0.714   1.963  1.2560 -0.4387  1.1747
 3617TIP3    H232411   1.856   0.595   2.051  0.9179 -1.9386 -0.8749
 3618TIP3   OH232412   4.264   1.397   2.304 -0.7742  0.1580 -0.4295
 3618TIP3    H132413   4.327   1.325   2.317 -1.2800 -0.4682 -1.2948
 3618TIP3    H232414   4.305   1.453   2.238 -1.4594 -0.7094 -1.6366
 3619TIP3   OH232415   4.115   5.004   0.019 -0.3815  0.5894  0.2253
 3619TIP3    H132416   4.210   5.010   0.015 -0.4899  2.5615 -0.6081
 3619TIP3    H232417   4.092   4.939  -0.048  0.3434  0.3513  0.1970
 3620TIP3   OH232418   4.518   6.262   8.269 -0.5756 -0.3654 -0.1215
 3620TIP3    H132419   4.428   6.288   8.290 -0.5257  2.1442 -2.4530
 3620TIP3    H232420   4.573   6.318   8.324 -0.4425 -0.8677  0.2580
 3621TIP3   OH232421   6.736   4.116   7.130  1.3512  0.6322 -0.5787
 3621TIP3    H132422   6.723   4.193   7.185  0.3646 -0.4421  0.7738
 3621TIP3    H232423   6.684   4.132   7.052 -0.2046  0.6502  0.4291
 3622TIP3   OH232424   6.298   2.646   1.680  0.3757  0.0736 -0.3901
 3622TIP3    H132425   6.268   2.686   1.762  1.8092  1.6375 -0.5799
 3622TIP3    H232426   6.240   2.571   1.668 -0.4387  0.3164  1.5918
 3623TIP3   OH232427   3.487   3.625   7.344  0.0641  0.5290  0.6912
 3623TIP3    H132428   3.398   3.593   7.330  0.0739  0.7408  0.1260
 3623TIP3    H232429   3.522   3.569   7.414  0.9028 -2.3647 -1.8515
 3624TIP3   OH232430   1.092   3.729   7.971  0.6175  0.0242 -0.3387
 3624TIP3    H132431   1.131   3.731   8.059  0.8794 -1.2311 -0.4077
 3624TIP3    H232432   1.128   3.805   7.927  0.1816  0.8962  0.7647
 3625TIP3   OH232433   3.201   0.324   1.695  0.4733  0.2330  0.2036
 3625TIP3    H132434   3.150   0.350   1.618  1.0177 -0.3908 -0.3783
 3625TIP3    H232435   3.151   0.252   1.733  0.3823  0.3141  0.2386
 3626TIP3   OH232436   2.018   1.526   0.502 -0.1786 -0.7059  0.1268
 3626TIP3    H132437   2.034   1.607   0.550 -0.3000  0.3779 -1.6025
 3626TIP3    H232438   2.010   1.459   0.570 -1.5631  0.9564  1.6996
 3627TIP3   OH232439   1.007   4.848   8.264  0.2521  0.2458  0.5457
 3627TIP3    H132440   1.079   4.850   8.202  0.5448 -0.7861  0.8479
 3627TIP3    H232441   0.960   4.931   8.248  0.8217  0.3966 -0.4354
 3628TIP3   OH232442   5.401   0.801   7.762 -1.0995 -0.5123 -0.1174
 3628TIP3    H132443   5.465   0.846   7.818 -1.3733 -1.0123  0.6203
 3628TIP3    H232444   5.422   0.830   7.673 -2.4139  2.5082  0.4455
 3629TIP3   OH232445   4.680   3.923   6.867 -0.3657 -0.1929  0.1129
 3629TIP3    H132446   4.771   3.912   6.839 -0.8654 -0.5824 -1.4882
 3629TIP3    H232447   4.673   4.014   6.895 -0.0192  0.5155 -1.9906
 3630TIP3   OH232448   1.468   4.422   8.398  0.7953  0.3237 -0.3153
 3630TIP3    H132449   1.536   4.437   8.332  2.9054  0.1221  1.6528
 3630TIP3    H232450   1.500   4.470   8.475 -0.5649 -1.0277  1.1515
 3631TIP3   OH232451   2.533   6.860   2.093 -0.3252 -0.4605 -0.0095
 3631TIP3    H132452   2.494   6.772   2.094  1.7153 -1.4156  0.3995
 3631TIP3    H232453   2.491   6.905   2.166 -0.6986 -1.4392  0.3972
 3632TIP3   OH232454   0.061   0.131   6.990  0.5111  0.0887  0.4009
 3632TIP3    H132455   0.077   0.165   6.902  0.4352  0.5212  0.5518
 3632TIP3    H232456  -0.032   0.144   7.005  0.5153 -0.0251  0.5312
 3633TIP3   OH232457   3.734   1.300   0.834 -0.6146  0.0120  0.0060
 3633TIP3    H132458   3.729   1.293   0.739 -0.1630  0.6061 -0.0682
 3633TIP3    H232459   3.645   1.284   0.864 -1.1027  1.3827 -0.6287
 3634TIP3   OH232460   5.531   5.238   1.963  0.4328  0.3764 -0.4276
 3634TIP3    H132461   5.501   5.328   1.947 -0.8504  0.1757  0.6640
 3634TIP3    H232462   5.504   5.219   2.053  0.0331 -1.3466 -0.8643
 3635TIP3   OH232463   2.182   6.460   1.566  0.0014 -0.3376  0.2524
 3635TIP3    H132464   2.180   6.553   1.544  1.4935 -0.3449 -0.0572
 3635TIP3    H232465   2.259   6.451   1.623 -0.4823 -1.2860  0.7840
 3636TIP3   OH232466   0.906   2.440   7.965 -0.3496  0.1592  0.4811
 3636TIP3    H132467   0.983   2.409   7.917 -1.3768 -1.0444 -0.4310
 3636TIP3    H232468   0.911   2.536   7.957  1.0319  0.1099  0.4373
 3637TIP3   OH232469   3.352   1.434   8.306  0.2595 -0.3387 -0.2219
 3637TIP3    H132470   3.309   1.517   8.286 -0.8526 -1.0957 -1.0291
 3637TIP3    H232471   3.378   1.443   8.398  3.3699  2.2784 -1.1612
 3638TIP3   OH232472   2.861   1.501   1.716  0.1770 -0.1451  0.4000
 3638TIP3    H132473   2.859   1.406   1.705 -0.6226 -0.1546  0.5256
 3638TIP3    H232474   2.831   1.514   1.806  0.1934  0.2282  0.3498
 3639TIP3   OH232475   6.623   4.501   8.011 -0.0365 -0.2891  0.3410
 3639TIP3    H132476   6.687   4.435   8.037  0.3028  0.8508  2.6077
 3639TIP3    H232477   6.650   4.581   8.057 -1.6922  0.8575 -0.5752
 3640TIP3   OH232478   6.238   4.015   1.146 -0.3253  0.6084 -0.4629
 3640TIP3    H132479   6.238   4.093   1.090 -1.3638  0.9936  0.0487
 3640TIP3    H232480   6.235   3.941   1.084  3.2418  0.7914 -1.0787
 3641TIP3   OH232481   4.150   0.769   8.550  0.5155 -0.5596  0.2557
 3641TIP3    H132482   4.176   0.731   8.634 -0.7498  2.3853  2.1635
 3641TIP3    H232483   4.061   0.737   8.537 -0.0518  0.5650  1.1670
 3642TIP3   OH232484   2.956   1.832   8.319  0.6808 -0.3412 -0.0468
 3642TIP3    H132485   3.047   1.854   8.301  0.4317  0.8410  0.0288
 3642TIP3    H232486   2.906   1.876   8.249  0.1390 -0.5523  0.1992
 3643TIP3   OH232487   4.928   0.215   1.121 -0.1703 -0.4790 -0.2287
 3643TIP3    H132488   4.943   0.191   1.213 -0.7622 -1.7451 -0.4378
 3643TIP3    H232489   4.872   0.293   1.125  0.2535 -0.2032  0.4824
 3644TIP3   OH232490   1.687   4.476   8.222  0.3305  0.2853  0.2698
 3644TIP3    H132491   1.675   4.552   8.278 -0.0174  0.0096  0.5681
 3644TIP3    H232492   1.782   4.466   8.215  0.3780  0.7341  0.2408
 3645TIP3   OH232493   3.287   5.267   1.440  0.2720 -0.2159  0.2278
 3645TIP3    H132494   3.282   5.271   1.345 -0.1227 -1.4764  0.1810
 3645TIP3    H232495   3.283   5.359   1.468  0.2755  0.1605 -0.9493
 3646TIP3   OH232496   4.107   1.601   2.544 -0.1111 -0.1859  0.5702
 3646TIP3    H132497   4.105   1.517   2.498 -0.4005  0.1721 -0.0852
 3646TIP3    H232498   4.196   1.608   2.577  0.0595 -0.5224  0.1895
 3647TIP3   OH232499   5.956   6.554   7.709  0.7279  0.1805  0.1137
 3647TIP3    H132500   6.025   6.572   7.645 -0.9180  0.9977 -1.5169
 3647TIP3    H232501   5.924   6.640   7.736 -0.9739 -0.1562 -0.6887
 3648TIP3   OH232502   3.943   2.037   1.150 -0.1052 -0.1510  0.0476
 3648TIP3    H132503   3.966   2.130   1.153  2.3208 -0.6576 -0.6925
 3648TIP3    H232504   3.971   2.003   1.235  0.5969 -0.5036 -0.3172
 3649TIP3   OH232505   0.673   2.049   0.894  0.5117 -0.2275 -0.1107
 3649TIP3    H132506   0.656   1.960   0.862  0.5393  0.3948 -1.9021
 3649TIP3    H232507   0.768   2.061   0.882  0.6918 -0.2859  1.0686
 3650TIP3   OH232508   1.824   5.297   0.092 -0.0908  0.0990 -0.2651
 3650TIP3    H132509   1.740   5.342   0.087  0.1480  0.4492 -1.2403
 3650TIP3    H232510   1.888   5.366   0.103  0.0679 -0.1804  0.6721
 3651TIP3   OH232511   0.694   5.024   2.416 -0.3269 -0.4920  0.2319
 3651TIP3    H132512   0.615   4.974   2.397 -0.6503 -0.2145  0.8132
 3651TIP3    H232513   0.753   5.005   2.343 -0.5113 -1.5644  0.3531
 3652TIP3   OH232514   5.571   0.497   1.351  0.1529 -0.3743 -0.0249
 3652TIP3    H132515   5.494   0.553   1.346  0.2127 -0.0868  1.6798
 3652TIP3    H232516   5.576   0.471   1.442  1.2136 -1.6447 -0.4115
 3653TIP3   OH232517   1.932   3.694   2.434 -0.2198 -0.3800 -0.6467
 3653TIP3    H132518   1.908   3.706   2.526 -1.0435  0.6771 -0.9742
 3653TIP3    H232519   2.025   3.715   2.430 -0.1018 -0.7622 -0.0032
 3654TIP3   OH232520   3.847   1.989   8.258  0.2278  0.1996  0.0087
 3654TIP3    H132521   3.925   2.036   8.229 -0.1279  0.8276  0.0440
 3654TIP3    H232522   3.806   1.958   8.177 -0.2019  1.0469 -0.1176
 3655TIP3   OH232523   5.907   5.068   0.447 -0.0211  0.7054 -0.1308
 3655TIP3    H132524   5.823   5.084   0.404  0.1591  2.8763  0.1979
 3655TIP3    H232525   5.915   5.139   0.511  1.5298 -0.1486  0.6881
 3656TIP3   OH232526   4.758   3.664   6.630 -0.3709  0.0973 -0.3332
 3656TIP3    H132527   4.791   3.665   6.720 -0.8886 -0.4972 -0.1274
 3656TIP3    H232528   4.733   3.573   6.615  0.1694  0.0862 -1.2515
 3657TIP3   OH232529   5.302   0.756   0.507  0.5490  0.0540  0.1742
 3657TIP3    H132530   5.311   0.661   0.512  0.9159 -0.0551 -1.8485
 3657TIP3    H232531   5.281   0.783   0.597  1.4859 -1.8069  1.0031
 3658TIP3   OH232532   4.179   6.285   1.090  0.2193 -0.2261 -0.0102
 3658TIP3    H132533   4.267   6.323   1.079  1.3648 -2.2536  1.3854
 3658TIP3    H232534   4.122   6.360   1.106  1.8587  1.1043 -0.0865
 3659TIP3   OH232535   6.536   1.756   1.237 -0.1190  0.0924  0.3330
 3659TIP3    H132536   6.608   1.812   1.267 -0.8721  1.1286  0.2788
 3659TIP3    H232537   6.483   1.814   1.183 -0.4462 -0.9339 -0.4744
 3660TIP3   OH232538   6.471   2.730   0.677 -0.8853 -0.2957 -0.4121
 3660TIP3    H132539   6.416   2.732   0.756  0.3160  0.8940  0.4417
 3660TIP3    H232540   6.554   2.769   0.705  0.9229 -3.2444 -1.2858
 3661TIP3   OH232541   6.390   2.260   6.957  0.1666  0.2544 -0.7360
 3661TIP3    H132542   6.361   2.351   6.948  0.3678  0.6297  1.7110
 3661TIP3    H232543   6.319   2.209   6.919 -1.1780  1.3760  0.1436
 3662TIP3   OH232544   3.253   2.474   2.513  0.0880  0.6571  0.4641
 3662TIP3    H132545   3.287   2.391   2.480  0.6258  0.9230  0.3439
 3662TIP3    H232546   3.238   2.458   2.606  0.9932  0.6719  0.6246
 3663TIP3   OH232547   2.568   5.630   8.075  0.1421 -0.4221  0.0929
 3663TIP3    H132548   2.500   5.571   8.108  1.1413 -1.1081  0.9628
 3663TIP3    H232549   2.622   5.575   8.017 -1.0439  0.5431 -2.0558
 3664TIP3   OH232550   1.227   1.279   1.178 -0.2053 -0.8871 -0.1625
 3664TIP3    H132551   1.259   1.369   1.183 -1.9878 -0.2303 -0.0560
 3664TIP3    H232552   1.277   1.240   1.107  0.8649  0.0598  0.0450
 3665TIP3   OH232553   6.230   0.842   8.426 -0.2484  0.0744 -0.4399
 3665TIP3    H132554   6.284   0.880   8.495 -0.3133  0.8692 -0.8169
 3665TIP3    H232555   6.255   0.750   8.425 -0.7666 -0.1139  1.1332
 3666TIP3   OH232556   4.853   6.023   7.408  0.3826  0.1265  0.0893
 3666TIP3    H132557   4.845   6.115   7.381  1.5731  0.7683  1.7709
 3666TIP3    H232558   4.886   5.979   7.330 -1.7484  0.7701 -1.2645
 3667TIP3   OH232559   4.471   1.445   0.626  0.5845 -0.1038 -0.4166
 3667TIP3    H132560   4.467   1.541   0.620  0.2015 -0.1639 -1.5256
 3667TIP3    H232561   4.409   1.423   0.696 -0.2612  0.4080 -0.9718
 3668TIP3   OH232562   3.397   3.909   7.381 -0.5497  0.1736 -0.4563
 3668TIP3    H132563   3.491   3.905   7.362 -0.5672  0.4942 -0.6302
 3668TIP3    H232564   3.373   3.820   7.404 -0.3502 -0.0573 -1.1231
 3669TIP3   OH232565   5.807   0.435   7.520 -0.2509 -0.3939 -0.3177
 3669TIP3    H132566   5.806   0.358   7.463 -2.8499  0.1015 -1.0503
 3669TIP3    H232567   5.852   0.405   7.599 -2.0468 -3.0292 -0.1530
 3670TIP3   OH232568   2.092   2.642   0.720  0.2334 -0.1439 -0.6065
 3670TIP3    H132569   2.148   2.675   0.650  0.8913  2.2172  0.9215
 3670TIP3    H232570   2.012   2.694   0.712  0.1336 -0.1882  0.0922
 3671TIP3   OH232571   0.732   1.545   2.425  0.3339  0.0938 -0.3233
 3671TIP3    H132572   0.722   1.465   2.372  0.1069  0.1389 -0.3502
 3671TIP3    H232573   0.825   1.567   2.418  0.2378  0.3130 -1.0219
 3672TIP3   OH232574   4.805   1.254   7.243 -0.3926 -0.1158  0.1286
 3672TIP3    H132575   4.802   1.244   7.148 -0.2665  0.3331  0.0748
 3672TIP3    H232576   4.802   1.165   7.277 -1.9781 -0.2395 -0.2408
 3673TIP3   OH232577   4.985   4.467   1.783 -0.0089 -0.5271  0.0767
 3673TIP3    H132578   5.028   4.519   1.851  0.0744 -1.4518  0.7516
 3673TIP3    H232579   4.913   4.423   1.829 -0.4243 -0.5791 -0.6036
 3674TIP3   OH232580   1.966   3.160   8.199 -0.7577 -0.1117 -0.6752
 3674TIP3    H132581   1.982   3.184   8.290 -0.9213  0.0756 -0.6967
 3674TIP3    H232582   2.051   3.170   8.156 -1.5824  4.8807 -1.7401
 3675TIP3   OH232583   4.449   1.696   0.673 -1.1422  0.0576 -0.5429
 3675TIP3    H132584   4.500   1.770   0.641 -0.2044 -0.6793 -0.8126
 3675TIP3    H232585   4.437   1.713   0.766 -1.3720  0.7850 -0.7008
 3676TIP3   OH232586   0.841   6.785   8.176  0.3445  0.1317  0.7605
 3676TIP3    H132587   0.839   6.878   8.195 -0.7562  0.2873 -0.0421
 3676TIP3    H232588   0.782   6.774   8.102  3.5166 -0.6085 -1.9157
 3677TIP3   OH232589   3.229   5.688   1.997 -0.2255  0.3351  0.1320
 3677TIP3    H132590   3.143   5.661   2.028 -0.4257  1.4116  0.5440
 3677TIP3    H232591   3.248   5.769   2.045  1.6135 -0.5922  1.0924
 3678TIP3   OH232592   5.550   1.389   1.204 -0.1273 -0.4857  0.2075
 3678TIP3    H132593   5.622   1.331   1.181  1.5677  1.9014 -0.9279
 3678TIP3    H232594   5.554   1.395   1.299 -0.2577 -2.0314  0.3450
 3679TIP3   OH232595   6.179   4.471   1.427 -0.0966 -0.4229 -0.3233
 3679TIP3    H132596   6.090   4.499   1.410  0.3358  0.2192 -1.6410
 3679TIP3    H232597   6.186   4.384   1.386 -0.4141 -0.9639  0.7289
 3680TIP3   OH232598   4.034   3.883   7.789 -0.2597  0.3059 -0.3641
 3680TIP3    H132599   4.125   3.877   7.760  0.3470 -0.2856  1.5156
 3680TIP3    H232600   3.983   3.855   7.713  1.2965 -2.7347 -0.4423
 3681TIP3   OH232601   6.312   0.042   1.686  0.1753  0.1793  0.4839
 3681TIP3    H132602   6.291   0.037   1.779 -0.9479  1.0117  0.3090
 3681TIP3    H232603   6.232   0.012   1.642 -0.6249  2.9640 -0.2130
 3682TIP3   OH232604   6.755   1.976   1.824  0.7002  0.2271 -1.0245
 3682TIP3    H132605   6.849   1.986   1.841 -0.0407  2.8857  2.8268
 3682TIP3    H232606   6.721   1.930   1.900 -1.4557  1.7730 -0.9479
 3683TIP3   OH232607   0.598   1.745   7.934  0.6396 -1.0709  0.4236
 3683TIP3    H132608   0.562   1.829   7.962  1.1549 -1.3032  1.8541
 3683TIP3    H232609   0.645   1.765   7.853  0.8548  0.0371  0.8127
 3684TIP3   OH232610   3.256   3.887   0.281  0.7982  0.0287  0.2711
 3684TIP3    H132611   3.206   3.921   0.206 -0.3106 -1.1506  0.4488
 3684TIP3    H232612   3.233   3.945   0.354 -0.5026 -0.6298  0.4013
 3685TIP3   OH232613   2.654   4.300   8.503  0.0913  0.1244  0.8177
 3685TIP3    H132614   2.610   4.276   8.421 -1.7766  0.9635  1.5168
 3685TIP3    H232615   2.583   4.305   8.567  1.6782 -2.1247  2.9158
 3686TIP3   OH232616   5.100   2.416   1.418 -0.5410  0.0115 -0.4965
 3686TIP3    H132617   5.020   2.382   1.457  1.4629 -2.1477  2.0502
 3686TIP3    H232618   5.131   2.483   1.479  0.4853 -0.4348 -0.5038
 3687TIP3   OH232619   1.457   1.474   8.034 -0.2437  0.0737 -0.1744
 3687TIP3    H132620   1.404   1.549   8.060  1.4264  1.2778 -0.1550
 3687TIP3    H232621   1.459   1.478   7.938  0.5634  0.5757 -0.1416
 3688TIP3   OH232622   6.644   5.862   0.290  0.6665 -0.3555  0.3749
 3688TIP3    H132623   6.725   5.903   0.260  0.7384 -0.9815 -0.2948
 3688TIP3    H232624   6.621   5.800   0.221 -0.2387 -0.3791  0.6860
 3689TIP3   OH232625   5.645   3.848   7.875  1.1308 -0.3676  0.3896
 3689TIP3    H132626   5.705   3.916   7.846  1.4187  0.0229  1.8275
 3689TIP3    H232627   5.677   3.768   7.832 -1.1027  0.7540 -3.9957
 3690TIP3   OH232628   4.624   3.076   8.283  0.3711  0.1020  0.0111
 3690TIP3    H132629   4.691   3.042   8.225  0.4093  0.4567 -0.1559
 3690TIP3    H232630   4.618   3.169   8.262  0.9025  0.3992  1.0655
 3691TIP3   OH232631   5.270   1.800   7.496 -0.2195 -0.3932  0.6474
 3691TIP3    H132632   5.182   1.790   7.532  0.2457 -0.3700  1.8347
 3691TIP3    H232633   5.282   1.894   7.486 -0.0295 -0.3510  1.2645
 3692TIP3   OH232634   0.256   5.498   7.346 -0.0605 -0.2989  0.2150
 3692TIP3    H132635   0.283   5.525   7.434  0.2535  0.6245 -0.1499
 3692TIP3    H232636   0.272   5.575   7.292  1.0874 -1.2964 -0.9264
 3693TIP3   OH232637   1.578   3.979   1.177 -0.8325 -0.2981 -0.2337
 3693TIP3    H132638   1.523   4.031   1.235 -0.6738 -0.1019 -0.2600
 3693TIP3    H232639   1.535   3.893   1.175  0.0655 -0.8393  1.4929
 3694TIP3   OH232640   2.991   6.780   7.819 -0.4745  0.1296  0.5595
 3694TIP3    H132641   2.906   6.746   7.791 -0.5876  2.1745 -1.9307
 3694TIP3    H232642   3.043   6.782   7.739  1.2743  0.8055  1.6591
 3695TIP3   OH232643   4.753   6.087   0.085  0.0588  0.5092 -0.1776
 3695TIP3    H132644   4.844   6.115   0.088  0.4754 -0.7696 -0.2998
 3695TIP3    H232645   4.740   6.037   0.165  0.0174 -0.8769 -1.0246
 3696TIP3   OH232646   3.948   5.887   7.158  0.3341  0.5626  0.0802
 3696TIP3    H132647   4.031   5.852   7.127  1.2821  2.2643  0.5709
 3696TIP3    H232648   3.882   5.845   7.103  1.5673 -0.2890 -0.7945
 3697TIP3   OH232649   1.611   3.940   0.364  0.3079  0.1778 -0.3564
 3697TIP3    H132650   1.532   3.993   0.361  0.0952 -0.1212 -0.0625
 3697TIP3    H232651   1.621   3.906   0.275 -0.2004 -0.2318 -0.2572
 3698TIP3   OH232652   0.101   2.993   1.975 -0.1431 -0.8814  0.0987
 3698TIP3    H132653   0.161   2.949   1.914 -0.9011 -0.6751 -0.8083
 3698TIP3    H232654   0.039   3.039   1.919 -0.4824 -0.1687  1.0364
 3699TIP3   OH232655   5.168   6.856   7.755  0.0300  0.0347 -0.4283
 3699TIP3    H132656   5.188   6.829   7.665  0.3718  0.0333 -0.3520
 3699TIP3    H232657   5.177   6.776   7.807  1.6273  0.3907 -0.1082
 3700TIP3   OH232658   3.991   5.869   6.248 -0.0335 -0.4595 -0.1407
 3700TIP3    H132659   3.897   5.869   6.265  0.2413  0.7929  1.7735
 3700TIP3    H232660   4.016   5.777   6.249 -1.0341 -0.7415  0.6649
 3701TIP3   OH232661   3.250   1.112   0.015 -0.1355  0.2677 -0.2959
 3701TIP3    H132662   3.331   1.130   0.063  1.2594 -1.9859 -1.5753
 3701TIP3    H232663   3.275   1.121  -0.077 -1.0394 -1.4487 -0.7473
 3702TIP3   OH232664   0.332   5.487   1.558 -0.0690 -0.1363 -1.1842
 3702TIP3    H132665   0.304   5.524   1.474  0.2073  0.8516 -0.8601
 3702TIP3    H232666   0.425   5.468   1.546  0.0135  0.1704 -1.0604
 3703TIP3   OH232667   4.320   3.624   6.400  0.4128  0.1873  0.2450
 3703TIP3    H132668   4.266   3.682   6.453 -0.3503 -0.9218  0.7140
 3703TIP3    H232669   4.261   3.554   6.372  1.7076 -1.3700  1.2354
 3704TIP3   OH232670   2.737   0.235   6.369  0.0416 -0.4035 -0.3444
 3704TIP3    H132671   2.770   0.286   6.443  1.0917 -1.7033  0.1048
 3704TIP3    H232672   2.814   0.213   6.317 -0.5090 -0.7426 -1.0440
 3705TIP3   OH232673   4.198   3.409   8.102 -0.0373 -0.5000  0.1134
 3705TIP3    H132674   4.181   3.358   8.181  2.4570 -2.9478 -0.8018
 3705TIP3    H232675   4.147   3.365   8.033 -2.0158  1.4801  0.1709
 3706TIP3   OH232676   4.205   4.908   2.238  0.2515  0.8856  0.5396
 3706TIP3    H132677   4.290   4.928   2.277 -0.4780  0.8130  2.2168
 3706TIP3    H232678   4.210   4.816   2.213  1.3943  1.4066 -1.4062
 3707TIP3   OH232679   5.407   0.943   1.541 -0.0021  0.9014  0.2229
 3707TIP3    H132680   5.411   0.890   1.462 -3.5880  1.1701 -0.3192
 3707TIP3    H232681   5.463   1.018   1.524  2.1027 -0.7697 -0.5426
 3708TIP3   OH232682   0.633   0.692   1.746 -0.3522  0.2085  0.0877
 3708TIP3    H132683   0.546   0.655   1.759 -0.2283  0.0272  0.4135
 3708TIP3    H232684   0.689   0.646   1.808  0.1221 -0.1753 -0.6127
 3709TIP3   OH232685   5.191   2.615   1.598 -0.1774 -0.3657  0.1523
 3709TIP3    H132686   5.257   2.583   1.659 -1.6030 -0.2020  1.8272
 3709TIP3    H232687   5.166   2.701   1.632 -1.1058 -0.3269 -0.5922
 3710TIP3   OH232688   0.178   2.507   0.658 -0.2278  0.0589  0.4457
 3710TIP3    H132689   0.269   2.494   0.630 -0.6709  1.3788 -1.8197
 3710TIP3    H232690   0.157   2.428   0.708  2.3096 -0.0219  1.5517
 3711TIP3   OH232691   0.747   3.679   0.998 -0.1748 -0.0644 -0.6258
 3711TIP3    H132692   0.675   3.712   0.943  0.2081 -0.0317 -1.1179
 3711TIP3    H232693   0.804   3.633   0.936  0.5411  0.4337 -0.3380
 3712TIP3   OH232694   6.551   6.794   7.789 -0.2032  0.3346 -0.0535
 3712TIP3    H132695   6.607   6.855   7.740 -1.1277  2.0092  0.8571
 3712TIP3    H232696   6.589   6.792   7.877  0.2658 -1.0507 -0.2689
 3713TIP3   OH232697   1.473   6.484   0.906  0.1792  0.4907  0.4237
 3713TIP3    H132698   1.401   6.524   0.857  0.0508  0.1273  0.3145
 3713TIP3    H232699   1.551   6.501   0.852  0.0350  0.0685  0.0713
 3714TIP3   OH232700   4.738   3.121   1.109  0.2474  0.2571  0.2127
 3714TIP3    H132701   4.718   3.031   1.135 -0.2259 -0.3442 -2.0275
 3714TIP3    H232702   4.804   3.149   1.173 -1.5288 -0.6593  2.6343
 3715TIP3   OH232703   4.259   3.320   6.376  0.0477  0.2920 -0.2163
 3715TIP3    H132704   4.337   3.292   6.327 -0.9069 -2.2615 -0.4551
 3715TIP3    H232705   4.265   3.273   6.459  1.3870  4.1951  2.1090
 3716TIP3   OH232706   0.937   2.120   1.789  0.1544  0.4004  0.1624
 3716TIP3    H132707   0.893   2.058   1.848 -0.5122 -0.6582 -1.3681
 3716TIP3    H232708   0.929   2.204   1.833  0.6405 -0.4996  2.0763
 3717TIP3   OH232709   5.604   1.517   7.684  0.0545 -0.0173  0.2472
 3717TIP3    H132710   5.688   1.563   7.678 -0.0528  0.2208  0.5502
 3717TIP3    H232711   5.539   1.586   7.697 -0.1734 -0.2118  0.1432
 3718TIP3   OH232712   4.068   2.950   6.599  0.2460  0.3841 -0.0386
 3718TIP3    H132713   4.049   2.994   6.517  0.8349  1.8664  0.5942
 3718TIP3    H232714   3.990   2.963   6.653  0.6750  1.2322  0.3843
 3719TIP3   OH232715   1.679   5.825   0.903 -0.4939  0.2452  0.8477
 3719TIP3    H132716   1.646   5.885   0.836  1.1846  0.5948  0.2744
 3719TIP3    H232717   1.617   5.833   0.975 -1.5030  1.0220 -0.0657
 3720TIP3   OH232718   6.434   2.345   2.226  0.0678  0.1240  0.2193
 3720TIP3    H132719   6.475   2.296   2.155  0.4979  0.0552  0.5137
 3720TIP3    H232720   6.386   2.279   2.276 -0.4409  0.2111 -0.1493
 3721TIP3   OH232721   6.834   1.808   0.696  0.0756  0.0684  0.0634
 3721TIP3    H132722   6.788   1.826   0.614 -0.6081  0.3192  0.4889
 3721TIP3    H232723   6.927   1.820   0.675  0.0154 -1.0837 -0.9731
 3722TIP3   OH232724   4.099   2.925   1.600 -0.2327 -0.4916 -0.1255
 3722TIP3    H132725   4.124   2.834   1.581  0.0309 -0.3471 -0.4816
 3722TIP3    H232726   4.032   2.918   1.668 -3.0114 -1.1754 -2.7308
 3723TIP3   OH232727   6.781   6.319   7.711  0.0074 -0.0410 -0.1225
 3723TIP3    H132728   6.832   6.364   7.644  0.0816  1.8233  1.1134
 3723TIP3    H232729   6.696   6.303   7.670  0.0082  1.1930 -0.6200
 3724TIP3   OH232730   0.311   5.181   2.160  0.8216  0.5473  0.6604
 3724TIP3    H132731   0.257   5.158   2.236 -0.0213  0.6645  0.1061
 3724TIP3    H232732   0.276   5.128   2.089  2.1423 -0.1796  0.5249
 3725TIP3   OH232733   6.740   0.816   2.196 -0.6357 -0.0294  0.5848
 3725TIP3    H132734   6.822   0.859   2.175  0.6813 -1.9982  1.3394
 3725TIP3    H232735   6.719   0.845   2.285  0.9884 -1.8646  1.6467
 3726TIP3   OH232736   5.335   2.424   2.102 -0.1270 -0.1073 -0.4808
 3726TIP3    H132737   5.355   2.331   2.113 -0.3870 -0.0878  0.1751
 3726TIP3    H232738   5.415   2.469   2.128  0.3058 -0.1706 -1.6474
 3727TIP3   OH232739   6.761   1.700   6.786 -0.1086  0.4055 -0.1308
 3727TIP3    H132740   6.716   1.626   6.746  1.6989 -0.2832 -1.0073
 3727TIP3    H232741   6.695   1.769   6.790 -1.2747 -0.6005 -1.1766
 3728TIP3   OH232742   1.136   0.443   7.578 -0.6700 -0.1216 -0.2689
 3728TIP3    H132743   1.159   0.368   7.523 -0.9323  0.1184 -0.7087
 3728TIP3    H232744   1.214   0.458   7.631 -0.7853 -1.0190  0.1876
 3729TIP3   OH232745   0.175   2.039   7.996  0.4622 -0.2304 -0.2431
 3729TIP3    H132746   0.197   2.132   7.990  4.0563 -0.9681 -0.3446
 3729TIP3    H232747   0.173   2.021   8.090 -1.8627  0.1726 -0.1426
 3730TIP3   OH232748   3.455   1.570   1.717 -0.4150  0.3738 -0.1618
 3730TIP3    H132749   3.443   1.490   1.769 -2.9935  0.0367 -1.1190
 3730TIP3    H232750   3.443   1.641   1.780 -0.8612 -0.0125  0.2011
 3731TIP3   OH232751   4.259   3.262   7.591 -0.6409  0.3104  0.1076
 3731TIP3    H132752   4.314   3.225   7.522  0.3520  0.7903  0.6161
 3731TIP3    H232753   4.192   3.313   7.544 -1.3472 -1.1816 -0.5546
 3732TIP3   OH232754   2.680   0.864   0.064 -0.5515 -0.3677 -0.7250
 3732TIP3    H132755   2.661   0.955   0.041  0.8708 -0.3174 -1.8391
 3732TIP3    H232756   2.710   0.867   0.154 -2.2178  0.0044 -0.1516
 3733TIP3   OH232757   3.158   2.525   8.527  0.0256  0.1855  0.8133
 3733TIP3    H132758   3.198   2.485   8.450  2.2783  1.4935  1.2239
 3733TIP3    H232759   3.088   2.580   8.492  0.3594 -0.0162 -0.2066
 3734TIP3   OH232760   1.812   2.346   7.338 -0.6952 -0.2772 -0.0820
 3734TIP3    H132761   1.780   2.290   7.409 -0.6252  1.3256  1.2620
 3734TIP3    H232762   1.740   2.349   7.276 -2.0172  0.7469  1.4117
 3735TIP3   OH232763   6.598   1.487   6.735  0.0883  0.6719 -0.4087
 3735TIP3    H132764   6.620   1.418   6.671  1.3896  1.7965 -1.2382
 3735TIP3    H232765   6.503   1.489   6.736  0.0322  0.4126 -2.1014
 3736TIP3   OH232766   4.574   3.324   0.269 -0.9702 -0.2567  0.3799
 3736TIP3    H132767   4.522   3.285   0.340 -0.2077 -1.8668  0.0970
 3736TIP3    H232768   4.665   3.311   0.296 -0.6745 -0.5460 -0.7087
 3737TIP3   OH232769   4.174   3.981   2.514 -0.6506  0.1464 -0.2538
 3737TIP3    H132770   4.130   4.064   2.495 -0.4492  0.5140  0.7859
 3737TIP3    H232771   4.263   4.006   2.536 -1.2089 -0.0288  2.5727
 3738TIP3   OH232772   4.579   6.441   7.863 -0.2380 -0.1329 -0.0890
 3738TIP3    H132773   4.527   6.387   7.923 -1.4785  1.2405  0.1116
 3738TIP3    H232774   4.521   6.512   7.837  0.9145  0.3805 -1.4181
 3739TIP3   OH232775   5.762   2.580   7.464 -0.1054  0.4787  0.4557
 3739TIP3    H132776   5.807   2.496   7.453 -1.4351 -0.1594 -0.4554
 3739TIP3    H232777   5.805   2.620   7.540  1.9772 -0.0544 -0.3589
 3740TIP3   OH232778   2.843   6.684   1.615  0.6604 -0.5179  0.1137
 3740TIP3    H132779   2.855   6.775   1.644 -3.1581  0.8841 -2.0033
 3740TIP3    H232780   2.908   6.672   1.545  0.6114  0.9229 -0.2054
 3741TIP3   OH232781   0.380   5.571   6.401 -0.7350 -0.0234 -0.6359
 3741TIP3    H132782   0.473   5.591   6.402 -0.5205 -0.7729  2.2819
 3741TIP3    H232783   0.360   5.558   6.308  2.4256 -1.5094 -1.2515
 3742TIP3   OH232784   5.466   6.240   7.456  0.1052  0.3194 -0.4295
 3742TIP3    H132785   5.438   6.174   7.392  0.5101  0.9371 -1.2702
 3742TIP3    H232786   5.386   6.287   7.479 -0.0670 -0.0008 -0.3690
 3743TIP3   OH232787   6.507   3.146   0.152 -0.4038  0.1422 -0.2145
 3743TIP3    H132788   6.582   3.166   0.096  0.1952 -2.9678 -0.7212
 3743TIP3    H232789   6.436   3.126   0.090 -0.0338 -2.2691  0.0427
 3744TIP3   OH232790   1.488   3.855   1.771  0.5371  0.3310  1.2607
 3744TIP3    H132791   1.567   3.881   1.724  1.2577 -0.6677  1.8754
 3744TIP3    H232792   1.498   3.760   1.783 -1.6773 -0.2057 -0.3839
 3745TIP3   OH232793   6.365   3.202   1.636  0.0938  0.5282  0.1802
 3745TIP3    H132794   6.458   3.180   1.633  0.8016  3.2398 -0.1806
 3745TIP3    H232795   6.342   3.198   1.729  0.9543  1.1783  0.4318
 3746TIP3   OH232796   1.348   3.955   7.615  0.0992 -0.1220  0.4365
 3746TIP3    H132797   1.390   3.951   7.529 -0.9872 -0.1828 -0.1028
 3746TIP3    H232798   1.415   3.922   7.675  0.1630 -2.1114 -0.6335
 3747TIP3   OH232799   1.043   1.573   0.150  0.2770 -0.1778 -0.2270
 3747TIP3    H132800   0.978   1.583   0.220  0.5083  0.9902 -0.1470
 3747TIP3    H232801   1.057   1.479   0.143 -0.9855 -0.4176  0.1571
 3748TIP3   OH232802   5.371   4.365   6.784  0.3788  0.1247 -0.8809
 3748TIP3    H132803   5.397   4.409   6.702 -1.1708  1.8322 -0.5403
 3748TIP3    H232804   5.277   4.380   6.789  0.8356  3.3299  2.9446
 3749TIP3   OH232805   1.727   3.565   7.909  0.0184 -0.3890  0.6399
 3749TIP3    H132806   1.650   3.597   7.955 -1.1119 -1.8910 -0.0981
 3749TIP3    H232807   1.799   3.577   7.970 -0.9631  0.2205  1.7075
 3750TIP3   OH232808   4.199   4.694   0.132 -0.0374 -0.0896 -0.0290
 3750TIP3    H132809   4.194   4.713   0.038 -0.8329  1.5524  0.3120
 3750TIP3    H232810   4.216   4.600   0.137 -0.4630 -0.2868 -1.8077
 3751TIP3   OH232811   4.272   4.746   0.576 -0.5830 -0.5202 -0.2633
 3751TIP3    H132812   4.287   4.656   0.546  0.6342 -0.4483  0.0547
 3751TIP3    H232813   4.292   4.800   0.500 -2.8746 -0.5544 -0.9497
 3752TIP3   OH232814   1.951   2.745   0.168  0.3472  0.1650  0.6084
 3752TIP3    H132815   1.863   2.771   0.194  0.3553  0.0408  0.7615
 3752TIP3    H232816   1.941   2.712   0.079  0.2722  0.3325  0.5548
 3753TIP3   OH232817   2.177   5.064   2.436  0.1716 -0.0153  0.5578
 3753TIP3    H132818   2.130   5.147   2.452 -0.0423 -0.6829  4.2021
 3753TIP3    H232819   2.253   5.090   2.383 -1.2822  2.0029 -0.7202
 3754TIP3   OH232820   0.804   2.269   8.144  0.3358  0.3218  0.0622
 3754TIP3    H132821   0.802   2.339   8.079 -1.4901  0.0401 -0.2335
 3754TIP3    H232822   0.897   2.257   8.164  0.7204  2.4176 -0.2943
 3755TIP3   OH232823   5.665   6.683   8.274  0.1214  0.6436 -0.3998
 3755TIP3    H132824   5.748   6.637   8.274  0.1295  0.6465  0.2305
 3755TIP3    H232825   5.605   6.626   8.227  0.5990  0.8746 -1.3053
 3756TIP3   OH232826   6.422   1.395   1.632 -0.2655  0.3869  0.0133
 3756TIP3    H132827   6.468   1.400   1.716  1.8266  0.5081 -1.0764
 3756TIP3    H232828   6.427   1.484   1.597 -1.2025  0.3600 -0.2171
 3757TIP3   OH232829   5.195   3.972   1.905 -0.2436  0.4085 -0.1850
 3757TIP3    H132830   5.280   3.930   1.915  0.0107  0.6007 -1.3610
 3757TIP3    H232831   5.183   4.024   1.984  1.0337  0.9086 -0.3092
 3758TIP3   OH232832   1.287   6.052   0.096  0.2139 -0.1943 -0.4097
 3758TIP3    H132833   1.236   5.976   0.125 -0.2290  0.5026  0.7491
 3758TIP3    H232834   1.247   6.126   0.143  3.5661  0.1534  2.2909
 3759TIP3   OH232835   0.795   1.996   6.477  0.2719 -0.2583  0.5091
 3759TIP3    H132836   0.753   2.032   6.555 -1.6244  1.8953 -1.3439
 3759TIP3    H232837   0.749   1.913   6.461 -1.2387  0.5933  0.2356
 3760TIP3   OH232838   1.844   6.153   0.125  0.2071 -0.4260  1.0787
 3760TIP3    H132839   1.867   6.129   0.215  1.8769 -0.6244  0.6448
 3760TIP3    H232840   1.882   6.241   0.114  0.4283 -0.5951  0.4428
 3761TIP3   OH232841   5.677   4.070   6.351  0.2563 -0.3280  0.7041
 3761TIP3    H132842   5.710   3.988   6.389  0.8892  0.0006  0.8793
 3761TIP3    H232843   5.713   4.071   6.262 -1.3947 -1.1984 -0.0170
 3762TIP3   OH232844   4.428   0.727   0.712 -0.3739  0.0688  0.2190
 3762TIP3    H132845   4.512   0.772   0.711 -0.1352 -0.1999  2.7597
 3762TIP3    H232846   4.423   0.684   0.627  2.0927  0.0078  0.0432
 3763TIP3   OH232847   1.039   0.018   7.329  0.5472 -0.2330 -0.0709
 3763TIP3    H132848   1.014   0.014   7.421  1.0417  0.4575  0.1021
 3763TIP3    H232849   1.004  -0.063   7.291  0.4744 -0.5991  0.7533
 3764TIP3   OH232850   1.195   5.666   0.354  0.4519 -0.4089 -0.3890
 3764TIP3    H132851   1.246   5.691   0.431 -1.4128  0.0791  0.7478
 3764TIP3    H232852   1.121   5.618   0.389 -0.0910 -0.7526 -1.9485
 3765TIP3   OH232853   6.901   5.593   0.409 -0.1123  0.9685 -0.6407
 3765TIP3    H132854   6.896   5.689   0.417  5.2351  1.6413 -1.6800
 3765TIP3    H232855   6.840   5.572   0.338 -1.4449  3.5512 -0.3893
 3766TIP3   OH232856   1.866   4.750   1.188  0.9753  0.5207 -0.1294
 3766TIP3    H132857   1.775   4.776   1.202  0.4606 -0.7793 -0.8914
 3766TIP3    H232858   1.861   4.679   1.124  2.3879 -0.6997  1.0444
 3767TIP3   OH232859   5.774   2.293   7.168  0.3015  0.3176  0.2198
 3767TIP3    H132860   5.860   2.314   7.132  0.2778  1.9867  1.0428
 3767TIP3    H232861   5.723   2.374   7.158 -0.5053  0.0216  1.6049
 3768TIP3   OH232862   2.830   1.452   0.027 -0.9630 -0.8849  0.1970
 3768TIP3    H132863   2.807   1.536  -0.013 -1.4321 -1.3520 -0.5316
 3768TIP3    H232864   2.923   1.462   0.051 -0.9768 -0.2134 -0.0088
 3769TIP3   OH232865   5.980   5.634   0.917  0.3417 -0.3722  0.6608
 3769TIP3    H132866   5.977   5.544   0.951 -0.1187 -0.8825 -0.6493
 3769TIP3    H232867   6.057   5.636   0.860 -0.6107 -0.4724 -0.6704
 3770TIP3   OH232868   2.681   1.520   7.306 -0.5647  0.0554 -0.0595
 3770TIP3    H132869   2.710   1.443   7.256 -0.7777 -1.6979  2.3260
 3770TIP3    H232870   2.630   1.571   7.243  0.8746 -0.9199 -2.1523
 3771TIP3   OH232871   6.663   2.997   6.805  0.0721 -0.7612 -0.0825
 3771TIP3    H132872   6.664   2.913   6.850  1.4369 -0.5147  0.3594
 3771TIP3    H232873   6.647   3.061   6.873  1.6543 -0.4350  0.0185
 3772TIP3   OH232874   1.157   6.467   7.999 -0.4091  0.6493  0.3234
 3772TIP3    H132875   1.221   6.504   8.059 -0.8152  1.9332 -0.0097
 3772TIP3    H232876   1.188   6.490   7.912 -0.9248  0.6170  0.1233
 3773TIP3   OH232877   3.731   4.948   6.717 -0.5939  0.0910 -0.1127
 3773TIP3    H132878   3.643   4.974   6.691 -0.2258  0.2526 -1.2755
 3773TIP3    H232879   3.758   4.885   6.650  0.2338  0.1786  0.1280
 3774TIP3   OH232880   4.582   2.834   0.667 -0.2384 -0.5655 -0.2416
 3774TIP3    H132881   4.527   2.766   0.705 -0.4042 -0.4682 -0.3060
 3774TIP3    H232882   4.617   2.881   0.743  1.1386 -1.6872 -0.1258
 3775TIP3   OH232883   1.669   3.706   2.040  0.0543  0.4884 -0.0674
 3775TIP3    H132884   1.687   3.620   2.002 -2.1277  0.1650 -0.4910
 3775TIP3    H232885   1.728   3.713   2.115  0.2780 -1.3707 -0.0444
 3776TIP3   OH232886   6.672   5.200   8.478  0.5759 -0.1032  0.4245
 3776TIP3    H132887   6.688   5.222   8.570 -0.2995 -0.4564  0.6683
 3776TIP3    H232888   6.594   5.251   8.455  1.4736  0.9234 -0.4891
 3777TIP3   OH232889   5.353   1.703   0.662 -0.1302  0.6243  0.4953
 3777TIP3    H132890   5.435   1.655   0.659 -0.8836 -0.6700 -0.2509
 3777TIP3    H232891   5.286   1.637   0.680 -0.9155  1.8138  2.3040
 3778TIP3   OH232892   3.155   2.730   0.164  0.1903  0.0559 -0.5487
 3778TIP3    H132893   3.190   2.657   0.112 -0.9065 -1.8514  1.2447
 3778TIP3    H232894   3.062   2.734   0.141  0.4205  1.5940 -1.3463
 3779TIP3   OH232895   0.042   0.003   0.380 -0.2002 -0.1862 -0.1925
 3779TIP3    H132896  -0.023   0.073   0.376  0.3214  0.2889 -0.5965
 3779TIP3    H232897   0.082   0.013   0.467  1.0010  1.0870 -0.8422
 3780TIP3   OH232898   1.426   2.685   0.548  0.6020  0.2957  0.0258
 3780TIP3    H132899   1.336   2.717   0.536  0.5561  0.1283 -0.0779
 3780TIP3    H232900   1.426   2.598   0.508  1.4222  1.1964 -2.0961
 3781TIP3   OH232901   0.755   4.237   7.487 -0.0427  0.2997  0.3097
 3781TIP3    H132902   0.794   4.275   7.408 -1.6162 -0.7321 -1.0441
 3781TIP3    H232903   0.676   4.289   7.503  0.6913  1.0211  1.7378
 3782TIP3   OH232904   1.997   3.196   8.476  0.5812 -0.3977 -0.1897
 3782TIP3    H132905   1.957   3.271   8.520  1.8545 -0.3337  0.9422
 3782TIP3    H232906   1.958   3.119   8.518  0.9920 -0.3452  0.2897
 3783TIP3   OH232907   2.660   2.756   7.939 -0.2022  0.2537 -0.2870
 3783TIP3    H132908   2.620   2.709   8.012  0.4928 -0.6650 -0.4673
 3783TIP3    H232909   2.587   2.775   7.880 -0.6695  0.4369  0.3428
 3784TIP3   OH232910   3.456   5.453   1.206  0.1763 -0.5202  0.2466
 3784TIP3    H132911   3.403   5.521   1.245  0.4160  0.5496 -1.2024
 3784TIP3    H232912   3.404   5.373   1.215 -0.6068  0.0577  0.9652
 3785TIP3   OH232913   6.672   1.396   7.416  0.1358 -0.1930 -0.4190
 3785TIP3    H132914   6.735   1.454   7.373  1.0159 -1.3937 -0.7918
 3785TIP3    H232915   6.726   1.335   7.467 -0.8246  0.3501  1.3562
 3786TIP3   OH232916   4.284   2.428   1.071  0.0700 -0.2747  0.4055
 3786TIP3    H132917   4.219   2.429   1.000  0.6228  1.9880 -0.1592
 3786TIP3    H232918   4.252   2.361   1.132 -1.1447 -1.3423 -1.3065
 3787TIP3   OH232919   4.294   4.900   6.561 -0.7832  0.3328 -0.1447
 3787TIP3    H132920   4.210   4.855   6.569  0.6783 -2.8313 -0.7489
 3787TIP3    H232921   4.286   4.951   6.480 -1.4550 -1.6531 -1.4007
 3788TIP3   OH232922   3.016   2.960   6.860 -0.1138 -0.5377  0.1874
 3788TIP3    H132923   3.060   3.045   6.858  0.2419 -0.7161  0.3043
 3788TIP3    H232924   2.965   2.961   6.941  0.0904 -0.5325  0.3171
 3789TIP3   OH232925   0.939   5.371   7.641  0.1467 -0.3614 -0.3774
 3789TIP3    H132926   0.860   5.334   7.681  0.5873 -0.2865  0.6033
 3789TIP3    H232927   0.948   5.324   7.558 -0.9997 -0.2674 -0.5736
 3790TIP3   OH232928   2.049   4.059   0.983 -0.6681 -0.1559  0.2048
 3790TIP3    H132929   1.980   4.033   0.923 -1.4864  0.5374  0.8340
 3790TIP3    H232930   2.016   4.035   1.070  0.2149 -0.5395  0.4462
 3791TIP3   OH232931   6.546   5.969   1.611 -0.0525  0.6160  0.0419
 3791TIP3    H132932   6.552   6.017   1.694  1.5241 -0.2774  0.4817
 3791TIP3    H232933   6.533   6.037   1.545 -0.7205  1.3963  0.9387
 3792TIP3   OH232934   0.018   6.453   1.297 -0.1456 -0.4817  0.5622
 3792TIP3    H132935  -0.019   6.376   1.341  0.1121  0.5778  2.7488
 3792TIP3    H232936  -0.048   6.521   1.310  0.0656 -0.0520 -0.5277
 3793TIP3   OH232937   1.945   3.682   0.264 -0.0369  0.0067 -0.6348
 3793TIP3    H132938   1.954   3.645   0.352  1.8094 -0.4811 -0.9839
 3793TIP3    H232939   2.001   3.760   0.265 -0.5934  0.4310 -1.1752
 3794TIP3   OH232940   6.268   2.295   1.232  0.3731  0.2879 -0.2156
 3794TIP3    H132941   6.298   2.334   1.314 -0.1131  2.6934 -1.0825
 3794TIP3    H232942   6.173   2.305   1.234  0.0885 -2.0151  0.0090
 3795TIP3   OH232943   5.382   1.190   8.159  0.2482 -0.4450  0.1195
 3795TIP3    H132944   5.324   1.252   8.116 -0.5308 -1.5697 -0.4946
 3795TIP3    H232945   5.349   1.185   8.249  1.9161  1.9506  0.9807
 3796TIP3   OH232946   6.599   3.368   7.573 -0.4405  0.1345 -0.1935
 3796TIP3    H132947   6.636   3.293   7.526 -0.5495 -0.7677  1.1088
 3796TIP3    H232948   6.665   3.437   7.564  0.4612 -0.6746  0.0459
 3797TIP3   OH232949   3.931   2.697   0.783 -0.1289  0.4535 -0.6102
 3797TIP3    H132950   3.903   2.782   0.751  0.7925  0.7315 -0.7268
 3797TIP3    H232951   3.906   2.696   0.876  0.5479  1.1740 -0.4090
 3798TIP3   OH232952   5.941   0.770   8.383 -0.2481  0.3942 -0.1876
 3798TIP3    H132953   6.015   0.830   8.395  0.5783 -0.6825  0.2832
 3798TIP3    H232954   5.909   0.753   8.472 -1.1393  0.9255 -0.3965
 3799TIP3   OH232955   6.867   5.302   1.439 -0.3783  0.3137 -0.0723
 3799TIP3    H132956   6.790   5.246   1.432 -1.0148  1.2238 -0.4729
 3799TIP3    H232957   6.872   5.347   1.355  0.5434  0.3442 -0.0169
 3800TIP3   OH232958   3.803   2.147   1.720 -0.1122 -0.0335 -0.2615
 3800TIP3    H132959   3.800   2.052   1.728  1.2409  0.0148  1.1846
 3800TIP3    H232960   3.816   2.163   1.626 -0.6147 -1.2459 -0.5523
 3801TIP3   OH232961   0.211   1.879   0.129  0.4587  0.3534  0.4322
 3801TIP3    H132962   0.135   1.915   0.084  0.1222 -0.5611  0.2381
 3801TIP3    H232963   0.202   1.908   0.219 -0.4582 -0.2436  0.5504
 3802TIP3   OH232964   5.667   0.244   7.961 -0.3078 -0.0112 -0.1269
 3802TIP3    H132965   5.708   0.167   8.000 -0.7104 -1.5693 -2.5735
 3802TIP3    H232966   5.658   0.222   7.868 -1.6455  2.4825 -0.6731
 3803TIP3   OH232967   1.313   2.854   0.085  0.0902  0.1857 -0.4938
 3803TIP3    H132968   1.278   2.848   0.174  2.3040 -2.6364  0.3336
 3803TIP3    H232969   1.383   2.919   0.091 -0.5279  0.8653 -0.5007
 3804TIP3   OH232970   4.425   4.065   2.535 -0.1917  0.4726  0.5865
 3804TIP3    H132971   4.468   4.132   2.480 -0.6594 -0.1071 -0.5221
 3804TIP3    H232972   4.495   4.003   2.555 -0.0960  0.5054  0.3602
 3805TIP3   OH232973   3.584   3.075   0.953  0.5909  0.0892 -0.0946
 3805TIP3    H132974   3.508   3.038   0.998  1.4898 -0.8331  0.7447
 3805TIP3    H232975   3.657   3.019   0.980  1.6687  1.2747 -0.4257
 3806TIP3   OH232976   5.893   3.128   1.429  0.1385  1.2400  0.0804
 3806TIP3    H132977   5.905   3.160   1.519  0.9842  0.3987  0.2817
 3806TIP3    H232978   5.969   3.162   1.381 -0.0168  1.2227 -0.1766
 3807TIP3   OH232979   6.085   4.786   1.798 -0.5162  0.1096  0.5993
 3807TIP3    H132980   6.049   4.771   1.886 -0.4323 -2.4868  0.2751
 3807TIP3    H232981   6.144   4.712   1.784  0.1170  0.9276 -1.3474
 3808TIP3   OH232982   4.800   2.680   2.937  0.0851 -0.0877 -0.0862
 3808TIP3    H132983   4.768   2.744   3.000 -1.2061 -0.1506 -0.6466
 3808TIP3    H232984   4.794   2.725   2.852  0.1911 -0.5846 -0.3607
 3809TIP3   OH232985   2.222   3.259   0.156  0.0264 -0.5930 -0.2632
 3809TIP3    H132986   2.208   3.223   0.244  1.9633  0.0722  0.3812
 3809TIP3    H232987   2.204   3.352   0.165  1.3793 -0.3109 -0.2296
 3810TIP3   OH232988   6.728   2.722   6.857 -0.6430 -0.1422  0.0129
 3810TIP3    H132989   6.765   2.656   6.799 -1.3810 -1.3897  0.9191
 3810TIP3    H232990   6.668   2.674   6.913 -1.2543  1.3172  0.6649
 3811TIP3   OH232991   6.531   6.014   7.229 -0.5102 -0.5171  0.1134
 3811TIP3    H132992   6.457   6.061   7.192 -0.5922 -0.4180  0.4093
 3811TIP3    H232993   6.595   6.011   7.157 -0.3960  0.2700  0.1756
 3812TIP3   OH232994   1.932   5.880   7.697 -0.0422  0.2723 -0.3136
 3812TIP3    H132995   1.908   5.942   7.628 -2.4844  0.8885  0.9575
 3812TIP3    H232996   2.027   5.871   7.690 -0.1456  0.6056 -3.4481
 3813TIP3   OH232997   6.551   6.122   7.947 -0.1323  0.1445  0.5889
 3813TIP3    H132998   6.530   6.202   7.901 -0.9985  0.1434  0.9646
 3813TIP3    H232999   6.518   6.136   8.036  1.1775  0.0132  1.1200
 3814TIP3   OH233000   0.547   6.634   0.627  0.1532 -0.2681  0.0345
 3814TIP3    H133001   0.457   6.639   0.594 -0.6289  0.6662  2.0885
 3814TIP3    H233002   0.567   6.540   0.629 -1.4100 -0.6231  0.9829
 3815TIP3   OH233003   3.306   2.836   7.332  0.1355  0.4783  0.2244
 3815TIP3    H133004   3.275   2.826   7.422  0.6163 -0.8348  0.2675
 3815TIP3    H233005   3.259   2.912   7.299  0.3927  1.3516  1.7710
 3816TIP3   OH233006   4.516   4.553   7.403  0.6430  0.3758 -0.3874
 3816TIP3    H133007   4.458   4.590   7.336 -0.8692  0.9102  1.1391
 3816TIP3    H233008   4.469   4.477   7.436  0.2941  1.3597  1.5378
 3817TIP3   OH233009   0.489   0.212   7.408 -0.0917  0.0124  0.2502
 3817TIP3    H133010   0.427   0.272   7.366  0.4067 -0.4905 -1.2668
 3817TIP3    H233011   0.512   0.255   7.490  0.8682  2.3159 -1.1335
 3818TIP3   OH233012   3.100   1.449   1.252  0.3258  0.2509  0.2334
 3818TIP3    H133013   3.021   1.444   1.305 -0.7323  1.1181 -1.1742
 3818TIP3    H233014   3.122   1.543   1.251  1.4924 -0.0078  0.7769
 3819TIP3   OH233015   0.192   6.688   1.337 -0.0535  0.5656 -0.3548
 3819TIP3    H133016   0.169   6.763   1.392  0.8555  0.7823 -0.2429
 3819TIP3    H233017   0.119   6.627   1.347 -0.7855  1.4084 -0.4063
 3820TIP3   OH233018   0.877   0.328   1.482  0.5438 -0.7124  0.4295
 3820TIP3    H133019   0.822   0.395   1.523 -2.2374 -2.7885  0.3528
 3820TIP3    H233020   0.923   0.287   1.556  1.3360  0.4168  0.5936
 3821TIP3   OH233021   3.943   6.207   2.123  0.3903  0.0904  1.0546
 3821TIP3    H133022   3.920   6.280   2.181 -2.7287 -0.1414  0.3160
 3821TIP3    H233023   3.881   6.138   2.146  0.0898 -0.5761 -1.4171
 3822TIP3   OH233024   5.309   2.100   2.880 -0.3518 -0.0272 -0.3421
 3822TIP3    H133025   5.317   2.162   2.808  2.0177  0.0707 -0.0584
 3822TIP3    H233026   5.295   2.154   2.957  2.4160  0.3199  0.0161
 3823TIP3   OH233027   2.242   3.346   8.391 -0.1394  0.2787 -0.4274
 3823TIP3    H133028   2.179   3.322   8.459  0.8789  0.5252  0.6423
 3823TIP3    H233029   2.279   3.430   8.420  0.1467  0.5044 -1.4041
 3824TIP3   OH233030   5.515   1.873   0.096  0.5514  0.2861 -0.4876
 3824TIP3    H133031   5.545   1.894   0.184  0.2128 -2.0541  0.2531
 3824TIP3    H233032   5.422   1.894   0.097 -0.2862 -2.8536  0.9404
 3825TIP3   OH233033   1.838   5.616   0.937  0.8594 -0.8346 -0.1331
 3825TIP3    H133034   1.795   5.700   0.955  2.9352  0.3149 -0.1743
 3825TIP3    H233035   1.766   5.553   0.931 -0.8920  1.1340 -1.3298
 3826TIP3   OH233036   3.803   3.393   1.327 -0.0339  0.1782 -0.6473
 3826TIP3    H133037   3.794   3.342   1.246  0.4774  0.2954 -0.7773
 3826TIP3    H233038   3.756   3.475   1.309 -0.0243  0.1538 -0.7829
 3827TIP3   OH233039   5.238   4.894   8.216  0.2847 -0.0527  0.2226
 3827TIP3    H133040   5.143   4.883   8.222  0.0699  1.6179  0.2067
 3827TIP3    H233041   5.250   4.983   8.182  1.8764  0.3541  1.7350
 3828TIP3   OH233042   6.163   1.050   6.952  0.4101  0.5148 -0.1476
 3828TIP3    H133043   6.091   1.065   6.891 -1.3500  0.4916  1.7847
 3828TIP3    H233044   6.167   0.955   6.961  1.1337  0.4880 -0.7532
 3829TIP3   OH233045   6.625   3.022   7.731 -0.0647 -0.3143 -0.7025
 3829TIP3    H133046   6.706   3.072   7.735  0.0347 -0.1912 -2.8806
 3829TIP3    H233047   6.582   3.053   7.651 -0.8362 -2.4563 -1.1852
 3830TIP3   OH233048   0.020   2.123   1.118  0.0059  0.0677 -0.4890
 3830TIP3    H133049  -0.032   2.201   1.138  1.0067  1.9668 -4.3793
 3830TIP3    H233050  -0.037   2.070   1.063  0.2485 -0.6789 -0.0319
 3831TIP3   OH233051   0.744   2.912   1.304  0.0000 -0.4431  0.1016
 3831TIP3    H133052   0.673   2.919   1.241 -0.5203  2.0378  0.8622
 3831TIP3    H233053   0.797   2.990   1.290  1.0044 -0.8589  1.3813
 3832TIP3   OH233054   3.169   6.276   7.644 -0.3712  0.1003 -0.3059
 3832TIP3    H133055   3.244   6.237   7.688 -1.0148 -0.8876 -0.0760
 3832TIP3    H233056   3.127   6.330   7.711  0.9166  1.8563 -0.8030
 3833TIP3   OH233057   3.832   6.314   0.900 -0.2453  0.8182  0.0424
 3833TIP3    H133058   3.865   6.327   0.811 -3.5892 -0.8164 -1.5945
 3833TIP3    H233059   3.785   6.395   0.921  1.3767  1.6069  0.8203
 3834TIP3   OH233060   2.996   2.654   7.638  0.2981  0.8017  0.1892
 3834TIP3    H133061   2.922   2.614   7.592  0.2028 -1.2885  1.9516
 3834TIP3    H233062   2.965   2.741   7.663 -1.0877  0.4605 -0.2608
 3835TIP3   OH233063   6.171   0.579   0.989 -0.2000 -0.5945 -0.9182
 3835TIP3    H133064   6.150   0.496   1.032  2.8341 -0.9188  0.1519
 3835TIP3    H233065   6.249   0.560   0.936 -0.4000  1.2134 -1.9596
 3836TIP3   OH233066   3.600   6.751   7.202  0.4673 -0.1441  0.7659
 3836TIP3    H133067   3.513   6.786   7.222  0.4378 -1.4509  3.2730
 3836TIP3    H233068   3.584   6.660   7.178  1.1720 -0.5505  1.8013
 3837TIP3   OH233069   2.730   0.005   8.304 -0.1699  0.4247 -0.4321
 3837TIP3    H133070   2.674   0.077   8.334 -0.6026 -0.0578 -0.0574
 3837TIP3    H233071   2.778   0.041   8.230  0.8180  1.6220  0.7251
 3838TIP3   OH233072   6.835   0.387   7.900  0.3423  0.0093 -0.0329
 3838TIP3    H133073   6.826   0.335   7.980  1.2561  1.9033  1.3710
 3838TIP3    H233074   6.908   0.347   7.854  0.3487 -0.6041  0.4951
 3839TIP3   OH233075   6.816   2.039   6.513 -0.2853 -0.0672 -0.5111
 3839TIP3    H133076   6.896   2.088   6.495  0.2102 -0.3373  0.7854
 3839TIP3    H233077   6.826   2.012   6.605 -0.7739 -2.1412 -1.0345
 3840TIP3   OH233078   3.357   4.107   7.731 -0.8131  0.3581 -0.7579
 3840TIP3    H133079   3.273   4.119   7.776  0.0159  1.5109  0.5832
 3840TIP3    H233080   3.372   4.013   7.732 -0.4317  0.3437  2.2869
 3841TIP3   OH233081   6.629   4.347   7.672  0.2805  0.4218 -0.2239
 3841TIP3    H133082   6.573   4.282   7.630 -0.6362  1.0340 -0.0062
 3841TIP3    H233083   6.567   4.407   7.714  1.0977  1.3399 -0.2942
 3842TIP3   OH233084   1.847   6.139   7.513  0.1371 -0.5455 -0.4416
 3842TIP3    H133085   1.827   6.222   7.470 -0.1763 -0.9483 -1.0838
 3842TIP3    H233086   1.904   6.164   7.586  0.6795  0.1556 -1.0827
 3843TIP3   OH233087   3.081   3.086   7.605  0.4904 -0.1154  0.1595
 3843TIP3    H133088   3.146   3.017   7.593  2.7515  1.9756 -0.4117
 3843TIP3    H233089   3.053   3.109   7.516 -1.8102 -1.5595  0.4125
 3844TIP3   OH233090   0.287   6.028   6.437  0.0524 -0.4808  0.1820
 3844TIP3    H133091   0.342   5.990   6.369  0.9284 -2.8154  2.0669
 3844TIP3    H233092   0.217   5.965   6.450 -2.6993  1.9803 -1.4979
 3845TIP3   OH233093   5.791   5.065   1.547  0.7003 -0.0234 -0.4807
 3845TIP3    H133094   5.743   5.125   1.604  0.4619  0.9821 -1.7050
 3845TIP3    H233095   5.723   5.018   1.499  0.8881 -1.2525  0.4120
 3846TIP3   OH233096   3.837   2.920   0.348 -0.0360 -0.2392 -0.0024
 3846TIP3    H133097   3.908   2.910   0.411 -1.3789 -0.0994  1.5940
 3846TIP3    H233098   3.759   2.937   0.402 -1.4090 -1.0558 -1.6442
 3847TIP3   OH233099   6.543   5.016   7.959 -0.1239 -0.2401 -0.0409
 3847TIP3    H133100   6.520   5.040   8.049 -0.3149  0.1361 -0.1914
 3847TIP3    H233101   6.477   4.951   7.934 -1.6325  1.4990 -0.7960
 3848TIP3   OH233102   6.429   0.876   6.854  0.2103 -0.1505 -0.4135
 3848TIP3    H133103   6.509   0.825   6.840 -0.2510 -0.7529 -0.9418
 3848TIP3    H233104   6.359   0.811   6.851 -0.2063  0.1254  1.6090
 3849TIP3   OH233105   0.446   0.733   0.132 -0.1406  0.4267 -0.4427
 3849TIP3    H133106   0.391   0.691   0.198 -0.3431 -0.2873 -1.0423
 3849TIP3    H233107   0.434   0.678   0.054  0.5237  0.9325 -0.9045
 3850TIP3   OH233108   4.933   2.587   0.279 -0.5237 -0.3447 -0.1516
 3850TIP3    H133109   4.992   2.511   0.275  2.7577  1.8548  2.1684
 3850TIP3    H233110   4.853   2.552   0.318  1.5151 -2.3740  2.6439
 3851TIP3   OH233111   0.147   2.714   8.079 -0.0290  0.1031 -0.4895
 3851TIP3    H133112   0.217   2.702   8.014  0.5336 -0.4702  0.1993
 3851TIP3    H233113   0.193   2.717   8.163 -0.8387 -0.3152 -0.0220
 3852TIP3   OH233114   1.098   6.107   6.942 -0.0347  0.2033 -0.0428
 3852TIP3    H133115   1.082   6.201   6.935  0.3961  0.3212  0.5070
 3852TIP3    H233116   1.016   6.071   6.977 -0.4585  0.2661 -0.9377
 3853TIP3   OH233117   6.674   3.595   0.161 -0.0818 -0.6312 -0.1891
 3853TIP3    H133118   6.620   3.549   0.096 -0.2184 -1.0883  0.2345
 3853TIP3    H233119   6.720   3.524   0.207 -0.5027 -0.3651  0.6582
 3854TIP3   OH233120   4.119   4.205   2.247  0.4898 -0.0848  0.1445
 3854TIP3    H133121   4.117   4.283   2.303 -0.3994  0.5175 -0.6852
 3854TIP3    H233122   4.028   4.174   2.246  0.7047 -0.7184 -0.0903
 3855TIP3   OH233123   2.605   6.378   8.310 -0.1440 -0.6652 -0.2994
 3855TIP3    H133124   2.587   6.333   8.228  1.4728 -0.6434 -0.7006
 3855TIP3    H233125   2.532   6.439   8.320  0.7471  1.0125 -2.9649
 3856TIP3   OH233126   0.177   1.108   0.868  0.1684 -0.2415  0.8981
 3856TIP3    H133127   0.177   1.203   0.852 -0.9141 -0.2075  1.0109
 3856TIP3    H233128   0.166   1.101   0.963  1.3561 -0.4859  1.0345
 3857TIP3   OH233129   0.787   0.743   7.375  0.4627  0.0056 -0.4452
 3857TIP3    H133130   0.794   0.654   7.342 -1.3846  0.7114 -3.1347
 3857TIP3    H233131   0.862   0.754   7.433  0.8768 -3.1790 -0.2491
 3858TIP3   OH233132   0.197   1.854   2.015 -0.0019  0.3976  0.4151
 3858TIP3    H133133   0.172   1.929   2.069 -1.9501 -0.0360  0.1862
 3858TIP3    H233134   0.196   1.887   1.925 -1.9297 -0.0961  0.2068
 3859TIP3   OH233135   1.790   1.313   7.028 -0.0290 -0.2151 -0.3051
 3859TIP3    H133136   1.732   1.353   6.963 -2.1286  3.5005  3.3736
 3859TIP3    H233137   1.869   1.367   7.026 -0.0406 -0.1828  0.1298
 3860TIP3   OH233138   3.152   3.161   1.473 -0.5678  0.2720  0.1891
 3860TIP3    H133139   3.199   3.080   1.496 -1.5127 -1.3690 -3.0479
 3860TIP3    H233140   3.214   3.231   1.492  1.3094 -1.4236  0.6781
 3861TIP3   OH233141   1.160   2.853   7.396  0.4338  0.3554  0.4214
 3861TIP3    H133142   1.150   2.947   7.383  0.1332  0.5749  2.1157
 3861TIP3    H233143   1.132   2.815   7.313  0.0455  1.7241 -0.1016
 3862TIP3   OH233144   0.611   6.026   8.102  0.9424 -0.2065  0.1816
 3862TIP3    H133145   0.583   6.114   8.077 -0.0612 -0.7136 -0.5571
 3862TIP3    H233146   0.588   5.971   8.027  0.7868 -1.2387  0.9571
 3863TIP3   OH233147   3.334   6.351   8.152 -0.8408  0.1702 -0.1894
 3863TIP3    H133148   3.344   6.409   8.228 -1.2747 -0.4288  0.3405
 3863TIP3    H233149   3.241   6.357   8.130 -0.3919  1.8373 -1.9236
 3864TIP3   OH233150   1.515   3.141   1.710  0.0037  0.6957  0.5195
 3864TIP3    H133151   1.510   3.236   1.718 -0.7332  0.5413  2.3856
 3864TIP3    H233152   1.608   3.121   1.724 -0.0170  1.0655  1.2189
 3865TIP3   OH233153   4.749   4.529   6.880 -0.1079 -0.0563 -0.8731
 3865TIP3    H133154   4.655   4.516   6.890  0.2152 -1.7301  0.2870
 3865TIP3    H233155   4.777   4.457   6.824  0.5203  0.3451 -1.0830
 3866TIP3   OH233156   1.805   2.732   7.925 -0.5116  0.1281 -0.3606
 3866TIP3    H133157   1.874   2.667   7.934 -1.2230 -1.1322 -2.8894
 3866TIP3    H233158   1.847   2.806   7.881 -0.4229  0.0337 -0.4332
 3867TIP3   OH233159   2.893   5.873   2.513  0.3754  0.3789 -0.4970
 3867TIP3    H133160   2.882   5.917   2.429 -1.6172 -2.3715 -1.8002
 3867TIP3    H233161   2.942   5.793   2.493 -0.6327 -0.6146  0.8011
 3868TIP3   OH233162   5.088   4.456   0.944 -0.3665  0.3941  0.1797
 3868TIP3    H133163   5.108   4.376   0.993  1.8347  0.8103  0.0876
 3868TIP3    H233164   5.159   4.462   0.880 -1.9540  1.0562 -1.5685
 3869TIP3   OH233165   0.376   4.644   1.417  0.2286 -0.9552  0.3622
 3869TIP3    H133166   0.367   4.550   1.402  1.7518 -0.8534 -1.5643
 3869TIP3    H233167   0.464   4.665   1.385 -0.7080  1.4074 -0.9135
 3870TIP3   OH233168   3.924   0.670   0.818  0.3755 -0.0200 -0.0133
 3870TIP3    H133169   3.883   0.752   0.789  2.0535  0.8658 -0.0305
 3870TIP3    H233170   4.013   0.696   0.842  1.0029 -1.8939 -0.2052
 3871TIP3   OH233171   2.670   2.888   6.430 -0.6885  0.0577  0.2132
 3871TIP3    H133172   2.690   2.795   6.439 -0.2995  0.0878 -0.2901
 3871TIP3    H233173   2.598   2.903   6.491  0.6139 -0.1214  1.8531
 3872TIP3   OH233174   1.619   3.871   7.725  0.0384  0.5823  0.1658
 3872TIP3    H133175   1.704   3.841   7.691  0.7750  1.1671  1.4242
 3872TIP3    H233176   1.637   3.957   7.762 -1.3659  1.2119 -0.5396
 3873TIP3   OH233177   0.105   0.283   7.681  0.5451 -0.1377  0.2718
 3873TIP3    H133178   0.087   0.376   7.692  0.9314 -0.0979  0.5938
 3873TIP3    H233179   0.138   0.276   7.591  2.4845  0.3636  0.8983
 3874TIP3   OH233180   6.685   5.440   6.925  0.5918  0.2134  0.4678
 3874TIP3    H133181   6.775   5.469   6.941  0.8817 -0.7139  0.6037
 3874TIP3    H233182   6.659   5.399   7.008 -0.4540  1.6973  0.8913
 3875TIP3   OH233183   5.216   0.219   6.674  0.1973  0.5831 -0.3253
 3875TIP3    H133184   5.294   0.204   6.621  0.3904 -1.2788  0.4207
 3875TIP3    H233185   5.250   0.238   6.761 -0.1712  1.4311 -0.3540
 3876TIP3   OH233186   4.945   3.748   1.998 -0.4284  0.2208  0.2661
 3876TIP3    H133187   4.933   3.741   1.903 -0.5293 -0.9394  0.3476
 3876TIP3    H233188   4.902   3.670   2.033 -0.2951  0.5845  1.2625
 3877TIP3   OH233189   0.445   6.459   7.090 -0.1946  0.0422  0.0793
 3877TIP3    H133190   0.358   6.455   7.052  0.5025 -0.9604 -1.5370
 3877TIP3    H233191   0.435   6.423   7.178 -1.6277  1.1632  0.3983
 3878TIP3   OH233192   3.636   6.537   8.142  0.3310  0.2285 -0.2270
 3878TIP3    H133193   3.599   6.449   8.141  0.5093  0.1402  0.7640
 3878TIP3    H233194   3.722   6.527   8.183 -0.2058  1.0828  1.1447
 3879TIP3   OH233195   2.453   1.741   7.481 -0.0732  0.4497 -0.0893
 3879TIP3    H133196   2.459   1.658   7.527  1.4785  1.0785  0.9729
 3879TIP3    H233197   2.543   1.759   7.454 -0.8803  0.2424 -3.2426
 3880TIP3   OH233198   5.777   5.518   0.094 -0.2928 -0.1712 -0.1278
 3880TIP3    H133199   5.808   5.602   0.129  0.0774  0.0357 -0.9381
 3880TIP3    H233200   5.809   5.516   0.004 -0.3343 -1.1656 -0.1315
 3881TIP3   OH233201   5.094   4.372   8.427  0.6848 -0.0754  0.1887
 3881TIP3    H133202   5.049   4.454   8.445 -1.7920 -1.1749 -0.4531
 3881TIP3    H233203   5.094   4.365   8.331  2.7105  0.0689  0.1319
 3882TIP3   OH233204   3.849   4.939   0.551  0.2950  0.5340  0.7531
 3882TIP3    H133205   3.897   4.912   0.473  0.7974  1.0716  0.8704
 3882TIP3    H233206   3.912   4.989   0.603  0.3320 -0.8083  2.0830
 3883TIP3   OH233207   5.614   1.236   8.053 -0.8288 -0.0095  0.6841
 3883TIP3    H133208   5.677   1.240   8.125  0.9097  0.2176 -0.7765
 3883TIP3    H233209   5.536   1.197   8.092  0.3385 -0.7070  2.4811
 3884TIP3   OH233210   0.317   6.653   8.031 -0.1967  0.4923  0.4679
 3884TIP3    H133211   0.316   6.746   8.006 -0.9952 -0.0431 -1.6753
 3884TIP3    H233212   0.362   6.609   7.959  1.1869 -0.6743  1.9961
 3885TIP3   OH233213   0.032   5.628   7.665  0.0008  0.4707  0.0526
 3885TIP3    H133214   0.127   5.621   7.674  0.1128  1.7378 -0.0096
 3885TIP3    H233215   0.018   5.674   7.582 -0.7903 -2.5872 -1.6844
 3886TIP3   OH233216   3.007   2.220   7.335  0.0413  0.1393 -0.6008
 3886TIP3    H133217   2.944   2.158   7.299 -0.7138  0.1863  0.5852
 3886TIP3    H233218   2.979   2.233   7.426  2.2452 -0.4932  0.2382
 3887TIP3   OH233219   0.582   0.166   8.204  0.2718  0.5528  0.1456
 3887TIP3    H133220   0.527   0.108   8.257  0.0759 -0.3147 -0.9873
 3887TIP3    H233221   0.548   0.158   8.115  1.0412  1.4605 -0.2506
 3888TIP3   OH233222   5.116   5.402   7.155 -0.2756 -0.0733 -0.2972
 3888TIP3    H133223   5.083   5.475   7.207 -2.5839 -1.6049  0.5241
 3888TIP3    H233224   5.105   5.325   7.211 -1.1145 -1.5466 -2.3495
 3889TIP3   OH233225   6.207   1.965   7.326 -0.1678  0.4480 -0.2610
 3889TIP3    H133226   6.136   1.902   7.333  0.1716  0.1843  1.3277
 3889TIP3    H233227   6.275   1.930   7.384  0.9990  1.0210 -1.2459
 3890TIP3   OH233228   4.968   2.851   1.455  0.2588 -0.2827 -0.0493
 3890TIP3    H133229   4.964   2.939   1.417 -0.0990 -0.8817 -1.4692
 3890TIP3    H233230   5.054   2.846   1.496  0.2871  0.7110  0.0348
 3891TIP3   OH233231   6.328   1.910   8.305 -0.9051  0.1727  0.7387
 3891TIP3    H133232   6.317   1.856   8.227 -0.7822  0.7989  0.2913
 3891TIP3    H233233   6.266   1.872   8.368  1.3765 -2.5511  1.5555
 3892TIP3   OH233234   2.434   1.403   1.334  0.0621 -0.7142 -0.0687
 3892TIP3    H133235   2.452   1.398   1.428  0.0590 -1.8984 -0.1226
 3892TIP3    H233236   2.339   1.394   1.327 -0.2043  1.4631 -0.0697
 3893TIP3   OH233237   1.187   0.139   1.104 -0.2413  0.2727 -0.2594
 3893TIP3    H133238   1.226   0.120   1.189 -0.8935  1.1182  0.2435
 3893TIP3    H233239   1.195   0.057   1.055  1.5838  0.2377  0.0286
 3894TIP3   OH233240   2.339   3.086   7.831 -0.4964 -0.1378 -0.1156
 3894TIP3    H133241   2.356   3.039   7.912  0.7947 -1.3810 -1.0513
 3894TIP3    H233242   2.284   3.026   7.780 -0.9045  0.4341 -0.3588
 3895TIP3   OH233243   6.806   1.014   2.419 -0.1359 -0.2911  0.2055
 3895TIP3    H133244   6.752   1.093   2.413  1.5320  0.8101 -0.9591
 3895TIP3    H233245   6.894   1.046   2.437  0.5480 -1.9201 -0.0933
 3896TIP3   OH233246   3.162   1.002   0.493  0.4235 -0.1760  0.1819
 3896TIP3    H133247   3.103   0.927   0.488 -1.0086  0.8942  0.5593
 3896TIP3    H233248   3.246   0.969   0.459 -0.2836 -1.8154 -0.0405
 3897TIP3   OH233249   0.730   1.858   7.671 -0.2584 -0.8608 -0.3407
 3897TIP3    H133250   0.703   1.949   7.670 -0.6396 -0.9231  1.0877
 3897TIP3    H233251   0.826   1.861   7.673 -0.2761 -0.4122  1.2581
 3898TIP3   OH233252   5.007   0.416   7.803 -0.0221 -0.3182  0.0765
 3898TIP3    H133253   5.062   0.406   7.881  0.6373  0.8511 -0.2212
 3898TIP3    H233254   5.054   0.368   7.735  0.8218  0.9127 -0.2475
 3899TIP3   OH233255   5.753   1.998   1.422 -0.7262 -0.1335 -0.0810
 3899TIP3    H133256   5.672   2.048   1.415 -1.4393 -0.9583  1.6217
 3899TIP3    H233257   5.777   2.005   1.515  0.5729 -0.7773 -0.3496
 3900TIP3   OH233258   4.849   4.780   0.168 -0.2372  0.6423 -0.1712
 3900TIP3    H133259   4.926   4.825   0.133  0.8567 -0.3732  0.8478
 3900TIP3    H233260   4.881   4.732   0.244 -1.2544 -2.0347 -1.2962
 3901TIP3   OH233261   3.852   4.589   8.179 -0.5031  0.3221 -0.0854
 3901TIP3    H133262   3.891   4.526   8.240 -0.7410 -0.9491 -1.2085
 3901TIP3    H233263   3.926   4.632   8.137 -0.3372  1.0911  0.9610
 3902TIP3   OH233264   4.094   3.506   1.626  0.0508 -0.5684 -0.1130
 3902TIP3    H133265   4.047   3.467   1.552  0.4059 -0.9686 -0.1316
 3902TIP3    H233266   4.042   3.583   1.649 -1.2349 -1.5914  0.5639
 3903TIP3   OH233267   1.554   5.492   0.925 -0.3159  0.1566 -1.1185
 3903TIP3    H133268   1.486   5.538   0.876 -1.4965 -0.3254 -0.0052
 3903TIP3    H233269   1.530   5.505   1.017  0.5033 -0.9144 -0.7304
 3904TIP3   OH233270   2.591   1.725   8.310  0.0029 -0.3350 -0.4217
 3904TIP3    H133271   2.676   1.683   8.307  0.0985 -0.3530  1.4438
 3904TIP3    H233272   2.594   1.781   8.387 -1.9584 -0.9987  0.1920
 3905TIP3   OH233273   5.858   4.061   7.858 -0.3536  0.2091  0.3740
 3905TIP3    H133274   5.798   4.099   7.922 -0.2593  1.9211 -0.4838
 3905TIP3    H233275   5.925   4.128   7.846  0.7177 -0.9147 -0.0441
 3906TIP3   OH233276   3.087   0.181   1.374  0.2844 -0.0094  0.1092
 3906TIP3    H133277   3.178   0.176   1.346 -0.3146 -0.8645 -1.8282
 3906TIP3    H233278   3.040   0.122   1.315 -1.5835  0.6662  0.8397
 3907TIP3   OH233279   2.238   0.623   1.587  0.2263  0.0472 -0.2754
 3907TIP3    H133280   2.315   0.639   1.641  0.6097 -1.4149 -0.3430
 3907TIP3    H233281   2.262   0.654   1.500  1.3821 -1.8658 -0.6887
 3908TIP3   OH233282   1.409   5.691   0.157 -0.2566 -0.6466 -0.0375
 3908TIP3    H133283   1.446   5.759   0.213 -1.3628 -0.1456  0.1128
 3908TIP3    H233284   1.339   5.652   0.210 -0.0376 -1.4849 -0.3543
 3909TIP3   OH233285   5.529   6.848   7.857  0.1240 -0.0001  0.2119
 3909TIP3    H133286   5.594   6.869   7.924 -0.4785 -0.4269  0.9449
 3909TIP3    H233287   5.454   6.904   7.877  1.0056  2.1444 -1.9384
 3910TIP3   OH233288   1.568   2.670   0.028 -0.3095 -0.1444 -0.2232
 3910TIP3    H133289   1.557   2.764   0.041 -0.3422  0.1349 -1.9387
 3910TIP3    H233290   1.575   2.634   0.116  2.2522  1.7508  0.4986
 3911TIP3   OH233291   0.594   5.006   0.704  0.3992  0.0495  0.1415
 3911TIP3    H133292   0.562   5.008   0.613 -1.6801  0.6677  0.8276
 3911TIP3    H233293   0.525   4.964   0.753  1.6401 -0.5616  1.4320
 3912TIP3   OH233294   0.508   6.463   1.404  0.1982 -0.3477  0.2378
 3912TIP3    H133295   0.463   6.421   1.477 -2.2666 -1.6109 -1.8606
 3912TIP3    H233296   0.440   6.477   1.338  1.9277  2.5181 -1.1117
 3913TIP3   OH233297   5.167   2.727   8.382 -0.1515 -0.7331  0.4796
 3913TIP3    H133298   5.101   2.776   8.334  0.9431  1.6185  1.1995
 3913TIP3    H233299   5.136   2.729   8.473 -0.7155 -2.5534  0.3665
 3914TIP3   OH233300   2.452   5.276   1.876 -0.0140 -0.0938 -0.3595
 3914TIP3    H133301   2.385   5.279   1.807 -1.9340 -0.8347  1.3656
 3914TIP3    H233302   2.477   5.367   1.889 -1.8363  0.4018 -0.0280
 3915TIP3   OH233303   0.183   3.982   6.810 -0.4884 -0.3013 -0.1169
 3915TIP3    H133304   0.174   3.970   6.905  0.8803  0.9941  0.2157
 3915TIP3    H233305   0.101   3.949   6.774 -1.2781 -0.2874  1.5681
 3916TIP3   OH233306   5.703   3.589   0.128 -0.6133  0.4067  0.3364
 3916TIP3    H133307   5.777   3.555   0.079 -1.3966  0.5215 -0.9667
 3916TIP3    H233308   5.667   3.513   0.174  1.8025  0.7700  3.1115
 3917TIP3   OH233309   5.093   2.828   7.959  0.4586 -0.1994  0.1986
 3917TIP3    H133310   5.158   2.819   7.889 -0.2584 -0.3229 -0.4582
 3917TIP3    H233311   5.038   2.750   7.951  0.0756  0.0259  0.5916
 3918TIP3   OH233312   3.057   6.369   8.037 -0.1818 -0.7389  0.4681
 3918TIP3    H133313   2.989   6.322   8.088 -0.0490 -1.1237  0.2955
 3918TIP3    H233314   3.065   6.453   8.081 -1.4180 -0.3282 -0.0373
 3919TIP3   OH233315   0.047   4.676   6.931 -0.3740 -0.3711 -0.2611
 3919TIP3    H133316   0.037   4.769   6.954  0.5744 -0.5997  1.1732
 3919TIP3    H233317  -0.028   4.634   6.973  0.2784 -0.5110  0.7964
 3920TIP3   OH233318   5.441   3.587   1.509 -0.2072  0.5096 -0.1759
 3920TIP3    H133319   5.481   3.525   1.571 -2.2461  0.1632  0.8624
 3920TIP3    H233320   5.514   3.644   1.483  2.1287 -3.0944 -2.3336
 3921TIP3   OH233321   3.751   3.819   2.945  0.0651 -0.2393  0.3550
 3921TIP3    H133322   3.787   3.742   2.989 -0.9937 -1.3400 -0.6418
 3921TIP3    H233323   3.672   3.787   2.902 -0.9928  1.6401  0.7808
 3922TIP3   OH233324   2.081   5.645   8.389  0.9347  0.4102 -0.1501
 3922TIP3    H133325   2.009   5.629   8.450  1.5211  0.8864  0.6823
 3922TIP3    H233326   2.074   5.738   8.367 -1.2872 -0.3562 -3.4571
 3923TIP3   OH233327   3.273   3.389   1.520  0.1455  0.0926  0.1554
 3923TIP3    H133328   3.307   3.398   1.431 -1.0237 -2.7862 -0.6880
 3923TIP3    H233329   3.211   3.461   1.530  0.8948  0.9377 -1.0362
 3924TIP3   OH233330   4.920   3.879   7.992 -0.2423  0.5353 -0.1853
 3924TIP3    H133331   4.842   3.829   8.014 -0.0276  0.3262  0.1048
 3924TIP3    H233332   4.927   3.945   8.061  0.3662 -0.0496  0.3277
 3925TIP3   OH233333   2.426   1.669   0.888  0.0933 -0.6177 -0.1247
 3925TIP3    H133334   2.509   1.646   0.846  0.1246 -0.9993  0.1462
 3925TIP3    H233335   2.382   1.585   0.901 -0.3798 -0.4073 -0.3572
 3926TIP3   OH233336   6.839   5.183   6.858 -0.2707 -0.0604  0.1861
 3926TIP3    H133337   6.747   5.205   6.876 -0.9757 -1.5927 -1.3221
 3926TIP3    H233338   6.864   5.239   6.784 -0.3652 -0.4703 -0.1586
 3927TIP3   OH233339   4.108   5.551   7.273 -0.5182  0.1127  0.6336
 3927TIP3    H133340   4.103   5.606   7.351  0.2084  1.0363  0.0407
 3927TIP3    H233341   4.194   5.510   7.278 -1.1804 -1.2604  1.2435
 3928TIP3   OH233342   5.514   2.791   2.086  0.1740  0.1648 -0.0921
 3928TIP3    H133343   5.426   2.811   2.054  0.2020  0.0154 -0.2659
 3928TIP3    H233344   5.506   2.705   2.127 -0.1473  0.8986  1.4694
 3929TIP3   OH233345   1.140   2.282   7.563 -0.4005 -0.5804 -0.3854
 3929TIP3    H133346   1.097   2.256   7.481  1.3293 -1.0905 -1.1683
 3929TIP3    H233347   1.221   2.325   7.535  0.1099 -0.5517  1.0658
 3930TIP3   OH233348   6.853   2.583   6.653 -0.3341  0.3226  0.2836
 3930TIP3    H133349   6.948   2.574   6.642 -0.6096 -1.0224 -1.4683
 3930TIP3    H233350   6.818   2.496   6.634 -2.0335  1.1280 -0.5075
 3931TIP3   OH233351   3.844   0.900   1.625 -0.1138 -0.0365  0.2786
 3931TIP3    H133352   3.749   0.911   1.618 -0.2705 -0.3152  1.6302
 3931TIP3    H233353   3.856   0.805   1.636  0.1801  0.1433  1.6610
 3932TIP3   OH233354   5.176   5.517   6.914 -0.0422  0.0613  0.7099
 3932TIP3    H133355   5.239   5.588   6.929  0.8584 -0.4737 -0.4208
 3932TIP3    H233356   5.179   5.465   6.994  0.5020  0.3900  0.9090
 3933TIP3   OH233357   2.756   0.099   7.626 -0.4737  0.1375  0.5576
 3933TIP3    H133358   2.729   0.163   7.561 -1.0970 -0.2359  0.4462
 3933TIP3    H233359   2.787   0.024   7.575  0.8896  0.5952  0.6808
 3934TIP3   OH233360   2.975   5.847   0.052  0.0643  0.6735 -0.0204
 3934TIP3    H133361   2.948   5.755   0.061 -0.7137  0.9700  0.8561
 3934TIP3    H233362   3.070   5.843   0.037 -0.3365 -0.3899 -3.0120
 3935TIP3   OH233363   4.479   0.022   1.432 -0.5800  0.4924 -0.2420
 3935TIP3    H133364   4.421  -0.045   1.397  0.7077 -0.3957 -0.7459
 3935TIP3    H233365   4.479   0.007   1.527 -2.0060  1.2202 -0.0937
 3936TIP3   OH233366   3.727   3.625   1.143 -0.1981 -0.5254 -0.2297
 3936TIP3    H133367   3.659   3.693   1.134 -0.5417 -0.8331  0.0096
 3936TIP3    H233368   3.807   3.667   1.111  0.0154  0.6435  1.6845
 3937TIP3   OH233369   5.431   2.512   1.460 -0.1761  0.8467 -0.0992
 3937TIP3    H133370   5.524   2.492   1.456  0.1899  1.9290  1.8262
 3937TIP3    H233371   5.398   2.456   1.531 -1.0345  0.3757 -0.8514
 3938TIP3   OH233372   1.889   5.597   8.103 -0.4118  0.5143 -0.4477
 3938TIP3    H133373   1.867   5.639   8.186  1.8481 -0.6434  0.8293
 3938TIP3    H233374   1.934   5.665   8.053 -0.5728  0.8238 -0.1758
 3939TIP3   OH233375   4.351   4.227   6.070  0.3581 -0.4548  0.2372
 3939TIP3    H133376   4.317   4.144   6.101  0.7858 -1.1748 -1.1352
 3939TIP3    H233377   4.445   4.222   6.085  0.5730 -0.8119 -1.0822
 3940TIP3   OH233378   0.109   4.053   7.088 -0.3800 -0.5538  0.3118
 3940TIP3    H133379   0.135   4.092   7.171 -0.9523 -0.2958  0.3749
 3940TIP3    H233380   0.024   4.093   7.068 -0.9328 -1.6860  0.3230
 3941TIP3   OH233381   5.250   1.369   0.407  0.1724  0.2717 -0.0632
 3941TIP3    H133382   5.176   1.430   0.406  0.0918  0.1699 -0.3044
 3941TIP3    H233383   5.267   1.354   0.500  0.7712  1.3457  0.0089
 3942TIP3   OH233384   0.110   4.135   2.229 -0.1910 -0.0492  0.2936
 3942TIP3    H133385   0.190   4.180   2.255 -0.0261  0.1465 -0.5274
 3942TIP3    H233386   0.040   4.184   2.273  0.1981 -1.0846  2.1917
 3943TIP3   OH233387   1.632   4.542   0.702 -1.0226  0.3832  0.0850
 3943TIP3    H133388   1.620   4.455   0.663 -2.1825  0.4515  0.2599
 3943TIP3    H233389   1.671   4.594   0.632 -2.1361  0.2339 -0.6792
 3944TIP3   OH233390   4.612   1.928   0.686  0.6754  0.1688  0.3234
 3944TIP3    H133391   4.698   1.951   0.649  0.2944 -0.2739 -0.8548
 3944TIP3    H233392   4.625   1.936   0.781  2.0041  0.1644  0.1669
 3945TIP3   OH233393   6.019   1.977   0.259 -0.2663  0.1997 -0.2362
 3945TIP3    H133394   6.053   2.030   0.187 -0.5614 -0.0378 -0.5517
 3945TIP3    H233395   5.963   1.912   0.217  1.1233 -1.2212  0.0211
 3946TIP3   OH233396   0.556   4.648   0.395  0.2881  0.1477 -0.0248
 3946TIP3    H133397   0.649   4.671   0.403  0.1250  0.4488  1.1233
 3946TIP3    H233398   0.513   4.696   0.466 -0.5705 -0.9592  0.2308
 3947TIP3   OH233399   5.402   1.879   8.144 -0.0761  0.3524 -0.0320
 3947TIP3    H133400   5.381   1.789   8.166  2.4760  0.0197  1.4980
 3947TIP3    H233401   5.475   1.901   8.203 -0.8839  3.5498 -0.0473
 3948TIP3   OH233402   0.508   5.030   0.417  0.1355 -0.4516  0.5336
 3948TIP3    H133403   0.426   4.985   0.398  0.3035 -1.0761  1.2585
 3948TIP3    H233404   0.564   5.009   0.343 -0.9019  1.4249 -0.8764
 3949TIP3   OH233405   4.574   2.229   0.672  0.0722 -0.0224  0.3253
 3949TIP3    H133406   4.559   2.287   0.597 -1.2243  0.6904  1.0864
 3949TIP3    H233407   4.511   2.158   0.660  1.8406 -1.5047 -0.7489
 3950TIP3   OH233408   0.703   2.237   0.007 -0.4049  0.0580 -0.5626
 3950TIP3    H133409   0.746   2.154  -0.016 -2.0502 -1.2290  0.7578
 3950TIP3    H233410   0.710   2.290  -0.072 -0.2996 -1.7777 -1.8577
 3951TIP3   OH233411   1.133   2.741   0.382 -0.0771 -0.7581 -0.1995
 3951TIP3    H133412   1.054   2.791   0.402  0.5687 -0.4769  1.8844
 3951TIP3    H233413   1.102   2.663   0.337 -1.3647  0.1188 -0.9094
 3952TIP3   OH233414   1.954   2.352   1.818  0.2711  0.2023  0.6931
 3952TIP3    H133415   1.957   2.281   1.882  0.8721  1.6522  2.3572
 3952TIP3    H233416   1.952   2.432   1.871 -1.5345  1.4271 -1.0852
 3953TIP3   OH233417   1.929   2.053   2.294  0.2248 -0.0883 -0.4106
 3953TIP3    H133418   2.019   2.085   2.307 -0.0655  0.4384  0.3960
 3953TIP3    H233419   1.876   2.108   2.351 -0.3683 -1.7095  0.6664
 3954TIP3   OH233420   0.421   3.904   0.451 -0.0240 -0.5147  0.1948
 3954TIP3    H133421   0.416   3.826   0.506  0.9489 -2.7390 -2.6027
 3954TIP3    H233422   0.333   3.914   0.416 -0.1113 -0.4773  0.4246
 3955TIP3   OH233423   6.321   0.802   0.473  0.0938 -0.3785  0.1747
 3955TIP3    H133424   6.412   0.774   0.460  0.4595  1.7709 -2.9371
 3955TIP3    H233425   6.327   0.879   0.530  0.2957  0.0430 -0.4096
 3956TIP3   OH233426   1.440   3.402   6.890 -0.5444 -0.1393 -0.2779
 3956TIP3    H133427   1.483   3.486   6.905 -1.0869 -0.0862  1.1628
 3956TIP3    H233428   1.414   3.373   6.977 -0.3664 -1.8109 -0.7525
 3957TIP3   OH233429   4.089   1.789   0.779  0.0513  0.6493  0.4788
 3957TIP3    H133430   4.055   1.878   0.775  0.0688  0.6082 -1.0097
 3957TIP3    H233431   4.149   1.789   0.854  0.5659  2.0702  0.0911
 3958TIP3   OH233432   3.030   1.954   0.284 -0.0826 -0.4765  0.1034
 3958TIP3    H133433   3.117   1.991   0.296 -0.3105  0.2718 -0.4520
 3958TIP3    H233434   3.023   1.941   0.189 -0.6178 -0.4269  0.1336
 3959TIP3   OH233435   2.656   1.533   6.896 -0.3240 -0.2786 -0.1312
 3959TIP3    H133436   2.589   1.474   6.862 -0.7377  0.0332  0.1239
 3959TIP3    H233437   2.609   1.588   6.959 -0.3327  1.4694 -1.5841
 3960TIP3   OH233438   5.637   3.535   7.400 -0.4078  0.1945 -0.0753
 3960TIP3    H133439   5.615   3.555   7.309 -1.4159  0.2758  0.1793
 3960TIP3    H233440   5.723   3.575   7.413  0.4619 -1.1188 -1.4290
 3961TIP3   OH233441   2.414   1.145   2.395  0.1192 -0.3098 -0.1896
 3961TIP3    H133442   2.385   1.068   2.345 -0.0600 -0.3232 -0.0654
 3961TIP3    H233443   2.381   1.130   2.483 -1.2271  0.6273 -0.5177
 3962TIP3   OH233444   0.071   5.026   7.758 -0.1338  0.5099 -0.2374
 3962TIP3    H133445   0.051   5.068   7.675 -0.1384  0.6114 -0.1855
 3962TIP3    H233446   0.112   5.095   7.811 -1.7449  0.9481  0.4877
 3963TIP3   OH233447   5.539   0.938   0.904  0.4078  0.0662  0.0468
 3963TIP3    H133448   5.457   0.969   0.865  2.4272  1.7956 -3.2536
 3963TIP3    H233449   5.548   0.989   0.985 -0.1458  2.5069 -1.3384
 3964TIP3   OH233450   4.495   1.519   1.874 -0.2328  0.1582 -0.2657
 3964TIP3    H133451   4.576   1.567   1.853  1.5612 -1.8559  1.5515
 3964TIP3    H233452   4.459   1.566   1.950 -0.2984  0.5046 -0.5044
 3965TIP3   OH233453   3.864   5.917   1.146 -0.4632 -0.1022 -0.4180
 3965TIP3    H133454   3.916   5.895   1.224 -1.5053  0.3547  0.4332
 3965TIP3    H233455   3.881   6.011   1.133 -1.2736  0.1183  0.0398
 3966TIP3   OH233456   0.392   3.210   0.563  0.2872 -0.5286  0.0621
 3966TIP3    H133457   0.379   3.179   0.474  1.0029 -1.7279  0.3531
 3966TIP3    H233458   0.461   3.154   0.598 -1.0812 -1.1992  1.8828
 3967TIP3   OH233459   0.206   1.873   6.256  0.2166 -0.0753  0.1754
 3967TIP3    H133460   0.259   1.943   6.295  1.0998 -1.7070  2.0664
 3967TIP3    H233461   0.266   1.824   6.201 -0.1038 -0.0664 -0.1873
 3968TIP3   OH233462   5.904   5.966   2.181 -0.0270  0.0243 -0.0275
 3968TIP3    H133463   5.850   6.044   2.197  1.1390  0.8136  0.1896
 3968TIP3    H233464   5.848   5.893   2.205 -1.3115  0.7631 -0.6474
 3969TIP3   OH233465   1.299   4.759   0.980 -0.3208  0.2688 -0.3735
 3969TIP3    H133466   1.207   4.776   0.962 -0.5696 -1.2320 -0.6907
 3969TIP3    H233467   1.345   4.779   0.899 -0.5698 -0.3235 -0.6651
 3970TIP3   OH233468   0.887   3.044   7.246  0.3102  0.1714 -0.0615
 3970TIP3    H133469   0.897   2.979   7.177  1.1171  0.0742  0.1348
 3970TIP3    H233470   0.799   3.030   7.280 -0.0018  0.0610 -0.9037
 3971TIP3   OH233471   3.967   4.199   0.086 -0.0398 -0.3725  0.0195
 3971TIP3    H133472   3.996   4.170   0.172  1.7522 -2.8075 -1.2865
 3971TIP3    H233473   4.036   4.171   0.026 -1.6588  0.3349 -2.3395
 3972TIP3   OH233474   5.416   5.437   0.392 -0.3787  0.4525  0.4972
 3972TIP3    H133475   5.481   5.499   0.358 -0.7109 -0.8127 -2.8144
 3972TIP3    H233476   5.464   5.386   0.456  1.5523  0.4861 -0.8131
 3973TIP3   OH233477   0.027   1.340   1.608 -0.0796 -0.6170 -0.3657
 3973TIP3    H133478  -0.050   1.358   1.553  1.5181 -0.2019 -2.5988
 3973TIP3    H233479   0.089   1.410   1.585  0.8826 -0.7731  1.5932
 3974TIP3   OH233480   1.909   3.910   8.537 -0.3357  0.3816 -0.1713
 3974TIP3    H133481   1.968   3.975   8.576 -1.4578  1.2273  0.1587
 3974TIP3    H233482   1.909   3.837   8.598 -0.8717  1.0527  0.6459
 3975TIP3   OH233483   4.267   3.101   7.130 -0.3321  0.0100 -0.7069
 3975TIP3    H133484   4.174   3.083   7.119 -0.4409 -0.6826  1.0483
 3975TIP3    H233485   4.271   3.164   7.202  0.6786 -2.5406  1.5984
 3976TIP3   OH233486   3.362   0.933   7.276 -0.1411  0.9492  0.5271
 3976TIP3    H133487   3.447   0.894   7.258 -0.5588  0.5666 -0.7749
 3976TIP3    H233488   3.367   0.962   7.367  0.8102 -0.5325  0.9872
 3977TIP3   OH233489   0.962   1.050   8.181 -0.1829 -0.0776 -0.4868
 3977TIP3    H133490   1.006   1.075   8.262  0.8875  1.5764 -1.5076
 3977TIP3    H233491   1.026   1.070   8.112 -1.3371 -0.7083 -1.8049
 3978TIP3   OH233492   2.086   1.939   7.875 -0.3482  0.2192  0.2471
 3978TIP3    H133493   2.168   1.898   7.904 -1.3024 -0.1338  2.6536
 3978TIP3    H233494   2.095   2.031   7.900 -0.7666  0.1344  0.7221
 3979TIP3   OH233495   1.374   1.118   7.669  0.7019  0.1787 -0.2801
 3979TIP3    H133496   1.448   1.061   7.691  0.8726  1.0773  1.6904
 3979TIP3    H233497   1.309   1.100   7.737 -1.4403 -1.4279 -2.5995
 3980TIP3   OH233498   4.886   6.832   1.307  0.7831 -0.3084  0.4512
 3980TIP3    H133499   4.977   6.861   1.307  0.5195  0.5579  0.8756
 3980TIP3    H233500   4.877   6.782   1.389  1.4961 -2.5401 -0.7348
 3981TIP3   OH233501   5.113   2.955   0.934 -0.0980 -0.1995 -0.1130
 3981TIP3    H133502   5.072   2.874   0.967  2.4237 -1.3540  0.4751
 3981TIP3    H233503   5.177   2.978   1.002 -1.5937  3.1104  0.3702
 3982TIP3   OH233504   4.391   5.576   7.885  0.0867  0.2214 -0.2747
 3982TIP3    H133505   4.423   5.663   7.911  0.0537  0.1420  0.0331
 3982TIP3    H233506   4.326   5.594   7.818 -0.9660  0.5213  0.7963
 3983TIP3   OH233507   2.764   4.215   7.783 -0.1553  0.0200 -0.1759
 3983TIP3    H133508   2.706   4.181   7.851 -0.4893 -2.8349 -1.7554
 3983TIP3    H233509   2.717   4.200   7.701  1.2346  1.2154 -1.2516
 3984TIP3   OH233510   1.084   4.172   8.455  0.5007  0.0307 -0.0742
 3984TIP3    H133511   1.170   4.132   8.442 -0.0507 -0.8696 -1.1180
 3984TIP3    H233512   1.099   4.266   8.442  1.7201  0.1865  1.9124
 3985TIP3   OH233513   3.387   1.790   1.915 -0.1526  0.3149  0.2436
 3985TIP3    H133514   3.468   1.807   1.964 -0.0490 -0.2978  0.2867
 3985TIP3    H233515   3.350   1.877   1.901 -0.6619  0.4708  2.2152
 3986TIP3   OH233516   0.274   0.143   0.305  0.1625  0.5552  0.4895
 3986TIP3    H133517   0.239   0.149   0.216 -0.0965 -4.3228 -0.0286
 3986TIP3    H233518   0.197   0.124   0.359  0.6875  0.3218  1.1568
 3987TIP3   OH233519   6.301   4.882   7.661  0.7622 -0.1034 -0.0902
 3987TIP3    H133520   6.279   4.973   7.642 -1.5237 -0.3868  0.9036
 3987TIP3    H233521   6.233   4.852   7.721  1.2552 -2.5841 -0.6400
 3988TIP3   OH233522   6.718   0.060   1.494  0.3265 -0.3908  0.3273
 3988TIP3    H133523   6.811   0.075   1.512  0.4083  2.5712 -1.8403
 3988TIP3    H233524   6.718  -0.015   1.435  1.6558  0.8723 -1.4058
 3989TIP3   OH233525   3.089   1.512   0.127 -0.5906  0.3381  0.4478
 3989TIP3    H133526   3.178   1.516   0.093 -0.9701  3.6242 -0.5003
 3989TIP3    H233527   3.099   1.515   0.222  0.3336  1.9529  0.3275
 3990TIP3   OH233528   0.905   1.942   1.181 -0.4077 -0.2242  0.0443
 3990TIP3    H133529   0.856   1.865   1.208  0.8469 -1.0651 -0.0149
 3990TIP3    H233530   0.996   1.924   1.206 -0.2378  1.7033  1.0719
 3991TIP3   OH233531   1.644   2.670   2.118  0.3041  0.5513 -0.2013
 3991TIP3    H133532   1.641   2.587   2.166 -0.9071  0.0469 -1.0691
 3991TIP3    H233533   1.575   2.661   2.051  1.1107  1.6910 -1.2348
 3992TIP3   OH233534   4.955   6.749   6.957  0.1713  0.9132  0.0199
 3992TIP3    H133535   4.986   6.818   6.899  1.7129 -1.0923 -1.7380
 3992TIP3    H233536   5.035   6.707   6.990 -0.7035  0.1250  1.2334
 3993TIP3   OH233537   1.325   2.380   2.072  0.3449 -0.0005 -0.2393
 3993TIP3    H133538   1.356   2.450   2.015 -0.8829  0.4593 -0.3630
 3993TIP3    H233539   1.290   2.314   2.012  1.8070 -0.8928 -0.1395
 3994TIP3   OH233540   1.891   0.875   7.873  0.0266  0.4445 -0.2301
 3994TIP3    H133541   1.914   0.913   7.788  0.0779  2.0971  0.4915
 3994TIP3    H233542   1.918   0.940   7.937 -0.7990 -0.3922  1.0211
 3995TIP3   OH233543   5.259   3.166   6.665 -0.1561 -0.3401 -0.5054
 3995TIP3    H133544   5.184   3.138   6.613  0.2958 -0.4763 -1.0912
 3995TIP3    H233545   5.320   3.093   6.660  0.0356 -0.2111 -0.0716
 3996TIP3   OH233546   4.239   6.300   1.532  0.3665  0.5681 -0.0949
 3996TIP3    H133547   4.165   6.244   1.505  0.7076 -0.0114  0.1424
 3996TIP3    H233548   4.279   6.252   1.605  1.6582  0.3014 -0.9459
 3997TIP3   OH233549   6.009   2.716   7.442  0.2491 -0.0475  0.4922
 3997TIP3    H133550   6.097   2.679   7.431  0.4589 -0.1047  2.0869
 3997TIP3    H233551   5.968   2.660   7.508 -1.8408 -1.3966 -1.8068
 3998TIP3   OH233552   4.006   5.830   1.367 -0.2848 -1.0702  0.8662
 3998TIP3    H133553   4.102   5.826   1.375 -0.3068 -1.2514  1.0343
 3998TIP3    H233554   3.979   5.738   1.360 -0.3590 -0.9862 -0.1879
 3999TIP3   OH233555   0.099   3.106   0.139  0.3378  0.1100 -0.0105
 3999TIP3    H133556   0.076   3.044   0.071 -1.4395  0.2506  0.4167
 3999TIP3    H233557   0.194   3.098   0.148  0.6230  0.0596 -2.4405
 4000TIP3   OH233558   1.429   2.105   6.955 -0.6211  0.1430  0.2368
 4000TIP3    H133559   1.391   2.108   7.042 -0.8361  0.1344  0.1437
 4000TIP3    H233560   1.364   2.060   6.902 -0.8661  0.8959 -0.1187
 4001TIP3   OH233561   2.155   5.707   7.040  0.6143  0.0765  0.2575
 4001TIP3    H133562   2.206   5.733   6.963  0.9286  0.0647  0.4585
 4001TIP3    H233563   2.110   5.628   7.012  1.2583 -0.3157  0.2922
 4002TIP3   OH233564   6.244   0.826   7.995  0.7901 -0.5635 -0.5596
 4002TIP3    H133565   6.281   0.835   7.908  0.3991 -2.1400 -0.9158
 4002TIP3    H233566   6.211   0.737   7.998 -2.1303  0.4439  0.0687
 4003TIP3   OH233567   1.532   4.306   0.261 -0.1946  0.2158 -0.2312
 4003TIP3    H133568   1.602   4.267   0.208  1.0980  1.8685  0.1819
 4003TIP3    H233569   1.561   4.293   0.351  0.8019  2.9197 -0.0870
 4004TIP3   OH233570   4.458   0.031   7.285 -0.4504  0.0528 -0.2043
 4004TIP3    H133571   4.511   0.017   7.363  0.0592 -2.2008 -0.8881
 4004TIP3    H233572   4.517   0.080   7.226 -0.0191 -0.2598 -0.0372
 4005TIP3   OH233573   1.458   1.700   7.045 -0.8772 -0.1235 -0.0347
 4005TIP3    H133574   1.363   1.708   7.052 -1.0369 -1.3597 -0.4434
 4005TIP3    H233575   1.484   1.646   7.120 -0.2491  1.6072  1.0503
 4006TIP3   OH233576   0.002   4.913   0.997 -0.0318  0.0833  0.1211
 4006TIP3    H133577   0.039   4.875   1.077 -1.0481  0.0105  0.5687
 4006TIP3    H233578  -0.011   4.837   0.939  1.8756  0.2775 -0.6276
 4007TIP3   OH233579   4.198   0.549   0.192  0.4660  0.4994  0.2540
 4007TIP3    H133580   4.184   0.604   0.269  0.2241  2.1561 -0.9091
 4007TIP3    H233581   4.263   0.484   0.220 -0.5786  0.2106  2.2151
 4008TIP3   OH233582   5.932   5.916   0.970 -0.5429 -0.2909  0.4093
 4008TIP3    H133583   5.941   5.824   0.947 -1.3958 -0.1164 -0.6717
 4008TIP3    H233584   5.841   5.925   1.000  0.1387 -0.2254  2.6071
 4009TIP3   OH233585   5.306   4.986   0.344 -0.3852  1.0108 -0.0257
 4009TIP3    H133586   5.338   4.954   0.428 -1.3131 -1.5358 -0.5724
 4009TIP3    H233587   5.375   4.966   0.282 -1.0320 -0.1978 -0.3957
 4010TIP3   OH233588   4.306   2.213   6.884  0.1101  0.2219  0.0080
 4010TIP3    H133589   4.334   2.209   6.975  2.2707  0.4964 -0.5964
 4010TIP3    H233590   4.386   2.204   6.833 -1.2585 -2.3209 -1.9620
 4011TIP3   OH233591   3.866   6.021   7.792  0.0177 -0.6927 -0.6581
 4011TIP3    H133592   3.884   5.927   7.794  0.3715 -0.6453 -1.2883
 4011TIP3    H233593   3.927   6.059   7.855 -1.0583 -1.0147  0.6297
 4012TIP3   OH233594   4.569   0.472   6.845 -0.0961 -0.3320 -0.0650
 4012TIP3    H133595   4.615   0.547   6.808 -0.5933  0.1153  0.2028
 4012TIP3    H233596   4.621   0.396   6.818 -0.8454 -0.1135 -2.3516
 4013TIP3   OH233597   1.712   4.455   1.644 -0.0731  0.4215  0.2445
 4013TIP3    H133598   1.752   4.522   1.700 -2.2536  0.3880  1.9640
 4013TIP3    H233599   1.692   4.500   1.562  2.0336  0.7991 -0.1197
 4014TIP3   OH233600   3.604   6.476   1.721  0.0595 -0.1100 -0.2901
 4014TIP3    H133601   3.658   6.542   1.679 -0.9214  1.4060  0.7511
 4014TIP3    H233602   3.611   6.399   1.664  1.2917  0.8427 -1.4776
 4015TIP3   OH233603   5.802   5.490   1.748  0.4015 -0.8099  0.1909
 4015TIP3    H133604   5.773   5.579   1.768 -1.0062 -1.1686 -0.1158
 4015TIP3    H233605   5.877   5.501   1.690 -0.7977  0.1903 -1.2328
 4016TIP3   OH233606   0.845   5.789   8.409  0.3116 -0.5999  0.0200
 4016TIP3    H133607   0.804   5.862   8.364 -0.4750 -1.4958 -0.7692
 4016TIP3    H233608   0.934   5.787   8.376  0.8284  0.9249  1.2100
 4017TIP3   OH233609   6.874   2.403   7.085  0.0318 -0.4018 -0.0015
 4017TIP3    H133610   6.848   2.490   7.116  0.6407 -0.4476  0.6551
 4017TIP3    H233611   6.905   2.419   6.996  2.9204  0.6075  1.0598
 4018TIP3   OH233612   2.189   0.068   1.312 -0.7048 -0.2490 -0.0048
 4018TIP3    H133613   2.094   0.076   1.322 -0.4778  2.4528  0.7214
 4018TIP3    H233614   2.207   0.105   1.225 -0.3445 -1.5050 -0.4926
 4019TIP3   OH233615   2.453   5.142   6.913 -0.8259  0.2395  0.0150
 4019TIP3    H133616   2.441   5.071   6.850 -1.4797  1.2150 -1.0117
 4019TIP3    H233617   2.419   5.220   6.867  0.7226  1.3842  0.7311
 4020TIP3   OH233618   0.425   6.731   0.061  0.0806  0.4145  0.1308
 4020TIP3    H133619   0.386   6.715   0.147 -2.1522 -3.1304 -1.3108
 4020TIP3    H233620   0.516   6.700   0.070 -0.9731 -3.0319  0.5912
 4021TIP3   OH233621   5.038   2.030   2.923 -0.1156  0.2427  0.0487
 4021TIP3    H133622   5.133   2.024   2.915  0.0235  1.1031  0.8579
 4021TIP3    H233623   5.005   1.970   2.856  0.9872 -0.0637 -0.2551
 4022TIP3   OH233624   1.795   3.629   1.355  0.1288 -0.4777 -0.1120
 4022TIP3    H133625   1.804   3.696   1.287 -0.5208  1.7152  1.8262
 4022TIP3    H233626   1.703   3.633   1.381  0.4859 -0.8105  1.2915
 4023TIP3   OH233627   2.115   4.844   2.577  0.6519  0.3583  0.0844
 4023TIP3    H133628   2.129   4.931   2.540 -1.4104  1.3425  1.4228
 4023TIP3    H233629   2.035   4.812   2.535  0.3117 -0.0469  1.0061
 4024TIP3   OH233630   4.998   6.280   8.326  0.4628  0.0768 -0.0981
 4024TIP3    H133631   5.072   6.289   8.267  0.7648  0.7207  0.3658
 4024TIP3    H233632   4.943   6.213   8.286  0.1714  1.1842 -1.6265
 4025TIP3   OH233633   5.785   5.259   1.230  0.2445  0.2236 -0.2946
 4025TIP3    H133634   5.769   5.181   1.177 -1.3417  0.8876 -0.8394
 4025TIP3    H233635   5.698   5.288   1.258  1.0091  0.0530  2.4904
 4026TIP3   OH233636   5.592   6.227   1.145 -0.5495  0.3327  0.5663
 4026TIP3    H133637   5.660   6.161   1.137 -1.3433 -0.4552  0.1619
 4026TIP3    H233638   5.525   6.201   1.081 -0.7201  1.7238  0.1342
 4027TIP3   OH233639   3.418   3.491   1.745 -0.0217  0.1773  0.2986
 4027TIP3    H133640   3.352   3.457   1.806  0.4753 -0.5334  0.4608
 4027TIP3    H233641   3.374   3.562   1.699 -1.0443 -0.5727  0.0862
 4028TIP3   OH233642   1.458   1.752   6.773 -0.0335 -0.2781 -0.1466
 4028TIP3    H133643   1.531   1.696   6.745 -0.6287 -0.7439 -0.7980
 4028TIP3    H233644   1.463   1.751   6.868  0.7303 -0.4156 -0.1808
 4029TIP3   OH233645   3.607   4.084   8.202 -0.0908 -0.5507  0.3551
 4029TIP3    H133646   3.643   4.132   8.127 -0.8679  0.1099  0.3917
 4029TIP3    H233647   3.513   4.079   8.184 -0.0913 -1.6068  0.6177
 4030TIP3   OH233648   4.417   4.045   0.938  0.6070  0.0235  0.6785
 4030TIP3    H133649   4.458   4.084   0.861 -1.3826 -0.0133 -0.4598
 4030TIP3    H233650   4.409   4.118   1.000 -0.6550  0.8326 -0.3955
 4031TIP3   OH233651   0.660   3.548   0.609  0.3279  0.8858  0.1710
 4031TIP3    H133652   0.715   3.588   0.543  1.2557  0.9751  0.9776
 4031TIP3    H233653   0.571   3.569   0.582  0.7539  2.8968  0.1964
 4032TIP3   OH233654   1.524   3.436   1.128 -0.3890 -0.2714 -0.0859
 4032TIP3    H133655   1.482   3.368   1.075 -0.6456  0.3299 -0.6666
 4032TIP3    H233656   1.615   3.435   1.100 -0.4640 -0.1473 -0.3367
 4033TIP3   OH233657   4.021   0.930   0.567 -0.3466  0.0809 -0.8187
 4033TIP3    H133658   4.075   1.008   0.552  2.1643 -1.1171  1.0922
 4033TIP3    H233659   4.071   0.859   0.526 -2.0025 -0.7221 -1.5211
 4034TIP3   OH233660   3.525   3.828   0.315 -0.7949 -0.4963 -0.1251
 4034TIP3    H133661   3.435   3.844   0.286 -1.0579  0.0061  0.9306
 4034TIP3    H233662   3.573   3.907   0.292 -0.7923 -0.4624 -0.0009
 4035TIP3   OH233663   0.954   2.512   8.436 -0.1386 -0.0006 -0.1430
 4035TIP3    H133664   0.991   2.582   8.383 -1.2596  1.8302  1.3748
 4035TIP3    H233665   0.859   2.520   8.424 -0.3008 -1.0275  0.3526
 4036TIP3   OH233666   5.342   6.108   1.050  0.1101 -0.3555  0.4207
 4036TIP3    H133667   5.305   6.027   1.017 -0.0161 -0.0605 -0.1838
 4036TIP3    H233668   5.304   6.118   1.137 -1.5784  0.1342 -0.3181
 4037TIP3   OH233669   0.218   5.877   7.273  0.0980 -0.0666 -0.1368
 4037TIP3    H133670   0.251   5.793   7.239  0.1547  0.1141 -0.5353
 4037TIP3    H233671   0.197   5.928   7.194  2.9511  1.4752 -0.0020
 4038TIP3   OH233672   3.458   1.919   0.130 -0.4917  0.5043  0.4796
 4038TIP3    H133673   3.502   1.836   0.110 -0.0484  1.3177 -2.4106
 4038TIP3    H233674   3.390   1.927   0.063  1.5075  3.8464 -1.4716
 4039TIP3   OH233675   3.338   3.004   8.164  0.1121 -0.3786  0.0987
 4039TIP3    H133676   3.280   3.021   8.090 -0.6540 -0.9871  0.5479
 4039TIP3    H233677   3.373   3.091   8.187  0.4624 -0.2050 -1.0396
 4040TIP3   OH233678   4.880   4.959   6.994 -0.2363 -0.4381 -0.2178
 4040TIP3    H133679   4.797   4.956   7.042 -0.3121 -3.8763 -0.3067
 4040TIP3    H233680   4.917   5.044   7.017 -2.0119 -0.3281  2.9434
 4041TIP3   OH233681   1.374   6.482   2.478  0.1307 -0.3155  0.0177
 4041TIP3    H133682   1.410   6.559   2.434  0.1477 -0.2858  0.0835
 4041TIP3    H233683   1.405   6.489   2.568 -1.3848  0.5744  0.4890
 4042TIP3   OH233684   3.282   5.175   7.930  0.1167  0.5491 -0.0210
 4042TIP3    H133685   3.371   5.154   7.957 -0.1715  1.3192  1.6730
 4042TIP3    H233686   3.245   5.091   7.902  0.8920 -0.0627  0.7180
 4043TIP3   OH233687   6.540   1.207   0.829  0.0756  0.4595 -0.0217
 4043TIP3    H133688   6.522   1.288   0.876 -0.2296  0.2302  0.2616
 4043TIP3    H233689   6.546   1.141   0.898  0.5712  0.2836 -0.2296
 4044TIP3   OH233690   0.995   0.170   0.766 -0.6024  0.1737  0.6121
 4044TIP3    H133691   0.975   0.163   0.859  1.3752  0.2457  1.0835
 4044TIP3    H233692   0.990   0.080   0.733 -1.2808  0.1463  0.7791
 4045TIP3   OH233693   4.653   2.788   1.201  0.1549  0.5776  0.4301
 4045TIP3    H133694   4.582   2.724   1.211  0.6779  0.1615  1.6742
 4045TIP3    H233695   4.653   2.837   1.282  2.7387 -0.9799  1.5089
 4046TIP3   OH233696   5.097   4.321   6.785  0.0797 -0.1089 -0.0869
 4046TIP3    H133697   5.005   4.298   6.796  0.7776 -2.8607  0.8002
 4046TIP3    H233698   5.120   4.287   6.698  0.3387  0.3229 -0.1921
 4047TIP3   OH233699   0.769   4.312   0.022  0.0599  0.6916  0.3007
 4047TIP3    H133700   0.740   4.352  -0.059  0.3688 -0.5824 -0.4593
 4047TIP3    H233701   0.693   4.265   0.055  0.1782  0.4943  0.2945
 4048TIP3   OH233702   0.506   5.860   1.131  0.0695 -0.0914 -0.6225
 4048TIP3    H133703   0.450   5.922   1.085 -1.9860 -1.7534 -0.5027
 4048TIP3    H233704   0.503   5.888   1.223 -1.2651 -0.6399 -0.4863
 4049TIP3   OH233705   1.866   2.598   7.303  0.6493  0.2440  0.2156
 4049TIP3    H133706   1.819   2.618   7.383 -3.4321 -3.0814 -0.9544
 4049TIP3    H233707   1.866   2.502   7.299  4.3580  0.1316 -1.9030
 4050TIP3   OH233708   0.643   5.169   8.211  0.2635 -0.2856 -0.5013
 4050TIP3    H133709   0.636   5.185   8.117 -0.2994  0.4931 -0.3352
 4050TIP3    H233710   0.737   5.155   8.226  0.4770  0.5192 -1.0365
 4051TIP3   OH233711   1.494   1.554   8.493  0.3536 -0.5700  0.0025
 4051TIP3    H133712   1.451   1.635   8.519  1.0195 -0.4841  0.8979
 4051TIP3    H233713   1.465   1.490   8.557 -0.3915 -1.1186 -0.8703
 4052TIP3   OH233714   4.684   0.143   0.928  0.1835  0.1156  0.4315
 4052TIP3    H133715   4.624   0.096   0.985  0.1374  1.1030  1.2196
 4052TIP3    H233716   4.668   0.236   0.947  1.5645  0.4148  0.2571
 4053TIP3   OH233717   2.665   1.852   1.233  0.2042 -0.6587 -0.4688
 4053TIP3    H133718   2.687   1.827   1.323 -0.2014  1.2270  0.1992
 4053TIP3    H233719   2.571   1.871   1.237 -0.3899 -2.8951 -1.8983
 4054TIP3   OH233720   5.707   4.241   0.289 -0.8910 -0.4839  0.1913
 4054TIP3    H133721   5.703   4.221   0.383  0.2891 -2.6613 -0.1539
 4054TIP3    H233722   5.661   4.168   0.247  0.2310 -0.5289 -1.0097
 4055TIP3   OH233723   5.945   3.800   8.256  0.0776 -0.1574  0.4091
 4055TIP3    H133724   5.912   3.734   8.195 -1.7633 -0.1961  1.3832
 4055TIP3    H233725   5.896   3.879   8.235  2.2931  0.9992 -0.7751
 4056TIP3   OH233726   0.134   2.069   8.267  0.3982 -0.0732 -0.0447
 4056TIP3    H133727   0.206   2.028   8.316 -0.7196  0.5694  2.2885
 4056TIP3    H233728   0.056   2.023   8.295 -0.2702  0.0399 -1.6228
 4057TIP3   OH233729   2.926   4.625   1.297 -0.2854 -0.0653 -0.0411
 4057TIP3    H133730   2.967   4.676   1.367  1.2752 -0.5252 -0.5757
 4057TIP3    H233731   2.970   4.655   1.217 -0.4096 -1.1708 -0.5396
 4058TIP3   OH233732   5.751   1.224   1.067  0.5538 -0.6923 -0.1145
 4058TIP3    H133733   5.813   1.188   1.130  1.7565 -1.2776 -1.5873
 4058TIP3    H233734   5.804   1.246   0.991 -0.6409  1.3649 -0.4098
 4059TIP3   OH233735   6.631   3.930   6.519  0.3838 -0.2881  0.0182
 4059TIP3    H133736   6.629   3.975   6.435 -0.4081 -0.3496 -0.0040
 4059TIP3    H233737   6.642   3.837   6.497  2.1648 -0.1183  0.0685
 4060TIP3   OH233738   4.174   2.113   7.491 -0.5080  0.2661  0.2368
 4060TIP3    H133739   4.121   2.090   7.568 -0.0356 -0.1811  0.4436
 4060TIP3    H233740   4.264   2.111   7.524 -0.3392  0.5937 -0.2067
 4061TIP3   OH233741   1.862   1.752   6.358  0.3769  0.1356  0.2596
 4061TIP3    H133742   1.911   1.698   6.421 -1.9992  0.7822  2.9052
 4061TIP3    H233743   1.911   1.834   6.353  0.0082  0.5561  2.3963
 4062TIP3   OH233744   6.899   1.500   8.159 -0.2597  0.0465  0.2326
 4062TIP3    H133745   6.989   1.535   8.156  0.1762 -1.0613 -0.7083
 4062TIP3    H233746   6.871   1.513   8.249  0.6643  0.8693  0.4233
 4063TIP3   OH233747   0.514   4.924   1.413  0.2428 -0.3414 -0.5416
 4063TIP3    H133748   0.565   5.001   1.438 -0.2080 -0.4460  0.7851
 4063TIP3    H233749   0.547   4.855   1.470  0.7891 -1.2095 -1.8648
 4064TIP3   OH233750   3.289   3.732   8.497  0.3516 -0.4225 -0.2002
 4064TIP3    H133751   3.256   3.822   8.507  0.6623 -0.4169  0.8772
 4064TIP3    H233752   3.365   3.728   8.555  2.4535 -0.3763 -2.7529
 4065TIP3   OH233753   0.113   3.401   2.649 -0.4760  0.3923  0.4993
 4065TIP3    H133754   0.105   3.342   2.574  0.3902  1.8387 -0.7907
 4065TIP3    H233755   0.160   3.349   2.715 -1.4967 -0.9923  0.1773
 4066TIP3   OH233756   1.465   2.152   1.789  0.1611 -0.4052 -1.1204
 4066TIP3    H133757   1.456   2.246   1.802 -1.5838 -0.5376 -1.1667
 4066TIP3    H233758   1.559   2.136   1.795  0.3721  1.1181  0.3147
 4067TIP3   OH233759   6.541   3.202   8.131 -0.1261  0.2506 -0.1198
 4067TIP3    H133760   6.604   3.269   8.102 -0.4094  0.6777  0.2475
 4067TIP3    H233761   6.457   3.246   8.128 -0.5008 -0.4939 -1.1879
 4068TIP3   OH233762   2.372   0.071   2.315 -0.0010  0.1527 -0.6466
 4068TIP3    H133763   2.427   0.054   2.391  1.9376  1.5280 -1.6391
 4068TIP3    H233764   2.283   0.062   2.347  0.7603 -0.2064  1.5564
 4069TIP3   OH233765   1.015   5.581   2.291  0.1019 -0.3737  0.0099
 4069TIP3    H133766   1.002   5.669   2.325 -1.8216 -1.2113  1.6700
 4069TIP3    H233767   1.097   5.586   2.242 -0.1331  2.4008 -0.2649
 4070TIP3   OH233768   4.304   0.823   8.127 -0.6488 -0.2374 -0.2878
 4070TIP3    H133769   4.273   0.895   8.072  0.2135  0.3938  0.0375
 4070TIP3    H233770   4.249   0.749   8.102 -3.4726  1.1589  1.2784
 4071TIP3   OH233771   0.123   2.333   6.123 -0.1251  0.5761  0.3570
 4071TIP3    H133772   0.174   2.404   6.162 -1.9620  1.0749  1.9810
 4071TIP3    H233773   0.144   2.337   6.029  1.3449  1.9270  0.6959
 4072TIP3   OH233774   3.053   3.954   8.159  0.4363 -0.6239  0.4505
 4072TIP3    H133775   2.988   3.883   8.156 -0.1826 -0.1442  1.6563
 4072TIP3    H233776   3.027   4.014   8.090  0.0634 -0.8373  0.4030
 4073TIP3   OH233777   1.023   2.225   7.313  0.4037  0.1783  0.0225
 4073TIP3    H133778   1.080   2.173   7.256  0.0703 -0.1195 -0.0462
 4073TIP3    H233779   0.957   2.261   7.253 -0.6475 -1.0848  0.3567
 4074TIP3   OH233780   3.466   4.034   1.407 -0.3373  0.1060 -0.0045
 4074TIP3    H133781   3.384   4.029   1.358  0.3521 -1.5096 -1.0752
 4074TIP3    H233782   3.491   4.126   1.403 -1.4587  0.3981 -0.7407
 4075TIP3   OH233783   3.516   4.336   1.390  0.5497 -0.2775 -0.5117
 4075TIP3    H133784   3.567   4.409   1.355 -0.8863  0.3516 -1.4117
 4075TIP3    H233785   3.433   4.376   1.417  0.5003 -1.2526  0.9112
 4076TIP3   OH233786   3.944   2.426   1.023 -0.0798  0.6994 -0.1282
 4076TIP3    H133787   3.986   2.349   0.984 -1.5984 -0.8447  1.1332
 4076TIP3    H233788   3.914   2.477   0.948 -1.3572 -1.2845 -1.0524
 4077TIP3   OH233789   4.683   1.717   8.457  0.1771 -0.2265 -0.3011
 4077TIP3    H133790   4.703   1.630   8.493  1.6616  0.5669  0.9251
 4077TIP3    H233791   4.756   1.736   8.398 -1.1041 -0.5560 -2.0808
 4078TIP3   OH233792   4.520   5.374   0.856 -0.3507  0.2311  0.7362
 4078TIP3    H133793   4.451   5.346   0.795 -0.8638  0.4842  1.1845
 4078TIP3    H233794   4.475   5.382   0.940  0.2692  0.2500  1.0683
 4079TIP3   OH233795   1.005   4.600   8.477  0.7727 -0.3482  0.2414
 4079TIP3    H133796   0.942   4.567   8.542 -1.7184  1.1564 -1.2355
 4079TIP3    H233797   1.061   4.525   8.458 -0.0217 -1.5402  2.2628
 4080TIP3   OH233798   2.445   0.574   8.370 -0.1212 -0.1536  0.0168
 4080TIP3    H133799   2.475   0.528   8.292 -0.2206  0.2396 -0.2546
 4080TIP3    H233800   2.399   0.651   8.337 -0.0563  0.0829  0.4634
 4081TIP3   OH233801   6.042   1.895   1.797 -0.6626 -0.3360 -0.0872
 4081TIP3    H133802   5.966   1.859   1.752 -1.5732 -0.8170  1.7673
 4081TIP3    H233803   6.020   1.892   1.889  0.7766  1.4788  0.3818
 4082TIP3   OH233804   6.593   0.950   7.998 -0.2492  0.2395  0.1710
 4082TIP3    H133805   6.651   1.026   8.009  0.8622 -0.4945 -0.3907
 4082TIP3    H233806   6.526   0.980   7.936 -0.1690  0.9330  0.4047
 4083TIP3   OH233807   1.221   2.041   0.999 -0.4776  0.1055 -0.0196
 4083TIP3    H133808   1.229   1.959   0.949  1.2323  0.3069 -0.1369
 4083TIP3    H233809   1.283   2.032   1.071 -0.2853  1.2774 -0.0147
 4084TIP3   OH233810   3.797   5.047   8.417  0.3632  0.3026  0.0973
 4084TIP3    H133811   3.834   5.109   8.354  3.2754 -0.1477  1.1652
 4084TIP3    H233812   3.787   5.097   8.498 -0.8825  0.2531 -0.0083
 4085TIP3   OH233813   1.302   3.265   0.971 -0.1969 -0.2382  0.5272
 4085TIP3    H133814   1.270   3.243   1.058 -0.6051  2.4640  1.1433
 4085TIP3    H233815   1.286   3.187   0.919  1.0969 -2.3868  3.0792
 4086TIP3   OH233816   3.843   4.175   2.267  0.0484  0.3795  0.0512
 4086TIP3    H133817   3.771   4.160   2.329 -0.3065  1.0766 -0.1796
 4086TIP3    H233818   3.842   4.269   2.252 -0.2168  0.1724 -1.4217
 4087TIP3   OH233819   6.711   3.102   1.287 -0.2878 -0.2053  0.5545
 4087TIP3    H133820   6.791   3.128   1.242 -2.0121  1.1537 -1.9768
 4087TIP3    H233821   6.688   3.179   1.341 -0.7886  0.1064 -0.0946
 4088TIP3   OH233822   1.648   5.238   7.117 -0.4594  0.1872 -0.5484
 4088TIP3    H133823   1.643   5.153   7.074 -1.8773 -0.2898  0.4869
 4088TIP3    H233824   1.630   5.301   7.047 -0.7443 -0.4510 -1.0664
 4089TIP3   OH233825   1.655   5.658   7.990 -0.2237 -0.0478  0.3925
 4089TIP3    H133826   1.727   5.601   8.017 -0.5928 -2.2196 -2.6901
 4089TIP3    H233827   1.664   5.664   7.895 -2.7818  1.5433  0.1669
 4090TIP3   OH233828   0.752   6.429   0.426 -0.0855  0.2681  0.2818
 4090TIP3    H133829   0.729   6.520   0.406  3.2795  0.9817 -1.1923
 4090TIP3    H233830   0.680   6.377   0.392 -2.6930  2.3581  2.2163
 4091TIP3   OH233831   1.702   4.928   0.703  0.9222 -0.1392  0.1346
 4091TIP3    H133832   1.787   4.919   0.744  1.0190 -0.5801 -0.1514
 4091TIP3    H233833   1.712   5.000   0.642  1.1123 -0.2387  0.0483
 4092TIP3   OH233834   2.948   3.925   0.821 -0.3554  0.3660 -0.8959
 4092TIP3    H133835   2.907   4.005   0.854 -0.4522 -0.7153  1.9032
 4092TIP3    H233836   2.889   3.855   0.849  1.1670 -0.8895 -0.7177
 4093TIP3   OH233837   0.783   6.376   1.026 -0.0961  0.1459 -0.8037
 4093TIP3    H133838   0.805   6.298   1.078  1.0516  0.9448 -0.0360
 4093TIP3    H233839   0.738   6.434   1.088 -0.5153  0.2969 -1.2458
 4094TIP3   OH233840   2.862   2.573   0.562 -0.8301  0.4439  0.1015
 4094TIP3    H133841   2.814   2.606   0.638  0.7094 -0.7273  1.6669
 4094TIP3    H233842   2.813   2.495   0.535 -0.0326 -0.5847  1.5102
 4095TIP3   OH233843   1.335   0.510   7.254 -0.2114  0.2517  0.2725
 4095TIP3    H133844   1.301   0.600   7.255 -2.0001 -0.3920  1.0869
 4095TIP3    H233845   1.365   0.496   7.344  0.8874  0.2943 -0.0680
 4096TIP3   OH233846   5.087   2.258   0.647  0.0044 -0.1222  0.2521
 4096TIP3    H133847   4.993   2.268   0.660 -0.1286 -1.4156  0.3366
 4096TIP3    H233848   5.126   2.284   0.730 -0.3810 -1.1201  0.7501
 4097TIP3   OH233849   3.073   0.410   8.542 -0.7013  0.2736  0.7059
 4097TIP3    H133850   3.076   0.327   8.495  1.7148  0.3779  0.5669
 4097TIP3    H233851   3.149   0.459   8.511 -1.4051  2.0814  1.6470
 4098TIP3   OH233852   6.355   3.474   8.140 -0.2234 -0.3465 -0.2141
 4098TIP3    H133853   6.321   3.400   8.089 -0.4526 -2.3207  2.6150
 4098TIP3    H233854   6.323   3.552   8.093 -1.9928 -2.0322 -2.0028
 4099TIP3   OH233855   1.088   1.316   0.725  0.0158  0.3565 -0.0394
 4099TIP3    H133856   1.113   1.399   0.684 -0.4809  1.2131  1.3040
 4099TIP3    H233857   0.995   1.326   0.745  0.1146 -0.2190  0.7930
 4100TIP3   OH233858   3.650   3.775   7.636 -1.0027  0.2540  0.4801
 4100TIP3    H133859   3.665   3.839   7.566 -0.7676 -0.6143 -0.2700
 4100TIP3    H233860   3.718   3.709   7.623  0.8710  1.4687  3.2320
 4101TIP3   OH233861   2.495   3.159   6.944  0.5447  0.5306  0.4731
 4101TIP3    H133862   2.533   3.245   6.962 -1.2343  1.1064  1.6674
 4101TIP3    H233863   2.459   3.167   6.856  0.6463  0.8974  0.4627
 4102TIP3   OH233864   6.136   2.165   1.574  0.2430  0.2552  0.1607
 4102TIP3    H133865   6.119   2.243   1.627 -0.0236  1.4608 -1.6099
 4102TIP3    H233866   6.137   2.093   1.637  0.9337  1.7239  1.9183
 4103TIP3   OH233867   3.825   6.700   2.456 -0.0082 -0.3934 -0.3890
 4103TIP3    H133868   3.739   6.661   2.470 -0.0683 -0.0722  0.1499
 4103TIP3    H233869   3.817   6.746   2.372 -1.0373  1.4666  0.6817
 4104TIP3   OH233870   2.988   5.980   6.386  0.0350 -0.0075  0.1166
 4104TIP3    H133871   3.081   5.962   6.377  0.0963  0.2799  0.1703
 4104TIP3    H233872   2.956   5.912   6.446 -0.2561 -1.5420 -1.6774
 4105TIP3   OH233873   4.970   4.108   8.500  0.0203 -0.5954 -0.1591
 4105TIP3    H133874   4.926   4.105   8.585 -0.6829 -0.1845 -0.5016
 4105TIP3    H233875   5.018   4.191   8.500  0.0663 -0.6221 -0.1414
 4106TIP3   OH233876   2.023   0.305   1.740  0.1619  0.0567  1.2789
 4106TIP3    H133877   2.024   0.401   1.749  0.5023  0.5672 -2.4420
 4106TIP3    H233878   1.937   0.286   1.703  0.4898 -0.9042  0.9873
 4107TIP3   OH233879   1.717   2.264   0.265 -0.2021  0.1804  0.7234
 4107TIP3    H133880   1.785   2.271   0.333  0.4989 -1.1435  0.1901
 4107TIP3    H233881   1.718   2.350   0.222 -0.5204  0.9706  2.2370
 4108TIP3   OH233882   5.780   1.943   6.474  0.1907 -0.6429 -0.2567
 4108TIP3    H133883   5.867   1.936   6.512  0.3030 -0.3386 -0.4638
 4108TIP3    H233884   5.752   2.032   6.492  0.3696 -0.4005 -1.1603
 4109TIP3   OH233885   4.416   6.096   6.764  0.2626 -0.6855  0.4314
 4109TIP3    H133886   4.477   6.081   6.692 -1.7557  0.7245 -1.6977
 4109TIP3    H233887   4.426   6.189   6.785 -2.0740 -0.0258 -0.9903
 4110TIP3   OH233888   4.581   1.455   7.211 -0.2872 -0.0087  0.6347
 4110TIP3    H133889   4.599   1.366   7.240 -0.1952 -0.2320 -0.0886
 4110TIP3    H233890   4.657   1.479   7.158 -0.7662  0.1331 -0.0006
 4111TIP3   OH233891   6.081   0.533   0.003 -0.4223  0.1016 -0.1470
 4111TIP3    H133892   6.001   0.502  -0.039 -0.3279  3.0477 -2.8624
 4111TIP3    H233893   6.052   0.571   0.086 -1.4354 -1.0178  0.0413
 4112TIP3   OH233894   6.358   5.296   1.526 -0.5108  0.6163  0.3737
 4112TIP3    H133895   6.293   5.242   1.482 -0.5175 -0.9554  2.2043
 4112TIP3    H233896   6.425   5.312   1.460 -0.4441 -1.7476 -0.1910
 4113TIP3   OH233897   0.214   4.474   8.073  0.3008 -0.4706 -0.0114
 4113TIP3    H133898   0.184   4.560   8.043  0.8494 -0.6975 -1.2848
 4113TIP3    H233899   0.236   4.427   7.992 -0.7281 -2.0912  0.6148
 4114TIP3   OH233900   3.388   4.752   6.668 -0.0089 -0.2519 -0.0920
 4114TIP3    H133901   3.466   4.806   6.656 -0.0258 -0.0869  0.4873
 4114TIP3    H233902   3.355   4.737   6.580 -1.0807  2.2658 -0.1850
 4115TIP3   OH233903   3.473   4.323   2.296  0.2127  0.0514 -0.0023
 4115TIP3    H133904   3.398   4.324   2.356  0.3526  3.7964  0.3278
 4115TIP3    H233905   3.545   4.289   2.349 -0.4293  0.0231  0.8717
 4116TIP3   OH233906   0.080   2.668   1.529  0.3167 -0.1881 -0.1333
 4116TIP3    H133907   0.045   2.610   1.461  0.5144  0.7605 -1.0604
 4116TIP3    H233908   0.003   2.708   1.569  0.2164 -0.4811 -0.0301
 4117TIP3   OH233909   4.020   6.684   0.128  0.0065 -0.8240 -0.1044
 4117TIP3    H133910   4.098   6.658   0.177 -0.1245 -0.5351  0.2607
 4117TIP3    H233911   3.947   6.669   0.188 -0.0493  0.6551  0.2362
 4118TIP3   OH233912   2.915   4.068   6.128 -0.2213 -0.0083  0.0553
 4118TIP3    H133913   2.969   4.112   6.193  0.7526  0.0154 -0.7456
 4118TIP3    H233914   2.876   3.995   6.175  0.6065 -0.0975  0.6278
 4119TIP3   OH233915   4.327   6.449   8.385 -0.1257  0.0935  0.4500
 4119TIP3    H133916   4.274   6.525   8.410 -0.6733 -0.9596  2.7345
 4119TIP3    H233917   4.351   6.408   8.468  1.1543 -1.5750 -0.6796
 4120TIP3   OH233918   0.331   4.143   1.699 -0.0046 -0.1945 -0.3158
 4120TIP3    H133919   0.237   4.126   1.691 -0.7242  3.5488 -1.6797
 4120TIP3    H233920   0.365   4.134   1.610  0.2835  1.3524 -0.3860
 4121TIP3   OH233921   5.444   5.003   0.582  0.1799 -0.4807 -0.3146
 4121TIP3    H133922   5.392   4.977   0.658 -2.0497 -2.7704 -2.4176
 4121TIP3    H233923   5.535   4.992   0.610 -0.4516  0.8122  2.6118
 4122TIP3   OH233924   0.681   5.171   1.124 -0.7749  0.1736  0.0835
 4122TIP3    H133925   0.728   5.184   1.042  0.8310  1.1124  1.1101
 4122TIP3    H233926   0.591   5.151   1.097 -0.1700 -0.0669 -1.8943
 4123TIP3   OH233927   5.375   4.319   7.058  0.4141  0.6933  0.1357
 4123TIP3    H133928   5.401   4.337   6.968  0.9465 -1.0004 -0.0855
 4123TIP3    H233929   5.431   4.375   7.112  0.5305  1.2498 -0.5488
 4124TIP3   OH233930   3.928   6.537   8.308 -0.5142 -0.3976 -0.1976
 4124TIP3    H133931   3.867   6.514   8.379  1.5565 -1.5244  1.3375
 4124TIP3    H233932   3.989   6.598   8.348  0.6672 -1.0027 -1.0295
 4125TIP3   OH233933   2.076   0.328   1.199 -0.3152 -0.0558  0.3784
 4125TIP3    H133934   2.009   0.265   1.226  0.7867 -0.3990  2.5782
 4125TIP3    H233935   2.070   0.399   1.263 -0.1637  1.0629 -0.8328
 4126TIP3   OH233936   4.731   3.307   7.958  0.9013 -0.1875  0.5506
 4126TIP3    H133937   4.660   3.257   7.997  0.9537 -0.1031  0.7568
 4126TIP3    H233938   4.711   3.309   7.864  1.2788 -1.2137  0.4330
 4127TIP3   OH233939   5.014   5.908   7.201 -0.2284  0.1285  0.2450
 4127TIP3    H133940   4.985   5.831   7.152 -1.4082  0.1251  0.9047
 4127TIP3    H233941   5.050   5.967   7.135 -1.7056  0.0950 -0.6235
 4128TIP3   OH233942   3.314   5.624   8.055 -1.0498 -0.7875 -0.2316
 4128TIP3    H133943   3.349   5.615   8.143  0.0514  0.4490 -0.4998
 4128TIP3    H233944   3.389   5.653   8.002 -2.3257  1.6199 -0.9099
 4129TIP3   OH233945   1.832   4.671   1.747 -0.7274 -0.6238 -0.1726
 4129TIP3    H133946   1.871   4.738   1.803  1.7808  0.6319 -3.1097
 4129TIP3    H233947   1.770   4.719   1.692 -1.6354 -1.4552  0.0916
 4130TIP3   OH233948   4.210   2.827   8.134 -0.8890 -0.4259  0.3124
 4130TIP3    H133949   4.221   2.735   8.157 -3.3621 -0.7793  0.4050
 4130TIP3    H233950   4.183   2.870   8.215 -1.0804  0.1030 -0.0223
 4131TIP3   OH233951   3.740   5.098   0.147 -0.3269  0.1426 -0.3410
 4131TIP3    H133952   3.701   5.020   0.186 -0.2492 -0.1399 -0.8157
 4131TIP3    H233953   3.680   5.169   0.169 -0.0600  0.0723  0.6626
 4132TIP3   OH233954   6.898   1.341   1.191 -0.2502 -0.6671  0.0758
 4132TIP3    H133955   6.964   1.405   1.164  0.3331 -0.8226  1.0650
 4132TIP3    H233956   6.823   1.393   1.217 -0.2917 -0.4579 -0.4354
 4133TIP3   OH233957   6.888   3.467   0.289 -0.0544 -0.0586  0.5704
 4133TIP3    H133958   6.880   3.422   0.373  1.6195 -2.8867 -0.6373
 4133TIP3    H233959   6.967   3.432   0.250 -0.6669  1.2855 -2.1399
 4134TIP3   OH233960   0.052   3.859   6.423  0.4777 -0.7280 -0.0092
 4134TIP3    H133961   0.007   3.775   6.422  0.8778 -0.9437 -0.1763
 4134TIP3    H233962   0.084   3.869   6.333 -0.7549  0.2516 -0.3706
 4135TIP3   OH233963   4.836   4.320   1.989 -0.0338  0.5517 -0.3804
 4135TIP3    H133964   4.770   4.320   2.058 -0.1038  0.5924 -0.4469
 4135TIP3    H233965   4.904   4.261   2.021 -0.8917 -0.8753 -1.0674
 4136TIP3   OH233966   6.262   5.708   7.497 -0.1080  0.4779  0.7486
 4136TIP3    H133967   6.288   5.671   7.582  0.3472  0.8940  0.7931
 4136TIP3    H233968   6.174   5.673   7.482 -0.4303  0.8711  1.6670
 4137TIP3   OH233969   4.678   3.705   0.139  0.5965  0.2779 -0.0772
 4137TIP3    H133970   4.678   3.615   0.170  0.0500  0.4806  0.5407
 4137TIP3    H233971   4.622   3.703   0.061  0.4092  0.1199  0.0593
 4138TIP3   OH233972   5.430   1.674   1.536  0.3927  0.4349  0.1022
 4138TIP3    H133973   5.493   1.677   1.609  0.9491  0.0545 -0.3592
 4138TIP3    H233974   5.366   1.607   1.563  1.0189 -0.2533 -0.0904
 4139TIP3   OH233975   6.547   0.095   0.513 -0.3966 -0.1734  0.5701
 4139TIP3    H133976   6.458   0.066   0.533 -0.1139 -0.7263  1.0527
 4139TIP3    H233977   6.601   0.016   0.521  0.1724  0.2057  0.5408
 4140TIP3   OH233978   2.799   2.167   1.710  0.1128  0.1435 -0.2565
 4140TIP3    H133979   2.768   2.093   1.762  2.3929 -1.5430 -1.1762
 4140TIP3    H233980   2.737   2.237   1.731 -2.3197 -2.0318  0.4670
 4141TIP3   OH233981   2.211   1.184   8.394 -0.2468 -0.1215  0.2919
 4141TIP3    H133982   2.259   1.235   8.459  1.4372 -0.2575 -0.8001
 4141TIP3    H233983   2.167   1.249   8.340  0.4905  0.1055 -0.0402
 4142TIP3   OH233984   3.593   6.051   8.321  0.4204  0.2964 -0.2725
 4142TIP3    H133985   3.659   5.982   8.335 -0.3941 -0.1295  1.7366
 4142TIP3    H233986   3.510   6.009   8.342 -0.1550  1.7447  0.4502
 4143TIP3   OH233987   6.845   3.897   2.083 -0.0566 -0.5454 -0.0148
 4143TIP3    H133988   6.881   3.809   2.088  0.6617 -0.3501 -1.1676
 4143TIP3    H233989   6.914   3.953   2.120 -0.4669 -0.4549  0.6206
 4144TIP3   OH233990   5.271   0.366   1.009  0.4793  0.1641  0.3729
 4144TIP3    H133991   5.197   0.334   0.957 -0.4066 -0.3646  1.8936
 4144TIP3    H233992   5.342   0.305   0.990  0.3264  0.2613 -0.5705
 4145TIP3   OH233993   5.559   5.278   0.575 -0.3757  0.0647  0.4068
 4145TIP3    H133994   5.592   5.314   0.656 -1.8157  0.2064  0.9662
 4145TIP3    H233995   5.500   5.207   0.602 -0.9944  0.2131 -0.4828
 4146TIP3   OH233996   4.257   3.084   8.046  0.2512  0.2360  0.5173
 4146TIP3    H133997   4.267   3.086   8.141 -0.8299  0.2405  0.6539
 4146TIP3    H233998   4.233   2.993   8.026  0.6706  0.1874  0.2249
 4147TIP3   OH233999   6.776   2.574   0.823  0.6380 -0.0772 -0.2244
 4147TIP3    H134000   6.781   2.542   0.733 -1.4947  0.7416 -0.7018
 4147TIP3    H234001   6.856   2.626   0.835  2.3610 -2.4492 -0.6249
 4148TIP3   OH234002   4.195   6.588   0.932 -0.0892 -0.1926 -0.1590
 4148TIP3    H134003   4.165   6.674   0.904  2.0747  0.3665 -1.0446
 4148TIP3    H234004   4.151   6.572   1.015  0.2645  2.2671  0.5746
 4149TIP3   OH234005   6.049   1.464   1.293 -0.4912  0.4474 -0.0056
 4149TIP3    H134006   5.996   1.459   1.214  0.2299 -1.2840 -0.4139
 4149TIP3    H234007   6.106   1.388   1.289  1.7497  2.0052  0.6486
 4150TIP3   OH234008   1.604   5.042   8.161 -0.9538  0.0573  0.0484
 4150TIP3    H134009   1.654   4.986   8.101 -1.6038 -0.7740  0.2597
 4150TIP3    H234010   1.638   5.130   8.146 -1.9519  0.1026 -2.4923
 4151TIP3   OH234011   4.600   4.137   7.499 -0.2745  0.4804  0.0179
 4151TIP3    H134012   4.684   4.160   7.458  0.3509 -0.1759  0.8854
 4151TIP3    H234013   4.543   4.212   7.480  0.4400  0.8484 -0.7640
 4152TIP3   OH234014   0.992   6.511   0.304  0.5782 -0.4379  0.2578
 4152TIP3    H134015   1.018   6.460   0.227 -1.5960 -0.1712 -0.7216
 4152TIP3    H234016   0.930   6.455   0.350 -1.1238  0.8795 -0.3268
 4153TIP3   OH234017   5.587   3.286   8.438 -0.2718  0.1963  0.1684
 4153TIP3    H134018   5.583   3.214   8.375 -1.8580  1.6780 -1.5929
 4153TIP3    H234019   5.632   3.356   8.391 -1.5212  1.3571  0.6248
 4154TIP3   OH234020   5.942   3.207   6.961  0.0866 -0.2907 -0.1225
 4154TIP3    H134021   5.931   3.112   6.960  0.6159 -0.3656  0.4067
 4154TIP3    H234022   6.006   3.223   7.031  0.0236  0.4514 -0.2244
 4155TIP3   OH234023   0.885   1.830   2.279  0.4778 -0.2977  0.9141
 4155TIP3    H134024   0.808   1.885   2.291  2.4872  3.3045 -0.6964
 4155TIP3    H234025   0.860   1.768   2.210 -0.8502  1.1878 -0.0166
 4156TIP3   OH234026   3.269   6.119   8.368  0.4598  0.3633 -0.3832
 4156TIP3    H134027   3.175   6.102   8.368  0.5980 -0.4670 -0.1251
 4156TIP3    H234028   3.302   6.071   8.292  0.8001 -0.1604  0.0838
 4157TIP3   OH234029   0.490   3.442   0.275  0.2080  0.2694 -0.1082
 4157TIP3    H134030   0.412   3.441   0.219  0.6068 -1.2007 -0.6631
 4157TIP3    H234031   0.548   3.505   0.234 -0.0818  0.2556 -0.5476
 4158TIP3   OH234032   5.146   1.518   2.538  0.1615  0.3318 -0.1579
 4158TIP3    H134033   5.214   1.503   2.473  0.2602  1.1269 -0.2573
 4158TIP3    H234034   5.104   1.433   2.551  0.0631  0.1887 -1.3506
 4159TIP3   OH234035   3.748   1.239   0.217  0.5661 -0.4725 -0.6471
 4159TIP3    H134036   3.807   1.185   0.163  2.6928  0.8800  0.1872
 4159TIP3    H234037   3.771   1.329   0.195  0.0861  0.1050  1.0455
 4160TIP3   OH234038   2.474   5.240   7.486 -0.2920 -0.2357 -0.0680
 4160TIP3    H134039   2.555   5.192   7.502  0.1200  0.4042 -0.2338
 4160TIP3    H234040   2.411   5.172   7.461 -0.9550 -1.3528  3.9342
 4161TIP3   OH234041   1.296   2.776   6.450 -0.1199  0.0103 -0.2593
 4161TIP3    H134042   1.261   2.823   6.526  0.8579 -1.3421  1.0801
 4161TIP3    H234043   1.343   2.844   6.401 -1.6421  1.1243 -0.2590
 4162TIP3   OH234044   5.733   6.874   0.131 -0.0087  0.0026  0.0835
 4162TIP3    H134045   5.695   6.810   0.191 -0.5095 -0.8916 -1.1521
 4162TIP3    H234046   5.803   6.916   0.182  0.7992 -2.0105  0.7114
 4163TIP3   OH234047   4.450   3.139   1.220  0.5179 -0.4685  0.4968
 4163TIP3    H134048   4.453   3.179   1.307 -0.4759 -0.3441  0.4876
 4163TIP3    H234049   4.529   3.171   1.176 -1.0390  2.9663 -0.1160
 4164TIP3   OH234050   1.533   3.707   1.407  0.0025  0.0446  0.2186
 4164TIP3    H134051   1.494   3.726   1.321 -2.1718 -1.8798  0.6608
 4164TIP3    H234052   1.463   3.662   1.455  1.8344 -0.7705  2.2854
 4165TIP3   OH234053   1.655   1.425   7.283  0.1960  0.3617  0.0785
 4165TIP3    H134054   1.729   1.485   7.288  2.8439 -2.6520  1.0455
 4165TIP3    H234055   1.653   1.396   7.192 -1.9442  2.7066 -0.7243
 4166TIP3   OH234056   3.843   4.807   7.448  0.2028  0.2174 -0.0787
 4166TIP3    H134057   3.881   4.886   7.409  1.5626 -0.2564  0.2242
 4166TIP3    H234058   3.897   4.736   7.415  0.1805 -0.3918  1.1334
 4167TIP3   OH234059   6.384   1.833   1.928  0.1619  0.1392 -0.1333
 4167TIP3    H134060   6.345   1.792   1.851  0.6571  1.2091 -0.9803
 4167TIP3    H234061   6.375   1.927   1.913  1.9442  0.4005  0.1973
 4168TIP3   OH234062   3.799   3.003   6.711 -0.3979 -0.2202 -0.0196
 4168TIP3    H134063   3.731   2.957   6.662  0.0714  0.1384 -1.0276
 4168TIP3    H234064   3.783   3.095   6.693  0.1846 -0.1206 -0.0287
 4169TIP3   OH234065   4.087   3.927   6.857 -0.1672 -0.7107  0.8722
 4169TIP3    H134066   4.017   3.863   6.849 -0.3362 -0.4456  0.2022
 4169TIP3    H234067   4.064   3.997   6.795  1.4945 -1.3791 -0.5699
 4170TIP3   OH234068   4.461   3.330   1.436  0.6445  0.0032 -0.2165
 4170TIP3    H134069   4.421   3.355   1.519 -0.7680  0.1871 -0.9186
 4170TIP3    H234070   4.431   3.395   1.374  1.9251  0.0413 -0.8391
 4171TIP3   OH234071   4.326   4.811   7.592 -0.1435 -0.6493  0.1364
 4171TIP3    H134072   4.246   4.859   7.572 -0.4852 -0.9755  0.6841
 4171TIP3    H234073   4.397   4.873   7.574 -0.5158 -0.3413 -0.2992
 4172TIP3   OH234074   3.169   5.136   0.486  0.4597 -0.2040 -0.8090
 4172TIP3    H134075   3.176   5.045   0.457 -2.7289 -0.2993 -1.7307
 4172TIP3    H234076   3.184   5.188   0.408  2.8236  0.1571 -0.1698
 4173TIP3   OH234077   0.301   1.047   1.838  0.1468  0.5132  0.1889
 4173TIP3    H134078   0.221   1.095   1.863  0.3445 -0.3048  2.6220
 4173TIP3    H234079   0.273   0.956   1.830  0.6857  0.3465  0.1516
 4174TIP3   OH234080   4.284   1.373   0.016  0.4035 -0.4636 -0.9144
 4174TIP3    H134081   4.291   1.427   0.095 -0.5226  0.6950 -1.5938
 4174TIP3    H234082   4.243   1.292   0.046  4.2772 -2.1004  0.6736
 4175TIP3   OH234083   1.502   4.832   7.210 -0.2906 -0.2067 -0.5662
 4175TIP3    H134084   1.567   4.773   7.250  0.8117 -0.8133 -3.0243
 4175TIP3    H234085   1.419   4.784   7.216 -0.7990  0.8284  3.1551
 4176TIP3   OH234086   6.854   2.652   7.281  0.0571 -0.7994 -0.1907
 4176TIP3    H134087   6.864   2.702   7.200  1.2854 -0.1789  0.3077
 4176TIP3    H234088   6.760   2.655   7.300  0.0455  1.2223 -0.2795
 4177TIP3   OH234089   4.331   0.208   1.291 -0.7058 -0.0344 -0.4668
 4177TIP3    H134090   4.339   0.176   1.201 -1.3762 -0.9589 -0.2102
 4177TIP3    H234091   4.413   0.182   1.333 -1.8285 -2.8987  0.1621
 4178TIP3   OH234092   1.980   2.979   1.395  0.4316  0.4418 -0.1730
 4178TIP3    H134093   1.980   2.926   1.475 -0.3701  1.2856  0.4093
 4178TIP3    H234094   2.056   2.948   1.346  1.0822  0.0736  1.0252
 4179TIP3   OH234095   2.202   0.139   0.475 -0.2387  0.1087 -0.6181
 4179TIP3    H134096   2.283   0.182   0.503 -0.5495 -0.1555  0.7777
 4179TIP3    H234097   2.196   0.158   0.381  0.9976  0.8435 -0.5766
 4180TIP3   OH234098   4.684   3.740   8.054  0.1607  0.5689  0.6090
 4180TIP3    H134099   4.706   3.647   8.057  2.2941  1.0275  1.4053
 4180TIP3    H234100   4.603   3.745   8.003 -1.5180 -1.9597  2.7818
 4181TIP3   OH234101   6.419   1.646   8.520  0.0824  0.0431 -0.1968
 4181TIP3    H134102   6.505   1.668   8.484  1.2524  0.6702  2.7244
 4181TIP3    H234103   6.432   1.563   8.565 -0.8740  0.0843  0.1791
 4182TIP3   OH234104   3.575   5.846   8.077  0.3468 -0.3097 -0.2630
 4182TIP3    H134105   3.666   5.874   8.085  0.4017 -0.2199 -1.0358
 4182TIP3    H234106   3.524   5.919   8.111  0.5622 -0.3546  0.1604
 4183TIP3   OH234107   0.036   5.638   7.952  0.1600  0.2090  0.0824
 4183TIP3    H134108   0.036   5.635   7.856 -0.7361 -3.5112  0.0171
 4183TIP3    H234109   0.044   5.546   7.978  0.2899  1.0906  3.6039
 4184TIP3   OH234110   6.267   4.502   1.854  0.6671 -0.2869 -0.4889
 4184TIP3    H134111   6.194   4.514   1.914  0.3149  0.7702 -1.0943
 4184TIP3    H234112   6.341   4.547   1.895  1.1831 -1.8552  0.4073
 4185TIP3   OH234113   5.550   2.821   7.216 -0.0383  0.4721  0.4710
 4185TIP3    H134114   5.640   2.852   7.214  0.4628 -0.9362  0.4865
 4185TIP3    H234115   5.511   2.865   7.292  0.4341  1.5989  0.0701
 4186TIP3   OH234116   0.484   1.927   8.183  0.1360 -0.2224 -0.2095
 4186TIP3    H134117   0.483   1.835   8.208  2.0390 -0.1271  0.3821
 4186TIP3    H234118   0.455   1.973   8.261 -0.5703 -0.2946 -0.4234
 4187TIP3   OH234119   6.751   4.230   1.003  0.2335  0.0723  0.2018
 4187TIP3    H134120   6.690   4.292   1.042 -0.6724 -0.4397 -0.3547
 4187TIP3    H234121   6.761   4.161   1.069  0.0602  0.0624  0.2170
 4188TIP3   OH234122   1.744   1.097   7.240 -0.1618  0.6034 -0.2472
 4188TIP3    H134123   1.781   1.163   7.181 -1.4785 -0.6951 -2.6856
 4188TIP3    H234124   1.820   1.045   7.268  0.5923  1.7593 -0.0595
 4189TIP3   OH234125   4.017   0.442   7.437  0.1852  0.0155  0.1886
 4189TIP3    H134126   4.071   0.369   7.407  0.3003  0.0547  0.3009
 4189TIP3    H234127   3.927   0.417   7.414  0.3232  0.2772 -0.6630
 4190TIP3   OH234128   4.381   4.249   6.824  0.0731 -0.0970 -0.3003
 4190TIP3    H134129   4.449   4.253   6.756 -0.4886 -0.0644 -0.8646
 4190TIP3    H234130   4.302   4.223   6.777 -0.2238 -0.5106  0.4222
 4191TIP3   OH234131   1.453   1.840   7.608 -0.0305  0.6967 -0.8058
 4191TIP3    H134132   1.427   1.757   7.570  1.9937 -0.6260  0.4614
 4191TIP3    H234133   1.519   1.875   7.548  0.7987  0.2035 -0.2108
 4192TIP3   OH234134   4.122   6.901   1.664  0.4440 -0.0945  0.6104
 4192TIP3    H134135   4.153   6.811   1.672 -0.0434 -0.2117  1.2324
 4192TIP3    H234136   4.031   6.898   1.692 -0.2020  0.2243 -1.3551
 4193TIP3   OH234137   2.471   6.308   8.072  0.0117 -0.6346 -0.8045
 4193TIP3    H134138   2.442   6.229   8.026 -2.6911  0.0455 -0.4288
 4193TIP3    H234139   2.396   6.367   8.068  1.9932  2.0319 -1.2188
 4194TIP3   OH234140   4.990   5.697   2.101 -0.3709 -0.1339 -0.0574
 4194TIP3    H134141   5.064   5.755   2.081  0.4991 -1.1441  0.1122
 4194TIP3    H234142   4.913   5.748   2.078  0.4253  0.4723 -1.5723
 4195TIP3   OH234143   0.544   0.167   7.896  0.0535  0.7491  0.3220
 4195TIP3    H134144   0.613   0.219   7.938 -0.7068  0.1814  2.3736
 4195TIP3    H234145   0.561   0.178   7.803  2.8897  0.6828  0.7312
 4196TIP3   OH234146   3.344   0.933   1.646 -0.2698  0.6951 -0.1986
 4196TIP3    H134147   3.264   0.970   1.608 -1.2470  0.2283  1.3363
 4196TIP3    H234148   3.351   0.974   1.732  0.6668  0.0558  0.0396
 4197TIP3   OH234149   3.580   3.499   2.370 -0.4481  0.2937  0.4177
 4197TIP3    H134150   3.500   3.484   2.320  0.5809  0.9003 -1.5335
 4197TIP3    H234151   3.641   3.538   2.307  1.4272 -0.2480  1.7855
 4198TIP3   OH234152   0.206   6.511   7.488  0.1590 -0.6791  0.1980
 4198TIP3    H134153   0.155   6.567   7.546 -0.3613  0.3154 -1.1703
 4198TIP3    H234154   0.147   6.439   7.466 -0.8369  0.6283 -1.6265
 4199TIP3   OH234155   2.479   1.018   6.307 -0.6988 -0.0598 -0.1241
 4199TIP3    H134156   2.550   0.992   6.248 -0.3146 -1.1980  0.7863
 4199TIP3    H234157   2.499   1.109   6.330 -0.3549  0.0976 -1.0314
 4200TIP3   OH234158   4.991   5.101   1.065 -0.0341  0.2191 -0.9139
 4200TIP3    H134159   4.973   5.079   0.974 -2.6503  0.7726 -0.6028
 4200TIP3    H234160   4.980   5.196   1.069 -0.5689  0.1346  0.0724
 4201TIP3   OH234161   4.172   3.325   1.814  0.2163  0.1138  0.0822
 4201TIP3    H134162   4.112   3.349   1.884  0.7148  2.5776 -0.2577
 4201TIP3    H234163   4.145   3.379   1.740  0.1594 -1.9019 -1.4726
 4202TIP3   OH234164   4.016   2.866   1.235  0.3834  0.0270  0.0917
 4202TIP3    H134165   4.046   2.779   1.210 -0.3936 -0.1321 -0.3550
 4202TIP3    H234166   4.088   2.924   1.212  0.2905 -0.3093 -1.1685
 4203TIP3   OH234167   6.219   2.378   0.201  0.8168 -0.1469  0.1504
 4203TIP3    H134168   6.166   2.359   0.124 -0.2653  0.5430  0.6989
 4203TIP3    H234169   6.309   2.366   0.171  0.5030  1.3650 -1.5998
 4204TIP3   OH234170   6.559   0.708   0.397 -0.5707 -0.3004  0.2079
 4204TIP3    H134171   6.635   0.669   0.440  0.5537  0.3742 -1.0776
 4204TIP3    H234172   6.594   0.785   0.351 -1.9352 -0.2285 -0.7941
 4205TIP3   OH234173   5.700   2.237   6.609 -0.3811 -0.5487 -0.2015
 4205TIP3    H134174   5.612   2.221   6.573 -0.3161 -0.9251 -0.1978
 4205TIP3    H234175   5.684   2.261   6.700 -0.5311  0.1632 -0.4120
 4206TIP3   OH234176   6.246   3.228   8.023  0.6100  0.0149 -0.2228
 4206TIP3    H134177   6.293   3.152   7.989 -0.1706 -0.3070 -0.6109
 4206TIP3    H234178   6.156   3.197   8.036  0.7112  0.3562  1.4248
 4207TIP3   OH234179   4.184   0.800   0.838 -0.3815 -0.1441  0.4989
 4207TIP3    H134180   4.267   0.780   0.794 -0.1936  0.0733  0.7480
 4207TIP3    H234181   4.179   0.895   0.837 -0.9877 -0.1839 -0.1609
 4208TIP3   OH234182   2.440   4.793   8.162  0.2448  0.2607 -0.1983
 4208TIP3    H134183   2.456   4.728   8.230 -0.4026  0.2135 -0.0817
 4208TIP3    H234184   2.488   4.762   8.086 -0.7908 -0.8465 -0.4288
 4209TIP3   OH234185   0.031   2.689   6.176  0.2906  0.1164 -0.1000
 4209TIP3    H134186   0.060   2.743   6.103 -0.0275  2.1180  1.1711
 4209TIP3    H234187   0.093   2.617   6.179  1.4425  1.0286 -1.1760
 4210TIP3   OH234188   1.089   5.729   8.286  0.1214  0.1237  0.0971
 4210TIP3    H134189   1.150   5.802   8.298  0.8217 -0.3841 -0.3520
 4210TIP3    H234190   1.074   5.726   8.192  0.1800 -0.3840  0.1034
 4211TIP3   OH234191   2.540   1.250   7.559  0.2668 -0.1103  0.0020
 4211TIP3    H134192   2.541   1.195   7.637 -0.3313 -0.1158  0.0134
 4211TIP3    H234193   2.632   1.262   7.536  0.3930 -1.3657 -0.1885
 4212TIP3   OH234194   5.283   3.680   0.532  0.4570  0.1440  0.8609
 4212TIP3    H134195   5.316   3.590   0.532 -2.3278 -0.9869  0.7887
 4212TIP3    H234196   5.320   3.719   0.453  0.9342 -1.2527  0.3500
 4213TIP3   OH234197   6.643   5.085   0.979 -0.0892 -0.2174 -0.5571
 4213TIP3    H134198   6.688   5.116   0.900 -0.3031  0.3704 -0.4584
 4213TIP3    H234199   6.589   5.012   0.949  2.2521 -2.1343 -0.3560
 4214TIP3   OH234200   0.126   4.522   8.337 -0.0518  0.5760 -0.3089
 4214TIP3    H134201   0.077   4.604   8.339  0.6872  1.0191  0.6327
 4214TIP3    H234202   0.173   4.525   8.253 -0.5100  0.8108 -0.5630
 4215TIP3   OH234203   3.035   2.255   0.132 -0.0122 -0.0185 -0.0063
 4215TIP3    H134204   3.009   2.345   0.152  2.1898  0.2264  2.2501
 4215TIP3    H234205   3.017   2.207   0.213  1.0515 -1.0747 -0.3763
 4216TIP3   OH234206   4.043   4.326   0.370  0.0582 -0.5761  0.2101
 4216TIP3    H134207   4.032   4.416   0.401  0.2760 -0.1042 -1.0309
 4216TIP3    H234208   4.055   4.274   0.450  2.3899  0.8348  0.8498
 4217TIP3   OH234209   5.986   2.562   7.723  0.3670 -0.3287  0.4664
 4217TIP3    H134210   5.945   2.578   7.808  1.6202 -1.8710  1.4051
 4217TIP3    H234211   5.937   2.489   7.686  0.1105  0.0509  0.0379
 4218TIP3   OH234212   6.603   4.752   7.404 -0.1049  1.0297 -0.2371
 4218TIP3    H134213   6.625   4.845   7.402  0.6335  0.8611 -0.1975
 4218TIP3    H234214   6.652   4.717   7.478 -0.3793  0.6075 -0.2521
 4219TIP3   OH234215   0.683   2.615   1.560  0.0840 -0.1884  0.9060
 4219TIP3    H134216   0.734   2.534   1.572 -0.2872 -0.4226  0.9292
 4219TIP3    H234217   0.600   2.597   1.604 -0.3282 -0.1106  0.1628
 4220TIP3   OH234218   5.271   1.346   8.410 -0.1979  0.1123 -0.3383
 4220TIP3    H134219   5.318   1.282   8.463  0.2543  0.8298  0.1409
 4220TIP3    H234220   5.300   1.431   8.443 -1.9696  0.5892  0.1166
 4221TIP3   OH234221   0.743   1.063   1.883 -0.5407  0.3475 -0.7918
 4221TIP3    H134222   0.725   1.139   1.937 -0.8328 -0.9181  0.9743
 4221TIP3    H234223   0.668   1.005   1.897  0.9346 -1.4457  0.1561
 4222TIP3   OH234224   3.799   3.213   7.386  0.0115  0.6570 -0.5031
 4222TIP3    H134225   3.879   3.184   7.342 -0.0053 -0.0177 -0.1059
 4222TIP3    H234226   3.818   3.201   7.479 -0.7442 -0.0268 -0.4295
 4223TIP3   OH234227   6.461   5.552   1.746 -0.4534  0.4186  0.0951
 4223TIP3    H134228   6.416   5.578   1.665  1.2458  2.1658 -0.3811
 4223TIP3    H234229   6.421   5.469   1.771 -1.6472  0.2801 -2.0638
 4224TIP3   OH234230   0.801   3.749   7.303  0.3104  0.5637 -0.0886
 4224TIP3    H134231   0.789   3.831   7.352  1.5297  0.0614  1.1159
 4224TIP3    H234232   0.726   3.695   7.329  0.0650  0.9039 -0.0736
 4225TIP3   OH234233   5.077   4.175   7.604  0.0424 -0.1971 -0.1815
 4225TIP3    H134234   5.114   4.100   7.651  0.1025  1.3632  2.4815
 4225TIP3    H234235   5.124   4.251   7.640 -0.8336  1.2218 -1.9046
 4226TIP3   OH234236   2.690   1.740   0.077 -0.5325 -0.1587 -0.0873
 4226TIP3    H134237   2.633   1.800   0.030  0.2843  1.0567  0.4437
 4226TIP3    H234238   2.645   1.725   0.160  0.0329  0.9997  0.4353
 4227TIP3   OH234239   5.917   3.305   1.669 -0.3381 -0.4007 -0.1944
 4227TIP3    H134240   5.974   3.343   1.736  0.0885 -0.9749 -0.2277
 4227TIP3    H234241   5.871   3.234   1.713  1.0947 -1.8143 -0.8580
 4228TIP3   OH234242   5.227   0.122   8.324 -0.6212  0.3084  0.4815
 4228TIP3    H134243   5.276   0.100   8.244 -0.8896 -1.0940  0.6672
 4228TIP3    H234244   5.135   0.110   8.299 -0.6928 -0.4073  1.0649
 4229TIP3   OH234245   6.113   5.152   8.483  0.2056 -0.1472 -0.4140
 4229TIP3    H134246   6.077   5.110   8.404 -0.4558 -0.2103 -0.0873
 4229TIP3    H234247   6.070   5.106   8.556 -0.3772  0.9567 -0.0444
 4230TIP3   OH234248   2.660   2.368   1.438  0.2604  0.5430  0.1406
 4230TIP3    H134249   2.572   2.400   1.423 -0.1012 -0.2545  0.5154
 4230TIP3    H234250   2.688   2.409   1.519  0.0428  0.4057  0.2836
 4231TIP3   OH234251   2.558   2.272   1.834  0.4576 -0.1411 -0.7120
 4231TIP3    H134252   2.530   2.181   1.839 -0.3555  0.0902 -0.9142
 4231TIP3    H234253   2.485   2.318   1.793  1.1393  0.4891 -1.2487
 4232TIP3   OH234254   0.260   1.682   6.793  0.4709 -0.4742 -0.3588
 4232TIP3    H134255   0.320   1.619   6.754  0.8319 -0.4029  0.0682
 4232TIP3    H234256   0.314   1.760   6.807  0.3492 -0.4928  0.2561
 4233TIP3   OH234257   1.000   2.724   0.699 -0.5900  0.4267 -0.0936
 4233TIP3    H134258   0.939   2.718   0.625 -2.1476  0.7453  1.0965
 4233TIP3    H234259   0.947   2.761   0.770  0.1908 -1.9288  1.8535
 4234TIP3   OH234260   6.686   1.236   8.035  0.3884 -0.1377 -0.3336
 4234TIP3    H134261   6.593   1.221   8.021  0.1272  0.8118  0.3110
 4234TIP3    H234262   6.706   1.315   7.985  0.9288 -0.5163 -0.7283
 4235TIP3   OH234263   0.858   3.273   0.416  0.2982  0.1539 -0.0703
 4235TIP3    H134264   0.918   3.329   0.367 -0.1425  0.7139  0.0077
 4235TIP3    H234265   0.784   3.261   0.358  0.5079 -0.5773 -0.1866
 4236TIP3   OH234266   4.675   3.366   0.995 -0.0945  0.0891  0.0050
 4236TIP3    H134267   4.691   3.279   1.033  1.7639  0.4802  0.2166
 4236TIP3    H234268   4.664   3.350   0.902 -1.7444 -0.5580  0.2690
 4237TIP3   OH234269   1.299   5.162   8.131 -0.1356 -0.1356 -0.3223
 4237TIP3    H134270   1.391   5.149   8.154 -0.3422  0.2169  0.8167
 4237TIP3    H234271   1.297   5.159   8.036  0.9325 -0.9255 -0.3408
 4238TIP3   OH234272   3.492   1.892   1.165 -0.4410 -0.3712 -0.3632
 4238TIP3    H134273   3.560   1.953   1.193  0.0673 -0.3572 -1.5688
 4238TIP3    H234274   3.539   1.809   1.151 -0.7629 -0.4939 -0.7154
 4239TIP3   OH234275   5.276   2.784   1.392  0.3376  0.1568 -0.0430
 4239TIP3    H134276   5.278   2.705   1.446 -1.2446  2.2796  3.4769
 4239TIP3    H234277   5.363   2.822   1.402 -0.0412  0.6928  1.3475
 4240TIP3   OH234278   0.180   4.042   8.421  0.1056 -0.0879  0.7292
 4240TIP3    H134279   0.202   4.134   8.436 -0.6470  0.0587  0.9431
 4240TIP3    H234280   0.089   4.034   8.448 -0.4998 -0.4238 -1.2875
 4241TIP3   OH234281   6.316   3.152   7.693  0.5307 -0.1138  0.5199
 4241TIP3    H134282   6.340   3.138   7.785 -2.2341  0.0760  1.3757
 4241TIP3    H234283   6.244   3.092   7.678  0.0318  0.8364 -1.1026
 4242TIP3   OH234284   0.051   3.610   0.049  0.2398 -0.2465  0.1206
 4242TIP3    H134285  -0.018   3.618  -0.016  1.0773 -0.9525 -0.9030
 4242TIP3    H234286   0.006   3.607   0.133 -0.7981  2.3337 -0.2603
 4243TIP3   OH234287   2.031   1.053   1.652 -0.0417  0.0359  0.2700
 4243TIP3    H134288   2.053   1.040   1.744 -1.2934 -0.2058  0.5538
 4243TIP3    H234289   2.002   1.144   1.647 -0.8607 -0.2142  0.3134
 4244TIP3   OH234290   6.270   0.878   0.879 -0.0817 -0.4755 -0.1389
 4244TIP3    H134291   6.242   0.795   0.916 -0.0852 -0.4895 -0.1736
 4244TIP3    H234292   6.278   0.936   0.955 -1.2391 -0.1702 -0.2250
 4245TIP3   OH234293   2.980   5.621   2.479 -0.1563 -0.0177  0.4265
 4245TIP3    H134294   3.013   5.582   2.398 -0.9097 -1.1301  0.6382
 4245TIP3    H234295   2.939   5.549   2.526 -2.1249  1.1191  0.5748
 4246TIP3   OH234296   1.352   3.714   2.475 -0.1287 -0.4736 -0.5882
 4246TIP3    H134297   1.447   3.721   2.477  0.1287 -2.9064  1.5873
 4246TIP3    H234298   1.334   3.634   2.425 -0.9280 -0.7896  0.1703
 4247TIP3   OH234299   0.484   0.827   0.941 -0.0339  0.3946  0.4186
 4247TIP3    H134300   0.539   0.761   0.900  0.9880  2.7561 -2.3706
 4247TIP3    H234301   0.415   0.844   0.877 -0.4729  1.7402  1.2041
 4248TIP3   OH234302   1.263   1.494   6.644  0.3215  0.4462  0.6484
 4248TIP3    H134303   1.257   1.582   6.681  0.6995  0.5862  0.3799
 4248TIP3    H234304   1.306   1.442   6.711  0.9587  0.6879  0.4324
 4249TIP3   OH234305   2.564   1.262   0.737 -0.2806 -0.0086  0.1035
 4249TIP3    H134306   2.510   1.189   0.706  1.2121 -1.1984  0.2152
 4249TIP3    H234307   2.607   1.229   0.816  0.4740  0.9746  0.1243
 4250TIP3   OH234308   1.942   2.577   1.212  0.2143  0.3244  0.0030
 4250TIP3    H134309   1.851   2.601   1.195  0.2674 -0.6777 -1.9340
 4250TIP3    H234310   1.955   2.497   1.162  1.4648 -0.9883  2.2588
 4251TIP3   OH234311   0.655   5.882   7.818 -0.3997  0.6847  0.3173
 4251TIP3    H134312   0.658   5.890   7.723  1.9575  2.7545  0.4750
 4251TIP3    H234313   0.747   5.883   7.845 -1.0088  0.1536  2.6424
 4252TIP3   OH234314   1.450   4.569   6.953  0.7260  0.0242  0.0464
 4252TIP3    H134315   1.369   4.524   6.927  0.4495  0.1560  0.6780
 4252TIP3    H234316   1.476   4.617   6.874  0.6139 -0.6287 -0.4021
 4253TIP3   OH234317   3.006   1.186   2.195 -0.4165 -0.3135  0.7439
 4253TIP3    H134318   3.042   1.102   2.168 -2.9479 -1.3121  0.1629
 4253TIP3    H234319   3.014   1.186   2.291  2.3067  0.1925  0.5985
 4254TIP3   OH234320   5.952   3.871   7.402 -0.5920  0.3074  0.2234
 4254TIP3    H134321   6.039   3.881   7.438 -0.6786  0.2044  0.4622
 4254TIP3    H234322   5.966   3.846   7.311 -0.3543 -1.3657  0.6896
 4255TIP3   OH234323   4.745   1.884   7.641  0.5689  0.1529 -0.2710
 4255TIP3    H134324   4.822   1.829   7.631  0.4171 -0.1994  0.4161
 4255TIP3    H234325   4.723   1.912   7.552  0.5685 -0.9892 -0.6387
 4256TIP3   OH234326   3.585   1.188   1.304  0.0807 -0.3624 -0.4845
 4256TIP3    H134327   3.666   1.236   1.321  0.3161  0.2282 -2.9064
 4256TIP3    H234328   3.519   1.234   1.356  1.1339 -0.3768  0.9210
 4257TIP3   OH234329   3.090   4.380   0.465  0.8432  0.6139 -0.4658
 4257TIP3    H134330   3.103   4.289   0.438 -1.6890  0.7068 -2.3319
 4257TIP3    H234331   3.092   4.430   0.384  0.2006  1.9569  0.3046
 4258TIP3   OH234332   1.322   3.138   1.216  0.7882 -0.1575 -0.6551
 4258TIP3    H134333   1.302   3.227   1.247  1.1224 -0.1961 -0.3120
 4258TIP3    H234334   1.253   3.083   1.253  1.1911 -0.2051  0.0499
 4259TIP3   OH234335   0.083   0.577   1.587  0.1949  0.2398 -0.0755
 4259TIP3    H134336   0.022   0.627   1.532  0.0691  0.8541  0.6003
 4259TIP3    H234337   0.032   0.552   1.664  0.8696  1.0826  0.6778
 4260TIP3   OH234338   0.800   0.485   1.025 -0.3709 -0.1439  0.8353
 4260TIP3    H134339   0.896   0.476   1.021 -0.5332 -2.0832 -0.1403
 4260TIP3    H234340   0.776   0.441   1.106 -0.3516  1.7875  1.9368
 4261TIP3   OH234341   0.582   5.719   0.081 -0.0747  0.4261 -0.2784
 4261TIP3    H134342   0.627   5.660   0.021  0.1757 -0.5529  0.8193
 4261TIP3    H234343   0.588   5.805   0.041 -1.9933 -0.5193 -2.8498
 4262TIP3   OH234344   5.443   4.238   1.397  0.1133 -0.0957  0.1357
 4262TIP3    H134345   5.371   4.215   1.456 -0.1732  2.0586  0.7026
 4262TIP3    H234346   5.435   4.177   1.324 -0.8669 -1.3913  1.2742
 4263TIP3   OH234347   6.267   1.790   7.721 -0.8534  0.3660  0.3007
 4263TIP3    H134348   6.270   1.796   7.626  0.8332 -1.0044  0.2397
 4263TIP3    H234349   6.311   1.870   7.752  2.4198 -1.0935 -0.1942
 4264TIP3   OH234350   2.757   1.167   0.036 -0.5609 -0.2022 -0.1139
 4264TIP3    H134351   2.700   1.184   0.111  0.1673 -0.2934  0.4679
 4264TIP3    H234352   2.818   1.240   0.035 -1.0486  0.2118 -1.1016
 4265TIP3   OH234353   6.507   2.792   1.635 -0.5105  0.2357  0.2379
 4265TIP3    H134354   6.436   2.734   1.663 -0.2241  0.0125  0.5024
 4265TIP3    H234355   6.570   2.735   1.592 -0.3506  0.3889  0.2668
 4266TIP3   OH234356   6.328   6.422   8.364  0.0359  0.0870  0.1372
 4266TIP3    H134357   6.263   6.352   8.357 -1.0063  0.9439  0.7500
 4266TIP3    H234358   6.393   6.402   8.297 -0.8592 -0.8134 -0.4974
 4267TIP3   OH234359   4.799   5.691   6.277 -0.1271 -0.1036  0.0346
 4267TIP3    H134360   4.793   5.757   6.346 -0.3455 -0.5351  0.4319
 4267TIP3    H234361   4.790   5.741   6.195  2.4905  0.7440  0.1595
 4268TIP3   OH234362   6.641   4.788   0.495 -0.0553 -0.1916 -0.3986
 4268TIP3    H134363   6.562   4.734   0.498  0.5307 -1.0606 -0.3497
 4268TIP3    H234364   6.609   4.878   0.497 -1.1156 -0.5108 -1.8114
 4269TIP3   OH234365   0.389   0.059   0.659 -0.3961 -0.4267 -0.2760
 4269TIP3    H134366   0.302   0.032   0.689 -0.9256 -2.0272 -2.9215
 4269TIP3    H234367   0.448   0.035   0.730 -1.6252 -3.2099 -0.0553
 4270TIP3   OH234368   1.983   2.078   0.123  0.1434  0.1048 -0.2836
 4270TIP3    H134369   2.068   2.108   0.090  0.0375  1.4320  0.6038
 4270TIP3    H234370   1.919   2.125   0.070 -0.0512 -0.5125 -0.6071
 4271TIP3   OH234371   2.634   5.926   0.019  0.4154 -0.4999 -0.0514
 4271TIP3    H134372   2.658   5.838  -0.010 -3.2148 -1.3342 -0.9574
 4271TIP3    H234373   2.623   5.976  -0.062  1.5086  0.5710  0.4260
 4272TIP3   OH234374   5.711   0.584   8.402  0.0084  0.4066 -0.3696
 4272TIP3    H134375   5.692   0.645   8.330 -0.8568  3.0045  1.8693
 4272TIP3    H234376   5.626   0.543   8.421 -0.0466  0.6490 -0.0763
 4273TIP3   OH234377   4.317   5.185   0.882 -0.0283 -0.7708  0.0910
 4273TIP3    H134378   4.278   5.217   0.801 -1.3639 -1.1855  0.5381
 4273TIP3    H234379   4.362   5.105   0.858 -0.0752 -0.6708 -0.3237
 4274TIP3   OH234380   6.442   3.539   7.442  0.5839  0.6984  0.4392
 4274TIP3    H134381   6.468   3.484   7.516  1.0969  1.3000  0.7109
 4274TIP3    H234382   6.407   3.619   7.482 -1.0904  0.2028  0.0761
 4275TIP3   OH234383   4.757   4.775   0.912 -0.3061  0.3382  0.0939
 4275TIP3    H134384   4.719   4.730   0.988 -0.4581 -0.9659 -0.7134
 4275TIP3    H234385   4.684   4.825   0.875 -0.4084  0.4352  0.4242
 4276TIP3   OH234386   2.058   0.052   2.412 -0.2491 -0.2436 -0.2510
 4276TIP3    H134387   2.035   0.101   2.333 -0.2547  0.2170  0.0314
 4276TIP3    H234388   1.992  -0.018   2.417  0.4168 -0.9837 -1.2658
 4277TIP3   OH234389   2.741   0.299   2.115  0.3153  0.4066 -0.0007
 4277TIP3    H134390   2.745   0.246   2.036  0.1087  0.7602 -0.2509
 4277TIP3    H234391   2.818   0.273   2.166  0.2738 -0.0498 -0.1696
 4278TIP3   OH234392   6.380   0.535   0.811  0.0601  0.1062 -0.3787
 4278TIP3    H134393   6.435   0.598   0.764  0.0812  1.2212  1.0594
 4278TIP3    H234394   6.373   0.460   0.752  3.4065 -0.2504 -0.5301
 4279TIP3   OH234395   3.287   3.131   7.330  0.1115 -0.2696  0.3104
 4279TIP3    H134396   3.239   3.214   7.331  0.3537 -0.1278  0.1512
 4279TIP3    H234397   3.378   3.156   7.314 -0.1418 -0.7375 -2.2504
 4280TIP3   OH234398   3.558   5.902   6.539  0.5866  0.4729 -0.0284
 4280TIP3    H134399   3.545   5.865   6.626  2.8064 -0.2514  0.0572
 4280TIP3    H234400   3.522   5.991   6.545 -0.1881  0.1032  1.3036
 4281TIP3   OH234401   4.962   3.096   1.312 -0.5223 -0.6312 -0.5114
 4281TIP3    H134402   5.020   3.024   1.287  1.7485  0.1569  1.9752
 4281TIP3    H234403   5.015   3.175   1.302 -1.7108  0.3229  0.3074
 4282TIP3   OH234404   5.383   1.472   1.008 -0.0488  0.4740 -0.0497
 4282TIP3    H134405   5.448   1.435   1.068  0.7295  1.5069 -0.2111
 4282TIP3    H234406   5.433   1.536   0.956 -0.8320  0.0466 -1.3771
 4283TIP3   OH234407   6.684   1.946   6.848 -0.5590 -0.0528 -0.0666
 4283TIP3    H134408   6.641   2.032   6.851 -1.6422 -0.5207 -1.1574
 4283TIP3    H234409   6.768   1.962   6.805 -0.4877  0.5522  0.2856
 4284TIP3   OH234410   3.330   4.363   7.900  1.2612 -0.0607 -0.5538
 4284TIP3    H134411   3.384   4.371   7.821 -0.0448 -4.4672 -2.2242
 4284TIP3    H234412   3.240   4.359   7.867  0.2893  1.7736  1.6229
 4285TIP3   OH234413   0.441   2.421   0.675  0.6263 -0.1790 -0.7134
 4285TIP3    H134414   0.474   2.499   0.720 -0.4534 -1.0424  1.7233
 4285TIP3    H234415   0.452   2.350   0.739 -4.5689 -0.7956 -0.1249
 4286TIP3   OH234416   4.530   2.735   1.886 -0.3261  0.4950  0.0832
 4286TIP3    H134417   4.505   2.826   1.898  1.4353  1.2573 -1.5096
 4286TIP3    H234418   4.526   2.721   1.791 -0.8662 -1.2025  0.3190
 4287TIP3   OH234419   5.600   1.145   6.811  0.0344  0.2107 -0.1136
 4287TIP3    H134420   5.642   1.177   6.732  0.3899  0.6859  0.2654
 4287TIP3    H234421   5.602   1.219   6.871 -0.1530 -0.1739  0.3725
 4288TIP3   OH234422   3.547   4.186   2.046  0.2633 -0.1430 -0.2359
 4288TIP3    H134423   3.520   4.243   2.119 -0.0767 -1.4449  0.6998
 4288TIP3    H234424   3.593   4.244   1.986 -1.0015  1.3336  0.1540
 4289TIP3   OH234425   4.167   4.095   0.510 -0.1640  0.7810 -0.0493
 4289TIP3    H134426   4.110   4.107   0.587 -0.2519  2.0805 -0.2875
 4289TIP3    H234427   4.201   4.006   0.519 -2.4134 -0.1529 -0.0151
 4290TIP3   OH234428   3.832   1.260   7.272  0.0798 -0.3414 -0.6057
 4290TIP3    H134429   3.851   1.175   7.312 -0.5568  0.5032  1.6872
 4290TIP3    H234430   3.764   1.242   7.206 -0.0740 -1.6065 -0.1161
 4291TIP3   OH234431   0.609   4.499   7.183  0.1381  0.0238  0.1891
 4291TIP3    H134432   0.588   4.589   7.159 -1.6053 -0.5268 -0.5128
 4291TIP3    H234433   0.607   4.498   7.279 -3.1033  0.1153  0.2446
 4292TIP3   OH234434   3.582   0.301   7.553  0.7473 -0.0412  0.1221
 4292TIP3    H134435   3.488   0.289   7.559  0.8881 -0.5053  1.6679
 4292TIP3    H234436   3.600   0.376   7.610  1.2167  0.6041 -0.8524
 4293TIP3   OH234437   4.666   6.291   1.801  0.2599  0.3537 -0.2702
 4293TIP3    H134438   4.670   6.286   1.897 -0.0609 -0.0336 -0.2738
 4293TIP3    H234439   4.655   6.384   1.782 -2.6548  0.1851  0.2011
 4294TIP3   OH234440   3.718   3.604   8.320  0.0712 -0.0610  0.1601
 4294TIP3    H134441   3.680   3.664   8.256  1.3204  0.8712  0.2651
 4294TIP3    H234442   3.700   3.644   8.405 -3.1936 -2.1680  0.6820
 4295TIP3   OH234443   2.656   5.520   0.375  0.2658  0.6326 -0.3909
 4295TIP3    H134444   2.584   5.583   0.371 -1.2312 -0.6441  3.1075
 4295TIP3    H234445   2.624   5.445   0.324  0.0408  0.8691 -0.6047
 4296TIP3   OH234446   5.036   0.953   7.379  0.4235 -0.0099  0.1566
 4296TIP3    H134447   4.946   0.957   7.346  0.1585  1.3426  0.9556
 4296TIP3    H234448   5.076   1.034   7.347  1.8874 -1.3064 -1.5405
 4297TIP3   OH234449   2.013   0.999   8.271  0.3719  0.2834 -0.1209
 4297TIP3    H134450   2.024   0.954   8.355  1.5155  0.8291  0.0440
 4297TIP3    H234451   2.035   1.090   8.290 -1.4786  0.8531 -0.5538
 4298TIP3   OH234452   6.782   1.776   2.189 -0.0716  0.2665 -0.0214
 4298TIP3    H134453   6.746   1.715   2.253  1.5687  0.2726  0.9448
 4298TIP3    H234454   6.786   1.860   2.235 -0.5697  0.7053 -0.7467
 4299TIP3   OH234455   2.943   0.747   7.173 -0.0439 -0.2111 -0.1331
 4299TIP3    H134456   3.038   0.738   7.163 -0.2567 -1.0326 -1.8972
 4299TIP3    H234457   2.931   0.820   7.233  1.7115 -0.7206  0.8993
 4300TIP3   OH234458   3.168   3.980   0.044  0.3577  0.1333  0.0600
 4300TIP3    H134459   3.187   4.040  -0.028  0.2097 -1.3263 -1.2436
 4300TIP3    H234460   3.074   3.966   0.039  0.4875 -0.7211 -0.0785
 4301TIP3   OH234461   3.879   0.821   8.179  0.2333  0.1631  0.2506
 4301TIP3    H134462   3.955   0.766   8.156  1.0575  1.2532  0.3174
 4301TIP3    H234463   3.864   0.873   8.100 -1.8299 -1.5358 -0.5669
 4302TIP3   OH234464   3.745   5.483   8.115  0.1195 -0.0657  0.2948
 4302TIP3    H134465   3.708   5.460   8.029  0.7422 -0.8901  0.2307
 4302TIP3    H234466   3.832   5.517   8.094  0.6699 -1.2042  0.6486
 4303TIP3   OH234467   2.568   6.628   6.727  0.3869  0.0228 -0.2433
 4303TIP3    H134468   2.642   6.678   6.763 -1.2796  0.4345  2.9612
 4303TIP3    H234469   2.564   6.549   6.781 -0.9849 -0.3962 -0.9166
 4304TIP3   OH234470   4.304   2.698   1.142 -0.5652 -0.1354 -0.2134
 4304TIP3    H134471   4.305   2.613   1.098  1.2641 -0.1531 -0.2213
 4304TIP3    H234472   4.327   2.760   1.073 -1.0991  0.2753 -0.0267
 4305TIP3   OH234473   2.366   4.484   0.562  0.3724 -0.0319  0.8880
 4305TIP3    H134474   2.418   4.404   0.556  0.0244 -0.3173  1.6384
 4305TIP3    H234475   2.316   4.475   0.643  0.0889  0.8023  0.8176
 4306TIP3   OH234476   5.635   3.914   0.998  0.4950 -0.5352  0.4066
 4306TIP3    H134477   5.674   3.939   0.915  1.5453 -1.3653  0.6242
 4306TIP3    H234478   5.624   3.819   0.992  0.7016 -0.6274  1.2530
 4307TIP3   OH234479   2.091   0.452   7.532 -0.0841  0.5618  0.5208
 4307TIP3    H134480   2.010   0.447   7.483 -0.0083 -2.1790  0.5518
 4307TIP3    H234481   2.139   0.373   7.509  1.7545  1.1850  1.9237
 4308TIP3   OH234482   0.554   2.697   1.089  0.2579  0.3523 -0.0964
 4308TIP3    H134483   0.513   2.683   1.174  0.7736 -1.1367 -0.0660
 4308TIP3    H234484   0.587   2.611   1.064  2.3144  1.2397 -0.6553
 4309TIP3   OH234485   2.350   0.413   0.043  0.0555  0.1670 -0.1128
 4309TIP3    H134486   2.417   0.479   0.024 -0.2721  0.2245 -1.1216
 4309TIP3    H234487   2.316   0.388  -0.043 -2.2458  1.1870  0.4325
 4310TIP3   OH234488   1.821   1.709   0.192  0.6718  0.1655  0.2388
 4310TIP3    H134489   1.765   1.716   0.114  0.3451  0.9018  0.5398
 4310TIP3    H234490   1.818   1.795   0.232  1.8608  0.1530  0.3779
 4311TIP3   OH234491   4.896   1.594   0.772  0.0208  0.2893 -0.1787
 4311TIP3    H134492   4.894   1.634   0.858  1.6679 -0.3177  0.1667
 4311TIP3    H234493   4.824   1.531   0.773 -1.1415  1.5732  0.0630
 4312TIP3   OH234494   5.294   5.470   7.421 -0.1016  0.4197  0.6046
 4312TIP3    H134495   5.244   5.404   7.372  0.3692  0.1375  0.4976
 4312TIP3    H234496   5.308   5.430   7.507  1.2516 -0.1578  0.1437
 4313TIP3   OH234497   5.242   3.421   7.026 -0.0067  0.6101  0.0285
 4313TIP3    H134498   5.206   3.505   6.999 -0.7686  0.0200 -0.8017
 4313TIP3    H234499   5.203   3.405   7.112 -1.3104  0.2445 -0.6135
 4314TIP3   OH234500   6.339   2.451   0.766  0.5404  0.2774 -0.0085
 4314TIP3    H134501   6.323   2.386   0.835 -0.3213 -0.3397 -0.7581
 4314TIP3    H234502   6.397   2.407   0.704 -0.7146 -0.1368 -0.9503
 4315TIP3   OH234503   4.328   3.392   6.975 -0.3347 -0.3538  0.0802
 4315TIP3    H134504   4.264   3.408   6.905  0.9839  3.2542 -0.5083
 4315TIP3    H234505   4.367   3.308   6.953 -2.4180 -0.9976 -1.5009
 4316TIP3   OH234506   2.725   4.961   0.117  0.1159 -0.2021  0.5505
 4316TIP3    H134507   2.681   4.997   0.194 -1.0671  0.7700 -0.5265
 4316TIP3    H234508   2.655   4.954   0.052  1.4419  0.8437 -1.0509
 4317TIP3   OH234509   5.147   4.953   2.322 -0.1661 -0.1036 -0.5532
 4317TIP3    H134510   5.114   4.877   2.274 -1.1466  0.8020 -1.3403
 4317TIP3    H234511   5.117   5.028   2.272  0.4497  0.8304  0.4405
 4318TIP3   OH234512   3.950   3.796   2.242  0.1814  0.3684 -0.0149
 4318TIP3    H134513   3.950   3.807   2.147 -0.9432  0.7222  0.0127
 4318TIP3    H234514   4.040   3.817   2.269  0.4961  0.3024 -0.9908
 4319TIP3   OH234515   1.943   6.808   8.121 -0.1968  0.0992 -0.0797
 4319TIP3    H134516   1.848   6.802   8.114 -0.4620  2.8232  0.0976
 4319TIP3    H234517   1.962   6.902   8.114  2.4909 -0.3601 -0.1223
 4320TIP3   OH234518   3.377   5.623   6.701  0.3743 -0.7053 -0.0393
 4320TIP3    H134519   3.358   5.708   6.662  2.6871  0.9587  2.0997
 4320TIP3    H234520   3.312   5.614   6.771  0.4021 -0.4759  0.0170
 4321TIP3   OH234521   0.013   4.806   8.312  0.0576  0.7029 -0.2039
 4321TIP3    H134522   0.102   4.842   8.317 -0.0050  0.7004  1.1707
 4321TIP3    H234523  -0.036   4.854   8.379 -0.5939 -0.3498  0.0828
 4322TIP3   OH234524   1.081   0.610   8.397  0.4887 -0.6964  0.4420
 4322TIP3    H134525   1.151   0.644   8.342 -0.0920  0.6049  0.4511
 4322TIP3    H234526   1.074   0.675   8.468 -0.4106 -1.0572  0.6918
 4323TIP3   OH234527   4.958   3.398   2.339 -0.2873  0.5696 -0.0803
 4323TIP3    H134528   5.019   3.470   2.325 -0.5149  1.0916  1.3803
 4323TIP3    H234529   4.877   3.441   2.368 -0.3568 -0.2649  1.0442
 4324TIP3   OH234530   1.941   5.848   0.748 -0.6529 -0.5038  0.2033
 4324TIP3    H134531   1.979   5.761   0.760 -0.7354 -0.8355 -1.6349
 4324TIP3    H234532   1.871   5.852   0.813  0.8398 -0.8650  1.9174
 4325TIP3   OH234533   0.052   1.554   7.781  0.0086  0.7539  0.0103
 4325TIP3    H134534  -0.041   1.533   7.770 -0.0410  0.7452  0.4050
 4325TIP3    H234535   0.097   1.504   7.713 -0.3873  1.7447 -1.0119
 4326TIP3   OH234536   0.452   1.470   0.775  0.8476  0.4310  0.1626
 4326TIP3    H134537   0.519   1.530   0.808  0.0518  0.5107  1.7711
 4326TIP3    H234538   0.492   1.384   0.781  1.1449  0.5709  0.2168
 4327TIP3   OH234539   3.120   0.021   0.903  0.6388  0.2188  0.2593
 4327TIP3    H134540   3.191   0.049   0.845  1.0014 -0.6501  0.2773
 4327TIP3    H234541   3.164  -0.024   0.976  0.0075 -1.9334 -0.6139
 4328TIP3   OH234542   4.918   1.890   2.730  0.2477 -0.0133 -0.5991
 4328TIP3    H134543   4.846   1.829   2.714  0.9967 -0.7863 -1.1141
 4328TIP3    H234544   4.995   1.844   2.698  0.9568  0.8503 -0.1559
 4329TIP3   OH234545   2.917   5.037   7.478  0.0758  0.9166 -0.3344
 4329TIP3    H134546   2.945   4.949   7.503 -2.0372  0.4492  0.5826
 4329TIP3    H234547   2.952   5.050   7.390  0.1892 -0.9456 -0.5912
 4330TIP3   OH234548   6.539   4.186   1.606 -0.2391 -0.2353 -0.5457
 4330TIP3    H134549   6.496   4.191   1.521 -1.8725 -0.1961  0.2343
 4330TIP3    H234550   6.477   4.228   1.666  2.5571  3.4892  0.1109
 4331TIP3   OH234551   5.331   1.370   1.423  0.5243  0.2432  0.6384
 4331TIP3    H134552   5.410   1.322   1.446  0.5075  0.6024  1.4710
 4331TIP3    H234553   5.260   1.306   1.430  0.5651  0.2649  1.2417
 4332TIP3   OH234554   2.697   5.484   2.388 -0.0389 -0.1423  0.3675
 4332TIP3    H134555   2.647   5.562   2.412 -1.2035 -1.1786  1.4726
 4332TIP3    H234556   2.727   5.449   2.472  0.0418 -1.1501 -0.0783
 4333TIP3   OH234557   6.061   3.873   0.124  0.3653 -0.0163 -0.5157
 4333TIP3    H134558   6.048   3.964   0.149  0.8058  0.2786 -1.3284
 4333TIP3    H234559   6.069   3.826   0.207  2.5257  1.0368 -0.0543
 4334TIP3   OH234560   1.341   3.699   6.550  0.4903 -0.1220 -0.5426
 4334TIP3    H134561   1.339   3.747   6.633  1.6783 -0.5798 -0.2428
 4334TIP3    H234562   1.250   3.671   6.537  0.0162  1.0884 -0.0824
 4335TIP3   OH234563   1.956   6.566   0.519 -0.0105 -0.1151 -0.9660
 4335TIP3    H134564   1.870   6.551   0.559  0.2183 -0.4773 -0.5957
 4335TIP3    H234565   1.951   6.655   0.483  0.6780  1.3815  2.2814
 4336TIP3   OH234566   0.933   4.765   2.245 -0.2686  0.3073  0.0842
 4336TIP3    H134567   0.864   4.707   2.275  0.0826  0.1168  0.5388
 4336TIP3    H234568   0.893   4.815   2.174 -1.2597  1.1199  1.1935
 4337TIP3   OH234569   0.904   1.502   7.362 -0.4264  0.1930  0.1189
 4337TIP3    H134570   0.967   1.516   7.433  0.0111 -1.1880  0.0301
 4337TIP3    H234571   0.846   1.434   7.396 -1.2634  0.7437 -0.1955
 4338TIP3   OH234572   5.748   0.956   7.524 -0.4681  0.4479  0.0283
 4338TIP3    H134573   5.728   1.020   7.455  2.5220  2.3599  0.7428
 4338TIP3    H234574   5.727   1.001   7.606  0.0367 -0.1349  0.4865
 4339TIP3   OH234575   3.850   1.969   0.215  0.5903  0.1939  0.2679
 4339TIP3    H134576   3.764   2.010   0.222  0.8464  0.6835  0.5676
 4339TIP3    H234577   3.854   1.939   0.124  0.1658  0.3013  0.2100
 4340TIP3   OH234578   0.648   3.226   0.202 -0.6408  0.3454  0.6955
 4340TIP3    H134579   0.579   3.280   0.240 -1.2383 -0.3939  0.6863
 4340TIP3    H234580   0.661   3.262   0.114 -0.8793  0.6087  0.7647
 4341TIP3   OH234581   1.988   4.567   1.964  0.0467  0.1120  0.4627
 4341TIP3    H134582   1.960   4.648   2.006 -2.0210 -0.5764  0.5331
 4341TIP3    H234583   1.939   4.564   1.882  3.2744  0.9524 -1.6451
 4342TIP3   OH234584   5.749   5.573   1.420  0.1226 -0.0844 -0.0875
 4342TIP3    H134585   5.833   5.568   1.374 -0.2951  2.8951 -1.4524
 4342TIP3    H234586   5.754   5.656   1.468 -1.7649 -0.2006  0.3680
 4343TIP3   OH234587   1.621   5.608   1.350 -0.5732  0.0804 -0.1946
 4343TIP3    H134588   1.647   5.687   1.398  1.9384 -1.6179  1.4836
 4343TIP3    H234589   1.645   5.535   1.408 -0.0925 -2.0331 -2.8271
 4344TIP3   OH234590   0.986   2.156   0.988  0.5645  0.5080  0.6869
 4344TIP3    H134591   1.077   2.129   0.992  0.3336 -1.2446 -2.3549
 4344TIP3    H234592   0.938   2.091   1.039  0.7362 -0.6074 -0.5346
 4345TIP3   OH234593   3.939   5.281   1.031  0.1905 -0.1011 -0.4223
 4345TIP3    H134594   3.943   5.202   0.977  1.8896 -1.5750  1.6438
 4345TIP3    H234595   4.029   5.296   1.058 -0.2971  1.7991  0.3286
 4346TIP3   OH234596   6.879   0.518   7.373 -0.1409  0.6553  0.0820
 4346TIP3    H134597   6.859   0.591   7.431  0.3611  0.7382  0.1538
 4346TIP3    H234598   6.904   0.559   7.290 -0.8262  0.5382 -0.1888
 4347TIP3   OH234599   3.230   6.849   0.174  0.0854 -0.7339 -0.1511
 4347TIP3    H134600   3.219   6.903   0.253  1.1020 -0.6488 -0.0599
 4347TIP3    H234601   3.144   6.852   0.131 -0.4027 -0.5525  0.8037
 4348TIP3   OH234602   5.987   0.317   7.717  0.3104  0.1792  0.4594
 4348TIP3    H134603   6.041   0.394   7.698 -0.4559  0.4259 -0.8086
 4348TIP3    H234604   6.026   0.280   7.797  1.9642  0.6864 -0.0709
 4349TIP3   OH234605   1.167   4.447   2.377 -0.1752  0.4702 -0.0977
 4349TIP3    H134606   1.130   4.363   2.350  1.6255 -1.6255  3.3129
 4349TIP3    H234607   1.114   4.474   2.452  1.1008  0.8117  0.7083
 4350TIP3   OH234608   3.058   5.399   1.199  0.4444 -0.2413  0.3056
 4350TIP3    H134609   3.092   5.489   1.199  1.3054 -0.5195 -1.7049
 4350TIP3    H234610   3.012   5.391   1.283 -3.7543  3.6186 -1.1912
 4351TIP3   OH234611   5.378   3.365   0.513  0.2425  0.2258 -0.1190
 4351TIP3    H134612   5.357   3.339   0.424  0.3332  0.5285 -0.2294
 4351TIP3    H234613   5.457   3.417   0.505  0.6376 -0.3174  0.2195
 4352TIP3   OH234614   2.612   4.651   1.632  0.0453 -0.3131 -0.3950
 4352TIP3    H134615   2.589   4.743   1.638  0.5779 -0.2318  0.5445
 4352TIP3    H234616   2.707   4.650   1.622  0.2426 -0.7964  1.2957
 4353TIP3   OH234617   6.747   3.633   0.732 -0.2698 -0.1173 -0.3929
 4353TIP3    H134618   6.675   3.603   0.788  0.8709 -1.3322  0.4587
 4353TIP3    H234619   6.708   3.704   0.680 -1.4369  0.8616  1.7025
 4354TIP3   OH234620   0.185   5.779   6.438  0.0218  0.1348  0.8160
 4354TIP3    H134621   0.105   5.736   6.407 -0.4238 -0.3814  2.6016
 4354TIP3    H234622   0.249   5.708   6.446  0.9449  0.6458 -1.2980
 4355TIP3   OH234623   1.272   2.736   1.684  0.8170 -0.0053 -0.2222
 4355TIP3    H134624   1.338   2.798   1.713 -1.7619  1.4072  3.3741
 4355TIP3    H234625   1.197   2.790   1.658  0.3064 -1.5578 -2.2315
 4356TIP3   OH234626   1.678   2.572   7.732 -0.5576 -0.2830 -0.1819
 4356TIP3    H134627   1.724   2.636   7.786 -1.8660  0.8154 -0.3061
 4356TIP3    H234628   1.640   2.624   7.661 -1.2430 -1.2719 -0.5589
 4357TIP3   OH234629   0.444   5.492   7.856 -0.1946 -0.3265  0.3534
 4357TIP3    H134630   0.453   5.542   7.937  0.2252 -1.9570  1.3571
 4357TIP3    H234631   0.510   5.423   7.862 -1.2464 -1.4839 -0.6135
 4358TIP3   OH234632   6.574   1.791   2.414  0.1884 -0.6377 -0.0038
 4358TIP3    H134633   6.605   1.700   2.416  1.3086 -0.2688 -0.1788
 4358TIP3    H234634   6.628   1.836   2.479 -0.3013 -0.0698  0.0168
 4359TIP3   OH234635   5.288   5.248   0.789 -0.3561 -0.4712  0.3373
 4359TIP3    H134636   5.269   5.342   0.797  1.6436 -0.0309  0.4250
 4359TIP3    H234637   5.250   5.222   0.705 -0.9437  0.4112  0.3207
 4360TIP3   OH234638   5.411   4.758   6.656 -0.2791 -0.1410  0.2474
 4360TIP3    H134639   5.332   4.712   6.629 -0.3577 -0.4526  0.9697
 4360TIP3    H234640   5.384   4.850   6.663 -0.7537 -0.3269  1.0777
 4361TIP3   OH234641   4.705   0.484   8.084 -0.0361 -0.0243 -0.2724
 4361TIP3    H134642   4.626   0.446   8.123  0.6401 -0.6003  0.6009
 4361TIP3    H234643   4.688   0.486   7.990 -1.3653  0.5419 -0.0274
 4362TIP3   OH234644   0.038   6.267   6.755 -0.7520 -0.5495  0.2673
 4362TIP3    H134645   0.060   6.260   6.662 -0.2576 -1.5826  0.4384
 4362TIP3    H234646   0.090   6.340   6.788  0.6962 -1.4990  0.1605
 4363TIP3   OH234647   5.415   0.822   0.035  0.1393  0.3445 -0.1885
 4363TIP3    H134648   5.502   0.838   0.000  0.6103  1.3612  1.3431
 4363TIP3    H234649   5.407   0.883   0.109 -1.3681 -0.6240  0.5048
 4364TIP3   OH234650   2.257   1.397   0.787 -0.1810  0.4236  0.0991
 4364TIP3    H134651   2.169   1.397   0.750  0.1883  1.0722 -0.8129
 4364TIP3    H234652   2.314   1.422   0.714  0.9428 -1.4824  0.2475
 4365TIP3   OH234653   4.432   0.684   7.396  0.4521 -0.1594 -0.2945
 4365TIP3    H134654   4.388   0.622   7.337 -0.5714 -0.1220  0.3981
 4365TIP3    H234655   4.393   0.769   7.376 -1.5524 -0.4534  1.8626
 4366TIP3   OH234656   1.875   0.705   7.481 -0.1128 -0.2996 -0.1127
 4366TIP3    H134657   1.782   0.729   7.476  0.5800  2.3580 -2.5801
 4366TIP3    H234658   1.878   0.615   7.449 -1.7107  0.0014 -1.2048
 4367TIP3   OH234659   5.565   5.215   7.303  0.4375 -0.7169 -0.0127
 4367TIP3    H134660   5.653   5.199   7.269  0.7216  0.6555  0.0303
 4367TIP3    H234661   5.562   5.309   7.319 -0.4891 -0.9752  1.5269
 4368TIP3   OH234662   6.148   4.553   0.751  0.0557 -0.0025 -0.7366
 4368TIP3    H134663   6.120   4.464   0.772  0.2511  0.0594 -0.2046
 4368TIP3    H234664   6.182   4.546   0.662 -0.1662 -0.4058 -0.7966
 4369TIP3   OH234665   6.013   4.668   6.497  0.4105 -0.3093  0.0494
 4369TIP3    H134666   6.052   4.688   6.582  0.7289  0.4853 -0.2668
 4369TIP3    H234667   5.944   4.734   6.487  1.4014  0.6160 -0.9734
 4370TIP3   OH234668   4.895   6.480   0.859 -0.0039  0.0708 -0.3228
 4370TIP3    H134669   4.874   6.467   0.952 -0.0643 -0.5627 -0.4225
 4370TIP3    H234670   4.892   6.575   0.847  0.0266  0.1597  0.3298
 4371TIP3   OH234671   6.363   4.641   7.935  0.0008  0.7985  0.4759
 4371TIP3    H134672   6.422   4.589   7.989 -0.0261 -0.4573 -0.6564
 4371TIP3    H234673   6.353   4.723   7.983 -0.9889 -0.6803  3.0087
 4372TIP3   OH234674   5.157   6.325   1.016  0.0272 -0.3348 -0.4133
 4372TIP3    H134675   5.209   6.404   1.029 -0.7600  0.3889 -1.4874
 4372TIP3    H234676   5.219   6.260   0.984  0.6730 -0.1449  0.4186
 4373TIP3   OH234677   0.392   3.407   0.738 -0.7980 -0.0043  0.1982
 4373TIP3    H134678   0.367   3.338   0.676 -2.4141 -0.1754  1.0094
 4373TIP3    H234679   0.474   3.375   0.776  0.6996  0.4742 -2.3712
 4374TIP3   OH234680   4.029   1.229   1.272  0.5468 -0.1089  0.4194
 4374TIP3    H134681   4.058   1.146   1.310  1.5544  0.2385  0.4469
 4374TIP3    H234682   4.107   1.263   1.227 -0.0356  0.5066 -0.1547
 4375TIP3   OH234683   1.576   4.628   7.901  0.2627  0.0646  0.1881
 4375TIP3    H134684   1.613   4.553   7.947  0.1862  0.4596  0.9261
 4375TIP3    H234685   1.572   4.602   7.809  1.0362 -0.5080  0.3106
 4376TIP3   OH234686   3.629   5.873   0.251  0.6642 -0.4371 -0.6307
 4376TIP3    H134687   3.657   5.784   0.229 -0.8004 -1.1189  0.1321
 4376TIP3    H234688   3.589   5.864   0.337 -1.5567  0.5187 -1.5033
 4377TIP3   OH234689   5.822   0.870   0.913 -0.3196 -0.3575  0.0771
 4377TIP3    H134690   5.833   0.786   0.958  0.0940 -0.2920  0.0997
 4377TIP3    H234691   5.727   0.883   0.910 -0.3753  0.8930  3.3186
 4378TIP3   OH234692   3.844   0.382   8.304  0.1993  0.3473  0.5269
 4378TIP3    H134693   3.831   0.370   8.398  0.6310 -0.5435  0.4821
 4378TIP3    H234694   3.784   0.452   8.281  0.6272  1.1041  1.6073
 4379TIP3   OH234695   4.623   3.936   0.275 -0.1419 -0.1113 -0.5302
 4379TIP3    H134696   4.666   3.875   0.215 -1.2339 -1.8293  0.3392
 4379TIP3    H234697   4.646   4.023   0.242  1.0266 -0.9746 -2.1468
 4380TIP3   OH234698   1.910   1.301   1.587 -0.2047  0.3100  0.4171
 4380TIP3    H134699   1.853   1.375   1.610 -1.1354  0.0191 -0.8543
 4380TIP3    H234700   1.878   1.272   1.501  2.0797  0.3363 -0.4998
 4381TIP3   OH234701   4.465   2.084   0.476  0.0778 -0.2353 -0.0999
 4381TIP3    H134702   4.518   2.004   0.475  1.8203  0.8664  0.6462
 4381TIP3    H234703   4.413   2.078   0.396  1.4764 -1.2713 -0.9823
 4382TIP3   OH234704   6.067   5.431   8.477  0.0848 -0.2436 -0.0494
 4382TIP3    H134705   6.107   5.349   8.448 -0.7438 -1.3386  1.6998
 4382TIP3    H234706   5.974   5.411   8.488 -0.3010  1.1998 -0.4612
 4383TIP3   OH234707   4.625   4.888   0.257 -0.7909 -0.1515 -0.5978
 4383TIP3    H134708   4.708   4.860   0.218 -0.9072 -0.3341 -0.7131
 4383TIP3    H234709   4.632   4.983   0.264 -1.2079  0.0033 -2.0578
 4384TIP3   OH234710   1.866   3.721   6.140 -0.3143  0.2809 -0.1941
 4384TIP3    H134711   1.942   3.746   6.088  0.5147 -0.7240  0.5045
 4384TIP3    H234712   1.898   3.717   6.230 -1.0638 -0.6433  0.0483
 4385TIP3   OH234713   3.910   6.069   7.493 -0.1925  0.0890 -0.2348
 4385TIP3    H134714   3.989   6.031   7.531 -0.5621 -0.0527  0.3948
 4385TIP3    H234715   3.926   6.163   7.492 -0.1773  0.0928  0.2663
 4386TIP3   OH234716   4.323   2.543   7.182 -0.1458  0.3716 -0.0562
 4386TIP3    H134717   4.326   2.506   7.094  2.6088  1.2861 -0.4631
 4386TIP3    H234718   4.305   2.636   7.169 -1.4277  0.2257  0.5187
 4387TIP3   OH234719   3.242   4.319   8.176  0.3660  0.1483  0.1413
 4387TIP3    H134720   3.281   4.388   8.230 -1.3615  0.7953  0.6397
 4387TIP3    H234721   3.266   4.343   8.086  1.6469  0.1359  0.4605
 4388TIP3   OH234722   0.403   4.088   6.474 -0.1703  0.0374 -0.1405
 4388TIP3    H134723   0.432   4.055   6.389 -1.5326  0.5729 -0.8506
 4388TIP3    H234724   0.483   4.121   6.515  0.6031 -0.7469 -0.9692
 4389TIP3   OH234725   6.748   3.854   7.286 -0.5001 -0.1921 -0.1018
 4389TIP3    H134726   6.756   3.904   7.205  1.9919 -0.1921  0.0464
 4389TIP3    H234727   6.781   3.913   7.354 -2.3060 -0.2873  0.9025
 4390TIP3   OH234728   4.812   4.137   0.168 -0.4930 -0.3413  0.5136
 4390TIP3    H134729   4.878   4.170   0.229 -1.3266 -0.4302  1.4796
 4390TIP3    H234730   4.758   4.214   0.148  1.4675  0.4324 -2.4507
 4391TIP3   OH234731   3.272   3.810   1.688  0.1686  0.2337 -0.2519
 4391TIP3    H134732   3.357   3.847   1.667  0.0865  1.2262  1.0547
 4391TIP3    H234733   3.279   3.784   1.780 -1.3095  1.4998  0.2647
 4392TIP3   OH234734   4.104   3.658   2.738 -0.1351 -0.2364 -0.0378
 4392TIP3    H134735   4.041   3.703   2.795 -0.8458  1.8741 -2.3203
 4392TIP3    H234736   4.058   3.580   2.708 -1.6212  1.0663 -1.3480
 4393TIP3   OH234737   6.794   6.197   1.805 -0.0644  0.1894 -0.0185
 4393TIP3    H134738   6.855   6.124   1.806 -0.1480 -0.0435 -2.9905
 4393TIP3    H234739   6.708   6.157   1.817 -0.1689 -0.3715 -2.2301
 4394TIP3   OH234740   6.270   5.983   8.053 -0.2802 -0.1066 -0.0780
 4394TIP3    H134741   6.280   6.075   8.029 -0.7966  0.7021  2.5095
 4394TIP3    H234742   6.180   5.976   8.083  0.2645 -0.9782  1.4829
 4395TIP3   OH234743   5.651   4.764   2.594  0.1393  0.0566 -0.2067
 4395TIP3    H134744   5.681   4.747   2.505  2.5231 -0.6166  0.6649
 4395TIP3    H234745   5.654   4.859   2.603  1.1550  0.0540 -0.4469
 4396TIP3   OH234746   1.662   1.169   1.028 -0.0787  0.1867 -0.0664
 4396TIP3    H134747   1.636   1.150   1.118 -1.3641  0.1431 -0.4196
 4396TIP3    H234748   1.755   1.191   1.034  0.7173 -2.8450  0.8608
 4397TIP3   OH234749   2.423   4.703   1.032 -0.0888 -0.4294  0.1803
 4397TIP3    H134750   2.443   4.796   1.035 -1.3937 -0.0589 -1.2950
 4397TIP3    H234751   2.451   4.670   1.118  2.7982  0.7682 -0.1876
 4398TIP3   OH234752   5.470   5.988   8.408  0.6496 -0.2186  0.2209
 4398TIP3    H134753   5.450   5.924   8.477  0.6017 -1.0453 -0.5462
 4398TIP3    H234754   5.386   6.004   8.366  0.4552  1.1687  1.0691
 4399TIP3   OH234755   0.861   6.528   8.434 -0.1795  0.1320  0.5945
 4399TIP3    H134756   0.821   6.613   8.452  0.5316  0.5415  0.2873
 4399TIP3    H234757   0.955   6.544   8.441  0.0169 -0.3201 -0.7485
 4400TIP3   OH234758   5.112   0.995   0.027 -0.2568  0.6802 -0.2584
 4400TIP3    H134759   5.111   1.086   0.054  1.1337  0.1801  1.6865
 4400TIP3    H234760   5.054   0.950   0.089 -0.5081  0.1492 -0.8596
 4401TIP3   OH234761   1.002   3.169   7.617 -0.2031  0.2305 -0.7085
 4401TIP3    H134762   0.941   3.226   7.571 -0.1229  1.7129  0.9284
 4401TIP3    H234763   0.976   3.175   7.709  0.9786 -0.9173 -0.2640
 4402TIP3   OH234764   1.118   5.148   2.152 -0.3901  0.0453 -0.5033
 4402TIP3    H134765   1.115   5.069   2.205 -0.2190  0.2403 -0.2045
 4402TIP3    H234766   1.117   5.220   2.215 -0.0799  0.2760 -0.7571
 4403TIP3   OH234767   3.069   4.849   0.531 -0.1715 -0.2433 -0.1847
 4403TIP3    H134768   3.008   4.921   0.519  0.3265  0.1599 -0.3463
 4403TIP3    H234769   3.014   4.771   0.538 -0.7393  0.1955  0.4101
 4404TIP3   OH234770   0.574   0.449   0.213  0.2656 -0.1229  0.6150
 4404TIP3    H134771   0.596   0.431   0.304 -1.2176 -0.1034  0.9974
 4404TIP3    H234772   0.479   0.449   0.211  0.2685  1.1336 -0.6928
 4405TIP3   OH234773   2.779   2.288   8.526 -0.6993  0.6060 -0.8256
 4405TIP3    H134774   2.742   2.228   8.589  0.4865  0.2739 -0.4187
 4405TIP3    H234775   2.874   2.279   8.536 -0.4859  1.0309 -2.1848
 4406TIP3   OH234776   6.719   5.735   0.773  0.0655  0.3119 -0.0761
 4406TIP3    H134777   6.700   5.643   0.755 -0.7891  0.4215  0.2123
 4406TIP3    H234778   6.731   5.774   0.687 -0.9460  0.2077 -0.2750
 4407TIP3   OH234779   6.406   1.872   7.484 -0.5122  0.3475 -0.7329
 4407TIP3    H134780   6.472   1.935   7.455  1.2190 -0.1874  1.7280
 4407TIP3    H234781   6.456   1.792   7.504 -1.4102  0.5562  3.2833
 4408TIP3   OH234782   5.514   2.372   0.405 -0.0647  0.6415 -0.1976
 4408TIP3    H134783   5.505   2.462   0.436 -0.3173  0.5857 -0.1062
 4408TIP3    H234784   5.478   2.318   0.475  0.6644  0.4273  0.0184
 4409TIP3   OH234785   1.916   6.088   8.095 -0.3765  0.1257 -0.1051
 4409TIP3    H134786   2.001   6.113   8.058  0.4227 -0.6168  1.1355
 4409TIP3    H234787   1.902   6.151   8.166 -1.5591  1.1072 -1.1586
 4410TIP3   OH234788   4.499   5.841   6.991 -0.1121  0.0703  0.8242
 4410TIP3    H134789   4.570   5.875   6.937 -0.5726  1.2528  0.9187
 4410TIP3    H234790   4.537   5.769   7.040  0.5428 -0.4630 -0.4354
 4411TIP3   OH234791   6.404   4.547   1.622  0.4480  0.3013  0.1132
 4411TIP3    H134792   6.374   4.517   1.708  1.5285 -0.9603  0.0864
 4411TIP3    H234793   6.343   4.507   1.560  1.9378 -2.1438  0.0690
 4412TIP3   OH234794   5.416   6.901   8.156 -0.1419  0.1999 -1.1910
 4412TIP3    H134795   5.386   6.812   8.139 -0.4755 -0.1023  0.7208
 4412TIP3    H234796   5.512   6.893   8.162 -0.1410  0.0422 -1.4191
 4413TIP3   OH234797   4.342   2.175   7.169 -0.1850 -0.0450 -0.5868
 4413TIP3    H134798   4.336   2.220   7.253 -0.8246  1.5112 -1.4323
 4413TIP3    H234799   4.369   2.086   7.192 -0.2333  0.3692  1.2461
 4414TIP3   OH234800   1.058   3.428   7.095 -0.5173 -0.6464  0.4482
 4414TIP3    H134801   1.108   3.503   7.064  0.6217 -1.4178  0.3767
 4414TIP3    H234802   0.970   3.463   7.109 -0.0486  0.6676  0.2960
 4415TIP3   OH234803   3.119   5.349   1.762 -0.0201  0.2236 -0.4060
 4415TIP3    H134804   3.129   5.308   1.848 -0.8094 -1.4473 -1.0552
 4415TIP3    H234805   3.053   5.417   1.776 -1.8396 -1.5019 -0.0765
 4416TIP3   OH234806   5.512   2.770   8.086  0.4070  0.2748 -0.2402
 4416TIP3    H134807   5.531   2.833   8.016  0.0540 -0.1399 -0.7261
 4416TIP3    H234808   5.517   2.685   8.043  1.1811 -0.0523  0.4810
 4417TIP3   OH234809   6.781   5.423   0.770  0.4601  0.4507  0.3429
 4417TIP3    H134810   6.764   5.449   0.860 -0.2450  0.0658  0.3328
 4417TIP3    H234811   6.864   5.464   0.748  0.7873  0.2982  1.2663
 4418TIP3   OH234812   2.140   6.046   6.808 -0.1691 -0.4089 -1.1447
 4418TIP3    H134813   2.124   6.116   6.872 -0.4297 -1.5665  0.1013
 4418TIP3    H234814   2.147   6.091   6.724 -3.4458  0.8395 -0.8650
 4419TIP3   OH234815   1.263   4.221   0.265  0.1279  0.0994  0.3368
 4419TIP3    H134816   1.197   4.275   0.222  0.3054  0.1304  0.1014
 4419TIP3    H234817   1.347   4.259   0.238  0.2798 -0.6743 -0.3571
 4420TIP3   OH234818   1.299   2.515   8.386 -0.0531 -0.4452  0.0321
 4420TIP3    H134819   1.261   2.507   8.299 -0.1872 -0.7052  0.1131
 4420TIP3    H234820   1.330   2.427   8.406 -0.0157 -0.3837  0.2440
 4421TIP3   OH234821   5.110   6.305   8.030 -0.0097 -0.0454  0.3627
 4421TIP3    H134822   5.032   6.353   8.000 -1.2255 -1.0317  1.7644
 4421TIP3    H234823   5.101   6.219   7.991  1.6866  0.5311 -1.4064
 4422TIP3   OH234824   4.364   5.018   2.457 -0.4248 -0.6693 -0.6866
 4422TIP3    H134825   4.452   5.024   2.421  0.7388  1.5020  2.1190
 4422TIP3    H234826   4.367   4.941   2.514  0.0216 -0.0359  0.1677
 4423TIP3   OH234827   0.607   4.656   2.195 -0.0250  0.4837 -0.4766
 4423TIP3    H134828   0.673   4.590   2.176 -0.4931  0.2799 -1.4103
 4423TIP3    H234829   0.532   4.606   2.227 -1.4529  0.2192 -3.9116
 4424TIP3   OH234830   2.258   1.156   1.335 -0.6365 -0.1236  0.4375
 4424TIP3    H134831   2.225   1.072   1.368  0.5554 -0.3032  1.2646
 4424TIP3    H234832   2.328   1.179   1.396  0.0992  0.7058 -0.6801
 4425TIP3   OH234833   0.692   2.421   8.342  0.1651  0.2580  0.0302
 4425TIP3    H134834   0.730   2.372   8.269  0.0108 -0.2965  0.3239
 4425TIP3    H234835   0.629   2.480   8.300  1.7398  1.6292 -0.5333
 4426TIP3   OH234836   3.726   5.277   8.275 -0.0712 -0.2598  0.1753
 4426TIP3    H134837   3.640   5.236   8.271 -0.3109  0.0140  1.7607
 4426TIP3    H234838   3.724   5.345   8.208 -1.4099  0.2974  0.7489
 4427TIP3   OH234839   2.581   4.625   1.247  0.3935 -0.0415 -0.2165
 4427TIP3    H134840   2.623   4.545   1.280  1.0559 -0.1798 -1.3293
 4427TIP3    H234841   2.619   4.696   1.300 -0.8679 -0.5121  1.3977
 4428TIP3   OH234842   1.839   6.618   1.620 -0.0781 -0.4500 -0.5283
 4428TIP3    H134843   1.765   6.650   1.671  2.0452  2.0062  1.2418
 4428TIP3    H234844   1.884   6.556   1.678 -0.8734 -2.2238 -1.7307
 4429TIP3   OH234845   2.199   1.070   6.735 -0.0228  0.3536  0.0248
 4429TIP3    H134846   2.231   1.156   6.764  2.0721 -0.0690 -0.8838
 4429TIP3    H234847   2.127   1.090   6.675 -0.1689  1.4261  0.5328
 4430TIP3   OH234848   2.595   6.272   1.960 -0.0141  0.2556  0.4103
 4430TIP3    H134849   2.601   6.205   2.028 -0.0097 -0.4327 -0.2537
 4430TIP3    H234850   2.503   6.270   1.934 -0.0908  0.7615  0.6296
 4431TIP3   OH234851   0.025   6.365   8.405 -0.3832 -0.6191  0.1575
 4431TIP3    H134852  -0.026   6.358   8.324  0.2182  0.8610 -0.3800
 4431TIP3    H234853   0.116   6.367   8.375 -0.1367 -0.5149  0.9141
 4432TIP3   OH234854   4.955   0.069   2.025  0.2055 -0.0941  0.4712
 4432TIP3    H134855   4.879   0.053   2.081 -0.1615  1.2395  0.3760
 4432TIP3    H234856   5.025   0.090   2.087 -0.2837  1.7236  0.4767
 4433TIP3   OH234857   0.834   1.482   7.799 -0.5596  0.7606  0.4637
 4433TIP3    H134858   0.807   1.393   7.775 -1.6915  1.4878 -1.1942
 4433TIP3    H234859   0.926   1.488   7.773 -0.7264  0.3237 -0.2663
 4434TIP3   OH234860   0.519   6.538   8.181 -0.0054 -0.0870  0.6900
 4434TIP3    H134861   0.544   6.603   8.246 -1.8930 -0.8701  2.2996
 4434TIP3    H234862   0.448   6.580   8.132  0.1995 -0.1603  0.3305
 4435TIP3   OH234863   6.453   6.573   0.835 -0.7047 -0.8098  0.2637
 4435TIP3    H134864   6.412   6.659   0.836  0.3076 -0.3046 -0.1435
 4435TIP3    H234865   6.380   6.511   0.838 -1.4264  0.0528  1.1639
 4436TIP3   OH234866   5.036   2.139   7.786  0.0832 -0.3982  0.0826
 4436TIP3    H134867   4.949   2.150   7.822 -1.1921 -0.1930 -2.7906
 4436TIP3    H234868   5.084   2.218   7.812 -0.6389 -0.3922  1.4545
 4437TIP3   OH234869   6.513   2.604   7.012  0.6286  0.0818  0.5015
 4437TIP3    H134870   6.440   2.586   6.954  0.9946 -0.6331  0.2434
 4437TIP3    H234871   6.493   2.689   7.052 -1.1281 -0.8189  1.6724
 4438TIP3   OH234872   5.678   6.226   0.850 -0.3184  0.1887  0.2590
 4438TIP3    H134873   5.765   6.261   0.832 -0.5611  0.8797  0.3760
 4438TIP3    H234874   5.631   6.299   0.892 -0.9175 -0.2042  0.2884
 4439TIP3   OH234875   5.939   2.868   0.304 -0.0207 -0.1677 -0.2712
 4439TIP3    H134876   6.017   2.822   0.335 -0.0511 -0.3161 -0.4143
 4439TIP3    H234877   5.877   2.798   0.282 -0.9827 -0.0655  1.8040
 4440TIP3   OH234878   0.525   0.930   8.458 -0.4849  0.7837 -0.2540
 4440TIP3    H134879   0.482   0.870   8.519 -0.4776 -0.1765 -1.1630
 4440TIP3    H234880   0.614   0.940   8.492 -0.1605 -0.5712 -0.6533
 4441TIP3   OH234881   0.657   3.695   6.945 -0.3564  0.3269  0.2979
 4441TIP3    H134882   0.674   3.748   6.868  0.9948  2.0142  1.6916
 4441TIP3    H234883   0.566   3.713   6.967 -0.6836  0.0065 -0.7456
 4442TIP3   OH234884   5.950   1.638   8.300 -0.6607  0.1624 -0.3766
 4442TIP3    H134885   6.014   1.702   8.333 -0.6319 -0.0036 -0.1012
 4442TIP3    H234886   6.002   1.558   8.285 -0.9146 -0.1863  0.5112
 4443TIP3   OH234887   5.359   1.926   2.674 -0.1801  0.3591  0.3681
 4443TIP3    H134888   5.437   1.978   2.658  0.9223 -0.8628  1.4988
 4443TIP3    H234889   5.309   1.976   2.738  0.8800  0.0525  1.4690
 4444TIP3   OH234890   4.922   0.836   0.551  0.3988 -0.1730  0.1885
 4444TIP3    H134891   5.003   0.809   0.509 -0.8579 -0.6297 -2.0773
 4444TIP3    H234892   4.943   0.920   0.591  1.8087  0.0536 -0.9484
 4445TIP3   OH234893   4.430   0.840   0.175 -0.1630 -0.4765 -0.7488
 4445TIP3    H134894   4.406   0.793   0.254  0.3673  0.0427 -0.2711
 4445TIP3    H234895   4.466   0.773   0.117  2.7225 -0.3900  0.7782
 4446TIP3   OH234896   4.315   1.636   6.970 -0.1140  0.3485  0.5715
 4446TIP3    H134897   4.257   1.565   6.942  1.2984 -0.3085 -0.8336
 4446TIP3    H234898   4.272   1.716   6.938 -1.9814  0.2394  2.6242
 4447TIP3   OH234899   3.673   5.435   7.852 -0.5097  0.6525 -0.0308
 4447TIP3    H134900   3.590   5.391   7.831  0.7032 -2.0249  0.3556
 4447TIP3    H234901   3.738   5.390   7.799  1.0306  1.0196  1.4596
 4448TIP3   OH234902   3.654   3.706   1.801 -0.0523  0.0996 -0.1866
 4448TIP3    H134903   3.568   3.665   1.794 -0.9072  1.1875  2.4636
 4448TIP3    H234904   3.634   3.800   1.808  1.2241  0.2625  1.7473
 4449TIP3   OH234905   5.279   1.928   0.207  0.0646 -0.4039 -0.6533
 4449TIP3    H134906   5.306   1.948   0.296 -1.4054 -1.1675 -0.0101
 4449TIP3    H234907   5.183   1.938   0.208  0.1734  1.8821 -2.7403
 4450TIP3   OH234908   3.522   3.093   2.966  0.4886  0.0178  0.5864
 4450TIP3    H134909   3.591   3.030   2.948  0.7538  0.5866 -0.4796
 4450TIP3    H234910   3.568   3.175   2.984  0.0978  0.4140 -0.1833
 4451TIP3   OH234911   6.025   0.880   7.772 -0.1916  0.4076 -0.3848
 4451TIP3    H134912   5.987   0.801   7.811 -1.9319  0.9900 -0.8121
 4451TIP3    H234913   6.017   0.946   7.841 -0.9241  0.7955 -0.8354
 4452TIP3   OH234914   1.828   6.633   7.488  0.2800 -0.4867 -0.2322
 4452TIP3    H134915   1.905   6.589   7.453  1.9727  1.3872  0.8826
 4452TIP3    H234916   1.810   6.703   7.425  0.7807  0.3292  0.5049
 4453TIP3   OH234917   1.414   3.104   7.358  0.2238  0.6419 -0.2425
 4453TIP3    H134918   1.389   3.120   7.449  1.2534  0.3137  0.1148
 4453TIP3    H234919   1.334   3.120   7.307 -0.7707 -0.6612  0.8562
 4454TIP3   OH234920   0.119   0.143   6.706  0.2922 -0.0745 -0.3860
 4454TIP3    H134921   0.202   0.187   6.691  0.7195 -1.3527 -2.0526
 4454TIP3    H234922   0.141   0.050   6.709 -0.5963 -0.2963  2.9400
 4455TIP3   OH234923   2.038   4.489   0.751 -0.0306 -0.3545 -0.0362
 4455TIP3    H134924   1.989   4.516   0.828 -0.6972  1.2325 -0.9616
 4455TIP3    H234925   2.125   4.528   0.763 -0.4299  0.7198 -0.5084
 4456TIP3   OH234926   4.218   6.803   1.357 -0.7052  0.4303 -0.1207
 4456TIP3    H134927   4.223   6.871   1.290 -0.9354 -1.5758 -2.3030
 4456TIP3    H234928   4.125   6.794   1.376 -0.6555  0.8514  0.3676
 4457TIP3   OH234929   5.626   1.498   0.420 -0.1127  0.0878 -0.5749
 4457TIP3    H134930   5.574   1.551   0.359  0.9152 -0.1868 -1.7142
 4457TIP3    H234931   5.642   1.416   0.372 -1.5722 -1.2697  1.0962
 4458TIP3   OH234932   2.433   2.373   8.448  0.1574  0.4343  0.1067
 4458TIP3    H134933   2.431   2.356   8.354  0.0045  1.8097 -0.1600
 4458TIP3    H234934   2.463   2.464   8.455  0.3891  0.2754  1.4000
 4459TIP3   OH234935   1.623   4.796   1.618  0.6465 -0.6367 -0.1321
 4459TIP3    H134936   1.556   4.756   1.562  1.9827 -2.9501 -0.2042
 4459TIP3    H234937   1.643   4.879   1.575 -1.1139 -0.5411 -0.8810
 4460TIP3   OH234938   0.241   0.278   1.712  0.1856  0.4453  0.0646
 4460TIP3    H134939   0.287   0.211   1.662  1.3657  1.9682 -1.0173
 4460TIP3    H234940   0.268   0.264   1.802 -0.6213 -1.2943  0.0668
 4461TIP3   OH234941   5.748   1.180   8.323 -1.0554  0.0372  0.0232
 4461TIP3    H134942   5.721   1.088   8.330 -1.8224  0.2981  0.7796
 4461TIP3    H234943   5.709   1.222   8.401 -1.1563  1.0995 -0.5792
 4462TIP3   OH234944   2.904   3.186   2.004 -0.4333 -0.3118 -0.1795
 4462TIP3    H134945   2.992   3.175   1.966  0.5621  3.0011  0.8964
 4462TIP3    H234946   2.910   3.142   2.089 -0.3231 -1.3567 -0.7049
 4463TIP3   OH234947   6.050   4.393   7.321 -0.4617 -0.6421  0.2007
 4463TIP3    H134948   6.009   4.310   7.347 -0.6650 -0.5930  0.0428
 4463TIP3    H234949   5.989   4.460   7.351 -0.1958 -0.5380  0.5135
 4464TIP3   OH234950   6.137   2.403   8.234  0.6770  0.2004  0.2025
 4464TIP3    H134951   6.042   2.406   8.248  0.6585  0.8641 -0.0243
 4464TIP3    H234952   6.151   2.457   8.155  0.8742 -2.6699 -1.8723
 4465TIP3   OH234953   5.987   6.690   7.200  0.2914 -0.3597 -0.4133
 4465TIP3    H134954   5.965   6.735   7.282 -0.6182 -2.8006  0.7834
 4465TIP3    H234955   6.082   6.698   7.194  0.4062 -0.2978  1.0273
 4466TIP3   OH234956   0.128   3.780   7.117  0.0234 -0.5677 -0.1419
 4466TIP3    H134957   0.136   3.870   7.149  1.6640  0.1159 -2.2472
 4466TIP3    H234958   0.050   3.746   7.161  0.1852  1.3874  1.8084
 4467TIP3   OH234959   2.440   6.625   0.023  0.1058 -0.3680 -0.2529
 4467TIP3    H134960   2.401   6.554  -0.027 -2.1997 -0.2335  1.2050
 4467TIP3    H234961   2.403   6.704  -0.016 -1.8833 -0.2689  1.6575
 4468TIP3   OH234962   2.777   0.194   0.127  0.3646 -0.4960 -0.3098
 4468TIP3    H134963   2.824   0.277   0.138  2.9590 -1.6272 -1.8497
 4468TIP3    H234964   2.696   0.218   0.083  0.0157  1.4161  1.2133
 4469TIP3   OH234965   0.056   2.760   7.663  0.2749 -0.5827 -0.4181
 4469TIP3    H134966   0.038   2.802   7.746 -0.0464  1.4124 -1.4437
 4469TIP3    H234967  -0.028   2.761   7.617  0.7035 -0.5800 -1.2204
 4470TIP3   OH234968   3.432   5.720   6.333 -0.1908 -0.5423 -1.0190
 4470TIP3    H134969   3.491   5.789   6.363  1.9129 -2.3338 -0.6810
 4470TIP3    H234970   3.344   5.752   6.351  0.7804  0.8665  1.7497
 4471TIP3   OH234971   3.367   1.377   8.040 -0.1745 -0.3664 -0.1181
 4471TIP3    H134972   3.456   1.347   8.027  0.8821  1.8482  1.2257
 4471TIP3    H234973   3.361   1.395   8.134 -1.1531  1.9044 -0.5259
 4472TIP3   OH234974   4.153   0.898   2.054 -0.8959 -0.0139 -0.1073
 4472TIP3    H134975   4.236   0.887   2.100 -0.4526 -2.6768 -1.3775
 4472TIP3    H234976   4.098   0.826   2.086 -2.5948  1.3968  0.3412
 4473TIP3   OH234977   4.868   4.364   7.672  0.1660 -0.2734  0.5761
 4473TIP3    H134978   4.824   4.374   7.756 -0.7909  0.1688  0.0474
 4473TIP3    H234979   4.911   4.279   7.676  1.0154  0.1940  1.8918
 4474TIP3   OH234980   0.135   0.941   7.638  0.1349  0.5199  0.3422
 4474TIP3    H134981   0.222   0.971   7.609  0.8891 -1.5127  0.3693
 4474TIP3    H234982   0.085   0.931   7.557  0.7663 -0.7240  0.0823
 4475TIP3   OH234983   1.952   2.006   7.157 -0.5429 -0.0044 -0.0367
 4475TIP3    H134984   1.887   1.993   7.088 -3.0879  1.7733  1.8336
 4475TIP3    H234985   1.963   2.101   7.162  2.5269 -0.2311 -0.4300
 4476TIP3   OH234986   6.143   3.690   0.335  0.2613  0.0995  0.2363
 4476TIP3    H134987   6.159   3.657   0.423  1.0503 -0.8681 -0.2547
 4476TIP3    H234988   6.231   3.703   0.298 -0.0514  1.1306 -0.1847
 4477TIP3   OH234989   5.734   1.722   2.185  0.2986  0.1601 -0.6085
 4477TIP3    H134990   5.639   1.706   2.190  0.2817 -0.4103 -2.2798
 4477TIP3    H234991   5.765   1.708   2.275 -1.1171 -0.1939 -0.1477
 4478TIP3   OH234992   5.987   4.827   7.398  0.3033 -0.4341 -0.1377
 4478TIP3    H134993   5.899   4.832   7.360 -0.3194 -0.5342  1.2207
 4478TIP3    H234994   6.012   4.735   7.389 -0.4189 -0.7569  0.8686
 4479TIP3   OH234995   0.428   0.410   1.466  0.3106  0.1909  0.0441
 4479TIP3    H134996   0.411   0.363   1.385 -1.7355  0.0395  0.4986
 4479TIP3    H234997   0.417   0.502   1.443 -1.5281  0.0858  0.3686
 4480TIP3   OH234998   4.878   2.361   8.247  0.2798 -0.0121 -0.5113
 4480TIP3    H134999   4.964   2.389   8.279  0.8551 -1.5214 -0.6454
 4480TIP3    H235000   4.891   2.348   8.153 -0.3056  0.4601 -0.6643
 4481TIP3   OH235001   5.077   3.437   1.824 -0.3798  0.2777 -0.1042
 4481TIP3    H135002   5.106   3.397   1.743 -0.7092 -0.9605  0.3706
 4481TIP3    H235003   5.047   3.364   1.878  0.5186  0.9864  1.4207
 4482TIP3   OH235004   5.654   3.223   7.833 -0.0819 -0.1066  0.2074
 4482TIP3    H135005   5.701   3.252   7.755 -0.3034 -1.2135 -0.3592
 4482TIP3    H235006   5.605   3.300   7.862 -0.2513  0.2330 -0.9412
 4483TIP3   OH235007   1.819   2.190   1.498 -0.0301 -0.1817 -0.2185
 4483TIP3    H135008   1.743   2.175   1.443  0.0735 -0.3099 -0.3276
 4483TIP3    H235009   1.885   2.226   1.439  0.0036 -0.0963 -0.1304
 4484TIP3   OH235010   5.234   0.307   7.265 -0.2756  0.0475  0.1562
 4484TIP3    H135011   5.303   0.357   7.221 -0.9270  1.2548  0.4620
 4484TIP3    H235012   5.189   0.371   7.320 -1.2278 -0.8550  0.4669
 4485TIP3   OH235013   2.085   3.374   7.935 -0.3893 -0.1366 -0.2503
 4485TIP3    H135014   2.084   3.450   7.877 -1.4266 -0.3822 -0.5645
 4485TIP3    H235015   2.044   3.304   7.885 -1.3180 -0.3485  0.7722
 4486TIP3   OH235016   3.544   3.092   7.297 -0.3575 -0.5919  0.9424
 4486TIP3    H135017   3.585   3.177   7.281  0.7367 -1.1073  0.8760
 4486TIP3    H235018   3.597   3.054   7.368 -1.0493 -1.0793  1.2052
 4487TIP3   OH235019   2.444   6.479   0.763 -0.2601 -0.1276  0.1628
 4487TIP3    H135020   2.494   6.446   0.689 -0.2367 -0.7465  0.4487
 4487TIP3    H235021   2.484   6.564   0.783 -0.3733  0.1185 -0.6276
 4488TIP3   OH235022   4.058   4.354   7.389  0.1727 -0.9622 -0.4851
 4488TIP3    H135023   4.125   4.326   7.452  0.4494 -0.0321 -0.3551
 4488TIP3    H235024   3.975   4.337   7.434  0.3625  1.5209  1.0256
 4489TIP3   OH235025   5.226   2.413   6.317  0.4120 -0.2554 -0.0214
 4489TIP3    H135026   5.320   2.410   6.299  0.0283 -1.4167 -2.3133
 4489TIP3    H235027   5.193   2.329   6.284 -1.5153  0.4143  0.0561
 4490TIP3   OH235028   2.719   0.361   1.427 -0.4400  0.0104  0.3541
 4490TIP3    H135029   2.679   0.429   1.374 -1.8351 -1.6778 -0.8754
 4490TIP3    H235030   2.711   0.281   1.375  2.1034 -0.9608  1.2552
 4491TIP3   OH235031   2.052   1.579   1.929  0.1344  0.3052 -0.9716
 4491TIP3    H135032   2.026   1.668   1.904  1.0863  0.6533 -0.7331
 4491TIP3    H235033   1.969   1.535   1.948 -0.2366  1.7697  1.0266
 4492TIP3   OH235034   2.619   4.102   2.140  0.1051 -0.1810 -0.4195
 4492TIP3    H135035   2.688   4.109   2.073 -0.0240  0.4559 -0.5000
 4492TIP3    H235036   2.539   4.130   2.094 -0.0979 -0.3446 -0.1678
 4493TIP3   OH235037   2.440   2.688   8.464  0.4214 -0.1313  0.3035
 4493TIP3    H135038   2.452   2.745   8.540 -1.9692 -2.2791  2.4602
 4493TIP3    H235039   2.363   2.724   8.419  0.7719  0.0944 -0.1319
 4494TIP3   OH235040   1.027   4.785   0.143  0.3491 -0.0287 -0.2811
 4494TIP3    H135041   0.970   4.848   0.187 -1.2742  0.1181 -2.4195
 4494TIP3    H235042   0.982   4.701   0.153 -0.2886  0.0734 -1.9053
 4495TIP3   OH235043   6.851   0.452   7.062 -0.8861  0.2650  1.1129
 4495TIP3    H135044   6.902   0.519   7.107 -0.6917  1.2004 -0.4490
 4495TIP3    H235045   6.915   0.402   7.012 -1.2777  0.2543  0.6111
 4496TIP3   OH235046   6.496   5.753   7.267 -0.4271 -0.1148 -0.3283
 4496TIP3    H135047   6.491   5.718   7.356  0.7900  2.0096  0.6623
 4496TIP3    H235048   6.497   5.848   7.278 -1.1740  0.2400 -2.6967
 4497TIP3   OH235049   4.994   1.749   7.662  0.4919  0.4105 -0.1711
 4497TIP3    H135050   5.047   1.827   7.676 -0.2480  0.5634  2.2096
 4497TIP3    H235051   4.965   1.723   7.750 -1.3098 -1.1123 -1.1340
 4498TIP3   OH235052   1.295   2.255   2.327 -0.7271 -0.3063  0.1695
 4498TIP3    H135053   1.303   2.258   2.232 -1.2234 -2.3606  0.0219
 4498TIP3    H235054   1.346   2.331   2.357 -0.6367  0.4424 -1.7121
 4499TIP3   OH235055   0.809   0.408   6.555  0.1657 -0.3152 -0.2043
 4499TIP3    H135056   0.832   0.479   6.496 -1.5947  0.6488  0.1885
 4499TIP3    H235057   0.732   0.440   6.602 -1.3962 -2.8689 -0.7968
 4500TIP3   OH235058   5.462   6.734   0.663 -0.1189 -0.1187  0.1968
 4500TIP3    H135059   5.400   6.663   0.650  0.5541 -0.7262  0.2789
 4500TIP3    H235060   5.407   6.811   0.682 -1.1181  0.2288 -3.2762
 4501TIP3   OH235061   2.445   4.984   0.507  0.6498 -0.1784  0.1398
 4501TIP3    H135062   2.415   4.927   0.578 -0.6259 -0.3419 -0.5009
 4501TIP3    H235063   2.395   5.065   0.518  0.8766  0.0121 -0.2267
 4502TIP3   OH235064   2.505   3.162   1.589  0.2439  0.5008 -0.5970
 4502TIP3    H135065   2.432   3.185   1.532  0.6690  0.1085 -1.3207
 4502TIP3    H235066   2.500   3.066   1.597  0.5078  0.5007 -0.4212
 4503TIP3   OH235067   6.023   5.383   0.308  0.4070  0.3015 -0.3312
 4503TIP3    H135068   5.949   5.333   0.276 -0.3177  1.7590 -1.0381
 4503TIP3    H235069   5.989   5.472   0.322  1.6113  0.6134  0.9385
 4504TIP3   OH235070   0.795   2.491   0.763 -0.6374 -0.0901 -0.1273
 4504TIP3    H135071   0.861   2.428   0.733 -0.5070 -0.1600  0.3004
 4504TIP3    H235072   0.799   2.562   0.700  0.1172  0.0826  0.1077
 4505TIP3   OH235073   3.525   5.307   0.934 -0.2038 -0.3368 -0.2099
 4505TIP3    H135074   3.458   5.319   1.001 -0.6275  0.0531 -0.6943
 4505TIP3    H235075   3.479   5.268   0.860  0.2798 -0.8648 -0.2425
 4506TIP3   OH235076   0.961   2.558   1.552  0.0304  0.1398  0.3470
 4506TIP3    H135077   0.939   2.468   1.528  0.4460 -0.3625  1.7723
 4506TIP3    H235078   1.033   2.549   1.614 -0.1178  1.4483  0.7311
 4507TIP3   OH235079   3.918   3.056   7.603 -0.2310 -0.1545  0.3696
 4507TIP3    H135080   3.980   2.995   7.561  2.3013  1.4915  1.4709
 4507TIP3    H235081   3.931   3.042   7.697 -2.0898 -0.2067  0.6553
 4508TIP3   OH235082   6.677   6.477   1.567 -0.0955 -0.3479 -0.3293
 4508TIP3    H135083   6.752   6.463   1.625  0.7008 -1.7103 -1.6314
 4508TIP3    H235084   6.704   6.550   1.511 -1.2105  1.5695  1.4768
 4509TIP3   OH235085   1.731   3.121   1.347 -0.8130 -0.5107 -0.9812
 4509TIP3    H135086   1.661   3.092   1.406 -0.8246  3.7044  1.4677
 4509TIP3    H235087   1.806   3.065   1.370 -1.2294  0.0198  2.1665
 4510TIP3   OH235088   2.627   1.516   0.763 -0.0429  0.3330 -0.3076
 4510TIP3    H135089   2.698   1.496   0.824  1.2999  1.1542 -1.5265
 4510TIP3    H235090   2.594   1.431   0.736 -0.4985 -0.0468  1.3306
 4511TIP3   OH235091   4.625   1.706   2.907  0.5614 -0.0632 -0.2224
 4511TIP3    H135092   4.640   1.734   2.817 -0.0631 -1.1778 -0.6972
 4511TIP3    H235093   4.624   1.610   2.903 -0.1848 -0.1266  0.8419
 4512TIP3   OH235094   2.312   5.645   1.393 -0.3763 -0.3996  0.4098
 4512TIP3    H135095   2.367   5.609   1.464 -2.6175 -1.3248  1.7906
 4512TIP3    H235096   2.344   5.601   1.314 -0.9284 -3.1966  1.6000
 4513TIP3   OH235097   6.309   4.699   1.345 -0.1190 -0.1286  0.6655
 4513TIP3    H135098   6.269   4.616   1.368 -2.6523  0.3099 -1.6433
 4513TIP3    H235099   6.273   4.762   1.408  1.9742 -0.7162  2.5562
 4514TIP3   OH235100   2.623   5.870   7.712 -0.2440  0.1253 -0.1358
 4514TIP3    H135101   2.655   5.847   7.800 -0.1134 -0.9370 -0.4440
 4514TIP3    H235102   2.683   5.939   7.683  0.3547 -0.2359  0.2076
 4515TIP3   OH235103   2.328   0.658   1.303  0.4771  0.3106 -0.1685
 4515TIP3    H135104   2.360   0.569   1.289 -0.9993 -0.7901  2.5822
 4515TIP3    H235105   2.407   0.711   1.313  1.3965 -0.4630 -2.5909
 4516TIP3   OH235106   5.826   0.415   1.287 -0.2675 -0.5870 -0.6691
 4516TIP3    H135107   5.865   0.426   1.374  1.0914 -0.7230 -1.2249
 4516TIP3    H235108   5.738   0.452   1.295  1.4081  4.0843 -0.4628
 4517TIP3   OH235109   0.838   2.040   7.959  0.0045 -0.5564 -0.1612
 4517TIP3    H135110   0.830   2.114   8.019 -1.1830 -1.8789  1.4144
 4517TIP3    H235111   0.776   2.060   7.889  0.1333  0.2185 -0.0655
 4518TIP3   OH235112   5.934   5.564   8.122 -0.6981 -0.3222  0.6338
 4518TIP3    H135113   5.943   5.512   8.043 -0.4233 -1.4658  1.3949
 4518TIP3    H235114   6.005   5.629   8.116 -0.8911 -0.1815 -0.2047
 4519TIP3   OH235115   6.488   3.044   7.443 -0.0510  0.4093  0.1261
 4519TIP3    H135116   6.410   3.044   7.499  1.5034 -1.1607  2.4575
 4519TIP3    H235117   6.461   2.998   7.364 -1.6114  0.3336  0.6734
 4520TIP3   OH235118   2.404   1.991   8.133 -0.1607  0.1123 -0.0525
 4520TIP3    H135119   2.431   2.083   8.126  0.4493 -0.1479 -1.5144
 4520TIP3    H235120   2.464   1.953   8.197 -1.4337  1.0556  1.7991
 4521TIP3   OH235121   6.598   2.500   2.016  0.4574 -0.9520  0.2403
 4521TIP3    H135122   6.599   2.408   1.989 -1.1181 -0.9197 -0.0673
 4521TIP3    H235123   6.558   2.499   2.103 -0.4351 -0.5033 -0.1460
 4522TIP3   OH235124   2.396   5.719   7.697  0.5549 -0.1483 -0.1142
 4522TIP3    H135125   2.480   5.764   7.700  0.8006 -0.6471  1.1127
 4522TIP3    H235126   2.370   5.711   7.789 -1.7347  1.6196 -0.5068
 4523TIP3   OH235127   4.376   0.383   6.554  0.0826  0.6418  0.4749
 4523TIP3    H135128   4.436   0.399   6.626  1.3064 -2.2294  0.2273
 4523TIP3    H235129   4.342   0.295   6.569  0.6632 -0.2443 -2.5348
 4524TIP3   OH235130   2.135   2.670   2.070  0.1171 -0.1800 -0.3072
 4524TIP3    H135131   2.176   2.587   2.091  0.1614 -0.4537 -1.4194
 4524TIP3    H235132   2.161   2.728   2.141 -0.5863 -1.3191  0.9257
 4525TIP3   OH235133   6.195   3.647   7.990  0.0376  0.3366  0.4685
 4525TIP3    H135134   6.217   3.613   7.903 -2.1261 -1.4568  0.5288
 4525TIP3    H235135   6.238   3.732   7.994  0.0799  0.5464 -2.4189
 4526TIP3   OH235136   3.390   6.136   7.826 -0.4507  0.2578 -0.1136
 4526TIP3    H135137   3.394   6.223   7.866  0.0788  0.2212 -0.0816
 4526TIP3    H235138   3.481   6.115   7.805 -0.7347  0.3516 -1.5053
 4527TIP3   OH235139   6.875   4.111   0.588  0.0961 -0.5891  0.2416
 4527TIP3    H135140   6.888   4.205   0.575  3.2233 -0.9399  0.0406
 4527TIP3    H235141   6.796   4.104   0.640 -0.2825  2.1504  0.1472
 4528TIP3   OH235142   1.144   3.276   1.723 -0.2400  0.6476 -0.0990
 4528TIP3    H135143   1.099   3.361   1.722 -0.9783  0.2575 -0.6643
 4528TIP3    H235144   1.236   3.298   1.705 -0.4770  1.3013 -0.5622
 4529TIP3   OH235145   3.847   2.723   1.036  0.2369  0.5409 -0.1523
 4529TIP3    H135146   3.765   2.746   1.081  0.3669 -0.1293  0.4417
 4529TIP3    H235147   3.906   2.696   1.106  0.4900 -0.3948 -0.7117
 4530TIP3   OH235148   5.686   3.822   7.513 -0.1975 -0.1110  0.5909
 4530TIP3    H135149   5.769   3.845   7.470 -1.3283  0.7900 -1.2430
 4530TIP3    H235150   5.705   3.741   7.561  1.5447 -0.3358 -0.4019
 4531TIP3   OH235151   0.890   3.177   1.425 -0.0168  0.4579 -0.1260
 4531TIP3    H135152   0.827   3.172   1.353 -1.6970 -0.6094  1.3197
 4531TIP3    H235153   0.849   3.235   1.488  1.5651  1.6125 -0.1155
 4532TIP3   OH235154   3.680   3.911   7.389 -0.0258  0.7444  0.1798
 4532TIP3    H135155   3.761   3.860   7.390 -0.8666 -0.6989 -0.8613
 4532TIP3    H235156   3.708   3.999   7.365  1.4611  0.8136  1.9116
 4533TIP3   OH235157   0.353   2.403   1.929 -0.3635 -0.4858 -0.4229
 4533TIP3    H135158   0.266   2.440   1.940  0.2124  1.1549 -0.9841
 4533TIP3    H235159   0.411   2.479   1.926  1.2720 -1.5681  1.3272
 4534TIP3   OH235160   4.553   4.899   6.198 -0.3657  0.1687  0.0381
 4534TIP3    H135161   4.459   4.896   6.183 -0.4561 -0.0457  0.5959
 4534TIP3    H235162   4.564   4.861   6.285  0.4753 -2.0522 -0.9780
 4535TIP3   OH235163   0.323   2.654   1.445 -0.0043  0.1809 -0.0646
 4535TIP3    H135164   0.319   2.714   1.370  0.5465  0.3756  0.0648
 4535TIP3    H235165   0.236   2.660   1.484 -0.2486  0.2018 -0.5917
 4536TIP3   OH235166   6.723   5.349   6.621 -0.2589  0.0708  0.2178
 4536TIP3    H135167   6.707   5.436   6.583 -1.6708 -0.6160 -0.8577
 4536TIP3    H235168   6.680   5.352   6.706  0.9312  0.8631  0.8232
 4537TIP3   OH235169   6.216   5.890   6.995 -0.5710  0.0260 -0.3463
 4537TIP3    H135170   6.148   5.911   7.059  0.3073  0.8281  0.3448
 4537TIP3    H235171   6.278   5.835   7.043 -0.0523  0.3923 -0.5989
 4538TIP3   OH235172   0.725   2.434   6.769  0.4372 -0.0388  0.0589
 4538TIP3    H135173   0.749   2.511   6.718 -1.2777  0.4378 -0.1093
 4538TIP3    H235174   0.803   2.379   6.769  1.2283  1.0388 -1.0455
 4539TIP3   OH235175   3.843   1.090   7.579  0.2028  0.1032  0.5341
 4539TIP3    H135176   3.825   1.052   7.494  0.8366  0.5417  0.1997
 4539TIP3    H235177   3.786   1.167   7.583  1.2357  0.9308 -0.1207
 4540TIP3   OH235178   5.184   3.990   2.323  0.0743  0.1278 -0.4625
 4540TIP3    H135179   5.247   3.964   2.255 -0.2555 -1.0577 -0.3391
 4540TIP3    H235180   5.130   3.913   2.336 -0.5175  0.6764  0.4420
 4541TIP3   OH235181   0.308   1.709   7.376 -0.6163 -0.0422 -0.3708
 4541TIP3    H135182   0.328   1.720   7.283  1.0793  0.3702  0.0143
 4541TIP3    H235183   0.374   1.761   7.421 -2.1467  0.7535  1.0602
 4542TIP3   OH235184   0.382   6.678   6.308 -0.6202 -0.5184 -0.0659
 4542TIP3    H135185   0.331   6.624   6.368 -0.7819 -0.5118 -0.1961
 4542TIP3    H235186   0.469   6.683   6.347 -0.5182 -1.1207 -0.2077
 4543TIP3   OH235187   5.933   4.964   1.341 -0.3054 -0.6311 -0.3740
 4543TIP3    H135188   5.882   4.960   1.422 -1.7459  0.5262 -1.1740
 4543TIP3    H235189   5.931   5.056   1.316  1.0086 -0.8020 -1.1931
 4544TIP3   OH235190   3.040   6.584   6.901 -0.1349  0.1886  0.1204
 4544TIP3    H135191   3.056   6.506   6.953  1.1156  0.7428  0.6054
 4544TIP3    H235192   3.081   6.655   6.950 -0.8978  1.0897 -0.5047
 4545TIP3   OH235193   2.275   0.527   7.727 -0.1311 -0.2519 -0.3268
 4545TIP3    H135194   2.267   0.441   7.767 -1.4722 -0.3736 -0.8137
 4545TIP3    H235195   2.201   0.533   7.667  0.0354  1.1753 -0.4295
 4546TIP3   OH235196   5.917   6.340   7.338  0.1220  0.1643  0.1210
 4546TIP3    H135197   6.009   6.364   7.349  0.5924 -1.0886 -0.8397
 4546TIP3    H235198   5.918   6.271   7.272 -1.7524  1.8438 -1.7982
 4547TIP3   OH235199   3.867   6.392   2.294  0.2730  0.7085 -0.3893
 4547TIP3    H135200   3.917   6.372   2.374 -1.8066  0.0893  0.8149
 4547TIP3    H235201   3.839   6.482   2.305 -0.2663  0.5291 -0.2770
 4548TIP3   OH235202   5.678   5.450   7.791 -0.7002  0.2471  0.6784
 4548TIP3    H135203   5.731   5.439   7.712  1.1364  0.9771  1.7388
 4548TIP3    H235204   5.740   5.439   7.863 -2.5123 -1.5276  2.1032
 4549TIP3   OH235205   0.112   1.025   0.420 -0.0016  0.2932 -0.4454
 4549TIP3    H135206   0.102   0.996   0.511 -1.8947  1.4835 -0.2112
 4549TIP3    H235207   0.077   0.953   0.368  0.8115 -0.2702 -0.2307
 4550TIP3   OH235208   0.244   4.511   7.426 -0.3113  0.3041  0.0978
 4550TIP3    H135209   0.316   4.573   7.434  0.9345 -0.8342 -1.5382
 4550TIP3    H235210   0.277   4.430   7.466 -0.2012 -0.5469 -1.6000
 4551TIP3   OH235211   1.699   6.632   1.136  0.4643  0.6319 -0.7266
 4551TIP3    H135212   1.659   6.707   1.092 -2.0739  0.1542  0.6448
 4551TIP3    H235213   1.704   6.565   1.068 -2.4771  0.2412 -0.6784
 4552TIP3   OH235214   0.479   1.848   7.538 -0.3773  0.3870  0.1688
 4552TIP3    H135215   0.451   1.838   7.629  1.0128  2.0201  0.8335
 4552TIP3    H235216   0.573   1.832   7.540 -0.3536  0.3239 -1.0161
 4553TIP3   OH235217   4.681   3.686   1.661 -0.6906 -0.2682  0.2142
 4553TIP3    H135218   4.704   3.704   1.570 -0.6484  0.9335  0.4521
 4553TIP3    H235219   4.765   3.678   1.706 -0.7126 -0.0243  0.3006
 4554TIP3   OH235220   0.848   3.323   7.387  0.5189  0.6749  0.1886
 4554TIP3    H135221   0.889   3.256   7.332  1.3462  1.4947 -0.2126
 4554TIP3    H235222   0.756   3.296   7.393  1.0186 -0.9872  0.7997
 4555TIP3   OH235223   5.903   3.377   1.134  0.5167  0.3846  0.3408
 4555TIP3    H135224   5.847   3.345   1.205 -0.4412  1.9262  0.3107
 4555TIP3    H235225   5.981   3.321   1.138 -0.2985 -0.7174  1.4479
 4556TIP3   OH235226   4.386   2.452   1.547  0.6467 -0.0642  0.3584
 4556TIP3    H135227   4.445   2.381   1.523  1.9690  1.1585 -0.1290
 4556TIP3    H235228   4.352   2.426   1.633  0.1605 -1.8387 -0.3379
 4557TIP3   OH235229   6.415   5.730   2.052 -0.5871 -0.0541  0.1898
 4557TIP3    H135230   6.362   5.789   2.106  0.2714 -0.0142  1.0152
 4557TIP3    H235231   6.412   5.768   1.964 -0.9849  0.5766  0.4723
 4558TIP3   OH235232   0.350   1.885   0.953  0.3396 -0.2740 -0.0086
 4558TIP3    H135233   0.311   1.958   1.000 -1.3567 -0.6378 -0.7735
 4558TIP3    H235234   0.380   1.826   1.021  0.0091  0.2596  0.6149
 4559TIP3   OH235235   5.237   5.023   1.585 -0.1004 -0.2429 -0.6896
 4559TIP3    H135236   5.291   5.102   1.589 -0.2765 -0.1177 -0.7161
 4559TIP3    H235237   5.148   5.055   1.605  0.1788 -0.8312  1.8459
 4560TIP3   OH235238   4.449   3.576   7.449 -0.2575  0.0566 -0.2466
 4560TIP3    H135239   4.467   3.487   7.418  2.5787  0.0989  0.9901
 4560TIP3    H235240   4.470   3.633   7.375  0.6825 -0.1698 -0.1660
 4561TIP3   OH235241   3.567   2.778   2.355 -0.0313 -0.4096  0.2526
 4561TIP3    H135242   3.642   2.725   2.327  1.0988  1.2290  0.0020
 4561TIP3    H235243   3.490   2.726   2.330  0.9824 -1.1346 -1.6136
 4562TIP3   OH235244   6.785   0.902   7.051  0.0293 -0.4219  0.1306
 4562TIP3    H135245   6.756   0.991   7.067 -1.0457 -1.0179  1.9220
 4562TIP3    H235246   6.766   0.886   6.959  0.2485  1.1896 -0.2156
 4563TIP3   OH235247   6.533   6.145   1.092 -0.3117  0.1956  0.6667
 4563TIP3    H135248   6.451   6.169   1.136 -2.4980 -1.1130 -2.3162
 4563TIP3    H235249   6.580   6.091   1.156 -1.7044  1.0853  2.5186
 4564TIP3   OH235250   5.075   5.796   6.212 -0.0362  0.4422  0.3552
 4564TIP3    H135251   5.010   5.762   6.273 -0.4718  0.1120 -0.2714
 4564TIP3    H235252   5.154   5.810   6.264  0.1976 -1.6221  0.6266
 4565TIP3   OH235253   2.674   2.541   0.274 -0.3866  0.4432 -0.3244
 4565TIP3    H135254   2.709   2.544   0.363 -0.1311 -3.1944 -0.1674
 4565TIP3    H235255   2.750   2.528   0.218 -0.6337  1.9710 -1.0855
 4566TIP3   OH235256   3.118   6.519   7.786  0.2272 -0.5995  0.0860
 4566TIP3    H135257   3.080   6.606   7.778  1.4804  0.0315  0.8242
 4566TIP3    H235258   3.110   6.498   7.879  1.6050 -0.4829  0.2452
 4567TIP3   OH235259   4.675   1.887   0.339 -0.2940  0.0527  0.5659
 4567TIP3    H135260   4.724   1.942   0.400  1.3175 -0.0246 -0.5900
 4567TIP3    H235261   4.714   1.800   0.349  0.4442  0.1720 -0.9931
 4568TIP3   OH235262   3.075   2.542   2.184 -0.5774 -0.6647  0.2522
 4568TIP3    H135263   3.053   2.513   2.096  2.4436  0.3434 -0.9833
 4568TIP3    H235264   3.106   2.632   2.172  1.2111 -0.9557  2.0772
 4569TIP3   OH235265   0.477   5.387   0.385 -0.2640 -0.2046 -0.3265
 4569TIP3    H135266   0.478   5.478   0.356  0.0989  0.0066  0.3455
 4569TIP3    H235267   0.387   5.371   0.412  0.0251  0.4703  1.1388
 4570TIP3   OH235268   4.838   3.336   8.375 -0.0582 -0.6205  0.0655
 4570TIP3    H135269   4.876   3.303   8.294  0.4045  2.7467 -1.2119
 4570TIP3    H235270   4.759   3.383   8.348  1.0137  2.0489  1.2698
 4571TIP3   OH235271   6.003   2.257   7.847 -0.5454  0.1282 -0.0260
 4571TIP3    H135272   5.916   2.281   7.878  0.9139  3.3478  2.0430
 4571TIP3    H235273   6.038   2.199   7.916 -0.9752 -1.1497 -0.8467
 4572TIP3   OH235274   2.717   5.163   6.856  0.1986  0.4927 -0.0940
 4572TIP3    H135275   2.697   5.161   6.762 -2.3089  0.0949  0.3689
 4572TIP3    H235276   2.632   5.177   6.898  1.3125  1.0543  2.1249
 4573TIP3   OH235277   6.326   2.721   7.458  0.0028 -0.0563  0.9134
 4573TIP3    H135278   6.345   2.627   7.449 -2.2536 -0.7867  2.7845
 4573TIP3    H235279   6.296   2.730   7.548 -1.1966  2.2278  0.3472
 4574TIP3   OH235280   3.070   2.026   6.485 -0.3098  0.6137 -0.8186
 4574TIP3    H135281   3.156   2.059   6.512  1.5591 -4.2180  0.2216
 4574TIP3    H235282   3.021   2.018   6.566 -0.0839 -0.5818 -0.7823
 4575TIP3   OH235283   1.465   1.897   0.627  0.6768  0.3120  0.7344
 4575TIP3    H135284   1.558   1.879   0.614  1.0375  1.0848  2.0474
 4575TIP3    H235285   1.450   1.880   0.720 -1.3287 -3.2128 -0.0330
 4576TIP3   OH235286   4.572   6.094   0.381  0.2080 -0.1207  0.2977
 4576TIP3    H135287   4.532   6.060   0.301  2.4660  2.4843 -2.2050
 4576TIP3    H235288   4.507   6.153   0.418  0.2218  1.0794 -1.4854
 4577TIP3   OH235289   3.287   5.008   2.027 -0.0923 -0.3844  0.1885
 4577TIP3    H135290   3.319   5.045   1.945 -1.0073 -1.7933 -0.8530
 4577TIP3    H235291   3.349   4.938   2.047  1.2244  1.1340  1.7733
 4578TIP3   OH235292   2.743   3.438   0.197  0.3243 -0.6910 -0.1588
 4578TIP3    H135293   2.654   3.410   0.174  0.1551  0.0139 -0.3989
 4578TIP3    H235294   2.786   3.452   0.112  0.5876 -0.7856 -0.0417
 4579TIP3   OH235295   4.326   3.042   8.311  0.0523 -0.0227 -0.6177
 4579TIP3    H135296   4.295   3.025   8.401 -1.2922  0.0346 -1.0467
 4579TIP3    H235297   4.421   3.040   8.318  0.0119 -2.5042  0.3684
 4580TIP3   OH235298   6.280   5.441   6.549  0.0100  0.0741  0.3481
 4580TIP3    H135299   6.344   5.484   6.493 -2.3452 -0.0782 -2.7076
 4580TIP3    H235300   6.304   5.467   6.638  2.6388  2.1559 -0.8474
 4581TIP3   OH235301   6.201   1.178   0.847 -0.5433 -0.6058 -0.1007
 4581TIP3    H135302   6.228   1.146   0.933  0.4636 -2.6104 -1.0693
 4581TIP3    H235303   6.115   1.216   0.861 -0.2969 -0.6608  1.8281
 4582TIP3   OH235304   1.745   1.362   8.048  0.4834 -0.3735 -0.9491
 4582TIP3    H135305   1.754   1.277   8.090 -0.3772 -1.2602 -2.4724
 4582TIP3    H235306   1.698   1.416   8.112 -3.1040 -2.4305 -1.6087
 4583TIP3   OH235307   5.527   5.332   1.256  0.3853  0.5400 -0.1641
 4583TIP3    H135308   5.448   5.364   1.299  0.1975 -0.9363  0.6527
 4583TIP3    H235309   5.499   5.311   1.167  0.2902  1.6797 -0.4152
 4584TIP3   OH235310   2.244   4.756   1.672 -0.4071 -0.3376 -0.2623
 4584TIP3    H135311   2.323   4.759   1.619 -1.0480 -1.2486 -1.2962
 4584TIP3    H235312   2.233   4.846   1.704  0.2287  0.1250 -1.3056
 4585TIP3   OH235313   5.929   5.076   7.561  0.0947 -0.0119  0.8214
 4585TIP3    H135314   5.965   5.009   7.503 -0.0294  0.5531  0.0838
 4585TIP3    H235315   5.834   5.061   7.558 -0.1047  1.3666 -0.8413
 4586TIP3   OH235316   3.208   3.719   8.243  0.1367 -0.4663 -0.2398
 4586TIP3    H135317   3.223   3.687   8.333  1.5774 -0.1223 -0.3388
 4586TIP3    H235318   3.182   3.810   8.254  1.7601  0.0237 -0.2076
 4587TIP3   OH235319   6.673   2.883   0.722  0.4308  0.6081 -0.5791
 4587TIP3    H135320   6.763   2.852   0.726  1.2230  2.7734 -0.1911
 4587TIP3    H235321   6.680   2.973   0.690 -1.5349  1.0167 -0.0028
 4588TIP3   OH235322   0.667   1.419   8.401 -0.3680  0.1984 -0.1772
 4588TIP3    H135323   0.655   1.325   8.416  2.5278 -0.2612 -0.2629
 4588TIP3    H235324   0.675   1.456   8.489 -0.6013  0.2468 -0.1741
 4589TIP3   OH235325   5.649   4.891   8.217 -0.2044  0.2123 -0.1697
 4589TIP3    H135326   5.564   4.880   8.173  0.2903 -0.6952 -0.9341
 4589TIP3    H235327   5.682   4.974   8.184 -0.9290  0.7248  0.3711
 4590TIP3   OH235328   4.715   2.434   0.358 -0.3886 -0.0200 -0.4774
 4590TIP3    H135329   4.622   2.433   0.383 -0.3279  1.3053 -0.1408
 4590TIP3    H235330   4.736   2.342   0.342 -1.8236 -0.3149 -0.7980
 4591TIP3   OH235331   0.156   4.281   7.273  0.3054 -0.4717  0.4981
 4591TIP3    H135332   0.137   4.338   7.347 -0.6730 -1.9269  1.4140
 4591TIP3    H235333   0.251   4.265   7.279  0.3747  0.0838  0.9423
 4592TIP3   OH235334   4.183   5.877   0.409 -0.1901 -0.1396 -0.3895
 4592TIP3    H135335   4.156   5.958   0.453 -0.5598  0.7913 -2.2219
 4592TIP3    H235336   4.101   5.839   0.378  0.1090 -0.4874 -0.7477
 4593TIP3   OH235337   5.129   5.339   1.526  0.2075 -0.5388 -0.5427
 4593TIP3    H135338   5.197   5.316   1.590  1.0173 -0.1647 -1.2354
 4593TIP3    H235339   5.057   5.374   1.579  0.1989 -1.7452  0.2703
 4594TIP3   OH235340   4.421   1.856   1.914  0.2915  0.5191  0.2111
 4594TIP3    H135341   4.390   1.799   1.985 -1.1144 -0.4881 -1.1588
 4594TIP3    H235342   4.347   1.913   1.894  0.5938  0.6447 -0.6038
 4595TIP3   OH235343   2.019   6.437   0.820  0.5911 -0.6983 -0.2854
 4595TIP3    H135344   2.031   6.396   0.735  3.0770 -1.0265  0.1312
 4595TIP3    H235345   2.086   6.397   0.876  2.1691  2.6727  0.5617
 4596TIP3   OH235346   3.381   1.448   0.023 -0.1320  0.4725  0.4194
 4596TIP3    H135347   3.395   1.354   0.034  2.3493  0.5999 -0.9815
 4596TIP3    H235348   3.395   1.485   0.110 -3.8372 -0.6107  1.6372
 4597TIP3   OH235349   5.978   1.047   1.124  0.4262 -0.4286  0.2262
 4597TIP3    H135350   6.044   0.980   1.146 -0.2114 -1.1251  0.0812
 4597TIP3    H235351   5.912   0.999   1.074  0.0731  0.3754 -0.0847
 4598TIP3   OH235352   3.840   3.567   7.538  0.4182 -0.0870  0.7455
 4598TIP3    H135353   3.851   3.501   7.606  0.0193 -0.4925  0.4271
 4598TIP3    H235354   3.797   3.520   7.466  0.7797  0.3457  0.2399
 4599TIP3   OH235355   5.576   3.350   7.582 -0.6559 -0.0070 -0.7592
 4599TIP3    H135356   5.603   3.425   7.530 -2.6083  0.3815 -1.3003
 4599TIP3    H235357   5.561   3.280   7.518 -0.9797 -0.1759 -0.5082
 4600TIP3   OH235358   0.693   0.982   8.052 -0.3894  0.1189  0.0587
 4600TIP3    H135359   0.686   0.903   8.106 -0.6271  0.9671  1.3082
 4600TIP3    H235360   0.607   0.991   8.011 -0.9058  0.6390  1.2356
 4601TIP3   OH235361   2.728   4.444   1.406 -0.2839  0.1454  0.6186
 4601TIP3    H135362   2.794   4.475   1.344 -1.0255 -1.9027 -1.3661
 4601TIP3    H235363   2.777   4.418   1.484  1.2722 -0.9619 -0.6544
 4602TIP3   OH235364   5.909   0.350   6.787  0.3304 -0.5151 -0.0987
 4602TIP3    H135365   5.881   0.384   6.702 -1.0260 -0.1280  0.4830
 4602TIP3    H235366   5.967   0.419   6.821  1.0939 -0.7885 -0.7926
 4603TIP3   OH235367   0.126   4.101   8.106  0.2476 -0.5311 -0.3194
 4603TIP3    H135368   0.199   4.097   8.169 -1.1539 -2.0354  1.3262
 4603TIP3    H235369   0.169   4.111   8.021  2.3116 -0.0217  0.6965
 4604TIP3   OH235370   0.993   6.255   8.438 -0.4492 -0.2769 -0.0689
 4604TIP3    H135371   0.937   6.330   8.418 -0.6140  0.1195  1.7203
 4604TIP3    H235372   0.950   6.181   8.396 -2.0075  0.1217  0.7229
 4605TIP3   OH235373   5.519   0.851   8.221  0.5501  0.6854  0.2363
 4605TIP3    H135374   5.430   0.882   8.239 -0.4339 -1.7216 -0.1226
 4605TIP3    H235375   5.565   0.861   8.305  0.0135  2.0651  0.3937
 4606TIP3   OH235376   1.634   3.153   6.793  0.2913  0.4707 -0.1253
 4606TIP3    H135377   1.623   3.063   6.761 -0.5785  0.2390  0.7898
 4606TIP3    H235378   1.590   3.207   6.727  2.4715  0.4346 -1.6980
 4607TIP3   OH235379   5.439   6.329   8.362  0.4301  0.2603 -0.1582
 4607TIP3    H135380   5.401   6.337   8.275 -0.3655  0.7366  0.2239
 4607TIP3    H235381   5.529   6.298   8.346 -0.3069 -1.6036 -1.0355
 4608TIP3   OH235382   1.215   6.505   6.875 -0.4355 -0.4638 -0.5279
 4608TIP3    H135383   1.268   6.445   6.927 -0.8865 -0.2668  0.1748
 4608TIP3    H235384   1.127   6.467   6.876 -0.6463  0.0146 -0.3734
 4609TIP3   OH235385   1.613   2.296   6.988  0.0460 -0.7905 -0.1335
 4609TIP3    H135386   1.623   2.349   6.909  0.0662 -1.7485 -0.7932
 4609TIP3    H235387   1.545   2.232   6.966 -0.9027 -0.2575  1.0871
 4610TIP3   OH235388   1.716   3.222   6.447 -0.5449  0.2662 -0.4372
 4610TIP3    H135389   1.745   3.286   6.513 -1.0139  0.6111 -0.5611
 4610TIP3    H235390   1.621   3.236   6.441 -0.3583  0.9870 -1.9789
 4611TIP3   OH235391   4.817   5.150   7.306  0.2358 -0.2362  0.7118
 4611TIP3    H135392   4.797   5.120   7.395 -1.2503 -0.8128  0.2174
 4611TIP3    H235393   4.903   5.114   7.287 -0.0824 -1.4043  1.3698
 4612TIP3   OH235394   4.974   3.237   1.945  0.2919  0.0781 -0.9294
 4612TIP3    H135395   4.891   3.221   1.900  1.2362  1.3789 -3.2825
 4612TIP3    H235396   4.967   3.186   2.026 -2.1207 -1.1634 -1.8178
 4613TIP3   OH235397   5.705   3.275   1.297  0.3976  0.1844 -0.3062
 4613TIP3    H135398   5.688   3.317   1.382 -1.0770 -2.1234  0.6251
 4613TIP3    H235399   5.753   3.196   1.318 -0.1445 -0.5240 -1.6026
 4614TIP3   OH235400   4.845   3.335   0.250 -0.2822  0.1850  0.2176
 4614TIP3    H135401   4.854   3.271   0.179 -1.1751 -0.2541  0.4868
 4614TIP3    H235402   4.890   3.413   0.218  0.9701 -0.6136 -0.0564
 4615TIP3   OH235403   6.715   3.196   7.399 -0.4760  0.1139 -0.4382
 4615TIP3    H135404   6.760   3.188   7.315 -1.8814 -0.2100 -1.1948
 4615TIP3    H235405   6.652   3.124   7.399 -0.9820  0.5365  0.5744
 4616TIP3   OH235406   3.368   4.914   0.049 -0.7867  0.0494 -0.7309
 4616TIP3    H135407   3.348   4.860   0.126 -0.7927  1.2275  0.1284
 4616TIP3    H235408   3.463   4.907   0.039 -0.9853 -1.5330 -1.7319
 4617TIP3   OH235409   1.680   1.676   0.804  0.5138  0.4370 -0.0718
 4617TIP3    H135410   1.745   1.747   0.798  0.0858  0.7164 -3.4226
 4617TIP3    H235411   1.731   1.600   0.832  1.9371  1.0951 -0.7467
 4618TIP3   OH235412   0.266   4.707   1.681  0.4204  0.0698  0.2940
 4618TIP3    H135413   0.299   4.707   1.591 -0.7865 -0.0992 -0.1696
 4618TIP3    H235414   0.230   4.620   1.693  1.0296 -0.0772  1.1345
 4619TIP3   OH235415   5.205   6.708   0.209 -0.4747  0.3554  0.5573
 4619TIP3    H135416   5.126   6.655   0.198  0.6721 -0.9918 -2.2235
 4619TIP3    H235417   5.192   6.782   0.149  0.6281 -0.2930 -0.5346
 4620TIP3   OH235418   5.341   5.410   7.684  0.2397  0.5118 -0.6009
 4620TIP3    H135419   5.249   5.436   7.686 -0.1913 -0.7418 -2.3560
 4620TIP3    H235420   5.388   5.490   7.709 -1.3501  0.4329  3.2688
 4621TIP3   OH235421   6.133   1.020   1.636 -0.0018 -0.3791 -0.5983
 4621TIP3    H135422   6.054   1.061   1.670 -1.2974 -0.4782 -3.2708
 4621TIP3    H235423   6.126   0.928   1.662  0.4166  0.0225  1.0795
 4622TIP3   OH235424   5.984   3.866   1.448  0.3789  0.0048  0.3345
 4622TIP3    H135425   6.016   3.780   1.475 -2.1836 -0.1982  3.2007
 4622TIP3    H235426   6.040   3.928   1.494  0.4992 -0.1882  0.4474
 4623TIP3   OH235427   1.482   3.620   0.709 -0.1252 -0.1236 -0.0916
 4623TIP3    H135428   1.402   3.572   0.728  0.8351 -1.1876  1.5718
 4623TIP3    H235429   1.476   3.698   0.764 -0.5947  0.4753 -0.9721
 4624TIP3   OH235430   3.041   4.282   1.916  0.0491  0.0117 -0.1150
 4624TIP3    H135431   3.086   4.365   1.901 -0.4345  0.3580  0.3219
 4624TIP3    H235432   2.949   4.306   1.926  0.0119 -0.4782  0.8442
 4625TIP3   OH235433   0.870   0.127   0.313  0.3483 -0.2810  0.3541
 4625TIP3    H135434   0.953   0.094   0.348  0.9702 -0.5030 -1.2589
 4625TIP3    H235435   0.832   0.177   0.385  1.5335 -0.7863  1.3603
 4626TIP3   OH235436   0.695   6.525   7.837  0.2950 -0.0765 -0.0672
 4626TIP3    H135437   0.600   6.516   7.824  0.2781  1.1814 -0.8576
 4626TIP3    H235438   0.704   6.600   7.895  0.7891 -0.6976  0.6828
 4627TIP3   OH235439   6.791   1.205   7.096 -0.2872  0.5289 -0.6406
 4627TIP3    H135440   6.830   1.293   7.103 -1.6314  1.1910 -1.2093
 4627TIP3    H235441   6.697   1.221   7.090 -0.5728 -0.9844 -0.4793
 4628TIP3   OH235442   1.205   1.851   1.916 -0.0841 -0.2159  0.7354
 4628TIP3    H135443   1.160   1.923   1.961  1.4925  1.4375 -0.1822
 4628TIP3    H235444   1.264   1.815   1.982  0.1267  0.2712  0.8192
 4629TIP3   OH235445   3.552   2.199   1.202  0.0699 -0.1709  0.5686
 4629TIP3    H135446   3.612   2.197   1.127  0.5358  3.4244  0.6511
 4629TIP3    H235447   3.466   2.214   1.164 -0.4256 -2.5832  0.6086
 4630TIP3   OH235448   3.834   0.567   6.237 -0.2782 -0.3602 -0.0594
 4630TIP3    H135449   3.774   0.539   6.307  1.1550 -0.0257  1.3591
 4630TIP3    H235450   3.903   0.501   6.237  1.5363  1.4125  1.2504
 4631TIP3   OH235451   5.872   4.448   6.627  0.4208  0.2486 -0.6329
 4631TIP3    H135452   5.820   4.400   6.563 -1.0653  0.3220  0.4772
 4631TIP3    H235453   5.914   4.517   6.577 -1.8257  1.1814 -1.3284
 4632TIP3   OH235454   2.958   5.088   7.766  0.4854 -0.0556  0.0054
 4632TIP3    H135455   2.936   5.107   7.675  1.8057 -0.9154 -0.5320
 4632TIP3    H235456   3.030   5.148   7.786 -0.7721  1.1877  1.0076
 4633TIP3   OH235457   1.937   2.395   8.329 -0.4730  0.0687 -0.2968
 4633TIP3    H135458   1.984   2.428   8.252  2.3740  1.1214  1.7393
 4633TIP3    H235459   1.860   2.451   8.335 -0.4071  0.3954 -1.9745
 4634TIP3   OH235460   2.939   4.174   3.051  0.2438  0.2111  0.2854
 4634TIP3    H135461   3.028   4.176   3.086  0.0890  0.0830  0.6977
 4634TIP3    H235462   2.942   4.229   2.973  0.7830 -0.1331  0.0617
 4635TIP3   OH235463   1.757   3.474   6.646 -0.0612  1.5732  0.1281
 4635TIP3    H135464   1.789   3.504   6.562  0.7398  0.0363 -0.1623
 4635TIP3    H235465   1.828   3.493   6.707  0.6923 -0.1198 -0.1616
 4636TIP3   OH235466   2.529   1.889   0.528 -0.1949  0.3320 -0.3570
 4636TIP3    H135467   2.491   1.801   0.528  0.4911  0.0314 -0.7923
 4636TIP3    H235468   2.606   1.882   0.472 -0.9668  1.5794 -1.6324
 4637TIP3   OH235469   4.090   1.989   0.352  0.3106  0.3993  0.0048
 4637TIP3    H135470   4.153   1.924   0.322 -1.5532 -1.6164  0.1967
 4637TIP3    H235471   4.031   2.002   0.278 -0.4025  0.4586  0.5631
 4638TIP3   OH235472   4.562   2.905   0.157 -0.6430  0.4362 -0.1926
 4638TIP3    H135473   4.557   2.809   0.157  0.2182  0.3535  1.2214
 4638TIP3    H235474   4.648   2.924   0.119 -0.8433  0.6639 -0.5397
 4639TIP3   OH235475   5.243   5.246   0.477  0.4426 -0.0364  0.5797
 4639TIP3    H135476   5.291   5.314   0.430  0.1315  1.2020  1.9757
 4639TIP3    H235477   5.261   5.166   0.428 -1.2171  1.3654 -2.6807
 4640TIP3   OH235478   0.102   2.061   7.504  0.4386  0.1286  0.4651
 4640TIP3    H135479   0.136   2.150   7.496 -1.9269  1.0046 -1.0153
 4640TIP3    H235480   0.061   2.058   7.590  2.2109 -0.2053  1.3244
 4641TIP3   OH235481   0.780   3.435   1.835 -0.3106  0.2516  0.6364
 4641TIP3    H135482   0.769   3.456   1.928 -0.2364  0.0341  0.6959
 4641TIP3    H235483   0.697   3.460   1.795  0.4961  2.6998  0.3104
 4642TIP3   OH235484   0.241   6.639   0.237  0.3796  0.1008  0.0731
 4642TIP3    H135485   0.253   6.657   0.330 -0.0342  0.7593  0.0097
 4642TIP3    H235486   0.198   6.553   0.234 -0.2719  0.4032  0.5246
 4643TIP3   OH235487   4.577   4.787   1.377  0.0748  0.1943 -0.1036
 4643TIP3    H135488   4.657   4.836   1.391  0.4672 -0.3205 -0.5086
 4643TIP3    H235489   4.584   4.711   1.435 -0.0263  0.0462 -0.2798
 4644TIP3   OH235490   1.781   2.914   2.053  0.4518  0.2768 -0.2573
 4644TIP3    H135491   1.711   2.852   2.033  1.0262 -0.2338 -0.7379
 4644TIP3    H235492   1.743   2.973   2.118 -0.3054 -0.2044 -0.2474
 4645TIP3   OH235493   1.697   0.780   0.304  0.1859  0.0940 -0.2243
 4645TIP3    H135494   1.651   0.864   0.313  0.3098  0.2041 -0.6120
 4645TIP3    H235495   1.757   0.793   0.232  2.4063  0.6534  1.6123
 4646TIP3   OH235496   3.240   3.559   7.153 -0.8276  0.1313  0.6578
 4646TIP3    H135497   3.160   3.588   7.111 -1.1197 -1.8678 -0.2447
 4646TIP3    H235498   3.305   3.555   7.082 -0.7290 -1.0923  0.7995
 4647TIP3   OH235499   2.394   2.518   1.800 -0.1683  0.1603  0.5654
 4647TIP3    H135500   2.393   2.612   1.813 -0.3167  0.1756  0.4467
 4647TIP3    H235501   2.402   2.481   1.888 -0.2654  0.2807  0.6239
 4648TIP3   OH235502   5.155   5.168   7.799 -0.3569  0.2200  0.1871
 4648TIP3    H135503   5.169   5.210   7.883  0.2899  0.4138 -0.0071
 4648TIP3    H235504   5.176   5.076   7.815  1.5645  0.5422 -0.1554
 4649TIP3   OH235505   1.132   5.209   8.330  0.0673  0.2695  0.1561
 4649TIP3    H135506   1.182   5.215   8.411  0.6514  0.1259 -0.1837
 4649TIP3    H235507   1.199   5.199   8.262 -0.4768 -1.3099 -0.1839
 4650TIP3   OH235508   6.341   1.131   0.381 -0.6405 -0.0945  0.2635
 4650TIP3    H135509   6.379   1.091   0.459  1.3462  0.4304 -0.3613
 4650TIP3    H235510   6.396   1.208   0.366 -1.0162 -0.1624 -1.6151
 4651TIP3   OH235511   1.982   0.231   7.761  0.1196  0.4341 -0.1159
 4651TIP3    H135512   1.912   0.191   7.710  1.4284  0.2809 -1.8738
 4651TIP3    H235513   2.039   0.272   7.696 -0.0455  3.4580  1.4453
 4652TIP3   OH235514   0.637   0.615   1.314 -0.0374  0.0644  0.0988
 4652TIP3    H135515   0.645   0.524   1.286 -1.4858 -0.4933  1.3329
 4652TIP3    H235516   0.621   0.663   1.233 -2.1560 -1.2137 -0.3311
 4653TIP3   OH235517   1.761   5.733   6.729  0.0306  0.7305  0.5595
 4653TIP3    H135518   1.693   5.666   6.719 -1.4867  2.1993  0.7016
 4653TIP3    H235519   1.716   5.816   6.714  2.4423  1.6638 -2.7911
 4654TIP3   OH235520   6.477   4.208   7.993 -0.2825 -0.0954  0.0318
 4654TIP3    H135521   6.537   4.283   7.988 -0.6015  0.0876 -1.3882
 4654TIP3    H235522   6.395   4.246   8.025  0.3734 -0.3920  2.2449
 4655TIP3   OH235523   4.896   6.860   7.804  0.0515  0.2695  0.3167
 4655TIP3    H135524   4.848   6.939   7.782 -2.4000 -1.1343  0.2067
 4655TIP3    H235525   4.988   6.883   7.792 -0.6245  2.7409 -0.7502
 4656TIP3   OH235526   6.700   5.038   7.407  0.0472  0.1569  0.3610
 4656TIP3    H135527   6.727   5.044   7.315 -1.4416 -0.7796 -0.1651
 4656TIP3    H235528   6.772   5.079   7.455  0.5887  1.2290 -1.2553
 4657TIP3   OH235529   1.248   4.155   0.534  0.0371  0.0180  0.5799
 4657TIP3    H135530   1.235   4.182   0.444 -0.2181  1.0948  0.9327
 4657TIP3    H235531   1.318   4.089   0.530 -2.0013 -2.2179 -0.7588
 4658TIP3   OH235532   1.861   2.154   8.172 -0.4425  0.1426 -0.3543
 4658TIP3    H135533   1.918   2.090   8.215  0.0608  0.8251  0.0174
 4658TIP3    H235534   1.889   2.238   8.208 -1.2011  0.5562 -0.7183
 4659TIP3   OH235535   4.592   5.610   7.334  0.0208  0.0645  0.0098
 4659TIP3    H135536   4.635   5.656   7.262 -0.8794 -1.6299 -1.7015
 4659TIP3    H235537   4.608   5.517   7.316 -4.4024 -0.7438 -0.9224
 4660TIP3   OH235538   4.121   4.242   8.174 -0.2524  0.0645 -1.0129
 4660TIP3    H135539   4.084   4.240   8.262  2.5483  0.6356  0.2852
 4660TIP3    H235540   4.109   4.153   8.141  1.5628 -1.1675  1.3352
 4661TIP3   OH235541   0.744   3.512   2.086 -0.0654 -0.4547 -0.0025
 4661TIP3    H135542   0.670   3.513   2.146  0.1320 -0.7276  0.2507
 4661TIP3    H235543   0.815   3.554   2.135  0.1636 -0.8954  0.0526
 4662TIP3   OH235544   2.905   6.105   7.931  0.3163 -0.1741 -0.6085
 4662TIP3    H135545   2.993   6.119   7.965 -0.1246 -1.5229  1.2874
 4662TIP3    H235546   2.875   6.192   7.906  1.4711  0.6015  0.5689
 4663TIP3   OH235547   1.924   1.864   8.390 -0.0557 -0.4866  0.7597
 4663TIP3    H135548   1.955   1.838   8.476 -0.5329  1.0552  1.4399
 4663TIP3    H235549   1.834   1.892   8.404  0.1711  0.7394 -0.0116
 4664TIP3   OH235550   3.970   2.892   2.827  0.1314  0.0342 -0.0277
 4664TIP3    H135551   3.879   2.903   2.853 -0.7695 -1.8093 -2.0952
 4664TIP3    H235552   4.018   2.956   2.879 -2.0726 -0.1785  2.4499
 4665TIP3   OH235553   2.074   1.310   0.067  0.0437  0.6939 -0.1740
 4665TIP3    H135554   2.110   1.373   0.005  2.4584 -0.7022 -0.3171
 4665TIP3    H235555   2.101   1.343   0.153 -0.3393  0.8304 -0.1028
 4666TIP3   OH235556   6.652   3.860   7.924 -0.5697 -0.1468  0.2093
 4666TIP3    H135557   6.669   3.903   8.008 -1.4197 -0.3302  0.4906
 4666TIP3    H235558   6.688   3.919   7.859  1.3937 -0.6643  0.7646
 4667TIP3   OH235559   5.060   1.774   8.070 -0.5710  0.1048  0.0826
 4667TIP3    H135560   5.099   1.857   8.041 -2.2138  0.5400 -1.0143
 4667TIP3    H235561   5.107   1.707   8.020  0.1427  0.4303  0.2924
 4668TIP3   OH235562   2.815   5.466   1.732  0.4955  0.0545 -0.0944
 4668TIP3    H135563   2.789   5.402   1.797  1.2287 -0.1242  0.0363
 4668TIP3    H235564   2.801   5.422   1.648  0.2029  0.0340 -0.0364
 4669TIP3   OH235565   0.207   6.012   8.200  0.2020  0.2499  0.1175
 4669TIP3    H135566   0.169   6.018   8.288 -1.3954  0.3630 -0.5379
 4669TIP3    H235567   0.256   6.094   8.189 -1.0576  1.0504  0.2724
 4670TIP3   OH235568   3.428   0.357   8.291  0.2648 -0.1600 -0.1322
 4670TIP3    H135569   3.367   0.303   8.342  0.0164  0.7021  0.5307
 4670TIP3    H235570   3.486   0.295   8.248  1.4213 -0.9624  2.3600
 4671TIP3   OH235571   3.350   4.096   1.882  0.6881 -0.1729  0.5710
 4671TIP3    H135572   3.421   4.068   1.823  0.1810  1.3609 -0.8549
 4671TIP3    H235573   3.395   4.140   1.954  1.2239  2.5154 -1.2692
 4672TIP3   OH235574   1.027   6.602   1.194  0.3028 -0.0649 -0.0499
 4672TIP3    H135575   1.010   6.607   1.099 -0.8573 -0.0761  0.1397
 4672TIP3    H235576   1.095   6.535   1.203  0.2990 -0.1896 -0.8609
 4673TIP3   OH235577   5.210   4.246   1.999 -0.2050 -0.1234  0.5087
 4673TIP3    H135578   5.180   4.279   1.914 -0.1937  1.3876  1.0501
 4673TIP3    H235579   5.211   4.324   2.055  1.0495 -0.8554  1.5441
 4674TIP3   OH235580   0.805   3.133   0.717  0.3017  0.1360 -0.2212
 4674TIP3    H135581   0.901   3.126   0.714  0.3424  0.7716 -0.6720
 4674TIP3    H235582   0.788   3.189   0.793  0.2829 -0.0780 -0.0683
 4675TIP3   OH235583   4.275   2.401   6.682 -0.3189 -0.2438 -0.0243
 4675TIP3    H135584   4.311   2.364   6.602  0.9110  1.9229 -0.5626
 4675TIP3    H235585   4.180   2.399   6.669 -0.1904 -1.1642 -0.9252
 4676TIP3   OH235586   2.202   3.432   0.428  0.2439 -0.0076 -0.3125
 4676TIP3    H135587   2.229   3.511   0.381 -0.3260  0.3186 -0.1084
 4676TIP3    H235588   2.280   3.403   0.475  0.4411  0.4692 -0.3429
 4677TIP3   OH235589   4.759   2.547   1.981  1.2636  0.2203 -0.1692
 4677TIP3    H135590   4.817   2.589   2.045  0.7913 -0.7966  0.9663
 4677TIP3    H235591   4.693   2.613   1.962  1.7548  0.7516 -0.0776
 4678TIP3   OH235592   4.514   0.045   6.615 -0.3505 -0.0943 -0.4001
 4678TIP3    H135593   4.458   0.090   6.551 -1.5940  0.3072  0.9088
 4678TIP3    H235594   4.493   0.087   6.698  0.8809 -0.9241  0.3548
 4679TIP3   OH235595   6.139   4.485   7.863  0.0063  0.9395 -0.0412
 4679TIP3    H135596   6.192   4.406   7.853  0.1411  0.8678  1.0635
 4679TIP3    H235597   6.195   4.547   7.910 -0.4256  1.3436 -0.0386
 4680TIP3   OH235598   2.643   5.917   0.957 -0.0911  0.0459  0.4649
 4680TIP3    H135599   2.676   5.827   0.959  0.0679  0.1086  2.1573
 4680TIP3    H235600   2.643   5.945   1.049  0.0536  1.8465 -0.0328
 4681TIP3   OH235601   0.597   5.662   8.317  0.2649  0.1538 -0.0143
 4681TIP3    H135602   0.622   5.673   8.225 -0.3720  0.2860 -0.1727
 4681TIP3    H235603   0.653   5.724   8.365  0.4171  0.2644 -0.3335
 4682TIP3   OH235604   0.145   3.642   6.874  0.4820 -0.2694 -0.7962
 4682TIP3    H135605   0.177   3.705   6.809  2.0499 -0.9109 -0.6911
 4682TIP3    H235606   0.096   3.695   6.936  1.4466  0.8021 -0.9093
 4683TIP3   OH235607   4.568   2.508   8.070  0.3012  0.1819 -0.3862
 4683TIP3    H135608   4.581   2.418   8.043  1.2291  0.2555 -0.2327
 4683TIP3    H235609   4.551   2.556   7.989  0.6420  0.0022 -0.5660
 4684TIP3   OH235610   6.833   1.046   8.172 -0.3234 -0.4913  0.0126
 4684TIP3    H135611   6.802   1.059   8.262 -1.9433 -2.0529 -0.2474
 4684TIP3    H235612   6.794   1.117   8.122  2.3736  1.7293  0.8106
 4685TIP3   OH235613   6.552   5.180   0.271  0.1183  0.1968 -0.4933
 4685TIP3    H135614   6.516   5.163   0.183  0.0808 -0.9940 -0.2618
 4685TIP3    H235615   6.536   5.273   0.285  0.4000  0.4906 -1.8771
 4686TIP3   OH235616   6.872   3.867   0.836 -0.1648  0.3090  0.3145
 4686TIP3    H135617   6.962   3.881   0.866  0.6554  2.0466 -2.5351
 4686TIP3    H235618   6.874   3.779   0.798 -0.1906 -0.3451  1.7584
 4687TIP3   OH235619   0.078   5.713   8.544  0.2109 -0.2401 -0.0709
 4687TIP3    H135620   0.112   5.676   8.625 -1.3549  0.3610  0.9034
 4687TIP3    H235621   0.045   5.638   8.495  0.1020 -0.4905  0.3856
 4688TIP3   OH235622   2.208   1.431   0.308 -0.0867  0.1852 -0.1471
 4688TIP3    H135623   2.132   1.459   0.360  0.7273  1.9458  0.1818
 4688TIP3    H235624   2.276   1.413   0.373  0.3433  0.4701 -0.5146
 4689TIP3   OH235625   2.927   1.617   7.396 -0.1579 -0.1922  0.7397
 4689TIP3    H135626   2.849   1.576   7.358 -0.2428  1.3432 -0.8974
 4689TIP3    H235627   3.000   1.570   7.357 -0.2380 -1.1125  1.6625
 4690TIP3   OH235628   1.747   0.093   0.267 -0.6676 -0.1185 -0.0610
 4690TIP3    H135629   1.839   0.116   0.280 -0.6039  0.0677 -0.8188
 4690TIP3    H235630   1.710   0.094   0.355 -0.4211  1.8809  0.0697
 4691TIP3   OH235631   4.630   4.626   8.282  0.1769  0.1698 -0.0692
 4691TIP3    H135632   4.581   4.701   8.249 -0.1912  0.1510  0.4212
 4691TIP3    H235633   4.591   4.608   8.368 -0.6124 -1.3636 -0.7076
 4692TIP3   OH235634   4.321   0.314   7.850 -0.4169  0.0729 -0.1354
 4692TIP3    H135635   4.251   0.364   7.807 -1.3548 -0.5567  0.5935
 4692TIP3    H235636   4.390   0.307   7.784 -0.5569  1.6745 -0.5011
 4693TIP3   OH235637   3.784   1.658   0.627 -0.1452  0.4997 -0.0660
 4693TIP3    H135638   3.853   1.597   0.599 -0.1330  0.6232 -0.2995
 4693TIP3    H235639   3.806   1.740   0.585  0.2373  0.8622  0.8031
 4694TIP3   OH235640   3.787   4.164   1.068 -0.5602 -0.5819  0.5617
 4694TIP3    H135641   3.767   4.080   1.109 -0.5842  0.0125  1.8434
 4694TIP3    H235642   3.875   4.154   1.033 -0.1606 -0.8455  1.5973
 4695TIP3   OH235643   4.040   3.934   1.341  0.2763  0.0197  0.3274
 4695TIP3    H135644   4.130   3.903   1.331  0.2688  0.0719  0.0779
 4695TIP3    H235645   4.025   3.990   1.264 -0.2080 -0.5847 -0.0311
 4696TIP3   OH235646   4.180   2.153   0.603 -0.3632  0.0391 -0.4414
 4696TIP3    H135647   4.230   2.128   0.681  0.6715  0.6874 -0.8758
 4696TIP3    H235648   4.130   2.075   0.581  0.0351 -0.4544  0.3299
 4697TIP3   OH235649   1.728   2.661   0.520 -0.2239 -0.5580  0.4227
 4697TIP3    H135650   1.657   2.643   0.581  0.2498 -0.5529  0.9841
 4697TIP3    H235651   1.779   2.580   0.517  0.0033 -0.4143  0.3701
 4698TIP3   OH235652   3.346   6.866   7.513  0.0015  0.1834  0.0872
 4698TIP3    H135653   3.382   6.920   7.583  2.7036 -0.3521 -0.7783
 4698TIP3    H235654   3.304   6.928   7.454  2.5314  1.3714 -0.5884
 4699TIP3   OH235655   3.166   2.150   2.071  0.0736  0.0369 -0.8735
 4699TIP3    H135656   3.090   2.100   2.102 -0.4466  0.4121 -1.5023
 4699TIP3    H235657   3.240   2.090   2.078  0.4877  0.7687  3.2783
 4700TIP3   OH235658   1.886   4.082   1.441  0.1184  0.3258  0.3866
 4700TIP3    H135659   1.898   4.164   1.488 -0.9415 -1.3803  4.0083
 4700TIP3    H235660   1.969   4.036   1.453 -0.3727 -0.3746  1.2660
 4701TIP3   OH235661   1.456   5.619   6.939 -0.1134 -0.2867 -0.0583
 4701TIP3    H135662   1.496   5.532   6.937 -2.6265 -1.5035 -1.4502
 4701TIP3    H235663   1.398   5.621   6.863 -2.2329  1.5675  1.4870
 4702TIP3   OH235664   4.421   5.468   1.989 -0.5750 -0.2005  0.4042
 4702TIP3    H135665   4.441   5.383   2.027  0.1329  0.5044  1.6587
 4702TIP3    H235666   4.440   5.531   2.058  0.3152  1.1037 -0.9635
 4703TIP3   OH235667   4.010   4.469   1.102  0.3258 -0.8427 -0.1056
 4703TIP3    H135668   3.991   4.563   1.100  0.1668 -0.8770 -0.6444
 4703TIP3    H235669   3.994   4.440   1.011  3.1026 -0.8537 -0.6638
 4704TIP3   OH235670   2.031   0.613   0.816  0.1185 -0.3769 -0.6764
 4704TIP3    H135671   1.935   0.617   0.816 -0.0740 -2.7856  0.8204
 4704TIP3    H235672   2.054   0.602   0.723 -1.1985 -1.3637 -0.9138
 4705TIP3   OH235673   6.804   3.107   8.001 -0.0898 -0.1976 -0.1701
 4705TIP3    H135674   6.822   3.194   8.039 -1.0978  0.0752 -0.2956
 4705TIP3    H235675   6.825   3.117   7.908  0.4694 -0.2916 -0.0548
 4706TIP3   OH235676   4.680   0.494   7.792  0.3392 -0.6530  0.1004
 4706TIP3    H135677   4.733   0.531   7.721 -0.0285 -0.4890 -0.0920
 4706TIP3    H235678   4.590   0.507   7.764  0.1952 -1.0453  0.3673
 4707TIP3   OH235679   0.187   2.865   6.634  0.0714 -0.1419 -0.0602
 4707TIP3    H135680   0.239   2.785   6.640  0.2529 -0.0166  0.0623
 4707TIP3    H235681   0.186   2.886   6.540  0.5899  0.0763 -0.0238
 4708TIP3   OH235682   0.568   2.616   6.942 -0.0560  0.6971 -0.4754
 4708TIP3    H135683   0.634   2.632   7.010  1.4800  1.7543 -2.1124
 4708TIP3    H235684   0.617   2.573   6.871 -1.4353  0.2803 -1.2014
 4709TIP3   OH235685   0.568   2.074   7.368 -0.1876 -0.5301 -0.1064
 4709TIP3    H135686   0.520   2.013   7.424  1.0857 -0.5390  1.0315
 4709TIP3    H235687   0.654   2.083   7.410 -0.2157  1.8077 -0.3859
 4710TIP3   OH235688   4.593   5.983   1.725  0.1432  0.0336 -0.2083
 4710TIP3    H135689   4.514   6.025   1.690  0.3498  1.2700  0.7312
 4710TIP3    H235690   4.561   5.912   1.781 -0.2363 -0.5468 -1.1370
 4711TIP3   OH235691   5.092   4.874   8.526  0.2300  0.3326  0.6841
 4711TIP3    H135692   5.130   4.955   8.494  0.6078 -1.0535 -2.7487
 4711TIP3    H235693   5.165   4.813   8.534 -0.6206 -1.3540 -2.6974
 4712TIP3   OH235694   4.750   5.533   1.990 -0.1568 -0.0172  0.0089
 4712TIP3    H135695   4.775   5.440   1.995  0.5152  0.2434  2.3202
 4712TIP3    H235696   4.833   5.580   1.989 -0.3653  0.6215 -3.6361
 4713TIP3   OH235697   0.496   3.932   7.268  0.2203 -0.0128  0.2583
 4713TIP3    H135698   0.510   3.845   7.305 -0.1995 -0.3810 -0.4430
 4713TIP3    H235699   0.401   3.940   7.260  0.2268  0.6721  0.6788
 4714TIP3   OH235700   1.035   1.437   2.242  0.1397 -0.1657  0.1052
 4714TIP3    H135701   1.043   1.474   2.330  1.2266  0.5838 -0.2791
 4714TIP3    H235702   1.003   1.348   2.256  0.6685 -0.1941  1.2857
 4715TIP3   OH235703   2.030   5.736   1.192 -0.3172 -0.3394  0.1347
 4715TIP3    H135704   2.012   5.825   1.162 -1.9613 -0.7141 -0.0796
 4715TIP3    H235705   2.031   5.683   1.113 -2.7011 -1.0138  0.4859
 4716TIP3   OH235706   5.234   2.107   8.475 -0.7551 -0.7265  0.4419
 4716TIP3    H135707   5.173   2.116   8.548 -0.9552  0.2172  0.1758
 4716TIP3    H235708   5.190   2.047   8.415 -0.3611 -1.9204  1.3116
 4717TIP3   OH235709   0.470   1.190   0.129  0.2528  0.3210 -0.1221
 4717TIP3    H135710   0.563   1.174   0.143  0.1178 -0.4220 -0.0264
 4717TIP3    H235711   0.465   1.227   0.041  0.7255  1.2724  0.2423
 4718TIP3   OH235712   6.382   0.088   7.556 -0.1655  0.2420 -0.4029
 4718TIP3    H135713   6.427   0.133   7.628  0.3119 -0.3848 -0.2918
 4718TIP3    H235714   6.324   0.026   7.599 -0.1212  0.0924 -0.5590
 4719TIP3   OH235715   5.628   5.968   0.819  0.7130  0.1692  0.4953
 4719TIP3    H135716   5.579   5.915   0.882 -1.9066  0.5962 -1.0568
 4719TIP3    H235717   5.641   6.052   0.863 -2.2959  0.9481  0.0863
 4720TIP3   OH235718   1.401   6.883   6.837 -0.3965  0.2745 -0.0739
 4720TIP3    H135719   1.471   6.842   6.887 -1.0718  0.8674  1.4403
 4720TIP3    H235720   1.339   6.913   6.904 -2.9771 -1.7440 -1.4065
 4721TIP3   OH235721   0.161   5.254   7.307 -0.3464  0.1655  0.5950
 4721TIP3    H135722   0.223   5.326   7.316  1.0696 -0.9318 -0.1699
 4721TIP3    H235723   0.165   5.229   7.215 -0.3874 -1.2678  0.9654
 4722TIP3   OH235724   3.803   4.399   7.119  0.3769  0.3237  0.4682
 4722TIP3    H135725   3.788   4.326   7.059  0.2163  0.1129  0.7653
 4722TIP3    H235726   3.797   4.361   7.206 -0.9195  0.9134  0.6562
 4723TIP3   OH235727   0.538   2.611   7.323  0.1403 -0.0836 -0.2065
 4723TIP3    H135728   0.488   2.632   7.402 -0.9570  1.1499 -1.1885
 4723TIP3    H235729   0.522   2.518   7.308  0.4657 -0.3684  1.0727
 4724TIP3   OH235730   0.345   5.842   7.672 -0.7429 -0.7595  0.1072
 4724TIP3    H135731   0.339   5.916   7.732  0.2893 -0.2181 -0.4300
 4724TIP3    H235732   0.439   5.826   7.663 -0.8681 -0.6604 -1.5566
 4725TIP3   OH235733   5.688   3.793   7.102  0.7105 -0.0964 -0.7457
 4725TIP3    H135734   5.782   3.810   7.095  0.9157 -0.3224  1.0124
 4725TIP3    H235735   5.665   3.750   7.020  1.8354  1.2610 -1.8226
 4726TIP3   OH235736   2.203   5.560   0.174 -0.1505  0.1057 -0.0430
 4726TIP3    H135737   2.116   5.562   0.134 -0.7787 -1.6751  1.0936
 4726TIP3    H235738   2.242   5.644   0.152 -1.4546  0.2305 -2.1161
 4727TIP3   OH235739   0.990   3.209   8.333 -0.3716  0.4672 -0.5676
 4727TIP3    H135740   0.932   3.227   8.407 -1.3996 -0.1289 -1.2129
 4727TIP3    H235741   0.951   3.134   8.289  1.3907 -0.5559 -0.5090
 4728TIP3   OH235742   2.828   3.366   0.696  0.7601  0.1699 -0.7267
 4728TIP3    H135743   2.907   3.346   0.646  0.6656 -1.5848 -0.2167
 4728TIP3    H235744   2.756   3.350   0.635  0.7084 -0.6164 -0.4718
 4729TIP3   OH235745   3.845   6.706   2.177 -0.0187 -0.4082 -0.0363
 4729TIP3    H135746   3.857   6.703   2.082 -0.3854 -0.1842 -0.0933
 4729TIP3    H235747   3.913   6.766   2.208 -2.2598  2.6995 -0.6123
 4730TIP3   OH235748   5.580   1.051   2.708  0.0714 -0.3997  0.3636
 4730TIP3    H135749   5.524   1.129   2.710 -0.2376 -0.6003 -0.2863
 4730TIP3    H235750   5.668   1.086   2.688  0.5887  0.1184  3.1493
 4731TIP3   OH235751   3.687   1.273   8.226  0.1077  0.8864 -0.2823
 4731TIP3    H135752   3.677   1.179   8.240  1.3385  0.9832  1.5169
 4731TIP3    H235753   3.743   1.280   8.148  0.6959  0.1066  0.0588
 4732TIP3   OH235754   1.844   4.230   0.391 -0.1612  0.6381  0.2110
 4732TIP3    H135755   1.890   4.150   0.416  1.3429  0.9627 -1.3349
 4732TIP3    H235756   1.810   4.212   0.304  0.7093  1.8544 -0.4115
 4733TIP3   OH235757   4.834   2.562   0.642  0.2810  0.1918 -0.1015
 4733TIP3    H135758   4.783   2.575   0.562  2.1090  0.0155 -1.3661
 4733TIP3    H235759   4.889   2.640   0.648 -0.6594  0.7733  1.6912
 4734TIP3   OH235760   3.078   0.463   0.836 -0.0946  0.2112  0.0897
 4734TIP3    H135761   3.102   0.406   0.910  0.4611  2.9098  2.1708
 4734TIP3    H235762   2.989   0.491   0.856 -1.1830 -1.4415 -2.0255
 4735TIP3   OH235763   3.358   0.599   1.514 -0.1184  0.2412 -0.6789
 4735TIP3    H135764   3.407   0.608   1.432 -0.0655 -0.6840 -0.7579
 4735TIP3    H235765   3.276   0.557   1.489  1.0921 -2.8601  0.0799
 4736TIP3   OH235766   5.287   4.787   1.450  0.5110  0.0295  0.0794
 4736TIP3    H135767   5.256   4.808   1.363  1.0831 -0.4144 -0.2414
 4736TIP3    H235768   5.280   4.869   1.499 -0.2299  0.1675 -0.2541
 4737TIP3   OH235769   0.788   4.963   2.105 -0.0566 -0.1243  0.5255
 4737TIP3    H135770   0.817   5.013   2.029  1.2439 -2.0245 -0.3156
 4737TIP3    H235771   0.696   4.944   2.088  0.3566 -1.0075 -0.9084
 4738TIP3   OH235772   4.020   6.162   1.448  0.0840 -0.2351  0.6566
 4738TIP3    H135773   4.006   6.085   1.503 -0.0300 -0.5162  0.2417
 4738TIP3    H235774   4.006   6.130   1.359 -0.0179  0.2802  0.4856
 4739TIP3   OH235775   3.999   6.071   6.819  0.3740 -0.1311 -0.3960
 4739TIP3    H135776   3.938   6.104   6.885  0.0066 -2.8065  0.6964
 4739TIP3    H235777   3.944   6.052   6.743  0.1995 -0.5186 -0.1719
 4740TIP3   OH235778   0.557   4.781   7.132  0.1655  0.2422  0.0381
 4740TIP3    H135779   0.620   4.784   7.204  1.0016 -1.1591 -0.6055
 4740TIP3    H235780   0.559   4.869   7.095  2.4869  0.0132 -0.5613
 4741TIP3   OH235781   5.045   6.389   7.617  0.0684 -0.1112 -0.2778
 4741TIP3    H135782   4.993   6.460   7.654 -1.0414 -0.4059 -1.1982
 4741TIP3    H235783   5.110   6.433   7.561  1.8212  0.3387  1.9703
 4742TIP3   OH235784   0.424   2.224   1.439 -0.3659 -0.1457  0.0547
 4742TIP3    H135785   0.348   2.270   1.476 -1.4915 -0.7326 -1.4066
 4742TIP3    H235786   0.474   2.292   1.394 -1.5523 -0.1565 -1.3492
 4743TIP3   OH235787   3.991   6.439   1.452 -0.4551  0.0612 -0.2298
 4743TIP3    H135788   3.996   6.355   1.406 -0.4378  0.2281 -0.5343
 4743TIP3    H235789   4.023   6.420   1.540 -0.4682 -0.2558 -0.2919
 4744TIP3   OH235790   1.077   3.967   1.842 -0.3463  0.2008  0.2857
 4744TIP3    H135791   1.068   3.949   1.748 -2.5405  1.1318  0.2605
 4744TIP3    H235792   1.084   3.880   1.882 -2.1594 -0.3762 -0.5423
 4745TIP3   OH235793   0.455   6.040   7.125  0.0269  0.0473 -0.1900
 4745TIP3    H135794   0.373   6.062   7.082 -1.1507  0.6165  2.1676
 4745TIP3    H235795   0.518   6.103   7.091 -0.4887 -0.3641 -1.9966
 4746TIP3   OH235796   6.493   0.261   7.758 -0.3299 -0.2427  0.1961
 4746TIP3    H135797   6.513   0.348   7.725 -0.5792 -0.6868 -1.1819
 4746TIP3    H235798   6.460   0.276   7.847  0.5069  0.9685  0.3259
 4747TIP3   OH235799   4.030   6.158   7.992  0.5483  0.7430 -0.0912
 4747TIP3    H135800   4.010   6.201   8.076 -1.5322  0.3351 -0.3133
 4747TIP3    H235801   4.095   6.092   8.014  0.4309  1.0037  1.1163
 4748TIP3   OH235802   2.452   5.017   6.682 -0.0582  0.4721  0.1662
 4748TIP3    H135803   2.401   4.981   6.610  0.7444  0.3948 -0.3783
 4748TIP3    H235804   2.534   5.046   6.642  0.5839  0.0384  1.1115
 4749TIP3   OH235805   5.030   1.647   1.822 -0.2611 -0.2221 -0.0141
 4749TIP3    H135806   5.091   1.721   1.817  1.4247 -1.6430 -1.6543
 4749TIP3    H235807   5.006   1.643   1.915  1.4167  0.9658  0.5320
 4750TIP3   OH235808   1.961   5.245   1.723  0.2609 -0.4446  0.5435
 4750TIP3    H135809   1.973   5.339   1.736  0.0982 -0.1700 -1.0991
 4750TIP3    H235810   1.897   5.219   1.789 -0.5986  0.8479  0.2440
 4751TIP3   OH235811   3.247   4.127   3.067  0.1599 -0.4091  0.3219
 4751TIP3    H135812   3.335   4.092   3.082  0.1155 -1.2513 -1.2634
 4751TIP3    H235813   3.259   4.192   2.998 -0.6042 -1.2049 -0.5731
 4752TIP3   OH235814   2.667   2.179   7.910 -0.1274  0.1559 -0.5124
 4752TIP3    H135815   2.752   2.219   7.890 -0.5812  1.5775  0.2528
 4752TIP3    H235816   2.690   2.099   7.958  0.7899  0.0582 -1.0802
 4753TIP3   OH235817   2.450   3.721   2.188  0.6494  0.2283 -0.4111
 4753TIP3    H135818   2.449   3.659   2.114 -1.3271 -1.2496  0.7424
 4753TIP3    H235819   2.530   3.700   2.236  0.0361 -1.4961 -0.0640
 4754TIP3   OH235820   5.488   5.467   0.063 -0.4059 -0.1995  0.1562
 4754TIP3    H135821   5.496   5.513  -0.020 -1.3871 -1.3570 -0.6137
 4754TIP3    H235822   5.558   5.503   0.118 -0.6377  1.6150 -0.6654
 4755TIP3   OH235823   1.115   3.836   2.523  0.3106  0.1638  0.3863
 4755TIP3    H135824   1.204   3.808   2.505  0.7223  0.0683  2.3641
 4755TIP3    H235825   1.083   3.774   2.588 -0.4657  1.3924  1.2167
 4756TIP3   OH235826   5.495   0.439   1.617 -0.0660  0.6436  0.3886
 4756TIP3    H135827   5.582   0.440   1.656  0.5594  0.6682 -0.9655
 4756TIP3    H235828   5.455   0.358   1.650  1.4069 -0.6827 -0.9134
 4757TIP3   OH235829   2.569   1.371   8.426 -0.8257 -0.1965 -0.2311
 4757TIP3    H135830   2.525   1.313   8.488 -0.7655 -2.4166 -2.1366
 4757TIP3    H235831   2.630   1.422   8.479 -0.8355 -1.9378  1.5356
 4758TIP3   OH235832   6.676   6.748   8.045 -0.6094 -0.2745 -0.1958
 4758TIP3    H135833   6.622   6.808   8.096 -0.0636 -0.7115  0.9385
 4758TIP3    H235834   6.699   6.678   8.106  0.8655 -0.3216 -0.7476
 4759TIP3   OH235835   2.592   6.504   1.827 -0.2172 -0.1882 -0.1420
 4759TIP3    H135836   2.537   6.544   1.894  1.0712  1.8648 -0.2390
 4759TIP3    H235837   2.608   6.415   1.859 -1.1189  0.1504  1.3496
 4760TIP3   OH235838   6.868   6.787   1.860  0.5169 -0.5075  0.0764
 4760TIP3    H135839   6.928   6.735   1.807  1.2150 -0.3864  0.7267
 4760TIP3    H235840   6.913   6.798   1.944 -1.0288 -1.6956  1.1452
 4761TIP3   OH235841   5.839   6.213   1.826 -0.2356  0.3056  0.0659
 4761TIP3    H135842   5.772   6.235   1.891  0.5062  1.9378  0.3289
 4761TIP3    H235843   5.888   6.140   1.864  0.4358  1.4912  1.5431
 4762TIP3   OH235844   5.814   4.369   0.045  0.1689 -1.0298  0.1240
 4762TIP3    H135845   5.895   4.419   0.061  0.9605 -1.9210 -0.9989
 4762TIP3    H235846   5.789   4.337   0.132  1.3123 -1.1731  0.4230
 4763TIP3   OH235847   1.657   3.671   0.456  0.2557  0.2135 -0.1787
 4763TIP3    H135848   1.602   3.683   0.533  2.3141  1.2544  1.2261
 4763TIP3    H235849   1.655   3.755   0.411 -0.2153 -0.1105 -0.7776
 4764TIP3   OH235850   3.317   5.925   2.142  0.1447  0.2704 -0.1320
 4764TIP3    H135851   3.278   5.961   2.222  0.3644 -0.8493  0.4944
 4764TIP3    H235852   3.402   5.891   2.169 -0.4806 -1.6821 -0.4480
 4765TIP3   OH235853   2.744   0.384   8.482 -0.4982 -0.0694  0.3017
 4765TIP3    H135854   2.748   0.479   8.471  0.4493 -0.2106 -0.6540
 4765TIP3    H235855   2.818   0.351   8.431 -0.7771 -1.3189  0.6906
 4766TIP3   OH235856   3.781   0.427   8.004 -0.2713 -0.3455  0.2160
 4766TIP3    H135857   3.845   0.396   7.941 -1.0472  0.5141 -1.0287
 4766TIP3    H235858   3.833   0.473   8.071  0.5181 -0.9221  0.0124
 4767TIP3   OH235859   2.451   2.803   7.744 -0.2170  0.0087 -0.6450
 4767TIP3    H135860   2.409   2.835   7.665 -1.0788  0.9908  0.1715
 4767TIP3    H235861   2.466   2.710   7.728 -1.7664 -0.1434 -1.3770
 4768TIP3   OH235862   0.153   2.301   8.416  0.6785 -0.5033 -0.2458
 4768TIP3    H135863   0.117   2.254   8.341 -1.2580 -0.4142  0.5561
 4768TIP3    H235864   0.131   2.392   8.401 -0.3807 -0.5649  0.7084
 4769TIP3   OH235865   1.913   1.051   0.759  0.2342  0.5494  0.5135
 4769TIP3    H135866   1.857   1.069   0.834  0.6726 -1.8211  1.5172
 4769TIP3    H235867   1.970   0.980   0.788  1.5930  0.7039 -1.5221
 4770TIP3   OH235868   6.613   4.859   0.114 -0.2579  0.1522  0.0597
 4770TIP3    H135869   6.534   4.880   0.163 -0.2942  1.1366 -0.3904
 4770TIP3    H235870   6.635   4.770   0.141 -2.4346 -0.7825 -1.0514
 4771TIP3   OH235871   5.615   5.737   7.795 -0.0258  0.1700  0.5289
 4771TIP3    H135872   5.624   5.644   7.774  0.1177 -0.0297  1.4232
 4771TIP3    H235873   5.697   5.759   7.840  0.0481  0.7973  0.1061
 4772TIP3   OH235874   2.566   4.159   7.593  0.1498  0.0430 -0.2782
 4772TIP3    H135875   2.477   4.127   7.579 -0.0744  0.7366 -0.4802
 4772TIP3    H235876   2.616   4.121   7.521 -0.1529  0.2852 -0.6261
 4773TIP3   OH235877   0.749   1.279   0.407 -0.1571  0.5120  0.2234
 4773TIP3    H135878   0.681   1.215   0.425 -0.3164  0.5012 -0.3992
 4773TIP3    H235879   0.825   1.228   0.379  0.8008  0.3711  2.8455
 4774TIP3   OH235880   0.961   0.353   8.080  0.1436  0.4935 -0.0777
 4774TIP3    H135881   0.971   0.290   8.151  0.0363 -1.1965 -1.4771
 4774TIP3    H235882   1.047   0.356   8.038  0.5079  2.2939  0.7223
 4775TIP3   OH235883   1.692   6.801   7.290  0.0358  0.0188 -0.2742
 4775TIP3    H135884   1.708   6.719   7.245  2.2325  0.3778 -0.2473
 4775TIP3    H235885   1.636   6.851   7.231 -3.3404 -2.2791  0.6997
 4776TIP3   OH235886   5.466   5.173   7.759 -0.0593  0.8284 -0.4317
 4776TIP3    H135887   5.391   5.144   7.708 -1.2183  0.5169  1.3768
 4776TIP3    H235888   5.455   5.268   7.768  0.1930  0.8964 -0.8211
 4777TIP3   OH235889   2.383   2.191   1.103  0.0615  0.2950 -0.2672
 4777TIP3    H135890   2.316   2.244   1.144 -0.2619  0.1944 -0.6571
 4777TIP3    H235891   2.346   2.103   1.101 -0.4438  0.5215 -1.8761
 4778TIP3   OH235892   5.413   5.776   0.033 -0.2014 -0.0990  0.0883
 4778TIP3    H135893   5.374   5.702   0.080  0.0327 -0.2402  0.0647
 4778TIP3    H235894   5.467   5.735  -0.035 -2.1448  0.1147 -1.6645
 4779TIP3   OH235895   4.657   0.104   7.091 -0.0076  0.2826 -0.3171
 4779TIP3    H135896   4.724   0.043   7.122 -1.0286 -0.6449  0.1422
 4779TIP3    H235897   4.671   0.110   6.997 -0.0252 -0.8530 -0.4038
 4780TIP3   OH235898   5.981   6.051   0.748 -0.7674 -0.2948  0.1850
 4780TIP3    H135899   5.909   6.104   0.714 -1.7552 -0.8577  1.2903
 4780TIP3    H235900   5.941   6.002   0.821  0.3357 -1.8467 -0.2116
 4781TIP3   OH235901   1.730   4.807   6.740 -0.3936  0.0444 -0.3560
 4781TIP3    H135902   1.735   4.816   6.645 -1.0141  2.6763 -0.2058
 4781TIP3    H235903   1.636   4.806   6.759 -0.2737 -0.0377  0.2564
 4782TIP3   OH235904   2.486   3.857   7.645 -0.5674  0.0531  0.1530
 4782TIP3    H135905   2.454   3.877   7.733  1.1746 -1.0335  1.0998
 4782TIP3    H235906   2.581   3.864   7.652 -0.4223  3.7401 -2.6588
 4783TIP3   OH235907   0.146   1.065   7.123  0.1968 -0.1060  0.2025
 4783TIP3    H135908   0.181   1.092   7.038  0.1192 -1.1310 -0.1743
 4783TIP3    H235909   0.052   1.078   7.115  0.3721  1.9885  0.9703
 4784TIP3   OH235910   2.748   1.661   0.548 -0.0902 -0.3145 -0.2001
 4784TIP3    H135911   2.839   1.630   0.546 -0.4100 -1.2524 -0.4861
 4784TIP3    H235912   2.714   1.629   0.631 -1.1348 -2.8691 -1.5259
 4785TIP3   OH235913   2.610   3.697   7.982  0.2861  0.3673 -0.5902
 4785TIP3    H135914   2.602   3.769   7.920  1.2290 -0.1991 -1.4120
 4785TIP3    H235915   2.668   3.635   7.938  1.3031  0.1212  1.0313
 4786TIP3   OH235916   1.541   1.885   0.973 -0.2565 -0.1628 -0.2333
 4786TIP3    H135917   1.530   1.860   1.065 -2.0470 -0.2378 -0.4458
 4786TIP3    H235918   1.580   1.807   0.932  0.0885 -0.3060  0.3458
 4787TIP3   OH235919   4.232   1.391   6.662 -0.1912  0.3027 -0.0078
 4787TIP3    H135920   4.162   1.386   6.727 -0.8796 -0.3419 -0.7681
 4787TIP3    H235921   4.206   1.329   6.594  0.7012  0.6773 -0.7170
 4788TIP3   OH235922   1.180   1.285   8.110 -0.2164 -0.2687  0.2487
 4788TIP3    H135923   1.177   1.331   8.026  0.5504  0.3584  0.5535
 4788TIP3    H235924   1.267   1.244   8.112  1.0024  2.1326  1.9497
 4789TIP3   OH235925   0.411   1.360   6.931  0.2626 -0.8971 -0.1259
 4789TIP3    H135926   0.328   1.343   6.887 -0.1099  0.7082 -0.1308
 4789TIP3    H235927   0.479   1.336   6.868 -0.2551  1.1592 -1.5797
 4790TIP3   OH235928   6.379   0.202   0.045 -0.6146 -0.0099  0.0468
 4790TIP3    H135929   6.466   0.188   0.084 -0.1385  1.5938 -0.3533
 4790TIP3    H235930   6.349   0.114   0.020  0.0145 -0.8350  1.9809
 4791TIP3   OH235931   3.095   1.697   0.536 -0.5144 -0.4826 -0.0111
 4791TIP3    H135932   3.173   1.646   0.559 -0.1988 -0.1864 -0.3951
 4791TIP3    H235933   3.080   1.676   0.444 -1.9942 -1.9627  0.5309
 4792TIP3   OH235934   2.613   2.957   8.225  0.3326  0.7987 -0.3425
 4792TIP3    H135935   2.544   2.948   8.158  1.1170 -2.0136 -0.9187
 4792TIP3    H235936   2.590   3.036   8.273 -1.2584  1.9607 -2.8184
 4793TIP3   OH235937   0.450   6.440   7.364 -0.3778  0.3603 -0.3401
 4793TIP3    H135938   0.483   6.363   7.409 -0.0142  0.4014 -0.5341
 4793TIP3    H235939   0.369   6.461   7.409  0.2504  0.7241  0.6481
 4794TIP3   OH235940   1.199   6.527   7.551  0.2080 -0.0031 -0.1840
 4794TIP3    H135941   1.254   6.530   7.630 -0.6789 -1.0782  0.5025
 4794TIP3    H235942   1.121   6.577   7.575 -0.3120 -0.8112 -0.1663
 4795TIP3   OH235943   0.369   0.293   1.124  0.5346  0.5058 -0.0836
 4795TIP3    H135944   0.337   0.238   1.052 -0.4045  1.8084 -0.7076
 4795TIP3    H235945   0.345   0.246   1.203  0.8849 -0.5828 -0.6089
 4796TIP3   OH235946   0.527   1.781   6.742  0.0680 -0.0798 -0.4831
 4796TIP3    H135947   0.459   1.829   6.695  1.6032  3.1310  0.3016
 4796TIP3    H235948   0.595   1.766   6.676  0.1522  0.0137 -0.4178
 4797TIP3   OH235949   5.409   1.155   7.367 -0.3557 -0.1813 -0.1036
 4797TIP3    H135950   5.359   1.166   7.448 -0.8000 -0.9673 -0.2624
 4797TIP3    H235951   5.362   1.209   7.303 -0.9429 -0.8111 -0.2195
 4798TIP3   OH235952   1.955   2.788   1.604  0.0377  0.6264  0.6065
 4798TIP3    H135953   1.976   2.761   1.693  2.2921 -0.8699 -0.2926
 4798TIP3    H235954   1.910   2.713   1.566  2.0295 -0.1101 -0.4488
 4799TIP3   OH235955   3.696   2.184   7.770  0.1205  0.3048 -0.5539
 4799TIP3    H135956   3.657   2.183   7.858 -1.8287 -0.6791 -1.3798
 4799TIP3    H235957   3.748   2.264   7.769 -0.0658  0.5124  1.3927
 4800TIP3   OH235958   0.875   2.365   1.942 -0.3021 -0.1249  0.1095
 4800TIP3    H135959   0.793   2.341   1.985 -1.5043 -1.2349 -2.5753
 4800TIP3    H235960   0.854   2.443   1.891  0.3433 -0.2971 -0.4502
 4801TIP3   OH235961   3.790   3.273   0.795 -0.7408 -0.3080 -0.3918
 4801TIP3    H135962   3.754   3.237   0.715  1.3526 -2.2554 -0.5456
 4801TIP3    H235963   3.854   3.208   0.825  0.3036  1.4621  1.5399
 4802TIP3   OH235964   5.151   6.134   7.493 -0.5117  0.1054  0.5634
 4802TIP3    H135965   5.116   6.203   7.549 -2.8529  0.6073 -1.3740
 4802TIP3    H235966   5.158   6.174   7.406  2.7825 -0.7152  0.2930
 4803TIP3   OH235967   2.091   4.276   8.073 -0.4238 -0.2128 -0.2270
 4803TIP3    H135968   2.060   4.213   8.008  1.1620 -1.1054 -0.1697
 4803TIP3    H235969   2.087   4.361   8.029  0.8345 -0.8275 -1.5990
 4804TIP3   OH235970   0.433   6.432   0.917 -0.5570 -0.0185  0.6311
 4804TIP3    H135971   0.360   6.376   0.891 -1.9462  1.0865  1.9840
 4804TIP3    H235972   0.392   6.516   0.937  1.2900  1.0841  0.0210
 4805TIP3   OH235973   5.751   1.904   0.939  0.1560  0.1780  0.5629
 4805TIP3    H135974   5.834   1.866   0.969 -0.9162 -2.6894  0.2405
 4805TIP3    H235975   5.772   1.939   0.852  0.6375 -2.6565 -0.5955
 4806TIP3   OH235976   0.668   0.099   6.591  0.2765  0.1260  0.2069
 4806TIP3    H135977   0.633   0.015   6.563 -1.7025  0.5834  1.1199
 4806TIP3    H235978   0.622   0.164   6.538  1.7796  0.6817 -0.4939
 4807TIP3   OH235979   4.250   0.452   0.749 -0.1758  0.3578  0.8249
 4807TIP3    H135980   4.231   0.546   0.749 -1.0886  0.1820  0.4573
 4807TIP3    H235981   4.335   0.445   0.704 -1.1604  0.8323 -1.2293
 4808TIP3   OH235982   1.793   4.755   7.007  0.0764  0.1551  0.2629
 4808TIP3    H135983   1.762   4.790   6.924  0.5400  0.9199  0.4034
 4808TIP3    H235984   1.874   4.709   6.986  0.4598  0.7768  0.3617
 4809TIP3   OH235985   6.642   1.892   1.572 -0.1225 -0.1245  0.0999
 4809TIP3    H135986   6.587   1.816   1.555  3.0138 -2.4332 -0.5071
 4809TIP3    H235987   6.652   1.894   1.667 -1.0735  0.2217  0.2017
 4810TIP3   OH235988   2.669   6.293   0.883  0.3618 -0.1302 -0.3268
 4810TIP3    H135989   2.631   6.326   0.964  0.3224 -0.0486 -0.3786
 4810TIP3    H235990   2.595   6.255   0.836  0.2544  0.4791 -0.6534
 4811TIP3   OH235991   0.427   5.428   2.241  0.1393  0.4833  0.5528
 4811TIP3    H135992   0.387   5.346   2.213  0.7207  0.2917  0.2593
 4811TIP3    H235993   0.354   5.482   2.272 -0.0334 -0.9810  2.9272
 4812TIP3   OH235994   3.825   5.807   6.877 -0.3059 -0.2582 -0.0903
 4812TIP3    H135995   3.856   5.819   6.788  0.1041 -0.2697  0.0474
 4812TIP3    H235996   3.732   5.831   6.874 -0.2149  0.0584 -0.4461
 4813TIP3   OH235997   4.300   1.875   6.859  0.2952  0.5262 -0.4087
 4813TIP3    H135998   4.303   1.939   6.787  1.2551  0.6341 -0.2815
 4813TIP3    H235999   4.380   1.891   6.909  0.8172 -1.0952 -0.6608
 4814TIP3   OH236000   3.906   1.009   0.073  0.2343  0.5186  0.1450
 4814TIP3    H136001   3.916   0.945   0.003  1.6845  0.0106  0.7807
 4814TIP3    H236002   3.870   0.959   0.146 -0.4625  0.8604  0.0420
 4815TIP3   OH236003   3.827   5.921   8.119  0.0732 -0.5783  0.4134
 4815TIP3    H136004   3.878   5.843   8.099  0.1162 -0.9257  1.8099
 4815TIP3    H236005   3.857   5.986   8.055  1.0770 -1.2771  0.1501
 4816TIP3   OH236006   5.506   4.366   2.107 -0.4453 -0.0444 -0.1212
 4816TIP3    H136007   5.511   4.308   2.184  1.3329 -0.5710 -0.5817
 4816TIP3    H236008   5.449   4.319   2.047 -0.3627 -0.5351  0.1703
 4817TIP3   OH236009   2.325   2.722   0.582  0.2463  1.1849 -0.3077
 4817TIP3    H136010   2.397   2.774   0.618  0.1881  0.9605  0.1448
 4817TIP3    H236011   2.340   2.634   0.618 -0.9729  1.4168  0.8433
 4818TIP3   OH236012   0.280   4.392   2.658 -0.0041 -0.3202  0.1260
 4818TIP3    H136013   0.244   4.307   2.684 -0.1850 -0.2868 -0.0036
 4818TIP3    H236014   0.360   4.371   2.611  0.2212 -0.3894  0.5421
 4819TIP3   OH236015   0.213   6.733   7.345  0.6202 -0.1737 -0.3044
 4819TIP3    H136016   0.195   6.649   7.387  0.2395 -0.4358 -0.9709
 4819TIP3    H236017   0.241   6.790   7.416 -1.9275 -0.0275  0.7037
 4820TIP3   OH236018   6.787   6.524   0.071 -0.0646 -0.5335 -0.2609
 4820TIP3    H136019   6.809   6.561  -0.015  0.3329 -0.0471  0.0388
 4820TIP3    H236020   6.855   6.459   0.087  0.9312  0.6383  0.4586
 4821TIP3   OH236021   0.799   1.304   0.765  0.1350 -0.2991  0.2491
 4821TIP3    H136022   0.717   1.305   0.716  0.9729  0.0704 -1.2339
 4821TIP3    H236023   0.780   1.351   0.846 -1.1078 -0.2220 -0.0739
 4822TIP3   OH236024   1.458   2.386   0.486 -0.2486 -0.1784 -0.1870
 4822TIP3    H136025   1.368   2.368   0.515 -0.4996  0.6885 -0.4170
 4822TIP3    H236026   1.501   2.300   0.489 -1.2646 -0.7236 -0.7104
 4823TIP3   OH236027   4.800   1.656   1.645 -0.5488  0.1586  0.5719
 4823TIP3    H136028   4.789   1.561   1.644 -0.6137  0.1136  2.2070
 4823TIP3    H236029   4.868   1.671   1.711 -2.4055  1.3602  2.3404
 4824TIP3   OH236030   0.024   6.863   8.110 -0.3549  0.3824  0.2425
 4824TIP3    H136031  -0.049   6.808   8.082  0.1469 -0.7123  1.0056
 4824TIP3    H236032   0.068   6.888   8.028 -0.2551 -0.8560 -0.1094
 4825TIP3   OH236033   3.494   0.932   6.695 -0.3406  0.2248  0.2206
 4825TIP3    H136034   3.439   1.005   6.668 -2.1486 -0.6461  1.3168
 4825TIP3    H236035   3.482   0.927   6.790  2.0179  0.2504  0.5888
 4826TIP3   OH236036   4.585   2.687   8.486 -0.3380 -0.3656 -0.3388
 4826TIP3    H136037   4.673   2.652   8.474  0.7943  1.2501  2.2859
 4826TIP3    H236038   4.580   2.762   8.428 -0.3172 -0.9343 -1.0905
 4827TIP3   OH236039   5.871   6.294   0.152  0.3370 -0.0020 -0.4352
 4827TIP3    H136040   5.840   6.213   0.111  0.3010 -0.2663  0.1005
 4827TIP3    H236041   5.794   6.327   0.200  0.7357 -0.4240  0.5351
 4828TIP3   OH236042   3.847   6.634   0.617 -0.1454  0.5076 -0.7485
 4828TIP3    H136043   3.776   6.582   0.653  1.2356 -1.3122 -0.5143
 4828TIP3    H236044   3.886   6.678   0.693  1.2848 -1.4702 -0.2713
 4829TIP3   OH236045   5.115   2.379   0.406 -0.5854  0.5729 -0.2723
 4829TIP3    H136046   5.128   2.464   0.447 -0.5597  0.3973  0.0908
 4829TIP3    H236047   5.099   2.319   0.479 -1.6032  0.4506 -0.5750
 4830TIP3   OH236048   5.479   1.585   8.434 -0.2286  0.1860  0.4967
 4830TIP3    H136049   5.434   1.604   8.351  1.1217 -0.2521 -0.3616
 4830TIP3    H236050   5.570   1.568   8.409  0.0264 -0.7903  1.9751
 4831TIP3   OH236051   0.091   5.996   8.462 -0.5939  0.1623  0.0409
 4831TIP3    H136052   0.006   6.024   8.428 -0.1561  0.3973 -0.8906
 4831TIP3    H236053   0.089   5.901   8.457 -0.4600  0.2011 -0.8563
 4832TIP3   OH236054   2.659   3.362   0.446  0.0648 -1.0673  0.3865
 4832TIP3    H136055   2.689   3.282   0.403  0.1274 -1.0427  0.3847
 4832TIP3    H236056   2.687   3.433   0.388  1.1757 -0.9536  1.0285
 4833TIP3   OH236057   4.873   1.415   8.138 -0.2800 -1.1053  0.3200
 4833TIP3    H136058   4.821   1.493   8.153  0.5729 -0.5175  0.2906
 4833TIP3    H236059   4.825   1.345   8.183  0.0535 -0.1663  2.2655
 4834TIP3   OH236060   2.716   0.579   2.094 -0.1197  0.2017 -0.0707
 4834TIP3    H136061   2.630   0.596   2.055 -0.7623  1.0716  1.6150
 4834TIP3    H236062   2.718   0.484   2.106 -0.7112  0.1380 -0.4240
 4835TIP3   OH236063   5.831   5.642   6.966  0.3652  0.2233  0.5169
 4835TIP3    H136064   5.816   5.731   6.998  1.0048  0.9225 -1.0404
 4835TIP3    H236065   5.750   5.618   6.923  0.3691  0.2487  0.4958
 4836TIP3   OH236066   1.923   2.072   6.549 -0.5612 -0.1882  0.2615
 4836TIP3    H136067   1.974   2.054   6.470  1.3079 -0.3982  1.4696
 4836TIP3    H236068   1.916   2.167   6.551 -0.7788 -0.1860 -0.2284
 4837TIP3   OH236069   2.875   4.515   6.823  0.4789  0.0245 -0.0888
 4837TIP3    H136070   2.821   4.437   6.834  0.2685  0.0375 -1.0203
 4837TIP3    H236071   2.931   4.496   6.748 -0.0818  1.0624 -0.7866
 4838TIP3   OH236072   3.651   6.507   7.834 -0.0850  0.1511 -0.1191
 4838TIP3    H136073   3.663   6.461   7.917  0.0819  0.9489  0.3144
 4838TIP3    H236074   3.685   6.447   7.768 -0.2574 -0.5100  0.3815
 4839TIP3   OH236075   4.968   1.034   0.758  0.1233  0.5547  0.1467
 4839TIP3    H136076   5.017   0.990   0.827  0.7179  0.2239 -0.4880
 4839TIP3    H236077   4.986   1.127   0.772  1.5933  0.3913 -0.5763
 4840TIP3   OH236078   1.909   3.573   6.999  0.1678  0.6299 -0.7964
 4840TIP3    H136079   1.930   3.665   6.986 -0.9763  0.7529 -1.9226
 4840TIP3    H236080   1.946   3.529   6.922  2.6547 -0.2355  0.7560
 4841TIP3   OH236081   1.856   3.769   1.120 -0.4237 -0.3724 -0.3325
 4841TIP3    H136082   1.841   3.755   1.027  0.9678 -0.2740 -0.6018
 4841TIP3    H236083   1.837   3.862   1.134 -0.4486 -0.3422 -0.5680
 4842TIP3   OH236084   1.021   0.901   0.006  0.1462  0.1930 -0.0574
 4842TIP3    H136085   1.095   0.877   0.063  0.3430 -0.3477 -0.5237
 4842TIP3    H236086   1.055   0.971  -0.049 -0.1922  1.0477  0.8000
 4843TIP3   OH236087   4.368   5.182   6.152  0.5979 -0.1744 -0.2546
 4843TIP3    H136088   4.453   5.177   6.108  0.3512  0.7484 -0.8689
 4843TIP3    H236089   4.331   5.265   6.122  0.1665  0.2032  1.2549
 4844TIP3   OH236090   2.062   2.483   0.016  0.8424 -0.4158 -0.5877
 4844TIP3    H136091   2.121   2.548  -0.023  2.3257 -1.5935 -0.3588
 4844TIP3    H236092   2.017   2.444  -0.059 -0.2490  0.9750 -0.7205
 4845TIP3   OH236093   0.618   2.690   1.958 -0.5813  0.2446  0.3755
 4845TIP3    H136094   0.619   2.684   2.053 -0.2334 -1.0833  0.3050
 4845TIP3    H236095   0.566   2.768   1.939 -0.3593  0.7228  1.6514
 4846TIP3   OH236096   6.501   4.979   1.306 -0.4191  0.4642  0.3066
 4846TIP3    H136097   6.411   5.007   1.322 -0.5922 -0.4714  1.1001
 4846TIP3    H236098   6.545   4.988   1.391  0.1736  0.6645 -0.0105
 4847TIP3   OH236099   6.017   6.564   0.577  0.3536 -0.1405  0.3579
 4847TIP3    H136100   6.105   6.571   0.541  0.0357  0.1937 -0.3638
 4847TIP3    H236101   5.962   6.541   0.502 -0.3678  0.9131  0.5572
 4848TIP3   OH236102   3.043   1.793   6.316 -0.0744 -0.1098 -0.0238
 4848TIP3    H136103   3.127   1.748   6.326 -1.4870 -2.5112  2.3723
 4848TIP3    H236104   3.055   1.877   6.360  0.5525 -1.2610  2.1224
 4849TIP3   OH236105   1.215   3.757   1.023 -0.3490 -0.0178 -0.1862
 4849TIP3    H136106   1.166   3.689   1.070  2.1801 -2.2922 -0.6050
 4849TIP3    H236107   1.159   3.779   0.948 -1.4374 -1.3492  0.2028
 4850TIP3   OH236108   6.637   2.615   8.278 -0.0777 -0.0526 -0.5705
 4850TIP3    H136109   6.642   2.628   8.183 -0.9046  0.5959 -0.5410
 4850TIP3    H236110   6.570   2.548   8.290  1.1336 -1.2999 -0.5009
 4851TIP3   OH236111   2.248   3.386   6.970  0.1094 -0.0574 -0.7916
 4851TIP3    H136112   2.236   3.303   7.016 -0.4164 -0.0276 -0.8732
 4851TIP3    H236113   2.257   3.361   6.878 -1.8577  0.0961 -1.0520
 4852TIP3   OH236114   3.354   2.972   2.319  0.1163 -0.2190 -0.6942
 4852TIP3    H136115   3.442   2.935   2.308  0.8174  0.7545  1.2247
 4852TIP3    H236116   3.317   2.925   2.393  0.0581  1.1332  0.1663
 4853TIP3   OH236117   6.521   2.558   0.458 -0.2382 -0.0512  0.2228
 4853TIP3    H136118   6.523   2.585   0.550 -1.8211  1.7207 -0.1913
 4853TIP3    H236119   6.494   2.467   0.459  0.4513 -0.2558  1.5386
 4854TIP3   OH236120   6.719   0.421   1.141  0.0519 -0.3164  0.2334
 4854TIP3    H136121   6.681   0.411   1.053 -0.3042  2.0017  0.0508
 4854TIP3    H236122   6.793   0.361   1.143 -1.1304 -1.8933 -0.9118
 4855TIP3   OH236123   5.050   6.664   2.313 -0.4804  0.3986 -1.3557
 4855TIP3    H136124   4.965   6.703   2.292 -2.2668 -1.9730  0.7505
 4855TIP3    H236125   5.040   6.572   2.288  0.8966 -0.2641  0.3528
 4856TIP3   OH236126   5.913   0.201   0.178 -0.1815  0.2267 -0.0525
 4856TIP3    H136127   5.852   0.253   0.230 -0.8633 -0.8291  0.2434
 4856TIP3    H236128   5.906   0.237   0.089  0.1240  1.2796  0.3317
 4857TIP3   OH236129   3.423   4.970   1.044 -0.1680  0.0574 -0.0145
 4857TIP3    H136130   3.370   4.959   0.965 -2.3212  0.1444  1.3313
 4857TIP3    H236131   3.403   4.893   1.098  0.6223  0.3897  0.7875
 4858TIP3   OH236132   4.435   0.596   8.477 -0.2601 -0.1161  0.0314
 4858TIP3    H136133   4.419   0.521   8.420 -0.1056 -0.1888  0.0839
 4858TIP3    H236134   4.441   0.558   8.565  2.5699 -0.4238 -0.1982
 4859TIP3   OH236135   4.961   2.033   0.852 -0.6582  0.1190 -0.4341
 4859TIP3    H136136   4.868   2.046   0.835 -0.8704 -0.7303 -0.0208
 4859TIP3    H236137   4.998   2.010   0.767 -0.4803  2.1324 -0.9451
 4860TIP3   OH236138   2.496   6.269   1.112  0.5285  0.7730  0.0939
 4860TIP3    H136139   2.465   6.285   1.202  0.0270 -1.6663  0.4439
 4860TIP3    H236140   2.538   6.183   1.117  1.7929  1.2396 -1.7413
 4861TIP3   OH236141   6.229   3.850   7.283  0.0176  0.3187 -0.0557
 4861TIP3    H136142   6.191   3.765   7.261 -0.6323  1.2347 -2.9345
 4861TIP3    H236143   6.227   3.854   7.378 -1.9413 -1.9851  0.0859
 4862TIP3   OH236144   6.817   3.935   6.744  0.2277 -0.2086  0.3291
 4862TIP3    H136145   6.808   3.916   6.651  2.1616  0.7412 -0.1046
 4862TIP3    H236146   6.728   3.956   6.773 -0.5269 -1.2910 -1.0946
 4863TIP3   OH236147   3.980   4.708   0.702 -0.2398 -0.3617  0.0625
 4863TIP3    H136148   3.897   4.737   0.739 -0.4198  0.2982 -0.8182
 4863TIP3    H236149   4.024   4.790   0.678  0.9705 -0.6568  1.1262
 4864TIP3   OH236150   6.002   0.309   0.737  0.3405 -0.2989 -0.1554
 4864TIP3    H136151   5.984   0.301   0.644 -0.2489  1.6678 -0.2657
 4864TIP3    H236152   5.948   0.241   0.778 -0.3425 -0.3817 -1.1555
 4865TIP3   OH236153   1.936   2.671   6.975  0.1310  0.1743 -0.1425
 4865TIP3    H136154   1.965   2.615   7.047  0.1721  0.2150 -0.1275
 4865TIP3    H236155   1.893   2.610   6.913  0.9517 -0.0077 -0.5456
 4866TIP3   OH236156   4.485   2.882   7.342 -0.7512 -0.2111 -0.1608
 4866TIP3    H136157   4.566   2.927   7.318 -0.8806  0.1524  0.0773
 4866TIP3    H236158   4.463   2.916   7.428  0.0145 -1.9189  0.7762
 4867TIP3   OH236159   3.717   0.706   7.450  0.0806 -0.1745  0.5358
 4867TIP3    H136160   3.674   0.789   7.430  0.9688 -0.5270 -3.9832
 4867TIP3    H236161   3.799   0.730   7.493 -0.5107  1.1392  0.9597
 4868TIP3   OH236162   5.219   3.129   1.884 -0.1103  0.2048  0.7640
 4868TIP3    H136163   5.155   3.192   1.918 -0.0192  1.4715 -1.2610
 4868TIP3    H236164   5.167   3.064   1.837  0.0302  1.7820 -1.7491
 4869TIP3   OH236165   5.768   3.631   7.731 -0.1662 -0.1231 -0.2774
 4869TIP3    H136166   5.833   3.634   7.660 -0.3791 -0.4569 -0.4941
 4869TIP3    H236167   5.805   3.571   7.795 -0.6306 -0.9828 -0.7912
 4870TIP3   OH236168   5.913   1.127   8.129 -0.1595  0.6209 -0.0130
 4870TIP3    H136169   5.871   1.160   8.209 -1.0879  0.6071 -0.4783
 4870TIP3    H236170   5.959   1.048   8.157 -1.8157 -0.3085  0.2263
 4871TIP3   OH236171   3.168   2.147   8.464  0.3513 -0.0739 -0.4942
 4871TIP3    H136172   3.105   2.164   8.535  0.4877 -0.5136 -0.2597
 4871TIP3    H236173   3.129   2.188   8.387  0.8226  1.5432  0.0999
 4872TIP3   OH236174   2.573   3.396   6.992  0.1315  0.3286  0.5516
 4872TIP3    H136175   2.547   3.397   6.900  0.2904 -0.9406  0.4721
 4872TIP3    H236176   2.513   3.458   7.035  1.5338  2.7359 -0.7359
 4873TIP3   OH236177   0.915   6.109   8.025  0.3612 -0.2871 -1.0241
 4873TIP3    H136178   0.864   6.112   8.107 -0.2262 -1.0801 -1.3481
 4873TIP3    H236179   0.925   6.200   8.000  0.6756 -0.0229  0.0156
 4874TIP3   OH236180   0.968   5.503   0.791 -0.2143 -0.2441  0.6962
 4874TIP3    H136181   0.900   5.435   0.793 -1.4411  0.9160 -0.1917
 4874TIP3    H236182   0.996   5.510   0.882 -0.9495 -1.0816  1.0075
 4875TIP3   OH236183   1.096   6.883   7.612 -0.2222 -0.5925  0.2632
 4875TIP3    H136184   1.104   6.862   7.705  1.4764  1.2213  0.5989
 4875TIP3    H236185   1.186   6.880   7.579 -0.0570  3.4821 -0.1236
 4876TIP3   OH236186   4.075   2.871   7.430  0.1516 -0.0421 -0.6414
 4876TIP3    H136187   4.169   2.876   7.409  0.6753  0.6753  1.6136
 4876TIP3    H236188   4.064   2.785   7.469  0.0592  0.2365 -0.0557
 4877TIP3   OH236189   5.975   2.523   8.506 -0.2895 -0.1991 -0.0154
 4877TIP3    H136190   6.026   2.442   8.508 -0.6221 -0.3953  1.1023
 4877TIP3    H236191   5.922   2.516   8.426 -0.8940 -1.4548  0.4600
 4878TIP3   OH236192   1.249   2.960   8.191 -0.1471 -0.4053 -0.4850
 4878TIP3    H136193   1.335   2.920   8.172  0.3027  1.1950 -2.1070
 4878TIP3    H236194   1.242   2.958   8.286  1.9833 -0.0224 -0.2740
 4879TIP3   OH236195   6.175   4.963   1.613 -0.0709 -0.0338  0.2893
 4879TIP3    H136196   6.112   5.032   1.593 -0.2147 -0.1488  0.3472
 4879TIP3    H236197   6.135   4.913   1.684 -0.5091 -0.9158 -0.5540
 4880TIP3   OH236198   3.703   6.256   8.443  0.2521 -0.2190  0.0128
 4880TIP3    H136199   3.732   6.205   8.518  1.8725 -2.6308 -2.0673
 4880TIP3    H236200   3.659   6.193   8.386  0.5666  1.1059 -1.8152
 4881TIP3   OH236201   5.286   2.734   0.151 -0.1997 -0.2360 -0.3668
 4881TIP3    H136202   5.343   2.657   0.143  0.3725  0.0735  0.5524
 4881TIP3    H236203   5.328   2.788   0.217 -1.8536 -0.2379  0.7367
 4882TIP3   OH236204   5.405   4.651   2.673  0.0554  0.1365  0.0733
 4882TIP3    H136205   5.495   4.680   2.660  0.1408  0.4607  1.2907
 4882TIP3    H236206   5.352   4.727   2.651  0.1704  0.5011  1.0279
 4883TIP3   OH236207   5.466   5.566   1.010  0.3352  0.1670  0.2421
 4883TIP3    H136208   5.522   5.592   1.083 -0.9844  0.6364  1.1333
 4883TIP3    H236209   5.499   5.615   0.935  1.0750  0.4654  0.7568
 4884TIP3   OH236210   4.193   5.848   1.906 -0.0813 -0.2092 -0.1065
 4884TIP3    H136211   4.193   5.901   1.826  1.1794 -2.0506 -1.3923
 4884TIP3    H236212   4.110   5.870   1.949 -1.0976  0.3783 -2.2173
 4885TIP3   OH236213   2.270   0.754   1.059 -0.1225 -0.3277  0.1827
 4885TIP3    H136214   2.292   0.661   1.053  0.0660 -0.2859  0.2294
 4885TIP3    H236215   2.289   0.777   1.150  3.6872  0.7278 -0.6945
 4886TIP3   OH236216   5.959   6.644   1.345  0.0045  0.2234  0.2961
 4886TIP3    H136217   6.026   6.711   1.337  1.9977 -1.7089 -0.1834
 4886TIP3    H236218   5.898   6.662   1.274  0.1314  1.8459  0.5565
 4887TIP3   OH236219   2.145   4.801   1.315  0.4242 -0.0909 -0.0874
 4887TIP3    H136220   2.163   4.742   1.388  0.2914 -0.3966 -0.2967
 4887TIP3    H236221   2.057   4.778   1.287  1.0194 -1.0378 -1.3091
 4888TIP3   OH236222   5.953   4.107   0.215 -0.0740  0.1169  0.5933
 4888TIP3    H136223   6.043   4.133   0.235  0.8337 -1.1389 -1.4577
 4888TIP3    H236224   5.899   4.182   0.240  1.8035  1.8331 -0.2909
 4889TIP3   OH236225   0.656   2.940   0.182 -0.6060  0.2321 -0.0893
 4889TIP3    H136226   0.639   3.030   0.209 -1.8528  0.5276 -1.6794
 4889TIP3    H236227   0.720   2.948   0.112 -0.2699 -0.1808  0.1689
 4890TIP3   OH236228   5.666   4.119   0.544  0.4038  0.1213 -0.0698
 4890TIP3    H136229   5.709   4.128   0.630  0.4270 -0.0107 -0.0680
 4890TIP3    H236230   5.577   4.090   0.565  0.5543 -0.3871 -0.1134
 4891TIP3   OH236231   0.224   3.877   2.201  0.2162  0.7433  0.3414
 4891TIP3    H136232   0.289   3.836   2.258 -0.3255  0.7919  1.0142
 4891TIP3    H236233   0.227   3.970   2.224  0.4021  0.8568 -0.1289
 4892TIP3   OH236234   5.355   6.377   0.350  0.0579  0.7660  0.1396
 4892TIP3    H136235   5.305   6.318   0.406 -0.4699 -0.9820 -2.0659
 4892TIP3    H236236   5.350   6.339   0.263  2.4305  2.3559 -0.8060
 4893TIP3   OH236237   5.859   6.022   2.730 -0.2022  0.1472  0.6909
 4893TIP3    H136238   5.834   6.098   2.783  0.4186  0.2887  0.7899
 4893TIP3    H236239   5.929   6.055   2.673 -2.4829  0.6977 -2.0208
 4894TIP3   OH236240   0.431   2.502   1.630 -0.7672 -0.5426  0.9613
 4894TIP3    H136241   0.368   2.522   1.699 -2.1698  1.4755 -0.7750
 4894TIP3    H236242   0.394   2.542   1.551  1.5451 -1.3420 -0.6400
 4895TIP3   OH236243   4.331   1.322   7.054  0.1551 -0.1227  0.1101
 4895TIP3    H136244   4.333   1.377   6.975  1.5060 -0.5200 -0.1644
 4895TIP3    H236245   4.420   1.330   7.090  0.1752 -1.6092  0.4333
 4896TIP3   OH236246   0.357   3.118   0.307 -0.4287 -0.0967  0.3259
 4896TIP3    H136247   0.369   3.167   0.226 -0.0166  0.8473  0.9406
 4896TIP3    H236248   0.375   3.027   0.283 -1.2822  0.0260 -0.8490
 4897TIP3   OH236249   0.634   3.617   0.144  0.1357  0.0039  0.1063
 4897TIP3    H136250   0.548   3.655   0.125  0.4308 -0.3761 -2.2294
 4897TIP3    H236251   0.691   3.693   0.157 -0.3986  0.2612  1.0701
 4898TIP3   OH236252   4.609   2.280   1.885 -0.3110 -0.6857 -0.5589
 4898TIP3    H136253   4.670   2.353   1.894  0.1886 -1.2879  1.2606
 4898TIP3    H236254   4.647   2.210   1.938 -1.4533 -1.8376 -1.2016
 4899TIP3   OH236255   6.466   3.415   0.290  0.2053 -0.0656  0.0979
 4899TIP3    H136256   6.500   3.329   0.267  0.6412 -0.1822  1.1364
 4899TIP3    H236257   6.515   3.440   0.368 -0.8438  0.5406  0.5859
 4900TIP3   OH236258   5.197   2.627   0.557  0.7624 -0.5445 -0.4822
 4900TIP3    H136259   5.269   2.685   0.584  1.2354 -1.8582  1.2286
 4900TIP3    H236260   5.124   2.652   0.614  0.4951 -0.5971 -0.8009
 4901TIP3   OH236261   6.823   4.386   0.046  0.2718  0.2686  0.0040
 4901TIP3    H136262   6.827   4.298   0.010 -0.9750  0.6469 -1.1298
 4901TIP3    H236263   6.906   4.426   0.021  0.5601 -0.3512 -0.0548
 4902TIP3   OH236264   5.700   5.216   8.245  0.0685  0.1749 -0.2048
 4902TIP3    H136265   5.641   5.219   8.169 -2.0151  0.1602  1.3167
 4902TIP3    H236266   5.708   5.307   8.273  1.9095  0.3487 -1.1633
 4903TIP3   OH236267   5.229   2.458   1.851  0.1185 -0.0070 -0.0904
 4903TIP3    H136268   5.200   2.372   1.820  0.6714  0.3935 -1.8054
 4903TIP3    H236269   5.265   2.441   1.938  1.4162 -1.7600 -0.9139
 4904TIP3   OH236270   5.551   4.559   1.366  0.7800 -0.3931  0.1049
 4904TIP3    H136271   5.473   4.504   1.380 -1.4273  3.2147  4.1684
 4904TIP3    H236272   5.540   4.592   1.277 -3.3431  1.0657  0.9145
 4905TIP3   OH236273   5.625   4.185   7.242  0.0865 -0.1477 -0.1314
 4905TIP3    H136274   5.585   4.260   7.285 -0.9777  0.4767 -2.0611
 4905TIP3    H236275   5.563   4.114   7.255  0.5323 -0.3915  0.7004
 4906TIP3   OH236276   0.894   6.222   0.323 -0.3593  0.4397  0.6239
 4906TIP3    H136277   0.861   6.146   0.372  1.3969  0.5679  2.1127
 4906TIP3    H236278   0.842   6.296   0.355  1.0233  0.5986  2.7529
 4907TIP3   OH236279   2.695   5.738   8.362  0.0018  0.6665  0.0783
 4907TIP3    H136280   2.646   5.657   8.376  2.0384 -0.5209  0.7200
 4907TIP3    H236281   2.690   5.752   8.267 -2.4829  1.2442  0.2315
 4908TIP3   OH236282   0.832   2.862   2.493  0.2888  0.1821 -0.4559
 4908TIP3    H136283   0.737   2.876   2.495  0.3188  0.5129  1.8308
 4908TIP3    H236284   0.864   2.922   2.426 -0.9422  1.4920  0.0713
 4909TIP3   OH236285   3.301   1.131   7.735  0.0375  0.1222 -0.0666
 4909TIP3    H136286   3.348   1.048   7.738 -0.5656 -0.2999 -1.3783
 4909TIP3    H236287   3.211   1.108   7.762 -0.0240  0.4306 -0.0079
 4910TIP3   OH236288   6.399   5.468   0.410  0.3727  0.5874  0.1891
 4910TIP3    H136289   6.351   5.546   0.439 -0.3761  0.5236 -0.8261
 4910TIP3    H236290   6.437   5.492   0.326 -0.0780 -0.2119 -0.2592
 4911TIP3   OH236291   5.201   5.870   0.616  0.5556 -0.2121  0.1185
 4911TIP3    H136292   5.146   5.824   0.553  1.7255 -0.1370 -0.9952
 4911TIP3    H236293   5.248   5.935   0.565 -0.0486  1.3509  1.4414
 4912TIP3   OH236294   5.998   2.227   0.881  0.1662  0.2322  0.0881
 4912TIP3    H136295   6.093   2.225   0.876  0.1309 -1.8549 -3.3935
 4912TIP3    H236296   5.977   2.317   0.905  2.9887  1.0639 -0.1973
 4913TIP3   OH236297   2.130   1.959   1.463  0.2715 -0.4127  0.1078
 4913TIP3    H136298   2.074   1.973   1.540 -0.2524  0.5956 -0.4365
 4913TIP3    H236299   2.198   2.026   1.472 -0.5430  0.5941 -0.9730
 4914TIP3   OH236300   3.581   1.240   7.593  0.1844  0.6895  0.4815
 4914TIP3    H136301   3.616   1.310   7.648  0.1356  0.7378  0.4520
 4914TIP3    H236302   3.525   1.188   7.651 -0.2807  1.0434  0.3603
 4915TIP3   OH236303   2.236   6.494   0.271  0.0153  0.8592 -0.4309
 4915TIP3    H136304   2.320   6.539   0.279 -0.3876  1.4237  0.9662
 4915TIP3    H236305   2.204   6.486   0.361 -0.7290 -0.7166 -0.7977
 4916TIP3   OH236306   3.796   1.554   7.066 -0.0205 -0.5384 -0.6163
 4916TIP3    H136307   3.765   1.598   6.986 -0.6687 -1.4645 -0.8897
 4916TIP3    H236308   3.746   1.472   7.069  0.4273 -0.7847  0.4308
 4917TIP3   OH236309   3.376   6.287   7.095  0.6182  0.5988  0.3572
 4917TIP3    H136310   3.284   6.282   7.121  0.1350  1.2289 -1.1358
 4917TIP3    H236311   3.387   6.218   7.029  0.6248  1.8865 -1.0569
 4918TIP3   OH236312   2.243   2.565   7.738  0.6407 -0.3388  0.0515
 4918TIP3    H136313   2.222   2.492   7.680  0.6248  0.1665 -0.6007
 4918TIP3    H236314   2.221   2.643   7.686  1.5901  0.1485  0.3548
 4919TIP3   OH236315   6.212   2.424   7.890 -0.1406  0.2293  0.1007
 4919TIP3    H136316   6.263   2.352   7.928  1.9898  1.9240  0.5876
 4919TIP3    H236317   6.125   2.385   7.875  0.7218 -2.2460  0.9334
 4920TIP3   OH236318   6.806   4.305   8.169  0.1099 -0.2327 -0.0959
 4920TIP3    H136319   6.857   4.370   8.217  1.3138 -1.1568 -0.1039
 4920TIP3    H236320   6.866   4.233   8.153 -0.8633 -0.8520 -1.1526
 4921TIP3   OH236321   1.451   5.001   0.101 -0.7618  0.8705 -0.4726
 4921TIP3    H136322   1.514   5.043   0.159 -0.3545  1.9425 -1.6503
 4921TIP3    H236323   1.392   4.954   0.160  1.5362 -0.8001  0.6367
 4922TIP3   OH236324   2.871   0.862   0.925 -0.2275 -0.5384  0.8480
 4922TIP3    H136325   2.958   0.870   0.965  1.4693  1.0859 -2.7105
 4922TIP3    H236326   2.850   0.769   0.933  2.4251 -1.2284  0.8249
 4923TIP3   OH236327   0.042   2.938   8.491  0.2612  0.4696 -0.0586
 4923TIP3    H136328  -0.023   2.873   8.517  0.2927  0.4983  0.0911
 4923TIP3    H236329   0.048   2.929   8.396  1.1658 -0.5786  0.0823
 4924TIP3   OH236330   6.479   2.945   5.975  0.3515  1.1531  0.1578
 4924TIP3    H136331   6.390   2.921   5.949  0.1781  1.2739  0.6257
 4924TIP3    H236332   6.520   2.863   6.002  0.9086  0.8285 -1.5257
 4925TIP3   OH236333   1.102   1.437   1.451 -0.2390  0.2181  0.4681
 4925TIP3    H136334   1.191   1.404   1.460 -0.4386  0.1104  2.6746
 4925TIP3    H236335   1.090   1.496   1.526 -2.7022 -1.5112  1.5882
 4926TIP3   OH236336   2.289   1.803   8.431  0.3608 -0.1147  0.1948
 4926TIP3    H136337   2.215   1.775   8.486  0.9051  0.1294  1.0768
 4926TIP3    H236338   2.257   1.796   8.341 -1.1277  1.0465  0.5882
 4927TIP3   OH236339   6.826   4.987   7.143 -0.1928 -0.3707 -0.4457
 4927TIP3    H136340   6.882   4.909   7.145  0.6362  0.2186  0.2681
 4927TIP3    H236341   6.880   5.054   7.101 -0.4477  0.1435  0.0361
 4928TIP3   OH236342   3.974   2.332   8.399  0.3827  0.2542 -0.3611
 4928TIP3    H136343   3.897   2.305   8.449  0.5334  1.4297  0.5548
 4928TIP3    H236344   4.034   2.258   8.405  0.5710  0.5066  1.6049
 4929TIP3   OH236345   5.514   6.005   7.905  0.7153 -0.1422 -0.1467
 4929TIP3    H136346   5.439   6.023   7.848 -0.1332  0.1364  1.0243
 4929TIP3    H236347   5.555   5.927   7.867 -0.6983 -0.8308 -0.2949
 4930TIP3   OH236348   2.495   2.822   2.113 -0.7873 -0.4125  0.2144
 4930TIP3    H136349   2.585   2.793   2.096 -0.2699 -0.2664  2.4114
 4930TIP3    H236350   2.446   2.792   2.037  1.3945  1.0291 -1.9303
 4931TIP3   OH236351   0.539   1.223   0.754  0.0825  0.1267  0.3622
 4931TIP3    H136352   0.540   1.166   0.677  0.3658  0.8576 -0.1863
 4931TIP3    H236353   0.525   1.163   0.828 -0.3676 -0.5630 -0.2675
 4932TIP3   OH236354   5.447   3.325   2.342  0.2915 -0.0728 -0.3118
 4932TIP3    H136355   5.359   3.357   2.359 -0.1865 -1.5089  0.0272
 4932TIP3    H236356   5.434   3.239   2.302  1.5275 -1.3127  1.7666
 4933TIP3   OH236357   1.738   3.126   0.828  0.2753  0.4944  0.0942
 4933TIP3    H136358   1.684   3.094   0.900 -0.8872  2.4202  0.1401
 4933TIP3    H236359   1.731   3.221   0.833  0.5560  0.6936 -2.2568
 4934TIP3   OH236360   6.708   4.725   8.134 -0.3708 -0.4492  0.0818
 4934TIP3    H136361   6.714   4.787   8.062 -1.7350 -1.2587 -0.7656
 4934TIP3    H236362   6.796   4.724   8.172 -0.0034  1.0604 -0.6427
 4935TIP3   OH236363   3.264   4.241   2.451  0.1613  0.1805 -0.5723
 4935TIP3    H136364   3.290   4.160   2.408 -1.7200 -0.7385 -0.1210
 4935TIP3    H236365   3.176   4.259   2.417 -1.1906 -0.2932  2.3551
 4936TIP3   OH236366   6.847   5.030   0.447  1.0301 -0.2898  0.8733
 4936TIP3    H136367   6.764   4.990   0.472  0.5150  0.1613 -0.0790
 4936TIP3    H236368   6.868   5.089   0.520  0.2255  0.0310  0.8516
 4937TIP3   OH236369   6.679   4.583   0.202 -0.2693  0.4421  0.2579
 4937TIP3    H136370   6.597   4.537   0.222  0.1368  0.3978  2.0129
 4937TIP3    H236371   6.734   4.517   0.159 -0.8273  0.2226 -0.1308
 4938TIP3   OH236372   1.480   3.710   1.121 -0.0066 -0.1072  0.7988
 4938TIP3    H136373   1.512   3.620   1.132 -1.3656 -0.6711  0.3466
 4938TIP3    H236374   1.402   3.701   1.066  0.5913  1.4979 -0.3621
 4939TIP3   OH236375   1.990   4.260   7.100  0.0542  0.1400  0.1459
 4939TIP3    H136376   1.953   4.301   7.023 -0.8998 -0.9997 -0.0278
 4939TIP3    H236377   1.962   4.169   7.095  1.5608 -0.3982  0.8517
 4940TIP3   OH236378   4.250   6.524   0.681 -0.0801 -0.5070  0.1232
 4940TIP3    H136379   4.279   6.610   0.652 -0.1833 -0.3182  0.5696
 4940TIP3    H236380   4.223   6.537   0.772 -0.5947 -0.8960  0.0329
 4941TIP3   OH236381   3.232   2.090   0.563 -0.4017  0.0029  0.0071
 4941TIP3    H136382   3.239   2.121   0.473 -0.3241 -0.1820 -0.0516
 4941TIP3    H236383   3.146   2.047   0.567 -1.0978  1.3769  0.4478
 4942TIP3   OH236384   6.028   5.963   7.208 -0.1068 -0.0252 -0.3774
 4942TIP3    H136385   6.006   5.988   7.298  0.6471 -1.7554  0.3364
 4942TIP3    H236386   6.011   6.041   7.156 -0.2270  1.1216  1.3255
 4943TIP3   OH236387   1.371   5.507   7.646 -0.0402 -0.7051  0.4065
 4943TIP3    H136388   1.295   5.537   7.597 -0.4259  1.4682  2.2058
 4943TIP3    H236389   1.446   5.546   7.601 -0.0968 -1.4267 -0.3414
 4944TIP3   OH236390   5.100   1.535   8.265  0.0773  0.1747 -0.3511
 4944TIP3    H136391   5.005   1.520   8.265  0.0531  0.1250  1.0782
 4944TIP3    H236392   5.136   1.455   8.304  0.5952  0.6795  0.2220
 4945TIP3   OH236393   3.690   3.290   1.087  0.4203  0.2774 -0.1874
 4945TIP3    H136394   3.644   3.229   1.030 -0.9701 -0.6827  1.8507
 4945TIP3    H236395   3.747   3.340   1.028 -0.3274 -1.1940 -2.2624
 4946TIP3   OH236396   3.768   3.115   8.369 -0.1784 -0.1918  0.2624
 4946TIP3    H136397   3.698   3.174   8.342  0.8090  0.1882 -1.5949
 4946TIP3    H236398   3.732   3.068   8.445 -2.6301 -0.4016 -0.9482
 4947TIP3   OH236399   5.330   3.129   1.301 -0.0349  0.0889 -0.2913
 4947TIP3    H136400   5.256   3.189   1.296  1.5879  2.1425 -1.0149
 4947TIP3    H236401   5.364   3.139   1.390 -2.0613 -2.8283  0.9820
 4948TIP3   OH236402   1.760   0.097   7.733  0.1175  0.3793  0.1830
 4948TIP3    H136403   1.781   0.025   7.793 -0.5239 -0.0993 -0.1604
 4948TIP3    H236404   1.666   0.090   7.718  0.0939  1.1295 -0.0684
 4949TIP3   OH236405   2.429   3.968   7.918 -0.0084  0.2301 -0.3323
 4949TIP3    H136406   2.481   4.042   7.949 -0.8362 -0.0411  1.8750
 4949TIP3    H236407   2.345   4.006   7.895 -0.4623  0.0052  0.8818
 4950TIP3   OH236408   6.057   2.352   0.424  0.6174 -0.0620 -0.7504
 4950TIP3    H136409   6.117   2.363   0.350  0.5407  0.6451 -0.7092
 4950TIP3    H236410   6.103   2.391   0.498  0.2241  0.2145 -0.6554
 4951TIP3   OH236411   5.110   2.068   1.955  0.2322  0.6219 -0.1447
 4951TIP3    H136412   5.062   2.144   1.986  1.3097  0.7405  1.3344
 4951TIP3    H236413   5.121   2.083   1.861 -0.3799  1.8275 -0.0393
 4952TIP3   OH236414   0.469   3.202   1.676  0.1010 -0.0391  0.2192
 4952TIP3    H136415   0.430   3.232   1.594  0.2312 -2.8145 -0.9366
 4952TIP3    H236416   0.394   3.196   1.736 -0.1265  1.1730  0.0881
 4953TIP3   OH236417   4.985   3.793   1.033  0.1815 -0.3549  0.5790
 4953TIP3    H136418   4.970   3.829   1.121 -1.6184  1.1356 -0.2809
 4953TIP3    H236419   5.074   3.821   1.011 -0.2263  1.3952  0.9983
 4954TIP3   OH236420   4.726   0.205   0.642  0.4629 -0.4513 -0.1902
 4954TIP3    H136421   4.706   0.171   0.729  0.1482  2.2941  0.9283
 4954TIP3    H236422   4.801   0.263   0.656 -0.0698  0.6272 -1.5748
 4955TIP3   OH236423   6.297   5.072   6.946  0.2467 -0.1810  0.3294
 4955TIP3    H136424   6.292   5.163   6.918  0.7259  0.1830  1.3609
 4955TIP3    H236425   6.364   5.072   7.014  0.5224 -1.3775  0.0780
 4956TIP3   OH236426   0.174   5.105   0.626  0.2518  0.7416  0.4505
 4956TIP3    H136427   0.186   5.168   0.555 -0.5745 -0.8874 -1.2137
 4956TIP3    H236428   0.217   5.025   0.595 -2.5250 -0.9032  0.4523
 4957TIP3   OH236429   0.725   2.022   8.303 -0.1081 -0.4894  0.4617
 4957TIP3    H136430   0.633   2.001   8.319 -0.0042 -0.2884  1.4036
 4957TIP3    H236431   0.722   2.104   8.254 -0.4298 -0.6093  0.2735
 4958TIP3   OH236432   0.573   5.699   8.029  0.1142 -0.2151 -0.0544
 4958TIP3    H136433   0.612   5.765   7.972  0.2452  0.1369  0.4413
 4958TIP3    H236434   0.490   5.737   8.058 -0.5556 -0.9101 -1.0005
 4959TIP3   OH236435   1.524   0.662   8.107  0.2872  0.7985  0.2843
 4959TIP3    H136436   1.464   0.686   8.177 -0.4566  1.8370 -0.6709
 4959TIP3    H236437   1.524   0.566   8.106 -1.0696  0.7844  0.5470
 4960TIP3   OH236438   0.357   1.075   7.585 -0.0780 -0.3066 -0.2720
 4960TIP3    H136439   0.415   1.055   7.511 -1.0577 -1.8267 -0.6794
 4960TIP3    H236440   0.320   1.161   7.564  1.2535  0.2387 -0.4801
 4961TIP3   OH236441   3.100   0.040   1.636 -0.3201 -0.0693  0.1375
 4961TIP3    H136442   3.120   0.109   1.572 -0.3533 -0.4644 -0.2964
 4961TIP3    H236443   3.007   0.050   1.654 -1.1687 -2.0935 -2.4583
 4962TIP3   OH236444   2.782   1.911   7.490 -0.5768 -0.2708  0.6184
 4962TIP3    H136445   2.736   1.965   7.554  0.1041 -0.4647  1.2912
 4962TIP3    H236446   2.838   1.854   7.543 -0.0509 -0.4836 -0.1495
 4963TIP3   OH236447   0.569   2.334   7.258 -0.9178 -0.0789 -0.3141
 4963TIP3    H136448   0.539   2.264   7.317 -1.0996  0.1323 -0.1525
 4963TIP3    H236449   0.664   2.337   7.271 -0.8914 -0.3856 -0.4233
 4964TIP3   OH236450   0.917   1.118   7.292  0.4283 -0.0660  0.4792
 4964TIP3    H136451   0.823   1.132   7.279  0.1177 -2.1829  0.0830
 4964TIP3    H236452   0.936   1.159   7.377 -0.4137  1.9906 -0.2582
 4965TIP3   OH236453   2.853   1.438   1.381 -0.4683 -0.6510  0.0070
 4965TIP3    H136454   2.841   1.527   1.414  0.3058  0.2821 -2.0180
 4965TIP3    H236455   2.876   1.386   1.458  0.0295  1.1111  1.1053
 4966TIP3   OH236456   4.244   0.822   1.125  0.4097 -0.2916  0.2188
 4966TIP3    H136457   4.317   0.854   1.073 -0.2528  0.2396 -0.4048
 4966TIP3    H236458   4.191   0.770   1.064 -0.4489  0.4511  0.3135
 4967TIP3   OH236459   6.858   2.534   7.890 -0.1603 -0.5129 -0.4038
 4967TIP3    H136460   6.770   2.552   7.922 -0.8188 -0.2187 -2.2680
 4967TIP3    H236461   6.913   2.598   7.936 -1.2789  0.8996 -0.9351
 4968TIP3   OH236462   0.268   4.088   2.546 -0.0109 -0.0997  0.2505
 4968TIP3    H136463   0.302   4.118   2.461  1.2961  1.5109  1.2614
 4968TIP3    H236464   0.189   4.039   2.525  0.9910 -0.8964 -1.9886
 4969TIP3   OH236465   5.513   2.454   7.477  0.4295 -0.1485 -0.5722
 4969TIP3    H136466   5.589   2.512   7.471 -0.4366  0.9591 -1.4043
 4969TIP3    H236467   5.439   2.513   7.488 -0.2533 -1.2494  1.2065
 4970TIP3   OH236468   5.611   4.998   7.936  0.4276 -0.3029  0.4886
 4970TIP3    H136469   5.558   5.068   7.898  0.5065 -0.0001  0.9164
 4970TIP3    H236470   5.552   4.923   7.942 -0.3451  0.3809  2.0886
 4971TIP3   OH236471   0.318   6.894   7.885 -0.3785 -0.1528  0.0288
 4971TIP3    H136472   0.242   6.932   7.841 -1.6409 -0.4177  1.8591
 4971TIP3    H236473   0.377   6.967   7.900 -0.6734  0.2255 -0.6415
 4972TIP3   OH236474   4.809   6.238   6.740 -0.5912 -0.3400 -0.6200
 4972TIP3    H136475   4.755   6.317   6.748 -0.4774 -0.3370  0.1842
 4972TIP3    H236476   4.751   6.174   6.699 -1.6261 -0.7055  1.2973
 4973TIP3   OH236477   1.816   3.481   8.433  0.4665 -0.3099  0.3087
 4973TIP3    H136478   1.816   3.551   8.367  2.0600  0.8189  1.4409
 4973TIP3    H236479   1.748   3.420   8.403 -0.6999  1.5071 -0.9334
 4974TIP3   OH236480   6.848   6.659   1.088  0.4631  0.6907  0.3455
 4974TIP3    H136481   6.802   6.599   1.030  1.4118 -0.2687  0.5482
 4974TIP3    H236482   6.800   6.654   1.170  1.7611 -1.5275  1.0649
 4975TIP3   OH236483   5.659   0.575   0.156 -0.7252 -0.1486 -0.2394
 4975TIP3    H136484   5.719   0.501   0.165  0.1687  0.5358 -0.3562
 4975TIP3    H236485   5.662   0.597   0.063 -0.3777  0.5055 -0.0826
 4976TIP3   OH236486   2.600   1.834   7.781  0.0674 -0.5505 -0.1679
 4976TIP3    H136487   2.660   1.784   7.725  1.0274  0.4470 -0.0501
 4976TIP3    H236488   2.624   1.810   7.870 -1.1203 -1.7391 -0.1230
 4977TIP3   OH236489   4.552   5.678   2.126 -0.3012  0.0774  0.3958
 4977TIP3    H136490   4.535   5.739   2.054 -1.8604  0.2434  0.8715
 4977TIP3    H236491   4.638   5.641   2.106  0.8284  2.5906  0.2173
 4978TIP3   OH236492   2.276   4.341   1.102  0.3970 -0.2172  0.0043
 4978TIP3    H136493   2.185   4.345   1.072  0.4268 -1.0188 -0.2130
 4978TIP3    H236494   2.270   4.359   1.196 -0.0487 -0.7776  0.0879
 4979TIP3   OH236495   3.634   4.556   6.974  0.5473 -0.0632  0.2125
 4979TIP3    H136496   3.697   4.502   7.022 -0.2596 -0.0092  1.3902
 4979TIP3    H236497   3.650   4.645   7.006 -0.9840 -0.2235  1.5737
 4980TIP3   OH236498   2.452   3.855   8.319  0.8347  0.0969  0.1663
 4980TIP3    H136499   2.425   3.897   8.401 -1.5837 -1.7463  0.4185
 4980TIP3    H236500   2.395   3.893   8.252 -0.2454 -1.5047  0.1240
 4981TIP3   OH236501   0.554   4.637   7.805  0.0732 -0.0286  0.6590
 4981TIP3    H136502   0.503   4.709   7.768  0.4708  0.4019  0.9227
 4981TIP3    H236503   0.559   4.572   7.735 -0.1954  0.2531  0.3739
 4982TIP3   OH236504   6.519   4.250   6.581 -0.0732 -0.0181 -0.5012
 4982TIP3    H136505   6.512   4.160   6.611 -0.4269  0.0242 -0.4429
 4982TIP3    H236506   6.611   4.261   6.557  0.6315  0.4082  2.0331
 4983TIP3   OH236507   5.101   1.890   0.650  0.2212  0.0813  0.4359
 4983TIP3    H136508   5.190   1.896   0.685  0.2485  0.0096  0.3789
 4983TIP3    H236509   5.100   1.808   0.600  0.4694  0.6714 -0.5582
 4984TIP3   OH236510   4.091   3.386   0.257 -0.1347  0.4441  0.5100
 4984TIP3    H136511   4.114   3.469   0.299  0.0592 -0.4993  2.3480
 4984TIP3    H236512   3.999   3.373   0.280 -0.4141  0.5503 -0.5061
 4985TIP3   OH236513   2.019   2.311   8.009  0.1144  0.0338  0.1757
 4985TIP3    H136514   1.995   2.221   8.030 -2.3097  0.5090 -0.2362
 4985TIP3    H236515   2.113   2.315   8.023  0.6199 -3.0288 -1.5167
 4986TIP3   OH236516   2.618   1.365   1.880 -0.7163  0.1149 -0.4203
 4986TIP3    H136517   2.621   1.395   1.971  0.8283 -0.4329 -0.2576
 4986TIP3    H236518   2.570   1.434   1.834 -0.1396  1.1921  0.5310
 4987TIP3   OH236519   6.137   6.607   7.521  0.3037 -0.6859 -0.1406
 4987TIP3    H136520   6.184   6.566   7.448  1.7856  0.2393  0.2557
 4987TIP3    H236521   6.067   6.658   7.480  1.5835  0.4391 -1.0057
 4988TIP3   OH236522   2.215   2.108   7.500  0.0220 -0.7431 -0.3560
 4988TIP3    H136523   2.270   2.089   7.425  0.3019  0.2320 -0.4120
 4988TIP3    H236524   2.207   2.024   7.546  0.8970 -1.0665 -0.7737
 4989TIP3   OH236525   4.506   3.986   8.157 -0.2635 -0.0210 -0.3192
 4989TIP3    H136526   4.525   4.068   8.112 -2.6780  0.4364 -0.6397
 4989TIP3    H236527   4.519   3.918   8.091 -1.2170  0.4042 -0.9523
 4990TIP3   OH236528   6.195   2.837   0.775 -0.2196  0.3591  0.6674
 4990TIP3    H136529   6.243   2.884   0.842  1.0655  1.8657 -1.2055
 4990TIP3    H236530   6.228   2.872   0.692 -1.4932 -1.6240 -0.7847
 4991TIP3   OH236531   0.116   2.740   0.803 -0.3892  0.4856  0.2720
 4991TIP3    H136532   0.148   2.817   0.757  1.3208  0.7599  1.7645
 4991TIP3    H236533   0.132   2.668   0.742 -1.9322  1.2570 -1.1064
 4992TIP3   OH236534   3.234   0.128   0.389 -0.5456  0.1520  0.1839
 4992TIP3    H136535   3.230   0.078   0.471  1.1106  0.4790  0.4996
 4992TIP3    H236536   3.222   0.219   0.417  0.0836  0.2685  0.0779
 4993TIP3   OH236537   6.695   0.441   1.493 -0.3364  0.0805 -0.2659
 4993TIP3    H136538   6.710   0.384   1.418  1.2789 -1.1897  0.9330
 4993TIP3    H236539   6.639   0.389   1.551 -1.1375  0.8373 -0.3463
 4994TIP3   OH236540   1.259   2.801   0.826 -0.5311  0.7059 -0.3482
 4994TIP3    H136541   1.175   2.767   0.798 -0.1470  0.2256 -0.9379
 4994TIP3    H236542   1.324   2.743   0.786  0.0484 -0.1407  1.6574
 4995TIP3   OH236543   0.124   1.877   1.233  0.2792  0.2182 -0.8316
 4995TIP3    H136544   0.110   1.950   1.173  0.1169 -0.2093 -1.3184
 4995TIP3    H236545   0.114   1.915   1.321 -0.5129  0.6299 -1.0985
 4996TIP3   OH236546   5.847   4.045   2.207 -0.1244  0.2384 -0.0994
 4996TIP3    H136547   5.816   4.058   2.297  3.0993  2.3726  0.8878
 4996TIP3    H236548   5.915   4.110   2.196  0.2240 -0.5442 -3.8736
 4997TIP3   OH236549   3.268   2.550   7.311 -0.7548 -0.5407 -0.0136
 4997TIP3    H136550   3.238   2.526   7.398  1.3561  0.2097  0.9809
 4997TIP3    H236551   3.229   2.637   7.296  0.1478  0.0471  0.8959
 4998TIP3   OH236552   0.737   2.290   6.450  0.0527  0.2098 -0.0582
 4998TIP3    H136553   0.756   2.197   6.462  2.3676  0.6799  0.4754
 4998TIP3    H236554   0.769   2.309   6.361  1.8859  0.9582  0.7163
 4999TIP3   OH236555   4.642   3.692   0.674  0.1857  0.4731 -0.0687
 4999TIP3    H136556   4.728   3.719   0.705  0.0608 -0.0142  0.7280
 4999TIP3    H236557   4.580   3.742   0.727 -0.0438 -1.2013  1.3296
 5000TIP3   OH236558   6.783   0.790   0.103 -0.3206 -0.0584 -0.4485
 5000TIP3    H136559   6.822   0.727   0.043 -0.2713  0.4050 -0.9104
 5000TIP3    H236560   6.692   0.796   0.077 -1.2305 -2.4828  1.7554
 5001TIP3   OH236561   2.013   5.856   0.087  0.3343 -0.5149  0.5049
 5001TIP3    H136562   1.959   5.880   0.012 -0.6225 -0.5663  1.1582
 5001TIP3    H236563   2.075   5.792   0.053 -0.6833 -1.2293 -0.0602
 5002TIP3   OH236564   0.368   4.573   2.005  0.0855  0.6543 -0.2936
 5002TIP3    H136565   0.297   4.513   1.984  0.5899 -0.0226 -0.0795
 5002TIP3    H236566   0.395   4.549   2.094 -0.8192  2.2950  0.4891
 5003TIP3   OH236567   0.341   3.124   0.040 -0.5122 -0.0625 -0.2844
 5003TIP3    H136568   0.331   3.029   0.031  3.4735 -0.6511 -0.1198
 5003TIP3    H236569   0.394   3.149  -0.036  1.0669  1.4659  1.2491
 5004TIP3   OH236570   1.714   6.480   7.818 -0.0460 -0.3430 -0.1177
 5004TIP3    H136571   1.668   6.449   7.740  0.6714  0.9539 -1.1028
 5004TIP3    H236572   1.736   6.400   7.866 -1.3917 -1.1045 -0.7184
 5005TIP3   OH236573   4.136   6.727   8.413 -0.8886  0.3664 -0.6065
 5005TIP3    H136574   4.143   6.696   8.503  1.4362 -0.4521 -1.0084
 5005TIP3    H236575   4.141   6.823   8.420 -0.6808  0.3048  0.1181
 5006TIP3   OH236576   0.448   2.840   1.594 -0.3961 -0.5442  0.0242
 5006TIP3    H136577   0.412   2.766   1.546  1.3167 -0.2026 -1.9482
 5006TIP3    H236578   0.541   2.818   1.606 -0.0965  0.7905  0.3214
 5007TIP3   OH236579   5.210   4.131   1.531  0.5099 -0.1381 -0.1970
 5007TIP3    H136580   5.149   4.203   1.514  0.3810  0.5104  2.5539
 5007TIP3    H236581   5.154   4.054   1.544  0.1658  0.4380  2.2317
 5008TIP3   OH236582   0.056   1.110   6.557 -0.2247  0.0298 -0.1996
 5008TIP3    H136583   0.010   1.155   6.486  1.3391  1.6398 -0.2675
 5008TIP3    H236584  -0.013   1.082   6.616 -1.5240 -0.7910 -2.0129
 5009TIP3   OH236585   2.355   3.565   8.468  0.2172  0.1463 -0.6518
 5009TIP3    H136586   2.379   3.574   8.375  0.0575  2.6684 -0.5129
 5009TIP3    H236587   2.314   3.649   8.490  3.5464  1.1634  2.6588
 5010TIP3   OH236588   2.704   2.333   0.873 -0.1777 -0.2029  0.7930
 5010TIP3    H136589   2.621   2.304   0.834  1.6572 -2.4480 -1.8172
 5010TIP3    H236590   2.681   2.356   0.963 -4.0949  1.9903 -0.5313
 5011TIP3   OH236591   4.523   3.088   0.437  0.0527  0.4660  0.3941
 5011TIP3    H136592   4.520   3.056   0.346 -0.9786  1.4601  0.0633
 5011TIP3    H236593   4.612   3.068   0.466 -0.1789 -1.6187 -0.1754
 5012TIP3   OH236594   1.092   4.017   7.571 -0.0309 -0.5756 -0.1288
 5012TIP3    H136595   1.052   4.059   7.648 -1.2170 -0.0964 -0.9843
 5012TIP3    H236596   1.180   3.993   7.601 -0.0730  0.5806  1.0506
 5013TIP3   OH236597   1.100   2.062   2.057  0.1139  0.0952 -0.3294
 5013TIP3    H136598   1.019   2.069   2.107  0.0820 -1.0074 -0.2087
 5013TIP3    H236599   1.104   2.144   2.007 -0.8737  0.3282 -0.0473
 5014TIP3   OH236600   4.510   6.053   8.068 -0.2852  0.1499  0.0630
 5014TIP3    H136601   4.531   6.122   8.131  0.7235  0.4311 -0.5624
 5014TIP3    H236602   4.510   6.097   7.983 -0.8662 -0.3811 -0.2213
 5015TIP3   OH236603   3.280   6.369   1.379 -0.1510  0.3181 -0.0809
 5015TIP3    H136604   3.346   6.336   1.441  0.5500  1.5079 -0.1623
 5015TIP3    H236605   3.212   6.407   1.434  0.4441  1.3229 -0.0150
 5016TIP3   OH236606   4.011   2.019   7.699  0.0285  0.2722 -0.1930
 5016TIP3    H136607   3.922   1.984   7.706 -0.2427  0.9911  0.0569
 5016TIP3    H236608   4.061   1.969   7.763 -0.4041  0.4947  0.3301
 5017TIP3   OH236609   5.782   3.673   1.707  0.0866  0.0109 -0.3180
 5017TIP3    H136610   5.857   3.631   1.665 -0.6414 -2.4788  0.6900
 5017TIP3    H236611   5.726   3.700   1.635 -0.0127 -1.9749 -1.0330
 5018TIP3   OH236612   1.144   1.827   1.292 -0.2027  0.4210 -0.2529
 5018TIP3    H136613   1.193   1.754   1.256  0.9941  1.0459  0.0600
 5018TIP3    H236614   1.127   1.803   1.383  1.2554  1.0233  0.2057
 5019TIP3   OH236615   1.311   4.737   8.420  0.2381  0.2048  0.4005
 5019TIP3    H136616   1.322   4.657   8.472  1.0408 -0.4780 -0.7797
 5019TIP3    H236617   1.398   4.777   8.418 -0.0219  0.7808  0.4490
 5020TIP3   OH236618   1.492   3.596   6.325  0.0247  0.0712 -0.6237
 5020TIP3    H136619   1.500   3.505   6.354 -1.2352  0.0505 -0.3121
 5020TIP3    H236620   1.458   3.643   6.401 -1.2281  0.4250 -1.3710
 5021TIP3   OH236621   0.252   3.262   7.110 -0.1957  0.0421  0.2752
 5021TIP3    H136622   0.337   3.293   7.078 -0.6712  1.0449 -0.0370
 5021TIP3    H236623   0.246   3.173   7.075  2.1355 -1.3675  2.9797
 5022TIP3   OH236624   1.150   0.341   1.792 -0.9361  0.0206 -0.2863
 5022TIP3    H136625   1.105   0.259   1.773 -2.9613  1.2995 -1.4269
 5022TIP3    H236626   1.083   0.408   1.778  0.1292  1.7839  2.3116
 5023TIP3   OH236627   3.832   2.933   1.804  0.1151 -0.8460 -0.1296
 5023TIP3    H136628   3.789   2.985   1.872 -0.5627 -0.6489 -0.6884
 5023TIP3    H236629   3.759   2.897   1.752  0.5600 -2.3476  0.2296
 5024TIP3   OH236630   0.459   1.945   0.303 -0.3006 -0.3055  0.5464
 5024TIP3    H136631   0.503   2.030   0.297  0.3143 -0.6711 -0.3417
 5024TIP3    H236632   0.433   1.925   0.213 -0.5634 -0.9997  0.7724
 5025TIP3   OH236633   0.815   4.703   0.436 -0.2909 -0.5799 -0.0781
 5025TIP3    H136634   0.808   4.780   0.379 -0.3625 -2.0885 -2.2305
 5025TIP3    H236635   0.904   4.709   0.473 -0.5561  0.8881  0.4141
 5026TIP3   OH236636   4.533   5.541   7.080 -0.4162  0.3951  0.8918
 5026TIP3    H136637   4.596   5.479   7.118 -2.6411 -1.7605  1.3272
 5026TIP3    H236638   4.539   5.527   6.986  0.0119  0.5178  0.8949
 5027TIP3   OH236639   5.644   2.167   8.229  0.1698 -0.2988  0.3032
 5027TIP3    H136640   5.645   2.137   8.320 -0.2453  0.0763  0.4373
 5027TIP3    H236641   5.572   2.230   8.226  0.6460  0.2401 -0.1094
 5028TIP3   OH236642   4.063   0.624   8.057  0.8107 -0.3149 -0.4687
 5028TIP3    H136643   4.100   0.580   7.981 -0.6169 -1.2408 -0.6552
 5028TIP3    H236644   4.121   0.600   8.130  3.1395  1.8606 -1.4504
 5029TIP3   OH236645   6.667   5.711   6.735 -0.0979 -0.5626 -0.0772
 5029TIP3    H136646   6.580   5.670   6.737 -0.2146 -0.2978  0.2749
 5029TIP3    H236647   6.659   5.780   6.668  0.2131 -1.3583 -0.9511
 5030TIP3   OH236648   1.929   4.306   1.589  0.7133  0.1092 -0.3071
 5030TIP3    H136649   1.838   4.332   1.602  0.5723 -0.3485 -0.3621
 5030TIP3    H236650   1.971   4.318   1.675  0.1587 -1.4193  0.2228
 5031TIP3   OH236651   4.718   5.586   7.604 -0.4305 -0.4427 -0.1481
 5031TIP3    H136652   4.664   5.658   7.635 -1.1366 -1.6906  1.6835
 5031TIP3    H236653   4.747   5.613   7.517 -3.0573  0.7669 -0.7250
 5032TIP3   OH236654   4.950   0.239   6.624  0.4146  0.2885  0.0603
 5032TIP3    H136655   4.924   0.327   6.653 -0.1978  0.4622 -0.9653
 5032TIP3    H236656   5.043   0.234   6.645 -0.1925 -0.0203  3.0054
 5033TIP3   OH236657   0.737   3.795   7.619 -0.9180  0.1939  0.1301
 5033TIP3    H136658   0.802   3.842   7.670  0.6745 -0.0397 -1.5957
 5033TIP3    H236659   0.720   3.851   7.543 -1.0712 -0.7464 -0.5542
 5034TIP3   OH236660   5.627   3.092   6.798 -0.1358 -0.2485 -0.5368
 5034TIP3    H136661   5.704   3.044   6.769  0.4769 -0.5225  1.3652
 5034TIP3    H236662   5.557   3.065   6.738  0.5720 -2.2535 -0.5341
 5035TIP3   OH236663   4.406   6.604   1.131  0.2405 -0.8083 -0.2190
 5035TIP3    H136664   4.357   6.585   1.210  0.7169 -0.1110  0.2540
 5035TIP3    H236665   4.365   6.550   1.063 -1.6884  0.3481 -0.0237
 5036TIP3   OH236666   0.920   5.236   1.961  0.5222 -0.0111  0.4055
 5036TIP3    H136667   0.985   5.212   2.027  2.5507  2.1873 -0.6128
 5036TIP3    H236668   0.912   5.331   1.970 -0.7233  0.0672 -1.1504
 5037TIP3   OH236669   5.497   2.370   6.304 -0.0575  0.6851  0.2956
 5037TIP3    H136670   5.591   2.385   6.310 -0.0078  0.2063  0.7664
 5037TIP3    H236671   5.482   2.291   6.357 -0.4049 -0.5793 -1.6035
 5038TIP3   OH236672   6.720   2.587   5.895 -0.3347 -0.3366 -0.5702
 5038TIP3    H136673   6.639   2.593   5.844  0.1521  0.2709 -1.3037
 5038TIP3    H236674   6.720   2.497   5.929 -1.9081  0.0240  0.4953
 5039TIP3   OH236675   5.865   4.032   6.152 -0.1319 -0.4971 -0.4659
 5039TIP3    H136676   5.930   4.027   6.081  0.8009  0.2617  0.3151
 5039TIP3    H236677   5.902   3.979   6.222 -0.7466 -0.6970 -0.2792
 5040TIP3   OH236678   5.470   5.012   2.271 -0.1156 -0.4558  0.7593
 5040TIP3    H136679   5.492   5.104   2.253  0.8900 -0.7191  0.5679
 5040TIP3    H236680   5.379   5.014   2.300 -1.3406  0.2446 -2.6449
 5041TIP3   OH236681   1.792   2.008   1.202 -0.1638 -0.3829 -0.1712
 5041TIP3    H136682   1.736   2.076   1.240  0.0503 -0.1094 -0.3432
 5041TIP3    H236683   1.756   1.994   1.114 -1.3791 -1.8358  0.5126
 5042TIP3   OH236684   3.431   6.293   0.002 -0.1827 -0.9053 -0.0677
 5042TIP3    H136685   3.525   6.288  -0.016  0.6479  0.5883  3.2348
 5042TIP3    H236686   3.393   6.222  -0.050  2.9133 -2.4158 -0.4692
 5043TIP3   OH236687   5.095   1.353   0.100 -0.3061 -0.1157 -0.2281
 5043TIP3    H136688   5.173   1.328   0.150  0.2409  1.0237 -0.4901
 5043TIP3    H236689   5.028   1.291   0.128  0.2742 -0.1461  1.1592
 5044TIP3   OH236690   6.616   4.600   2.311  0.2787 -0.5325 -0.4258
 5044TIP3    H136691   6.572   4.683   2.296  1.3789  0.1087 -0.2007
 5044TIP3    H236692   6.562   4.536   2.265 -1.2629  0.1069  0.4446
 5045TIP3   OH236693   1.582   0.705   7.755 -0.2771 -0.4823 -0.1822
 5045TIP3    H136694   1.518   0.636   7.771 -1.9035  1.3287  1.6063
 5045TIP3    H236695   1.664   0.670   7.791 -0.8235 -1.8031 -0.1424
 5046TIP3   OH236696   6.036   5.264   7.347  0.6691  0.5126  0.2776
 5046TIP3    H136697   6.069   5.203   7.281  1.9308  0.3402  1.0385
 5046TIP3    H236698   5.996   5.207   7.413  1.9095  0.4666  1.0228
 5047TIP3   OH236699   4.387   2.380   7.403  0.6745 -0.4257  0.3418
 5047TIP3    H136700   4.390   2.447   7.472  0.4687  1.1347 -1.1147
 5047TIP3    H236701   4.374   2.428   7.322 -1.2811 -2.3695 -0.6150
 5048TIP3   OH236702   5.177   0.697   0.047 -0.1377 -0.6172  1.3992
 5048TIP3    H136703   5.200   0.626   0.106  1.8820 -0.1254  1.2760
 5048TIP3    H236704   5.256   0.752   0.043 -0.9942  0.5931  0.0222
 5049TIP3   OH236705   3.707   1.190   2.214  0.4054 -0.2209 -0.1035
 5049TIP3    H136706   3.779   1.150   2.165 -0.5314 -0.9702 -0.8979
 5049TIP3    H236707   3.648   1.117   2.235 -0.1336  0.3823  0.5430
 5050TIP3   OH236708   0.351   3.710   0.226  0.5633  0.7175 -0.7448
 5050TIP3    H136709   0.263   3.684   0.198  0.2078  2.0253 -0.9383
 5050TIP3    H236710   0.353   3.691   0.320  1.7396 -3.6637 -1.4463
 5051TIP3   OH236711   2.400   1.665   0.464  0.0573  0.6527  0.4616
 5051TIP3    H136712   2.322   1.716   0.445  0.5826  1.6071  0.7853
 5051TIP3    H236713   2.443   1.655   0.379 -1.2774 -1.4188 -0.0445
 5052TIP3   OH236714   0.000   3.661   8.270 -0.1578 -0.4445 -0.6388
 5052TIP3    H136715  -0.004   3.746   8.227 -0.1477 -0.0025  0.2239
 5052TIP3    H236716  -0.091   3.640   8.292 -0.1359 -0.5718 -0.6627
 5053TIP3   OH236717   2.500   1.787   6.833  0.3124  0.3330  0.0350
 5053TIP3    H136718   2.453   1.816   6.755  1.4261  0.2233 -0.7089
 5053TIP3    H236719   2.454   1.709   6.862 -0.1081  0.3753 -0.5154
 5054TIP3   OH236720   5.605   6.371   0.204 -0.2721 -0.3653  0.6065
 5054TIP3    H136721   5.604   6.457   0.245  1.9660 -0.9234  2.0505
 5054TIP3    H236722   5.530   6.371   0.145 -1.6257  1.7574  2.1845
 5055TIP3   OH236723   1.439   4.154   1.361  0.4569  0.1972 -0.0297
 5055TIP3    H136724   1.485   4.232   1.332  0.9908  0.7635  2.2088
 5055TIP3    H236725   1.485   4.126   1.440 -0.4120 -1.7432 -0.1438
 5056TIP3   OH236726   3.412   2.218   0.033  0.6661  0.1327 -0.3843
 5056TIP3    H136727   3.391   2.303   0.073  0.5036 -0.5765  1.1139
 5056TIP3    H236728   3.326   2.179   0.014  0.6632 -0.6459  1.0834
 5057TIP3   OH236729   5.455   3.538   1.149 -0.2730 -0.9376  0.3267
 5057TIP3    H136730   5.525   3.526   1.084 -0.3679  1.7308 -0.3450
 5057TIP3    H236731   5.473   3.623   1.188 -4.1672  0.7977 -1.2141
 5058TIP3   OH236732   3.086   1.103   1.082  0.0012  0.3507  0.6515
 5058TIP3    H136733   3.076   1.191   1.047 -3.2498 -0.2206 -0.1643
 5058TIP3    H236734   3.014   1.092   1.144 -0.4185 -2.0482 -0.1148
 5059TIP3   OH236735   6.676   0.714   1.519  0.1595 -0.5767  0.5043
 5059TIP3    H136736   6.692   0.620   1.522 -1.4002 -0.9515 -1.2840
 5059TIP3    H236737   6.712   0.742   1.435  1.0995  0.5550  1.2516
 5060TIP3   OH236738   2.389   0.939   0.158 -0.6144  0.1914  1.1155
 5060TIP3    H136739   2.466   0.978   0.200  0.4193 -2.1678  1.6039
 5060TIP3    H236740   2.349   0.886   0.227 -1.5915 -0.0931  0.3451
 5061TIP3   OH236741   1.890   6.412   1.838 -0.0102 -0.5469  0.6160
 5061TIP3    H136742   1.968   6.370   1.873 -0.0695 -1.0418  0.1666
 5061TIP3    H236743   1.850   6.456   1.913  1.2171  0.5377  0.6756
 5062TIP3   OH236744   3.401   4.746   1.369  0.0068  0.1841  0.3151
 5062TIP3    H136745   3.485   4.729   1.411 -0.9842 -0.3622  2.1698
 5062TIP3    H236746   3.407   4.699   1.285  1.4449 -0.0601  0.5217
 5063TIP3   OH236747   5.955   5.567   7.757  0.2695  0.2943  0.2808
 5063TIP3    H136748   6.033   5.511   7.755  0.6432  0.8408 -0.9098
 5063TIP3    H236749   5.886   5.509   7.790  0.7168 -0.7800 -0.6016
 5064TIP3   OH236750   0.231   4.127   7.824 -0.2447  0.2599 -0.4681
 5064TIP3    H136751   0.277   4.201   7.784 -0.5426  0.8329  0.2262
 5064TIP3    H236752   0.139   4.152   7.823 -0.3177  0.0235  0.0388
 5065TIP3   OH236753   1.137   0.138   7.024 -0.0387  0.1902 -0.7607
 5065TIP3    H136754   1.134   0.043   7.030  1.1339  0.1919  0.3844
 5065TIP3    H236755   1.053   0.167   7.060 -0.9284 -0.4134 -2.2618
 5066TIP3   OH236756   1.452   6.558   2.720 -0.1241  0.3092 -0.0170
 5066TIP3    H136757   1.518   6.561   2.789 -0.0915 -0.0641 -0.0292
 5066TIP3    H236758   1.384   6.618   2.750 -0.4885 -0.4542  0.7383
 5067TIP3   OH236759   3.502   6.791   1.597 -0.4985  0.0556  0.0246
 5067TIP3    H136760   3.449   6.715   1.618 -0.4404  0.0965  0.3314
 5067TIP3    H236761   3.455   6.865   1.637 -2.3450  0.7067 -3.0368
 5068TIP3   OH236762   2.753   6.690   7.711  0.1349  0.6798 -0.6279
 5068TIP3    H136763   2.764   6.624   7.643 -0.2765 -1.1601  0.9797
 5068TIP3    H236764   2.660   6.709   7.712  0.1765  0.8883 -0.7446
 5069TIP3   OH236765   2.154   4.398   0.146 -0.5787 -0.0927 -0.1497
 5069TIP3    H136766   2.097   4.473   0.131 -1.7850 -1.3582 -2.3775
 5069TIP3    H236767   2.206   4.422   0.223 -2.9900  1.7781  1.0260
 5070TIP3   OH236768   3.737   0.582   1.111 -0.7932  0.4062 -0.3658
 5070TIP3    H136769   3.767   0.672   1.099  1.3559 -0.2218 -0.1671
 5070TIP3    H236770   3.780   0.552   1.191 -1.1413 -0.9152 -0.6378
 5071TIP3   OH236771   2.281   1.208   7.523 -0.4686  0.0251 -0.2875
 5071TIP3    H136772   2.271   1.160   7.440 -0.2590  2.8142 -2.0415
 5071TIP3    H236773   2.373   1.234   7.525 -0.6712  0.7166  0.3857
 5072TIP3   OH236774   2.112   5.850   0.534 -0.8372  0.2165  0.4814
 5072TIP3    H136775   2.071   5.844   0.620  0.5155 -1.9193  1.0610
 5072TIP3    H236776   2.167   5.928   0.539 -2.3250  1.2834  0.7968
 5073TIP3   OH236777   3.576   2.842   1.408  0.3863  0.2046 -0.0536
 5073TIP3    H136778   3.659   2.793   1.405  0.4111  0.0573  1.7581
 5073TIP3    H236779   3.569   2.882   1.322  2.2791  0.0921 -0.3115
 5074TIP3   OH236780   4.830   5.801   8.029 -0.0370  0.3411 -0.2053
 5074TIP3    H136781   4.867   5.766   7.947  0.3796  0.3901 -0.0408
 5074TIP3    H236782   4.903   5.846   8.070  0.1102 -0.7830  0.8182
 5075TIP3   OH236783   0.965   1.076   0.326 -0.2148 -0.2287  0.1659
 5075TIP3    H136784   1.059   1.088   0.316 -0.6149  1.0205 -3.0788
 5075TIP3    H236785   0.954   0.981   0.327  1.0176 -0.3987 -0.2063
 5076TIP3   OH236786   4.966   4.138   7.177 -0.4931  0.3205 -0.1613
 5076TIP3    H136787   4.980   4.229   7.149 -0.5815  0.7432  1.1151
 5076TIP3    H236788   4.899   4.105   7.117  0.0187  0.8788 -1.0687
 5077TIP3   OH236789   3.938   5.395   1.735  0.1303 -0.2619  0.1800
 5077TIP3    H136790   3.966   5.458   1.801  2.6515 -2.0687  1.0082
 5077TIP3    H236791   3.959   5.436   1.652  3.4003 -0.5615  0.7351
 5078TIP3   OH236792   6.857   3.551   0.989  0.6934  0.2632 -0.0513
 5078TIP3    H136793   6.946   3.526   1.013  1.1142  0.2473 -1.5355
 5078TIP3    H236794   6.854   3.543   0.894 -0.5579  1.3825 -0.1465
 5079TIP3   OH236795   5.783   2.381   0.649  0.2435 -0.6619  0.0678
 5079TIP3    H136796   5.850   2.320   0.618 -0.0090 -0.6003 -0.6241
 5079TIP3    H236797   5.814   2.467   0.621  1.0824 -0.3296  1.8839
 5080TIP3   OH236798   1.991   2.182   0.774 -0.3624 -0.2171  0.3889
 5080TIP3    H136799   2.081   2.151   0.768 -0.5311 -0.5294 -0.8530
 5080TIP3    H236800   1.999   2.278   0.765 -0.1636 -0.2578  0.1036
 5081TIP3   OH236801   4.226   1.170   7.293 -0.0136 -0.6884 -0.3642
 5081TIP3    H136802   4.160   1.123   7.243  0.3207 -0.7873 -0.7155
 5081TIP3    H236803   4.200   1.262   7.287 -2.2962 -0.9920  2.6742
 5082TIP3   OH236804   2.122   2.948   0.250  0.0103 -0.0296 -0.4395
 5082TIP3    H136805   2.068   2.875   0.220 -2.2480  2.5529 -3.2380
 5082TIP3    H236806   2.208   2.932   0.211  0.5278 -2.6041  1.5003
 5083TIP3   OH236807   3.714   2.130   0.996 -0.0562  0.0125 -0.5745
 5083TIP3    H136808   3.798   2.085   1.008  0.8726  1.9595  1.1036
 5083TIP3    H236809   3.716   2.162   0.906 -0.3459 -2.4065 -1.4916
 5084TIP3   OH236810   1.403   6.059   7.937  0.0735 -0.2709  0.2006
 5084TIP3    H136811   1.437   5.974   7.963  2.1502  1.1801  2.8286
 5084TIP3    H236812   1.330   6.075   7.998  1.4677  0.8816  1.6636
 5085TIP3   OH236813   4.715   3.341   7.338  0.0109 -0.5422  1.0079
 5085TIP3    H136814   4.640   3.366   7.284  0.7811 -0.9089 -0.2698
 5085TIP3    H236815   4.743   3.423   7.379  0.8901  0.2603 -1.0764
 5086TIP3   OH236816   4.559   0.656   1.440 -0.8447 -0.1053 -0.2627
 5086TIP3    H136817   4.569   0.594   1.512 -1.3360  1.3003  1.0748
 5086TIP3    H236818   4.465   0.653   1.419 -0.6672 -0.6628 -0.9951
 5087TIP3   OH236819   5.346   3.317   0.956 -0.2813 -0.0836  0.4851
 5087TIP3    H136820   5.337   3.411   0.973 -1.3674  0.0538 -0.6601
 5087TIP3    H236821   5.260   3.280   0.979 -0.3275 -0.5505 -0.3760
 5088TIP3   OH236822   6.594   1.082   7.713 -0.3033  0.0500  0.3463
 5088TIP3    H136823   6.580   1.117   7.625 -0.5525 -0.7541  0.0553
 5088TIP3    H236824   6.674   1.125   7.744 -0.3003  0.4517 -0.2084
 5089TIP3   OH236825   5.170   2.234   1.716 -0.6049 -0.1122  0.5032
 5089TIP3    H136826   5.238   2.192   1.662  0.2853 -0.0325  1.5480
 5089TIP3    H236827   5.105   2.263   1.652 -0.7380 -2.1037 -0.3698
 5090TIP3   OH236828   1.987   4.091   6.822 -0.3862 -0.3196  0.2090
 5090TIP3    H136829   1.910   4.140   6.794  0.5371  0.9653 -0.2293
 5090TIP3    H236830   2.007   4.033   6.748 -0.2305  0.2537 -0.2139
 5091TIP3   OH236831   2.037   5.343   6.740  0.0457  0.2097 -0.6190
 5091TIP3    H136832   1.955   5.296   6.728 -0.4916  0.2443  2.2039
 5091TIP3    H236833   2.016   5.434   6.720 -0.5679  0.1723 -0.1769
 5092TIP3   OH236834   4.070   4.544   2.300 -0.7604 -0.5149 -0.0718
 5092TIP3    H136835   4.132   4.591   2.244 -1.2569 -1.0834 -1.1359
 5092TIP3    H236836   4.082   4.583   2.387  1.3907 -0.9151 -0.1318
 5093TIP3   OH236837   4.275   4.479   8.227 -0.6265  0.3098  0.6184
 5093TIP3    H136838   4.229   4.403   8.191  1.0790 -0.5123  0.0895
 5093TIP3    H236839   4.302   4.451   8.315  0.0909  0.2390  0.3844
 5094TIP3   OH236840   6.268   5.537   8.294 -1.2230 -0.2026 -0.0488
 5094TIP3    H136841   6.179   5.515   8.324 -0.8967  0.7132  1.7517
 5094TIP3    H236842   6.269   5.633   8.293  0.6821 -0.0095  3.4095
 5095TIP3   OH236843   5.959   2.000   8.236 -0.0360  0.9126 -0.5068
 5095TIP3    H136844   5.902   1.938   8.189  0.0600  0.9084 -0.6190
 5095TIP3    H236845   6.004   2.048   8.166 -0.7598  1.7201 -0.4319
 5096TIP3   OH236846   5.893   5.237   0.664 -0.3204  0.1106  0.7151
 5096TIP3    H136847   5.836   5.306   0.699  1.1864  1.0202  1.4790
 5096TIP3    H236848   5.981   5.262   0.692  0.3687 -1.7333  0.3436
 5097TIP3   OH236849   2.965   4.281   1.526 -0.0808  0.0452  0.2012
 5097TIP3    H136850   2.923   4.244   1.448 -0.3129  0.5116  0.1005
 5097TIP3    H236851   3.045   4.230   1.536 -1.3333 -1.8500  1.2352
 5098TIP3   OH236852   2.399   3.308   0.569 -0.1201  0.3558 -0.3554
 5098TIP3    H136853   2.378   3.214   0.574  0.3026  0.3241  1.1606
 5098TIP3    H236854   2.484   3.311   0.525 -0.9132  0.1706 -1.9874
 5099TIP3   OH236855   6.596   6.471   0.580  0.1813 -0.0293  0.0670
 5099TIP3    H136856   6.617   6.480   0.673  0.2452 -0.1517  0.0644
 5099TIP3    H236857   6.505   6.443   0.577  0.1330  0.1236  0.0880
 5100TIP3   OH236858   6.227   4.490   0.475  0.2126 -0.1438  0.2596
 5100TIP3    H136859   6.210   4.398   0.454 -0.8073  0.3702 -1.3997
 5100TIP3    H236860   6.287   4.519   0.407  1.2746  0.2045  1.3174
 5101TIP3   OH236861   0.494   0.981   0.286  0.0859  0.1741 -0.1289
 5101TIP3    H136862   0.473   1.046   0.219 -1.3983  0.0115  0.1418
 5101TIP3    H236863   0.462   0.898   0.251 -1.3887  0.1963  1.0451
 5102TIP3   OH236864   5.661   1.520   1.444 -0.7400 -0.1238  0.1755
 5102TIP3    H136865   5.583   1.571   1.465 -0.9212  0.0309 -0.8198
 5102TIP3    H236866   5.698   1.563   1.367  0.5127 -0.0161  0.8149
 5103TIP3   OH236867   5.204   0.369   1.265 -0.1653 -0.0105 -0.0388
 5103TIP3    H136868   5.180   0.377   1.172 -2.5359  1.9498  0.6273
 5103TIP3    H236869   5.148   0.299   1.298 -0.6689  0.5011  0.2346
 5104TIP3   OH236870   3.039   6.772   6.549 -0.0245 -0.5288 -0.1805
 5104TIP3    H136871   3.015   6.852   6.596 -0.3168 -0.2858 -0.7449
 5104TIP3    H236872   2.960   6.746   6.502  0.0673 -1.1535 -0.0052
 5105TIP3   OH236873   3.256   6.532   0.639 -0.1384  0.0637  0.0605
 5105TIP3    H136874   3.273   6.536   0.733 -1.3043  0.9024  0.2543
 5105TIP3    H236875   3.341   6.550   0.599  0.2675  0.1853  0.9526
 5106TIP3   OH236876   5.506   4.480   8.249 -0.0695 -0.5403  0.5008
 5106TIP3    H136877   5.418   4.445   8.231 -0.3829 -0.2965  1.4933
 5106TIP3    H236878   5.551   4.475   8.165 -1.2676  0.0123 -0.2069
 5107TIP3   OH236879   6.619   1.279   0.566  0.7872  0.2083 -0.0437
 5107TIP3    H136880   6.557   1.244   0.630  0.6057 -0.6289 -0.6574
 5107TIP3    H236881   6.705   1.266   0.606  0.7507 -1.3165 -0.4163
 5108TIP3   OH236882   3.688   3.587   7.990 -0.2928 -0.3713 -0.5878
 5108TIP3    H136883   3.686   3.682   7.984  1.4355 -0.3232 -0.7543
 5108TIP3    H236884   3.615   3.565   8.049  2.3170  1.4599  3.8421
 5109TIP3   OH236885   6.521   4.692   8.346  0.4323 -0.3037  0.1848
 5109TIP3    H136886   6.572   4.743   8.408 -0.7334  0.7210  0.3319
 5109TIP3    H236887   6.564   4.706   8.262  0.8953 -0.1543  0.4443
 5110TIP3   OH236888   4.754   1.300   1.257 -0.1739  0.0403 -0.3085
 5110TIP3    H136889   4.803   1.241   1.199 -0.8752 -0.8138 -0.0550
 5110TIP3    H236890   4.737   1.248   1.335 -1.2383  0.4225 -0.2805
 5111TIP3   OH236891   5.834   0.386   8.521  0.1005  0.7709  0.2211
 5111TIP3    H136892   5.887   0.325   8.469 -2.9386 -2.4338  0.5536
 5111TIP3    H236893   5.794   0.445   8.457 -0.3816 -0.4880 -0.6691
 5112TIP3   OH236894   3.791   5.135   5.874  0.2935  0.2767  0.0961
 5112TIP3    H136895   3.781   5.230   5.864 -1.1217  0.4701  2.5355
 5112TIP3    H236896   3.861   5.126   5.938  3.2433 -0.5630 -2.9811
 5113TIP3   OH236897   0.367   2.831   0.040 -0.0640 -0.3626 -0.4255
 5113TIP3    H136898   0.317   2.749   0.033 -1.1493 -0.0967  2.6223
 5113TIP3    H236899   0.409   2.826   0.126 -0.1880  2.2829 -0.1255
 5114TIP3   OH236900   5.873   4.746   1.616 -0.5788 -0.2807 -0.0279
 5114TIP3    H136901   5.826   4.824   1.646  0.6053  1.0422 -1.4433
 5114TIP3    H236902   5.943   4.734   1.679 -1.7921 -1.3270  1.2014
 5115TIP3   OH236903   2.651   0.059   7.885  0.1306 -0.2557  0.9261
 5115TIP3    H136904   2.649   0.062   7.789  0.2197 -0.2458  0.9248
 5115TIP3    H236905   2.744   0.049   7.907  0.0341 -1.0558  0.9893
 5116TIP3   OH236906   5.347   3.013   1.056  0.2682 -0.3900  0.0193
 5116TIP3    H136907   5.417   3.074   1.031 -0.9509  0.6116 -1.1031
 5116TIP3    H236908   5.332   3.031   1.149  0.4004  0.5542 -0.1292
 5117TIP3   OH236909   0.765   5.461   6.694 -0.0799 -0.2711  0.3315
 5117TIP3    H136910   0.787   5.428   6.607 -0.0117 -0.2189  0.3280
 5117TIP3    H236911   0.686   5.514   6.681 -0.6587 -1.0742  0.4707
 5118TIP3   OH236912   0.884   6.367   7.979  1.1810 -0.6667 -0.5650
 5118TIP3    H136913   0.838   6.410   7.907 -0.0117  1.0354  1.1163
 5118TIP3    H236914   0.964   6.418   7.990  0.5319  0.1661  0.4007
 5119TIP3   OH236915   5.371   6.315   8.097 -0.1285 -0.4023  0.1230
 5119TIP3    H136916   5.405   6.231   8.067 -0.2397 -0.0840 -0.9269
 5119TIP3    H236917   5.286   6.323   8.052  0.7834  1.1904 -1.4369
 5120TIP3   OH236918   2.368   0.440   0.432 -0.1702  0.3182 -0.3180
 5120TIP3    H136919   2.401   0.381   0.364  1.1905 -0.1659  0.7251
 5120TIP3    H236920   2.389   0.396   0.514 -0.0521  1.7902  0.4678
 5121TIP3   OH236921   1.619   1.891   1.560 -0.4802  0.0494  0.2866
 5121TIP3    H136922   1.555   1.891   1.489 -0.9620 -1.1439  0.6918
 5121TIP3    H236923   1.698   1.851   1.522 -0.6401 -0.3142  0.3311
 5122TIP3   OH236924   3.894   2.784   6.031  0.0546 -0.5614  0.2597
 5122TIP3    H136925   3.826   2.743   6.084 -0.2783 -2.7269 -1.7013
 5122TIP3    H236926   3.975   2.742   6.059 -0.0803 -1.4718 -0.6656
 5123TIP3   OH236927   0.222   6.010   1.417  0.2327  0.8702  0.6167
 5123TIP3    H136928   0.184   6.005   1.504  1.7878 -1.5381  1.2513
 5123TIP3    H236929   0.311   5.975   1.427  0.1379 -0.4135 -2.0817
 5124TIP3   OH236930   0.652   1.636   7.345 -0.8175  0.0601 -0.5192
 5124TIP3    H136931   0.738   1.596   7.332 -0.6490  0.1825  0.1587
 5124TIP3    H236932   0.635   1.625   7.439 -0.7256  1.6722 -0.2995
 5125TIP3   OH236933   6.164   0.250   6.981  0.2564 -0.0528  0.4979
 5125TIP3    H136934   6.175   0.345   6.978  0.6945 -0.1169 -2.2107
 5125TIP3    H236935   6.227   0.221   7.047  0.4966  1.4765  0.9895
 5126TIP3   OH236936   1.072   1.180   7.787 -0.4995  0.4238 -0.5794
 5126TIP3    H136937   1.087   1.268   7.822  1.4508 -0.7504  1.8331
 5126TIP3    H236938   0.991   1.151   7.830 -1.3854  1.1225 -1.7036
 5127TIP3   OH236939   1.989   5.431   7.911 -0.1639  0.5158  0.5628
 5127TIP3    H136940   1.969   5.350   7.958  3.4023 -0.6857  0.3104
 5127TIP3    H236941   1.952   5.500   7.966  0.9274 -1.0213  3.4965
 5128TIP3   OH236942   3.585   6.768   0.252  0.7960  0.1295 -0.3511
 5128TIP3    H136943   3.563   6.790   0.162 -3.1159  0.9049  0.6192
 5128TIP3    H236944   3.611   6.851   0.291 -2.4764  0.9916  0.3407
 5129TIP3   OH236945   6.619   3.846   0.599 -0.5735 -0.0841  0.6559
 5129TIP3    H136946   6.593   3.935   0.575  1.2037  0.1022 -0.7415
 5129TIP3    H236947   6.678   3.818   0.529  0.3990 -1.6609  2.0315
 5130TIP3   OH236948   1.050   3.235   6.890 -0.5144 -0.1262 -0.4534
 5130TIP3    H136949   1.065   3.323   6.924 -1.1853  0.0274 -0.5518
 5130TIP3    H236950   1.114   3.180   6.937 -1.3672  0.0893  1.0099
 5131TIP3   OH236951   4.046   6.751   6.590 -0.3222  0.3149  0.3697
 5131TIP3    H136952   4.098   6.766   6.511  0.3740 -0.1809  0.7145
 5131TIP3    H236953   4.001   6.833   6.606 -0.7045  0.3307 -0.7086
 5132TIP3   OH236954   6.400   2.188   8.329  0.2108  0.1691  0.1664
 5132TIP3    H136955   6.493   2.168   8.329  0.2889  0.0037 -3.1545
 5132TIP3    H236956   6.357   2.103   8.340  0.3196  0.3312  2.5842
 5133TIP3   OH236957   0.715   5.238   7.417  0.8161 -0.5113  0.3471
 5133TIP3    H136958   0.629   5.233   7.376  1.1611  0.5927 -0.5594
 5133TIP3    H236959   0.713   5.170   7.485 -1.5106  0.7813  1.7132
 5134TIP3   OH236960   0.067   3.355   1.528 -0.5827 -0.0237 -0.4975
 5134TIP3    H136961   0.152   3.380   1.493 -0.5411  0.5116 -0.0340
 5134TIP3    H236962   0.059   3.405   1.610 -1.5714  0.3634 -0.8106
 5135TIP3   OH236963   4.562   1.032   7.545  0.1733 -0.2822 -0.5079
 5135TIP3    H136964   4.651   1.016   7.512  0.5114 -2.0176  1.0647
 5135TIP3    H236965   4.571   1.027   7.640 -1.0165  3.1668 -0.0871
 5136TIP3   OH236966   0.367   3.844   0.951  0.6012 -0.0258  0.1582
 5136TIP3    H136967   0.327   3.900   0.885  0.2159  0.5678  0.8797
 5136TIP3    H236968   0.427   3.788   0.902 -0.6854 -0.5569 -0.8952
 5137TIP3   OH236969   6.194   4.180   1.359 -0.4710  0.6497  0.0527
 5137TIP3    H136970   6.184   4.140   1.445 -0.8746 -2.8658 -1.4812
 5137TIP3    H236971   6.210   4.107   1.299  0.9514  3.0056 -2.7528
 5138TIP3   OH236972   0.963   6.893   6.704 -0.8193 -0.4691  0.3907
 5138TIP3    H136973   0.963   6.885   6.609 -0.6946 -2.6910  0.5183
 5138TIP3    H236974   1.036   6.839   6.733 -1.8914 -1.2477  1.8021
 5139TIP3   OH236975   0.508   1.548   0.161 -0.1773 -0.4275  0.1311
 5139TIP3    H136976   0.452   1.532   0.085 -0.5524 -0.7883  0.4776
 5139TIP3    H236977   0.452   1.530   0.236  0.0763  0.3142  0.5053
 5140TIP3   OH236978   5.306   2.451   7.289 -0.0153  0.3039 -0.6097
 5140TIP3    H136979   5.286   2.508   7.215 -0.9240  0.0303 -0.5945
 5140TIP3    H236980   5.401   2.457   7.300 -0.0572  1.5365 -0.8248
 5141TIP3   OH236981   4.309   4.645   0.995  0.2603 -0.3778 -0.2160
 5141TIP3    H136982   4.318   4.582   1.066  0.0408 -1.0291 -0.7603
 5141TIP3    H236983   4.399   4.666   0.970  0.3448  0.1512  0.5055
 5142TIP3   OH236984   1.057   5.729   8.001 -0.9471  0.1209  0.1061
 5142TIP3    H136985   1.137   5.696   7.959  0.6318  2.6921  0.8659
 5142TIP3    H236986   1.017   5.786   7.935 -0.6777  0.9463  0.6412
 5143TIP3   OH236987   4.271   5.202   7.801  0.1819  0.4076 -0.4367
 5143TIP3    H136988   4.185   5.243   7.801  0.7588  1.6758  0.4458
 5143TIP3    H236989   4.282   5.169   7.890 -0.4196 -2.0999 -1.2064
 5144TIP3   OH236990   1.358   1.758   0.056 -0.0492 -0.3681  0.0547
 5144TIP3    H136991   1.332   1.850   0.057 -0.7779 -0.5043 -1.7003
 5144TIP3    H236992   1.347   1.728   0.146 -2.8109  0.4725  0.0945
 5145TIP3   OH236993   0.290   0.355   8.503 -0.2317 -0.1738  0.1472
 5145TIP3    H136994   0.341   0.286   8.461  1.8660  1.3480  0.0311
 5145TIP3    H236995   0.323   0.436   8.464 -1.7637  0.9774  1.1352
 5146TIP3   OH236996   5.604   0.300   8.318  0.5110  0.0666 -0.9320
 5146TIP3    H136997   5.576   0.352   8.393 -1.1275 -0.9546 -0.7959
 5146TIP3    H236998   5.549   0.329   8.245  0.6802 -0.3614 -1.2405
 5147TIP3   OH236999   2.669   1.018   7.371 -0.6766  0.4350 -0.4291
 5147TIP3    H137000   2.607   1.003   7.442 -0.4253 -0.7561 -0.4393
 5147TIP3    H237001   2.618   1.007   7.291 -0.5424 -0.1352 -0.4365
 5148TIP3   OH237002   2.523   2.923   0.475 -0.0310 -0.0829 -0.2296
 5148TIP3    H137003   2.501   2.924   0.569 -2.0433 -0.2347 -0.6496
 5148TIP3    H237004   2.610   2.963   0.470 -0.2952  0.8293  1.6083
 5149TIP3   OH237005   3.849   4.716   1.153 -0.5604  0.0251  0.4603
 5149TIP3    H137006   3.771   4.768   1.138 -0.4135  0.0081 -0.4051
 5149TIP3    H237007   3.870   4.729   1.246 -0.9524  0.9049  0.4265
 5150TIP3   OH237008   3.104   2.815   2.190  0.1956 -0.0937  0.4405
 5150TIP3    H137009   3.161   2.820   2.267 -0.2146  0.1665  0.7342
 5150TIP3    H237010   3.031   2.873   2.211 -0.3459 -0.6828  0.2048
 5151TIP3   OH237011   0.840   2.437   0.152  0.3911  0.4221 -0.4672
 5151TIP3    H137012   0.880   2.478   0.075 -2.8189  3.4105 -0.8129
 5151TIP3    H237013   0.784   2.368   0.116  0.8380  0.1092 -0.5615
 5152TIP3   OH237014   6.693   5.823   2.021 -0.5838 -0.4791 -0.5547
 5152TIP3    H137015   6.599   5.808   2.006 -1.2511  1.5430  1.0650
 5152TIP3    H237016   6.706   5.915   1.996  0.4638 -0.1025  1.2606
 5153TIP3   OH237017   6.795   4.109   8.424 -0.3057  0.1380  0.4226
 5153TIP3    H137018   6.723   4.102   8.361 -1.0155 -1.0549  1.3122
 5153TIP3    H237019   6.756   4.086   8.508  0.9549  0.2068  1.0577
 5154TIP3   OH237020   6.861   1.065   7.817 -0.3932  0.0892  0.6281
 5154TIP3    H137021   6.906   1.148   7.831  0.4656  0.2313 -2.3314
 5154TIP3    H237022   6.931   1.002   7.799 -1.1426 -0.8225  0.8025
 5155TIP3   OH237023   2.838   6.329   7.785 -0.4948  0.0795 -0.0773
 5155TIP3    H137024   2.790   6.385   7.847  1.4345  0.2652  1.3167
 5155TIP3    H237025   2.878   6.391   7.724  0.6678  0.1715  0.7570
 5156TIP3   OH237026   5.878   3.976   1.182  0.3550 -0.1520  0.5227
 5156TIP3    H137027   5.785   3.959   1.197  0.0921  1.4070  0.8513
 5156TIP3    H237028   5.922   3.938   1.257 -0.0592 -0.4406  0.6259
 5157TIP3   OH237029   0.532   0.826   7.372  0.3718 -0.1703  0.2230
 5157TIP3    H137030   0.539   0.920   7.361 -0.2895 -0.0135  1.0038
 5157TIP3    H237031   0.621   0.797   7.394  0.3101  0.4881  1.4290
 5158TIP3   OH237032   2.981   0.534   7.767  0.3469  0.3281 -0.0181
 5158TIP3    H137033   2.929   0.454   7.780  1.3645 -0.7831 -2.2568
 5158TIP3    H237034   3.057   0.523   7.823  1.9808 -1.8004 -2.4435
 5159TIP3   OH237035   5.739   6.100   7.549  0.2084 -0.4276  0.5851
 5159TIP3    H137036   5.732   6.020   7.497  0.6362 -0.7265  0.9760
 5159TIP3    H237037   5.801   6.078   7.619  0.8099  0.4457  0.3382
 5160TIP3   OH237038   6.328   3.154   1.892 -0.2347  0.4006 -0.5293
 5160TIP3    H137039   6.408   3.205   1.906 -0.1141 -0.1129  0.8980
 5160TIP3    H237040   6.341   3.075   1.946 -1.5345  0.1339 -0.5882
 5161TIP3   OH237041   4.143   1.559   7.934  0.5879  0.3872 -0.6656
 5161TIP3    H137042   4.190   1.500   7.875  0.3596 -1.1779  0.6171
 5161TIP3    H237043   4.083   1.501   7.981 -0.3743  1.8432 -0.0485
 5162TIP3   OH237044   4.931   5.635   7.034 -0.2202  0.5232  0.1204
 5162TIP3    H137045   4.924   5.572   6.961  1.5980  1.9041 -1.3569
 5162TIP3    H237046   5.025   5.636   7.055 -0.4195  1.7343  1.0235
 5163TIP3   OH237047   0.178   1.301   8.289 -0.2626  0.1564 -0.8606
 5163TIP3    H137048   0.093   1.265   8.267 -1.0223  0.7987  0.8919
 5163TIP3    H237049   0.199   1.359   8.215 -1.6562  0.5201 -1.0002
 5164TIP3   OH237050   2.604   4.622   7.217  0.4321  0.1052 -0.4717
 5164TIP3    H137051   2.564   4.619   7.130 -0.2854  0.8948 -0.1872
 5164TIP3    H237052   2.656   4.702   7.216 -0.6903  0.8771  0.2650
 5165TIP3   OH237053   3.706   1.058   6.893  0.3868  0.1121 -0.0409
 5165TIP3    H137054   3.692   1.131   6.954  1.0638 -0.6396  1.0490
 5165TIP3    H237055   3.759   1.096   6.823 -0.6570  1.0687 -0.3541
 5166TIP3   OH237056   0.875   1.832   0.935 -0.0103  0.0756  0.1182
 5166TIP3    H137057   0.848   1.876   1.016  1.7651  0.9926  0.2650
 5166TIP3    H237058   0.950   1.778   0.961  1.1151  1.0200 -1.0243
 5167TIP3   OH237059   2.300   6.222   7.618  0.2574  0.1896 -0.3693
 5167TIP3    H137060   2.271   6.159   7.552  2.1502 -0.3845 -0.6886
 5167TIP3    H237061   2.382   6.187   7.652  0.0327  1.1824  1.3213
 5168TIP3   OH237062   0.375   0.606   1.100 -0.1359 -0.2085  0.4976
 5168TIP3    H137063   0.371   0.512   1.087 -0.5649 -0.3002  1.2372
 5168TIP3    H237064   0.435   0.637   1.032 -1.0867 -0.8345 -0.6577
 5169TIP3   OH237065   5.175   2.531   6.562 -0.2318 -0.3588 -0.6148
 5169TIP3    H137066   5.099   2.586   6.545 -0.4329 -0.5663 -0.4061
 5169TIP3    H237067   5.194   2.490   6.478 -0.1355 -0.0403 -0.7491
 5170TIP3   OH237068   5.851   2.395   8.266 -0.3113 -0.6651 -0.0134
 5170TIP3    H137069   5.774   2.423   8.316 -0.6055 -0.1123 -0.7622
 5170TIP3    H237070   5.837   2.302   8.249 -0.1950 -0.8744  0.9323
 5171TIP3   OH237071   6.653   2.491   2.355  0.0051  0.4195  0.3646
 5171TIP3    H137072   6.588   2.423   2.343 -1.1173  1.3933  0.7226
 5171TIP3    H237073   6.647   2.515   2.447  1.5944 -0.1629  0.6558
 5172TIP3   OH237074   3.287   1.371   6.828  0.4459  0.4124 -0.1067
 5172TIP3    H137075   3.263   1.387   6.919  1.0095  2.8478 -0.3369
 5172TIP3    H237076   3.205   1.341   6.787 -0.9895  3.3471  0.3136
 5173TIP3   OH237077   4.167   5.115   0.337  0.2556 -0.0353 -0.2420
 5173TIP3    H137078   4.210   5.031   0.352 -0.0163  0.1559  1.9602
 5173TIP3    H237079   4.154   5.152   0.425  0.3722  2.3284 -1.1333
 5174TIP3   OH237080   0.656   4.488   8.400  0.5856 -0.5924 -0.3263
 5174TIP3    H137081   0.575   4.493   8.350  0.5833  0.9551 -0.1976
 5174TIP3    H237082   0.674   4.578   8.427  0.9712 -1.2583  1.8511
 5175TIP3   OH237083   4.361   0.959   0.491 -0.1222  0.0847 -0.0552
 5175TIP3    H137084   4.384   0.870   0.464  0.7712  0.2392  0.1410
 5175TIP3    H237085   4.287   0.983   0.436  1.0432  0.0299 -1.7188
 5176TIP3   OH237086   2.164   5.772   7.582  0.3060 -0.0647  0.3231
 5176TIP3    H137087   2.248   5.733   7.607  0.4622  0.8922  1.4261
 5176TIP3    H237088   2.164   5.772   7.487  2.4963  1.7495  0.2339
 5177TIP3   OH237089   3.770   2.584   1.725  0.0619  0.8905  0.4074
 5177TIP3    H137090   3.718   2.520   1.677  0.3408  1.6212 -0.9203
 5177TIP3    H237091   3.715   2.662   1.729  0.5921  1.2894  0.0255
 5178TIP3   OH237092   4.584   2.342   7.122 -0.3729 -0.1897  0.2338
 5178TIP3    H137093   4.518   2.280   7.152 -0.0250 -0.0399  1.3527
 5178TIP3    H237094   4.535   2.424   7.111 -0.5921 -0.3566 -0.0538
 5179TIP3   OH237095   5.348   5.332   1.673 -0.0811  0.2548  0.1900
 5179TIP3    H137096   5.433   5.328   1.628  0.5357 -2.2973  1.3631
 5179TIP3    H237097   5.368   5.368   1.759 -0.3363  0.4152  0.1813
 5180TIP3   OH237098   5.039   5.550   0.096  0.5028  0.6766  0.0739
 5180TIP3    H137099   5.029   5.605   0.019 -0.7657 -1.1112 -1.1127
 5180TIP3    H237100   4.958   5.562   0.145  0.9710  1.1868  0.7480
 5181TIP3   OH237101   1.295   5.948   7.062  0.0013  0.2421 -0.8367
 5181TIP3    H137102   1.225   6.005   7.028 -1.2368 -1.0185 -0.4789
 5181TIP3    H237103   1.287   5.954   7.157 -0.4392 -0.8531 -0.7932
 5182TIP3   OH237104   3.400   3.418   7.620  0.6687  0.2923 -0.5377
 5182TIP3    H137105   3.309   3.433   7.647  0.2527  1.3549 -2.3453
 5182TIP3    H237106   3.452   3.447   7.695 -0.4615  1.2842 -0.0951
 5183TIP3   OH237107   2.896   6.314   7.016 -0.5747  0.1707  0.0070
 5183TIP3    H137108   2.961   6.283   7.080 -0.3412  1.6832  0.5387
 5183TIP3    H237109   2.881   6.239   6.959 -0.0885 -0.9302  1.2779
 5184TIP3   OH237110   0.315   2.237   0.360  0.0816 -0.8801 -0.0123
 5184TIP3    H137111   0.380   2.308   0.363 -0.5307 -0.3153  0.0983
 5184TIP3    H237112   0.296   2.227   0.266  0.5558 -1.2664 -0.0730
 5185TIP3   OH237113   2.818   2.958   6.204  0.0182 -0.4739 -0.1101
 5185TIP3    H137114   2.766   2.955   6.284  0.9017 -0.6899  0.4754
 5185TIP3    H237115   2.766   3.010   6.143 -0.3390  0.3143  0.8408
 5186TIP3   OH237116   4.027   4.934   7.077  0.4234  0.9002 -0.1715
 5186TIP3    H137117   3.986   4.996   7.138  1.2419  0.9767  0.3156
 5186TIP3    H237118   4.092   4.887   7.130 -1.4612 -1.7821  0.0103
 5187TIP3   OH237119   5.616   1.654   0.963  0.2120 -0.3006  0.5258
 5187TIP3    H137120   5.656   1.740   0.955  1.3985 -0.8695  0.0458
 5187TIP3    H237121   5.618   1.617   0.875  0.4657 -1.1318  0.8649
 5188TIP3   OH237122   2.228   1.871   7.597  0.2556  0.1826  0.6417
 5188TIP3    H137123   2.266   1.865   7.685  0.8960  0.6123  0.4059
 5188TIP3    H237124   2.288   1.820   7.542 -0.6666 -0.9092  0.5975
 5189TIP3   OH237125   0.313   4.109   1.294 -0.4052 -0.7089  0.4597
 5189TIP3    H137126   0.394   4.058   1.285  0.1014  0.0693  0.5075
 5189TIP3    H237127   0.249   4.046   1.325 -0.2661 -1.7600 -1.2304
 5190TIP3   OH237128   1.398   5.357   7.127  0.6686 -0.5552  0.2661
 5190TIP3    H137129   1.460   5.342   7.056  0.3802 -2.3400  0.3554
 5190TIP3    H237130   1.420   5.444   7.160  1.1234  0.1267 -1.6760
 5191TIP3   OH237131   1.349   1.896   0.372 -0.1123 -0.1558 -0.0806
 5191TIP3    H137132   1.328   1.809   0.337 -1.0306 -0.8738  2.0783
 5191TIP3    H237133   1.381   1.879   0.460  1.4910  1.6120 -0.2574
 5192TIP3   OH237134   5.432   1.204   7.059 -0.4306  0.8175 -0.4232
 5192TIP3    H137135   5.358   1.249   7.099  0.2161  1.0700  0.5076
 5192TIP3    H237136   5.496   1.273   7.041  0.2049  0.4048  0.1999
 5193TIP3   OH237137   5.060   1.827   2.371 -0.0625 -0.3175 -0.3258
 5193TIP3    H137138   4.983   1.771   2.382 -0.7800  0.8797  1.1629
 5193TIP3    H237139   5.116   1.780   2.310 -1.4743 -1.7551 -0.5629
 5194TIP3   OH237140   1.373   0.378   0.200  0.3226 -0.0080 -0.0789
 5194TIP3    H137141   1.378   0.367   0.105 -0.1831 -2.4275  0.0995
 5194TIP3    H237142   1.464   0.377   0.229  0.5184  1.5042 -0.5666
 5195TIP3   OH237143   2.335   2.433   8.165  0.2890  0.0319  0.5235
 5195TIP3    H137144   2.324   2.393   8.079  0.6323  1.1477 -0.0639
 5195TIP3    H237145   2.401   2.501   8.152 -0.4240  0.9441  1.4109
 5196TIP3   OH237146   3.317   3.696   1.935  0.5725 -0.3012 -0.1055
 5196TIP3    H137147   3.275   3.736   2.011 -0.2942 -0.3832 -0.5334
 5196TIP3    H237148   3.383   3.638   1.973 -1.2910 -2.0071  0.6899
 5197TIP3   OH237149   1.126   3.786   7.386 -0.2366 -0.3140  0.3419
 5197TIP3    H137150   1.042   3.766   7.347  0.7646 -0.4627 -1.8615
 5197TIP3    H237151   1.114   3.872   7.428 -0.9396  0.6956 -1.8064
 5198TIP3   OH237152   4.694   1.159   0.258  0.2430 -0.2912 -0.0989
 5198TIP3    H137153   4.662   1.187   0.344  2.5148 -0.4797  0.8680
 5198TIP3    H237154   4.634   1.200   0.196 -1.6186 -0.3451  1.5469
 5199TIP3   OH237155   5.735   4.353   6.415 -0.3698 -0.0625 -0.1077
 5199TIP3    H137156   5.704   4.266   6.392 -2.1588  0.5272 -0.1175
 5199TIP3    H237157   5.732   4.402   6.333  0.9021 -0.0526 -0.1604
 5200TIP3   OH237158   3.725   5.938   6.289 -0.7739  0.2956 -0.1780
 5200TIP3    H137159   3.674   5.975   6.217 -1.2677  1.2489  0.6291
 5200TIP3    H237160   3.673   5.958   6.367  0.8689  1.3674  0.6938
 5201TIP3   OH237161   1.149   3.885   2.245  0.1501 -0.1427  0.1520
 5201TIP3    H137162   1.242   3.876   2.225  0.3256  2.9336 -1.0883
 5201TIP3    H237163   1.144   3.891   2.340  1.0597 -1.2440  0.2892
 5202TIP3   OH237164   5.226   1.029   0.917  0.3739 -0.0944 -0.2518
 5202TIP3    H137165   5.233   1.116   0.957 -0.5230 -0.0721 -0.1130
 5202TIP3    H237166   5.234   0.969   0.991  0.6088 -0.1212 -0.2975
 5203TIP3   OH237167   4.654   5.486   8.513 -0.0313  0.0311  0.2295
 5203TIP3    H137168   4.579   5.428   8.531 -0.5506  0.8060  0.6659
 5203TIP3    H237169   4.704   5.486   8.595  0.1471 -0.0624  0.1197
 5204TIP3   OH237170   0.107   6.840   0.106 -0.1357 -0.2707  0.3881
 5204TIP3    H137171   0.167   6.793   0.164  0.9426  0.3194 -0.2267
 5204TIP3    H237172   0.113   6.931   0.134  0.8241  0.1150 -0.9691
 5205TIP3   OH237173   5.483   2.888   0.589 -0.1016 -0.5110 -0.0539
 5205TIP3    H137174   5.476   2.822   0.658 -0.4507  0.7313  1.1430
 5205TIP3    H237175   5.394   2.922   0.581  0.1825  0.1791 -0.2872
 5206TIP3   OH237176   1.104   0.568   6.978 -0.5872 -0.5335 -0.0007
 5206TIP3    H137177   1.063   0.619   6.908  1.1848  0.5841 -0.3180
 5206TIP3    H237178   1.166   0.511   6.933  0.3816  0.0084  0.5833
 5207TIP3   OH237179   3.079   4.309   7.794  0.4710  0.0738 -0.1196
 5207TIP3    H137180   3.028   4.382   7.830  2.3379  1.6296 -0.5050
 5207TIP3    H237181   3.042   4.232   7.837 -0.5313  1.3728  1.4998
 5208TIP3   OH237182   5.238   1.618   7.930 -0.4693 -0.1562  0.6070
 5208TIP3    H137183   5.291   1.556   7.980 -0.2610  0.7271  1.5057
 5208TIP3    H237184   5.299   1.690   7.909 -0.6300 -0.3682 -0.6702
 5209TIP3   OH237185   5.639   1.066   7.280 -0.2945  0.5738  0.1886
 5209TIP3    H137186   5.550   1.100   7.270 -0.4578 -0.3592 -2.2744
 5209TIP3    H237187   5.693   1.126   7.228 -0.1165 -0.9845 -1.5416
 5210TIP3   OH237188   0.987   3.626   1.128 -0.1107 -0.3084 -0.1416
 5210TIP3    H137189   0.967   3.560   1.194  0.0165 -1.2876 -1.0550
 5210TIP3    H237190   0.903   3.648   1.089 -0.5538  2.0035  1.8526
 5211TIP3   OH237191   5.162   0.363   1.574  0.2259  0.1455  0.1224
 5211TIP3    H137192   5.123   0.425   1.635  0.2157  1.4811 -1.1838
 5211TIP3    H237193   5.237   0.409   1.537  1.5257 -1.4321  0.6690
 5212TIP3   OH237194   2.501   0.980   2.090  0.2970 -0.1267  0.4290
 5212TIP3    H137195   2.483   1.070   2.118  0.3097 -0.5345  1.8155
 5212TIP3    H237196   2.429   0.958   2.032  1.2225  1.3826 -1.4008
 5213TIP3   OH237197   6.314   4.251   1.754  0.0067  0.3782  0.1163
 5213TIP3    H137198   6.303   4.341   1.783  1.1827  0.5234  0.1584
 5213TIP3    H237199   6.252   4.201   1.808 -1.4051  1.2619 -0.6276
 5214TIP3   OH237200   3.976   5.509   6.759  0.1434  0.5213  0.0741
 5214TIP3    H137201   3.955   5.602   6.762  1.7575  0.9347 -0.7982
 5214TIP3    H237202   3.935   5.473   6.838  0.7987  2.2491  1.2587
 5215TIP3   OH237203   1.606   4.759   1.194 -0.2757  0.2371 -0.4443
 5215TIP3    H137204   1.602   4.729   1.104  0.9807  0.3684 -0.5526
 5215TIP3    H237205   1.530   4.817   1.203 -1.3314 -1.0228 -0.9310
 5216TIP3   OH237206   1.989   0.805   2.108  0.0327  0.4705  0.8284
 5216TIP3    H137207   2.000   0.896   2.139 -0.7223  1.0614 -0.5522
 5216TIP3    H237208   2.061   0.757   2.149  1.5718  2.0776  0.1478
 5217TIP3   OH237209   5.198   3.050   0.346 -0.0357 -0.5910 -0.0777
 5217TIP3    H137210   5.153   3.129   0.375  0.9889  0.2846 -0.7959
 5217TIP3    H237211   5.139   2.979   0.371 -0.1193  0.2268  2.3464
 5218TIP3   OH237212   3.799   4.710   2.667  0.2119 -0.1440  0.2088
 5218TIP3    H137213   3.840   4.630   2.700 -0.3750  0.3447  2.3163
 5218TIP3    H237214   3.873   4.766   2.642  0.6757 -0.7711  0.1470
 5219TIP3   OH237215   2.762   0.368   8.060  0.6379 -0.1936  0.8950
 5219TIP3    H137216   2.682   0.359   8.007  1.0357 -1.6902  0.5190
 5219TIP3    H237217   2.768   0.462   8.078  0.1528  0.2797 -1.1862
 5220TIP3   OH237218   4.747   2.166   0.046 -0.1252 -0.0663  0.1876
 5220TIP3    H137219   4.723   2.157  -0.046 -0.7982 -2.0840  0.5102
 5220TIP3    H237220   4.839   2.138   0.050  0.4625  1.6660 -0.0799
 5221TIP3   OH237221   4.448   2.541   2.518  0.1772  0.2042 -0.6345
 5221TIP3    H137222   4.537   2.525   2.547 -0.5667 -3.2427  0.1756
 5221TIP3    H237223   4.439   2.490   2.437 -0.7215  1.5333 -1.4189
 5222TIP3   OH237224   4.851   6.779   0.796 -0.3278  0.3195  0.6019
 5222TIP3    H137225   4.821   6.769   0.887 -0.9422  0.9708  0.4823
 5222TIP3    H237226   4.784   6.734   0.745 -0.2774  0.4344  0.4367
 5223TIP3   OH237227   0.988   2.278   0.738 -0.1020  0.1610  0.0096
 5223TIP3    H137228   0.991   2.205   0.676  0.6599  0.8991 -0.8555
 5223TIP3    H237229   0.967   2.237   0.822  0.8984 -1.1425 -0.3347
 5224TIP3   OH237230   0.514   5.604   6.712  0.0650  1.0316 -0.5516
 5224TIP3    H137231   0.444   5.540   6.700  0.2495  1.0975 -2.0687
 5224TIP3    H237232   0.529   5.604   6.807 -1.2910  0.2896 -0.3088
 5225TIP3   OH237233   2.901   2.795   0.089 -0.3229  0.0680 -0.3570
 5225TIP3    H137234   2.842   2.841   0.149  0.7019  1.5356 -0.4268
 5225TIP3    H237235   2.855   2.796   0.005 -0.4949  0.6048 -0.2596
 5226TIP3   OH237236   3.521   1.900   0.843 -0.6018 -0.1409 -0.1833
 5226TIP3    H137237   3.520   1.983   0.890 -0.9087 -1.1643  1.7425
 5226TIP3    H237238   3.566   1.840   0.902 -2.0079 -1.7761 -0.6825
 5227TIP3   OH237239   3.039   2.876   7.938  0.4542  0.4713  0.0031
 5227TIP3    H137240   2.985   2.899   8.013  0.1097 -1.7689  0.5209
 5227TIP3    H237241   2.984   2.896   7.862 -0.0157  0.7842  0.4163
 5228TIP3   OH237242   3.324   1.215   2.055  0.0388 -0.5614  0.5023
 5228TIP3    H137243   3.343   1.126   2.084 -0.5114 -0.5404  0.9303
 5228TIP3    H237244   3.410   1.255   2.043  0.3381 -1.5570 -0.9888
 5229TIP3   OH237245   0.155   0.308   7.419 -0.3309  0.0617  0.1703
 5229TIP3    H137246   0.097   0.383   7.405  1.5069  1.1904 -2.1145
 5229TIP3    H237247   0.136   0.250   7.345 -0.0074 -0.5466  0.5611
 5230TIP3   OH237248   3.048   1.930   0.893  0.1098  0.1099  0.4337
 5230TIP3    H137249   2.997   2.011   0.897  0.2033  0.1541  0.7251
 5230TIP3    H237250   3.120   1.944   0.954  1.5420  0.8073 -1.2953
 5231TIP3   OH237251   6.321   0.368   2.100  0.1881  0.1056 -0.2347
 5231TIP3    H137252   6.245   0.319   2.130  0.2104  1.2558  1.9825
 5231TIP3    H237253   6.293   0.460   2.105  0.7263  0.4335 -2.4765
 5232TIP3   OH237254   4.020   6.670   7.956 -0.3936 -0.0545  0.1930
 5232TIP3    H137255   3.961   6.745   7.960 -0.4954 -0.1814  1.7650
 5232TIP3    H237256   3.967   6.598   7.921 -0.4821  0.4156 -0.6632
 5233TIP3   OH237257   2.519   2.912   1.699 -0.1648  0.5934  0.6165
 5233TIP3    H137258   2.448   2.869   1.747 -0.0384  0.2459  0.5024
 5233TIP3    H237259   2.584   2.932   1.767  0.7276 -1.3567  0.4039
 5234TIP3   OH237260   6.748   6.609   7.571  0.5419 -0.6063 -0.3447
 5234TIP3    H137261   6.837   6.619   7.607  1.1517 -0.4922 -1.8037
 5234TIP3    H237262   6.693   6.659   7.631  1.6993  0.6453 -0.2559
 5235TIP3   OH237263   4.831   1.913   6.780 -0.0125  0.2594  0.3365
 5235TIP3    H137264   4.903   1.927   6.718 -0.6636 -1.5804 -0.9294
 5235TIP3    H237265   4.751   1.929   6.728 -0.5685 -1.2471  0.6796
 5236TIP3   OH237266   0.060   4.657   1.125  0.1515 -0.0378 -0.3253
 5236TIP3    H137267   0.145   4.620   1.103 -1.5688 -2.8971 -3.0029
 5236TIP3    H237268   0.055   4.653   1.220  1.8271 -2.7924 -0.2549
 5237TIP3   OH237269   1.363   1.569   0.720  0.9849  0.0013  0.1367
 5237TIP3    H137270   1.408   1.512   0.782  0.3390 -1.6231 -0.8385
 5237TIP3    H237271   1.416   1.564   0.640  2.6402  3.2092  0.8356
 5238TIP3   OH237272   3.571   5.876   0.851 -0.3170  0.1574  0.1021
 5238TIP3    H137273   3.588   5.971   0.849  1.1358 -0.0669 -2.0938
 5238TIP3    H237274   3.478   5.869   0.828  0.1459  1.0623 -2.4793
 5239TIP3   OH237275   4.874   5.367   1.279  0.3386  0.5387  0.7233
 5239TIP3    H137276   4.808   5.433   1.298 -0.9404 -0.3694 -0.3870
 5239TIP3    H237277   4.918   5.399   1.200 -1.3640 -0.6348 -0.7736
 5240TIP3   OH237278   1.792   3.069   0.554 -0.6633 -0.3739  0.5858
 5240TIP3    H137279   1.722   3.089   0.617  1.9172  1.8963  3.0054
 5240TIP3    H237280   1.829   3.154   0.530 -0.8043 -1.2238 -3.3641
 5241TIP3   OH237281   1.843   1.274   8.447  0.3617  1.2908  0.9042
 5241TIP3    H137282   1.812   1.308   8.531  2.6439 -2.1331  3.4321
 5241TIP3    H237283   1.929   1.314   8.435  0.5041  0.9512  0.7903
 5242TIP3   OH237284   6.793   4.304   6.518 -0.1605  0.0302  0.2280
 5242TIP3    H137285   6.842   4.224   6.537 -0.2782 -0.0700  0.1160
 5242TIP3    H237286   6.847   4.351   6.455  0.3763  0.5091  1.0322
 5243TIP3   OH237287   6.515   4.407   0.745 -0.9735 -0.2318 -0.1221
 5243TIP3    H137288   6.595   4.393   0.796 -1.4617 -1.7173  0.2951
 5243TIP3    H237289   6.514   4.336   0.682 -0.5261  1.4201 -2.1053
 5244TIP3   OH237290   1.739   5.812   1.508 -0.8407  0.0176  0.4331
 5244TIP3    H137291   1.691   5.781   1.585 -0.5854 -0.9897  0.2076
 5244TIP3    H237292   1.764   5.902   1.529 -1.1131 -0.1181  1.3647
 5245TIP3   OH237293   4.160   6.841   2.221  0.5242 -0.1290 -0.1020
 5245TIP3    H137294   4.235   6.824   2.163 -0.5587 -1.2549 -1.2301
 5245TIP3    H237295   4.198   6.886   2.296  2.1473  0.4283 -1.1979
 5246TIP3   OH237296   6.134   5.471   1.624  0.0465 -0.3951  0.4527
 5246TIP3    H137297   6.153   5.390   1.577  0.8224 -0.0164  0.0849
 5246TIP3    H237298   6.168   5.540   1.567 -1.7147  0.2916  0.1797
 5247TIP3   OH237299   2.777   1.344   2.207 -0.4039 -0.2903  0.2180
 5247TIP3    H137300   2.766   1.431   2.169 -0.1365  0.2037  1.2660
 5247TIP3    H237301   2.845   1.303   2.153  0.2308  0.5309  0.3773
 5248TIP3   OH237302   3.837   3.248   2.288 -0.2080 -0.0218 -0.0017
 5248TIP3    H137303   3.824   3.246   2.383  2.0015 -0.6852  0.3469
 5248TIP3    H237304   3.849   3.341   2.268 -0.5345  0.1093  0.3972
 5249TIP3   OH237305   0.059   2.046   0.468  0.5241  0.3860 -0.3778
 5249TIP3    H137306   0.018   1.963   0.443 -0.4450  0.2820  1.4435
 5249TIP3    H237307   0.153   2.028   0.464  0.3643 -0.3041 -1.5582
 5250TIP3   OH237308   0.479   1.693   8.341  0.3530 -0.4761 -0.0365
 5250TIP3    H137309   0.394   1.673   8.302 -0.4635  0.8959  0.9119
 5250TIP3    H237310   0.490   1.626   8.409  1.3532 -2.3074 -1.9054
 5251TIP3   OH237311   3.975   2.320   1.869 -0.2455  0.5918  0.1334
 5251TIP3    H137312   3.930   2.291   1.790  1.4308 -1.2351 -0.2221
 5251TIP3    H237313   3.996   2.239   1.916  2.0811  1.3777  0.5667
 5252TIP3   OH237314   3.611   2.791   8.327 -0.1821 -0.1674 -0.2929
 5252TIP3    H137315   3.521   2.761   8.315 -0.1231 -0.3381 -0.3229
 5252TIP3    H237316   3.611   2.882   8.296 -0.5286  0.0979  0.4806
 5253TIP3   OH237317   4.569   2.645   0.190 -0.5337  0.3534  0.0400
 5253TIP3    H137318   4.618   2.563   0.194 -3.1832 -1.2861  1.8501
 5253TIP3    H237319   4.569   2.668   0.097  1.6939 -0.6982 -0.2983
 5254TIP3   OH237320   3.783   5.635   7.154  0.2735 -0.3258  0.9970
 5254TIP3    H137321   3.689   5.655   7.162  0.3613 -0.1324  1.6053
 5254TIP3    H237322   3.796   5.559   7.211  0.2702 -1.0765  0.0104
 5255TIP3   OH237323   6.118   3.330   1.848 -0.0552 -0.2408  0.0991
 5255TIP3    H137324   6.183   3.261   1.863  0.3516 -0.5306 -2.5582
 5255TIP3    H237325   6.170   3.408   1.830 -0.5120  0.2736  0.9370
 5256TIP3   OH237326   4.614   4.347   0.300 -0.3845  0.0519 -0.2800
 5256TIP3    H137327   4.567   4.314   0.223 -1.1080  0.6521 -0.1022
 5256TIP3    H237328   4.688   4.396   0.263 -0.8979  0.5920 -0.6051
 5257TIP3   OH237329   3.210   1.963   1.578 -0.0697  0.0641  0.6107
 5257TIP3    H137330   3.292   1.944   1.624  0.5659  0.6900 -0.2250
 5257TIP3    H237331   3.163   1.879   1.576  2.1965 -1.3219 -2.1102
 5258TIP3   OH237332   2.841   3.359   2.253  0.1926 -0.2535 -0.0327
 5258TIP3    H137333   2.861   3.310   2.173 -0.0627 -0.1851 -0.1409
 5258TIP3    H237334   2.899   3.321   2.319  0.9632  0.2194 -0.4244
 5259TIP3   OH237335   3.497   3.780   1.121 -0.1417  1.0968  0.0053
 5259TIP3    H137336   3.486   3.772   1.026  1.3165  1.9498 -0.2649
 5259TIP3    H237337   3.473   3.871   1.140  0.5730  1.2316  0.2821
 5260TIP3   OH237338   6.540   2.129   1.220 -0.0218 -0.3244  0.6077
 5260TIP3    H137339   6.569   2.047   1.179 -0.4252 -0.3665  0.3947
 5260TIP3    H237340   6.466   2.102   1.275  0.5551 -0.2753  1.4063
 5261TIP3   OH237341   0.870   4.113   2.033 -0.5900 -0.0433 -0.1075
 5261TIP3    H137342   0.956   4.129   2.072 -0.5358 -0.6641  0.0356
 5261TIP3    H237343   0.882   4.131   1.940  0.5167 -3.0133 -0.6457
 5262TIP3   OH237344   4.155   1.261   7.842 -0.0950 -0.1838  0.4159
 5262TIP3    H137345   4.066   1.273   7.877 -0.9855 -1.1042 -1.3703
 5262TIP3    H237346   4.143   1.263   7.747  2.0450  1.1233  0.1125
 5263TIP3   OH237347   3.134   1.363   1.693  0.2032  0.1062 -0.5276
 5263TIP3    H137348   3.067   1.322   1.639  1.8459 -0.2868 -2.3624
 5263TIP3    H237349   3.177   1.426   1.635  1.9736 -0.2631  0.3117
 5264TIP3   OH237350   6.867   1.790   0.440 -0.6948 -0.0296 -0.2088
 5264TIP3    H137351   6.817   1.761   0.364 -1.2881 -0.9201  0.4966
 5264TIP3    H237352   6.949   1.741   0.434 -0.5081  0.3151 -0.5593
 5265TIP3   OH237353   5.136   2.437   8.369 -0.0798 -0.4575 -0.6158
 5265TIP3    H137354   5.113   2.390   8.449  2.0976  0.0893  0.4094
 5265TIP3    H237355   5.180   2.516   8.400  2.3590 -1.0353 -2.3295
 5266TIP3   OH237356   0.402   6.337   0.104 -0.4812 -0.4796 -0.0207
 5266TIP3    H137357   0.411   6.263   0.043  0.8881  0.3662 -0.9233
 5266TIP3    H237358   0.485   6.385   0.095 -1.0504  0.7719  1.0670
 5267TIP3   OH237359   5.353   4.617   1.870  0.5411 -0.0515  0.9183
 5267TIP3    H137360   5.271   4.646   1.829  1.5426  0.6087 -0.6898
 5267TIP3    H237361   5.413   4.602   1.797  1.6114 -1.3851  2.0131
 5268TIP3   OH237362   6.881   3.603   2.381  0.0113 -0.1806  0.5605
 5268TIP3    H137363   6.862   3.683   2.331  1.0941 -0.1843  0.1221
 5268TIP3    H237364   6.868   3.628   2.472 -0.5800  0.2217  0.3761
 5269TIP3   OH237365   4.531   5.850   6.127  0.3499  0.2147  0.1971
 5269TIP3    H137366   4.616   5.845   6.083  0.4571  1.5444  0.2076
 5269TIP3    H237367   4.543   5.915   6.196 -1.2176  2.0758 -1.1550
 5270TIP3   OH237368   6.350   5.194   0.064  0.8913  0.6355  0.6072
 5270TIP3    H137369   6.258   5.211   0.043  1.1411  1.6685  0.2821
 5270TIP3    H237370   6.371   5.114   0.016  0.0593  0.1531  1.0123
 5271TIP3   OH237371   5.125   4.403   7.153  0.0197  0.3712  0.1126
 5271TIP3    H137372   5.128   4.465   7.081  2.5490  1.4620  1.0409
 5271TIP3    H237373   5.209   4.357   7.148 -0.0988 -0.0957  1.8747
 5272TIP3   OH237374   3.287   4.752   8.091 -0.2379  0.4106  0.4060
 5272TIP3    H137375   3.289   4.792   8.004 -2.3094  1.2286  0.6700
 5272TIP3    H237376   3.214   4.690   8.087  0.1744 -0.1447  1.3273
 5273TIP3   OH237377   1.866   2.431   0.525  0.0166  0.3373 -0.4660
 5273TIP3    H137378   1.923   2.447   0.450  0.6342 -1.3410 -0.3988
 5273TIP3    H237379   1.866   2.336   0.535 -1.4591  0.4133  0.5888
 5274TIP3   OH237380   2.170   2.628   6.538  0.0617  0.0102  0.3264
 5274TIP3    H137381   2.262   2.634   6.561  0.5773 -0.7528 -1.3575
 5274TIP3    H237382   2.169   2.583   6.454 -1.9148 -0.7744  0.7068
 5275TIP3   OH237383   4.774   6.867   8.099  0.2985 -0.2637 -0.6790
 5275TIP3    H137384   4.704   6.913   8.051 -0.5283 -2.5996 -1.8394
 5275TIP3    H237385   4.841   6.850   8.033  0.8348 -0.2755 -0.1398
 5276TIP3   OH237386   2.046   6.435   2.067  0.3523 -0.3310  0.0084
 5276TIP3    H137387   1.972   6.494   2.082  0.3280 -0.0855 -1.0148
 5276TIP3    H237388   2.104   6.450   2.142 -0.7849 -0.7923  1.0157
 5277TIP3   OH237389   0.804   6.094   8.293  0.3599 -0.0188 -0.3795
 5277TIP3    H137390   0.729   6.059   8.244 -0.2088 -3.0889  2.3109
 5277TIP3    H237391   0.769   6.171   8.338 -0.4975 -0.1005 -0.8802
 5278TIP3   OH237392   1.454   2.150   0.221 -0.2011 -0.0736 -0.0109
 5278TIP3    H137393   1.537   2.197   0.227 -0.7797  0.9578  0.3054
 5278TIP3    H237394   1.435   2.124   0.311 -1.2914  1.6937  0.3330
 5279TIP3   OH237395   4.354   1.631   2.669 -0.0485  0.2634  0.2805
 5279TIP3    H137396   4.375   1.720   2.643  0.5044  0.6876  2.0303
 5279TIP3    H237397   4.373   1.628   2.763 -0.3094 -1.6213  0.3194
 5280TIP3   OH237398   6.868   5.989   6.626 -0.1186 -0.1245 -0.2523
 5280TIP3    H137399   6.942   5.975   6.685  0.6349 -0.8852 -1.3457
 5280TIP3    H237400   6.882   6.077   6.591 -1.3884  0.9542  1.7928
 5281TIP3   OH237401   2.274   4.470   7.584 -0.2096  0.3626 -0.5035
 5281TIP3    H137402   2.187   4.506   7.597  0.2473  1.6504 -0.8547
 5281TIP3    H237403   2.311   4.521   7.512  0.9080  0.0019 -0.2116
 5282TIP3   OH237404   3.166   3.328   3.036  0.2140 -0.4472 -0.3316
 5282TIP3    H137405   3.179   3.410   2.987  0.8199  0.4923  1.3003
 5282TIP3    H237406   3.092   3.285   2.993  0.3403  0.6139 -1.6712
 5283TIP3   OH237407   2.233   3.621   7.909 -0.1633 -0.0317 -0.8060
 5283TIP3    H137408   2.264   3.687   7.847 -0.2746  1.7766  0.9757
 5283TIP3    H237409   2.299   3.552   7.906  2.4167  2.2015  0.5041
 5284TIP3   OH237410   2.820   3.581   7.843 -0.0837 -0.2505 -0.1879
 5284TIP3    H137411   2.819   3.529   7.762 -1.0883  1.0538 -1.0517
 5284TIP3    H237412   2.876   3.531   7.903 -1.3605 -2.5534 -0.8014
 5285TIP3   OH237413   0.834   6.758   7.211 -0.5968  0.1195 -0.2286
 5285TIP3    H137414   0.745   6.728   7.231 -0.8714  0.1890 -1.2797
 5285TIP3    H237415   0.823   6.812   7.133  0.2035  1.1632  0.3607
 5286TIP3   OH237416   2.252   5.423   7.790  0.3791 -0.4994  0.2922
 5286TIP3    H137417   2.240   5.385   7.703 -1.0979  1.6034 -0.5279
 5286TIP3    H237418   2.163   5.445   7.818  1.0273  1.0460  1.2544
 5287TIP3   OH237419   0.869   0.111   7.926 -0.0045 -0.1458  0.3935
 5287TIP3    H137420   0.891   0.145   7.840 -0.2751  0.5008  0.5720
 5287TIP3    H237421   0.873   0.188   7.984  1.1413 -0.7404  1.1401
 5288TIP3   OH237422   6.720   5.495   7.555 -0.1177 -0.2984  0.2770
 5288TIP3    H137423   6.750   5.443   7.480 -1.5361 -0.2993 -0.3259
 5288TIP3    H237424   6.801   5.530   7.594  0.6676 -0.5748 -1.0417
 5289TIP3   OH237425   2.618   1.042   0.307 -0.1439 -0.3770 -0.2038
 5289TIP3    H137426   2.684   0.973   0.310  1.1565  0.6747 -2.4119
 5289TIP3    H237427   2.654   1.112   0.362  0.8404  0.3475 -1.7085
 5290TIP3   OH237428   5.079   5.259   7.556 -0.0512 -0.3605 -0.0052
 5290TIP3    H137429   5.078   5.354   7.570 -1.5292 -0.3870  0.1968
 5290TIP3    H237430   5.122   5.223   7.634  1.0778  0.1534 -0.3593
 5291TIP3   OH237431   1.288   5.677   1.419 -0.1726  1.0335 -0.4153
 5291TIP3    H137432   1.382   5.696   1.417 -0.0994  0.9522  1.0712
 5291TIP3    H237433   1.246   5.760   1.394  0.2712  1.0923 -0.9997
 5292TIP3   OH237434   2.329   0.363   1.326  0.1546 -0.4120 -0.0700
 5292TIP3    H137435   2.366   0.321   1.404  2.0096  0.3014 -0.5098
 5292TIP3    H237436   2.260   0.303   1.297 -1.1915 -0.2775  2.5774
 5293TIP3   OH237437   0.664   0.785   7.728 -0.2368 -1.0088 -0.2121
 5293TIP3    H137438   0.642   0.773   7.820  0.2993  0.7181  0.1849
 5293TIP3    H237439   0.633   0.705   7.685 -0.4253 -1.8785  1.4626
 5294TIP3   OH237440   4.426   2.692   7.756  0.1384 -0.0057  0.1348
 5294TIP3    H137441   4.331   2.684   7.762 -0.1713  1.0261 -2.2060
 5294TIP3    H237442   4.452   2.733   7.839 -1.7834  1.7913 -0.0670
 5295TIP3   OH237443   6.890   1.218   6.181  0.4154 -0.1150 -0.2774
 5295TIP3    H137444   6.822   1.196   6.244  1.1147 -0.2724  0.4384
 5295TIP3    H237445   6.842   1.242   6.102 -0.4781  0.1810  0.3370
 5296TIP3   OH237446   6.651   4.085   2.248  0.0722  0.1186  0.4072
 5296TIP3    H137447   6.681   4.157   2.303 -1.1528  0.6347  0.4254
 5296TIP3    H237448   6.580   4.044   2.298  0.4109 -0.7985  0.1715
 5297TIP3   OH237449   3.302   4.676   0.257  0.6477  0.2185 -0.2377
 5297TIP3    H137450   3.356   4.605   0.291  0.5027 -1.0068 -2.3627
 5297TIP3    H237451   3.215   4.638   0.245  0.0581  1.3179  0.3751
 5298TIP3   OH237452   1.822   5.569   7.288 -0.2505 -0.1955 -0.6727
 5298TIP3    H137453   1.759   5.506   7.322 -0.1392  0.0108 -0.0794
 5298TIP3    H237454   1.814   5.562   7.193 -0.3723 -0.9673 -0.6075
 5299TIP3   OH237455   3.864   1.872   7.951 -0.9811 -0.0779 -0.3724
 5299TIP3    H137456   3.777   1.902   7.925 -1.2268 -1.5829 -1.3545
 5299TIP3    H237457   3.848   1.789   7.997  0.0039 -0.9544 -1.5638
 5300TIP3   OH237458   0.037   1.805   7.381 -0.2530 -0.1448 -0.1019
 5300TIP3    H137459   0.041   1.899   7.369 -0.7758 -0.2105 -0.8731
 5300TIP3    H237460   0.121   1.781   7.420  0.7675  0.3551 -1.9034
 5301TIP3   OH237461   2.046   1.313   8.183 -0.1111 -0.0997 -0.2341
 5301TIP3    H137462   1.966   1.366   8.181 -0.6366 -0.6787  2.0255
 5301TIP3    H237463   2.112   1.367   8.141 -1.3675  0.9907 -0.8714
 5302TIP3   OH237464   1.898   5.548   1.682  0.4965  0.1066 -0.0980
 5302TIP3    H137465   1.936   5.590   1.605  1.0232 -0.5437 -0.2057
 5302TIP3    H237466   1.971   5.540   1.744  0.6277 -1.4034 -0.4116
 5303TIP3   OH237467   5.190   0.473   8.398 -0.2321  0.2181  0.6375
 5303TIP3    H137468   5.111   0.454   8.346  0.6431 -0.0800 -0.6321
 5303TIP3    H237469   5.198   0.569   8.393  1.2943  0.0405 -2.0933
 5304TIP3   OH237470   5.337   0.665   1.708 -0.0704 -0.6316 -0.2124
 5304TIP3    H137471   5.266   0.623   1.659  0.0099 -2.0991  0.8632
 5304TIP3    H237472   5.417   0.629   1.669  0.3024  2.7340 -2.9859
 5305TIP3   OH237473   0.272   2.806   7.491  0.3201 -0.0025  0.5163
 5305TIP3    H137474   0.202   2.764   7.540  1.1786 -0.9045  1.0081
 5305TIP3    H237475   0.350   2.754   7.511  1.0642  0.7639 -0.2922
 5306TIP3   OH237476   3.586   4.477   0.766  0.4378 -0.1052  0.2216
 5306TIP3    H137477   3.636   4.401   0.736 -0.0995 -0.1130 -0.7074
 5306TIP3    H237478   3.602   4.544   0.700  1.0340  0.6582  1.1157
 5307TIP3   OH237479   0.058   4.491   1.419  0.7170  0.5759 -0.0311
 5307TIP3    H137480   0.038   4.585   1.419  0.4526  0.5292  1.1522
 5307TIP3    H237481   0.021   4.459   1.501  1.8863 -0.3340  0.1587
 5308TIP3   OH237482   3.411   6.431   7.734 -0.3940 -0.5011 -0.3479
 5308TIP3    H137483   3.324   6.470   7.740 -0.1443  0.4867 -2.4110
 5308TIP3    H237484   3.467   6.491   7.783 -0.5859 -0.2186 -0.4731
 5309TIP3   OH237485   1.248   1.117   0.897  0.3511  0.6145 -0.1189
 5309TIP3    H137486   1.184   1.060   0.938  1.0026 -0.2760 -0.2968
 5309TIP3    H237487   1.199   1.166   0.831 -0.0510 -0.3899 -0.5690
 5310TIP3   OH237488   0.453   3.426   7.020  0.4190  0.1626  0.2889
 5310TIP3    H137489   0.461   3.510   7.063  3.9467 -0.0929  0.3896
 5310TIP3    H237490   0.438   3.447   6.928 -2.5052  0.7392  0.7937
 5311TIP3   OH237491   6.464   6.373   7.396 -0.5966  0.3643  0.6828
 5311TIP3    H137492   6.540   6.362   7.339  0.4889  0.5609  2.0297
 5311TIP3    H237493   6.476   6.306   7.464 -1.2361  0.8747  1.3084
 5312TIP3   OH237494   5.841   3.576   6.332  0.0386  0.3053  0.0750
 5312TIP3    H137495   5.751   3.560   6.306 -0.2359 -0.2281  1.2874
 5312TIP3    H237496   5.885   3.602   6.251 -0.9492 -0.4842 -0.7435
 5313TIP3   OH237497   5.845   5.433   7.263 -0.2082 -0.3312  0.2244
 5313TIP3    H137498   5.927   5.396   7.294  0.0467  0.5869  0.6524
 5313TIP3    H237499   5.868   5.483   7.184 -0.3387  0.0093  0.4006
 5314TIP3   OH237500   0.857   1.783   1.730 -0.2794 -0.9257  0.3739
 5314TIP3    H137501   0.801   1.841   1.678  1.8103  0.3216 -0.6246
 5314TIP3    H237502   0.857   1.822   1.817 -0.6830 -0.7478  0.2983
 5315TIP3   OH237503   2.608   4.417   2.215  0.0609  0.6877  0.5467
 5315TIP3    H137504   2.611   4.322   2.226 -0.5262  0.7007  0.9001
 5315TIP3    H237505   2.688   4.449   2.257  1.1604  0.2370 -1.1042
 5316TIP3   OH237506   6.668   6.274   8.249 -0.2597  0.5101 -0.0843
 5316TIP3    H137507   6.683   6.272   8.344 -1.3581  1.8977  0.1514
 5316TIP3    H237508   6.590   6.220   8.237  1.6214 -2.3305 -0.6612
 5317TIP3   OH237509   2.848   1.429   7.042 -0.0025 -0.1076 -0.1572
 5317TIP3    H137510   2.783   1.455   6.976 -1.0764 -2.2201  0.0046
 5317TIP3    H237511   2.804   1.363   7.094  1.4368  0.2858  1.6390
 5318TIP3   OH237512   4.049   0.666   2.167 -0.0306  0.0014 -0.5302
 5318TIP3    H137513   3.977   0.603   2.170  0.3659 -0.4501 -0.3514
 5318TIP3    H237514   4.127   0.613   2.181  0.2863  0.5734 -0.1240
 5319TIP3   OH237515   4.718   5.792   8.516 -0.1941  0.2691 -0.1790
 5319TIP3    H137516   4.677   5.727   8.458 -0.5221 -0.0586  0.4146
 5319TIP3    H237517   4.692   5.877   8.478  2.9052  0.2117 -2.9276
 5320TIP3   OH237518   6.553   1.675   7.911  0.7527  0.1984  0.7247
 5320TIP3    H137519   6.489   1.643   7.847  0.4128  2.1313  0.0517
 5320TIP3    H237520   6.503   1.728   7.972  1.3615 -0.2192  1.6208
 5321TIP3   OH237521   6.418   2.762   2.200  0.0959 -0.1157 -0.2214
 5321TIP3    H137522   6.507   2.773   2.233  0.7589  1.7235 -2.3734
 5321TIP3    H237523   6.428   2.753   2.105 -2.0654  2.0891 -0.7687
 5322TIP3   OH237524   6.610   1.078   1.363 -0.1205 -0.1725 -0.4457
 5322TIP3    H137525   6.661   1.154   1.390 -0.7669  0.9592 -2.1759
 5322TIP3    H237526   6.545   1.067   1.432  0.4972  0.3183  0.2335
 5323TIP3   OH237527   4.669   5.205   1.339 -0.6786 -0.0515 -0.1600
 5323TIP3    H137528   4.623   5.184   1.257 -0.3417 -1.6946  0.0426
 5323TIP3    H237529   4.758   5.225   1.312 -0.4952 -0.8679 -0.1936
 5324TIP3   OH237530   2.430   0.422   6.960  0.5297 -0.3074  0.3379
 5324TIP3    H137531   2.340   0.400   6.938 -0.3674  0.6193  2.7200
 5324TIP3    H237532   2.452   0.496   6.903 -0.6345  0.2001  0.5260
 5325TIP3   OH237533   5.579   3.769   0.681 -0.1605  0.6052  0.7497
 5325TIP3    H137534   5.542   3.723   0.606 -0.7751  0.2230  1.2687
 5325TIP3    H237535   5.530   3.851   0.686  1.7787  1.9648 -0.9292
 5326TIP3   OH237536   4.118   2.665   1.649 -0.7007  0.1291 -0.5292
 5326TIP3    H137537   4.061   2.627   1.715  0.2871 -1.5384 -0.5919
 5326TIP3    H237538   4.206   2.638   1.674 -0.1370  0.8542 -1.6172
 5327TIP3   OH237539   6.794   2.796   0.161  0.1798 -0.4801  0.8246
 5327TIP3    H137540   6.723   2.782   0.224  0.8614 -1.0320  1.4940
 5327TIP3    H237541   6.818   2.888   0.173 -0.4262 -0.2886  0.5861
 5328TIP3   OH237542   0.542   0.758   8.244 -0.4527 -0.1176 -0.1580
 5328TIP3    H137543   0.612   0.767   8.309 -0.1975 -0.7496 -0.3399
 5328TIP3    H237544   0.495   0.841   8.249 -0.3413 -0.0894  0.7261
 5329TIP3   OH237545   0.373   0.959   8.131  0.2097 -0.7333 -0.1493
 5329TIP3    H137546   0.378   0.963   8.035  0.9393 -0.4344 -0.1091
 5329TIP3    H237547   0.397   1.048   8.159  0.0928 -0.8484  0.3130
 5330TIP3   OH237548   2.728   6.489   1.441 -0.8676  0.8156 -0.1212
 5330TIP3    H137549   2.757   6.564   1.493 -1.3215  1.1126 -0.2897
 5330TIP3    H237550   2.640   6.469   1.474 -0.8421  0.5038 -0.2360
 5331TIP3   OH237551   0.327   6.119   7.923 -0.3825 -0.1229  0.4713
 5331TIP3    H137552   0.234   6.142   7.927 -0.4134  0.2172 -1.3234
 5331TIP3    H237553   0.373   6.201   7.945 -0.4767 -0.3538  1.6073
 5332TIP3   OH237554   3.624   6.083   7.701  0.2280  0.4239 -0.5118
 5332TIP3    H137555   3.712   6.076   7.738  0.3428 -0.4527 -0.9137
 5332TIP3    H237556   3.590   5.993   7.703 -0.6184  0.7298 -0.4714
 5333TIP3   OH237557   3.148   2.351   0.453 -0.3499  0.0377 -0.5180
 5333TIP3    H137558   3.213   2.318   0.514 -1.6916  0.1538  1.0398
 5333TIP3    H237559   3.064   2.331   0.494 -1.3565 -0.6591 -2.7280
 5334TIP3   OH237560   5.675   6.124   7.226 -0.2792 -0.2282  0.6947
 5334TIP3    H137561   5.730   6.122   7.148 -0.0012  0.8268  0.8478
 5334TIP3    H237562   5.586   6.113   7.194 -0.1208 -0.3219  0.2844
 5335TIP3   OH237563   5.654   2.959   1.580 -0.1366  0.4331 -0.0349
 5335TIP3    H137564   5.720   3.010   1.532 -1.9570  2.0909 -0.8955
 5335TIP3    H237565   5.599   2.921   1.512 -0.4454 -0.4528  0.6907
 5336TIP3   OH237566   0.102   0.224   0.107 -0.0076 -0.0804  0.5050
 5336TIP3    H137567   0.019   0.270   0.122  0.8562  1.5561  0.5414
 5336TIP3    H237568   0.145   0.275   0.038  1.2226 -0.5662  0.8943
 5337TIP3   OH237569   3.226   5.142   0.058 -0.4413  0.6174  0.5861
 5337TIP3    H137570   3.141   5.111   0.088 -1.6986  0.6861 -2.4846
 5337TIP3    H237571   3.285   5.067   0.069 -0.9195  0.4959  2.5213
 5338TIP3   OH237572   4.705   4.805   6.842 -0.3818  0.9897  0.3583
 5338TIP3    H137573   4.733   4.714   6.834 -2.1843  0.5244 -1.7555
 5338TIP3    H237574   4.781   4.851   6.876  1.1088 -1.0430 -0.0676
 5339TIP3   OH237575   0.400   6.540   1.665  0.9256  0.1796  0.4286
 5339TIP3    H137576   0.307   6.558   1.669  0.9780  0.4273  0.5291
 5339TIP3    H237577   0.442   6.617   1.703  1.2121  0.4911 -0.4853
 5340TIP3   OH237578   6.517   1.465   0.936  0.0748 -0.3899 -0.0854
 5340TIP3    H137579   6.461   1.508   1.002 -1.0138 -0.3851 -0.9825
 5340TIP3    H237580   6.597   1.517   0.935 -0.0709 -0.1249  0.9129
 5341TIP3   OH237581   3.678   6.777   6.718 -0.0573  0.3294 -0.0600
 5341TIP3    H137582   3.600   6.777   6.663 -0.1920 -1.7308  0.0651
 5341TIP3    H237583   3.740   6.833   6.672 -1.0410  0.6938 -0.9798
 5342TIP3   OH237584   6.350   4.410   6.831 -0.0718  0.0380 -0.2197
 5342TIP3    H137585   6.397   4.434   6.752 -0.6125  0.1737 -0.5024
 5342TIP3    H237586   6.264   4.381   6.800 -0.5430  0.7789  0.3743
 5343TIP3   OH237587   6.369   4.528   6.552 -0.2419  0.3509  0.2382
 5343TIP3    H137588   6.287   4.495   6.517 -0.4394  0.5067  0.5448
 5343TIP3    H237589   6.424   4.451   6.564 -0.1638  0.2970 -0.4182
 5344TIP3   OH237590   6.560   3.309   6.595 -0.3498 -0.3732  0.2648
 5344TIP3    H137591   6.483   3.270   6.553 -1.1105  1.9219 -0.5777
 5344TIP3    H237592   6.527   3.342   6.679  0.0977 -0.7966  0.6103
 5345TIP3   OH237593   1.588   6.395   7.586  0.7156 -0.5955  0.5945
 5345TIP3    H137594   1.644   6.389   7.509  0.3574  1.4317  0.1173
 5345TIP3    H237595   1.544   6.310   7.590  1.2129 -0.9731 -1.0659
 5346TIP3   OH237596   0.552   3.020   0.691  0.2322 -0.2805 -0.7029
 5346TIP3    H137597   0.550   2.970   0.773 -0.1250  1.1682  0.1992
 5346TIP3    H237598   0.635   3.066   0.692 -0.0929  0.3213 -0.7943
 5347TIP3   OH237599   6.061   1.769   2.276 -0.1832  0.2725 -0.4143
 5347TIP3    H137600   6.153   1.746   2.267 -1.1061 -3.5739 -1.9243
 5347TIP3    H237601   6.031   1.722   2.354 -1.4240 -1.0701 -1.6295
 5348TIP3   OH237602   6.362   3.276   2.579 -0.0802 -0.3686  0.1036
 5348TIP3    H137603   6.342   3.183   2.590 -1.9396 -0.2491 -1.7379
 5348TIP3    H237604   6.347   3.315   2.665  1.0771 -1.7852  0.9966
 5349TIP3   OH237605   2.400   3.579   7.079 -0.7057  0.0888  0.1669
 5349TIP3    H137606   2.322   3.536   7.043 -0.2390  1.0205 -2.1486
 5349TIP3    H237607   2.370   3.666   7.104 -0.3822  0.5986 -1.1189
 5350TIP3   OH237608   4.993   4.314   1.549 -0.2980 -0.3648 -0.3769
 5350TIP3    H137609   4.991   4.356   1.635 -2.8246  0.7881 -0.9121
 5350TIP3    H237610   5.066   4.355   1.504  0.2202 -0.0098  0.7349
 5351TIP3   OH237611   3.294   4.415   7.258 -0.2581 -0.0103 -0.1339
 5351TIP3    H137612   3.214   4.435   7.209 -0.4663 -0.7539 -0.1134
 5351TIP3    H237613   3.273   4.440   7.348 -0.6550 -0.6606 -0.0354
 5352TIP3   OH237614   4.615   2.173   1.266  0.2175  0.4725  0.2065
 5352TIP3    H137615   4.639   2.090   1.307  1.5538  0.7550  0.0503
 5352TIP3    H237616   4.693   2.199   1.218 -0.9417  0.7072 -1.6305
 5353TIP3   OH237617   4.257   5.648   7.669 -0.5354 -0.5920  0.3391
 5353TIP3    H137618   4.193   5.656   7.598  1.2669 -3.4012 -1.8001
 5353TIP3    H237619   4.304   5.732   7.668  0.2987 -0.9531 -2.8138
 5354TIP3   OH237620   3.424   2.095   6.863  0.3675 -0.3774  0.0354
 5354TIP3    H137621   3.364   2.106   6.790  1.7623 -0.0803 -1.1103
 5354TIP3    H237622   3.509   2.122   6.828  0.9867  0.2620  1.9146
 5355TIP3   OH237623   1.195   6.748   6.758 -0.4084 -0.3706 -0.1705
 5355TIP3    H137624   1.191   6.658   6.792 -1.5474 -0.5445 -0.6984
 5355TIP3    H237625   1.283   6.778   6.780 -1.5719  0.3151  4.8411
 5356TIP3   OH237626   5.272   6.544   0.603  0.2480 -0.0336 -0.4537
 5356TIP3    H137627   5.195   6.515   0.555 -0.0078  0.8810 -0.6084
 5356TIP3    H237628   5.338   6.476   0.587 -0.5849 -0.9268 -0.1417
 5357TIP3   OH237629   5.483   0.278   0.846  0.7129 -0.1194  0.0215
 5357TIP3    H137630   5.502   0.314   0.760  1.3348 -0.5901 -0.0429
 5357TIP3    H237631   5.560   0.299   0.899  0.4181 -0.0005  0.4044
 5358TIP3   OH237632   4.250   0.135   2.406 -0.2741 -0.0050  0.2614
 5358TIP3    H137633   4.157   0.150   2.423 -0.2669 -1.0673  1.3752
 5358TIP3    H237634   4.293   0.215   2.437 -0.8334  0.6140 -0.5327
 5359TIP3   OH237635   2.742   5.476   1.105  0.6327 -0.1614 -0.2246
 5359TIP3    H137636   2.732   5.462   1.199 -0.4356  1.7789 -0.0055
 5359TIP3    H237637   2.776   5.393   1.072  2.5164 -0.4050  2.0742
 5360TIP3   OH237638   3.843   0.126   2.112  0.0653  0.3870 -0.3198
 5360TIP3    H137639   3.867   0.200   2.056 -0.8455  1.5949  0.7888
 5360TIP3    H237640   3.903   0.133   2.187  0.5595 -0.5574 -0.6123
 5361TIP3   OH237641   3.614   2.957   0.508 -0.4978 -0.0972 -0.3458
 5361TIP3    H137642   3.531   2.931   0.547 -1.4576  1.0284 -1.5275
 5361TIP3    H237643   3.603   3.050   0.488  0.4827 -0.2539 -1.8286
 5362TIP3   OH237644   1.168   0.722   1.165  0.1676 -0.1932  0.1067
 5362TIP3    H137645   1.140   0.814   1.169  0.3639 -0.1563  0.6564
 5362TIP3    H237646   1.138   0.692   1.079 -2.8718 -0.5754  1.1766
 5363TIP3   OH237647   1.292   0.468   1.983 -0.5058  0.4617 -0.3764
 5363TIP3    H137648   1.270   0.397   1.923  0.3506  0.2497 -0.4560
 5363TIP3    H237649   1.382   0.491   1.961  0.5090 -0.8693  2.0397
 5364TIP3   OH237650   5.270   0.039   7.260 -0.1285 -0.3463 -0.3580
 5364TIP3    H137651   5.270   0.132   7.282  0.1647 -0.3785 -0.2088
 5364TIP3    H237652   5.264   0.036   7.164  0.1916 -0.1655 -0.3847
 5365TIP3   OH237653   5.476   4.391   2.610 -0.0049  0.8057 -0.0842
 5365TIP3    H137654   5.426   4.470   2.632  0.6068  1.0951  0.2881
 5365TIP3    H237655   5.410   4.322   2.602 -0.3606  0.8081  2.0900
 5366TIP3   OH237656   6.889   3.883   8.121  0.3968  0.1175 -0.0803
 5366TIP3    H137657   6.929   3.969   8.136  2.3116 -0.6770 -0.4112
 5366TIP3    H237658   6.936   3.848   8.045 -2.3352 -0.0621 -1.8194
 5367TIP3   OH237659   2.087   2.082   8.318 -0.5815  1.1558 -0.1037
 5367TIP3    H137660   2.161   2.112   8.370 -0.2992  1.9673 -0.9411
 5367TIP3    H237661   2.062   1.999   8.358  1.2740  0.4589 -0.2504
 5368TIP3   OH237662   4.950   3.865   1.286 -0.0212 -0.0389  0.1309
 5368TIP3    H137663   4.969   3.911   1.367 -0.4052  1.0349 -0.3740
 5368TIP3    H237664   4.855   3.854   1.285  0.0547 -0.7873  0.2064
 5369TIP3   OH237665   0.516   4.915   2.147 -0.0276  0.0541 -0.5298
 5369TIP3    H137666   0.421   4.925   2.140 -0.0643 -0.1970 -0.3942
 5369TIP3    H237667   0.530   4.821   2.148  0.2411  0.0901 -0.7692
 5370TIP3   OH237668   0.234   3.026   7.698  0.5580  0.6190 -0.0288
 5370TIP3    H137669   0.227   3.062   7.610  1.1501 -1.3009 -0.9020
 5370TIP3    H237670   0.242   2.932   7.686  2.0799  0.4089  2.0075
 5371TIP3   OH237671   2.862   0.301   1.058 -0.0120  0.1779  0.3355
 5371TIP3    H137672   2.873   0.222   1.005  0.0891 -0.2440  0.9796
 5371TIP3    H237673   2.855   0.269   1.148 -2.8161  0.6875  0.3747
 5372TIP3   OH237674   5.077   1.037   8.188  0.0055  0.0071 -0.8450
 5372TIP3    H137675   4.990   1.042   8.148 -0.8430  0.0665  0.9247
 5372TIP3    H237676   5.111   1.127   8.182 -0.8150  0.3968  0.0228
 5373TIP3   OH237677   5.622   2.337   6.883  0.1825  0.3274  0.5208
 5373TIP3    H137678   5.611   2.260   6.937  0.9876  0.8054  1.3978
 5373TIP3    H237679   5.682   2.393   6.932 -0.8923  1.8019  0.2237
 5374TIP3   OH237680   5.124   5.884   1.062 -0.2909  0.0293  0.2532
 5374TIP3    H137681   5.157   5.803   1.101  0.9837  0.9204  1.1050
 5374TIP3    H237682   5.069   5.922   1.131  1.4411  1.2855  1.0167
 5375TIP3   OH237683   0.241   6.452   6.825 -0.5686  0.1729 -0.3083
 5375TIP3    H137684   0.294   6.492   6.757  1.2464 -1.7023 -0.1120
 5375TIP3    H237685   0.206   6.526   6.876  1.1811  1.5013 -0.9581
 5376TIP3   OH237686   0.785   0.595   6.906  0.0688  0.6582  0.2017
 5376TIP3    H137687   0.738   0.597   6.823  1.5702  0.3440 -0.7117
 5376TIP3    H237688   0.847   0.668   6.900 -0.2903  1.0770  1.3677
 5377TIP3   OH237689   2.136   5.160   1.521 -0.0892 -0.0359  0.3363
 5377TIP3    H137690   2.111   5.220   1.451  0.2681 -0.1475  0.1114
 5377TIP3    H237691   2.077   5.182   1.594 -1.6511 -1.0606 -0.5424
 5378TIP3   OH237692   1.827   1.062   6.936  0.4032  0.2080  0.4602
 5378TIP3    H137693   1.794   1.062   6.846 -0.7237 -0.4509  0.8479
 5378TIP3    H237694   1.815   1.152   6.966 -0.1180  0.2072  0.2606
 5379TIP3   OH237695   3.814   6.368   0.161  0.0074  0.0569 -0.4634
 5379TIP3    H137696   3.784   6.415   0.240 -1.2676  0.0626 -0.9248
 5379TIP3    H237697   3.791   6.277   0.178  1.2076 -0.2015 -0.1625
 5380TIP3   OH237698   2.831   4.631   8.410 -0.3206  0.2694  0.2216
 5380TIP3    H137699   2.863   4.629   8.501 -1.6587  0.6755  0.7283
 5380TIP3    H237700   2.894   4.578   8.361  0.8343  0.6505  1.2473
 5381TIP3   OH237701   3.960   2.017   0.791 -0.1671  0.2426  0.1297
 5381TIP3    H137702   3.890   2.010   0.726  1.9775 -0.7838 -2.2980
 5381TIP3    H237703   3.957   2.107   0.821 -1.6646  0.5689 -0.9125
 5382TIP3   OH237704   0.127   5.261   0.174  0.0193 -0.4188 -0.1347
 5382TIP3    H137705   0.036   5.231   0.178  0.4937 -1.9645 -0.2217
 5382TIP3    H237706   0.159   5.228   0.090  0.3376  1.1579 -0.6668
 5383TIP3   OH237707   5.782   6.604   2.574  0.5614 -0.2053 -0.0058
 5383TIP3    H137708   5.820   6.557   2.500 -0.6774 -1.0328 -0.1576
 5383TIP3    H237709   5.707   6.652   2.537  0.1881 -0.2820  0.6219
 5384TIP3   OH237710   3.736   6.564   6.549 -0.1085 -0.2216 -0.2943
 5384TIP3    H137711   3.791   6.618   6.491  0.4289  0.1235  0.5234
 5384TIP3    H237712   3.723   6.617   6.627 -0.6374 -0.7743  0.0058
 5385TIP3   OH237713   3.396   4.474   2.024 -0.8678 -0.4807 -0.2480
 5385TIP3    H137714   3.443   4.556   2.009 -1.3480 -0.1546  0.0144
 5385TIP3    H237715   3.411   4.453   2.116  0.1177 -1.2448 -0.5655
 5386TIP3   OH237716   0.774   5.735   0.314  0.4404  0.5805  0.1600
 5386TIP3    H137717   0.726   5.743   0.232  0.0686  0.5116  0.3658
 5386TIP3    H237718   0.815   5.821   0.327 -0.5485  1.0147  0.5388
 5387TIP3   OH237719   2.334   5.367   6.822  0.4806  0.2185 -0.1090
 5387TIP3    H137720   2.372   5.420   6.751 -0.8477  0.5268 -0.6097
 5387TIP3    H237721   2.241   5.363   6.801  0.1732 -0.2192  1.2973
 5388TIP3   OH237722   6.046   6.478   8.549  0.4373  0.7328 -0.0157
 5388TIP3    H137723   6.103   6.437   8.484  1.1883  1.5285  0.1236
 5388TIP3    H237724   5.981   6.411   8.569  0.1036  0.5013 -1.6778
 5389TIP3   OH237725   0.144   6.426   8.106 -0.4059  0.3615  0.3710
 5389TIP3    H137726   0.159   6.503   8.051 -0.0344  0.0241 -0.0065
 5389TIP3    H237727   0.089   6.369   8.053  0.9610 -0.5123 -0.1714
 5390TIP3   OH237728   0.709   0.291   6.852 -0.6154 -0.0897 -0.2295
 5390TIP3    H137729   0.756   0.256   6.927 -3.5539 -0.8074  1.4168
 5390TIP3    H237730   0.702   0.385   6.869 -1.9117 -0.3612  0.8022
 5391TIP3   OH237731   0.252   1.811   0.418  0.2335  0.1967 -0.0098
 5391TIP3    H137732   0.299   1.743   0.467  0.6136 -0.5694 -1.4043
 5391TIP3    H237733   0.318   1.850   0.361 -0.5684 -0.1608 -1.2153
 5392TIP3   OH237734   2.042   5.997   1.096 -0.5591  0.1198 -0.2908
 5392TIP3    H137735   2.043   6.042   1.012  1.9489  0.8252  0.0264
 5392TIP3    H237736   2.092   6.055   1.155 -2.6861 -0.0886  1.8614
 5393TIP3   OH237737   6.758   2.333   5.966 -0.6093 -0.6587  0.4629
 5393TIP3    H137738   6.759   2.295   6.054 -0.2161 -0.8439  0.3802
 5393TIP3    H237739   6.842   2.307   5.927 -0.6297 -0.2825  0.1588
 5394TIP3   OH237740   5.079   0.653   7.118 -0.3676  0.4984  0.2499
 5394TIP3    H137741   5.137   0.727   7.135 -0.4762  0.7155 -0.3021
 5394TIP3    H237742   5.039   0.633   7.203  0.6688  0.2133  0.6764
 5395TIP3   OH237743   0.040   3.710   1.217  0.0086  0.1648  0.1884
 5395TIP3    H137744  -0.003   3.638   1.263 -1.0995  0.6850 -0.0048
 5395TIP3    H237745  -0.009   3.718   1.135 -1.0289  2.2618  0.9502
 5396TIP3   OH237746   1.307   6.218   1.282  0.2040  0.0650  0.2495
 5396TIP3    H137747   1.381   6.278   1.280 -1.0117  1.5956 -0.9851
 5396TIP3    H237748   1.248   6.249   1.213 -0.3017 -2.8183 -0.7187
 5397TIP3   OH237749   0.928   4.186   8.036 -0.1882  0.2398  0.2583
 5397TIP3    H137750   0.871   4.110   8.048  0.6558 -0.5462 -0.5411
 5397TIP3    H237751   1.008   4.163   8.082  0.1111  0.6021 -0.0776
 5398TIP3   OH237752   4.821   2.173   2.888 -0.1637  0.7818  0.9308
 5398TIP3    H137753   4.892   2.111   2.907 -0.5659 -0.0494 -0.1532
 5398TIP3    H237754   4.861   2.259   2.902  1.5240  0.3994 -0.9139
 5399TIP3   OH237755   4.473   0.972   6.750  0.0860  0.1528  0.0835
 5399TIP3    H137756   4.424   0.934   6.677 -0.3738 -0.3684  0.6446
 5399TIP3    H237757   4.460   1.066   6.742 -0.6200  0.0478 -0.0570
 5400TIP3   OH237758   0.705   0.877   0.663 -0.8733 -0.1011 -0.1816
 5400TIP3    H137759   0.732   0.922   0.743 -0.3420 -0.2473 -0.2768
 5400TIP3    H237760   0.692   0.786   0.689 -0.3363 -0.2238 -0.3407
 5401TIP3   OH237761   4.577   1.378   2.181  0.3590 -0.2004 -0.0839
 5401TIP3    H137762   4.536   1.307   2.230  0.8719  0.0552  0.7240
 5401TIP3    H237763   4.504   1.433   2.153  0.0947 -0.0532  0.8619
 5402TIP3   OH237764   3.511   0.956   0.774  0.0982 -0.0965  0.3792
 5402TIP3    H137765   3.550   1.033   0.815  1.4048 -0.7276  0.3516
 5402TIP3    H237766   3.521   0.886   0.839 -1.0917 -0.2673  0.4170
 5403TIP3   OH237767   2.993   0.313   6.294  0.1473  0.3078  0.1951
 5403TIP3    H137768   3.025   0.327   6.383  1.3169 -0.0279 -0.1478
 5403TIP3    H237769   3.065   0.341   6.238 -1.2495  2.2859 -0.7254
 5404TIP3   OH237770   5.997   5.934   8.159  0.2110  0.1219  0.1803
 5404TIP3    H137771   5.939   6.004   8.128  0.1272  0.7446  1.7023
 5404TIP3    H237772   5.956   5.902   8.239  0.6197 -1.2206 -0.1130
 5405TIP3   OH237773   6.449   0.630   2.334  0.0763  0.2395 -0.5751
 5405TIP3    H137774   6.466   0.724   2.337  0.6153  0.1455 -0.5870
 5405TIP3    H237775   6.365   0.622   2.289 -0.3262  0.7568  0.0643
 5406TIP3   OH237776   4.682   2.027   0.923  0.0147 -0.0461 -0.5282
 5406TIP3    H137777   4.680   2.120   0.944  0.4807  0.0477 -0.9017
 5406TIP3    H237778   4.627   1.986   0.991  1.3211  0.2713  0.7737
 5407TIP3   OH237779   4.703   3.773   1.384  0.8433 -0.0684  0.4971
 5407TIP3    H137780   4.710   3.690   1.336  1.4289  0.0751  0.3294
 5407TIP3    H237781   4.609   3.786   1.394  0.5153  1.1236 -2.7804
 5408TIP3   OH237782   0.557   1.070   0.517 -0.3205 -0.5625 -0.0041
 5408TIP3    H137783   0.509   1.034   0.442 -0.7377 -2.6664  1.1969
 5408TIP3    H237784   0.592   0.994   0.562  2.0131  0.7895  0.6274
 5409TIP3   OH237785   5.103   2.791   7.494 -0.3047  0.1306  0.0251
 5409TIP3    H137786   5.025   2.748   7.530 -1.0253 -0.3076 -1.8967
 5409TIP3    H237787   5.072   2.877   7.466 -0.1796 -0.1252 -0.9451
 5410TIP3   OH237788   5.681   2.466   1.562  0.1096 -0.5596 -0.0710
 5410TIP3    H137789   5.642   2.536   1.615  3.6188 -0.5783  2.9009
 5410TIP3    H237790   5.729   2.513   1.494 -0.1482 -0.2721 -0.0623
 5411TIP3   OH237791   4.097   0.812   7.357  0.3240 -0.1680 -0.2508
 5411TIP3    H137792   4.112   0.723   7.325  1.5884 -0.5888  1.4043
 5411TIP3    H237793   4.182   0.855   7.348  0.1360  0.3658  0.4765
 5412TIP3   OH237794   2.885   3.966   7.416 -0.0238 -0.2931  0.2974
 5412TIP3    H137795   2.850   3.909   7.348 -0.8061  0.1752  0.3036
 5412TIP3    H237796   2.980   3.961   7.404 -0.1598  0.2915 -1.2570
 5413TIP3   OH237797   5.715   3.087   0.865  0.8568  0.2736  0.1989
 5413TIP3    H137798   5.701   3.007   0.917  2.7195  0.0743  0.4474
 5413TIP3    H237799   5.677   3.157   0.918 -0.1394 -0.3319  0.3142
 5414TIP3   OH237800   6.031   3.609   1.598  0.0776 -0.7925 -0.0360
 5414TIP3    H137801   6.061   3.518   1.598  3.0071  0.0625 -0.8480
 5414TIP3    H237802   6.108   3.659   1.623 -1.4321  1.5129  0.2840
 5415TIP3   OH237803   1.744   2.868   0.307 -0.3337  0.2541  0.4099
 5415TIP3    H137804   1.735   2.817   0.388  0.7683 -0.2433  0.2443
 5415TIP3    H237805   1.787   2.949   0.335 -1.4407  0.7991  0.5634
 5416TIP3   OH237806   1.835   6.587   7.135  0.6276  0.1269  0.1936
 5416TIP3    H137807   1.896   6.526   7.094 -0.4787 -1.7711  1.2215
 5416TIP3    H237808   1.755   6.579   7.082  0.7595  1.4428 -0.2338
 5417TIP3   OH237809   2.535   2.083   1.384  0.0600 -0.4024 -0.1488
 5417TIP3    H137810   2.454   2.076   1.434  0.0477 -1.1817 -0.2750
 5417TIP3    H237811   2.568   2.171   1.405 -0.3236 -0.4405  0.6456
 5418TIP3   OH237812   1.605   6.733   0.675  0.9147 -0.0239 -0.4020
 5418TIP3    H137813   1.689   6.763   0.710  0.7537  1.6302 -1.3335
 5418TIP3    H237814   1.620   6.641   0.653  2.1541 -0.0491  0.3908
 5419TIP3   OH237815   3.429   4.689   1.745  0.6087 -0.3492  0.7404
 5419TIP3    H137816   3.480   4.709   1.824  0.0305 -1.2916  1.3765
 5419TIP3    H237817   3.477   4.617   1.704  0.4842 -0.3789  0.6477
 5420TIP3   OH237818   5.732   3.322   6.834  0.3256 -0.1029 -0.1077
 5420TIP3    H137819   5.807   3.298   6.888  0.1566 -0.8102 -0.1782
 5420TIP3    H237820   5.676   3.245   6.834 -0.5352  0.5082  0.1583
 5421TIP3   OH237821   0.060   1.661   6.978  0.2066  0.1461  0.8285
 5421TIP3    H137822  -0.007   1.693   6.917 -1.1024 -0.6027  1.8223
 5421TIP3    H237823   0.139   1.654   6.925 -0.6392  0.4849 -0.5381
 5422TIP3   OH237824   2.223   3.240   8.134 -0.1191  0.0295 -0.3594
 5422TIP3    H137825   2.245   3.272   8.221  0.0271 -1.0172  0.0001
 5422TIP3    H237826   2.200   3.319   8.084 -0.0285  0.6517  0.5676
 5423TIP3   OH237827   5.225   2.927   0.623 -0.0511  0.1988  0.3533
 5423TIP3    H137828   5.210   2.979   0.702  1.0683  0.2615  0.5345
 5423TIP3    H237829   5.143   2.935   0.574  0.2305  2.5226  0.1569
 5424TIP3   OH237830   0.362   6.033   0.889  0.2764 -0.1212 -0.1754
 5424TIP3    H137831   0.340   6.097   0.821 -0.9899 -1.9236 -1.5926
 5424TIP3    H237832   0.392   5.956   0.840  2.1248 -0.5303  1.4676
 5425TIP3   OH237833   0.905   1.815   7.407  0.1607  0.4123  0.2293
 5425TIP3    H137834   0.938   1.747   7.466  1.0931  1.0086  0.4285
 5425TIP3    H237835   0.880   1.768   7.328 -0.2972 -0.2968  0.7856
 5426TIP3   OH237836   0.237   5.277   0.820  0.0723  0.3955 -0.2891
 5426TIP3    H137837   0.205   5.209   0.762  1.5071  0.6053 -1.3764
 5426TIP3    H237838   0.189   5.264   0.902 -1.8860  0.0006 -1.4460
 5427TIP3   OH237839   2.660   4.242   0.344  0.2369  0.2107  0.3812
 5427TIP3    H137840   2.651   4.147   0.337  0.5749  0.0131  2.0974
 5427TIP3    H237841   2.632   4.262   0.433  2.9810  1.3210  1.0947
 5428TIP3   OH237842   0.585   5.282   6.913  0.0378  0.4462 -0.0543
 5428TIP3    H137843   0.622   5.231   6.841  0.0740 -0.0753  0.3248
 5428TIP3    H237844   0.660   5.328   6.951 -0.1441  1.6320 -1.0428
 5429TIP3   OH237845   3.631   1.663   0.046  0.4952 -0.7981  0.0726
 5429TIP3    H137846   3.621   1.595  -0.020  1.6950 -1.4481  0.5289
 5429TIP3    H237847   3.691   1.726   0.006  0.0348 -0.4175 -0.0287
 5430TIP3   OH237848   6.009   3.359   0.355 -0.3159 -0.3518  0.0856
 5430TIP3    H137849   5.981   3.450   0.363  0.5379 -0.2301  3.9649
 5430TIP3    H237850   6.063   3.358   0.276 -2.1704  1.9115 -1.3470
 5431TIP3   OH237851   2.212   1.553   7.179  0.1550 -0.4565  0.9433
 5431TIP3    H137852   2.185   1.644   7.165  1.0268 -0.1742  1.0300
 5431TIP3    H237853   2.214   1.543   7.274 -1.1215 -0.9438  0.9371
 5432TIP3   OH237854   2.111   5.105   7.730  0.3373  0.0430  0.2669
 5432TIP3    H137855   2.128   5.186   7.682  0.2673 -0.7162 -1.0772
 5432TIP3    H237856   2.017   5.106   7.746  0.0204 -0.6376 -1.4059
 5433TIP3   OH237857   4.422   2.983   1.879 -0.6074 -0.5399  0.2381
 5433TIP3    H137858   4.336   3.024   1.867  0.1768  1.0355 -0.4036
 5433TIP3    H237859   4.459   3.028   1.955  0.4201  0.2891 -0.7063
 5434TIP3   OH237860   1.565   2.230   7.470  0.3277  0.5122  0.0817
 5434TIP3    H137861   1.631   2.238   7.539 -0.1595  1.5024  0.4578
 5434TIP3    H237862   1.504   2.301   7.487  0.0365  0.6048 -1.2092
 5435TIP3   OH237863   3.573   5.045   0.400 -0.1958 -0.0683 -0.1643
 5435TIP3    H137864   3.478   5.053   0.401 -0.2203 -0.2803  1.8283
 5435TIP3    H237865   3.594   4.991   0.476  1.5770  0.7376 -0.0288
 5436TIP3   OH237866   2.096   5.219   0.395 -0.1506 -0.0165 -0.4996
 5436TIP3    H137867   2.158   5.210   0.467 -0.7352  1.6257  0.2689
 5436TIP3    H237868   2.130   5.163   0.325  1.6584  0.1277  0.2332
 5437TIP3   OH237869   6.148   1.558   7.328  0.1866 -0.1731 -0.3411
 5437TIP3    H137870   6.153   1.497   7.255 -1.6504 -1.8727  0.8360
 5437TIP3    H237871   6.154   1.503   7.406 -0.1274  1.3072  0.7763
 5438TIP3   OH237872   4.416   6.115   0.118  0.0020 -0.6141  0.6262
 5438TIP3    H137873   4.322   6.128   0.112  0.2973  1.6981 -0.1315
 5438TIP3    H237874   4.453   6.198   0.089  2.2675 -0.7412  2.8526
 5439TIP3   OH237875   1.603   3.565   1.743  0.1246  0.4704  0.1458
 5439TIP3    H137876   1.624   3.517   1.823  0.7238  0.1732 -0.1807
 5439TIP3    H237877   1.687   3.576   1.699 -0.3012 -0.1185 -0.8543
 5440TIP3   OH237878   0.529   1.850   0.049 -0.3764  0.7095 -0.2997
 5440TIP3    H137879   0.591   1.854   0.121 -2.0709 -0.3479  1.3144
 5440TIP3    H237880   0.520   1.757   0.029  0.6577  1.0184 -2.4859
 5441TIP3   OH237881   0.847   4.592   7.673 -0.0491 -0.1409  0.0991
 5441TIP3    H137882   0.767   4.571   7.625 -0.8886 -0.5638  1.6380
 5441TIP3    H237883   0.834   4.554   7.760  1.4823  0.4957  0.6432
 5442TIP3   OH237884   3.607   4.772   6.312  0.4000  0.1160 -0.1452
 5442TIP3    H137885   3.559   4.845   6.351 -1.9529 -2.5041  2.3839
 5442TIP3    H237886   3.684   4.761   6.369 -0.9158 -1.1870  1.5119
 5443TIP3   OH237887   1.750   1.092   0.440  0.2317 -0.3805 -0.7503
 5443TIP3    H137888   1.776   1.087   0.532 -0.0818 -0.6428 -0.6745
 5443TIP3    H237889   1.832   1.108   0.393  0.3352  0.2150 -0.3866
 5444TIP3   OH237890   2.813   6.760   6.813 -0.2559  0.1218  0.2216
 5444TIP3    H137891   2.848   6.822   6.750  0.9451 -2.7409 -2.2009
 5444TIP3    H237892   2.887   6.702   6.833 -1.3387 -0.7094  2.1465
 5445TIP3   OH237893   1.894   2.277   7.024 -0.0749  0.1573  0.1345
 5445TIP3    H137894   1.891   2.231   6.940  1.7154  0.5149 -0.1588
 5445TIP3    H237895   1.814   2.330   7.024  0.0748  0.4524 -1.5436
 5446TIP3   OH237896   0.790   4.291   7.098 -0.0357  0.2011  0.2802
 5446TIP3    H137897   0.755   4.379   7.106 -2.4836 -0.6452 -0.2821
 5446TIP3    H237898   0.713   4.235   7.092  1.4301 -2.0537  1.1940
 5447TIP3   OH237899   4.473   3.342   1.807  0.3150  0.2082 -0.8450
 5447TIP3    H137900   4.480   3.415   1.744  0.7818  0.1924 -0.8155
 5447TIP3    H237901   4.380   3.321   1.809  0.1428  0.9548 -0.6866
 5448TIP3   OH237902   1.869   0.424   0.606 -0.5799 -0.5207  0.2771
 5448TIP3    H137903   1.844   0.516   0.606 -0.2433 -0.4253  0.8433
 5448TIP3    H237904   1.806   0.381   0.664 -0.0840 -0.4621  0.8602
 5449TIP3   OH237905   0.913   0.595   8.117 -0.1259 -0.3254 -0.6100
 5449TIP3    H137906   0.931   0.502   8.100  1.3449  0.0066 -1.0114
 5449TIP3    H237907   0.933   0.606   8.210 -1.2914 -0.6055 -0.3056
 5450TIP3   OH237908   0.752   1.192   7.782 -0.1819 -0.3946 -0.0919
 5450TIP3    H137909   0.722   1.162   7.696 -1.6270  0.6546  0.0162
 5450TIP3    H237910   0.775   1.111   7.828  1.4373 -0.9268 -1.7141
 5451TIP3   OH237911   2.302   0.881   0.421 -0.0644 -0.8957  0.7689
 5451TIP3    H137912   2.303   0.957   0.479 -0.2828  0.8784 -1.4248
 5451TIP3    H237913   2.210   0.853   0.421 -0.3173 -0.1056  0.3333
 5452TIP3   OH237914   4.125   2.086   2.507 -0.1046 -0.3584  0.5114
 5452TIP3    H137915   4.176   2.162   2.534  0.5229 -0.9988  1.1337
 5452TIP3    H237916   4.058   2.077   2.575  0.4579 -0.9731  0.9977
 5453TIP3   OH237917   6.122   0.973   0.249 -0.5163 -0.2438 -0.1189
 5453TIP3    H137918   6.110   0.893   0.198  0.1826 -0.6136  0.2911
 5453TIP3    H237919   6.149   0.943   0.336 -0.0433  0.4437 -0.0201
 5454TIP3   OH237920   0.070   5.442   6.877 -0.1324  0.2869  0.2275
 5454TIP3    H137921   0.114   5.417   6.796 -1.7638  2.0807 -1.3305
 5454TIP3    H237922   0.128   5.506   6.917  0.3513 -0.0773  0.1160
 5455TIP3   OH237923   6.774   4.078   1.493 -0.1675 -0.6651 -0.1711
 5455TIP3    H137924   6.848   4.112   1.544 -0.5554 -0.8313  0.5016
 5455TIP3    H237925   6.699   4.129   1.523 -0.2383 -0.0934 -1.2697
 5456TIP3   OH237926   3.260   6.003   0.509 -0.6883 -0.5122 -0.7998
 5456TIP3    H137927   3.294   6.092   0.513 -0.5613 -0.5876 -0.2172
 5456TIP3    H237928   3.165   6.013   0.513 -0.6439 -0.4551  0.1594
 5457TIP3   OH237929   4.354   2.007   7.922 -0.9466 -0.4756 -0.6412
 5457TIP3    H137930   4.283   1.947   7.902 -1.2249  0.1744 -1.6768
 5457TIP3    H237931   4.433   1.953   7.922 -1.4571 -1.2618  0.8541
 5458TIP3   OH237932   3.566   4.063   0.842  0.2517 -0.4295 -0.1190
 5458TIP3    H137933   3.511   4.075   0.764  1.4347  0.6377 -0.8243
 5458TIP3    H237934   3.504   4.068   0.915 -0.6741  0.1823 -0.9109
 5459TIP3   OH237935   2.851   3.049   2.278  0.3687  0.0920  0.5089
 5459TIP3    H137936   2.839   2.954   2.280  1.3011 -0.1046 -1.1930
 5459TIP3    H237937   2.768   3.083   2.245  0.6788 -0.3222 -0.7528
 5460TIP3   OH237938   5.104   6.833   0.965  0.5372 -0.1720 -0.2834
 5460TIP3    H137939   5.152   6.831   0.881  1.3847 -1.1215  0.1987
 5460TIP3    H237940   5.170   6.858   1.029  0.0655 -0.1924  0.2101
 5461TIP3   OH237941   5.237   5.626   1.880 -0.0709 -0.2472 -0.1537
 5461TIP3    H137942   5.237   5.686   1.955 -1.1171  0.3079 -0.5792
 5461TIP3    H237943   5.150   5.587   1.882  0.0911 -0.6424 -0.7605
 5462TIP3   OH237944   4.649   0.431   0.315  0.1988  0.1192 -0.1302
 5462TIP3    H137945   4.597   0.495   0.363 -1.0624 -1.4382  0.6761
 5462TIP3    H237946   4.723   0.481   0.281 -0.1302  1.7607  1.4267
 5463TIP3   OH237947   4.356   4.497   0.421  0.0748  0.1412 -0.3428
 5463TIP3    H137948   4.431   4.557   0.424  0.4513  0.0249 -3.6291
 5463TIP3    H237949   4.390   4.415   0.459  0.1721  1.2698  2.2512
 5464TIP3   OH237950   2.709   4.867   7.233  0.1058  0.5187 -0.2895
 5464TIP3    H137951   2.755   4.913   7.163  1.0810  0.6159  0.3856
 5464TIP3    H237952   2.702   4.932   7.303 -0.7507  0.3873 -0.2452
 5465TIP3   OH237953   3.361   3.983   8.096 -0.0591 -0.0588  0.7259
 5465TIP3    H137954   3.338   3.935   8.017 -0.0313  1.9850 -0.5765
 5465TIP3    H237955   3.277   4.009   8.133 -0.0346  1.1796 -0.0567
 5466TIP3   OH237956   6.525   2.417   6.241  0.0401  0.4146 -0.3977
 5466TIP3    H137957   6.453   2.364   6.277  0.3689 -0.9155 -1.6087
 5466TIP3    H237958   6.590   2.353   6.213  1.5434  1.5786  0.2879
 5467TIP3   OH237959   5.065   3.110   8.338  0.2834 -0.5559 -0.1944
 5467TIP3    H137960   5.145   3.076   8.298  0.3628 -1.3457  0.6030
 5467TIP3    H237961   5.035   3.178   8.278  1.1495 -0.7605 -0.8773
 5468TIP3   OH237962   0.149   0.329   1.442  0.4734  0.4083 -0.4279
 5468TIP3    H137963   0.110   0.412   1.470  0.8998  0.8889 -1.2430
 5468TIP3    H237964   0.203   0.302   1.516 -0.1961  0.5038  0.1080
 5469TIP3   OH237965   4.589   4.914   8.223 -0.3348  0.6003  0.2143
 5469TIP3    H137966   4.564   5.005   8.241  0.0653  0.6840  0.3588
 5469TIP3    H237967   4.666   4.921   8.167  1.1577  0.4090  2.1211
 5470TIP3   OH237968   5.113   1.625   1.568 -0.6508 -0.0690  0.9166
 5470TIP3    H137969   5.120   1.715   1.538  2.5455 -0.5974 -0.2712
 5470TIP3    H237970   5.066   1.631   1.651  1.8813  3.1030  2.3514
 5471TIP3   OH237971   2.373   5.655   8.366 -0.6562 -0.4597 -0.2200
 5471TIP3    H137972   2.388   5.727   8.304  1.6543 -1.7944 -1.3508
 5471TIP3    H237973   2.278   5.654   8.379 -0.8944  1.8421 -1.3150
 5472TIP3   OH237974   4.031   2.868   8.375  0.7970 -0.0391  0.2107
 5472TIP3    H137975   4.000   2.911   8.455 -1.9201 -0.9844 -0.2230
 5472TIP3    H237976   4.008   2.775   8.387  1.2052 -0.3582 -1.2599
 5473TIP3   OH237977   0.227   2.753   2.159 -0.3006 -0.1859 -0.2726
 5473TIP3    H137978   0.296   2.712   2.211  0.8108 -1.1543 -2.3942
 5473TIP3    H237979   0.158   2.688   2.153 -1.1778  0.5362  1.2833
 5474TIP3   OH237980   4.218   3.039   1.135  0.5429  0.3164 -0.2086
 5474TIP3    H137981   4.249   2.986   1.061  0.9398 -0.9020  0.7923
 5474TIP3    H237982   4.297   3.081   1.169  0.6019 -0.2169  0.3428
 5475TIP3   OH237983   4.298   5.077   1.483 -0.0723  0.3723  0.2186
 5475TIP3    H137984   4.323   5.164   1.452  0.2967  0.7389  1.4523
 5475TIP3    H237985   4.302   5.084   1.579  0.5827 -1.1813  0.3384
 5476TIP3   OH237986   5.290   2.456   1.201  0.0449 -0.2643  0.4992
 5476TIP3    H137987   5.209   2.410   1.223 -0.8111  0.8260 -0.2550
 5476TIP3    H237988   5.320   2.492   1.285  0.0898 -1.1662  0.8861
 5477TIP3   OH237989   2.377   3.961   0.169 -0.4896  0.2152  0.0660
 5477TIP3    H137990   2.412   4.011   0.096 -0.0884  0.1388  0.2014
 5477TIP3    H237991   2.439   3.977   0.241  0.5326 -1.6908 -0.3140
 5478TIP3   OH237992   4.448   5.451   8.162 -0.0853 -0.1455 -0.0448
 5478TIP3    H137993   4.411   5.532   8.126 -0.7312 -0.8192 -0.9495
 5478TIP3    H237994   4.539   5.472   8.179  0.7519 -0.2084 -3.6859
 5479TIP3   OH237995   4.170   0.089   8.455 -0.2402  1.2308 -0.4509
 5479TIP3    H137996   4.260   0.083   8.488 -0.5484  0.3172  0.2466
 5479TIP3    H237997   4.143   0.179   8.475 -0.1297  0.9523  1.0716
 5480TIP3   OH237998   2.098   1.858   1.037 -0.2559  0.0360 -0.2649
 5480TIP3    H137999   2.100   1.935   1.094  1.9488 -0.6582  0.7188
 5480TIP3    H238000   2.190   1.837   1.023 -0.8008 -1.8174 -1.3787
 5481TIP3   OH238001   0.337   2.822   8.302  0.4145  0.2218 -0.3070
 5481TIP3    H138002   0.323   2.841   8.395 -0.6950 -0.8637 -0.2269
 5481TIP3    H238003   0.343   2.909   8.261  2.7202  0.7414  0.9734
 5482TIP3   OH238004   1.656   2.266   7.788  0.1985 -0.2660  0.1765
 5482TIP3    H138005   1.565   2.296   7.787 -0.2312 -1.4567 -1.6215
 5482TIP3    H238006   1.670   2.237   7.878 -0.7017  1.3142  0.8595
 5483TIP3   OH238007   6.726   5.489   0.136  0.2707 -0.0879  0.6304
 5483TIP3    H138008   6.778   5.451   0.065  1.5783  0.4414  1.2688
 5483TIP3    H238009   6.703   5.577   0.105 -0.3441 -0.3583  0.3074
 5484TIP3   OH238010   0.798   5.465   1.213  0.4219 -0.0891  0.0570
 5484TIP3    H138011   0.868   5.460   1.278  0.5972  1.8966  0.0959
 5484TIP3    H238012   0.718   5.448   1.263  0.2777  3.6340  1.4843
 5485TIP3   OH238013   2.123   5.329   7.558  0.1346  0.2400 -0.2351
 5485TIP3    H138014   2.092   5.418   7.548 -1.1777 -0.1599  0.0676
 5485TIP3    H238015   2.089   5.282   7.481 -0.7647 -0.3969  0.5285
 5486TIP3   OH238016   2.957   0.370   2.311  0.2855  0.1750 -0.6555
 5486TIP3    H138017   2.892   0.431   2.346  1.1687  0.4313  0.6045
 5486TIP3    H238018   3.038   0.420   2.309  1.5574 -1.5039  2.5322
 5487TIP3   OH238019   3.538   2.581   0.256 -0.2054  0.2777  0.1350
 5487TIP3    H138020   3.499   2.659   0.295  0.0012 -1.3457  3.9637
 5487TIP3    H238021   3.463   2.529   0.228 -0.3472  1.8530 -2.9660
 5488TIP3   OH238022   3.058   5.470   7.420  0.7699  0.0266 -0.3368
 5488TIP3    H138023   3.121   5.468   7.493  0.0590  0.2301  0.2968
 5488TIP3    H238024   3.105   5.431   7.347  1.6052  0.0881  0.1509
 5489TIP3   OH238025   5.761   6.068   8.036  0.3082 -0.1268 -0.8118
 5489TIP3    H138026   5.801   6.079   7.950  2.8882 -0.5566  0.2518
 5489TIP3    H238027   5.688   6.008   8.022  0.9359 -0.5037 -2.6313
 5490TIP3   OH238028   1.043   6.871   1.684  0.3520 -0.5394  0.1523
 5490TIP3    H138029   1.134   6.851   1.705  0.2663  0.2649  1.4462
 5490TIP3    H238030   1.039   6.871   1.589  1.6253 -0.9171  0.0824
 5491TIP3   OH238031   3.533   0.622   1.315  0.2286  0.2611 -0.0685
 5491TIP3    H138032   3.538   0.709   1.276  1.4358 -0.0654 -0.6838
 5491TIP3    H238033   3.585   0.566   1.257 -2.3390 -1.3830 -0.9536
 5492TIP3   OH238034   3.130   5.723   7.327 -0.1519  0.2265  0.2241
 5492TIP3    H138035   3.199   5.712   7.392 -1.0947 -0.9544  1.0552
 5492TIP3    H238036   3.079   5.643   7.331 -0.7375  0.4680 -1.4000
 5493TIP3   OH238037   1.998   2.343   1.074 -0.3622  0.2509  0.0502
 5493TIP3    H138038   2.057   2.379   1.007 -0.3076  0.0402 -0.0143
 5493TIP3    H238039   1.929   2.300   1.024  1.3866 -2.8259  0.0656
 5494TIP3   OH238040   2.243   2.211   7.893 -0.6369  0.2212  0.0233
 5494TIP3    H138041   2.218   2.263   7.816  1.4599  0.3103 -0.6529
 5494TIP3    H238042   2.331   2.241   7.914 -0.2068 -1.5918  0.9424
 5495TIP3   OH238043   4.396   5.871   0.238  0.0401 -0.0326  0.3808
 5495TIP3    H138044   4.331   5.889   0.306 -0.6359  0.4453 -0.3597
 5495TIP3    H238045   4.389   5.947   0.179  0.5853 -0.4500 -0.2290
 5496TIP3   OH238046   0.198   5.290   1.870  0.0101  0.3767  1.4783
 5496TIP3    H138047   0.203   5.195   1.883  0.5162  0.3357  1.0114
 5496TIP3    H238048   0.105   5.307   1.858  0.1069 -0.4037 -0.8859
 5497TIP3   OH238049   1.340   2.350   1.480 -0.0519 -0.5316  0.3139
 5497TIP3    H138050   1.368   2.381   1.393 -0.0632 -0.7154  0.2456
 5497TIP3    H238051   1.290   2.270   1.462  0.8780 -1.1808  0.5734
 5498TIP3   OH238052   3.676   3.646   6.771  0.5769 -0.1492  0.0584
 5498TIP3    H138053   3.730   3.593   6.713  1.2124  0.6084 -0.0722
 5498TIP3    H238054   3.634   3.710   6.714  2.4263  1.6218  0.5299
 5499TIP3   OH238055   2.698   1.280   0.450 -0.0411  0.0153 -1.0200
 5499TIP3    H138056   2.789   1.306   0.432 -0.0779  0.0491 -1.1586
 5499TIP3    H238057   2.686   1.299   0.543 -0.3718  1.4408 -1.3304
 5500TIP3   OH238058   1.204   3.552   0.074  0.1927  0.2939  0.3655
 5500TIP3    H138059   1.245   3.468   0.052  1.9603  1.7437 -2.3534
 5500TIP3    H238060   1.277   3.611   0.091 -1.0061  1.5464  1.4581
 5501TIP3   OH238061   5.043   3.337   8.178 -0.1917  0.5613  0.0627
 5501TIP3    H138062   5.104   3.406   8.207  1.2832 -1.4111  2.0526
 5501TIP3    H238063   5.087   3.295   8.105  0.7131 -0.5431  1.1855
 5502TIP3   OH238064   0.627   4.877   7.964 -0.5260  0.1212 -0.4036
 5502TIP3    H138065   0.615   4.786   7.938  0.1267  0.8052 -3.5323
 5502TIP3    H238066   0.719   4.895   7.947 -0.6360  1.3733  0.2015
 5503TIP3   OH238067   4.345   1.244   0.354 -0.1486 -0.6350  0.6170
 5503TIP3    H138068   4.368   1.202   0.271 -0.1066  1.1214 -0.3171
 5503TIP3    H238069   4.420   1.228   0.411  0.4627 -0.6446 -0.1738
 5504TIP3   OH238070   6.354   3.140   6.529  0.2302 -0.0652  0.2586
 5504TIP3    H138071   6.305   3.069   6.488  1.3602  0.3332 -1.9408
 5504TIP3    H238072   6.370   3.109   6.618  0.1517 -2.3085 -0.4420
 5505TIP3   OH238073   5.184   1.126   1.442  0.2836 -0.2134 -0.4209
 5505TIP3    H138074   5.093   1.148   1.422  0.2654 -0.0099 -0.1240
 5505TIP3    H238075   5.179   1.078   1.525  0.4013 -0.6333 -0.6515
 5506TIP3   OH238076   5.523   6.462   6.482  0.2305 -0.0778 -0.3821
 5506TIP3    H138077   5.531   6.540   6.427  0.4018  1.1490  1.3176
 5506TIP3    H238078   5.577   6.481   6.558  0.0273 -1.7446  0.2092
 5507TIP3   OH238079   3.275   1.849   6.653  0.1672 -0.3167  0.4102
 5507TIP3    H138080   3.276   1.805   6.568 -2.8913  0.0338  0.0984
 5507TIP3    H238081   3.285   1.942   6.633 -0.1990 -0.2643  0.4695
 5508TIP3   OH238082   3.009   0.071   7.036 -0.0263  0.1539 -0.2234
 5508TIP3    H138083   2.943   0.020   7.082 -0.8903  1.1585 -0.2934
 5508TIP3    H238084   2.959   0.121   6.971  1.0505 -0.4783 -1.5635
 5509TIP3   OH238085   5.638   6.145   0.340  0.0597 -0.5109  0.1507
 5509TIP3    H138086   5.626   6.231   0.300 -0.3180 -0.9680 -0.7435
 5509TIP3    H238087   5.570   6.091   0.300  1.1292 -1.5600 -0.2842
 5510TIP3   OH238088   4.151   6.003   0.045  0.1278 -0.2470  0.4723
 5510TIP3    H138089   4.103   6.056   0.109 -1.3384  1.6109 -1.9896
 5510TIP3    H238090   4.101   5.922   0.038 -0.6228  0.2035  0.5291
 5511TIP3   OH238091   1.568   2.181   8.367  0.2526 -0.5588  0.0610
 5511TIP3    H138092   1.547   2.228   8.286 -0.7786 -1.5036 -0.2527
 5511TIP3    H238093   1.525   2.233   8.436  1.7648  0.6683  0.1367
 5512TIP3   OH238094   4.160   5.687   6.443  0.0289 -0.1394  0.2138
 5512TIP3    H138095   4.190   5.614   6.496 -2.7922  0.1370  2.4114
 5512TIP3    H238096   4.132   5.647   6.361 -1.4585 -1.5846  1.3641
 5513TIP3   OH238097   1.292   6.381   1.714 -0.0245  0.5958 -0.4041
 5513TIP3    H138098   1.235   6.390   1.638  0.2208  2.8768 -0.3907
 5513TIP3    H238099   1.373   6.343   1.678 -1.1934 -1.9806 -0.5413
 5514TIP3   OH238100   5.444   1.719   7.750 -0.0896  0.0256  0.2037
 5514TIP3    H138101   5.435   1.802   7.704  0.3626  0.8030  1.4616
 5514TIP3    H238102   5.508   1.737   7.819 -0.6621 -1.1137  1.0630
 5515TIP3   OH238103   4.020   3.246   1.109 -0.1489  0.2846  0.3412
 5515TIP3    H138104   4.079   3.260   1.036 -1.0201 -0.0035 -0.4441
 5515TIP3    H238105   4.063   3.179   1.162  0.6023  0.6678  0.2285
 5516TIP3   OH238106   4.036   5.326   1.371  0.0839 -0.5750  0.1028
 5516TIP3    H138107   4.063   5.332   1.280 -0.7113 -0.8811 -0.1622
 5516TIP3    H238108   4.058   5.236   1.397 -3.2059 -1.8916 -1.0082
 5517TIP3   OH238109   2.182   2.420   0.869 -0.0428 -0.0234 -0.0415
 5517TIP3    H138110   2.147   2.487   0.810  0.0277  0.1763  0.1390
 5517TIP3    H238111   2.262   2.460   0.904 -0.2193 -0.0400  0.3827
 5518TIP3   OH238112   1.261   4.851   0.305  0.3633  0.1496  0.1996
 5518TIP3    H138113   1.321   4.777   0.303  0.8844  0.5746 -1.1350
 5518TIP3    H238114   1.181   4.818   0.265 -0.4258 -0.4885  2.2011
 5519TIP3   OH238115   5.778   1.941   7.798 -0.3941  0.7503 -0.8222
 5519TIP3    H138116   5.741   2.002   7.862 -1.8140 -0.3158 -0.5804
 5519TIP3    H238117   5.799   1.995   7.722 -0.5679  1.7125 -0.1959
 5520TIP3   OH238118   0.211   3.642   1.609  0.3369 -0.7671 -0.2081
 5520TIP3    H138119   0.276   3.689   1.557  1.5709 -1.3704  0.7436
 5520TIP3    H238120   0.138   3.703   1.617  0.2250 -0.5345 -2.3514
 5521TIP3   OH238121   5.830   4.603   7.268 -0.2290 -0.3512 -0.1686
 5521TIP3    H138122   5.847   4.641   7.182 -0.3305  0.0755  0.0009
 5521TIP3    H238123   5.742   4.566   7.261 -0.1027 -0.6188 -0.3538
 5522TIP3   OH238124   5.949   2.837   0.863 -0.2162  0.0288 -0.2431
 5522TIP3    H138125   5.951   2.857   0.957 -0.5298 -1.3110  0.0606
 5522TIP3    H238126   6.034   2.866   0.831  0.0071  0.2359  0.5091
 5523TIP3   OH238127   5.992   0.571   8.190  0.1920  0.0586 -0.1614
 5523TIP3    H138128   5.990   0.641   8.254 -0.9005 -0.3000  0.2203
 5523TIP3    H238129   5.916   0.516   8.212 -1.3074  0.8950 -2.8387
 5524TIP3   OH238130   5.454   6.023   0.197 -0.1877  0.2852  0.2606
 5524TIP3    H138131   5.381   5.973   0.233  0.2682 -1.2434 -0.8682
 5524TIP3    H238132   5.510   5.958   0.156  0.6039  1.6926 -0.9737
 5525TIP3   OH238133   4.045   1.742   8.394 -0.4666  0.6446  0.9010
 5525TIP3    H138134   4.032   1.652   8.427  0.5990  1.2075  3.0282
 5525TIP3    H238135   4.116   1.735   8.331 -1.3514 -0.1968 -0.0462
 5526TIP3   OH238136   5.506   4.621   1.036  0.3400  0.2521  0.2784
 5526TIP3    H138137   5.448   4.696   1.050 -1.3667 -1.1349  1.0120
 5526TIP3    H238138   5.554   4.642   0.956  1.6342  3.1280  1.6650
 5527TIP3   OH238139   0.226   5.167   6.419  0.4650 -0.2806  0.4763
 5527TIP3    H138140   0.266   5.174   6.506  0.2649  1.9880  0.4441
 5527TIP3    H238141   0.270   5.092   6.379  0.2262 -1.6850  2.6778
 5528TIP3   OH238142   0.187   5.555   0.193  0.0583 -0.4086 -0.0306
 5528TIP3    H138143   0.267   5.595   0.227  0.2070  0.8089 -1.6658
 5528TIP3    H238144   0.155   5.500   0.264  1.1136  0.8728  1.4964
 5529TIP3   OH238145   6.357   2.082   1.833 -0.2604 -0.7551 -0.9281
 5529TIP3    H138146   6.270   2.109   1.863 -0.6807 -0.0471 -2.6624
 5529TIP3    H238147   6.385   2.153   1.774  0.5445 -2.0043 -2.1109
 5530TIP3   OH238148   4.082   6.193   1.839 -0.4476  0.2706  0.1547
 5530TIP3    H138149   4.047   6.189   1.928  1.5871  0.8178  1.0389
 5530TIP3    H238150   4.176   6.183   1.850  0.0014  1.7626 -1.7956
 5531TIP3   OH238151   0.009   3.628   2.067  0.2244 -0.2246 -0.1372
 5531TIP3    H138152   0.039   3.538   2.083  0.8046 -0.1802 -0.8885
 5531TIP3    H238153  -0.083   3.618   2.044  0.0913 -0.5478  0.5211
 5532TIP3   OH238154   2.038   1.901   0.315  0.3353 -1.0653  0.8450
 5532TIP3    H138155   2.128   1.878   0.290  0.4763 -0.6247  0.9292
 5532TIP3    H238156   2.019   1.980   0.265 -0.3139 -1.6300  0.1949
 5533TIP3   OH238157   3.313   5.221   1.157  0.4803 -0.7550 -0.0090
 5533TIP3    H138158   3.245   5.252   1.097 -0.4034 -0.4550  1.1026
 5533TIP3    H238159   3.347   5.142   1.116 -1.6507 -1.8161  0.1434
 5534TIP3   OH238160   4.353   5.016   8.062 -0.4336 -0.0603 -0.0764
 5534TIP3    H138161   4.310   4.977   7.986  1.6775 -0.1023 -1.3406
 5534TIP3    H238162   4.389   4.942   8.111  0.0558  0.0696 -0.2331
 5535TIP3   OH238163   3.989   6.398   0.688  0.1756 -0.1815  0.4442
 5535TIP3    H138164   3.944   6.474   0.650 -0.0801  1.2089  3.2117
 5535TIP3    H238165   4.081   6.421   0.687  0.2325 -0.4251  0.0811
 5536TIP3   OH238166   6.180   2.942   8.355 -0.4035  0.2732  0.1472
 5536TIP3    H138167   6.271   2.971   8.357  0.3391 -1.4195 -3.1573
 5536TIP3    H238168   6.165   2.906   8.443  2.7387 -1.1480  0.2159
 5537TIP3   OH238169   0.971   3.889   0.941 -0.2540 -0.3318  0.5895
 5537TIP3    H138170   0.903   3.887   0.873  0.8427  1.7490 -0.6685
 5537TIP3    H238171   0.923   3.909   1.022 -1.1562  1.2045 -0.2873
 5538TIP3   OH238172   2.695   2.659   0.847 -0.2869  0.0712 -0.4196
 5538TIP3    H138173   2.650   2.741   0.826  0.4284  0.4363 -0.5248
 5538TIP3    H238174   2.626   2.604   0.886 -0.3995  1.3048  1.2148
 5539TIP3   OH238175   2.395   4.379   7.824  0.3406  0.0648 -0.1000
 5539TIP3    H138176   2.356   4.410   7.742 -1.4115  0.7358  0.9515
 5539TIP3    H238177   2.354   4.293   7.838 -1.3836  1.0791  1.3732
 5540TIP3   OH238178   0.538   3.702   0.802  0.0734 -0.0445 -0.0557
 5540TIP3    H138179   0.610   3.734   0.748  0.7689  0.6478  1.2502
 5540TIP3    H238180   0.489   3.643   0.744  0.3815  1.2057 -1.6439
 5541TIP3   OH238181   1.272   3.220   8.371 -0.2116 -0.2297 -0.2192
 5541TIP3    H138182   1.292   3.261   8.287 -2.7140 -0.7165 -1.1569
 5541TIP3    H238183   1.177   3.208   8.370 -0.0258 -2.7629  1.5263
 5542TIP3   OH238184   1.477   4.475   2.168 -0.6089 -0.0711  0.2722
 5542TIP3    H138185   1.543   4.438   2.227 -1.3823 -0.3057  1.0074
 5542TIP3    H238186   1.469   4.412   2.097 -1.2038 -0.8529  1.0129
 5543TIP3   OH238187   1.714   4.662   0.472 -0.2057  0.4228  0.2906
 5543TIP3    H138188   1.798   4.618   0.455  0.1903  0.6698  1.4691
 5543TIP3    H238189   1.736   4.755   0.478 -0.8749  0.7018 -1.1540
 5544TIP3   OH238190   1.072   6.657   8.245 -0.1323 -0.4302  0.1418
 5544TIP3    H138191   0.983   6.691   8.239 -0.0381 -0.3570 -1.0222
 5544TIP3    H238192   1.101   6.648   8.154  1.1268 -0.2332  0.4971
 5545TIP3   OH238193   0.509   2.421   2.706 -0.3539 -0.0154 -0.4334
 5545TIP3    H138194   0.525   2.493   2.768  1.9227 -1.7834  1.2158
 5545TIP3    H238195   0.596   2.386   2.688 -1.3443 -1.9946 -1.6386
 5546TIP3   OH238196   4.685   1.438   0.796 -0.2181  0.0540 -0.1054
 5546TIP3    H138197   4.612   1.425   0.736 -1.2856  0.2355  1.1294
 5546TIP3    H238198   4.688   1.357   0.848  0.1745  0.2351  0.1563
 5547TIP3   OH238199   5.300   4.162   7.888 -0.2242 -0.1823  0.3820
 5547TIP3    H138200   5.278   4.086   7.836 -1.4325  0.9900 -0.9095
 5547TIP3    H238201   5.316   4.232   7.824 -1.0136  1.1168  1.5346
 5548TIP3   OH238202   1.739   2.053   1.785  0.4507 -0.2006  0.4478
 5548TIP3    H138203   1.707   1.991   1.719 -1.4145  0.3352  0.7892
 5548TIP3    H238204   1.756   2.133   1.736  1.0008 -0.3916  0.3170
 5549TIP3   OH238205   0.176   6.289   1.125  0.7863 -0.4650  0.2347
 5549TIP3    H138206   0.195   6.279   1.219 -0.1185 -0.5547  0.4152
 5549TIP3    H238207   0.127   6.371   1.119  0.7464 -0.5159 -0.1561
 5550TIP3   OH238208   1.182   2.034   7.966  0.2733  0.0196  0.2667
 5550TIP3    H138209   1.220   1.954   7.929  1.6342  0.7236  0.0670
 5550TIP3    H238210   1.091   2.011   7.985  0.6805 -1.6341  0.4044
 5551TIP3   OH238211   4.802   2.993   8.100 -0.3623 -0.1968  0.0955
 5551TIP3    H138212   4.860   2.934   8.148  0.1391  0.0660 -0.1799
 5551TIP3    H238213   4.856   3.030   8.031 -0.8248  0.1520 -0.0917
 5552TIP3   OH238214   1.098   2.035   0.360  0.3750  0.5272 -0.3108
 5552TIP3    H138215   1.159   1.963   0.343 -0.4609  0.0078 -1.2582
 5552TIP3    H238216   1.154   2.113   0.364  1.2052 -0.0613 -0.1229
 5553TIP3   OH238217   5.380   3.075   2.178 -0.0085 -0.1063  0.3395
 5553TIP3    H138218   5.336   3.038   2.255  0.9233 -2.0536 -0.0000
 5553TIP3    H238219   5.318   3.139   2.144 -1.2700 -0.5981  1.6067
 5554TIP3   OH238220   0.284   3.824   7.733 -0.0446 -0.2283 -0.1189
 5554TIP3    H138221   0.374   3.813   7.765 -0.8015 -0.2209  2.2061
 5554TIP3    H238222   0.263   3.915   7.753 -1.2007 -0.7545  1.1610
 5555TIP3   OH238223   0.803   4.019   1.136  0.5877 -0.5886  0.0278
 5555TIP3    H138224   0.820   4.109   1.106 -0.5605 -0.4867 -0.3766
 5555TIP3    H238225   0.878   3.998   1.192  0.7872  0.6923  0.2853
 5556TIP3   OH238226   1.626   6.593   0.049 -0.0218 -0.7710 -0.0090
 5556TIP3    H138227   1.651   6.633   0.132 -0.2474  0.6019 -0.5729
 5556TIP3    H238228   1.636   6.499   0.063  0.2269 -0.5394  1.4663
 5557TIP3   OH238229   4.083   3.730   1.066  0.2571 -0.0006 -0.3006
 5557TIP3    H138230   4.118   3.701   0.981 -0.4750 -0.3378 -0.4987
 5557TIP3    H238231   4.156   3.722   1.126  0.3683 -1.2645 -0.5781
 5558TIP3   OH238232   0.606   0.187   1.446 -0.2546  0.1459  0.3227
 5558TIP3    H138233   0.566   0.258   1.496  0.8388  0.5549  0.6590
 5558TIP3    H238234   0.700   0.197   1.462  0.3550  1.2998 -3.1237
 5559TIP3   OH238235   6.896   5.442   1.202  0.2599 -0.1240 -0.0338
 5559TIP3    H138236   6.952   5.497   1.149  2.7715 -1.9016  0.5795
 5559TIP3    H238237   6.827   5.412   1.143 -0.3635  2.4200 -0.7102
 5560TIP3   OH238238   3.735   1.906   7.703 -0.3400 -0.8270  0.1604
 5560TIP3    H138239   3.704   1.913   7.613  2.0824 -0.9878 -0.7815
 5560TIP3    H238240   3.712   1.990   7.743  0.9922  0.4083 -1.5016
 5561TIP3   OH238241   3.516   1.732   7.333  0.1838  0.1348 -0.2251
 5561TIP3    H138242   3.452   1.802   7.325 -0.1967 -0.0673  0.9131
 5561TIP3    H238243   3.480   1.660   7.281  0.0687  0.4192 -0.5439
 5562TIP3   OH238244   0.035   5.776   7.457 -0.0916  0.3545  0.6976
 5562TIP3    H138245   0.104   5.839   7.434  0.7129 -0.3656  1.0971
 5562TIP3    H238246   0.002   5.746   7.373 -0.6938  1.5260  0.4975
 5563TIP3   OH238247   5.422   1.203   7.829  0.1319 -0.4218  0.2274
 5563TIP3    H138248   5.354   1.153   7.874 -0.5557  0.1725 -0.1411
 5563TIP3    H238249   5.503   1.181   7.876 -0.0552 -2.2913 -0.2420
 5564TIP3   OH238250   3.328   1.934   7.358 -0.4369 -1.0381 -0.2027
 5564TIP3    H138251   3.249   1.891   7.392 -0.7073 -1.0355 -0.8113
 5564TIP3    H238252   3.302   2.024   7.341 -0.0172 -0.7696  0.5583
 5565TIP3   OH238253   5.489   5.911   7.495 -0.1017 -0.4327 -0.2361
 5565TIP3    H138254   5.423   5.899   7.426 -0.4980 -1.6096  0.3303
 5565TIP3    H238255   5.572   5.889   7.452 -0.2278 -0.2564 -0.5818
 5566TIP3   OH238256   3.387   1.082   8.058 -0.6505 -0.1178  0.0752
 5566TIP3    H138257   3.443   1.131   7.998 -0.8041 -1.8617 -1.5796
 5566TIP3    H238258   3.416   0.991   8.049 -1.7122 -0.6405  1.5085
 5567TIP3   OH238259   6.385   0.362   8.009  0.0334 -0.1583 -0.3224
 5567TIP3    H138260   6.309   0.418   8.029 -0.6857 -1.3685  0.4776
 5567TIP3    H238261   6.456   0.399   8.060 -0.7896 -0.7798  1.3561
 5568TIP3   OH238262   1.593   5.682   1.709 -0.3915  0.2600 -0.4142
 5568TIP3    H138263   1.577   5.771   1.740 -0.4142 -0.0761  0.5641
 5568TIP3    H238264   1.638   5.639   1.782 -0.1430 -0.4570 -0.9784
 5569TIP3   OH238265   3.186   4.132   8.384 -0.3069  0.5203  0.0154
 5569TIP3    H138266   3.125   4.085   8.327  0.9334 -0.4873 -0.5281
 5569TIP3    H238267   3.244   4.180   8.324  1.6310 -1.3188  0.2956
 5570TIP3   OH238268   0.969   6.057   1.260  0.6421 -0.5383 -0.1191
 5570TIP3    H138269   0.940   6.148   1.260 -0.7671 -0.9681 -0.9850
 5570TIP3    H238270   0.921   6.016   1.332  1.5302 -0.5460  0.4906
 5571TIP3   OH238271   0.418   3.758   6.284 -0.5259  0.4809 -0.0002
 5571TIP3    H138272   0.479   3.712   6.342  0.7256  0.6927 -1.1033
 5571TIP3    H238273   0.444   3.850   6.290  0.2718  0.4020 -1.5796
 5572TIP3   OH238274   6.479   6.860   0.043 -0.2794  0.1840  0.2253
 5572TIP3    H138275   6.463   6.775   0.002  1.9004 -0.4272  0.5094
 5572TIP3    H238276   6.532   6.839   0.121  2.4112  1.9281 -0.9827
 5573TIP3   OH238277   1.737   0.843   8.122  0.8487 -0.5354 -0.2523
 5573TIP3    H138278   1.662   0.783   8.117 -0.5632  1.2600 -2.7773
 5573TIP3    H238279   1.781   0.831   8.038 -0.8039  3.4062 -1.9156
 5574TIP3   OH238280   0.610   5.030   7.079 -0.4908  0.2536  0.7640
 5574TIP3    H138281   0.584   5.073   6.997 -1.8001 -0.8551  0.5552
 5574TIP3    H238282   0.583   5.090   7.148  0.7251  1.2510  0.3962
 5575TIP3   OH238283   4.587   4.212   7.988 -0.3487  0.5363  0.4235
 5575TIP3    H138284   4.578   4.308   7.983  0.8426  0.5924 -2.8146
 5575TIP3    H238285   4.599   4.184   7.897 -1.4112 -2.8219  1.1948
 5576TIP3   OH238286   2.130   4.802   7.360 -0.0546 -0.0984  0.2196
 5576TIP3    H138287   2.153   4.714   7.331 -0.6636  0.5498 -2.4917
 5576TIP3    H238288   2.213   4.841   7.387  0.5260 -0.8879 -0.3592
 5577TIP3   OH238289   1.049   6.750   0.187 -0.2997 -0.3064 -0.3648
 5577TIP3    H138290   1.078   6.791   0.268  1.5532  0.0698 -1.1579
 5577TIP3    H238291   1.015   6.665   0.214 -0.8038  0.2760  0.9121
 5578TIP3   OH238292   4.411   2.859   6.497 -0.1238 -0.0150  0.0398
 5578TIP3    H138293   4.480   2.901   6.445  0.1571  0.8237  1.0585
 5578TIP3    H238294   4.449   2.849   6.584 -0.9921 -0.3243  0.3937
 5579TIP3   OH238295   3.888   1.310   1.938 -0.2321 -0.2656  0.2785
 5579TIP3    H138296   3.834   1.268   1.871 -2.6781 -2.0439  3.1246
 5579TIP3    H238297   3.953   1.243   1.962  0.4579  0.2591 -0.1033
 5580TIP3   OH238298   0.442   1.191   1.626 -0.1212  0.6749 -0.3163
 5580TIP3    H138299   0.403   1.132   1.691  0.0041  0.8828 -0.0483
 5580TIP3    H238300   0.522   1.147   1.599  0.2880  1.0027  0.3377
 5581TIP3   OH238301   6.745   1.911   1.320  0.1651 -0.2987 -0.4796
 5581TIP3    H138302   6.728   1.939   1.410 -0.9367  1.3628 -1.1536
 5581TIP3    H238303   6.813   1.970   1.289  1.5914 -1.7891 -0.3386
 5582TIP3   OH238304   4.539   2.464   6.785 -0.1839 -0.6797 -0.2458
 5582TIP3    H138305   4.579   2.379   6.766 -1.3934 -1.2041 -0.5606
 5582TIP3    H238306   4.445   2.449   6.775 -0.5098  0.3896  0.8954
 5583TIP3   OH238307   1.867   1.803   1.387 -0.0773 -0.2070 -0.4274
 5583TIP3    H138308   1.842   1.889   1.355  0.6459  1.1234  2.3241
 5583TIP3    H238309   1.874   1.749   1.308 -1.0361  2.0885 -2.1841
 5584TIP3   OH238310   4.434   5.048   7.587 -0.6053  0.0053  0.2134
 5584TIP3    H138311   4.412   5.085   7.502  0.5228 -0.1215 -0.1461
 5584TIP3    H238312   4.400   5.111   7.651 -1.6586 -0.0096 -0.3101
 5585TIP3   OH238313   2.815   3.539   8.478 -0.0535  0.1100 -0.4443
 5585TIP3    H138314   2.787   3.612   8.424  1.0626  0.6437 -0.3279
 5585TIP3    H238315   2.906   3.559   8.501  0.1058 -1.0521  0.0242
 5586TIP3   OH238316   3.387   4.065   1.061  0.3927 -0.4013  0.2582
 5586TIP3    H138317   3.365   4.154   1.089 -1.7860 -1.3008  1.6264
 5586TIP3    H238318   3.328   4.048   0.987  2.3445  0.0013 -1.4983
 5587TIP3   OH238319   4.081   0.353   1.354  0.2221  0.1059  0.0404
 5587TIP3    H138320   4.162   0.307   1.332  0.2455  0.8574 -1.5730
 5587TIP3    H238321   4.024   0.339   1.279 -1.1769 -0.4126  1.1539
 5588TIP3   OH238322   4.727   3.675   1.061 -0.0168 -0.3274 -0.0827
 5588TIP3    H138323   4.820   3.693   1.046 -0.1629 -1.6092 -3.6580
 5588TIP3    H238324   4.724   3.583   1.089 -0.1969 -0.6902 -1.2183
 5589TIP3   OH238325   6.661   5.164   7.758  0.2410  0.0235 -0.2477
 5589TIP3    H138326   6.731   5.229   7.768  0.8314 -0.6039 -0.2546
 5589TIP3    H238327   6.641   5.137   7.848 -1.2817  1.5136 -0.0767
 5590TIP3   OH238328   4.998   5.193   8.276  0.3774 -0.5347  0.1410
 5590TIP3    H138329   4.960   5.105   8.268  0.2433 -0.4274 -0.4068
 5590TIP3    H238330   5.056   5.187   8.352  0.7930 -1.2478 -0.2203
 5591TIP3   OH238331   5.567   5.466   7.130  0.6244 -0.4142 -0.5031
 5591TIP3    H138332   5.662   5.462   7.132  0.6147 -0.3919  0.1211
 5591TIP3    H238333   5.542   5.413   7.054  1.1684  0.2898 -1.1926
 5592TIP3   OH238334   1.966   0.201   8.414  0.0897  0.4341 -0.0148
 5592TIP3    H138335   1.982   0.109   8.436  0.8204 -0.2279 -2.8986
 5592TIP3    H238336   1.873   0.204   8.390 -0.2930  0.7952  1.4413
 5593TIP3   OH238337   4.534   4.958   2.113  0.0354  0.5165 -0.1854
 5593TIP3    H138338   4.579   4.925   2.191 -0.1487  0.7393  0.0124
 5593TIP3    H238339   4.495   4.879   2.074 -0.7232  0.5448  0.4940
 5594TIP3   OH238340   1.403   5.096   7.403  0.3478 -0.6596 -0.3030
 5594TIP3    H138341   1.343   5.141   7.344  0.0183 -0.9566 -0.1978
 5594TIP3    H238342   1.417   5.011   7.361 -0.3036 -1.0785  0.3033
 5595TIP3   OH238343   5.661   4.972   7.617  0.1224 -0.4951 -0.2748
 5595TIP3    H138344   5.624   4.887   7.640 -0.5582 -0.3151 -0.6773
 5595TIP3    H238345   5.585   5.028   7.603  0.5535  0.5395  1.2527
 5596TIP3   OH238346   3.840   0.359   0.038  0.2151 -0.4639 -0.3412
 5596TIP3    H138347   3.852   0.310   0.120 -0.2816  0.7315  0.4706
 5596TIP3    H238348   3.926   0.356  -0.004  0.4826 -1.0765  0.2244
 5597TIP3   OH238349   2.419   6.665   2.318 -0.1533 -0.6692 -0.4163
 5597TIP3    H138350   2.492   6.718   2.352  0.7771 -0.8064 -2.1089
 5597TIP3    H238351   2.356   6.662   2.390  2.0820 -1.6673  1.6278
 5598TIP3   OH238352   3.467   4.698   6.093 -0.1250 -0.6193 -0.2023
 5598TIP3    H138353   3.553   4.708   6.053 -0.1316  0.0325 -0.0719
 5598TIP3    H238354   3.434   4.788   6.101 -2.1908 -0.9495 -3.2213
 5599TIP3   OH238355   6.873   5.024   1.628 -0.0243  0.3052 -0.0372
 5599TIP3    H138356   6.786   5.049   1.596 -0.4245 -0.5886  0.3295
 5599TIP3    H238357   6.873   5.046   1.721  0.0104 -0.0354  0.0447
 5600TIP3   OH238358   3.812   1.353   1.351  0.2385 -0.0368 -0.0824
 5600TIP3    H138359   3.817   1.428   1.291  1.1605 -0.7432 -0.9115
 5600TIP3    H238360   3.897   1.311   1.344  0.9444  0.6765  2.8600
 5601TIP3   OH238361   0.267   3.734   6.629 -0.0765  0.2291  0.0370
 5601TIP3    H138362   0.226   3.812   6.594  0.0534  0.0606 -0.5061
 5601TIP3    H238363   0.340   3.716   6.569  1.1756  0.8777  1.3228
 5602TIP3   OH238364   2.525   2.799   7.326  0.5808  0.5130  0.4737
 5602TIP3    H138365   2.472   2.722   7.348  1.0695  0.3197  0.9989
 5602TIP3    H238366   2.462   2.871   7.323  0.1511  0.1297  0.1917
 5603TIP3   OH238367   5.065   3.178   2.415 -0.3062 -0.4556 -0.0304
 5603TIP3    H138368   5.087   3.139   2.499 -0.5993 -1.0093 -0.2053
 5603TIP3    H238369   4.994   3.239   2.435 -0.3840 -0.5964  0.1231
 5604TIP3   OH238370   3.832   0.229   0.260 -0.2274 -0.1252 -0.4111
 5604TIP3    H138371   3.751   0.279   0.257 -0.3340 -0.3330 -2.5223
 5604TIP3    H238372   3.813   0.156   0.319 -1.4977 -0.0315 -0.6710
 5605TIP3   OH238373   4.517   5.317   7.816  0.0663 -0.2467  0.5323
 5605TIP3    H138374   4.484   5.397   7.858  0.0980  0.5311 -0.8828
 5605TIP3    H238375   4.438   5.266   7.798 -0.4227  1.3030 -2.2111
 5606TIP3   OH238376   3.629   0.001   1.970  0.4069 -0.0458  0.0862
 5606TIP3    H138377   3.604  -0.091   1.973 -0.2438  0.1205  2.6145
 5606TIP3    H238378   3.694   0.010   2.039  2.4495  0.9361 -1.8499
 5607TIP3   OH238379   0.094   3.919   0.434 -0.0037 -0.0189 -0.2419
 5607TIP3    H138380   0.059   3.926   0.345  1.1557  0.0882 -0.7121
 5607TIP3    H238381   0.060   3.996   0.479  1.1904  1.1593 -1.2690
 5608TIP3   OH238382   0.679   3.668   1.269 -0.1880  0.3213  0.3163
 5608TIP3    H138383   0.615   3.597   1.280 -1.0189  1.0101  0.0107
 5608TIP3    H238384   0.702   3.665   1.176 -1.7910  1.7399 -0.1697
 5609TIP3   OH238385   2.764   6.563   2.179  0.1712  0.1572 -0.3777
 5609TIP3    H138386   2.799   6.480   2.147  2.6514  1.6397 -1.7771
 5609TIP3    H238387   2.805   6.575   2.264 -0.8223 -0.3863  0.1973
 5610TIP3   OH238388   4.020   1.820   2.324  0.4267 -0.2951 -0.1478
 5610TIP3    H138389   3.995   1.730   2.341 -0.1617  0.1022  1.2792
 5610TIP3    H238390   3.946   1.857   2.276  0.5901 -0.5119 -0.5734
 5611TIP3   OH238391   4.442   4.815   6.933 -0.0313 -0.0033 -0.4241
 5611TIP3    H138392   4.536   4.831   6.940  0.4261 -2.8663  2.2888
 5611TIP3    H238393   4.436   4.724   6.903 -1.8792 -0.2541  0.5817
 5612TIP3   OH238394   1.686   2.542   8.353 -0.6967  0.4736 -0.6418
 5612TIP3    H138395   1.656   2.581   8.271  2.2538  0.8511 -1.6562
 5612TIP3    H238396   1.630   2.581   8.420 -2.8196  0.5698 -2.3916
 5613TIP3   OH238397   3.601   6.146   6.857  0.4519 -0.2864  0.2961
 5613TIP3    H138398   3.509   6.166   6.877  0.2104 -0.0992 -0.8891
 5613TIP3    H238399   3.600   6.125   6.763  1.8916  1.4174 -0.1490
 5614TIP3   OH238400   3.682   0.854   7.847 -0.4479 -0.5441  0.3053
 5614TIP3    H138401   3.734   0.933   7.864  0.4584 -0.5627 -1.9155
 5614TIP3    H238402   3.746   0.783   7.848 -0.3585 -0.6010 -2.2260
 5615TIP3   OH238403   0.535   4.936   6.778  0.0479  0.5719  0.1217
 5615TIP3    H138404   0.535   4.858   6.724 -0.1561 -1.2576  2.5899
 5615TIP3    H238405   0.627   4.964   6.780  0.3727 -0.4665  0.3335
 5616TIP3   OH238406   5.509   2.242   0.679  0.2169 -0.4528  0.2590
 5616TIP3    H138407   5.470   2.214   0.761 -0.7370 -0.8753 -0.3305
 5616TIP3    H238408   5.598   2.268   0.703  0.6717 -2.5757  1.0852
 5617TIP3   OH238409   4.368   0.735   2.151  0.3659  0.7703  0.5692
 5617TIP3    H138410   4.353   0.663   2.213 -3.8548  2.0188  1.3073
 5617TIP3    H238411   4.415   0.801   2.201 -1.0706  0.8720  1.8503
 5618TIP3   OH238412   3.884   0.249   1.569  0.2645 -0.4980  0.3940
 5618TIP3    H138413   3.971   0.250   1.529 -0.1466 -1.0627 -0.5447
 5618TIP3    H238414   3.825   0.227   1.497 -0.3349 -3.2656  1.6197
 5619TIP3   OH238415   0.536   6.145   6.718 -0.2267  0.2428 -0.6152
 5619TIP3    H138416   0.621   6.176   6.749 -0.5833  0.8468 -0.2069
 5619TIP3    H238417   0.551   6.120   6.627  0.5112 -0.1865 -0.3812
 5620TIP3   OH238418   4.838   2.390   1.512  0.6234  0.4259 -0.0186
 5620TIP3    H138419   4.817   2.475   1.475  1.0622  1.0949  1.1961
 5620TIP3    H238420   4.856   2.408   1.605  2.5673 -0.6933 -0.1233
 5621TIP3   OH238421   3.955   6.783   1.277  0.0486 -0.0264  0.4000
 5621TIP3    H138422   3.882   6.730   1.246  0.7425 -0.1748 -1.0375
 5621TIP3    H238423   3.936   6.871   1.245  0.2463  0.0404  0.4668
 5622TIP3   OH238424   0.860   2.858   1.638  0.5624  0.2978  0.6744
 5622TIP3    H138425   0.796   2.915   1.680  0.2760 -0.1050  0.7885
 5622TIP3    H238426   0.945   2.900   1.657  0.3223  0.9910  0.2712
 5623TIP3   OH238427   0.536   3.156   8.406  0.4613  0.0551  0.3161
 5623TIP3    H138428   0.608   3.105   8.369 -0.4229  0.3950 -2.0812
 5623TIP3    H238429   0.572   3.244   8.418  1.0459 -0.3041  1.2595
 5624TIP3   OH238430   0.642   3.691   8.326  0.0249 -0.1369  0.0014
 5624TIP3    H138431   0.643   3.770   8.381 -0.5177 -0.0196 -0.1505
 5624TIP3    H238432   0.716   3.703   8.266 -1.5362  1.5186 -1.7432
 5625TIP3   OH238433   3.197   5.314   2.267 -0.3211 -0.3632  0.2891
 5625TIP3    H138434   3.109   5.343   2.244  1.2864  2.8520 -2.8485
 5625TIP3    H238435   3.206   5.335   2.360 -1.8218  2.5345 -0.1049
 5626TIP3   OH238436   3.695   0.620   8.294 -0.5927  0.4009 -0.0787
 5626TIP3    H138437   3.739   0.676   8.231 -2.2101  0.4130 -1.2435
 5626TIP3    H238438   3.632   0.677   8.338 -1.1559 -0.1456 -0.1621
 5627TIP3   OH238439   1.647   3.394   0.779 -0.1115 -0.0245  0.3250
 5627TIP3    H138440   1.614   3.474   0.738 -2.7221 -0.8129  0.7107
 5627TIP3    H238441   1.681   3.422   0.864  1.4584  1.0055 -0.6017
 5628TIP3   OH238442   0.063   3.848   1.625  0.0986  0.2437  0.2328
 5628TIP3    H138443  -0.020   3.801   1.630  1.7269 -2.7912  0.8912
 5628TIP3    H238444   0.054   3.920   1.687 -2.3329  0.5988 -0.4310
 5629TIP3   OH238445   5.326   3.395   7.669  0.0049 -0.3726 -0.1823
 5629TIP3    H138446   5.309   3.432   7.582 -0.4195 -3.3678 -1.4935
 5629TIP3    H238447   5.420   3.375   7.668 -0.5399 -3.4354 -1.3810
 5630TIP3   OH238448   3.243   4.883   7.867 -0.0123  0.3865 -0.4254
 5630TIP3    H138449   3.156   4.843   7.864  0.6051 -1.0609  0.1554
 5630TIP3    H238450   3.250   4.932   7.785 -1.1669  0.0762 -0.7259
 5631TIP3   OH238451   2.092   2.796   1.173  0.4542 -0.6942  0.5451
 5631TIP3    H138452   2.033   2.720   1.171 -0.5916  0.1186 -1.0133
 5631TIP3    H238453   2.042   2.867   1.135  1.4982  0.7652  1.7629
 5632TIP3   OH238454   1.495   2.876   1.791 -0.7153  0.4102  0.0265
 5632TIP3    H138455   1.524   2.967   1.796  1.4371 -0.2653  1.3868
 5632TIP3    H238456   1.576   2.825   1.797 -1.8697 -1.6085 -0.6407
 5633TIP3   OH238457   2.440   5.759   2.168 -0.1299  0.1797 -0.0774
 5633TIP3    H138458   2.368   5.696   2.180  0.8028 -1.0894 -0.8485
 5633TIP3    H238459   2.505   5.733   2.232  0.8882 -0.6221 -1.3891
 5634TIP3   OH238460   1.657   5.396   1.599  0.6560  0.0206  0.5005
 5634TIP3    H138461   1.732   5.454   1.614  0.3411  0.6902 -0.3965
 5634TIP3    H238462   1.581   5.449   1.623  0.5018 -1.5910  4.2699
 5635TIP3   OH238463   3.001   3.578   1.700 -0.5940 -0.3732  0.2762
 5635TIP3    H138464   3.074   3.623   1.658 -1.6134 -0.1266 -1.3276
 5635TIP3    H238465   3.005   3.489   1.665 -1.8503  0.0138 -0.9649
 5636TIP3   OH238466   6.518   5.309   7.557  0.2770 -0.0565 -0.2519
 5636TIP3    H138467   6.578   5.382   7.543 -0.5778  1.3529  2.7781
 5636TIP3    H238468   6.568   5.247   7.610 -0.3752  0.4122  0.9539
 5637TIP3   OH238469   6.164   2.677   0.316  0.2046  0.2218  0.2646
 5637TIP3    H138470   6.163   2.646   0.226 -0.1866  2.1965 -0.4684
 5637TIP3    H238471   6.195   2.603   0.367 -0.5238 -1.2726 -1.3579
 5638TIP3   OH238472   4.758   1.996   7.227 -0.4728  0.7231 -0.5676
 5638TIP3    H138473   4.751   2.035   7.139 -1.3019  0.9295 -0.4225
 5638TIP3    H238474   4.808   2.060   7.278  0.9620  0.1091 -1.1579
 5639TIP3   OH238475   2.559   4.029   1.460  0.0753  0.7202  0.4150
 5639TIP3    H138476   2.651   4.041   1.484  0.1559  2.0941 -0.4813
 5639TIP3    H238477   2.516   4.007   1.543  1.3120 -0.6972  0.7221
 5640TIP3   OH238478   3.473   2.507   8.463 -0.7304 -0.7303  0.3272
 5640TIP3    H138479   3.418   2.489   8.386  0.7876 -3.0152 -0.3426
 5640TIP3    H238480   3.449   2.595   8.489 -1.5433  0.0507 -2.6077
 5641TIP3   OH238481   4.140   1.663   0.519 -0.3606 -0.3935  0.0332
 5641TIP3    H138482   4.111   1.712   0.596 -0.8981 -1.0353  0.2477
 5641TIP3    H238483   4.235   1.674   0.518 -0.5515  1.5265 -0.5225
 5642TIP3   OH238484   2.424   0.829   8.276 -0.0057  0.1956  0.6519
 5642TIP3    H138485   2.436   0.915   8.317  1.3689 -0.3548  1.4402
 5642TIP3    H238486   2.512   0.794   8.265 -0.4548 -0.5833 -0.8889
 5643TIP3   OH238487   0.584   5.798   0.527  0.2774  0.5437 -0.3269
 5643TIP3    H138488   0.634   5.721   0.501 -0.6531  0.2060 -1.1526
 5643TIP3    H238489   0.541   5.772   0.609  0.1502  0.2640 -0.4808
 5644TIP3   OH238490   4.087   1.514   6.910 -0.1969 -0.1229  0.3316
 5644TIP3    H138491   4.035   1.437   6.886 -0.3491  0.2530 -0.5905
 5644TIP3    H238492   4.023   1.586   6.913  0.0984  0.1479  0.1967
 5645TIP3   OH238493   0.223   6.612   1.008 -0.4821 -0.3317 -0.4951
 5645TIP3    H138494   0.280   6.672   1.055 -0.8887 -0.7322  0.5531
 5645TIP3    H238495   0.158   6.585   1.073 -0.3181 -1.8795 -0.9225
 5646TIP3   OH238496   2.178   6.781   6.443 -0.1178  0.0392  0.2629
 5646TIP3    H138497   2.180   6.857   6.385  0.1998  0.6721  1.0829
 5646TIP3    H238498   2.256   6.789   6.497  0.0123 -0.9719  0.2593
 5647TIP3   OH238499   6.330   0.219   0.748  0.1881 -0.2929 -0.1164
 5647TIP3    H138500   6.237   0.206   0.766  0.4332 -0.2566  1.2609
 5647TIP3    H238501   6.336   0.215   0.652 -1.2094 -0.3734 -0.2278
 5648TIP3   OH238502   4.895   5.759   6.665  0.0877 -0.0844 -0.1059
 5648TIP3    H138503   4.990   5.766   6.653 -0.1432  1.9345 -1.2506
 5648TIP3    H238504   4.858   5.802   6.588 -1.8057 -1.7083 -0.1868
 5649TIP3   OH238505   6.220   0.863   7.570  0.6557  0.1421 -0.1890
 5649TIP3    H138506   6.284   0.875   7.640 -0.7282 -0.9739  1.3571
 5649TIP3    H238507   6.257   0.910   7.495  3.1430 -0.2727  0.6770
 5650TIP3   OH238508   4.534   5.246   6.627  0.4443 -0.0004  0.6791
 5650TIP3    H138509   4.624   5.238   6.597  0.3982 -0.2521  0.6085
 5650TIP3    H238510   4.502   5.156   6.633  0.2365  0.0804  0.8217
 5651TIP3   OH238511   2.095   2.448   7.083  0.0772 -0.3539 -0.3435
 5651TIP3    H138512   2.040   2.378   7.048  0.3508 -1.0399  0.5518
 5651TIP3    H238513   2.122   2.416   7.170  0.6071  0.6493 -0.1236
 5652TIP3   OH238514   0.881   3.547   0.782  0.4863  0.1232  0.3818
 5652TIP3    H138515   0.803   3.507   0.745  0.6670 -1.0369  1.1661
 5652TIP3    H238516   0.943   3.553   0.709 -1.1488  3.5480 -0.9234
 5653TIP3   OH238517   3.653   5.506   7.553  0.4928  1.1087 -0.0231
 5653TIP3    H138518   3.602   5.457   7.617  0.0682  1.8962  0.2509
 5653TIP3    H238519   3.623   5.596   7.562  0.0671  1.1711 -1.6635
 5654TIP3   OH238520   2.152   1.302   7.100 -0.0156 -0.0958  0.6390
 5654TIP3    H138521   2.160   1.308   7.004  3.4264 -2.7828  0.5349
 5654TIP3    H238522   2.171   1.391   7.131  0.1416  0.5448 -1.1611
 5655TIP3   OH238523   3.168   3.843   2.135 -0.1415  0.1407  0.1451
 5655TIP3    H138524   3.126   3.929   2.133 -1.3631 -0.4329 -0.7056
 5655TIP3    H238525   3.097   3.782   2.114  0.7827 -1.0432  0.3484
 5656TIP3   OH238526   4.744   0.943   0.071  0.2643 -0.1845  0.6075
 5656TIP3    H138527   4.800   0.874   0.106  0.5501 -0.3007 -0.0644
 5656TIP3    H238528   4.746   1.011   0.138  0.7385 -0.4353  0.8562
 5657TIP3   OH238529   4.470   0.939   1.011 -0.1370  0.3237  0.1175
 5657TIP3    H138530   4.565   0.951   1.018 -0.4070  2.4920  1.1461
 5657TIP3    H238531   4.448   0.974   0.925  0.1230 -1.4764 -0.7114
 5658TIP3   OH238532   3.620   2.050   7.489  0.2895  0.0807  0.0972
 5658TIP3    H138533   3.533   2.033   7.454  0.4071  0.6064 -0.4714
 5658TIP3    H238534   3.634   2.144   7.473  1.7737 -0.3906 -1.7382
 5659TIP3   OH238535   2.154   5.000   1.755  0.7325 -0.1475 -0.8611
 5659TIP3    H138536   2.162   5.051   1.674 -0.6197 -1.4254 -1.8575
 5659TIP3    H238537   2.062   5.009   1.780  0.4731 -1.9678 -1.0110
 5660TIP3   OH238538   5.752   3.841   0.024 -0.2346 -0.4827  0.6508
 5660TIP3    H138539   5.733   3.764   0.077  1.0630 -0.7705  0.7401
 5660TIP3    H238540   5.841   3.826  -0.009 -0.7734 -0.0328 -1.1138
 5661TIP3   OH238541   1.955   1.630   8.265  0.9160 -0.1920  0.1468
 5661TIP3    H138542   1.884   1.583   8.309  0.3012 -0.2589 -0.9038
 5661TIP3    H238543   1.960   1.714   8.311  0.6095 -0.4443  0.6565
 5662TIP3   OH238544   1.878   4.543   0.979  0.7538  0.0712  0.4189
 5662TIP3    H138545   1.795   4.510   0.947 -0.0681  1.6326  0.8566
 5662TIP3    H238546   1.906   4.478   1.044 -0.5959  0.0037  0.9673
 5663TIP3   OH238547   1.516   1.028   7.401 -0.2549 -0.1016 -0.2044
 5663TIP3    H138548   1.503   1.101   7.462 -1.2947 -0.6647  0.2904
 5663TIP3    H238549   1.581   1.059   7.339 -0.5498  1.1833  0.0973
 5664TIP3   OH238550   5.461   1.616   0.235  0.6184  0.5051  0.2127
 5664TIP3    H138551   5.497   1.682   0.175  1.0137 -0.3151 -0.4831
 5664TIP3    H238552   5.369   1.638   0.243  0.9249  1.6603  0.6888
 5665TIP3   OH238553   2.720   2.095   0.155 -0.7434  0.1059  0.0154
 5665TIP3    H138554   2.741   2.081   0.247  0.2563 -0.7459 -0.3193
 5665TIP3    H238555   2.665   2.021   0.130 -0.6274  0.0877 -0.1922
 5666TIP3   OH238556   6.495   6.274   1.620  0.0288  0.2179 -0.4017
 5666TIP3    H138557   6.557   6.347   1.610  0.1449  0.4884  1.7830
 5666TIP3    H238558   6.469   6.277   1.713 -0.8879 -1.7923 -0.5388
 5667TIP3   OH238559   3.291   4.254   1.674 -0.1969 -0.3780 -0.1081
 5667TIP3    H138560   3.241   4.184   1.633  0.0299 -0.7800  0.2931
 5667TIP3    H238561   3.321   4.216   1.757  0.4588 -0.0159 -0.1789
 5668TIP3   OH238562   5.425   4.903   1.032 -0.2753  0.3089  0.4526
 5668TIP3    H138563   5.367   4.916   1.107 -0.9201  0.0630  0.0086
 5668TIP3    H238564   5.366   4.903   0.956 -0.2974 -3.7400  0.2415
 5669TIP3   OH238565   3.733   3.828   0.820  1.0150 -0.0686  0.3981
 5669TIP3    H138566   3.649   3.870   0.837  1.8412  1.5854  0.5648
 5669TIP3    H238567   3.710   3.742   0.784 -0.8358  1.6814 -3.0899
 5670TIP3   OH238568   3.718   0.780   6.894  0.0714 -0.7781 -0.5395
 5670TIP3    H138569   3.718   0.872   6.867 -2.4961 -0.8308 -0.9798
 5670TIP3    H238570   3.702   0.783   6.988  1.6015 -0.7755 -0.2559
 5671TIP3   OH238571   4.469   3.588   7.737  0.5141  0.2043  0.2468
 5671TIP3    H138572   4.377   3.604   7.756  0.9595  0.4659  2.5157
 5671TIP3    H238573   4.474   3.583   7.641 -2.4667 -3.5221  0.0434
 5672TIP3   OH238574   1.357   3.252   7.823  0.4298 -0.3319 -0.3850
 5672TIP3    H138575   1.289   3.317   7.835 -1.3352 -1.9408 -1.1514
 5672TIP3    H238576   1.438   3.296   7.849 -0.4676  2.5287 -2.0956
 5673TIP3   OH238577   2.098   1.311   1.184 -0.0910  0.2061  0.0771
 5673TIP3    H138578   2.168   1.264   1.230  1.4040  2.4645  0.2236
 5673TIP3    H238579   2.122   1.403   1.191 -1.5819  0.8610 -2.3779
 5674TIP3   OH238580   1.599   5.254   7.830 -0.5711 -0.8074 -0.0786
 5674TIP3    H138581   1.651   5.316   7.779 -0.4742 -0.3653  0.5437
 5674TIP3    H238582   1.525   5.232   7.772 -0.1359 -0.8040 -0.6449
 5675TIP3   OH238583   5.080   5.845   8.338 -0.1118  0.0680  0.1315
 5675TIP3    H138584   5.058   5.885   8.422  1.0019 -0.2386  0.5837
 5675TIP3    H238585   5.146   5.904   8.300 -2.2940  1.5501 -1.6748
 5676TIP3   OH238586   3.192   1.124   1.825 -0.4603  0.2144  0.2894
 5676TIP3    H138587   3.237   1.144   1.907 -2.0725  1.5136  0.9161
 5676TIP3    H238588   3.186   1.208   1.780  1.5681 -0.6839 -1.8530
 5677TIP3   OH238589   0.952   1.563   8.073 -0.5930 -0.1364 -0.3560
 5677TIP3    H138590   1.012   1.500   8.033  0.7349  1.3331 -0.7646
 5677TIP3    H238591   0.927   1.621   8.002 -0.6684  0.6529  0.3050
 5678TIP3   OH238592   5.432   4.141   2.265 -0.2845  0.2138  0.2021
 5678TIP3    H138593   5.354   4.113   2.314 -1.0541  2.5071  0.4026
 5678TIP3    H238594   5.501   4.080   2.293 -1.9789 -1.9492 -0.0631
 5679TIP3   OH238595   5.779   3.484   8.056  0.5153  0.3930  0.2209
 5679TIP3    H138596   5.755   3.576   8.042  0.1059  0.2535 -0.0145
 5679TIP3    H238597   5.838   3.464   7.984  0.1965  0.3236 -0.0205
 5680TIP3   OH238598   5.685   4.267   2.488 -0.5388  0.5006  0.4846
 5680TIP3    H138599   5.750   4.331   2.517 -0.1253 -0.0499  0.7821
 5680TIP3    H238600   5.602   4.300   2.524 -0.2681  0.6528  0.9746
 5681TIP3   OH238601   0.662   4.813   1.659  0.5888  0.2606 -0.2313
 5681TIP3    H138602   0.649   4.723   1.686  1.3256  0.6248  1.4552
 5681TIP3    H238603   0.591   4.862   1.701  1.2456  0.7127  0.3824
 5682TIP3   OH238604   0.204   0.833   8.349  0.0111 -0.1660 -0.1891
 5682TIP3    H138605   0.138   0.899   8.367 -1.9813 -1.8081 -1.0686
 5682TIP3    H238606   0.252   0.866   8.273  1.5446  1.9020  1.5492
 5683TIP3   OH238607   3.763   4.053   1.776  0.7538 -0.1379 -0.5561
 5683TIP3    H138608   3.796   4.124   1.830  1.1298 -0.2358 -0.6551
 5683TIP3    H238609   3.782   4.079   1.686  0.3904 -0.1074 -0.6259
 5684TIP3   OH238610   0.815   2.090   7.482  0.7755  0.2395 -0.0786
 5684TIP3    H138611   0.866   2.149   7.427  0.9080 -0.2796 -0.5207
 5684TIP3    H238612   0.857   2.005   7.470  2.3178  0.4983  2.6359
 5685TIP3   OH238613   2.598   3.083   2.153  0.0851 -0.4058 -0.1276
 5685TIP3    H138614   2.534   3.149   2.179  0.2289 -0.4730  0.4107
 5685TIP3    H238615   2.551   3.000   2.160  0.6357 -0.6086  1.7367
 5686TIP3   OH238616   5.981   1.290   6.873  0.5555 -0.3389  0.4741
 5686TIP3    H138617   6.026   1.349   6.813  0.2224  1.5180  1.9517
 5686TIP3    H238618   5.960   1.213   6.821 -0.1896  1.3869 -1.9379
 5687TIP3   OH238619   4.657   6.253   0.607 -0.0420 -0.2589  0.0441
 5687TIP3    H138620   4.657   6.175   0.551 -2.6395 -0.7427  0.5762
 5687TIP3    H238621   4.584   6.306   0.575 -1.6680 -0.5743  2.8659
 5688TIP3   OH238622   4.557   4.707   0.446 -0.1705  0.5915 -0.4282
 5688TIP3    H138623   4.645   4.670   0.446  0.3513  1.6754 -2.5742
 5688TIP3    H238624   4.560   4.776   0.380 -3.0501 -0.3810 -1.7239
 5689TIP3   OH238625   4.644   0.185   8.258  0.0191 -0.1632 -0.2525
 5689TIP3    H138626   4.664   0.177   8.351 -0.3505  2.0650  0.0577
 5689TIP3    H238627   4.728   0.172   8.214  0.4094 -0.0802  0.4607
 5690TIP3   OH238628   4.283   2.810   7.134 -0.2421 -0.0359  0.0857
 5690TIP3    H138629   4.335   2.842   7.208 -1.9480  1.6907  0.6251
 5690TIP3    H238630   4.274   2.886   7.077  0.6994 -1.2369 -1.7573
 5691TIP3   OH238631   5.710   3.426   1.512 -0.1029  0.2427 -0.3303
 5691TIP3    H138632   5.735   3.513   1.482  0.3758  0.6720  1.2027
 5691TIP3    H238633   5.791   3.388   1.546 -0.1703 -1.0769 -1.5726
 5692TIP3   OH238634   4.044   1.885   7.028 -0.1824 -0.4993  0.1971
 5692TIP3    H138635   4.136   1.899   7.008  0.0029 -0.9390  0.7219
 5692TIP3    H238636   4.012   1.829   6.957 -0.6331  1.4843 -1.2537
 5693TIP3   OH238637   1.985   1.268   7.429  0.1872  0.5516  0.4920
 5693TIP3    H138638   1.954   1.356   7.405  1.2915  0.9955  0.6136
 5693TIP3    H238639   2.010   1.277   7.521  0.2835  0.1006  0.5094
 5694TIP3   OH238640   3.109   3.063   1.838  0.2657 -0.5707 -0.2010
 5694TIP3    H138641   3.128   2.991   1.898  0.0600 -0.6710 -0.2559
 5694TIP3    H238642   3.195   3.093   1.808  0.3651 -0.5499  0.1067
 5695TIP3   OH238643   3.752   2.292   0.760 -0.8817  0.5053 -0.0939
 5695TIP3    H138644   3.743   2.214   0.706  0.0919  0.1436  0.2523
 5695TIP3    H238645   3.752   2.365   0.697 -1.8453  0.2427 -0.4108
 5696TIP3   OH238646   2.893   4.485   0.950 -0.4178 -0.5948  1.0164
 5696TIP3    H138647   2.946   4.453   0.877 -1.9139  0.4884 -0.6468
 5696TIP3    H238648   2.810   4.439   0.941 -1.7828  1.8801 -0.0356
 5697TIP3   OH238649   3.865   0.657   7.837 -0.4410  0.1116  0.2338
 5697TIP3    H138650   3.919   0.670   7.758 -0.6382 -0.1187  0.0558
 5697TIP3    H238651   3.928   0.648   7.908 -0.2188 -0.6165 -0.0439
 5698TIP3   OH238652   0.138   1.185   7.369  0.2853 -0.1833  0.0508
 5698TIP3    H138653   0.145   1.150   7.280 -0.5711 -0.0631 -0.0766
 5698TIP3    H238654   0.216   1.239   7.379  0.1669  0.1787 -0.8082
 5699TIP3   OH238655   6.542   2.013   6.377  0.4335 -0.1208  0.0289
 5699TIP3    H138656   6.446   2.005   6.376  0.2840  1.1407 -2.5161
 5699TIP3    H238657   6.559   2.093   6.425  0.3202 -0.9287  1.4694
 5700TIP3   OH238658   6.305   2.087   2.175  0.2542 -0.5187  0.0562
 5700TIP3    H138659   6.305   1.992   2.169 -1.1410 -0.9192  3.6825
 5700TIP3    H238660   6.261   2.117   2.095  1.3225 -2.7921 -1.4771
 5701TIP3   OH238661   1.051   0.953   1.071 -0.2939  0.2990 -0.0650
 5701TIP3    H138662   1.031   1.006   1.148 -1.4960  0.2552 -0.3416
 5701TIP3    H238663   0.967   0.935   1.030  0.1956 -0.8088 -0.6579
 5702TIP3   OH238664   4.617   5.104   0.550  0.0311  0.3771  0.3566
 5702TIP3    H138665   4.689   5.101   0.487  0.2385  2.8094  0.3799
 5702TIP3    H238666   4.563   5.178   0.521 -2.5474 -1.3881  0.2940
 5703TIP3   OH238667   0.756   3.922   0.744 -0.0955 -0.3223 -0.1669
 5703TIP3    H138668   0.696   3.995   0.732  0.1888 -0.0193  0.2561
 5703TIP3    H238669   0.818   3.930   0.671  0.2639  0.1858  0.1838
 5704TIP3   OH238670   4.733   2.786   7.130 -0.2310  0.8824 -0.3024
 5704TIP3    H138671   4.729   2.722   7.200  1.2780 -1.0672 -1.8720
 5704TIP3    H238672   4.800   2.849   7.158  0.0736  0.3518  0.1620
 5705TIP3   OH238673   3.319   6.603   1.661  0.3859  0.6969  0.0665
 5705TIP3    H138674   3.252   6.539   1.637 -1.1583  2.8713 -1.8141
 5705TIP3    H238675   3.310   6.612   1.756  1.0258 -2.1407  0.5030
 5706TIP3   OH238676   0.404   1.781   1.201  0.0521 -0.1219 -0.4003
 5706TIP3    H138677   0.453   1.699   1.199 -0.1658 -0.2901  0.5844
 5706TIP3    H238678   0.314   1.755   1.217 -0.5119  0.1464 -2.7893
 5707TIP3   OH238679   3.741   4.182   6.978 -0.2704  0.0244  0.1420
 5707TIP3    H138680   3.756   4.128   6.901  0.6075  1.2149 -0.5565
 5707TIP3    H238681   3.753   4.122   7.052 -0.8007 -1.0571 -0.6272
 5708TIP3   OH238682   1.299   4.485   7.772  0.2050  0.8753  0.2818
 5708TIP3    H138683   1.330   4.422   7.707 -1.7605 -2.0383  1.9649
 5708TIP3    H238684   1.219   4.522   7.735 -1.5333 -1.6015  1.3171
 5709TIP3   OH238685   0.882   3.748   2.249  0.1596  0.5458 -0.5985
 5709TIP3    H138686   0.955   3.808   2.241  0.9823 -0.6246 -2.5181
 5709TIP3    H238687   0.922   3.661   2.253 -1.0541 -0.0017  0.6218
 5710TIP3   OH238688   3.245   5.011   8.253  0.1218  0.3007  0.8386
 5710TIP3    H138689   3.202   4.982   8.333 -2.4047  0.8099 -0.2541
 5710TIP3    H238690   3.221   4.945   8.188 -0.0271  1.2374 -0.0838
 5711TIP3   OH238691   0.291   5.937   0.127 -0.4097  0.8161 -0.0925
 5711TIP3    H138692   0.216   5.969   0.076 -0.5748 -0.1165 -0.4541
 5711TIP3    H238693   0.361   5.925   0.062 -0.7231 -0.7035 -0.1979
 5712TIP3   OH238694   6.564   3.569   2.788 -0.1989 -0.0286  0.1156
 5712TIP3    H138695   6.648   3.584   2.831 -1.2037  2.6549  1.3467
 5712TIP3    H238696   6.571   3.612   2.703 -0.1034 -0.4670 -0.1045
 5713TIP3   OH238697   2.727   5.755   7.455 -0.2465 -0.6015 -0.5184
 5713TIP3    H138698   2.709   5.830   7.398  0.2156  0.6979  0.9706
 5713TIP3    H238699   2.729   5.792   7.543  0.8448 -2.2376  0.1896
 5714TIP3   OH238700   1.848   0.432   7.413  0.1090  0.2719 -0.1165
 5714TIP3    H138701   1.850   0.363   7.347  1.3221  0.3554 -0.1920
 5714TIP3    H238702   1.787   0.400   7.479 -1.6150  0.4540 -1.5336
 5715TIP3   OH238703   4.313   1.805   0.923  0.2375 -0.1253 -0.6859
 5715TIP3    H138704   4.339   1.873   0.986  1.1807 -0.2231 -0.9454
 5715TIP3    H238705   4.367   1.729   0.947 -0.9051 -0.8475 -0.3100
 5716TIP3   OH238706   0.992   2.484   6.967  0.6824 -0.1478 -0.5318
 5716TIP3    H138707   1.015   2.526   6.885  1.4526  0.6320  0.0668
 5716TIP3    H238708   1.069   2.432   6.990  1.1828  1.0183  0.5561
 5717TIP3   OH238709   2.819   4.912   8.341  0.1815  0.6725  0.4006
 5717TIP3    H138710   2.761   4.951   8.406  0.5189  1.2530  0.3532
 5717TIP3    H238711   2.854   4.834   8.385  1.8385  2.0332  1.6264
 5718TIP3   OH238712   6.862   4.047   7.443 -0.3038  0.2006  0.3427
 5718TIP3    H138713   6.843   4.139   7.427  1.2697  0.8699  1.9964
 5718TIP3    H238714   6.845   4.035   7.536  0.2988 -0.9592  0.3247
 5719TIP3   OH238715   3.627   5.522   0.496  0.2372 -0.2710 -0.3838
 5719TIP3    H138716   3.627   5.436   0.538  0.5419  0.3443  0.9132
 5719TIP3    H238717   3.647   5.584   0.566 -1.0461  0.9798 -1.0504
 5720TIP3   OH238718   1.220   2.422   2.584 -0.2374 -0.1793 -0.7498
 5720TIP3    H138719   1.298   2.469   2.556  0.2918  0.2824  1.3158
 5720TIP3    H238720   1.227   2.336   2.542  0.6983  0.3142 -1.6388
 5721TIP3   OH238721   5.717   5.800   7.353 -0.4147 -0.4734 -0.2745
 5721TIP3    H138722   5.733   5.840   7.268 -0.4910 -1.8218 -0.9377
 5721TIP3    H238723   5.664   5.723   7.335  0.3660 -1.3222  0.8757
 5722TIP3   OH238724   1.624   6.642   1.460 -0.5058  0.3341 -0.0014
 5722TIP3    H138725   1.648   6.631   1.368 -0.7669  0.1958 -0.0526
 5722TIP3    H238726   1.705   6.622   1.507 -0.2062  0.9966 -0.2265
 5723TIP3   OH238727   6.205   2.096   6.860 -0.2408  1.0967  0.3832
 5723TIP3    H138728   6.257   2.119   6.783 -1.6974 -2.1856 -1.8004
 5723TIP3    H238729   6.115   2.115   6.834 -0.7171  0.3534  1.4521
 5724TIP3   OH238730   1.528   4.620   6.612 -0.1236  0.2931 -1.0324
 5724TIP3    H138731   1.500   4.709   6.634 -1.8114  0.1049 -2.2483
 5724TIP3    H238732   1.448   4.574   6.587  0.7753 -1.4526 -0.8903
 5725TIP3   OH238733   4.412   4.177   1.371 -0.0445  0.1475 -0.5515
 5725TIP3    H138734   4.491   4.124   1.381  0.3414  0.3786 -2.0616
 5725TIP3    H238735   4.443   4.267   1.379 -0.3541  0.2048  0.0051
 5726TIP3   OH238736   0.103   4.118   6.516  0.2874  0.0908  0.0910
 5726TIP3    H138737   0.198   4.112   6.506  0.2842  0.0276  0.0924
 5726TIP3    H238738   0.071   4.032   6.487  0.3541 -0.4242  1.4772
 5727TIP3   OH238739   3.754   1.911   1.361  0.6421 -0.3824  0.0842
 5727TIP3    H138740   3.687   1.970   1.395  0.5781  0.2387 -1.0335
 5727TIP3    H238741   3.831   1.929   1.415  0.0851 -0.6754  0.9948
 5728TIP3   OH238742   1.216   3.329   0.482 -0.4782 -0.7268  0.5724
 5728TIP3    H138743   1.268   3.274   0.424 -1.8586 -0.1273 -1.3030
 5728TIP3    H238744   1.280   3.363   0.545  0.7367 -2.8461  0.5711
 5729TIP3   OH238745   2.762   2.996   0.609  0.8434  0.0061  0.5322
 5729TIP3    H138746   2.764   2.970   0.701  0.5315  1.7400  1.0601
 5729TIP3    H238747   2.852   3.019   0.589  0.7300  0.6447  0.7291
 5730TIP3   OH238748   5.224   2.895   7.078  0.2164 -0.3316 -0.2407
 5730TIP3    H138749   5.231   2.976   7.027 -0.4185  0.1784  0.4616
 5730TIP3    H238750   5.283   2.908   7.152  0.2693 -0.5895 -0.2386
 5731TIP3   OH238751   4.171   2.819   0.347  0.4256 -0.2990 -0.3614
 5731TIP3    H138752   4.205   2.899   0.306  1.7526 -1.0371 -0.7700
 5731TIP3    H238753   4.232   2.751   0.320  0.0980 -1.2114  1.1089
 5732TIP3   OH238754   6.820   4.477   6.757 -0.3443  0.3556  0.2798
 5732TIP3    H138755   6.803   4.422   6.681 -1.3474  0.5951  0.3146
 5732TIP3    H238756   6.809   4.419   6.832 -0.6266  0.4095  0.2837
 5733TIP3   OH238757   0.006   0.595   8.488  0.3461 -0.5424 -0.1470
 5733TIP3    H138758  -0.007   0.530   8.419  0.2559  1.4538 -2.1146
 5733TIP3    H238759   0.100   0.609   8.490  0.3753 -0.7840  0.3500
 5734TIP3   OH238760   3.244   2.324   2.281 -0.5759  0.6818  0.2797
 5734TIP3    H138761   3.215   2.255   2.221 -1.0529  2.5764 -1.8224
 5734TIP3    H238762   3.181   2.395   2.269  0.5388  1.9345  1.4502
 5735TIP3   OH238763   5.760   6.641   6.965  0.5055 -0.6575 -0.6163
 5735TIP3    H138764   5.822   6.579   7.004  0.7355 -0.0692 -0.0387
 5735TIP3    H238765   5.716   6.682   7.040  0.9435  0.4739 -0.9561
 5736TIP3   OH238766   0.469   4.841   1.118 -0.0659 -0.1178  0.2000
 5736TIP3    H138767   0.468   4.877   1.207 -1.4002  0.5694 -0.0657
 5736TIP3    H238768   0.552   4.794   1.112  1.7243  2.7166  0.6758
 5737TIP3   OH238769   1.639   5.609   0.397  0.3363 -0.0963  0.1984
 5737TIP3    H138770   1.699   5.541   0.428  0.0277  0.4090  1.9974
 5737TIP3    H238771   1.688   5.656   0.330  0.4701 -2.2178 -1.2950
 5738TIP3   OH238772   4.670   0.546   0.789  1.0176  0.1680 -0.1151
 5738TIP3    H138773   4.702   0.619   0.737  0.4546 -0.5252 -1.4833
 5738TIP3    H238774   4.630   0.486   0.725 -1.2283  0.0814  1.2661
 5739TIP3   OH238775   6.661   4.020   1.773 -0.0157  0.1867 -0.6718
 5739TIP3    H138776   6.715   3.970   1.712  0.3654 -1.2105  0.7305
 5739TIP3    H238777   6.632   4.096   1.724 -1.0676 -1.6560 -3.1240
 5740TIP3   OH238778   6.778   2.351   0.084 -0.0496 -0.2517 -0.3953
 5740TIP3    H138779   6.829   2.429   0.107  0.4905 -0.8752  0.6109
 5740TIP3    H238780   6.832   2.305   0.021 -0.0188 -0.2005 -0.4064
 5741TIP3   OH238781   1.803   6.215   7.869 -0.1741  0.1730 -0.2794
 5741TIP3    H138782   1.855   6.189   7.792  0.6077  0.0012  0.2946
 5741TIP3    H238783   1.852   6.181   7.944 -1.1588 -0.0486  0.2845
 5742TIP3   OH238784   2.334   4.214   0.772 -0.3963 -0.0457  0.1551
 5742TIP3    H138785   2.401   4.183   0.833  1.8162  1.6205 -1.2430
 5742TIP3    H238786   2.319   4.139   0.714  0.9636 -0.1997 -0.0436
 5743TIP3   OH238787   5.114   3.106   1.624  0.1475  0.0562  0.1852
 5743TIP3    H138788   5.040   3.153   1.588  1.0877  0.0758 -1.8432
 5743TIP3    H238789   5.171   3.175   1.659  1.1449  0.4424 -2.0579
 5744TIP3   OH238790   0.659   5.649   7.447 -0.0381  0.0413  0.5559
 5744TIP3    H138791   0.645   5.560   7.479  0.6128 -0.3385 -0.1719
 5744TIP3    H238792   0.729   5.640   7.382 -0.7834  0.8927 -0.3982
 5745TIP3   OH238793   4.946   2.264   2.045  0.1441  0.1989  0.0271
 5745TIP3    H138794   4.850   2.255   2.046  0.1070  0.3268 -1.1275
 5745TIP3    H238795   4.965   2.324   2.117 -0.6408  0.1278  0.3082
 5746TIP3   OH238796   6.084   5.958   1.407 -0.1804  0.1132  0.0675
 5746TIP3    H138797   6.088   5.932   1.499 -2.0353 -0.8770 -0.0789
 5746TIP3    H238798   6.146   6.030   1.399  1.3063 -0.9203  1.6885
 5747TIP3   OH238799   6.363   2.062   1.420 -0.2043  0.2624  0.6415
 5747TIP3    H138800   6.345   1.975   1.455 -0.4754  0.1595  0.2583
 5747TIP3    H238801   6.287   2.114   1.445  0.3101  0.5991  1.5427
 5748TIP3   OH238802   6.097   6.212   0.942 -0.0299 -0.6759 -0.0431
 5748TIP3    H138803   6.045   6.174   0.872 -1.3543  0.1246  0.4780
 5748TIP3    H238804   6.060   6.175   1.023 -1.2657  1.4983  0.4736
 5749TIP3   OH238805   3.435   2.186   8.259 -0.0650 -0.2295 -0.2685
 5749TIP3    H138806   3.378   2.262   8.277  0.5353 -0.2973  2.2801
 5749TIP3    H238807   3.501   2.189   8.327  1.5291 -1.6170 -1.6687
 5750TIP3   OH238808   3.106   5.763   8.333  0.2483 -0.2388 -0.1080
 5750TIP3    H138809   3.082   5.671   8.340 -2.4672  0.4631  1.4024
 5750TIP3    H238810   3.029   5.811   8.363  1.7465  2.5437 -0.2628
 5751TIP3   OH238811   0.980   1.841   0.049 -0.1847  0.3316 -0.5969
 5751TIP3    H138812   1.020   1.766   0.093 -0.6442 -0.1380 -0.9662
 5751TIP3    H238813   1.041   1.913   0.064 -1.1562  0.6784  2.3719
 5752TIP3   OH238814   0.321   1.904   7.800 -0.1634 -0.3723  0.2786
 5752TIP3    H138815   0.361   1.990   7.792  0.8112 -0.6715  1.6404
 5752TIP3    H238816   0.243   1.918   7.854  0.4252 -0.4488  1.1677
 5753TIP3   OH238817   4.135   6.805   6.337  0.1038  0.2279 -0.0250
 5753TIP3    H138818   4.185   6.750   6.277  0.5137  0.7439 -0.1532
 5753TIP3    H238819   4.071   6.850   6.281  1.2030  1.5475 -0.2513
 5754TIP3   OH238820   4.245   3.832   0.518  0.0272 -0.7150 -0.1549
 5754TIP3    H138821   4.228   3.833   0.612 -1.3377 -2.0638 -0.3430
 5754TIP3    H238822   4.326   3.782   0.508  1.5165  1.4595  0.4245
 5755TIP3   OH238823   5.482   6.454   1.762 -0.5900 -0.0866 -0.9927
 5755TIP3    H138824   5.396   6.493   1.748 -0.6241 -0.3865 -1.6976
 5755TIP3    H238825   5.477   6.413   1.848 -0.2921  2.1170  0.1584
 5756TIP3   OH238826   2.204   3.334   6.701 -0.0254 -0.0316  0.5941
 5756TIP3    H138827   2.152   3.332   6.621  1.2732 -0.5568 -0.2802
 5756TIP3    H238828   2.255   3.252   6.698 -0.6713 -0.5519  2.4647
 5757TIP3   OH238829   5.018   5.989   0.805  0.5883 -0.0411 -0.2061
 5757TIP3    H138830   5.070   5.961   0.881 -0.5130  0.1825  0.6421
 5757TIP3    H238831   5.056   5.940   0.732  2.3178  0.4760  0.2804
 5758TIP3   OH238832   3.022   6.663   0.823 -0.0180  0.0841  0.2624
 5758TIP3    H138833   3.100   6.607   0.823 -0.6246 -0.7744 -0.0106
 5758TIP3    H238834   3.057   6.752   0.833  1.1142 -0.1400 -1.2055
 5759TIP3   OH238835   3.314   3.080   0.249 -0.0419 -0.2098 -0.7846
 5759TIP3    H138836   3.299   3.166   0.210 -0.8725 -0.7858 -1.7797
 5759TIP3    H238837   3.253   3.077   0.323 -2.0152 -0.9445 -2.3571
 5760TIP3   OH238838   3.849   3.859   0.469  0.0994  0.0868  0.2216
 5760TIP3    H138839   3.898   3.894   0.395 -0.0979  2.3594  1.0836
 5760TIP3    H238840   3.872   3.916   0.543 -0.8894 -1.1497  1.5611
 5761TIP3   OH238841   3.479   5.204   8.521  0.3641 -0.5050  0.5898
 5761TIP3    H138842   3.504   5.261   8.594 -0.4866  0.2861  0.2871
 5761TIP3    H238843   3.384   5.202   8.525  0.3638 -1.4025  0.1983
 5762TIP3   OH238844   2.248   3.580   1.057 -0.1491  0.1494 -0.1068
 5762TIP3    H138845   2.316   3.517   1.082  0.1012  0.7064  0.6790
 5762TIP3    H238846   2.196   3.591   1.136 -0.5525  0.4733 -0.4185
 5763TIP3   OH238847   2.924   2.330   1.341 -0.7350  0.0501 -0.3350
 5763TIP3    H138848   2.947   2.240   1.365  0.2688  0.0910 -1.0827
 5763TIP3    H238849   2.832   2.339   1.366 -0.4178 -0.6730  1.2266
 5764TIP3   OH238850   4.283   5.001   6.315 -0.6551 -0.3981 -0.1809
 5764TIP3    H138851   4.259   4.951   6.237 -1.2256 -0.3734 -0.0241
 5764TIP3    H238852   4.331   5.077   6.281 -0.4310 -0.6665 -0.4679
 5765TIP3   OH238853   3.700   5.219   1.160  0.4749  0.0693  0.0426
 5765TIP3    H138854   3.790   5.227   1.126  0.9307  0.9039  1.3729
 5765TIP3    H238855   3.645   5.250   1.089  1.2474 -0.2032 -0.6979
 5766TIP3   OH238856   5.289   0.423   8.058 -1.1556  0.0512  0.1812
 5766TIP3    H138857   5.255   0.334   8.059 -0.7000 -0.1227  0.9528
 5766TIP3    H238858   5.316   0.438   7.967  0.2609 -1.1875  0.3564
 5767TIP3   OH238859   2.431   4.218   0.489  0.0201  0.2499  0.8931
 5767TIP3    H138860   2.343   4.247   0.464  0.7564  1.9784  0.2157
 5767TIP3    H238861   2.417   4.129   0.524 -1.7064 -0.3559 -1.1345
 5768TIP3   OH238862   0.358   6.820   1.089 -0.4172 -0.1530  0.5372
 5768TIP3    H138863   0.413   6.835   1.166 -0.4637 -0.3323  0.6056
 5768TIP3    H238864   0.293   6.890   1.091 -0.5371 -0.2731  0.7669
 5769TIP3   OH238865   3.663   5.154   7.591 -0.4356  0.4315 -0.1080
 5769TIP3    H138866   3.754   5.150   7.622 -0.1009  2.3372 -0.6721
 5769TIP3    H238867   3.627   5.068   7.610  1.3506 -0.2147  0.5750
 5770TIP3   OH238868   2.008   1.153   0.314  0.2072 -0.3348  0.6446
 5770TIP3    H138869   2.033   1.086   0.251  1.5699 -0.5818  1.4087
 5770TIP3    H238870   2.086   1.165   0.369  0.8513  3.4341 -0.7858
 5771TIP3   OH238871   4.423   1.038   0.759  0.1191  0.1541 -0.3136
 5771TIP3    H138872   4.335   1.051   0.795 -0.0604 -1.6050 -0.0317
 5771TIP3    H238873   4.408   1.010   0.669  0.4530  1.1958 -0.7034
 5772TIP3   OH238874   0.588   0.451   8.258 -0.3178 -0.4861 -0.1787
 5772TIP3    H138875   0.566   0.362   8.284 -1.0656 -0.3547 -0.3324
 5772TIP3    H238876   0.593   0.447   8.163 -0.7073 -0.2914 -0.2095
 5773TIP3   OH238877   5.007   5.185   7.017  0.1296 -0.6603 -0.4377
 5773TIP3    H138878   5.032   5.204   6.926 -1.0990  0.1918 -0.6228
 5773TIP3    H238879   5.010   5.270   7.061  2.5305 -1.2904  0.8539
 5774TIP3   OH238880   5.270   4.966   0.811  0.5394  0.2392  0.4510
 5774TIP3    H138881   5.179   4.939   0.817  0.5428 -0.0427 -0.5592
 5774TIP3    H238882   5.270   5.057   0.842 -0.2260  0.4981 -0.2574
 5775TIP3   OH238883   0.430   4.454   8.248  0.3517  0.1943 -0.5439
 5775TIP3    H138884   0.340   4.443   8.216  0.0105 -0.9708  0.7120
 5775TIP3    H238885   0.484   4.451   8.169 -0.5461 -1.5170 -1.1490
 5776TIP3   OH238886   0.158   5.514   0.725  0.2102  0.3253  0.1608
 5776TIP3    H138887   0.202   5.439   0.766 -1.9287 -0.5697  0.9577
 5776TIP3    H238888   0.138   5.573   0.798 -1.4686 -0.1379  0.1110
 5777TIP3   OH238889   1.722   2.284   1.051 -0.1211 -0.3123 -0.1197
 5777TIP3    H138890   1.706   2.192   1.030 -0.4860  0.2820 -2.7926
 5777TIP3    H238891   1.702   2.331   0.970 -0.9211  2.2502  1.4589
 5778TIP3   OH238892   6.208   6.188   1.374 -0.6354  0.0929  0.1501
 5778TIP3    H138893   6.293   6.196   1.331 -0.8833 -1.2576 -0.6483
 5778TIP3    H238894   6.166   6.273   1.360 -1.3555 -0.7028 -3.7977
 5779TIP3   OH238895   1.659   0.150   8.205  0.1136 -0.7518 -0.0540
 5779TIP3    H138896   1.582   0.095   8.188 -1.5203  1.6926 -1.1961
 5779TIP3    H238897   1.662   0.157   8.301 -2.8593  1.2225  0.0388
 5780TIP3   OH238898   2.828   1.583   8.331 -0.6007 -0.0146 -0.3624
 5780TIP3    H138899   2.851   1.518   8.265 -2.5062 -1.3999  0.2432
 5780TIP3    H238900   2.896   1.650   8.323 -0.2099 -0.6174 -3.0067
 5781TIP3   OH238901   2.893   3.718   8.125 -0.2811  0.0896 -1.3310
 5781TIP3    H138902   2.956   3.657   8.086  0.1140 -0.3610 -0.0202
 5781TIP3    H238903   2.814   3.708   8.071 -0.5848 -2.3749 -0.5227
 5782TIP3   OH238904   5.459   2.254   0.151  0.0155  0.3309  0.3703
 5782TIP3    H138905   5.501   2.247   0.237  1.5775 -1.2485 -0.4515
 5782TIP3    H238906   5.488   2.176   0.104 -2.2501  0.2382 -1.0142
 5783TIP3   OH238907   2.549   0.643   7.682  0.3720  0.0202 -0.4723
 5783TIP3    H138908   2.585   0.641   7.770  1.1571  0.5503 -0.7727
 5783TIP3    H238909   2.461   0.606   7.691 -0.2014  1.5671  0.8290
 5784TIP3   OH238910   1.630   5.963   7.511  0.2139  0.2204  0.0580
 5784TIP3    H138911   1.707   6.011   7.543  0.8574 -0.1580 -0.8865
 5784TIP3    H238912   1.556   6.017   7.539  0.8843  1.3230 -0.2086
 5785TIP3   OH238913   3.202   6.689   7.111  0.0410  0.0699  0.6306
 5785TIP3    H138914   3.223   6.755   7.177 -1.6198 -0.3130  1.6113
 5785TIP3    H238915   3.262   6.617   7.129 -1.0976 -0.4849  2.5153
 5786TIP3   OH238916   3.201   0.715   0.733  0.1310 -0.1501  0.0117
 5786TIP3    H138917   3.153   0.642   0.772  0.1246 -0.9057 -1.3488
 5786TIP3    H238918   3.175   0.791   0.785 -1.6850 -0.7241  0.0392
 5787TIP3   OH238919   0.648   4.171   1.516  0.0493  0.1699 -0.8248
 5787TIP3    H138920   0.641   4.233   1.588  2.0878  1.2552 -1.4868
 5787TIP3    H238921   0.675   4.089   1.557  0.6502  0.6312 -0.2777
 5788TIP3   OH238922   5.164   1.403   1.745 -0.1870 -0.3093 -0.2480
 5788TIP3    H138923   5.117   1.436   1.668 -0.6071 -0.2672  0.0232
 5788TIP3    H238924   5.211   1.479   1.778  0.8776 -0.5765 -1.0955
 5789TIP3   OH238925   2.948   5.663   7.781  1.3427  0.3060  0.7488
 5789TIP3    H138926   2.877   5.601   7.761  1.4235  0.8410 -1.5538
 5789TIP3    H238927   2.969   5.646   7.872 -1.8273  0.1942  1.6031
 5790TIP3   OH238928   1.431   0.673   0.772  1.0189  0.8045 -0.1040
 5790TIP3    H138929   1.346   0.717   0.772  1.2462  1.2584 -0.5805
 5790TIP3    H238930   1.491   0.737   0.734  1.4507  0.2537 -0.3696
 5791TIP3   OH238931   0.443   5.214   0.122  0.3606 -0.1906  0.6730
 5791TIP3    H138932   0.439   5.300   0.163  0.2043 -0.0787  0.4198
 5791TIP3    H238933   0.458   5.154   0.195  0.5367  0.0563  0.8419
 5792TIP3   OH238934   6.285   3.655   0.983 -0.8763 -0.2490 -0.3171
 5792TIP3    H138935   6.196   3.691   0.990 -0.2385  1.2876  0.3025
 5792TIP3    H238936   6.321   3.663   1.072  0.3870  0.5635 -0.8742
 5793TIP3   OH238937   6.005   4.149   1.783 -0.4118 -0.2881 -0.2903
 5793TIP3    H138938   6.000   4.157   1.687 -1.2108 -1.0264 -0.3285
 5793TIP3    H238939   5.948   4.074   1.803  1.0641 -1.2082  0.6203
 5794TIP3   OH238940   3.800   4.924   7.772 -0.6163  0.1206 -0.2983
 5794TIP3    H138941   3.712   4.911   7.739 -0.7080 -0.9699  0.3493
 5794TIP3    H238942   3.852   4.855   7.730  0.1304  1.2701 -1.3457
 5795TIP3   OH238943   3.494   5.061   1.843  0.3462 -0.0539 -0.3540
 5795TIP3    H138944   3.561   5.038   1.908 -1.2583 -1.0122  1.0318
 5795TIP3    H238945   3.542   5.069   1.761  2.2957  0.1923  0.7511
 5796TIP3   OH238946   5.185   0.434   0.556 -0.0484  0.2969 -0.8697
 5796TIP3    H138947   5.152   0.484   0.631 -0.3551  0.0018 -0.8034
 5796TIP3    H238948   5.277   0.416   0.577  0.2026  1.2301 -1.1108
 5797TIP3   OH238949   2.317   2.634   2.481  0.4949  0.1143 -0.8054
 5797TIP3    H138950   2.290   2.707   2.425 -0.0613 -0.3036 -1.0879
 5797TIP3    H238951   2.235   2.600   2.517  0.7793 -0.1721 -0.4267
 5798TIP3   OH238952   1.027   2.117   6.500  0.4607  0.3063  0.1764
 5798TIP3    H138953   1.093   2.063   6.458  0.8159  0.7717  0.1224
 5798TIP3    H238954   0.947   2.064   6.498  0.6951 -0.0365 -0.2619
 5799TIP3   OH238955   1.456   1.423   1.771 -0.3160  0.3291 -0.2359
 5799TIP3    H138956   1.460   1.447   1.864 -0.3255 -0.6276  0.0220
 5799TIP3    H238957   1.382   1.362   1.766 -0.2677  0.3233 -0.8566
 5800TIP3   OH238958   6.431   2.462   7.341  0.2700  0.4619 -0.0631
 5800TIP3    H138959   6.438   2.409   7.420 -1.0922  0.3374 -0.0024
 5800TIP3    H238960   6.484   2.416   7.276  0.4898 -0.0425  0.4669
 5801TIP3   OH238961   5.807   5.762   7.983 -0.1608  0.2303  0.1700
 5801TIP3    H138962   5.879   5.817   8.014  0.7514 -0.7038 -0.2607
 5801TIP3    H238963   5.787   5.704   8.057 -0.1299  0.1431  0.1097
 5802TIP3   OH238964   3.986   3.898   7.154  0.7599  0.3444 -0.3288
 5802TIP3    H138965   3.967   3.889   7.060 -1.9618  0.9369  0.0872
 5802TIP3    H238966   3.998   3.992   7.167  0.9240  0.2838 -0.0368
 5803TIP3   OH238967   6.773   2.218   1.327  0.1050  0.0159  0.3027
 5803TIP3    H138968   6.684   2.180   1.322  0.8821 -1.7825 -1.4883
 5803TIP3    H238969   6.758   2.312   1.337 -2.0258 -0.1520 -0.6235
 5804TIP3   OH238970   3.875   0.729   8.532 -0.3503 -0.5256  0.0043
 5804TIP3    H138971   3.879   0.699   8.622 -0.6467 -0.4491  0.0451
 5804TIP3    H238972   3.788   0.703   8.501  0.1620 -1.5561 -0.6191
 5805TIP3   OH238973   5.756   2.313   7.938 -0.3258 -0.1732 -0.3071
 5805TIP3    H138974   5.712   2.285   7.858  0.5706 -0.1524 -0.8214
 5805TIP3    H238975   5.717   2.259   8.007 -0.1274 -1.1952 -0.9665
 5806TIP3   OH238976   0.156   4.464   1.704  0.1246  0.3745  0.4252
 5806TIP3    H138977   0.076   4.416   1.682  0.3290  0.1307  0.2029
 5806TIP3    H238978   0.197   4.413   1.773 -0.4009  1.0204  1.2314
 5807TIP3   OH238979   3.655   0.507   7.703  0.4543  0.2878 -0.7079
 5807TIP3    H138980   3.635   0.536   7.792  1.3529 -1.1670  0.0139
 5807TIP3    H238981   3.723   0.568   7.673 -0.2812  1.1519 -0.6359
 5808TIP3   OH238982   2.183   3.851   7.778 -0.1177  0.1689  0.1823
 5808TIP3    H138983   2.135   3.898   7.710 -1.2196 -0.1368  0.7265
 5808TIP3    H238984   2.121   3.845   7.851  0.1332 -1.7352  0.2895
 5809TIP3   OH238985   3.051   3.265   0.524 -0.0585  0.0104 -0.1882
 5809TIP3    H138986   3.064   3.187   0.469  2.6873  1.2850 -1.5566
 5809TIP3    H238987   3.083   3.337   0.470  0.8839  1.6219  2.3548
 5810TIP3   OH238988   5.372   6.557   1.046 -0.4035  0.4053 -0.1835
 5810TIP3    H138989   5.352   6.646   1.076  0.0904  0.0395  1.3463
 5810TIP3    H238990   5.372   6.505   1.126  0.7638 -0.7037 -0.8752
 5811TIP3   OH238991   6.453   0.828   7.144 -0.2215  0.0502  0.1507
 5811TIP3    H138992   6.487   0.739   7.134 -1.2623 -0.4373  0.8305
 5811TIP3    H238993   6.391   0.839   7.072 -1.8207 -0.6360  1.3605
 5812TIP3   OH238994   0.296   2.124   1.108  0.5665  0.2946  0.7362
 5812TIP3    H138995   0.321   2.211   1.077  0.8199 -0.0513 -0.0588
 5812TIP3    H238996   0.203   2.131   1.128  0.4928  0.6340  0.2678
 5813TIP3   OH238997   1.739   2.722   1.805 -0.5576  0.0584 -0.0292
 5813TIP3    H138998   1.799   2.723   1.880 -0.5340 -1.8592  0.0283
 5813TIP3    H238999   1.785   2.670   1.739 -1.8329 -0.8326 -0.2487
 5814TIP3   OH239000   2.679   4.058   6.975  0.2670 -0.1892  0.1087
 5814TIP3    H139001   2.645   4.145   6.954 -1.3737 -0.3369  1.8763
 5814TIP3    H239002   2.719   4.027   6.893  0.0178  1.8081 -0.8177
 5815TIP3   OH239003   5.191   3.562   2.347  0.6636  0.2353 -0.2005
 5815TIP3    H139004   5.204   3.654   2.327 -0.0561  0.6696  1.2092
 5815TIP3    H239005   5.175   3.559   2.441  1.3018 -1.4050 -0.0941
 5816TIP3   OH239006   4.689   3.834   7.682 -0.2451 -0.4117 -0.1398
 5816TIP3    H139007   4.628   3.897   7.644  0.6636  2.0672  2.2094
 5816TIP3    H239008   4.643   3.800   7.759 -0.2674 -1.8225 -0.7424
 5817TIP3   OH239009   6.878   4.667   0.412  0.1670  0.0488  0.6349
 5817TIP3    H139010   6.786   4.683   0.437  0.0816  0.1342  0.2649
 5817TIP3    H239011   6.904   4.747   0.366 -0.0266 -0.5526 -0.5476
 5818TIP3   OH239012   6.122   5.162   0.926 -0.0215  0.2145 -0.0175
 5818TIP3    H139013   6.157   5.193   0.842  0.6081 -0.5361 -0.0362
 5818TIP3    H239014   6.197   5.127   0.973 -0.5829 -0.5394  0.3410
 5819TIP3   OH239015   1.711   6.461   0.679  0.4507  0.1441 -0.0811
 5819TIP3    H139016   1.711   6.381   0.627 -0.3689  0.2591 -0.2602
 5819TIP3    H239017   1.743   6.434   0.765 -1.1469 -0.6570  0.2813
 5820TIP3   OH239018   1.968   6.880   2.011 -0.1974 -0.1143  0.3929
 5820TIP3    H139019   1.964   6.954   2.072  0.9592  2.5851 -2.4947
 5820TIP3    H239020   2.061   6.858   2.007 -0.3650 -0.7923  0.1931
 5821TIP3   OH239021   0.799   4.002   7.814  0.1649  0.4089 -0.3118
 5821TIP3    H139022   0.723   4.048   7.779 -1.0538 -2.3868 -1.7058
 5821TIP3    H239023   0.776   3.984   7.905 -0.8158 -0.2559 -0.6701
 5822TIP3   OH239024   0.007   3.282   0.752  0.6839 -0.3381 -0.0773
 5822TIP3    H139025   0.014   3.270   0.657  0.0078 -0.7656 -0.0763
 5822TIP3    H239026   0.050   3.366   0.768 -0.9004  0.7163 -1.0349
 5823TIP3   OH239027   4.417   1.536   8.378  0.1461  0.2141 -0.1739
 5823TIP3    H139028   4.509   1.518   8.356 -0.0479 -1.8688  0.5201
 5823TIP3    H239029   4.394   1.469   8.442 -1.4782  1.5680  0.7317
 5824TIP3   OH239030   3.967   3.889   1.982 -0.4461  0.4273  0.4373
 5824TIP3    H139031   4.027   3.941   1.928 -0.3528 -1.8090 -1.7354
 5824TIP3    H239032   3.882   3.931   1.970 -0.2654  0.4872 -0.7515
 5825TIP3   OH239033   4.059   2.001   1.792  0.7480  0.4005 -0.2578
 5825TIP3    H139034   4.002   2.053   1.848  2.2858  0.5101  1.2889
 5825TIP3    H239035   4.117   2.065   1.752  0.3488  0.2056 -1.1731
 5826TIP3   OH239036   5.761   0.083   8.325  0.2348 -0.1458  0.7905
 5826TIP3    H139037   5.705   0.161   8.327  0.0757 -0.2686  1.1261
 5826TIP3    H239038   5.836   0.109   8.271 -0.3010 -0.0886  0.0701
 5827TIP3   OH239039   3.193   6.001   7.937  0.2897  0.3087  0.2236
 5827TIP3    H139040   3.125   5.946   7.898  0.6901 -0.1271  0.1290
 5827TIP3    H239041   3.232   6.046   7.863  0.5322  0.0688  0.2035
 5828TIP3   OH239042   2.566   5.065   8.215 -0.0621 -0.2121  0.4379
 5828TIP3    H139043   2.520   4.984   8.191  2.1560 -1.0232 -1.4638
 5828TIP3    H239044   2.563   5.119   8.136  1.4712  0.0468  0.5322
 5829TIP3   OH239045   0.416   3.980   8.142 -0.2528  0.3891 -0.1685
 5829TIP3    H139046   0.438   3.887   8.151  0.7247  0.4986 -1.1225
 5829TIP3    H239047   0.456   4.005   8.058  0.4736  1.9264  0.6032
 5830TIP3   OH239048   5.312   3.812   6.576 -0.2906  0.3753  0.2284
 5830TIP3    H139049   5.278   3.820   6.666  0.2709 -0.1608  0.4948
 5830TIP3    H239050   5.295   3.898   6.537 -2.1770  0.0730  0.2647
 5831TIP3   OH239051   2.599   1.707   8.020  0.4567  0.0522 -0.1705
 5831TIP3    H139052   2.582   1.613   8.014  1.9274 -0.1999 -0.7685
 5831TIP3    H239053   2.591   1.727   8.113  0.2317 -0.6925 -0.0248
 5832TIP3   OH239054   1.857   1.210   1.334 -0.0587 -0.6081 -0.0760
 5832TIP3    H139055   1.921   1.265   1.290  0.8541 -1.0983  0.6099
 5832TIP3    H239056   1.868   1.123   1.295 -0.7492 -0.5482 -0.4078
 5833TIP3   OH239057   5.295   5.805   7.039 -0.4239  0.6265 -0.2252
 5833TIP3    H139058   5.251   5.890   7.035 -1.5719 -0.0072 -2.3633
 5833TIP3    H239059   5.360   5.808   6.968  1.3676  0.6357  1.3387
 5834TIP3   OH239060   5.993   1.505   7.890  0.2171 -0.5647 -0.1629
 5834TIP3    H139061   5.912   1.454   7.885 -0.9641  1.0071  1.7895
 5834TIP3    H239062   6.039   1.470   7.967 -0.5794  1.1685  1.1689
 5835TIP3   OH239063   6.094   3.651   6.901 -0.4586 -0.2842  0.2398
 5835TIP3    H139064   6.105   3.684   6.811  1.2766  1.6831  1.1021
 5835TIP3    H239065   6.178   3.611   6.923 -1.3934 -2.2108  0.4845
 5836TIP3   OH239066   6.095   0.367   1.193 -0.3206  0.1236  0.2566
 5836TIP3    H139067   6.143   0.345   1.274  0.4886 -1.7309 -0.6500
 5836TIP3    H239068   6.009   0.394   1.223  0.4359  0.9278  1.8170
 5837TIP3   OH239069   0.128   5.425   8.109 -0.5988 -0.3100 -0.0934
 5837TIP3    H139070   0.185   5.350   8.122 -0.6999 -0.5778 -1.1320
 5837TIP3    H239071   0.147   5.483   8.182  0.2951 -0.8384  0.0975
 5838TIP3   OH239072   5.556   4.951   0.206 -0.3518 -0.3722 -0.7249
 5838TIP3    H139073   5.545   5.001   0.124 -0.8539  0.5227 -0.1267
 5838TIP3    H239074   5.615   4.880   0.182  1.9411  1.5476 -1.2083
 5839TIP3   OH239075   5.456   3.210   0.719  0.4316  0.4712 -0.2912
 5839TIP3    H139076   5.413   3.265   0.655  0.9820  0.5078 -0.6307
 5839TIP3    H239077   5.430   3.247   0.804  0.9448  1.3610 -0.5169
 5840TIP3   OH239078   6.425   2.462   8.327 -0.4848  0.0714  0.0228
 5840TIP3    H139079   6.337   2.493   8.304  0.7385  2.6101 -1.8064
 5840TIP3    H239080   6.421   2.368   8.314 -2.8968  0.1066 -0.0658
 5841TIP3   OH239081   1.920   5.045   1.085  0.0974  0.6082  0.4255
 5841TIP3    H139082   1.908   4.960   1.042  0.0268  0.9849 -0.3151
 5841TIP3    H239083   1.841   5.094   1.063  0.4258  1.0913  0.3143
 5842TIP3   OH239084   2.433   5.619   0.881 -0.0940 -0.5487  0.0125
 5842TIP3    H139085   2.409   5.568   0.959 -1.9711 -1.6792 -1.2356
 5842TIP3    H239086   2.374   5.694   0.883 -0.8321 -1.0867 -0.7926
 5843TIP3   OH239087   5.642   4.744   1.851 -0.1189 -0.3787 -0.3758
 5843TIP3    H139088   5.600   4.702   1.776  0.8940 -0.4547 -0.9293
 5843TIP3    H239089   5.598   4.829   1.859 -0.6582 -0.6265 -0.6585
 5844TIP3   OH239090   4.456   0.400   0.590  0.1229  1.2550  0.3582
 5844TIP3    H139091   4.479   0.469   0.528 -2.5297  1.2744 -0.7682
 5844TIP3    H239092   4.503   0.323   0.558 -0.7026  1.4185 -1.3955
 5845TIP3   OH239093   6.506   5.681   7.677  0.0883 -0.1389  0.1401
 5845TIP3    H139094   6.559   5.760   7.666 -1.2505  0.9044  0.9486
 5845TIP3    H239095   6.559   5.611   7.637  1.4504  1.0850 -0.2810
 5846TIP3   OH239096   6.226   4.750   0.943 -0.0637 -0.9659 -0.1237
 5846TIP3    H139097   6.197   4.677   0.889  0.0345  0.0049 -1.5324
 5846TIP3    H239098   6.152   4.767   1.002 -0.1585 -2.0641  0.0952
 5847TIP3   OH239099   3.639   5.482   6.929  0.1990  1.1601  0.7575
 5847TIP3    H139100   3.718   5.535   6.938  1.6499 -0.9064  1.0426
 5847TIP3    H239101   3.649   5.414   6.996 -0.0389 -1.2329 -1.5052
 5848TIP3   OH239102   1.226   5.966   1.944 -0.0909  0.6198 -0.3444
 5848TIP3    H139103   1.141   5.924   1.961 -0.7564  1.8785 -0.3804
 5848TIP3    H239104   1.218   6.052   1.987  1.8448  0.0942  1.2290
 5849TIP3   OH239105   5.921   3.894   6.399  0.1442  0.1972  0.0829
 5849TIP3    H139106   5.904   3.801   6.390  1.3751 -0.0381  0.0634
 5849TIP3    H239107   6.014   3.900   6.421  0.1537  1.4365 -0.2074
 5850TIP3   OH239108   2.720   0.715   7.040 -0.1398 -0.4567 -0.1100
 5850TIP3    H139109   2.668   0.680   7.113 -0.8360  0.9522  0.1214
 5850TIP3    H239110   2.800   0.747   7.081 -0.7242  0.7447  0.1415
 5851TIP3   OH239111   6.401   6.572   7.717 -0.1034  0.3534  0.8257
 5851TIP3    H139112   6.365   6.618   7.641  2.7401  0.0325 -0.8661
 5851TIP3    H239113   6.452   6.640   7.763 -0.7768  0.2463  1.7484
 5852TIP3   OH239114   4.750   3.035   0.538  0.2230  0.3914 -0.0176
 5852TIP3    H139115   4.840   3.032   0.570 -0.7849  0.4961  3.2880
 5852TIP3    H239116   4.733   2.948   0.502  1.8694  0.6626 -1.5452
 5853TIP3   OH239117   3.200   0.379   0.484 -0.0744 -0.5615  0.3720
 5853TIP3    H139118   3.230   0.462   0.448 -0.5461  0.4522  2.1658
 5853TIP3    H239119   3.108   0.394   0.507 -0.4557 -1.9063 -0.1579
 5854TIP3   OH239120   3.809   1.847   8.509  0.7425  0.0234 -0.4498
 5854TIP3    H139121   3.799   1.926   8.456 -1.7813 -2.1901 -3.6311
 5854TIP3    H239122   3.881   1.799   8.467 -0.4844 -1.1965 -1.2497
 5855TIP3   OH239123   3.387   2.811   0.281  0.5431 -0.5593  1.1809
 5855TIP3    H139124   3.398   2.904   0.262  0.7886 -0.5803  1.2184
 5855TIP3    H239125   3.294   2.794   0.264  0.2986 -0.1076  2.0049
 5856TIP3   OH239126   5.738   5.881   6.982  0.2319 -0.0383 -0.4687
 5856TIP3    H139127   5.650   5.856   6.953  0.7669  0.5883 -2.9265
 5856TIP3    H239128   5.738   5.977   6.977  0.5554  0.0785  1.2449
 5857TIP3   OH239129   3.437   6.745   0.022  0.2196  0.0645  0.1699
 5857TIP3    H139130   3.365   6.777   0.076 -1.7843 -0.5039 -2.0224
 5857TIP3    H239131   3.459   6.818  -0.035 -0.8176 -0.7385 -1.3061
 5858TIP3   OH239132   2.435   2.918   0.736 -0.2597  0.2623 -0.4411
 5858TIP3    H139133   2.348   2.929   0.774  0.4192 -0.6149  1.4895
 5858TIP3    H239134   2.478   3.003   0.751 -0.9909  0.9544 -2.0800
 5859TIP3   OH239135   6.109   2.861   0.056  0.2003  0.3242 -0.4578
 5859TIP3    H139136   6.077   2.858   0.146 -0.2431  0.2515 -0.6169
 5859TIP3    H239137   6.205   2.857   0.065  0.1235 -1.1835 -0.0471
 5860TIP3   OH239138   0.585   5.385   6.135  0.2337  0.0586  0.2492
 5860TIP3    H139139   0.528   5.415   6.063 -1.6469  2.3120  2.4838
 5860TIP3    H239140   0.660   5.445   6.131 -1.0701  1.8866  1.5732
 5861TIP3   OH239141   5.733   3.072   1.820 -0.0963  0.6458 -0.6209
 5861TIP3    H139142   5.702   3.033   1.738 -0.7474 -1.6306  0.6294
 5861TIP3    H239143   5.657   3.119   1.854 -0.6296 -0.5829 -0.0837
 5862TIP3   OH239144   5.240   3.643   7.901 -0.5464  0.2137 -0.0627
 5862TIP3    H139145   5.322   3.596   7.909 -0.7757 -0.0357  1.0021
 5862TIP3    H239146   5.173   3.575   7.897 -0.7308  0.4193 -0.5132
 5863TIP3   OH239147   4.217   6.290   7.464 -0.1481  0.2753  0.1967
 5863TIP3    H139148   4.304   6.279   7.425 -0.1380 -1.0858  0.5738
 5863TIP3    H239149   4.157   6.291   7.389  0.1209  0.5166 -0.0194
 5864TIP3   OH239150   6.263   0.385   1.799 -0.6741 -0.3431  0.5935
 5864TIP3    H139151   6.293   0.386   1.889  0.1925 -1.0252  0.3256
 5864TIP3    H239152   6.178   0.428   1.801 -0.5394 -0.1181  1.6873
 5865TIP3   OH239153   4.335   2.939   0.034 -0.3297 -0.3106  0.1468
 5865TIP3    H139154   4.281   2.988   0.095  0.6697  0.4944  0.4213
 5865TIP3    H239155   4.416   2.922   0.083 -0.2774 -1.3745 -0.2870
 5866TIP3   OH239156   4.661   4.081   1.478  0.7306 -0.2196 -0.2004
 5866TIP3    H139157   4.647   4.096   1.572 -0.4679 -1.8975 -0.0669
 5866TIP3    H239158   4.736   4.023   1.474  0.3403 -0.7329 -0.2166
 5867TIP3   OH239159   1.691   6.713   1.863 -0.3481  0.1286  0.0530
 5867TIP3    H139160   1.603   6.675   1.853 -0.1315 -0.2852 -0.3586
 5867TIP3    H239161   1.676   6.798   1.904 -0.8518 -0.3770  0.9495
 5868TIP3   OH239162   2.605   0.608   1.027  0.0022 -0.2845  0.1553
 5868TIP3    H139163   2.576   0.700   1.030 -1.0070 -0.5966  3.6273
 5868TIP3    H239164   2.524   0.558   1.032  0.5091 -1.4795 -2.2594
 5869TIP3   OH239165   4.493   1.526   8.036 -0.9433  0.0018  0.2893
 5869TIP3    H139166   4.399   1.522   8.057 -0.6605 -1.5983  1.4731
 5869TIP3    H239167   4.498   1.499   7.944 -1.6898  0.7693  0.0123
 5870TIP3   OH239168   3.543   5.407   7.323  0.1159 -0.6202 -0.0835
 5870TIP3    H139169   3.499   5.324   7.343 -0.4384 -0.6021 -1.1394
 5870TIP3    H239170   3.586   5.432   7.405 -1.2547 -0.9976  0.7796
 5871TIP3   OH239171   0.492   1.699   0.536  0.0394  0.3871 -0.2576
 5871TIP3    H139172   0.555   1.626   0.540  0.3235  0.6838  2.9245
 5871TIP3    H239173   0.543   1.772   0.501  0.7461 -0.0449 -0.1641
 5872TIP3   OH239174   3.251   2.344   7.845 -0.0876  0.0589  1.0906
 5872TIP3    H139175   3.311   2.276   7.815 -0.7139 -0.2888  0.5930
 5872TIP3    H239176   3.184   2.296   7.893 -1.5146  0.0663 -0.7583
 5873TIP3   OH239177   3.427   4.410   0.380  0.8929 -0.1695 -0.4377
 5873TIP3    H139178   3.344   4.376   0.348  0.8502  0.3149 -0.8580
 5873TIP3    H239179   3.492   4.345   0.353  0.8703  0.2831 -1.6230
 5874TIP3   OH239180   0.135   1.155   0.165 -0.0200 -0.3797  0.6497
 5874TIP3    H139181   0.213   1.208   0.149 -0.6958  0.6471  0.7456
 5874TIP3    H239182   0.156   1.106   0.245  0.6927 -0.4554  0.4312
 5875TIP3   OH239183   3.305   2.536   1.211  0.2046 -0.8829 -0.5898
 5875TIP3    H139184   3.370   2.531   1.141 -1.1551  0.0924 -1.9870
 5875TIP3    H239185   3.221   2.540   1.165 -0.6292  4.0000  0.7771
 5876TIP3   OH239186   6.494   4.069   0.485 -0.7489 -0.4462  0.3805
 5876TIP3    H139187   6.522   4.159   0.471  0.0046 -0.5978  0.8804
 5876TIP3    H239188   6.427   4.076   0.553 -1.3018 -0.1811 -0.1813
 5877TIP3   OH239189   0.694   3.277   7.656 -0.5230 -0.1430  0.0776
 5877TIP3    H139190   0.611   3.234   7.677 -0.4564 -0.6387 -0.6301
 5877TIP3    H239191   0.711   3.335   7.730 -0.9770 -0.8108  0.7133
 5878TIP3   OH239192   2.037   6.227   8.333  0.0546  0.9176  0.1571
 5878TIP3    H139193   2.058   6.272   8.251  1.8567 -0.3527 -0.1156
 5878TIP3    H239194   2.096   6.267   8.398 -0.4938  1.0480  0.5863
 5879TIP3   OH239195   1.646   3.425   7.143 -0.2456  0.0676  0.0707
 5879TIP3    H139196   1.596   3.498   7.178  0.4987  0.3943  0.4839
 5879TIP3    H239197   1.693   3.461   7.068 -1.4674 -0.5147 -1.0048
 5880TIP3   OH239198   6.593   2.677   7.323  0.0564 -0.3988  0.1263
 5880TIP3    H139199   6.523   2.729   7.286 -0.0667 -0.8190 -0.2427
 5880TIP3    H239200   6.554   2.590   7.335  0.4740 -0.6029  0.0300
 5881TIP3   OH239201   1.033   6.798   7.945 -0.7482 -0.1281  0.0332
 5881TIP3    H139202   1.085   6.856   7.999  0.8274 -0.0903 -1.4466
 5881TIP3    H239203   0.948   6.842   7.937 -0.1605  1.0935  0.3618
 5882TIP3   OH239204   2.271   1.034   7.968  0.3171  0.5162  0.1279
 5882TIP3    H139205   2.268   0.960   7.908  0.5097  1.5490 -1.2086
 5882TIP3    H239206   2.274   1.111   7.911 -2.7355  1.7280  1.3928
 5883TIP3   OH239207   5.856   3.439   7.172  0.0762 -0.2221 -0.0041
 5883TIP3    H139208   5.819   3.428   7.260 -0.0264 -0.3019 -0.0577
 5883TIP3    H239209   5.888   3.352   7.148  1.4031  0.0885  0.5360
 5884TIP3   OH239210   0.230   2.638   1.778  0.5678  0.3165  0.2481
 5884TIP3    H139211   0.188   2.608   1.858 -0.4101  0.4873 -0.1972
 5884TIP3    H239212   0.163   2.632   1.711  2.0497 -2.3725 -1.1868
 5885TIP3   OH239213   4.273   5.917   0.918  0.0708 -0.5012 -0.2453
 5885TIP3    H139214   4.221   5.996   0.908  0.0954 -0.6391 -1.5958
 5885TIP3    H239215   4.338   5.922   0.848  0.0494 -1.7262 -0.3735
 5886TIP3   OH239216   0.870   4.563   8.168  0.3785  0.2848 -0.3334
 5886TIP3    H139217   0.901   4.553   8.258 -4.0763 -2.2074  1.2965
 5886TIP3    H239218   0.835   4.652   8.164  0.3215  0.3079  0.5446
 5887TIP3   OH239219   2.322   2.797   1.046 -0.0186  0.0245 -0.5278
 5887TIP3    H139220   2.234   2.794   1.084 -1.2398 -0.9882 -3.2084
 5887TIP3    H239221   2.320   2.873   0.988  1.7936  1.5349  1.2602
 5888TIP3   OH239222   5.827   3.627   6.624 -0.2138  0.4395  0.6414
 5888TIP3    H139223   5.918   3.654   6.611 -0.3661  0.5837 -0.1293
 5888TIP3    H239224   5.791   3.621   6.536 -1.2537  1.4071  0.9771
 5889TIP3   OH239225   0.503   6.080   7.396 -0.0234  0.0030 -0.0552
 5889TIP3    H139226   0.418   6.060   7.435 -0.0666  1.4834  0.6837
 5889TIP3    H239227   0.487   6.076   7.302 -0.1202 -2.7986  0.0003
 5890TIP3   OH239228   3.094   5.897   1.485 -0.2379 -0.3939 -0.5030
 5890TIP3    H139229   3.184   5.924   1.465 -0.3056 -0.2535 -0.6159
 5890TIP3    H239230   3.044   5.918   1.406 -0.6399  0.7746  0.0374
 5891TIP3   OH239231   5.415   3.928   6.890 -0.0714 -0.3865  0.2900
 5891TIP3    H139232   5.485   3.966   6.942 -1.7986 -0.0936  2.5683
 5891TIP3    H239233   5.344   3.992   6.894 -0.9796 -1.2850 -0.7402
 5892TIP3   OH239234   1.112   6.879   0.415 -0.4280 -0.2444  0.6449
 5892TIP3    H139235   1.180   6.943   0.434 -0.6486  1.1890 -2.7864
 5892TIP3    H239236   1.073   6.861   0.501  3.1526  0.0239  2.5269
 5893TIP3   OH239237   6.580   0.401   2.013 -0.1400  0.1695  0.5352
 5893TIP3    H139238   6.494   0.375   2.045 -0.4355  1.0791  0.5011
 5893TIP3    H239239   6.579   0.497   2.016  1.4630  0.1958  2.1403
 5894TIP3   OH239240   0.139   5.607   1.019 -0.6949 -0.2456 -0.0018
 5894TIP3    H139241   0.101   5.692   0.995 -0.8110 -0.3211 -0.0868
 5894TIP3    H239242   0.232   5.625   1.031 -0.6100 -0.2315 -0.6472
 5895TIP3   OH239243   2.220   2.668   6.926 -0.1730 -0.4168 -0.1275
 5895TIP3    H139244   2.270   2.725   6.984 -1.5965  0.2049  0.5361
 5895TIP3    H239245   2.223   2.583   6.968 -1.0033 -0.0198  0.7626
 5896TIP3   OH239246   1.726   4.707   8.373  0.3818 -0.2314 -0.3096
 5896TIP3    H139247   1.677   4.788   8.361 -1.4268 -1.5383 -2.5398
 5896TIP3    H239248   1.812   4.725   8.333  0.6799  1.0975  0.8538
 5897TIP3   OH239249   6.489   0.337   7.281 -0.0153  0.1367 -0.4098
 5897TIP3    H139250   6.438   0.410   7.316  1.8085  0.9763  0.6346
 5897TIP3    H239251   6.495   0.275   7.354 -1.6610 -1.1845 -1.3278
 5898TIP3   OH239252   6.706   3.073   6.560 -0.0606  0.0064 -0.1082
 5898TIP3    H139253   6.684   3.031   6.644 -0.1779  0.2590 -0.0103
 5898TIP3    H239254   6.667   3.160   6.567 -1.4392 -0.5074 -1.0443
 5899TIP3   OH239255   0.657   3.082   7.354  0.2343  0.3457  0.3524
 5899TIP3    H139256   0.655   3.082   7.449  1.1607 -0.2862  0.3900
 5899TIP3    H239257   0.579   3.034   7.327  0.6000 -0.5367  0.8305
 5900TIP3   OH239258   0.523   3.382   8.028  0.0560  0.5440 -0.0471
 5900TIP3    H139259   0.467   3.395   7.951  2.5929 -0.0427 -2.1245
 5900TIP3    H239260   0.610   3.367   7.992  0.8942 -2.6406  2.8259
 5901TIP3   OH239261   5.485   4.628   2.942  0.5281 -0.1742  0.2652
 5901TIP3    H139262   5.449   4.612   2.854  0.5906 -0.5141  0.3002
 5901TIP3    H239263   5.452   4.715   2.965 -1.3649 -0.9849  0.8271
 5902TIP3   OH239264   6.616   3.347   1.002  0.4880 -0.4164 -0.2088
 5902TIP3    H139265   6.590   3.271   0.950  1.3972 -0.3344 -0.8091
 5902TIP3    H239266   6.710   3.355   0.988  0.4152  0.7999 -0.1283
 5903TIP3   OH239267   3.368   5.970   1.465  0.1546  0.1946  0.2692
 5903TIP3    H139268   3.367   6.011   1.379 -0.5345  1.1750  0.7265
 5903TIP3    H239269   3.457   5.938   1.476 -0.0483 -1.0529 -1.3126
 5904TIP3   OH239270   0.521   1.674   1.448  0.0665 -0.2314  0.2182
 5904TIP3    H139271   0.610   1.706   1.439  0.2324 -0.3244  1.3157
 5904TIP3    H239272   0.468   1.731   1.392  1.2771 -2.7157 -3.8700
 5905TIP3   OH239273   6.854   5.276   7.933 -0.5643 -0.2448  0.3653
 5905TIP3    H139274   6.857   5.193   7.981 -0.1909  0.1487  1.0390
 5905TIP3    H239275   6.897   5.339   7.991 -0.6536  0.3770 -0.2288
 5906TIP3   OH239276   6.131   6.211   0.120 -0.3942 -0.2409 -0.2097
 5906TIP3    H139277   6.072   6.232   0.193  0.6788 -0.3124  0.6997
 5906TIP3    H239278   6.093   6.131   0.082 -1.4310  0.2607 -0.2780
 5907TIP3   OH239279   0.128   1.294   0.487  0.2837 -0.1146  0.1946
 5907TIP3    H139280   0.122   1.209   0.445  2.7985 -0.5702  0.6148
 5907TIP3    H239281   0.107   1.277   0.579 -3.5066  0.5804 -0.3942
 5908TIP3   OH239282   4.393   5.071   1.736  0.8952 -0.4426  0.4880
 5908TIP3    H139283   4.375   5.157   1.774  1.3599 -0.6177  1.1178
 5908TIP3    H239284   4.484   5.076   1.706  0.6085 -0.3814 -0.4111
 5909TIP3   OH239285   2.488   6.568   1.177  0.7845  0.1321  0.1688
 5909TIP3    H139286   2.471   6.632   1.245 -1.3883  0.8777 -0.9876
 5909TIP3    H239287   2.468   6.484   1.217  1.6238  0.3369  1.0607
 5910TIP3   OH239288   0.166   5.004   6.623  0.1230 -0.3752 -0.8661
 5910TIP3    H139289   0.103   5.033   6.558 -2.1428 -1.7526  0.5759
 5910TIP3    H239290   0.197   4.920   6.589 -2.3950 -1.9858  0.4960
 5911TIP3   OH239291   3.964   0.369   2.081 -0.4688  0.3664  0.7814
 5911TIP3    H139292   3.885   0.396   2.127 -0.5938  1.4524 -0.0285
 5911TIP3    H239293   3.963   0.420   1.999  1.4954  1.0835  1.1442
 5912TIP3   OH239294   6.214   2.678   1.954 -0.1250 -0.1056 -0.9383
 5912TIP3    H139295   6.290   2.733   1.975 -0.9584  0.8766 -0.3508
 5912TIP3    H239296   6.212   2.613   2.024 -0.8830  1.0268  0.1376
 5913TIP3   OH239297   1.545   1.355   0.846  0.0369 -0.1336  0.0326
 5913TIP3    H139298   1.502   1.285   0.797 -1.2115  0.1634  0.6691
 5913TIP3    H239299   1.602   1.309   0.908 -2.6619 -0.7676  2.2233
 5914TIP3   OH239300   0.296   3.406   0.998 -0.2498  0.4785  0.6484
 5914TIP3    H139301   0.302   3.495   1.031  0.3324  0.7206 -0.0970
 5914TIP3    H239302   0.363   3.400   0.930 -1.1421 -0.1261 -0.2140
 5915TIP3   OH239303   4.198   5.456   6.613 -0.0325  0.1769  0.5923
 5915TIP3    H139304   4.267   5.487   6.672  0.6489  1.4454 -0.7845
 5915TIP3    H239305   4.118   5.465   6.663  0.3126  2.8474  0.8403
 5916TIP3   OH239306   3.983   3.638   7.208 -0.4060  0.2093 -0.5069
 5916TIP3    H139307   4.061   3.649   7.154 -0.1978  2.0384  0.1130
 5916TIP3    H239308   3.962   3.726   7.239 -1.2387 -0.5951  1.3899
 5917TIP3   OH239309   6.540   3.582   6.639  0.5952  0.0927 -0.3152
 5917TIP3    H139310   6.532   3.547   6.551  2.0685 -0.5896 -0.2001
 5917TIP3    H239311   6.478   3.655   6.641 -1.5584 -1.6053 -0.9812
 5918TIP3   OH239312   4.587   5.782   7.748 -0.0148  0.1575 -0.2375
 5918TIP3    H139313   4.560   5.864   7.709 -0.7593  0.2413  0.4189
 5918TIP3    H239314   4.652   5.806   7.814  1.5454 -0.0232 -1.6670
 5919TIP3   OH239315   2.542   2.931   1.042 -0.1337 -0.2795 -0.2494
 5919TIP3    H139316   2.472   2.873   1.070  0.8623 -1.2515  0.3329
 5919TIP3    H239317   2.603   2.932   1.116  1.5871 -1.2895 -1.5574
 5920TIP3   OH239318   1.262   6.616   0.735  0.3858  0.3061  0.2016
 5920TIP3    H139319   1.260   6.606   0.640 -0.2214  0.5345  0.1863
 5920TIP3    H239320   1.291   6.706   0.749 -0.2789  0.5193  0.2165
 5921TIP3   OH239321   3.267   2.448   8.289  0.4209  0.1516 -0.7250
 5921TIP3    H139322   3.190   2.394   8.275  0.3329  0.3946 -1.1958
 5921TIP3    H239323   3.264   2.513   8.218 -0.7215  2.2360  1.1105
 5922TIP3   OH239324   1.172   0.712   0.504  0.9631  0.7214 -0.3739
 5922TIP3    H139325   1.234   0.717   0.431  0.2081 -0.0088 -1.0813
 5922TIP3    H239326   1.086   0.729   0.464  0.2393 -1.9143 -0.1034
 5923TIP3   OH239327   5.156   5.557   1.014  0.0703 -0.3840 -0.1019
 5923TIP3    H139328   5.210   5.590   0.942  2.3339 -1.6675  0.9013
 5923TIP3    H239329   5.182   5.611   1.089 -0.0523 -1.0071  0.3914
 5924TIP3   OH239330   5.303   6.293   6.574 -0.4179  0.7436 -0.1192
 5924TIP3    H139331   5.383   6.328   6.534 -1.4848  0.4463 -2.7084
 5924TIP3    H239332   5.329   6.207   6.608 -0.1704 -0.7337 -3.6186
 5925TIP3   OH239333   3.394   1.219   1.512 -0.5475 -0.5159 -0.2495
 5925TIP3    H139334   3.300   1.212   1.494 -0.7257 -0.4121  0.6002
 5925TIP3    H239335   3.399   1.254   1.600  0.2897  3.4129 -1.6478
 5926TIP3   OH239336   5.965   0.259   0.478  0.2093 -0.4976  0.2530
 5926TIP3    H139337   5.918   0.175   0.472  1.1726 -1.0674  0.5496
 5926TIP3    H239338   5.945   0.302   0.395 -0.5936 -0.8542  0.2438
 5927TIP3   OH239339   6.141   3.370   7.119  0.5070 -0.2206 -0.1973
 5927TIP3    H139340   6.169   3.433   7.053 -1.1514 -0.3292 -1.0788
 5927TIP3    H239341   6.197   3.294   7.104  1.5632  0.5020 -0.0652
 5928TIP3   OH239342   2.117   2.391   2.139 -0.4981 -0.0338 -0.7403
 5928TIP3    H139343   2.050   2.328   2.109 -0.9395 -0.9661  1.9144
 5928TIP3    H239344   2.088   2.416   2.227  3.0406 -1.1500  0.9108
 5929TIP3   OH239345   2.441   3.590   8.191 -0.0287 -0.8913 -0.3451
 5929TIP3    H139346   2.456   3.597   8.096 -0.1132  0.1879 -0.2945
 5929TIP3    H239347   2.480   3.670   8.227  0.3931 -1.5107  0.5862
 5930TIP3   OH239348   4.249   4.216   1.124  0.0854  0.0654  0.2444
 5930TIP3    H139349   4.195   4.293   1.107  0.2732  0.4379  1.2786
 5930TIP3    H239350   4.279   4.227   1.214  1.8955 -0.1205 -0.2951
 5931TIP3   OH239351   0.482   3.853   1.838 -0.0039  0.0091  0.7013
 5931TIP3    H139352   0.389   3.858   1.820 -0.1449 -0.9147  1.1296
 5931TIP3    H239353   0.489   3.806   1.921  0.8528 -0.3870  0.4315
 5932TIP3   OH239354   1.911   1.534   7.455 -0.4289 -0.0856 -0.4634
 5932TIP3    H139355   2.005   1.521   7.462 -0.2261  0.4086 -1.9792
 5932TIP3    H239356   1.897   1.626   7.478 -0.4086  0.0855 -1.0966
 5933TIP3   OH239357   2.612   1.257   8.015 -0.1358 -0.3430 -0.2121
 5933TIP3    H139358   2.556   1.217   8.081  1.1044  0.5751  1.4588
 5933TIP3    H239359   2.551   1.303   7.957 -1.2879 -1.6814 -0.1224
 5934TIP3   OH239360   2.122   2.576   1.737 -0.3625 -0.5281 -0.3048
 5934TIP3    H139361   2.203   2.558   1.784 -0.9836  1.5913  1.7893
 5934TIP3    H239362   2.064   2.504   1.763  0.0201 -0.5909  0.4165
 5935TIP3   OH239363   1.751   1.125   8.165  0.8529  0.1085  0.7269
 5935TIP3    H139364   1.731   1.033   8.151  1.0716  0.1894 -0.1684
 5935TIP3    H239365   1.843   1.127   8.192  0.3513 -0.0734  2.6419
 5936TIP3   OH239366   6.121   5.021   0.283 -0.3541  0.4374 -0.0547
 5936TIP3    H139367   6.163   5.106   0.292 -0.6843  0.7120 -0.9796
 5936TIP3    H239368   6.051   5.021   0.348 -0.1634  0.7521  0.1494
 5937TIP3   OH239369   0.287   0.869   0.772  0.4908 -0.1112 -0.3954
 5937TIP3    H139370   0.278   0.859   0.677 -0.2528  0.1422 -0.3605
 5937TIP3    H239371   0.288   0.963   0.786 -0.7480 -0.1319 -0.0504
 5938TIP3   OH239372   2.339   4.742   8.548  0.0108 -0.1841 -0.2302
 5938TIP3    H139373   2.315   4.759   8.640 -0.5505 -1.2064 -0.1600
 5938TIP3    H239374   2.257   4.755   8.500  0.2956  0.3078 -0.5866
 5939TIP3   OH239375   3.176   2.785   1.899 -0.5269 -0.2340 -0.8399
 5939TIP3    H139376   3.247   2.725   1.876 -0.9393 -0.3645 -1.8405
 5939TIP3    H239377   3.147   2.757   1.986  2.2193  1.3412  0.6999
 5940TIP3   OH239378   0.603   1.572   7.623 -0.5478  0.0632 -0.6690
 5940TIP3    H139379   0.526   1.629   7.630 -0.4172  0.1281  0.3686
 5940TIP3    H239380   0.665   1.608   7.686 -0.1493 -0.7433 -0.5886
 5941TIP3   OH239381   6.614   2.196   6.816 -0.3403 -0.1623 -0.2898
 5941TIP3    H139382   6.590   2.250   6.740 -0.0319  0.5042  0.0771
 5941TIP3    H239383   6.537   2.199   6.873  0.0340  0.7331  0.1918
 5942TIP3   OH239384   1.584   6.652   2.298  0.3269  0.5155 -0.1239
 5942TIP3    H139385   1.600   6.559   2.283  1.5801  0.9378 -1.6001
 5942TIP3    H239386   1.628   6.671   2.381 -2.5222 -0.7962  1.8677
 5943TIP3   OH239387   4.760   2.907   7.811  0.3556 -0.4193  0.0102
 5943TIP3    H139388   4.720   2.975   7.758 -0.0239  0.0909  0.9298
 5943TIP3    H239389   4.817   2.954   7.872  1.8375 -1.0808 -0.7976
 5944TIP3   OH239390   3.981   4.502   8.412 -0.1730  0.1169  1.0632
 5944TIP3    H139391   3.940   4.416   8.404 -1.2678  0.6906  0.0546
 5944TIP3    H239392   4.066   4.485   8.451 -0.7422 -1.3145  1.7609
 5945TIP3   OH239393   0.567   1.459   7.158  0.0094  0.1815  0.4388
 5945TIP3    H139394   0.516   1.480   7.080 -1.1097 -0.0089  1.1085
 5945TIP3    H239395   0.553   1.533   7.217  0.2679 -0.0117  0.7460
 5946TIP3   OH239396   2.513   3.674   1.096 -0.3053 -0.4398 -0.2157
 5946TIP3    H139397   2.440   3.735   1.094  1.6795  2.1182  0.7044
 5946TIP3    H239398   2.512   3.638   1.185 -1.3168 -1.6425 -0.6795
 5947TIP3   OH239399   3.416   2.464   7.095  0.1984  0.3929 -0.6554
 5947TIP3    H139400   3.337   2.469   7.150 -0.7914  1.2393 -2.0783
 5947TIP3    H239401   3.488   2.482   7.155 -0.7147 -0.0178  0.6190
 5948TIP3   OH239402   6.409   2.115   7.764 -0.4588  0.7107  0.0552
 5948TIP3    H139403   6.427   2.192   7.709 -0.3603  1.1952  0.7525
 5948TIP3    H239404   6.472   2.049   7.734 -1.0804  0.6207 -1.0971
 5949TIP3   OH239405   5.920   0.701   7.947  0.2498  1.2021  0.3957
 5949TIP3    H139406   5.853   0.633   7.949  3.3916 -2.2421  0.3358
 5949TIP3    H239407   5.965   0.692   8.031  1.2671  2.7434  0.0554
 5950TIP3   OH239408   1.325   0.243   1.577  0.2243  0.5284  0.5024
 5950TIP3    H139409   1.382   0.186   1.630  0.8056  2.4962  2.1413
 5950TIP3    H239410   1.263   0.280   1.640 -1.8049 -0.2040 -0.9580
 5951TIP3   OH239411   5.069   3.235   0.998 -0.2577 -0.0770 -0.2765
 5951TIP3    H139412   4.994   3.268   0.947  2.5241  1.5719 -3.8169
 5951TIP3    H239413   5.086   3.148   0.962 -0.7515 -0.6773  0.9054
 5952TIP3   OH239414   4.605   6.179   0.890  0.0528 -0.3102 -0.0723
 5952TIP3    H139415   4.693   6.165   0.925  0.4668  2.0071 -0.0280
 5952TIP3    H239416   4.619   6.226   0.807 -1.0574 -2.7421 -1.7558
 5953TIP3   OH239417   5.417   5.262   1.028  0.1155  0.1889 -0.0544
 5953TIP3    H139418   5.380   5.220   0.950 -1.2352 -0.2703  0.8003
 5953TIP3    H239419   5.380   5.350   1.027 -0.7591 -0.1539  0.6055
 5954TIP3   OH239420   4.870   6.560   6.649  0.1882  0.4179 -0.1830
 5954TIP3    H139421   4.853   6.474   6.610 -1.2246  1.4482 -2.0224
 5954TIP3    H239422   4.946   6.593   6.602 -0.9412  1.2704 -1.4779
 5955TIP3   OH239423   3.865   3.887   1.063  0.1244  0.0838 -0.0761
 5955TIP3    H139424   3.938   3.825   1.066 -1.0481 -1.3080  0.5109
 5955TIP3    H239425   3.819   3.867   0.982 -1.9075 -1.8204  1.4474
 5956TIP3   OH239426   0.120   2.259   0.796 -0.3264  0.4141 -0.2976
 5956TIP3    H139427   0.196   2.205   0.815 -0.9525 -1.2586 -2.1722
 5956TIP3    H239428   0.055   2.232   0.861 -0.1103  0.0740 -0.2202
 5957TIP3   OH239429   1.233   4.868   8.112  0.3139  0.1921  0.1561
 5957TIP3    H139430   1.279   4.953   8.118 -0.8295  0.8697 -0.3895
 5957TIP3    H239431   1.270   4.827   8.034  0.8521  0.2006  0.4019
 5958TIP3   OH239432   6.604   6.798   2.449 -0.3380 -0.1663  0.0664
 5958TIP3    H139433   6.665   6.754   2.389  0.6984 -0.2096  1.1172
 5958TIP3    H239434   6.549   6.727   2.482  0.2195 -0.4275  0.4624
 5959TIP3   OH239435   3.414   0.262   1.572  0.0293 -0.1114  0.0242
 5959TIP3    H139436   3.348   0.297   1.632  1.3014  1.1917  0.7455
 5959TIP3    H239437   3.460   0.195   1.624  1.3762  1.2758  0.7199
 5960TIP3   OH239438   6.348   0.504   0.048  0.5452  0.1610 -0.5073
 5960TIP3    H139439   6.364   0.416   0.015 -1.1961 -0.1276 -0.7173
 5960TIP3    H239440   6.256   0.521   0.026  0.2912  1.2790  1.1905
 5961TIP3   OH239441   5.332   0.036   6.975 -0.5691  0.1496  1.6684
 5961TIP3    H139442   5.423   0.044   7.005 -0.5379 -1.8096  2.2477
 5961TIP3    H239443   5.325  -0.054   6.943 -1.6000  1.0693 -0.9525
 5962TIP3   OH239444   3.366   2.273   0.714 -0.6025  0.5182 -0.3469
 5962TIP3    H139445   3.439   2.280   0.654 -1.3537  2.3224 -1.1294
 5962TIP3    H239446   3.312   2.202   0.680  0.2919 -0.1881 -0.2980
 5963TIP3   OH239447   6.013   4.846   1.101 -0.0784 -0.4052  0.7982
 5963TIP3    H139448   5.956   4.888   1.037  1.8337 -0.8178 -1.2892
 5963TIP3    H239449   5.992   4.890   1.184 -0.2090  2.6654 -0.7246
 5964TIP3   OH239450   1.065   4.943   1.184  0.7775 -0.2936  0.4151
 5964TIP3    H139451   1.022   4.865   1.148  0.7122 -0.2512  0.4027
 5964TIP3    H239452   1.008   4.972   1.255  1.8283 -1.4671  1.8118
 5965TIP3   OH239453   6.667   4.070   0.789  0.3806  0.3601  0.1774
 5965TIP3    H139454   6.724   3.994   0.796 -0.0941  0.0025  0.1797
 5965TIP3    H239455   6.681   4.118   0.871 -0.7274 -0.7159  1.0322
 5966TIP3   OH239456   1.053   5.495   0.537 -0.0553  0.3622  0.4843
 5966TIP3    H139457   0.979   5.477   0.478  0.0659 -0.4756  0.5732
 5966TIP3    H239458   1.011   5.517   0.621 -0.2318  1.7972  0.0361
 5967TIP3   OH239459   4.768   1.279   7.691  0.8856  0.2307 -0.2007
 5967TIP3    H139460   4.828   1.219   7.646 -0.9900  0.4038 -3.2207
 5967TIP3    H239461   4.713   1.314   7.621 -0.6089  2.5681  1.9837
 5968TIP3   OH239462   5.926   4.948   2.083 -0.1680  0.1139  0.0359
 5968TIP3    H139463   5.974   4.866   2.097  0.0446  0.3266  0.5877
 5968TIP3    H239464   5.888   4.969   2.169 -2.2311 -0.6481 -0.6435
 5969TIP3   OH239465   4.207   5.799   1.160 -0.1633  0.3015  0.4134
 5969TIP3    H139466   4.205   5.893   1.174  0.5877  0.3242  0.4282
 5969TIP3    H239467   4.239   5.789   1.070 -0.1226  0.0617  0.4543
 5970TIP3   OH239468   3.164   0.215   7.849 -0.1560 -0.4476 -0.3091
 5970TIP3    H139469   3.069   0.219   7.846 -0.1860  0.3522  0.9733
 5970TIP3    H239470   3.183   0.161   7.926  0.4282 -0.9681 -0.8082
 5971TIP3   OH239471   5.646   2.440   8.474  0.0367 -0.1617  0.2083
 5971TIP3    H139472   5.551   2.443   8.460  0.1296  2.6609 -0.5446
 5971TIP3    H239473   5.658   2.482   8.560  0.6353  0.7424 -0.2977
 5972TIP3   OH239474   5.072   4.031   0.463 -0.4575  0.1267 -0.3426
 5972TIP3    H139475   5.024   3.972   0.405 -0.0625  0.7545 -1.3248
 5972TIP3    H239476   5.153   4.051   0.416  0.8282 -0.9382  1.2920
 5973TIP3   OH239477   3.148   3.601   7.975 -0.7571 -0.1796 -0.3482
 5973TIP3    H139478   3.193   3.524   8.008  2.5039  0.6675 -2.3860
 5973TIP3    H239479   3.175   3.672   8.034 -1.7305 -0.0888  0.0231
 5974TIP3   OH239480   2.532   4.992   8.467  0.5249  0.5405 -0.2403
 5974TIP3    H139481   2.540   5.026   8.378 -0.3753  2.4653  0.3426
 5974TIP3    H239482   2.439   4.970   8.476  0.4355  1.1408  0.4454
 5975TIP3   OH239483   6.429   3.904   7.064  0.5275  0.1063  0.1271
 5975TIP3    H139484   6.380   3.894   7.146  0.7915 -0.0531  0.2639
 5975TIP3    H239485   6.465   3.818   7.047  0.5064  0.1502 -0.1385
 5976TIP3   OH239486   1.859   5.183   0.734  0.1955 -0.3680  0.3920
 5976TIP3    H139487   1.784   5.227   0.773 -0.7300 -2.0555  0.6230
 5976TIP3    H239488   1.934   5.237   0.759 -0.7061  0.2122  2.0200
 5977TIP3   OH239489   0.992   4.039   1.465 -0.4450 -0.1864  0.2455
 5977TIP3    H139490   0.949   3.969   1.514  1.0486  0.0365  1.9787
 5977TIP3    H239491   1.020   3.998   1.383 -0.6326 -1.3068  0.7314
 5978TIP3   OH239492   3.241   4.500   2.521 -0.8814 -0.2157  0.2959
 5978TIP3    H139493   3.242   4.404   2.526 -1.6888 -0.2338  0.2436
 5978TIP3    H239494   3.227   4.519   2.429 -0.3645 -0.0434  0.2534
 5979TIP3   OH239495   6.369   1.776   8.056 -0.6351  0.0311  0.3760
 5979TIP3    H139496   6.390   1.691   8.094 -0.9412 -0.4144 -0.4182
 5979TIP3    H239497   6.274   1.773   8.041 -0.3523 -0.3606 -1.6482
 5980TIP3   OH239498   6.529   4.333   0.457  0.3157 -0.6064  0.6089
 5980TIP3    H139499   6.621   4.360   0.463 -0.2853  1.3312  2.0636
 5980TIP3    H239500   6.486   4.407   0.412 -0.3590 -2.0459 -1.2337
 5981TIP3   OH239501   6.742   1.648   7.243 -0.6374 -0.2203  0.4898
 5981TIP3    H139502   6.722   1.585   7.174 -1.2215 -0.3111  0.7354
 5981TIP3    H239503   6.837   1.660   7.238 -0.8070  0.7942 -1.2028
 5982TIP3   OH239504   3.711   2.049   0.620  0.4830  0.0490  0.1142
 5982TIP3    H139505   3.741   1.988   0.552  0.2001 -0.9421  0.8508
 5982TIP3    H239506   3.630   2.010   0.653  1.7571 -0.7405  2.5641
 5983TIP3   OH239507   3.763   0.338   1.796  0.8282 -0.4071  0.3579
 5983TIP3    H139508   3.784   0.431   1.790  3.7922 -0.6486  3.6832
 5983TIP3    H239509   3.816   0.297   1.729  0.5058  0.1553 -0.2558
 5984TIP3   OH239510   1.500   6.256   1.535 -0.3917  0.1191 -0.0638
 5984TIP3    H139511   1.469   6.167   1.516 -2.2977  1.0740 -1.8002
 5984TIP3    H239512   1.556   6.278   1.460 -0.0855  0.4677  0.2643
 5985TIP3   OH239513   2.373   5.384   7.288 -0.3366  0.5744  0.6588
 5985TIP3    H139514   2.280   5.385   7.313 -1.2713 -2.5069 -1.9756
 5985TIP3    H239515   2.418   5.346   7.363 -1.1683  1.9421  1.9009
 5986TIP3   OH239516   2.357   6.233   8.459  0.3131  0.3403  0.0546
 5986TIP3    H139517   2.381   6.241   8.551 -1.1300 -1.3997  0.6346
 5986TIP3    H239518   2.330   6.322   8.434 -0.2516  0.6403  1.6136
 5987TIP3   OH239519   3.497   0.833   8.046 -0.7210 -0.2744 -0.3754
 5987TIP3    H139520   3.467   0.745   8.021 -0.1157 -0.1358 -1.6968
 5987TIP3    H239521   3.568   0.852   7.985  0.9286  0.1034  1.5578
 5988TIP3   OH239522   1.608   2.756   0.815 -0.4084 -0.1249 -0.0845
 5988TIP3    H139523   1.640   2.667   0.830 -0.2384  0.1070  1.0116
 5988TIP3    H239524   1.663   2.811   0.871 -1.0614  0.5758 -0.1172
 5989TIP3   OH239525   0.819   5.898   1.470 -0.0178 -0.2100  0.1262
 5989TIP3    H139526   0.758   5.921   1.540 -1.1130 -0.0570 -0.8390
 5989TIP3    H239527   0.773   5.831   1.420  1.9060 -2.4629  1.1621
 5990TIP3   OH239528   1.884   0.153   0.750  0.2443 -0.1221  0.6253
 5990TIP3    H139529   1.966   0.109   0.730  0.4571  0.5589 -0.0620
 5990TIP3    H239530   1.906   0.215   0.820  0.7479  1.3052 -0.7369
 5991TIP3   OH239531   2.474   4.886   1.584 -0.2718  0.2542 -0.4110
 5991TIP3    H139532   2.420   4.937   1.523 -0.4163 -0.3582 -0.8106
 5991TIP3    H239533   2.521   4.951   1.636 -0.2462  0.7906 -1.0946
 5992TIP3   OH239534   0.394   3.429   8.257 -0.2719  0.6252  0.1643
 5992TIP3    H139535   0.458   3.388   8.315 -1.9350 -0.6131  1.2138
 5992TIP3    H239536   0.436   3.429   8.170  1.5088  0.7989  0.9864
 5993TIP3   OH239537   5.313   6.649   8.036  0.2894 -0.3873  0.4206
 5993TIP3    H139538   5.399   6.609   8.027 -0.9866 -3.2996  0.1942
 5993TIP3    H239539   5.262   6.615   7.962 -1.5250 -0.0923  1.4598
 5994TIP3   OH239540   4.005   6.630   7.242  0.1995 -0.2015  0.0028
 5994TIP3    H139541   4.085   6.629   7.293 -0.9154 -1.9399  1.8681
 5994TIP3    H239542   3.941   6.675   7.297 -0.7637 -1.1382 -0.3151
 5995TIP3   OH239543   2.831   1.357   0.896 -0.7581  0.3808  0.0610
 5995TIP3    H139544   2.918   1.398   0.900 -0.5794 -0.0993  1.9329
 5995TIP3    H239545   2.849   1.268   0.867 -0.8138  0.6800 -0.9532
 5996TIP3   OH239546   2.628   1.725   6.221 -0.5103 -0.0082 -0.0958
 5996TIP3    H139547   2.605   1.775   6.300  1.1083  0.3654  0.1605
 5996TIP3    H239548   2.661   1.791   6.160  0.1354 -0.5561 -0.3484
 5997TIP3   OH239549   2.355   5.449   8.156 -0.7430 -0.1776  0.2946
 5997TIP3    H139550   2.397   5.416   8.235 -0.9795  0.3842  0.6670
 5997TIP3    H239551   2.261   5.439   8.172 -0.7691 -1.3024 -0.4764
 5998TIP3   OH239552   2.267   6.407   0.982 -0.3392 -0.1459  0.1117
 5998TIP3    H139553   2.349   6.373   1.016  0.2511  0.5110 -0.6326
 5998TIP3    H239554   2.291   6.459   0.906 -1.4966 -0.4001 -0.4606
 5999TIP3   OH239555   6.630   0.017   8.277 -0.7772  0.0420  0.2748
 5999TIP3    H139556   6.607   0.110   8.279 -0.5313  0.1984 -1.9456
 5999TIP3    H239557   6.712   0.011   8.325  0.4021  1.4008 -1.4636
 6000TIP3   OH239558   6.638   6.550   8.249 -0.2145 -0.3170 -0.1884
 6000TIP3    H139559   6.656   6.457   8.239 -0.2313 -0.5000  1.2294
 6000TIP3    H239560   6.710   6.583   8.302 -0.4339  0.3910 -0.3198
 6001TIP3   OH239561   6.074   0.847   2.228 -0.0923  0.0356 -0.7221
 6001TIP3    H139562   5.993   0.897   2.243  0.8463  1.1925  0.6600
 6001TIP3    H239563   6.131   0.907   2.181 -0.1453 -0.9261 -2.0805
 6002TIP3   OH239564   6.117   2.126   1.936 -0.7001 -0.1505  0.0775
 6002TIP3    H139565   6.063   2.170   1.871  0.6598  1.2423 -0.1731
 6002TIP3    H239566   6.059   2.111   2.011 -1.3009  1.8848  0.0717
 6003TIP3   OH239567   1.573   2.945   6.622  0.1130 -0.1075  0.2600
 6003TIP3    H139568   1.482   2.977   6.622  0.4249  0.9404 -2.1019
 6003TIP3    H239569   1.573   2.874   6.558  1.0394  0.0969  0.0299
 6004TIP3   OH239570   4.105   6.186   0.867 -0.1648  0.0120 -0.8293
 6004TIP3    H139571   4.036   6.253   0.863  1.3552  1.7903  0.8380
 6004TIP3    H239572   4.156   6.209   0.944  0.6195 -2.9639 -0.3322
 6005TIP3   OH239573   4.466   4.291   0.762  0.3566 -0.1003 -0.1527
 6005TIP3    H139574   4.465   4.284   0.667  0.5695 -1.9764 -0.0633
 6005TIP3    H239575   4.553   4.324   0.783 -0.0902  1.4488 -0.6331
 6006TIP3   OH239576   6.569   4.733   6.608  0.0953  0.2385  0.0059
 6006TIP3    H139577   6.515   4.664   6.568  0.3047 -0.2476  0.5512
 6006TIP3    H239578   6.507   4.801   6.632 -0.2225 -0.1134  0.1958
 6007TIP3   OH239579   4.996   4.794   8.042  0.6082 -0.2409  0.0923
 6007TIP3    H139580   5.011   4.716   7.989 -0.0406 -0.3624  0.0798
 6007TIP3    H239581   4.908   4.823   8.018  0.8211  0.4591  0.1415
 6008TIP3   OH239582   4.986   1.786   0.170 -0.1495  0.4805 -0.6096
 6008TIP3    H139583   4.909   1.731   0.188  0.5818 -0.1998  0.5366
 6008TIP3    H239584   5.044   1.731   0.118  0.5474  0.1662  0.4675
 6009TIP3   OH239585   2.650   6.287   0.242 -0.0944 -0.0525 -0.1188
 6009TIP3    H139586   2.659   6.311   0.150 -0.0265  0.1766 -0.0539
 6009TIP3    H239587   2.557   6.266   0.253  0.4021 -3.0643 -0.9424
 6010TIP3   OH239588   0.126   2.041   1.433 -0.7738  0.6698  0.0887
 6010TIP3    H139589   0.129   2.095   1.354  1.2560  1.0809  0.4003
 6010TIP3    H239590   0.061   2.084   1.489 -0.5893  1.6808 -0.4444
 6011TIP3   OH239591   6.229   1.224   6.585 -0.4994 -0.5650 -0.0610
 6011TIP3    H139592   6.192   1.303   6.624  0.7676  0.5995 -1.1216
 6011TIP3    H239593   6.254   1.250   6.497 -0.1595 -2.2004 -0.4847
 6012TIP3   OH239594   2.633   4.426   0.852  0.3347  0.3569 -1.3347
 6012TIP3    H139595   2.597   4.512   0.872  1.6210  1.1292 -2.1844
 6012TIP3    H239596   2.591   4.367   0.914 -1.6104  1.3529 -1.6288
 6013TIP3   OH239597   6.142   2.104   7.661 -0.5141 -0.1174 -0.2486
 6013TIP3    H139598   6.093   2.161   7.720 -0.6051  0.4424 -0.8476
 6013TIP3    H239599   6.230   2.101   7.698 -1.2763 -2.2538  1.6206
 6014TIP3   OH239600   4.829   2.555   8.474 -0.1840 -0.4987  0.0100
 6014TIP3    H139601   4.897   2.615   8.504 -0.4907 -0.3552  0.4278
 6014TIP3    H239602   4.852   2.471   8.513  0.9846 -0.9904 -1.6289
 6015TIP3   OH239603   3.305   0.243   7.546 -0.0333  0.1573 -0.5489
 6015TIP3    H139604   3.212   0.264   7.542 -0.4517 -1.2991  0.8471
 6015TIP3    H239605   3.319   0.208   7.633  2.1627  1.7421 -0.1560
 6016TIP3   OH239606   2.308   4.575   2.295 -0.2179 -0.3358 -0.0021
 6016TIP3    H139607   2.367   4.619   2.356 -0.2137  0.7659 -0.7667
 6016TIP3    H239608   2.223   4.615   2.311  0.4249  3.0878 -3.3670
 6017TIP3   OH239609   1.599   3.366   8.319 -0.4700 -0.1771  0.4950
 6017TIP3    H139610   1.601   3.317   8.237  1.7916  0.6878 -0.0502
 6017TIP3    H239611   1.514   3.410   8.319 -0.9090 -0.9687 -0.9010
 6018TIP3   OH239612   2.071   2.806   7.290 -0.3923 -0.0638  0.3371
 6018TIP3    H139613   1.993   2.848   7.327 -1.6283  1.0330 -3.1803
 6018TIP3    H239614   2.043   2.718   7.269 -0.7138  0.3154 -0.8833
 6019TIP3   OH239615   0.538   6.359   0.615  0.9385  0.3804 -0.4708
 6019TIP3    H139616   0.542   6.348   0.520  0.6679  1.7738 -0.6677
 6019TIP3    H239617   0.484   6.287   0.646 -1.3239  1.4703 -1.6930
 6020TIP3   OH239618   1.347   1.094   2.222  0.6557  0.6539 -0.1610
 6020TIP3    H139619   1.255   1.117   2.211 -0.0853  0.0360  3.5779
 6020TIP3    H239620   1.384   1.166   2.273  0.9832 -1.1804  2.3895
 6021TIP3   OH239621   3.811   1.958   7.137 -0.1281  0.4222 -0.4448
 6021TIP3    H139622   3.793   1.891   7.203  0.7733 -0.0297 -0.6454
 6021TIP3    H239623   3.896   1.934   7.101  0.1717  1.6401 -0.5795
 6022TIP3   OH239624   6.040   3.172   0.766 -0.2090  0.8026  0.0140
 6022TIP3    H139625   6.103   3.111   0.727  1.2242  1.2734  1.4744
 6022TIP3    H239626   5.988   3.203   0.692 -0.5418 -1.6395 -0.8630
 6023TIP3   OH239627   1.487   2.659   7.189 -0.4290 -0.0003  0.0008
 6023TIP3    H139628   1.557   2.634   7.129 -0.3735 -0.0816  0.1006
 6023TIP3    H239629   1.484   2.755   7.182 -2.6614 -0.1500 -2.6827
 6024TIP3   OH239630   4.818   2.856   7.493  0.0968  0.4595  0.1079
 6024TIP3    H139631   4.803   2.835   7.585 -1.4527  0.6331 -0.0768
 6024TIP3    H239632   4.820   2.951   7.489 -0.9690  0.4819 -0.1777
 6025TIP3   OH239633   0.504   3.701   2.056 -0.4709 -0.1792 -0.2203
 6025TIP3    H139634   0.557   3.627   2.027  1.9178  1.3112  0.0786
 6025TIP3    H239635   0.448   3.666   2.124  1.7495 -1.4215  1.0720
 6026TIP3   OH239636   3.792   3.591   0.573 -0.0660 -0.0531 -0.1915
 6026TIP3    H139637   3.783   3.547   0.489 -0.5903  0.3402 -0.3478
 6026TIP3    H239638   3.792   3.685   0.552  0.1619  0.0414  0.2133
 6027TIP3   OH239639   4.032   3.941   8.266  0.1635 -0.3433 -0.6244
 6027TIP3    H139640   3.954   3.980   8.227 -0.7925 -2.3499 -0.9010
 6027TIP3    H239641   4.066   3.883   8.197  0.7155 -0.9998  0.1832
 6028TIP3   OH239642   5.619   4.085   7.582  0.1737  0.2111  0.3424
 6028TIP3    H139643   5.559   4.046   7.646 -0.4242 -0.9962 -0.8944
 6028TIP3    H239644   5.683   4.016   7.563  1.2675  1.0854  0.7680
 6029TIP3   OH239645   4.166   2.873   0.710 -0.3286 -0.5548 -0.0411
 6029TIP3    H139646   4.223   2.938   0.670 -0.2430  1.1487  2.5611
 6029TIP3    H239647   4.151   2.808   0.642  0.6180  1.5378 -2.3813
 6030TIP3   OH239648   0.345   1.498   8.513 -0.6429  0.8154 -0.3872
 6030TIP3    H139649   0.339   1.427   8.448  0.7598  1.1070 -0.8746
 6030TIP3    H239650   0.256   1.509   8.545 -1.1035 -0.3315 -1.2110
 6031TIP3   OH239651   0.640   3.922   8.445  0.1157 -0.0963 -0.0395
 6031TIP3    H139652   0.675   4.011   8.436 -1.3133  0.4979  0.0942
 6031TIP3    H239653   0.673   3.893   8.530 -1.4289  1.2994  1.1196
 6032TIP3   OH239654   2.111   3.170   7.118  0.0472 -0.0084 -0.4711
 6032TIP3    H139655   2.029   3.155   7.071 -0.3188  0.2377  0.0727
 6032TIP3    H239656   2.092   3.145   7.209  0.4887  0.3227 -0.2824
 6033TIP3   OH239657   3.250   5.906   6.419  0.0061  0.3828 -0.0914
 6033TIP3    H139658   3.277   5.998   6.423  0.4405  0.2792 -0.5268
 6033TIP3    H239659   3.255   5.876   6.510 -1.5173  1.1639  0.2684
 6034TIP3   OH239660   3.561   3.751   1.454  0.6147 -0.0412  0.0138
 6034TIP3    H139661   3.655   3.769   1.460  0.5517  0.3161 -0.0500
 6034TIP3    H239662   3.520   3.837   1.456  0.2348 -0.2369  0.8960
 6035TIP3   OH239663   5.542   3.661   2.284 -0.4439 -0.3891  0.3240
 6035TIP3    H139664   5.521   3.672   2.376 -1.1236 -0.2218  0.1542
 6035TIP3    H239665   5.491   3.586   2.256 -1.1337  0.2569 -0.1888
 6036TIP3   OH239666   4.848   2.881   1.868  0.3030  0.2494  0.1734
 6036TIP3    H139667   4.809   2.833   1.796  0.1961 -0.4257  0.6698
 6036TIP3    H239668   4.809   2.842   1.947  0.0613  1.2800  0.5820
 6037TIP3   OH239669   6.547   0.256   8.350  0.5037 -0.1945 -0.4089
 6037TIP3    H139670   6.532   0.350   8.338  2.4148 -0.0502 -2.0921
 6037TIP3    H239671   6.467   0.225   8.392 -1.4447  1.6568 -2.4788
 6038TIP3   OH239672   2.358   6.262   0.167 -0.1505  0.5843 -0.6074
 6038TIP3    H139673   2.289   6.195   0.167  0.3546  0.0320 -2.1076
 6038TIP3    H239674   2.324   6.331   0.224 -1.1382 -0.4744  0.1455
 6039TIP3   OH239675   2.841   3.064   7.037  0.4901  0.6556 -0.0092
 6039TIP3    H139676   2.782   2.988   7.041  0.6899  0.4958 -0.1079
 6039TIP3    H239677   2.846   3.095   7.128  0.3219  0.6175  0.0134
 6040TIP3   OH239678   6.133   6.454   1.342 -0.0859  0.0706 -0.4680
 6040TIP3    H139679   6.061   6.513   1.367 -0.6622 -0.5715 -0.5754
 6040TIP3    H239680   6.207   6.482   1.396 -1.3464 -1.4084  2.2114
 6041TIP3   OH239681   1.304   4.726   7.428  0.2373 -0.1121  0.4520
 6041TIP3    H139682   1.231   4.672   7.460 -0.1143 -0.1626 -0.4075
 6041TIP3    H239683   1.290   4.731   7.333  0.7931  0.7180  0.4089
 6042TIP3   OH239684   3.696   0.828   1.983  0.0791  0.0460 -0.2262
 6042TIP3    H139685   3.659   0.797   2.065 -1.9114  2.7640  0.0322
 6042TIP3    H239686   3.633   0.801   1.916  0.5033 -0.1544 -0.5479
 6043TIP3   OH239687   4.291   3.120   6.573  0.1383 -0.1650  0.5718
 6043TIP3    H139688   4.346   3.053   6.533  0.5930  0.9108 -0.7017
 6043TIP3    H239689   4.233   3.072   6.633  1.2142 -1.5323  0.5648
 6044TIP3   OH239690   6.211   3.403   1.518  0.3422  0.1485  0.1579
 6044TIP3    H139691   6.261   3.330   1.554  1.1047  0.8880  0.6270
 6044TIP3    H239692   6.272   3.447   1.459  0.2647  1.0799  0.7625
 6045TIP3   OH239693   1.635   1.543   8.240  0.5271 -0.3728 -0.3280
 6045TIP3    H139694   1.583   1.547   8.320  1.0120  1.0807 -0.0512
 6045TIP3    H239695   1.571   1.554   8.170  0.4765  2.2264  0.0357
 6046TIP3   OH239696   1.892   2.158   0.495 -0.3053 -0.0354 -0.1181
 6046TIP3    H139697   1.911   2.105   0.417  1.2144 -0.8195  0.7170
 6046TIP3    H239698   1.926   2.105   0.568 -0.7682  1.1227  0.9760
 6047TIP3   OH239699   0.208   3.562   8.103  0.1614 -0.0542 -0.0936
 6047TIP3    H139700   0.246   3.492   8.157  1.5977  1.6343  1.1854
 6047TIP3    H239701   0.135   3.595   8.155 -0.8205 -0.8467 -0.9110
 6048TIP3   OH239702   4.681   1.135   0.734 -0.4691 -0.0146 -0.0029
 6048TIP3    H139703   4.624   1.130   0.811 -0.0563 -1.7191  0.2369
 6048TIP3    H239704   4.768   1.148   0.770 -0.1530 -1.6582 -0.0754
 6049TIP3   OH239705   1.798   2.072   0.923  0.3076 -0.4008  0.0623
 6049TIP3    H139706   1.813   1.985   0.884 -0.2309  0.0508 -1.2014
 6049TIP3    H239707   1.848   2.132   0.868 -0.8215  0.3121 -0.2223
 6050TIP3   OH239708   0.222   1.876   0.721  0.0488  0.5042  0.5885
 6050TIP3    H139709   0.259   1.894   0.807  2.5889 -2.2916  0.2480
 6050TIP3    H239710   0.267   1.936   0.662  1.7582 -0.6631  0.6481
 6051TIP3   OH239711   3.337   6.530   8.416 -0.1613  0.3564 -0.5058
 6051TIP3    H139712   3.391   6.459   8.450 -0.5955  0.1523 -0.2426
 6051TIP3    H239713   3.367   6.608   8.462 -1.9162 -0.1754  1.6905
 6052TIP3   OH239714   2.029   5.834   1.650 -0.0728 -0.3420  0.0008
 6052TIP3    H139715   1.950   5.887   1.655  0.7641  0.8259  1.6998
 6052TIP3    H239716   2.009   5.768   1.583 -1.8911  0.8476 -0.7085
 6053TIP3   OH239717   3.553   4.882   2.196 -0.1078 -0.4991 -0.1195
 6053TIP3    H139718   3.591   4.851   2.278 -0.4920 -0.7638 -0.0431
 6053TIP3    H239719   3.572   4.976   2.195 -2.2972  0.0385  1.4789
 6054TIP3   OH239720   1.714   4.152   0.114 -0.8109  0.7043  0.4714
 6054TIP3    H139721   1.718   4.199   0.031 -1.8475 -0.9551 -0.5740
 6054TIP3    H239722   1.686   4.064   0.090  2.3278 -0.9470  2.1354
 6055TIP3   OH239723   5.393   6.585   2.061  0.1213 -0.0074  0.5414
 6055TIP3    H139724   5.472   6.596   2.114  0.5991  1.4763 -0.4276
 6055TIP3    H239725   5.337   6.658   2.087  0.6937  1.2276 -1.5043
 6056TIP3   OH239726   2.539   6.660   8.292  0.0663  0.9777  0.4304
 6056TIP3    H139727   2.540   6.719   8.367 -0.7021  1.4776  0.0496
 6056TIP3    H239728   2.529   6.717   8.216  0.9086  0.4814 -0.0747
 6057TIP3   OH239729   0.339   3.135   1.063 -0.1617 -0.1230 -0.1032
 6057TIP3    H139730   0.326   3.165   1.153  0.4921  0.8352 -0.3095
 6057TIP3    H239731   0.350   3.216   1.013  0.8667 -0.6915 -0.8208
 6058TIP3   OH239732   6.121   5.120   2.291 -0.1488 -0.0503 -0.4787
 6058TIP3    H139733   6.174   5.182   2.343 -1.3217  0.2832  0.3586
 6058TIP3    H239734   6.031   5.145   2.308 -0.6879 -2.1029  0.0496
 6059TIP3   OH239735   4.620   2.721   6.686  0.2556 -0.1391  0.4921
 6059TIP3    H139736   4.586   2.634   6.704 -1.8281 -0.2348 -2.8621
 6059TIP3    H239737   4.703   2.706   6.641 -0.0883 -0.4195 -0.0560
 6060TIP3   OH239738   5.014   1.130   6.976 -0.5009  0.2255  0.4090
 6060TIP3    H139739   4.932   1.166   6.944  0.6124  0.6199 -2.2825
 6060TIP3    H239740   5.076   1.143   6.904  1.6914 -0.9282  1.9506
 6061TIP3   OH239741   0.499   1.929   1.792  0.1419  0.4797  0.3961
 6061TIP3    H139742   0.478   2.017   1.761 -1.8806 -0.0148  0.2235
 6061TIP3    H239743   0.534   1.942   1.880  0.8585  1.5239 -0.0335
 6062TIP3   OH239744   0.277   1.810   1.598  0.1586  0.2766  0.7375
 6062TIP3    H139745   0.358   1.789   1.645  1.6216  0.6144 -1.4353
 6062TIP3    H239746   0.305   1.874   1.532 -2.2043  1.4985  0.8484
 6063TIP3   OH239747   4.158   3.716   2.434 -0.0806 -0.1996  0.3938
 6063TIP3    H139748   4.138   3.662   2.511  1.9169 -2.2323 -0.3966
 6063TIP3    H239749   4.169   3.804   2.470  0.2034 -0.9748  2.3787
 6064TIP3   OH239750   5.193   4.938   1.178 -0.1052 -0.5586  0.4437
 6064TIP3    H139751   5.156   5.009   1.126  1.1573 -1.1570 -1.3706
 6064TIP3    H239752   5.138   4.862   1.158  2.6668 -1.8434 -3.4695
 6065TIP3   OH239753   4.872   1.031   7.639  0.0961  0.3107 -0.7725
 6065TIP3    H139754   4.938   0.985   7.587 -0.0073  0.1667 -0.7763
 6065TIP3    H239755   4.865   0.979   7.720  1.0390  1.1173 -0.1402
 6066TIP3   OH239756   3.150   0.656   1.727 -0.0213  0.1898 -0.0340
 6066TIP3    H139757   3.221   0.654   1.663 -0.6725  0.4259 -0.7799
 6066TIP3    H239758   3.190   0.692   1.806  0.9413 -0.6736 -0.1151
 6067TIP3   OH239759   5.211   2.280   7.481  0.0476 -0.1210 -0.2357
 6067TIP3    H139760   5.136   2.334   7.505  0.8835  1.3348 -0.7872
 6067TIP3    H239761   5.260   2.333   7.418 -0.3341 -2.4742 -2.7060
 6068TIP3   OH239762   0.495   1.522   1.200 -0.0845  0.3128  0.3065
 6068TIP3    H139763   0.461   1.436   1.174  0.1158  0.4869 -0.5610
 6068TIP3    H239764   0.523   1.510   1.291 -0.6342 -0.3683  0.3905
 6069TIP3   OH239765   1.100   4.580   1.570  0.1546 -0.5697 -0.6338
 6069TIP3    H139766   1.111   4.536   1.655 -0.8153 -1.6188 -1.0237
 6069TIP3    H239767   1.040   4.652   1.588  0.6752 -0.2266 -0.2526
 6070TIP3   OH239768   6.415   6.279   2.341 -0.0561 -0.7684  0.2681
 6070TIP3    H139769   6.403   6.228   2.422 -2.8072 -1.2372 -0.3233
 6070TIP3    H239770   6.414   6.370   2.370 -1.8633 -0.8992  0.7765
 6071TIP3   OH239771   6.603   2.453   7.687  0.4075  0.2260 -0.3549
 6071TIP3    H139772   6.638   2.540   7.708  1.5821 -0.1730 -0.6163
 6071TIP3    H239773   6.508   2.465   7.690  0.5299  1.7787 -1.3944
 6072TIP3   OH239774   1.575   1.845   8.093  0.1686 -0.1808  0.0692
 6072TIP3    H139775   1.635   1.831   8.021  0.0421  1.3636 -0.3651
 6072TIP3    H239776   1.499   1.789   8.072  0.5924 -0.5847 -0.4104
 6073TIP3   OH239777   6.368   4.226   7.178  0.0433  0.1810 -0.1011
 6073TIP3    H139778   6.415   4.164   7.122  0.4969 -1.5740  2.0674
 6073TIP3    H239779   6.316   4.278   7.118  0.1144 -1.9076 -2.1110
 6074TIP3   OH239780   5.799   6.423   1.480 -0.2076 -0.1822 -0.0596
 6074TIP3    H139781   5.856   6.454   1.409 -1.2612  2.3313  0.0767
 6074TIP3    H239782   5.715   6.407   1.437 -0.9963  1.8278  0.5794
 6075TIP3   OH239783   2.331   5.292   0.189 -0.1779 -0.4783 -0.2498
 6075TIP3    H139784   2.319   5.376   0.144  0.3989 -0.2838 -0.0465
 6075TIP3    H239785   2.303   5.310   0.279  0.9664 -0.1960  0.0679
 6076TIP3   OH239786   4.370   5.273   8.466 -0.1463 -0.0903 -0.2923
 6076TIP3    H139787   4.404   5.264   8.376  1.6535 -1.3250  0.4483
 6076TIP3    H239788   4.279   5.299   8.454 -0.0359 -0.4582 -2.4902
 6077TIP3   OH239789   4.022   5.086   7.721 -0.3391  0.2124  0.2424
 6077TIP3    H139790   4.094   5.037   7.759 -0.1998  0.4333  0.2672
 6077TIP3    H239791   3.943   5.044   7.755 -0.2266 -0.1048  0.1203
 6078TIP3   OH239792   6.134   4.206   0.402  0.7066 -0.3127  0.8464
 6078TIP3    H139793   6.210   4.218   0.345  0.8078  0.1166  1.0741
 6078TIP3    H239794   6.155   4.128   0.453  0.9778 -0.2132  0.8867
 6079TIP3   OH239795   0.752   1.536   0.258  0.0377  0.0895  0.1835
 6079TIP3    H139796   0.667   1.529   0.216  0.3441  0.7543 -0.5658
 6079TIP3    H239797   0.761   1.454   0.307 -0.2528 -0.8107 -1.2128
 6080TIP3   OH239798   1.044   2.562   0.970 -0.4071  0.2430  0.7282
 6080TIP3    H139799   0.993   2.517   0.902  0.8046 -0.4615  0.2484
 6080TIP3    H239800   1.135   2.544   0.947  0.0940  1.9334  1.2421
 6081TIP3   OH239801   4.095   0.073   7.942 -0.1121  0.7696  0.3110
 6081TIP3    H139802   4.059   0.114   8.021  1.7156  3.7930 -0.2501
 6081TIP3    H239803   4.155   0.006   7.975 -1.5574 -0.0441  1.3634
 6082TIP3   OH239804   0.014   4.772   0.117  0.5616 -0.0269 -0.2083
 6082TIP3    H139805  -0.071   4.734   0.139 -0.2069  1.6087 -0.1753
 6082TIP3    H239806   0.068   4.697   0.093 -0.1412 -1.3916  2.0953
 6083TIP3   OH239807   5.334   6.537   1.324 -0.4142  0.6515 -0.3736
 6083TIP3    H139808   5.314   6.629   1.305  2.1369  1.6317  1.1674
 6083TIP3    H239809   5.267   6.510   1.387 -1.6383  1.1832 -1.4123
 6084TIP3   OH239810   5.518   3.674   6.878  0.9511  0.2145 -0.2499
 6084TIP3    H139811   5.424   3.666   6.889  1.3387 -1.1427  3.2219
 6084TIP3    H239812   5.533   3.767   6.864 -0.8224  0.6344  0.3963
 6085TIP3   OH239813   2.892   0.856   8.156 -0.0318  0.1241  0.3273
 6085TIP3    H139814   2.983   0.883   8.145 -0.4009  0.6748 -1.6540
 6085TIP3    H239815   2.866   0.897   8.239  1.6296 -0.4271  1.1740
 6086TIP3   OH239816   6.557   6.069   7.490 -0.3541  0.0884  0.5926
 6086TIP3    H139817   6.634   6.035   7.534 -0.2412 -0.2640  0.1274
 6086TIP3    H239818   6.551   6.019   7.409 -0.9965  0.2033  0.5627
 6087TIP3   OH239819   6.826   3.503   1.343  0.5853  0.3685  0.3325
 6087TIP3    H139820   6.841   3.442   1.272 -0.4995  0.2885  0.1464
 6087TIP3    H239821   6.870   3.464   1.419  0.2720 -0.4327  0.1124
 6088TIP3   OH239822   1.135   0.873   7.780 -0.7553  0.1317  0.4593
 6088TIP3    H139823   1.078   0.951   7.779 -0.4676  0.3869  1.9953
 6088TIP3    H239824   1.123   0.835   7.693 -2.4461  0.7862  0.3471
 6089TIP3   OH239825   1.183   6.345   8.262 -0.4452 -0.1505  0.0037
 6089TIP3    H139826   1.122   6.318   8.331  0.1270  1.6484  1.2840
 6089TIP3    H239827   1.163   6.437   8.247  0.9867  0.0909 -0.5902
 6090TIP3   OH239828   4.726   1.063   6.835 -0.5604  0.2276 -0.5831
 6090TIP3    H139829   4.712   1.142   6.887  1.2808  1.1882 -1.4749
 6090TIP3    H239830   4.642   1.048   6.791 -1.6739  0.2659  1.4086
 6091TIP3   OH239831   5.946   4.745   0.752  0.0483 -0.2085  0.3199
 6091TIP3    H139832   5.921   4.806   0.822 -0.5432  0.7915 -0.7181
 6091TIP3    H239833   6.015   4.691   0.790  0.6807  1.2036  1.2510
 6092TIP3   OH239834   5.142   1.291   8.077 -0.0844 -0.7143  0.3876
 6092TIP3    H139835   5.135   1.279   7.982  0.8422 -1.5132  0.4018
 6092TIP3    H239836   5.084   1.364   8.096  1.7173  1.2422 -1.1725
 6093TIP3   OH239837   2.457   6.116   0.860 -0.1811 -0.4818 -0.0926
 6093TIP3    H139838   2.442   6.173   0.936 -0.0494 -0.4915 -0.0583
 6093TIP3    H239839   2.523   6.053   0.890  0.3109 -0.1216 -0.3934
 6094TIP3   OH239840   3.953   4.602   7.277  0.0025  0.5552  0.1950
 6094TIP3    H139841   3.970   4.529   7.336 -0.0722  0.0200 -0.4354
 6094TIP3    H239842   3.873   4.577   7.230 -0.3386  1.2935  0.3726
 6095TIP3   OH239843   5.924   4.348   8.116  0.1045 -0.2896  0.1684
 6095TIP3    H139844   5.878   4.390   8.188 -0.2922 -1.3356  0.5466
 6095TIP3    H239845   5.880   4.380   8.037  0.6871  1.0308  0.3511
 6096TIP3   OH239846   0.172   3.795   6.169  0.5617  0.2024  0.1969
 6096TIP3    H139847   0.260   3.773   6.201  0.5601 -0.7657 -0.4040
 6096TIP3    H239848   0.140   3.713   6.131 -1.9613 -0.5102  3.3550
 6097TIP3   OH239849   2.425   1.399   0.534 -0.1819  0.2399  0.6003
 6097TIP3    H139850   2.511   1.358   0.541 -0.3848 -0.4667 -0.7594
 6097TIP3    H239851   2.443   1.490   0.510  0.2273  0.6502  2.3340
 6098TIP3   OH239852   0.557   3.808   1.533 -0.1105 -0.5907  0.3150
 6098TIP3    H139853   0.631   3.785   1.478  0.9343 -2.7778  2.4244
 6098TIP3    H239854   0.500   3.860   1.477  2.6584  0.6133 -1.5981
 6099TIP3   OH239855   6.297   4.179   0.152  0.6710 -0.2957 -0.7402
 6099TIP3    H139856   6.348   4.101   0.172  0.8104 -0.0200 -0.0019
 6099TIP3    H239857   6.361   4.241   0.118  0.7128 -0.1779 -0.4427
 6100TIP3   OH239858   1.199   4.778   6.884 -0.6575  0.4301 -0.1552
 6100TIP3    H139859   1.253   4.795   6.806 -1.3947 -1.9715 -1.2956
 6100TIP3    H239860   1.118   4.827   6.867  0.0829  1.8875  0.3107
 6101TIP3   OH239861   2.490   0.317   7.211  0.5942  0.3227 -0.5005
 6101TIP3    H139862   2.434   0.379   7.258  0.7017  0.0288  0.0222
 6101TIP3    H239863   2.490   0.348   7.121 -2.3450 -1.0109 -1.0653
 6102TIP3   OH239864   5.733   6.416   7.605  0.0401  0.5840  0.4102
 6102TIP3    H139865   5.670   6.467   7.657  0.5575  0.6592  0.9801
 6102TIP3    H239866   5.815   6.466   7.611  0.2518  0.2890 -0.0024
 6103TIP3   OH239867   5.898   1.801   0.082 -0.1566  0.0831 -0.5608
 6103TIP3    H139868   5.885   1.714   0.121 -0.6689  0.4114  0.0276
 6103TIP3    H239869   5.824   1.811   0.022 -0.5768  0.4517  0.0100
 6104TIP3   OH239870   1.587   0.700   1.681  0.1944  0.0424  0.4012
 6104TIP3    H139871   1.524   0.676   1.749  0.9077 -1.5445  0.5457
 6104TIP3    H239872   1.662   0.642   1.697  0.5643 -0.0308 -1.4459
 6105TIP3   OH239873   1.979   4.069   7.873  0.2592  0.2242 -0.4330
 6105TIP3    H139874   1.959   4.023   7.792  0.9849 -0.7174 -0.0965
 6105TIP3    H239875   1.970   4.002   7.941  2.2695  0.3181 -0.0300
 6106TIP3   OH239876   4.844   5.147   8.539 -0.2197 -0.2151 -0.5596
 6106TIP3    H139877   4.851   5.132   8.634  1.5282 -0.4586 -0.6940
 6106TIP3    H239878   4.895   5.076   8.500  0.0981  0.5863 -1.6402
 6107TIP3   OH239879   3.455   3.449   2.038  0.0825 -0.6095 -0.4751
 6107TIP3    H139880   3.369   3.433   1.999 -0.7905  1.3895  0.4525
 6107TIP3    H239881   3.456   3.396   2.117  0.0817 -1.3438 -0.9643
 6108TIP3   OH239882   5.105   4.650   6.984 -0.3346  0.7012 -0.6787
 6108TIP3    H139883   5.015   4.646   7.017 -0.8031  0.7384 -1.9075
 6108TIP3    H239884   5.096   4.672   6.891  0.8781 -0.5358 -1.1306
 6109TIP3   OH239885   0.482   3.051   1.350 -0.4297  0.4445  0.5749
 6109TIP3    H139886   0.467   3.008   1.434 -0.5069  1.3140  1.0166
 6109TIP3    H239887   0.399   3.094   1.330 -0.4997  0.0171 -0.0857
 6110TIP3   OH239888   0.992   0.184   0.039  0.1025 -0.1586 -0.2877
 6110TIP3    H139889   0.925   0.246   0.069 -0.4654 -1.0105  0.2883
 6110TIP3    H239890   1.030   0.150   0.120  3.1769  2.2476 -0.5579
 6111TIP3   OH239891   0.285   3.728   2.641  0.3496 -0.0945  0.3695
 6111TIP3    H139892   0.191   3.722   2.657  0.2765  1.1547  0.4867
 6111TIP3    H239893   0.323   3.664   2.701 -0.4798 -1.3955 -0.4328
 6112TIP3   OH239894   0.985   4.144   0.155 -0.3927  0.2315 -0.0299
 6112TIP3    H139895   0.906   4.198   0.149  0.1284  1.0011 -0.1928
 6112TIP3    H239896   1.023   4.149   0.068  0.5714  1.0395  0.4149
 6113TIP3   OH239897   5.248   6.180   1.307 -0.8238 -0.2971  0.8816
 6113TIP3    H139898   5.258   6.193   1.401 -1.8961 -1.2294  1.1567
 6113TIP3    H239899   5.182   6.244   1.281  0.2227  0.6745  0.5415
 6114TIP3   OH239900   3.045   5.467   0.792  0.4382 -0.2720 -0.3223
 6114TIP3    H139901   3.073   5.381   0.823  0.3403  0.1733  1.0802
 6114TIP3    H239902   3.052   5.524   0.869 -1.1036  0.5976 -0.7682
 6115TIP3   OH239903   2.016   1.793   2.218 -0.4224 -0.2573  0.2911
 6115TIP3    H139904   2.030   1.802   2.123 -1.5365  1.0538  0.2100
 6115TIP3    H239905   1.980   1.878   2.244 -0.8999 -0.8869  1.7516
 6116TIP3   OH239906   0.208   4.788   7.737  1.1077  0.5156  0.0258
 6116TIP3    H139907   0.157   4.867   7.718  0.0264  0.0885  1.0277
 6116TIP3    H239908   0.294   4.805   7.697  0.7772  2.0222 -0.1178
 6117TIP3   OH239909   1.658   0.102   6.995 -0.6145  0.4139  0.0492
 6117TIP3    H139910   1.650   0.150   6.912  0.1973  0.7816  0.1725
 6117TIP3    H239911   1.690   0.016   6.969 -2.0754 -0.0931 -0.1732
 6118TIP3   OH239912   6.383   0.970   0.099 -0.1253 -0.8169 -0.3996
 6118TIP3    H139913   6.323   0.950   0.171 -0.9540 -0.5832 -1.0065
 6118TIP3    H239914   6.398   1.065   0.106 -1.5093 -0.4777 -1.4715
 6119TIP3   OH239915   3.221   4.983   1.358 -0.1865  0.1182 -0.0245
 6119TIP3    H139916   3.272   4.902   1.353 -0.9747 -0.2969 -2.0224
 6119TIP3    H239917   3.282   5.048   1.393  0.9805 -0.9159 -0.0825
 6120TIP3   OH239918   5.910   6.843   7.719  0.3659  0.7383 -0.4926
 6120TIP3    H139919   5.934   6.872   7.807  2.2717  2.1453 -1.3945
 6120TIP3    H239920   5.963   6.898   7.661 -0.2187 -0.7075 -2.4952
 6121TIP3   OH239921   0.856   5.716   7.016 -0.3915 -0.0399 -0.0408
 6121TIP3    H139922   0.900   5.631   7.019  0.1569  0.2531  1.7790
 6121TIP3    H239923   0.823   5.729   7.105  1.2070  2.4620  0.2996
 6122TIP3   OH239924   2.095   3.702   1.270 -0.1404  0.2258  0.2348
 6122TIP3    H139925   2.005   3.735   1.269  0.2431  1.3499  1.0725
 6122TIP3    H239926   2.097   3.643   1.345 -0.3704 -0.4201 -0.2529
 6123TIP3   OH239927   0.172   1.121   1.169  0.0224 -0.1768  0.1962
 6123TIP3    H139928   0.163   1.059   1.242 -0.7979  2.4262  2.5072
 6123TIP3    H239929   0.115   1.194   1.193  1.2345  1.6749 -2.1367
 6124TIP3   OH239930   1.655   4.168   7.798 -0.1107  0.0119 -0.7261
 6124TIP3    H139931   1.654   4.251   7.846 -1.3758  0.8821 -2.1475
 6124TIP3    H239932   1.712   4.185   7.723 -1.1964 -0.0220 -1.5908
 6125TIP3   OH239933   3.816   2.651   8.203  0.1102 -0.2628  0.2851
 6125TIP3    H139934   3.866   2.603   8.269  0.3635  2.4001  2.2329
 6125TIP3    H239935   3.744   2.692   8.253 -1.1723 -0.1060 -1.5689
 6126TIP3   OH239936   4.273   2.963   6.816 -0.4821  0.0758  0.2856
 6126TIP3    H139937   4.248   2.871   6.806 -1.6971  0.3191  0.8977
 6126TIP3    H239938   4.365   2.960   6.842 -0.9572 -1.0551  2.0052
 6127TIP3   OH239939   4.073   2.574   7.484  0.1921 -0.0690 -0.4151
 6127TIP3    H139940   4.034   2.497   7.442 -0.4657 -0.2388  0.4838
 6127TIP3    H239941   4.161   2.580   7.446 -0.0680 -0.7349 -1.1547
 6128TIP3   OH239942   2.376   2.930   7.024 -0.3692  0.3363 -0.4405
 6128TIP3    H139943   2.312   2.928   6.952  0.0009  0.7817 -0.7913
 6128TIP3    H239944   2.426   3.010   7.008  1.0049 -0.5748 -0.7989
 6129TIP3   OH239945   3.868   2.210   2.696 -0.1729  0.5408  0.4276
 6129TIP3    H139946   3.815   2.177   2.623  0.3793  3.5768 -1.5179
 6129TIP3    H239947   3.824   2.291   2.723  0.5381  0.3202  2.4352
 6130TIP3   OH239948   4.687   0.267   2.031  0.3991  0.1759 -0.4046
 6130TIP3    H139949   4.617   0.202   2.031 -1.7399  2.3520  0.5312
 6130TIP3    H239950   4.709   0.279   1.939  0.5865 -1.5302 -0.6171
 6131TIP3   OH239951   0.706   4.849   8.226  0.0654  0.9533  0.3290
 6131TIP3    H139952   0.629   4.854   8.169  0.7144  1.2025 -0.5379
 6131TIP3    H239953   0.759   4.924   8.202  1.2602  0.0083 -0.1018
 6132TIP3   OH239954   1.136   1.792   2.335 -0.3492  0.4310 -0.3801
 6132TIP3    H139955   1.048   1.805   2.298 -0.6131 -0.9943 -0.3178
 6132TIP3    H239956   1.194   1.832   2.271 -0.9783  0.3291 -1.0332
 6133TIP3   OH239957   5.198   3.289   2.218 -0.5900  0.5824  0.3219
 6133TIP3    H139958   5.148   3.369   2.234  0.1265  0.8928  1.1034
 6133TIP3    H239959   5.168   3.228   2.285 -1.1462  0.1784 -0.2820
 6134TIP3   OH239960   5.084   6.476   1.914 -0.2132  0.0555  0.1244
 6134TIP3    H139961   5.128   6.555   1.882  1.6599 -0.3515  1.4951
 6134TIP3    H239962   5.011   6.508   1.967 -0.3389  0.8093 -0.4941
 6135TIP3   OH239963   5.898   4.807   0.491  0.3834  0.1750 -0.5299
 6135TIP3    H139964   5.907   4.781   0.583 -1.7505 -0.1947 -0.3768
 6135TIP3    H239965   5.894   4.902   0.493 -0.3519  0.1440 -0.1401
 6136TIP3   OH239966   1.018   5.615   7.583 -0.3809  0.1482 -0.3198
 6136TIP3    H139967   0.983   5.542   7.635 -0.3314  0.5222  0.2461
 6136TIP3    H239968   1.087   5.575   7.530 -0.1106 -0.1566  0.2505
 6137TIP3   OH239969   3.069   0.447   1.445 -0.2725  0.2118 -0.9919
 6137TIP3    H139970   3.074   0.493   1.361  1.4924  0.9092 -0.5534
 6137TIP3    H239971   3.067   0.354   1.421 -0.5118  0.4176 -1.8150
 6138TIP3   OH239972   6.823   5.090   0.180 -0.1246  0.1647  0.1097
 6138TIP3    H139973   6.858   5.081   0.268 -0.1627 -1.1330  0.0092
 6138TIP3    H239974   6.735   5.052   0.185 -1.0469  2.1869  0.0462
 6139TIP3   OH239975   4.269   1.496   0.284  0.0340 -0.0802  0.1726
 6139TIP3    H139976   4.190   1.526   0.329 -0.9282  0.7152 -1.9355
 6139TIP3    H239977   4.277   1.404   0.311 -2.3471 -0.5685 -0.4800
 6140TIP3   OH239978   0.482   5.234   0.919  0.1798 -0.5598 -0.8746
 6140TIP3    H139979   0.416   5.245   0.850  1.2483 -1.9927 -2.1865
 6140TIP3    H239980   0.540   5.166   0.887 -0.2663 -2.6126  2.2226
 6141TIP3   OH239981   0.060   0.326   1.198  0.0274  0.6461  0.3039
 6141TIP3    H139982   0.084   0.241   1.163  1.9111  0.9702  0.6959
 6141TIP3    H239983   0.116   0.338   1.274 -1.2143  1.6377  1.1227
 6142TIP3   OH239984   3.963   2.562   0.068 -1.0135  0.3786 -0.5239
 6142TIP3    H139985   3.960   2.616  -0.011 -3.7913 -0.9270 -1.4294
 6142TIP3    H239986   4.004   2.480   0.040  1.0659  1.0865  0.2808
 6143TIP3   OH239987   5.825   2.962   0.600 -0.5950  0.5719 -0.2476
 6143TIP3    H139988   5.829   2.922   0.687  0.8821 -0.3138 -0.6767
 6143TIP3    H239989   5.897   3.025   0.600 -0.5753  0.5478 -0.8355
 6144TIP3   OH239990   6.187   1.164   7.725 -0.5462  0.4281  0.5209
 6144TIP3    H139991   6.208   1.089   7.669  1.8350  0.1288  1.6821
 6144TIP3    H239992   6.121   1.131   7.786  0.8755 -0.9694  1.3819
 6145TIP3   OH239993   6.841   4.901   6.824 -0.0643  0.1906  0.5688
 6145TIP3    H139994   6.815   4.991   6.845  1.1002  1.2342 -2.0592
 6145TIP3    H239995   6.931   4.908   6.795 -0.8865 -1.2557 -2.7269
 6146TIP3   OH239996   1.405   4.160   8.440  0.3186 -0.3463  0.1031
 6146TIP3    H139997   1.438   4.248   8.422 -0.4754  0.6327  2.9293
 6146TIP3    H239998   1.478   4.114   8.480  0.1332 -0.2752  0.5286
 6147TIP3   OH239999   5.462   0.507   8.484  0.5951  0.3520 -0.0633
 6147TIP3    H140000   5.449   0.505   8.579 -1.2001 -0.6715 -0.2821
 6147TIP3    H240001   5.373   0.507   8.448  1.2491  0.2438 -1.7498
 6148TIP3   OH240002   6.693   4.926   8.418 -0.3996  0.1654 -0.0310
 6148TIP3    H140003   6.683   5.020   8.434  0.4353  0.3675 -0.6370
 6148TIP3    H240004   6.666   4.885   8.501 -0.9859  0.9163  0.1652
 6149TIP3   OH240005   0.375   1.651   7.755 -0.2290  0.1816 -0.8632
 6149TIP3    H140006   0.366   1.746   7.762  1.6925  0.5032 -1.9735
 6149TIP3    H240007   0.422   1.625   7.834  3.0042  0.8452 -2.3892
 6150TIP3   OH240008   5.592   4.491   7.158  0.3199 -0.1066 -0.3866
 6150TIP3    H140009   5.633   4.479   7.073 -0.8715 -0.2765 -0.9515
 6150TIP3    H240010   5.519   4.552   7.142 -0.0131 -0.2578  0.4778
 6151TIP3   OH240011   2.419   0.211   7.688 -1.0816  0.7571 -0.5373
 6151TIP3    H140012   2.422   0.214   7.592 -0.8850  0.5810 -0.5375
 6151TIP3    H240013   2.378   0.128   7.709 -1.2766  0.8708 -0.4699
 6152TIP3   OH240014   6.686   5.327   1.085  0.2148 -0.1027 -0.3059
 6152TIP3    H140015   6.594   5.319   1.110  0.3568  0.4463  0.4156
 6152TIP3    H240016   6.706   5.245   1.040 -0.5466 -0.3457 -0.2128
 6153TIP3   OH240017   5.683   5.012   0.728 -0.4645 -0.2283  0.7859
 6153TIP3    H140018   5.741   4.987   0.800  1.0405  0.4785 -0.1467
 6153TIP3    H240019   5.721   5.092   0.693 -1.6772 -0.0763 -0.2514
 6154TIP3   OH240020   1.804   4.181   8.074  0.2353 -0.1841  0.2610
 6154TIP3    H140021   1.719   4.225   8.087 -0.3008 -1.4660  1.3275
 6154TIP3    H240022   1.821   4.189   7.981 -0.3119  1.4142  0.2639
 6155TIP3   OH240023   2.487   4.230   0.995  0.1399  0.3705  0.2360
 6155TIP3    H140024   2.530   4.179   1.063  1.6727  2.9504  1.3423
 6155TIP3    H240025   2.417   4.276   1.040  0.0214  0.7262 -0.3069
 6156TIP3   OH240026   6.284   5.145   1.293  0.2449  0.6461  0.1812
 6156TIP3    H140027   6.193   5.170   1.311  0.1997  1.2181 -0.8027
 6156TIP3    H240028   6.303   5.183   1.208  0.3709 -2.2216 -1.1905
 6157TIP3   OH240029   5.815   5.244   0.157 -0.8158 -0.1218  0.2146
 6157TIP3    H140030   5.731   5.216   0.192 -0.4007  1.6647  2.8962
 6157TIP3    H240031   5.806   5.338   0.146  0.3993 -0.1015 -0.8953
 6158TIP3   OH240032   6.531   1.539   0.646  0.6500  0.4999  0.7198
 6158TIP3    H140033   6.574   1.454   0.634 -1.7667 -0.6941 -0.3573
 6158TIP3    H240034   6.565   1.572   0.729  3.0017 -0.6358  0.3038
 6159TIP3   OH240035   4.519   4.682   0.020  0.3585 -0.0028  0.3558
 6159TIP3    H140036   4.578   4.750  -0.012 -0.0731  0.1738 -0.0733
 6159TIP3    H240037   4.545   4.669   0.111 -0.8681  2.1923  1.0811
 6160TIP3   OH240038   4.358   4.640   7.179 -0.2055  0.1079 -0.0143
 6160TIP3    H140039   4.392   4.658   7.091  0.7384 -0.0518  0.3094
 6160TIP3    H240040   4.283   4.699   7.188  0.4664  1.0555 -0.4509
 6161TIP3   OH240041   4.152   4.925   0.717 -0.6073  0.2336 -0.3384
 6161TIP3    H140042   4.182   4.939   0.807  1.9952  0.1255 -1.1093
 6161TIP3    H240043   4.202   4.849   0.687 -1.9166 -0.1380 -1.6921
 6162TIP3   OH240044   2.407   1.613   0.178 -0.1785  0.0710  0.0589
 6162TIP3    H140045   2.481   1.552   0.180 -0.6851 -0.5394  1.8173
 6162TIP3    H240046   2.331   1.557   0.161 -0.6644  0.1561  1.8180
 6163TIP3   OH240047   3.319   0.820   0.108  0.5582 -0.0847  0.2251
 6163TIP3    H140048   3.230   0.834   0.074 -0.5313 -0.3478  2.7191
 6163TIP3    H240049   3.359   0.907   0.106  0.5147 -0.0765 -1.5371
 6164TIP3   OH240050   1.093   2.929   6.882 -0.1037  0.2055  0.5270
 6164TIP3    H140051   1.027   2.945   6.950  0.3034  4.1344  0.2140
 6164TIP3    H240052   1.165   2.989   6.904  1.0949 -0.1957 -2.0059
 6165TIP3   OH240053   3.907   6.397   7.889 -0.7950  0.4675  0.0953
 6165TIP3    H140054   3.981   6.339   7.906  0.6679  2.4767  1.0123
 6165TIP3    H240055   3.877   6.371   7.802  1.9961  0.5263 -1.0193
 6166TIP3   OH240056   0.466   4.833   7.622 -0.1041 -0.3382  0.5927
 6166TIP3    H140057   0.442   4.805   7.534  1.7596  0.3518 -0.1686
 6166TIP3    H240058   0.485   4.926   7.613 -1.7490  0.2083  2.1450
 6167TIP3   OH240059   1.599   0.030   1.135  0.4033 -0.2711 -0.1819
 6167TIP3    H140060   1.603   0.047   1.041 -0.7326  1.0582 -0.0327
 6167TIP3    H240061   1.592   0.117   1.175 -0.5279 -0.8699  1.0274
 6168TIP3   OH240062   5.818   4.256   6.822  0.1118  0.7596 -0.0706
 6168TIP3    H140063   5.812   4.322   6.890 -1.2386  0.7924 -0.1835
 6168TIP3    H240064   5.849   4.304   6.745 -1.8149  1.5207 -0.4261
 6169TIP3   OH240065   6.456   6.303   7.748 -0.3052 -0.5158 -0.3356
 6169TIP3    H140066   6.420   6.390   7.729  0.1901 -0.5742 -1.6782
 6169TIP3    H240067   6.411   6.245   7.687  0.1711 -1.0132 -0.2209
 6170TIP3   OH240068   6.886   4.622   7.372  0.1521 -0.0925  0.5203
 6170TIP3    H140069   6.958   4.560   7.384 -0.7941 -1.4143 -0.3996
 6170TIP3    H240070   6.883   4.671   7.454  2.0657 -0.0235  0.5831
 6171TIP3   OH240071   3.195   1.585   7.869 -0.2292 -0.3015  0.1580
 6171TIP3    H140072   3.246   1.625   7.799 -0.0863 -0.1340  0.3564
 6171TIP3    H240073   3.255   1.523   7.911 -0.1068  0.0727  0.5473
 6172TIP3   OH240074   5.803   5.809   1.542  0.2450  0.0584 -1.0194
 6172TIP3    H140075   5.719   5.855   1.552  0.1211 -0.2192 -0.7841
 6172TIP3    H240076   5.866   5.864   1.588 -0.0963 -0.5627  0.2390
 6173TIP3   OH240077   4.727   5.533   0.949 -0.3555 -0.1149 -0.9592
 6173TIP3    H140078   4.722   5.616   0.903 -1.0084  0.3864 -0.0004
 6173TIP3    H240079   4.670   5.474   0.899 -0.1982  0.1113 -1.4129
 6174TIP3   OH240080   4.491   0.683   6.999 -0.2976  0.4880 -0.3344
 6174TIP3    H140081   4.548   0.759   7.015  0.8050 -0.7096  1.8537
 6174TIP3    H240082   4.546   0.622   6.949 -0.4541  0.2432 -0.2055
 6175TIP3   OH240083   3.646   2.981   7.529 -0.9520  0.5745  0.0193
 6175TIP3    H140084   3.573   3.018   7.579 -0.2368  2.2163 -0.0819
 6175TIP3    H240085   3.724   3.022   7.566 -0.2211  0.1882 -1.0339
 6176TIP3   OH240086   1.638   0.094   0.878  0.5212  0.6853 -0.3218
 6176TIP3    H140087   1.706   0.114   0.815 -0.3910  0.3692 -1.4403
 6176TIP3    H240088   1.556   0.118   0.834 -0.1557  0.2635  0.6573
 6177TIP3   OH240089   0.952   1.644   0.409  0.1601 -0.0823  0.0124
 6177TIP3    H140090   0.933   1.675   0.497 -0.7589  1.0014 -0.5383
 6177TIP3    H240091   0.867   1.647   0.364  0.7201 -0.0406 -1.0721
 6178TIP3   OH240092   0.298   0.445   0.199  0.0372 -0.1881  0.3024
 6178TIP3    H140093   0.211   0.448   0.239 -0.2077 -0.1621 -0.2219
 6178TIP3    H240094   0.287   0.392   0.119  0.3203  0.4636 -0.1830
 6179TIP3   OH240095   4.493   6.474   0.518  0.1855  0.3891  1.2371
 6179TIP3    H140096   4.474   6.549   0.461  0.7478  1.7152  2.7262
 6179TIP3    H240097   4.416   6.467   0.575 -0.0870 -0.5111  0.7716
 6180TIP3   OH240098   6.776   2.838   7.889 -0.1562 -0.0412 -0.5461
 6180TIP3    H140099   6.707   2.851   7.823 -0.6886  0.4856  0.0928
 6180TIP3    H240100   6.786   2.924   7.930  0.7962 -0.1495 -0.5375
 6181TIP3   OH240101   1.074   4.642   7.529 -0.3802 -0.1930  0.5901
 6181TIP3    H140102   1.027   4.559   7.531  1.4958 -1.2986  0.9138
 6181TIP3    H240103   1.019   4.699   7.475 -0.6485 -2.3231 -1.5596
 6182TIP3   OH240104   2.762   1.828   6.856 -0.1671 -0.3508  0.1081
 6182TIP3    H140105   2.667   1.824   6.861 -0.1209 -0.3697  1.1956
 6182TIP3    H240106   2.792   1.789   6.939  0.7456  1.3020  0.6005
 6183TIP3   OH240107   1.901   3.709   8.245 -0.3837 -0.0791  0.2759
 6183TIP3    H140108   1.922   3.625   8.204  0.6929 -0.1520  0.9489
 6183TIP3    H240109   1.963   3.717   8.317 -1.6869  0.4382  1.3866
 6184TIP3   OH240110   5.960   6.069   8.483 -0.0764  0.0465 -0.0975
 6184TIP3    H140111   5.868   6.086   8.464 -0.2002  0.4949  0.8533
 6184TIP3    H240112   5.961   5.984   8.526 -0.0344  0.0241 -0.1423
 6185TIP3   OH240113   5.986   2.182   1.345  0.0169  0.5177 -0.0052
 6185TIP3    H140114   6.044   2.192   1.421  0.8072  1.6545 -0.7340
 6185TIP3    H240115   5.898   2.175   1.383  0.6479 -2.3221  1.1812
 6186TIP3   OH240116   5.977   4.293   7.779  0.4182 -0.4369  0.2913
 6186TIP3    H140117   5.905   4.323   7.722  0.0774 -2.4934 -0.4594
 6186TIP3    H240118   6.009   4.373   7.821 -0.6027  0.8960 -1.3242
 6187TIP3   OH240119   0.628   4.412   6.886  0.0721  0.7158  0.0478
 6187TIP3    H140120   0.555   4.425   6.825 -0.0973 -2.0804 -0.5184
 6187TIP3    H240121   0.604   4.463   6.964 -0.1835  3.5820 -1.7691
 6188TIP3   OH240122   4.254   6.247   6.982 -0.6763 -0.0920  0.6492
 6188TIP3    H140123   4.303   6.287   6.911 -0.8144  0.0210  0.6170
 6188TIP3    H240124   4.163   6.270   6.964 -1.0314 -2.2145 -0.5788
 6189TIP3   OH240125   6.346   1.231   6.869  0.0490  0.0297  0.4610
 6189TIP3    H140126   6.288   1.156   6.884  1.2968 -1.6769 -2.3932
 6189TIP3    H240127   6.286   1.305   6.856 -1.3546 -1.0511  0.5355
 6190TIP3   OH240128   2.785   5.041   0.750  0.0962  0.6023 -0.0922
 6190TIP3    H140129   2.779   4.967   0.689 -0.9650 -0.4938  1.2360
 6190TIP3    H240130   2.803   5.117   0.696 -1.6996 -0.1675 -1.8863
 6191TIP3   OH240131   3.209   2.487   7.587 -0.2153  0.1900  0.1648
 6191TIP3    H140132   3.133   2.546   7.589 -0.5702 -0.1457 -1.5132
 6191TIP3    H240133   3.198   2.432   7.664 -0.2769  1.8043  1.3614
 6192TIP3   OH240134   1.067   5.157   1.736  0.6958 -0.0109  0.3479
 6192TIP3    H140135   1.007   5.192   1.670 -1.0694 -0.2889  1.7270
 6192TIP3    H240136   1.025   5.177   1.819  1.3364 -2.3757  1.3054
 6193TIP3   OH240137   6.726   1.755   6.052  0.0083  0.3899  0.3871
 6193TIP3    H140138   6.742   1.799   6.135  0.0653 -0.1861  0.6868
 6193TIP3    H240139   6.804   1.774   5.999  1.6145 -2.0397  1.6877
 6194TIP3   OH240140   6.112   3.474   0.800  0.0714 -0.2550  0.1974
 6194TIP3    H140141   6.069   3.393   0.829  1.3655 -0.6354  1.1139
 6194TIP3    H240142   6.183   3.487   0.862  0.2300  1.3040 -0.2720
 6195TIP3   OH240143   6.045   5.995   7.499 -0.0388 -0.3028 -0.3526
 6195TIP3    H140144   6.136   6.024   7.493 -0.9106  3.0375  0.6261
 6195TIP3    H240145   6.045   5.931   7.570  1.4823 -0.2192 -0.2334
 6196TIP3   OH240146   3.284   4.908   1.681  0.3483 -0.1434  0.5788
 6196TIP3    H140147   3.317   4.819   1.677  0.6283 -0.0260  0.2475
 6196TIP3    H240148   3.356   4.962   1.649 -0.2424  0.0922 -0.4044
 6197TIP3   OH240149   4.529   1.081   2.001 -0.4169  0.2441 -0.0788
 6197TIP3    H140150   4.437   1.078   1.974 -0.5444 -1.3102  0.4087
 6197TIP3    H240151   4.530   1.039   2.087  0.6679  0.8248  0.2067
 6198TIP3   OH240152   1.584   5.220   0.567 -0.0034  0.2280 -0.3034
 6198TIP3    H140153   1.602   5.214   0.660  0.5411  0.0322 -0.4157
 6198TIP3    H240154   1.512   5.159   0.552  0.7699 -0.7493 -0.2198
 6199TIP3   OH240155   4.001   2.759   7.949  0.3684 -0.2310 -0.1882
 6199TIP3    H140156   4.078   2.804   7.984  0.7030 -0.9035 -0.0184
 6199TIP3    H240157   4.019   2.666   7.967  0.4866 -0.5995 -2.0218
 6200TIP3   OH240158   1.235   5.169   1.121 -0.5190 -0.1272 -0.2243
 6200TIP3    H140159   1.191   5.087   1.144  1.0590 -1.6395 -2.2262
 6200TIP3    H240160   1.300   5.144   1.056  0.2447  2.7079 -0.6930
 6201TIP3   OH240161   0.670   6.615   0.899 -0.0098  0.5021  0.2796
 6201TIP3    H140162   0.644   6.587   0.986  1.4430  1.4241  1.0384
 6201TIP3    H240163   0.612   6.689   0.879  0.6201  1.2377  1.1037
 6202TIP3   OH240164   6.596   1.924   7.699  0.0096 -0.0294  0.0631
 6202TIP3    H140165   6.617   1.864   7.627 -0.4999 -2.3545  1.7380
 6202TIP3    H240166   6.671   1.919   7.758  0.5974  2.1473 -0.3884
 6203TIP3   OH240167   5.303   4.272   0.730  0.3337  0.5248  0.3222
 6203TIP3    H140168   5.347   4.187   0.721  0.4236  0.6483 -0.4402
 6203TIP3    H240169   5.365   4.326   0.780  0.9356  0.6141 -0.5093
 6204TIP3   OH240170   0.760   0.497   7.162  0.9409  0.5902  0.7955
 6204TIP3    H140171   0.665   0.485   7.157  0.9692  0.4269  0.6492
 6204TIP3    H240172   0.787   0.508   7.071  0.9398  1.5498  0.9011
 6205TIP3   OH240173   2.097   5.915   8.346  0.1294  0.3858  0.5054
 6205TIP3    H140174   2.188   5.941   8.354  0.1664  0.1606  0.8590
 6205TIP3    H240175   2.049   5.997   8.330  0.4014  0.4911  0.2239
 6206TIP3   OH240176   5.541   5.628   0.756 -0.4155 -0.3462  0.3297
 6206TIP3    H140177   5.453   5.591   0.749  0.7315 -3.2443 -0.1773
 6206TIP3    H240178   5.547   5.689   0.682 -2.2513  0.6229  0.9120
 6207TIP3   OH240179   3.368   5.828   7.814  0.3537  0.0515 -0.0510
 6207TIP3    H140180   3.276   5.833   7.786  0.3930  0.0452 -0.1839
 6207TIP3    H240181   3.369   5.871   7.899 -0.5636 -3.5130  1.9543
 6208TIP3   OH240182   5.671   4.029   6.947 -0.2336 -0.3683 -0.4175
 6208TIP3    H140183   5.701   4.112   6.911  1.5023 -1.4970 -1.7516
 6208TIP3    H240184   5.720   4.019   7.029 -1.7902  0.7048  0.6982
 6209TIP3   OH240185   2.984   6.070   0.503 -0.5437  0.4450 -0.8335
 6209TIP3    H140186   2.988   6.165   0.491  1.5201  0.3705 -1.1229
 6209TIP3    H240187   2.921   6.057   0.574 -0.3489  2.0822 -0.3229
 6210TIP3   OH240188   1.231   1.990   0.087  0.6399 -0.0852 -0.1080
 6210TIP3    H140189   1.242   2.004  -0.007 -0.4657  0.8604 -0.1201
 6210TIP3    H240190   1.273   2.065   0.128  0.4908 -0.1244  0.1190
 6211TIP3   OH240191   5.422   5.766   8.084  0.4349 -0.5531 -0.3597
 6211TIP3    H140192   5.483   5.815   8.029  1.9528 -4.1134 -2.1492
 6211TIP3    H240193   5.477   5.705   8.134 -1.2118  0.3439  2.8306
 6212TIP3   OH240194   4.990   2.848   0.401  0.0494 -0.5910 -0.4898
 6212TIP3    H140195   4.897   2.847   0.379 -0.6411 -1.3090  2.1089
 6212TIP3    H240196   5.023   2.764   0.369 -0.2585 -0.4412 -1.2012
 6213TIP3   OH240197   5.042   3.083   7.353  0.0988 -0.9467 -0.7392
 6213TIP3    H140198   5.020   3.150   7.416  0.5656  0.6595 -2.2075
 6213TIP3    H240199   5.138   3.081   7.353  0.0880 -1.7266 -0.5993
 6214TIP3   OH240200   3.156   1.128   7.174 -0.0474 -0.2494 -0.3088
 6214TIP3    H140201   3.245   1.105   7.145 -0.5076 -1.5370 -0.7881
 6214TIP3    H240202   3.147   1.084   7.259 -1.1127 -2.4115 -1.4560
 6215TIP3   OH240203   2.961   0.135   2.158  0.2897 -0.4495  0.0662
 6215TIP3    H140204   2.982   0.194   2.230  0.7235  0.3989 -0.7283
 6215TIP3    H240205   2.991   0.182   2.079 -1.4973 -0.6727 -0.8031
 6216TIP3   OH240206   1.246   2.750   7.709 -0.2142  0.7001 -0.2043
 6216TIP3    H140207   1.285   2.762   7.622 -0.7870  2.2377 -0.2767
 6216TIP3    H240208   1.161   2.793   7.704 -0.4195  0.4816  1.0076
 6217TIP3   OH240209   1.575   0.776   1.410  0.3180  0.2370  0.0240
 6217TIP3    H140210   1.638   0.705   1.417 -0.3581 -0.4796 -0.8098
 6217TIP3    H240211   1.581   0.822   1.494 -1.7525 -2.9759  2.1854
 6218TIP3   OH240212   4.926   4.624   8.439 -0.2528  0.5582  0.2198
 6218TIP3    H140213   4.970   4.704   8.470  0.7324  1.1440 -2.4080
 6218TIP3    H240214   4.835   4.651   8.426  0.3073  1.7006 -1.7810
 6219TIP3   OH240215   3.056   4.005   1.827  0.1842 -0.5527 -0.2891
 6219TIP3    H140216   3.151   4.004   1.840  0.0851 -1.0417  0.4600
 6219TIP3    H240217   3.031   4.095   1.843  0.2404 -0.8620  1.8096
 6220TIP3   OH240218   0.204   3.104   8.186 -0.0521 -0.4970  0.4025
 6220TIP3    H140219   0.111   3.090   8.169 -0.1758  1.2881 -0.6222
 6220TIP3    H240220   0.242   3.121   8.100  0.5457  2.2984  1.1431
 6221TIP3   OH240221   5.919   5.018   0.089 -0.4910 -0.8070 -0.4039
 6221TIP3    H140222   5.878   5.104   0.093  0.4307 -0.3844  0.1828
 6221TIP3    H240223   5.924   4.989   0.180  1.8589 -0.1792 -0.2803
 6222TIP3   OH240224   1.360   1.589   7.508  0.0538  0.1512 -0.3958
 6222TIP3    H140225   1.389   1.509   7.552 -0.9449  0.8126  1.6016
 6222TIP3    H240226   1.348   1.564   7.417  0.7696 -1.6931 -0.0220
 6223TIP3   OH240227   2.471   5.716   0.326  0.3633  0.0168 -0.4111
 6223TIP3    H140228   2.424   5.714   0.409 -1.7472  2.7668 -1.3949
 6223TIP3    H240229   2.424   5.780   0.273  1.9926 -1.1594 -3.5423
 6224TIP3   OH240230   4.410   6.695   7.574 -0.0223  0.3684  0.4459
 6224TIP3    H140231   4.357   6.684   7.652 -1.3611  1.9115 -0.1840
 6224TIP3    H240232   4.494   6.727   7.606 -0.5677  1.0270  1.2477
 6225TIP3   OH240233   4.678   5.208   8.038  0.2017  0.4217 -0.6327
 6225TIP3    H140234   4.611   5.222   7.970  0.7304  1.0752 -1.0326
 6225TIP3    H240235   4.761   5.208   7.990  0.4922 -0.5437 -0.1658
 6226TIP3   OH240236   2.489   6.702   7.699  0.1549  0.1331 -1.0777
 6226TIP3    H140237   2.430   6.762   7.745  1.1452 -0.1410  0.6330
 6226TIP3    H240238   2.434   6.627   7.676  0.1584 -1.0404  2.2789
 6227TIP3   OH240239   5.097   6.239   2.084  0.1604  0.4291  0.7259
 6227TIP3    H140240   5.047   6.304   2.036  0.2140  0.5686  0.8566
 6227TIP3    H240241   5.098   6.271   2.175  1.0486  0.7803  0.6040
 6228TIP3   OH240242   3.994   1.691   7.671 -0.3694 -0.0746 -0.2224
 6228TIP3    H140243   4.048   1.628   7.718  0.3238  0.2394 -0.5845
 6228TIP3    H240244   3.932   1.722   7.736 -0.2911 -0.6341  0.1322
 6229TIP3   OH240245   5.882   1.730   1.638 -0.2625  0.1660  0.1086
 6229TIP3    H140246   5.919   1.801   1.586  1.1659  0.8077  1.8893
 6229TIP3    H240247   5.937   1.654   1.617 -0.0459  0.2829  0.2472
 6230TIP3   OH240248   2.758   3.801   8.348  0.2854  0.1903  0.2208
 6230TIP3    H140249   2.820   3.794   8.276 -0.1138  1.4229 -0.2639
 6230TIP3    H240250   2.682   3.846   8.310 -0.5381 -0.4688  1.0306
 6231TIP3   OH240251   3.328   5.759   7.010  0.2315 -0.3587  0.2863
 6231TIP3    H140252   3.345   5.724   7.097 -1.7596 -1.6367  0.2343
 6231TIP3    H240253   3.265   5.698   6.972  1.7937 -0.4454 -2.4605
 6232TIP3   OH240254   2.839   3.912   2.071 -0.4186  0.2225  0.4169
 6232TIP3    H140255   2.872   3.830   2.033 -0.6273  0.6764 -0.7783
 6232TIP3    H240256   2.914   3.972   2.067  0.2065 -0.3295  2.7119
 6233TIP3   OH240257   0.672   6.483   0.090 -0.2851 -0.4820  0.4986
 6233TIP3    H140258   0.727   6.550   0.133  1.5949 -1.8253  0.3012
 6233TIP3    H240259   0.731   6.439   0.029 -1.9773 -1.0970 -0.7645
 6234TIP3   OH240260   0.670   2.434   1.002 -0.2647 -0.2586 -0.1056
 6234TIP3    H140261   0.684   2.343   1.029 -0.0912 -0.5263 -1.0703
 6234TIP3    H240262   0.713   2.441   0.917  1.4512  1.2636  0.8153
 6235TIP3   OH240263   4.811   0.387   2.249  0.2230 -0.6315  0.1400
 6235TIP3    H140264   4.755   0.355   2.179  0.8302 -1.0974 -0.1411
 6235TIP3    H240265   4.899   0.384   2.213  0.4549 -0.0855  0.6382
 6236TIP3   OH240266   1.229   2.019   7.471 -0.2596  0.0413  0.0248
 6236TIP3    H140267   1.300   1.989   7.527  1.0040 -0.0200 -1.5032
 6236TIP3    H240268   1.189   2.091   7.519  2.6031  1.9103 -0.0924
 6237TIP3   OH240269   3.354   5.714   7.455 -0.8251  0.2078  0.1235
 6237TIP3    H140270   3.336   5.645   7.519 -0.5925  0.4320  0.4287
 6237TIP3    H240271   3.435   5.754   7.484 -0.0429 -0.5033 -1.0040
 6238TIP3   OH240272   0.697   1.064   6.366  0.1490  0.1444 -0.1451
 6238TIP3    H140273   0.722   1.057   6.458  1.0225 -0.7510 -0.4338
 6238TIP3    H240274   0.629   1.132   6.364  1.7742  1.8940  0.8346
 6239TIP3   OH240275   1.181   2.287   0.275  0.1143  0.0393 -0.1624
 6239TIP3    H140276   1.241   2.358   0.255  2.2708 -1.6287  0.0727
 6239TIP3    H240277   1.134   2.271   0.193  2.4978 -0.8702 -1.4458
 6240TIP3   OH240278   5.746   1.804   8.179  0.2593 -0.1758  0.7561
 6240TIP3    H140279   5.685   1.827   8.249  2.4694  2.0148  2.1105
 6240TIP3    H240280   5.802   1.737   8.216 -0.7977 -1.6725 -0.2447
 6241TIP3   OH240281   6.148   1.747   8.454  0.0966 -0.0606 -0.3308
 6241TIP3    H140282   6.108   1.691   8.521  0.7896 -0.8420 -0.5522
 6241TIP3    H240283   6.242   1.730   8.462  0.3098  0.9807 -0.4956
 6242TIP3   OH240284   1.311   4.907   1.296  0.1645  0.1809  0.1579
 6242TIP3    H140285   1.275   4.961   1.367 -1.6135 -0.6964 -0.0388
 6242TIP3    H240286   1.247   4.915   1.225  0.4712 -1.2324 -0.3069
 6243TIP3   OH240287   1.422   6.249   8.365  0.0788 -0.0404  0.4674
 6243TIP3    H140288   1.341   6.277   8.322  0.4003  2.4808  1.3426
 6243TIP3    H240289   1.396   6.220   8.452  0.1321  1.4237  1.0003
 6244TIP3   OH240290   1.585   0.349   1.402  0.1599  0.0604 -0.6101
 6244TIP3    H140291   1.658   0.404   1.431 -0.6172 -0.1215  1.9684
 6244TIP3    H240292   1.614   0.259   1.418 -1.0688  0.0135  1.9578
 6245TIP3   OH240293   1.540   0.079   0.089 -0.4959 -0.3935  0.1329
 6245TIP3    H140294   1.452   0.050   0.115 -1.1758  0.7609 -0.7431
 6245TIP3    H240295   1.589   0.082   0.171 -1.4041 -0.6147  0.7109
 6246TIP3   OH240296   0.879   6.238   1.571 -0.2782  0.0578 -0.2954
 6246TIP3    H140297   0.798   6.194   1.594  0.7017 -2.0387 -0.5905
 6246TIP3    H240298   0.919   6.262   1.655 -0.0771 -1.1132 -0.0408
 6247TIP3   OH240299   6.397   5.326   2.103 -0.1133 -0.1786 -0.1118
 6247TIP3    H140300   6.393   5.265   2.029  2.3912  1.1488 -1.4599
 6247TIP3    H240301   6.390   5.269   2.181 -1.7873 -1.7109 -1.2885
 6248TIP3   OH240302   0.498   3.109   7.762 -0.0898 -0.5455  0.0196
 6248TIP3    H140303   0.519   3.016   7.770  1.3014 -0.1198  3.0793
 6248TIP3    H240304   0.403   3.114   7.776  0.1813 -1.4011  2.9941
 6249TIP3   OH240305   2.428   5.760   7.406 -0.6750  0.1745  0.1808
 6249TIP3    H140306   2.376   5.686   7.436 -0.6855  0.8441  1.9256
 6249TIP3    H240307   2.516   5.742   7.437 -0.3139  0.1091 -0.8408
 6250TIP3   OH240308   6.621   5.619   1.298 -0.3290  0.0850  0.2457
 6250TIP3    H140309   6.639   5.666   1.380 -1.3657 -1.0850  1.1797
 6250TIP3    H240310   6.687   5.651   1.237 -1.5192  3.5167  0.5038
 6251TIP3   OH240311   6.021   0.103   7.536  0.4578 -0.1696 -0.4305
 6251TIP3    H140312   6.061   0.154   7.606 -3.4914 -1.2060  3.0452
 6251TIP3    H240313   5.983   0.168   7.477  1.7528  0.7679 -0.2789
 6252TIP3   OH240314   4.455   3.543   1.628  0.1920 -0.4388  0.5949
 6252TIP3    H140315   4.404   3.601   1.571 -2.6071 -1.7331  1.6187
 6252TIP3    H240316   4.541   3.585   1.634 -0.8963  2.2015 -0.7699
 6253TIP3   OH240317   2.160   6.079   7.943 -0.4094 -0.0269  0.5612
 6253TIP3    H140318   2.251   6.088   7.971 -0.3160 -1.8320  0.9779
 6253TIP3    H240319   2.135   5.991   7.970 -2.3458  0.4750  0.5883
 6254TIP3   OH240320   4.447   6.712   0.348  0.2881 -0.0387  0.2733
 6254TIP3    H140321   4.534   6.731   0.382 -0.0757  0.6220  0.8651
 6254TIP3    H240322   4.399   6.794   0.357 -0.0144 -0.0040 -1.2818
 6255TIP3   OH240323   1.694   6.757   6.889  0.6723  0.0670  0.0693
 6255TIP3    H140324   1.625   6.690   6.891  0.9142 -0.1658  1.4498
 6255TIP3    H240325   1.776   6.707   6.885  0.8059  0.3336 -0.8504
 6256TIP3   OH240326   0.350   5.379   1.130 -0.5110  0.9202 -0.1090
 6256TIP3    H140327   0.407   5.358   1.056 -3.3147 -1.9406 -1.7032
 6256TIP3    H240328   0.320   5.468   1.113  1.7593  1.7163 -0.2992
 6257TIP3   OH240329   0.359   4.252   0.875  0.4642  0.5203 -0.4202
 6257TIP3    H140330   0.442   4.259   0.921 -0.0813 -0.0717  0.6903
 6257TIP3    H240331   0.292   4.259   0.944 -0.3626 -1.4405 -0.9433
 6258TIP3   OH240332   5.290   4.885   2.546 -0.0494 -0.0565  0.2252
 6258TIP3    H140333   5.224   4.894   2.477 -0.6702  0.1705  0.8459
 6258TIP3    H240334   5.334   4.970   2.549 -1.0567  0.4566  1.1439
 6259TIP3   OH240335   2.111   2.293   6.544  0.3395  0.3415  0.1130
 6259TIP3    H140336   2.154   2.367   6.501  0.6043  0.4373  0.5389
 6259TIP3    H240337   2.035   2.331   6.588  0.3618  0.3282  0.1627
 6260TIP3   OH240338   6.389   1.245   8.364 -0.0086  0.0589 -0.0232
 6260TIP3    H140339   6.407   1.236   8.270 -0.4469  0.6596 -0.1690
 6260TIP3    H240340   6.313   1.190   8.379  0.3680 -0.4450  0.0910
 6261TIP3   OH240341   5.910   1.072   6.735 -0.1591  0.7756 -0.3045
 6261TIP3    H140342   5.909   0.989   6.688  3.7302 -0.1836  0.9472
 6261TIP3    H240343   5.824   1.111   6.718 -2.6348 -3.9454 -0.0846
 6262TIP3   OH240344   3.345   4.333   6.721 -0.1313 -0.7193  0.1514
 6262TIP3    H140345   3.267   4.299   6.766  0.2698 -1.2337  0.4630
 6262TIP3    H240346   3.362   4.417   6.764 -0.3703 -0.7192  0.2503
 6263TIP3   OH240347   0.167   1.918   2.414  0.3509  0.2074  0.4958
 6263TIP3    H140348   0.248   1.967   2.423 -0.0636  1.3404 -1.3740
 6263TIP3    H240349   0.125   1.955   2.336 -0.8103 -1.9594  0.0112
 6264TIP3   OH240350   6.653   3.102   6.114  0.2214 -0.2147  0.6808
 6264TIP3    H140351   6.588   3.158   6.157 -0.7097 -0.4343 -0.4000
 6264TIP3    H240352   6.602   3.031   6.076  0.9431  0.1948 -1.1390
 6265TIP3   OH240353   3.828   4.489   1.623  0.5792 -0.4187 -0.0209
 6265TIP3    H140354   3.870   4.404   1.638  0.5855 -0.6491 -1.1976
 6265TIP3    H240355   3.848   4.509   1.531  0.5839  0.8621  0.2414
 6266TIP3   OH240356   5.987   1.098   8.530  0.3783  0.0903  0.1618
 6266TIP3    H140357   5.903   1.077   8.570  0.9540 -0.6061  1.0625
 6266TIP3    H240358   6.040   1.133   8.603  1.1747 -0.3949 -0.1651
 6267TIP3   OH240359   2.743   3.854   7.652  0.0269 -0.4058  0.3773
 6267TIP3    H140360   2.767   3.891   7.567  1.1194 -3.6154 -0.8818
 6267TIP3    H240361   2.824   3.858   7.703 -0.5351  1.1846  1.2209
 6268TIP3   OH240362   3.478   0.749   1.821 -0.1144  0.1356 -0.8344
 6268TIP3    H140363   3.471   0.786   1.733 -1.0146 -1.0934 -1.2903
 6268TIP3    H240364   3.394   0.769   1.863 -0.9470 -2.0311 -1.3648
 6269TIP3   OH240365   4.491   4.483   6.953 -0.7855  0.3252  0.3431
 6269TIP3    H140366   4.449   4.426   6.889 -0.9259 -0.0612  0.7828
 6269TIP3    H240367   4.472   4.444   7.038  3.7670 -2.2797  0.5245
 6270TIP3   OH240368   3.984   5.507   7.905 -0.2024 -0.1162 -0.8621
 6270TIP3    H140369   4.025   5.440   7.961  0.1515  0.4084 -0.4875
 6270TIP3    H240370   3.945   5.457   7.834 -0.0637 -0.7409 -0.5115
 6271TIP3   OH240371   3.911   5.608   2.176 -0.3156 -0.3679 -0.2883
 6271TIP3    H140372   3.920   5.591   2.270  1.8849  1.4324 -0.0719
 6271TIP3    H240373   3.863   5.691   2.171 -0.6193 -0.5661 -0.7869
 6272TIP3   OH240374   3.443   3.768   0.838  0.2117  0.4231 -0.6363
 6272TIP3    H140375   3.469   3.676   0.836  4.0930  1.3620 -0.8466
 6272TIP3    H240376   3.429   3.791   0.746  0.0253  0.2560 -0.6506
 6273TIP3   OH240377   0.633   2.691   8.096 -0.0643 -0.0824 -0.6550
 6273TIP3    H140378   0.728   2.677   8.093  0.0423  0.3064  0.4388
 6273TIP3    H240379   0.620   2.751   8.169 -1.1131  0.2903 -1.1236
 6274TIP3   OH240380   1.730   0.535   0.851 -0.8361  0.2633 -0.2768
 6274TIP3    H140381   1.731   0.557   0.944 -0.5244 -0.6348 -0.0604
 6274TIP3    H240382   1.649   0.573   0.818 -2.5852 -2.0914  1.0303
 6275TIP3   OH240383   3.354   3.658   2.290  0.0926 -0.0699 -0.2735
 6275TIP3    H140384   3.302   3.600   2.345 -0.8224  1.2027  0.2728
 6275TIP3    H240385   3.289   3.704   2.236  0.5504  1.7770  0.6458
 6276TIP3   OH240386   4.009   4.768   6.795  0.6761 -0.0279  0.1452
 6276TIP3    H140387   3.986   4.856   6.826  0.4710  0.0614 -0.2471
 6276TIP3    H240388   4.027   4.780   6.702  0.1752 -0.4872 -0.0139
 6277TIP3   OH240389   5.311   3.062   7.346 -0.3250 -0.6801 -0.2883
 6277TIP3    H140390   5.370   3.030   7.413  0.3460 -1.3794 -1.1831
 6277TIP3    H240391   5.343   3.150   7.324  0.1266 -0.8857 -0.4604
 6278TIP3   OH240392   3.507   5.670   2.048 -0.4021  0.2644  0.3012
 6278TIP3    H140393   3.484   5.725   2.123 -2.1101  1.6350 -1.1431
 6278TIP3    H240394   3.431   5.675   1.991  0.8698 -0.6886 -1.5640
 6279TIP3   OH240395   5.845   2.592   7.934 -0.2425  0.1560 -0.0172
 6279TIP3    H140396   5.878   2.649   8.004 -1.5770 -0.5407  1.2281
 6279TIP3    H240397   5.816   2.513   7.979 -0.4532 -0.6175 -1.4615
 6280TIP3   OH240398   5.378   6.663   8.328  0.0536  0.4783 -0.3133
 6280TIP3    H140399   5.364   6.633   8.238 -1.4827  0.8026 -0.2197
 6280TIP3    H240400   5.388   6.583   8.379 -2.7973  0.0626 -0.2446
 6281TIP3   OH240401   3.118   6.405   1.613  0.0835  0.2986  0.8683
 6281TIP3    H140402   3.183   6.335   1.622  0.2201  0.1312 -1.0408
 6281TIP3    H240403   3.048   6.381   1.672  0.5349 -0.9847  0.9038
 6282TIP3   OH240404   2.687   3.883   7.212  0.2542  0.3330  0.4024
 6282TIP3    H140405   2.657   3.965   7.173  0.5369  0.3496  0.2187
 6282TIP3    H240406   2.606   3.837   7.235 -0.0013 -0.6252 -2.1197
 6283TIP3   OH240407   2.787   6.630   6.486 -0.3117 -0.4316  0.7201
 6283TIP3    H140408   2.724   6.681   6.536 -0.4715  2.7947 -2.4293
 6283TIP3    H240409   2.741   6.549   6.463 -1.7426 -0.0000  1.9814
 6284TIP3   OH240410   6.132   1.418   8.278  0.5593 -0.1031 -0.3686
 6284TIP3    H140411   6.127   1.414   8.373 -1.0108  1.4477 -0.3250
 6284TIP3    H240412   6.135   1.326   8.250 -1.9729 -0.7539  1.1077
 6285TIP3   OH240413   2.777   2.353   2.008 -0.0711 -0.0253 -0.5178
 6285TIP3    H140414   2.724   2.361   2.088 -0.1097  0.2676 -0.5736
 6285TIP3    H240415   2.717   2.318   1.943  0.2490 -1.3778 -0.1158
 6286TIP3   OH240416   0.688   6.264   7.374  0.2735  0.2620 -0.2354
 6286TIP3    H140417   0.628   6.190   7.381  1.6453 -1.0551 -1.4247
 6286TIP3    H240418   0.729   6.271   7.461 -1.4498  1.1088  0.5484
 6287TIP3   OH240419   2.169   1.415   1.627  0.1605  0.8842 -0.5099
 6287TIP3    H140420   2.109   1.490   1.633 -0.2590  0.5377 -0.2715
 6287TIP3    H240421   2.112   1.341   1.607  0.5033  0.5317 -0.1992
 6288TIP3   OH240422   0.716   6.367   8.298 -0.1595  0.0742  0.3641
 6288TIP3    H140423   0.663   6.421   8.239  0.1711 -1.5725 -1.5393
 6288TIP3    H240424   0.757   6.430   8.357  0.5544  1.9808 -1.9860
 6289TIP3   OH240425   3.576   5.904   7.121  0.2659  0.1858  0.1950
 6289TIP3    H140426   3.623   5.922   7.203  0.9065 -0.8001  0.0659
 6289TIP3    H240427   3.533   5.820   7.137 -1.5067  1.0759  0.3179
 6290TIP3   OH240428   1.132   6.583   8.498  0.0104 -0.4061  0.4204
 6290TIP3    H140429   1.171   6.662   8.534  1.5682 -0.7210 -0.4513
 6290TIP3    H240430   1.117   6.604   8.405 -0.8755 -0.6822  0.4881
 6291TIP3   OH240431   4.449   0.116   8.545  0.3232  0.7027  0.6009
 6291TIP3    H140432   4.541   0.122   8.520  1.2495  0.6995  3.6186
 6291TIP3    H240433   4.438   0.181   8.614 -1.2443 -0.9946  2.0708
 6292TIP3   OH240434   3.132   5.229   0.952 -0.4161  0.7692 -0.4009
 6292TIP3    H140435   3.071   5.254   1.022  0.0005 -0.7682  0.5570
 6292TIP3    H240436   3.112   5.137   0.935  2.5104 -0.2670  0.9674
 6293TIP3   OH240437   2.083   4.493   7.905  0.0246  0.4872 -0.5582
 6293TIP3    H140438   2.098   4.587   7.911 -0.8826  0.5461  1.2322
 6293TIP3    H240439   2.072   4.477   7.811  3.2711  1.6274 -1.2358
 6294TIP3   OH240440   5.499   5.486   1.878  0.1607  0.1339  0.3527
 6294TIP3    H140441   5.444   5.560   1.851 -0.8236 -0.7478 -0.1237
 6294TIP3    H240442   5.584   5.504   1.838 -0.2788  0.6428 -0.3836
 6295TIP3   OH240443   6.533   5.935   0.844  0.0969 -0.1492  0.5450
 6295TIP3    H140444   6.596   5.863   0.847 -0.6009 -0.8238 -0.2139
 6295TIP3    H240445   6.585   6.011   0.818  0.4173 -0.9702 -1.4748
 6296TIP3   OH240446   4.866   0.835   7.859  0.1334  0.5890  0.0719
 6296TIP3    H140447   4.772   0.817   7.868  0.0958  0.2588 -0.9183
 6296TIP3    H240448   4.897   0.772   7.795  0.8975  1.1638 -0.1397
 6297TIP3   OH240449   4.647   6.540   0.182 -0.2056  0.4774 -0.0481
 6297TIP3    H140450   4.615   6.590   0.106  0.3188  0.1072 -0.5234
 6297TIP3    H240451   4.583   6.557   0.251 -1.2987 -0.0505 -0.9005
 6298TIP3   OH240452   6.088   6.249   7.727 -0.0033  0.1159  0.1495
 6298TIP3    H140453   6.061   6.338   7.702 -0.6488 -0.5724 -1.7843
 6298TIP3    H240454   6.130   6.214   7.648 -0.5361 -1.5778  0.5892
 6299TIP3   OH240455   3.594   6.245   8.124 -0.1158 -0.1998 -0.1188
 6299TIP3    H140456   3.499   6.257   8.112  0.0963  1.4898 -0.3359
 6299TIP3    H240457   3.601   6.166   8.178 -1.7307  0.5409  1.2747
 6300TIP3   OH240458   1.084   1.590   7.560 -0.0727  0.3185 -0.3924
 6300TIP3    H140459   1.172   1.612   7.527 -0.2975 -0.2191 -1.3826
 6300TIP3    H240460   1.100   1.539   7.639  0.4775  2.0919  0.7137
 6301TIP3   OH240461   3.739   3.671   0.288  0.0299 -0.4204 -0.5638
 6301TIP3    H140462   3.655   3.716   0.284 -0.0739 -0.6473 -1.0682
 6301TIP3    H240463   3.798   3.732   0.332  0.0644  0.4935 -1.8083
 6302TIP3   OH240464   0.764   2.676   7.159  0.2602  0.0223 -0.2178
 6302TIP3    H140465   0.704   2.663   7.232  0.6475 -1.5023 -0.1206
 6302TIP3    H240466   0.810   2.592   7.152  1.4575  0.7263 -1.1046
 6303TIP3   OH240467   6.700   3.846   1.043 -0.1998 -0.4938 -0.3634
 6303TIP3    H140468   6.758   3.857   0.969 -0.0535 -0.8030 -0.2934
 6303TIP3    H240469   6.714   3.924   1.097 -1.6094  0.6447 -1.5394
 6304TIP3   OH240470   5.022   6.889   7.384 -0.1704  0.3061 -0.5334
 6304TIP3    H140471   5.030   6.937   7.301 -1.7456 -0.2473 -1.0429
 6304TIP3    H240472   5.113   6.871   7.410  0.4721  3.1198 -0.5427
 6305TIP3   OH240473   4.636   2.533   0.995 -0.0698  0.4751 -0.0024
 6305TIP3    H140474   4.596   2.509   1.079 -0.1549 -0.3759 -0.2787
 6305TIP3    H240475   4.730   2.539   1.014 -0.1557  0.9763  0.3012
 6306TIP3   OH240476   4.724   0.442   7.457  0.1722  0.3180 -0.5169
 6306TIP3    H140477   4.761   0.398   7.380 -3.2568 -0.8545 -1.6690
 6306TIP3    H240478   4.723   0.374   7.525  0.6143  0.5099 -0.3167
 6307TIP3   OH240479   4.671   5.205   1.047  0.7021  0.0595 -0.4441
 6307TIP3    H140480   4.619   5.209   0.967  2.1981  0.9536 -1.4077
 6307TIP3    H240481   4.730   5.131   1.034  1.7755  0.9414 -0.7101
 6308TIP3   OH240482   0.495   0.904   1.963  0.3225 -0.1097 -0.2172
 6308TIP3    H140483   0.452   0.958   1.897  0.7710 -0.1364 -0.5389
 6308TIP3    H240484   0.448   0.923   2.044  0.8237  1.2035 -0.2054
 6309TIP3   OH240485   0.018   2.263   6.357 -0.2349  0.1734 -0.1882
 6309TIP3    H140486   0.080   2.225   6.420 -0.8361  0.7756  0.7832
 6309TIP3    H240487   0.073   2.289   6.283  0.6742  0.6543  0.6406
 6310TIP3   OH240488   5.520   0.490   7.547  0.2817  0.4409  0.4007
 6310TIP3    H140489   5.521   0.578   7.508  0.2978  0.5025  0.5412
 6310TIP3    H240490   5.612   0.467   7.556  0.2754  0.0918 -0.3553
 6311TIP3   OH240491   3.616   3.167   1.339 -0.7394  0.1134 -0.1543
 6311TIP3    H140492   3.677   3.094   1.327  0.8582  1.4933 -0.8979
 6311TIP3    H240493   3.606   3.204   1.251 -0.5246  1.5376  0.4014
 6312TIP3   OH240494   0.042   1.002   2.107 -0.4920 -0.2092  0.2053
 6312TIP3    H140495   0.136   0.986   2.100 -0.5526 -0.4945  0.0596
 6312TIP3    H240496   0.036   1.084   2.156 -0.1842 -0.4884  0.7174
 6313TIP3   OH240497   3.373   4.463   8.372  0.0309  0.2072  0.1020
 6313TIP3    H140498   3.381   4.473   8.467  2.3319 -0.9102  0.0859
 6313TIP3    H240499   3.450   4.507   8.337 -0.0358 -0.6283 -1.1491
 6314TIP3   OH240500   1.317   2.043   2.504 -0.0646 -0.4503  0.0088
 6314TIP3    H140501   1.297   2.106   2.435  0.2309  0.1206  0.4466
 6314TIP3    H240502   1.372   1.977   2.461  0.6760  0.2532 -0.1455
 6315TIP3   OH240503   4.871   3.736   7.330 -0.2137 -0.4911 -0.1121
 6315TIP3    H140504   4.945   3.796   7.331 -1.0887  0.6407  0.7304
 6315TIP3    H240505   4.798   3.789   7.297 -1.1036 -0.9284  1.0748
 6316TIP3   OH240506   6.310   3.255   8.454  0.0669 -0.4032  0.0421
 6316TIP3    H140507   6.371   3.195   8.412  1.0043 -0.6951  1.7380
 6316TIP3    H240508   6.231   3.249   8.401  0.5475 -2.2018 -0.5506
 6317TIP3   OH240509   6.367   4.832   0.255 -0.0240 -0.0841  0.1354
 6317TIP3    H140510   6.275   4.859   0.258 -0.1970 -0.5619 -0.6040
 6317TIP3    H240511   6.417   4.913   0.263 -0.5196  0.2337  0.0112
 6318TIP3   OH240512   0.960   3.836   7.085  0.5772 -0.1161 -0.1578
 6318TIP3    H140513   0.903   3.858   7.012  1.3530 -2.6503 -1.6650
 6318TIP3    H240514   0.900   3.826   7.160 -0.6041 -0.1506 -1.0791
 6319TIP3   OH240515   3.113   1.395   0.991 -0.3134  0.2494 -0.8394
 6319TIP3    H140516   3.126   1.480   0.949 -0.0502 -0.7109 -2.8230
 6319TIP3    H240517   3.084   1.416   1.080 -0.9200  2.4076 -1.4871
 6320TIP3   OH240518   3.738   4.859   8.024  0.7432  0.0665  0.5383
 6320TIP3    H140519   3.775   4.893   7.943 -1.7285  1.2619 -0.1877
 6320TIP3    H240520   3.727   4.765   8.008  0.7115  0.2100 -0.3441
 6321TIP3   OH240521   0.439   4.159   8.379  0.1214  0.3110  0.2107
 6321TIP3    H140522   0.382   4.236   8.384  1.0686  0.9602  2.1025
 6321TIP3    H240523   0.516   4.189   8.330 -1.4009 -0.8113 -3.1230
 6322TIP3   OH240524   6.005   5.217   1.611  0.1193  0.3931  0.5960
 6322TIP3    H140525   5.940   5.147   1.611  2.3118 -1.8013  0.2507
 6322TIP3    H240526   6.014   5.241   1.704  0.4882 -0.9904  0.9444
 6323TIP3   OH240527   0.057   3.558   6.343 -0.1787 -0.4416  0.9610
 6323TIP3    H140528   0.080   3.486   6.402  0.8652 -1.0088 -0.0749
 6323TIP3    H240529   0.104   3.538   6.262 -1.2290  0.5243  0.0696
 6324TIP3   OH240530   4.854   5.436   8.322 -0.2925 -0.7054  0.2324
 6324TIP3    H140531   4.914   5.366   8.348  2.5267  1.9998  1.7246
 6324TIP3    H240532   4.781   5.428   8.383  1.5792 -0.4544  2.6924
 6325TIP3   OH240533   5.264   0.313   6.914 -0.2275 -0.5270  0.4221
 6325TIP3    H140534   5.282   0.234   6.964  0.4487 -1.4494 -1.1974
 6325TIP3    H240535   5.350   0.348   6.890 -0.4958 -1.0791 -1.5015
 6326TIP3   OH240536   2.420   2.229   0.825  0.5107 -0.3098  0.6951
 6326TIP3    H140537   2.427   2.248   0.918 -1.0168  0.8520  0.6218
 6326TIP3    H240538   2.333   2.259   0.801  0.9129 -0.4701 -1.1444
 6327TIP3   OH240539   0.593   2.208   0.258 -0.2036 -0.3763 -0.4195
 6327TIP3    H140540   0.597   2.233   0.165 -1.4103 -0.8214 -0.6191
 6327TIP3    H240541   0.684   2.206   0.287  0.1261  0.8833 -1.2927
 6328TIP3   OH240542   4.382   0.218   6.821 -0.1476  0.2762  0.7189
 6328TIP3    H140543   4.292   0.250   6.831 -0.5393 -0.3254 -0.5674
 6328TIP3    H240544   4.431   0.260   6.891 -1.0699  2.0551  0.3617
 6329TIP3   OH240545   3.807   4.615   0.330  0.9260  0.4594  0.4847
 6329TIP3    H140546   3.799   4.550   0.260  1.9008 -0.6447  1.3697
 6329TIP3    H240547   3.881   4.585   0.383  1.0588  2.0051  1.2316
 6330TIP3   OH240548   5.873   3.151   2.381  0.1399  0.7675  0.3019
 6330TIP3    H140549   5.826   3.220   2.428  0.6507  0.3524  1.4706
 6330TIP3    H240550   5.804   3.097   2.342 -0.2627  1.9749 -0.7136
 6331TIP3   OH240551   1.991   1.654   6.566 -0.2264  0.6583 -0.0240
 6331TIP3    H140552   1.977   1.581   6.625  0.8419  0.8646  0.5003
 6331TIP3    H240553   2.086   1.666   6.564 -0.3562  1.7398 -0.4550
 6332TIP3   OH240554   2.125   6.741   8.380 -0.3962  0.4917  0.0869
 6332TIP3    H140555   2.134   6.810   8.445 -3.1157  1.3672 -0.3380
 6332TIP3    H240556   2.192   6.761   8.315  2.9561 -0.8801  2.8240
 6333TIP3   OH240557   0.017   0.037   1.178 -0.1713 -0.0798  0.1505
 6333TIP3    H140558   0.000  -0.057   1.184 -1.1056  0.0620 -0.1006
 6333TIP3    H240559  -0.034   0.075   1.249 -2.1790  0.5046 -1.5144
 6334TIP3   OH240560   6.046   5.939   1.685  0.3639 -0.1196 -0.3865
 6334TIP3    H140561   6.020   5.948   1.776  1.0952 -2.5365  0.1452
 6334TIP3    H240562   6.101   6.015   1.667  0.7604  0.0501  1.4077
 6335TIP3   OH240563   1.985   3.054   1.110  0.2170  0.3220  0.3322
 6335TIP3    H140564   1.984   3.072   1.204 -2.2511  0.8409  0.2923
 6335TIP3    H240565   2.031   3.128   1.072  0.1496  0.7491  1.0520
 6336TIP3   OH240566   0.863   5.562   0.032 -0.4707  0.0245  0.0947
 6336TIP3    H140567   0.877   5.650  -0.003  0.1393 -0.5443 -1.1207
 6336TIP3    H240568   0.883   5.503  -0.041 -0.8405 -1.1300  0.9004
 6337TIP3   OH240569   3.372   4.497   6.969 -0.8621  0.1776 -0.4576
 6337TIP3    H140570   3.351   4.451   7.050  1.9462 -5.8488 -2.6034
 6337TIP3    H240571   3.460   4.533   6.984  0.1675 -1.9491 -0.9464
 6338TIP3   OH240572   3.927   1.159   1.692  0.5103  0.2376  0.2490
 6338TIP3    H140573   3.862   1.092   1.676  0.2973  0.2983  0.8396
 6338TIP3    H240574   4.009   1.123   1.657  0.4142 -0.3592  0.6375
 6339TIP3   OH240575   4.581   1.008   7.844  0.3344 -0.3484 -0.3090
 6339TIP3    H140576   4.496   1.024   7.885  0.5549  0.6893 -0.2202
 6339TIP3    H240577   4.629   1.089   7.857  0.4401  0.0190 -2.5348
 6340TIP3   OH240578   2.896   6.745   0.235 -0.1689 -0.4852  0.0284
 6340TIP3    H140579   2.871   6.653   0.221 -1.8919 -0.3569  1.9379
 6340TIP3    H240580   2.945   6.744   0.317 -1.3612  0.4672  0.7699
 6341TIP3   OH240581   2.580   6.184   7.709  0.1282  0.6173 -0.1248
 6341TIP3    H140582   2.630   6.242   7.766  0.1380  1.7188 -1.2207
 6341TIP3    H240583   2.580   6.227   7.624  0.2375 -1.0473 -1.0259
 6342TIP3   OH240584   6.655   2.140   8.222 -0.1936 -0.0053  0.0064
 6342TIP3    H140585   6.719   2.201   8.186 -1.3541  2.2285  1.4629
 6342TIP3    H240586   6.602   2.113   8.147  1.3687 -0.5813 -0.9276
 6343TIP3   OH240587   4.506   0.153   0.441 -0.2313  0.3803 -0.0096
 6343TIP3    H140588   4.590   0.117   0.469 -0.4317 -0.7075 -0.7603
 6343TIP3    H240589   4.459   0.079   0.403 -1.7477  0.8332  0.8514
 6344TIP3   OH240590   0.358   0.337   1.949 -0.2024  0.5535  0.0445
 6344TIP3    H140591   0.406   0.398   2.006  1.4275 -0.8345  0.2214
 6344TIP3    H240592   0.396   0.251   1.968 -0.8687 -0.2069 -1.8261
 6345TIP3   OH240593   3.368   4.538   0.905 -0.4369  0.6041  0.1198
 6345TIP3    H140594   3.452   4.519   0.865  0.7977  0.6294  2.5201
 6345TIP3    H240595   3.306   4.482   0.859  1.0177 -0.0411 -1.1371
 6346TIP3   OH240596   0.580   3.220   2.525 -0.4881 -0.4901  0.0607
 6346TIP3    H140597   0.489   3.244   2.504 -0.1504  0.4934 -0.3409
 6346TIP3    H240598   0.588   3.237   2.619 -0.5060  0.1880 -0.0523
 6347TIP3   OH240599   3.938   6.167   1.116 -0.5140 -0.0388  0.5764
 6347TIP3    H140600   4.031   6.184   1.102 -0.2156 -1.7909  0.2004
 6347TIP3    H240601   3.893   6.219   1.049  0.4241 -1.7567 -1.5148
 6348TIP3   OH240602   0.679   4.630   1.113  0.0240  0.2760 -0.4334
 6348TIP3    H140603   0.642   4.622   1.201  0.7081  0.8623 -0.0800
 6348TIP3    H240604   0.773   4.637   1.127  0.0412  1.9119 -1.0801
 6349TIP3   OH240605   3.335   1.086   1.201 -0.1893  0.6823  0.1991
 6349TIP3    H140606   3.251   1.111   1.162  0.3135  0.9686 -0.7329
 6349TIP3    H240607   3.390   1.164   1.192  0.1100  0.5768  1.0247
 6350TIP3   OH240608   2.380   6.345   1.373 -0.2981  0.1501  0.2202
 6350TIP3    H140609   2.286   6.336   1.390 -0.0394  0.2651  1.9132
 6350TIP3    H240610   2.413   6.397   1.447  1.2134 -0.4888  0.0351
 6351TIP3   OH240611   2.003   3.192   0.741  0.3537 -0.1410  0.4119
 6351TIP3    H140612   1.929   3.149   0.784 -0.4552  0.7545 -0.0482
 6351TIP3    H240613   1.964   3.241   0.669  1.5333 -0.5168 -0.5067
 6352TIP3   OH240614   0.297   3.044   6.934  0.1861 -0.0867 -0.5272
 6352TIP3    H140615   0.347   2.967   6.906 -2.1585 -1.6542 -0.6475
 6352TIP3    H240616   0.211   3.033   6.894 -0.8552  1.5866  1.0986
 6353TIP3   OH240617   4.729   6.815   0.397 -0.5316 -0.7152  0.2885
 6353TIP3    H140618   4.773   6.823   0.313 -0.4341 -0.1248  0.3920
 6353TIP3    H240619   4.780   6.871   0.456  0.0153 -1.9150  0.9938
 6354TIP3   OH240620   0.350   5.368   7.016 -0.0185  0.8317 -0.4125
 6354TIP3    H140621   0.418   5.328   6.961 -0.6559 -1.7459  0.5273
 6354TIP3    H240622   0.314   5.295   7.066 -2.1937  2.4340  0.5147
 6355TIP3   OH240623   1.023   0.301   6.790 -0.1610 -0.2012  0.2609
 6355TIP3    H140624   1.082   0.376   6.785 -0.6825  0.2042  0.1024
 6355TIP3    H240625   1.065   0.242   6.852  0.3021  0.1777  0.3170
 6356TIP3   OH240626   4.122   3.283   7.842 -0.1527  0.0314 -0.4177
 6356TIP3    H140627   4.152   3.213   7.901 -0.0375  1.2171  0.9838
 6356TIP3    H240628   4.179   3.275   7.766  3.1239  1.4409  1.6388
 6357TIP3   OH240629   1.554   1.579   1.423  0.4462  0.8019  0.2253
 6357TIP3    H140630   1.499   1.501   1.428 -0.6829  1.6347  1.5254
 6357TIP3    H240631   1.637   1.553   1.464  0.8426 -0.2740 -1.1720
 6358TIP3   OH240632   5.874   2.635   0.505  0.0334  0.0775  0.0863
 6358TIP3    H140633   5.872   2.730   0.496  1.0714  0.1318  0.2240
 6358TIP3    H240634   5.951   2.618   0.560  0.0946 -0.8640 -0.2656
 6359TIP3   OH240635   2.177   1.724   6.955 -0.1009  0.0059 -0.4826
 6359TIP3    H140636   2.248   1.779   6.990  0.5352 -1.2435  0.2489
 6359TIP3    H240637   2.222   1.651   6.912 -0.8922 -1.9255  1.7821
 6360TIP3   OH240638   4.936   4.032   1.812 -0.4245 -0.0594 -0.1010
 6360TIP3    H140639   4.866   3.994   1.866  0.2719 -0.2897  0.6688
 6360TIP3    H240640   5.016   4.009   1.858  0.2750 -1.1166 -1.7685
 6361TIP3   OH240641   1.004   1.602   2.463 -0.0034  0.3191  0.7752
 6361TIP3    H140642   1.058   1.664   2.414  0.1841 -0.5587 -0.1846
 6361TIP3    H240643   1.043   1.598   2.550  0.8834  0.4371  0.3916
 6362TIP3   OH240644   3.060   4.562   0.225 -0.1030  0.0691 -0.7573
 6362TIP3    H140645   3.016   4.481   0.200  0.7355  0.1302 -2.5860
 6362TIP3    H240646   2.994   4.630   0.212 -0.5346 -0.2039 -0.0660
 6363TIP3   OH240647   1.479   0.771   1.088  0.1149 -0.0803  0.3801
 6363TIP3    H140648   1.434   0.815   1.017 -0.4593 -1.5562 -0.2160
 6363TIP3    H240649   1.572   0.775   1.064 -0.1901 -2.1806 -1.4955
 6364TIP3   OH240650   4.195   3.741   6.623  0.1822 -0.1604 -0.2561
 6364TIP3    H140651   4.162   3.795   6.695  1.3295  1.0688 -0.6143
 6364TIP3    H240652   4.128   3.674   6.611 -0.9901  0.8095  0.6204
 6365TIP3   OH240653   2.007   1.113   7.987  0.2049  0.0658 -0.1290
 6365TIP3    H140654   2.021   1.191   8.041 -1.0979  0.1867  0.0720
 6365TIP3    H240655   2.094   1.087   7.960  0.6832  1.5546 -0.1345
 6366TIP3   OH240656   3.317   1.719   6.386 -0.1321  0.4551 -0.0590
 6366TIP3    H140657   3.380   1.767   6.439 -0.7471  0.7592  0.4215
 6366TIP3    H240658   3.368   1.655   6.338  0.3333 -0.5005  1.6508
 6367TIP3   OH240659   3.591   2.730   0.826  0.2702 -0.2385  0.2665
 6367TIP3    H140660   3.627   2.652   0.867 -0.1388  0.2122  1.5357
 6367TIP3    H240661   3.510   2.701   0.786  0.8369 -0.7548 -0.5391
 6368TIP3   OH240662   4.602   3.351   8.225  0.3880 -0.3637 -0.6400
 6368TIP3    H140663   4.542   3.354   8.299  1.7989  1.0228  0.5078
 6368TIP3    H240664   4.565   3.413   8.162  1.5373  2.0374  0.8895
 6369TIP3   OH240665   0.164   1.211   7.875 -0.1450  0.3323 -0.2721
 6369TIP3    H140666   0.251   1.245   7.851  1.1207 -2.6890 -0.3480
 6369TIP3    H240667   0.163   1.216   7.971 -0.1986  0.9961 -0.2991
 6370TIP3   OH240668   5.397   3.848   7.655  0.0768  0.1705 -0.5391
 6370TIP3    H140669   5.324   3.801   7.615  0.2598  0.9403 -1.8522
 6370TIP3    H240670   5.475   3.800   7.625  0.2927  1.4528 -2.2318
 6371TIP3   OH240671   5.140   1.007   0.434 -0.2348  0.0968 -0.1430
 6371TIP3    H140672   5.114   0.920   0.404  0.7826 -0.1478 -0.3546
 6371TIP3    H240673   5.095   1.068   0.375  1.0513 -0.3571 -1.6344
 6372TIP3   OH240674   0.164   1.552   1.341  0.1275  0.6839  0.4700
 6372TIP3    H140675   0.089   1.584   1.391 -0.2998 -0.7440  0.8002
 6372TIP3    H240676   0.209   1.493   1.401  0.8657  0.6451 -0.1159
 6373TIP3   OH240677   4.568   3.528   6.219  0.3140  0.2762 -0.3185
 6373TIP3    H140678   4.553   3.557   6.129 -0.3897 -0.3951 -0.4315
 6373TIP3    H240679   4.500   3.572   6.270 -0.3970 -0.6855 -0.4028
 6374TIP3   OH240680   1.945   4.050   8.273  0.0358  0.0012 -0.1555
 6374TIP3    H140681   1.882   4.098   8.220 -1.6275 -1.5216  0.3429
 6374TIP3    H240682   1.903   4.041   8.359  1.7742  0.6017  0.8058
 6375TIP3   OH240683   2.593   3.534   2.550  0.1144  0.7087 -0.1989
 6375TIP3    H140684   2.624   3.445   2.533  0.1634  0.7300 -0.2218
 6375TIP3    H240685   2.599   3.544   2.646 -1.3615  0.1492 -0.0258
 6376TIP3   OH240686   4.712   2.794   0.411  0.0348  0.3088  0.0190
 6376TIP3    H140687   4.674   2.782   0.324 -0.8642 -0.7905  0.5358
 6376TIP3    H240688   4.637   2.792   0.470  0.7185  0.0786  0.8981
 6377TIP3   OH240689   2.167   2.430   6.032 -0.9233  0.3170 -0.2915
 6377TIP3    H140690   2.089   2.409   5.981 -0.9701 -0.0258 -0.0833
 6377TIP3    H240691   2.190   2.519   6.005 -0.3178 -0.2285 -1.6966
 6378TIP3   OH240692   2.778   3.008   0.900  0.5399  0.0897  0.0568
 6378TIP3    H140693   2.764   3.099   0.925 -0.3745  0.8174 -2.7755
 6378TIP3    H240694   2.701   2.962   0.935  0.3170  0.6629  0.3308
 6379TIP3   OH240695   2.749   1.252   7.246  0.5334  0.3079 -0.4002
 6379TIP3    H140696   2.734   1.215   7.332  1.4819  1.4131  0.2726
 6379TIP3    H240697   2.785   1.180   7.194 -0.0246 -0.3564  0.1233
 6380TIP3   OH240698   5.134   6.621   6.557 -0.2506 -0.1113 -0.1018
 6380TIP3    H140699   5.171   6.565   6.489 -0.6625 -0.1082 -0.3340
 6380TIP3    H240700   5.200   6.622   6.626  0.8543  1.0416 -1.1014
 6381TIP3   OH240701   5.527   2.952   7.823  0.2123  0.1885 -0.3910
 6381TIP3    H140702   5.532   3.047   7.821  0.9396  0.1474 -2.4501
 6381TIP3    H240703   5.440   2.932   7.789 -0.2911  0.1014  0.8859
 6382TIP3   OH240704   0.449   3.488   7.766  0.1900  0.4028 -0.5260
 6382TIP3    H140705   0.516   3.504   7.699  1.2675  0.8896  0.6283
 6382TIP3    H240706   0.443   3.570   7.815 -0.7060  0.1142 -0.1350
 6383TIP3   OH240707   5.984   4.830   7.091  0.4439 -0.0968  0.1083
 6383TIP3    H140708   6.022   4.828   7.003  0.7368  1.1404  0.1798
 6383TIP3    H240709   6.058   4.820   7.150  0.0886 -2.4728  0.2528
 6384TIP3   OH240710   4.793   5.101   0.306 -0.4072 -0.3277 -0.3462
 6384TIP3    H140711   4.873   5.053   0.323 -0.9046 -0.9699  0.2395
 6384TIP3    H240712   4.814   5.192   0.328 -0.3136 -0.7438  1.4933
 6385TIP3   OH240713   1.285   0.712   8.238  0.0530 -0.0919  0.0718
 6385TIP3    H140714   1.255   0.706   8.147 -0.2394  1.8498 -0.0017
 6385TIP3    H240715   1.291   0.806   8.255  1.8028 -0.4181  1.5288
 6386TIP3   OH240716   0.286   2.816   0.576 -0.6761  0.2975  0.2670
 6386TIP3    H140717   0.297   2.909   0.592 -3.1138  0.6425  0.2144
 6386TIP3    H240718   0.202   2.808   0.531  0.1168 -1.8138 -1.0338
 6387TIP3   OH240719   5.676   6.466   7.259 -0.1248  0.0418  0.8718
 6387TIP3    H140720   5.646   6.554   7.235  0.9777  0.5373  1.2381
 6387TIP3    H240721   5.770   6.467   7.239 -0.2456 -1.3243  0.1324
 6388TIP3   OH240722   5.721   5.218   1.788  0.3311  0.6172 -0.1037
 6388TIP3    H140723   5.742   5.303   1.749 -0.7205  0.2144 -1.6073
 6388TIP3    H240724   5.647   5.237   1.847 -0.4413  0.6257 -1.0556
 6389TIP3   OH240725   0.674   0.688   8.004 -0.4596 -0.3643 -0.4586
 6389TIP3    H140726   0.765   0.684   8.035 -0.0267  0.7870 -1.4999
 6389TIP3    H240727   0.624   0.712   8.082  0.3826  0.7874 -0.2399
 6390TIP3   OH240728   1.185   4.416   8.366  0.0834  0.0182 -0.3091
 6390TIP3    H140729   1.169   4.453   8.279  0.3074  1.7417  0.3537
 6390TIP3    H240730   1.280   4.406   8.370  0.0112 -0.9026 -0.5643
 6391TIP3   OH240731   6.630   2.857   8.404 -0.1469 -0.5325  0.3010
 6391TIP3    H140732   6.720   2.890   8.391 -0.0158 -0.3662  1.5484
 6391TIP3    H240733   6.633   2.766   8.375  0.2187 -0.2986 -0.4236
 6392TIP3   OH240734   3.874   4.421   7.781 -0.0881 -0.2373 -0.2320
 6392TIP3    H140735   3.955   4.370   7.788 -0.2781 -0.7868 -1.6754
 6392TIP3    H240736   3.811   4.374   7.837  0.2674 -0.4697 -0.0209
 6393TIP3   OH240737   6.021   4.254   0.819  0.0877  0.2166  0.1040
 6393TIP3    H140738   5.950   4.254   0.755  1.0720 -1.4210 -1.0726
 6393TIP3    H240739   5.977   4.256   0.904 -1.2775  1.4709 -0.5872
 6394TIP3   OH240740   6.365   1.524   8.142 -0.1733  0.3380 -0.1297
 6394TIP3    H140741   6.370   1.467   8.066  1.3766  0.6302 -0.2805
 6394TIP3    H240742   6.279   1.506   8.181 -0.6961 -0.3082 -1.5412
 6395TIP3   OH240743   5.708   4.296   1.342 -0.4001  0.0654  0.1826
 6395TIP3    H140744   5.613   4.309   1.342 -0.4775 -0.2736  1.7248
 6395TIP3    H240745   5.739   4.345   1.266 -1.6948  1.0693  0.2644
 6396TIP3   OH240746   4.218   2.440   1.787  0.1517 -0.5542  0.0037
 6396TIP3    H140747   4.147   2.381   1.811  0.7282 -0.9728  0.7261
 6396TIP3    H240748   4.271   2.447   1.866  0.8255 -0.1124 -0.4754
 6397TIP3   OH240749   4.933   6.606   7.718  0.0565 -0.3186 -0.5988
 6397TIP3    H140750   4.885   6.677   7.762  0.3772  0.1962 -1.0779
 6397TIP3    H240751   4.926   6.626   7.625 -0.7189 -1.4745 -0.8073
 6398TIP3   OH240752   4.085   1.034   8.255 -0.0237 -0.2556  0.7021
 6398TIP3    H140753   4.029   0.958   8.273  1.5288 -1.0061  2.7737
 6398TIP3    H240754   4.095   1.035   8.160 -2.8888 -0.5113  0.3014
 6399TIP3   OH240755   5.988   0.603   0.260 -0.0203  0.4059 -0.1004
 6399TIP3    H140756   6.083   0.613   0.257  0.0576  0.1155  0.9866
 6399TIP3    H240757   5.960   0.659   0.332 -0.5856 -0.0409  0.0352
 6400TIP3   OH240758   6.373   4.953   6.686 -0.1367 -0.0255  0.4782
 6400TIP3    H140759   6.354   5.009   6.610  0.4755  0.7652  0.8931
 6400TIP3    H240760   6.356   5.009   6.762 -2.1167 -1.2372  0.9935
 6401TIP3   OH240761   4.228   3.770   7.351 -0.5011 -0.6004 -0.6739
 6401TIP3    H140762   4.228   3.766   7.255  1.3602  1.0966 -0.8024
 6401TIP3    H240763   4.294   3.706   7.378 -0.2696 -0.3309 -0.5943
 6402TIP3   OH240764   6.190   2.324   7.466  0.5108 -0.1896  0.3724
 6402TIP3    H140765   6.240   2.249   7.499  1.8350  0.5012 -0.0245
 6402TIP3    H240766   6.190   2.314   7.371 -0.7247 -0.5494  0.3875
 6403TIP3   OH240767   4.469   5.767   8.088 -0.4416  0.4726 -0.6331
 6403TIP3    H140768   4.552   5.740   8.126 -1.1567  0.8741  1.3406
 6403TIP3    H240769   4.481   5.860   8.068 -0.8507  0.9018  1.0151
 6404TIP3   OH240770   5.702   3.347   2.462 -0.3416 -0.3473  0.0814
 6404TIP3    H140771   5.607   3.347   2.448 -0.4138  2.0743  0.0834
 6404TIP3    H240772   5.717   3.421   2.521  1.7255  0.5103 -1.4049
 6405TIP3   OH240773   2.973   6.341   2.416  0.1119 -0.2528 -0.1581
 6405TIP3    H140774   2.970   6.283   2.492 -2.8944  0.5136  0.4789
 6405TIP3    H240775   2.887   6.330   2.374  1.2098  0.2854 -2.7441
 6406TIP3   OH240776   1.113   0.336   8.344 -0.4650 -0.2895 -0.0419
 6406TIP3    H140777   1.044   0.300   8.400 -0.4638  0.5785  0.5414
 6406TIP3    H240778   1.096   0.430   8.344  1.1615  0.0386  0.7514
 6407TIP3   OH240779   4.629   0.801   8.040  0.9506 -0.2776  0.4138
 6407TIP3    H140780   4.562   0.733   8.036  0.4467  0.0971  1.9102
 6407TIP3    H240781   4.592   0.874   7.992  0.3608 -0.1497  1.0436
 6408TIP3   OH240782   5.926   2.020   7.013 -0.3209 -0.3857 -0.3231
 6408TIP3    H140783   5.920   1.997   6.920 -1.0548  0.6810 -0.5603
 6408TIP3    H240784   5.958   2.111   7.013 -2.0642  0.2702  0.3722
 6409TIP3   OH240785   6.662   0.097   1.820  0.3845 -0.2296 -0.2379
 6409TIP3    H140786   6.685   0.010   1.852  1.3824 -0.1233 -0.6370
 6409TIP3    H240787   6.738   0.151   1.841  0.2653  0.2701 -1.0627
 6410TIP3   OH240788   2.482   3.603   1.589  0.1980 -0.3203  0.1256
 6410TIP3    H140789   2.576   3.621   1.592 -0.0041  0.6781  0.6132
 6410TIP3    H240790   2.443   3.663   1.653 -0.6928 -1.2357  0.4770
 6411TIP3   OH240791   5.061   1.559   0.372 -0.4786  0.2103  0.4561
 6411TIP3    H140792   5.057   1.640   0.424  0.7516  2.4199 -2.5529
 6411TIP3    H240793   4.990   1.568   0.308  0.7684 -0.1436 -1.0471
 6412TIP3   OH240794   6.795   2.379   1.014 -0.1675  0.3228  0.8240
 6412TIP3    H140795   6.784   2.439   0.940 -0.1414 -0.7211 -0.0396
 6412TIP3    H240796   6.709   2.376   1.055 -0.6136 -0.3549 -0.1464
 6413TIP3   OH240797   0.225   4.165   0.179 -0.2128 -0.3028 -0.0022
 6413TIP3    H140798   0.210   4.238   0.119 -1.4630 -0.2530  0.3317
 6413TIP3    H240799   0.261   4.205   0.258 -0.0165 -0.1736 -0.1551
 6414TIP3   OH240800   1.903   3.555   6.370 -0.7059 -0.3452  0.0486
 6414TIP3    H140801   1.969   3.593   6.428 -1.0051  0.2715 -0.0002
 6414TIP3    H240802   1.949   3.485   6.323 -0.1272 -0.0176  0.1155
 6415TIP3   OH240803   4.088   2.235   2.260 -0.3408 -0.3798  0.1077
 6415TIP3    H140804   4.071   2.154   2.309  0.8372 -0.3192  0.6597
 6415TIP3    H240805   4.040   2.303   2.306  1.5471 -0.1362  1.8646
 6416TIP3   OH240806   4.441   1.825   1.431 -0.2618  0.0420 -0.0906
 6416TIP3    H140807   4.477   1.813   1.519 -1.9806 -1.4554  0.4741
 6416TIP3    H240808   4.518   1.830   1.374  0.9024  1.5997  1.5138
 6417TIP3   OH240809   3.798   1.434   1.069 -0.0915  0.2321  0.8608
 6417TIP3    H140810   3.708   1.452   1.096  0.5588  1.9845  2.0778
 6417TIP3    H240811   3.792   1.413   0.975 -1.7724  0.0631  0.9841
 6418TIP3   OH240812   3.454   0.787   0.989 -0.0533 -0.3496 -0.1188
 6418TIP3    H140813   3.412   0.719   1.043 -0.6069  0.2277  0.1870
 6418TIP3    H240814   3.513   0.832   1.049 -0.3253 -0.0076 -0.1023
 6419TIP3   OH240815   2.852   5.756   8.104 -0.4380  0.4132  0.1618
 6419TIP3    H140816   2.946   5.762   8.087 -0.6006  1.4038 -0.4900
 6419TIP3    H240817   2.821   5.686   8.046 -0.4222  1.4694 -1.1689
 6420TIP3   OH240818   5.228   2.737   6.763  0.2533 -0.2903  0.1395
 6420TIP3    H140819   5.223   2.679   6.688  2.4741 -0.5561  0.1230
 6420TIP3    H240820   5.176   2.814   6.738 -0.1593 -0.9460 -1.0928
 6421TIP3   OH240821   4.208   5.278   1.127 -0.1168  1.0817  0.3796
 6421TIP3    H140822   4.267   5.244   1.060  0.4094  1.3287  0.7070
 6421TIP3    H240823   4.266   5.300   1.201 -0.8559 -0.7022  1.5509
 6422TIP3   OH240824   2.969   5.872   0.953 -0.5768 -0.3150  0.2906
 6422TIP3    H140825   2.948   5.961   0.927  1.5206 -0.0142 -0.5881
 6422TIP3    H240826   2.886   5.825   0.949 -1.6833  1.5347  0.5699
 6423TIP3   OH240827   0.417   1.495   6.649 -0.8926  0.0863 -0.3339
 6423TIP3    H140828   0.450   1.527   6.565 -0.6254  0.0350 -0.2484
 6423TIP3    H240829   0.486   1.438   6.682 -0.4815  1.0162  0.4734
 6424TIP3   OH240830   2.820   3.913   6.343 -0.2922 -0.4733  0.1883
 6424TIP3    H140831   2.864   3.950   6.420 -1.5615 -0.1870  0.8144
 6424TIP3    H240832   2.811   3.820   6.363  1.5921 -0.9110 -0.7453
 6425TIP3   OH240833   3.333   0.295   1.315 -0.0049 -0.1044  0.2282
 6425TIP3    H140834   3.372   0.316   1.400  0.3681  0.5582 -0.0926
 6425TIP3    H240835   3.383   0.220   1.283  0.4534  0.2020  0.2060
 6426TIP3   OH240836   1.731   6.668   0.303 -0.1761  0.1065 -0.1851
 6426TIP3    H140837   1.641   6.699   0.317 -0.2826  0.3758 -1.3783
 6426TIP3    H240838   1.785   6.726   0.357 -0.5712  1.0289 -0.7632
 6427TIP3   OH240839   2.396   0.580   7.315  0.5529 -0.0914 -0.7737
 6427TIP3    H140840   2.372   0.621   7.398  0.5416 -1.6910  0.0568
 6427TIP3    H240841   2.360   0.638   7.248 -0.1379  0.8131  0.3485
 6428TIP3   OH240842   1.337   3.383   7.157  0.5730  0.6462  0.4957
 6428TIP3    H140843   1.342   3.397   7.251  1.2224  1.3211  0.3714
 6428TIP3    H240844   1.244   3.393   7.136  0.3146 -0.2678  1.1688
 6429TIP3   OH240845   4.353   2.134   2.044  0.1363 -0.2046 -0.4011
 6429TIP3    H140846   4.337   2.121   2.138 -1.8245 -0.9127 -0.7735
 6429TIP3    H240847   4.434   2.087   2.027 -0.5256 -1.8092  0.6067
 6430TIP3   OH240848   2.784   1.957   7.219 -0.4250  0.8234  0.5130
 6430TIP3    H140849   2.803   1.941   7.311 -1.5810 -0.8551  0.5082
 6430TIP3    H240850   2.776   1.870   7.180 -1.1058  1.4827 -0.9207
 6431TIP3   OH240851   2.966   2.509   0.284  0.0229  0.0051  0.0339
 6431TIP3    H140852   2.962   2.592   0.331  1.8983  2.1619 -3.2372
 6431TIP3    H240853   3.044   2.466   0.320 -1.1421 -0.6150  1.9737
 6432TIP3   OH240854   2.352   6.011   2.103  0.4263  0.0867  0.0984
 6432TIP3    H140855   2.379   5.924   2.131  1.7141  0.9159  1.5818
 6432TIP3    H240856   2.282   6.035   2.164  1.3119  0.7785  0.8767
 6433TIP3   OH240857   5.913   2.823   1.369 -0.0572 -0.1089 -0.8357
 6433TIP3    H140858   5.979   2.819   1.300  1.4507 -0.2512  0.5561
 6433TIP3    H240859   5.894   2.916   1.379  0.5606  0.0023 -0.6785
 6434TIP3   OH240860   3.387   4.961   6.138 -0.0576 -0.6541 -0.6320
 6434TIP3    H140861   3.424   4.964   6.226 -0.4824 -0.5317 -0.4558
 6434TIP3    H240862   3.300   5.000   6.147  0.5457  0.9667 -1.4404
 6435TIP3   OH240863   6.566   4.533   7.192  0.1370  0.3693 -0.0461
 6435TIP3    H140864   6.493   4.561   7.137  0.7763  0.3122 -0.9408
 6435TIP3    H240865   6.566   4.595   7.265 -0.4853  0.6784 -0.3001
 6436TIP3   OH240866   6.032   0.904   0.727  0.1944 -0.3915  0.0504
 6436TIP3    H140867   6.121   0.905   0.761  0.4212 -1.1852 -0.5120
 6436TIP3    H240868   5.977   0.898   0.805  0.6357 -0.2333  0.3808
 6437TIP3   OH240869   6.780   5.954   7.924  0.6807  0.1826 -0.5900
 6437TIP3    H140870   6.747   5.883   7.978  1.8512  0.6961  0.8589
 6437TIP3    H240871   6.712   6.022   7.929  0.4290 -0.0819 -0.4085
 6438TIP3   OH240872   2.224   2.013   0.625 -0.2279 -0.4987 -0.3827
 6438TIP3    H140873   2.205   2.052   0.539  1.8409 -0.1388 -0.7388
 6438TIP3    H240874   2.315   1.984   0.618 -0.0949 -0.6838  1.6263
 6439TIP3   OH240875   0.027   1.442   7.158  0.3540  0.0252 -0.1849
 6439TIP3    H140876   0.074   1.516   7.119  0.4275  0.7790  1.2669
 6439TIP3    H240877   0.088   1.405   7.221 -0.1547 -0.4702  0.0217
 6440TIP3   OH240878   3.593   4.863   0.639 -0.7484 -0.1050  0.1914
 6440TIP3    H140879   3.685   4.888   0.632 -1.4389  2.3894 -1.2385
 6440TIP3    H240880   3.578   4.805   0.564 -0.3752 -0.4366  0.3717
 6441TIP3   OH240881   1.902   0.954   6.630 -0.0920 -0.7617 -0.0317
 6441TIP3    H140882   1.940   0.914   6.552  0.2410  1.2602 -0.9683
 6441TIP3    H240883   1.893   0.882   6.692  2.0257 -1.9710 -1.0206
 6442TIP3   OH240884   4.467   0.735   1.894  0.4725  0.0189  0.0398
 6442TIP3    H140885   4.461   0.746   1.989  1.7570  2.3828 -0.0568
 6442TIP3    H240886   4.387   0.774   1.860  0.0844 -0.6863  0.1392
 6443TIP3   OH240887   0.183   3.752   0.634 -0.5209 -0.1612  0.2560
 6443TIP3    H140888   0.129   3.768   0.556  0.8512 -0.6603 -0.8547
 6443TIP3    H240889   0.221   3.838   0.654  0.4333 -0.3318 -0.6914
 6444TIP3   OH240890   2.076   2.284   7.314 -0.1805  0.3724 -0.3510
 6444TIP3    H140891   1.981   2.292   7.314 -0.2068  0.2860 -1.5868
 6444TIP3    H240892   2.099   2.266   7.405 -1.3585  0.2464 -0.0644
 6445TIP3   OH240893   5.216   3.692   7.052 -0.0172  0.2947 -0.2688
 6445TIP3    H140894   5.194   3.716   7.142  0.4023 -0.9502  0.1957
 6445TIP3    H240895   5.262   3.768   7.017 -0.3575  0.8685  0.5066
 6446TIP3   OH240896   5.831   1.239   7.127 -0.1147 -0.1500  0.6691
 6446TIP3    H140897   5.900   1.258   7.064 -0.0972  0.9011  0.9754
 6446TIP3    H240898   5.756   1.290   7.095 -1.5081 -2.9907 -0.9247
 6447TIP3   OH240899   5.821   2.568   1.351 -0.8074  0.2997  0.0073
 6447TIP3    H140900   5.901   2.535   1.392 -0.2145  1.5914 -0.0692
 6447TIP3    H240901   5.824   2.663   1.364 -2.1254  0.4142 -0.3587
 6448TIP3   OH240902   0.580   6.679   7.267 -0.2513 -0.0300 -0.4630
 6448TIP3    H140903   0.501   6.713   7.224 -0.7946 -0.3948  0.2195
 6448TIP3    H240904   0.552   6.595   7.304  1.2736 -1.7467 -2.9015
 6449TIP3   OH240905   2.707   3.284   7.481 -0.4990 -0.4391 -0.4045
 6449TIP3    H140906   2.747   3.370   7.489  0.4804 -0.9378  0.2499
 6449TIP3    H240907   2.614   3.299   7.496 -0.7680  0.8996 -2.9320
 6450TIP3   OH240908   6.702   2.567   2.630  0.3197 -0.7088  0.1228
 6450TIP3    H140909   6.713   2.638   2.693 -2.9944 -0.3459  0.4485
 6450TIP3    H240910   6.627   2.517   2.662  0.1411 -2.0574 -2.1561
 6451TIP3   OH240911   6.856   4.243   6.855  0.2158 -0.7497  0.2814
 6451TIP3    H140912   6.776   4.215   6.901 -0.3062 -0.0847 -0.2088
 6451TIP3    H240913   6.882   4.165   6.805 -0.6062 -0.7272 -0.2110
 6452TIP3   OH240914   5.629   1.339   8.514  0.0831 -0.5719 -0.7260
 6452TIP3    H140915   5.548   1.294   8.538  1.5017 -1.8098  2.2470
 6452TIP3    H240916   5.600   1.425   8.484 -2.3814 -1.2732 -0.5708
 6453TIP3   OH240917   1.771   6.154   1.078  0.0674  0.4341  0.8427
 6453TIP3    H140918   1.723   6.104   1.144  0.0179  0.3313  0.7276
 6453TIP3    H240919   1.859   6.115   1.078  0.3596  1.0562  1.5336
 6454TIP3   OH240920   0.386   3.599   0.496 -0.6348 -0.0467 -0.6989
 6454TIP3    H140921   0.310   3.543   0.511  0.6422 -1.3006  1.6969
 6454TIP3    H240922   0.442   3.549   0.435 -0.6545 -0.1993 -0.5908
 6455TIP3   OH240923   5.881   1.588   0.248 -0.9442 -0.4682  0.0529
 6455TIP3    H140924   5.850   1.619   0.333 -1.9795  0.0793 -0.4989
 6455TIP3    H240925   5.875   1.492   0.254 -2.3360 -0.4015  0.1483
 6456TIP3   OH240926   1.588   1.062   1.764 -0.3891  0.2156  0.1289
 6456TIP3    H140927   1.593   1.087   1.856 -0.1207  1.6573 -0.2529
 6456TIP3    H240928   1.529   0.987   1.762 -0.8388  0.5170  1.4029
 6457TIP3   OH240929   4.318   0.313   6.274  0.0203  0.1538  0.0829
 6457TIP3    H140930   4.340   0.332   6.366 -0.6819  0.9054  0.1030
 6457TIP3    H240931   4.346   0.222   6.262  0.3740  0.1273  0.9621
 6458TIP3   OH240932   1.370   0.264   7.543 -0.2609  0.2004 -0.3974
 6458TIP3    H140933   1.312   0.274   7.467 -1.9601 -0.7228  0.7176
 6458TIP3    H240934   1.379   0.170   7.554 -1.7569  0.2378  1.7319
 6459TIP3   OH240935   2.431   2.547   0.945  0.5553  0.0280 -0.3606
 6459TIP3    H140936   2.400   2.496   1.020 -1.1057  0.1747 -0.8898
 6459TIP3    H240937   2.402   2.636   0.964  0.9175  0.2302 -0.7531
 6460TIP3   OH240938   0.690   5.209   1.791 -0.2891  0.3575 -0.2502
 6460TIP3    H140939   0.761   5.231   1.852 -0.7984  0.7542  0.2149
 6460TIP3    H240940   0.610   5.237   1.836 -0.9101 -1.5938 -0.0416
 6461TIP3   OH240941   4.393   2.139   0.217 -0.4608 -0.1497  0.4192
 6461TIP3    H140942   4.309   2.101   0.190  0.4051 -1.8682 -0.0253
 6461TIP3    H240943   4.411   2.207   0.152 -1.2851 -0.0646  0.2610
 6462TIP3   OH240944   4.231   0.467   1.042 -0.3858  0.7144  0.3316
 6462TIP3    H140945   4.325   0.483   1.048 -0.1332 -0.9140  1.1154
 6462TIP3    H240946   4.208   0.493   0.952  1.3137 -1.1617 -0.7327
 6463TIP3   OH240947   0.368   5.278   8.151  0.0437 -0.1731 -0.5092
 6463TIP3    H140948   0.421   5.222   8.208 -0.1553  0.9368  0.8253
 6463TIP3    H240949   0.430   5.341   8.114 -0.3522  1.5745  1.6063
 6464TIP3   OH240950   2.410   1.165   1.865  0.5289 -0.4876  0.0628
 6464TIP3    H140951   2.470   1.239   1.880  1.3124 -0.9101 -0.8908
 6464TIP3    H240952   2.323   1.204   1.870  0.8728  0.2035  1.1481
 6465TIP3   OH240953   3.963   5.756   0.330 -0.1192 -0.1124  0.2733
 6465TIP3    H140954   3.975   5.768   0.236  0.7511 -0.0450  0.3860
 6465TIP3    H240955   3.913   5.675   0.338  0.3046 -0.4263 -0.2242
 6466TIP3   OH240956   6.568   5.054   0.532 -0.3493 -0.0544 -0.2476
 6466TIP3    H140957   6.564   5.118   0.461  0.7161  0.3403  0.0311
 6466TIP3    H240958   6.486   5.065   0.579 -1.3257 -0.7184 -1.7466
 6467TIP3   OH240959   3.290   5.986   1.090  0.2612 -0.4839  0.1922
 6467TIP3    H140960   3.305   5.948   1.003 -0.6995 -0.3586 -0.0368
 6467TIP3    H240961   3.198   5.966   1.109 -0.9235  3.2790 -0.7507
 6468TIP3   OH240962   4.468   6.741   1.619  0.3995 -0.6945 -0.0203
 6468TIP3    H140963   4.530   6.750   1.691  0.2379 -2.0808  0.3140
 6468TIP3    H240964   4.505   6.672   1.564 -0.8957 -1.6488  0.2603
 6469TIP3   OH240965   6.319   6.039   8.490  0.5157  0.2117 -0.8574
 6469TIP3    H140966   6.306   6.123   8.535  0.3966 -0.4061  0.3062
 6469TIP3    H240967   6.313   5.974   8.560 -0.5148 -0.8569 -1.8930
 6470TIP3   OH240968   5.436   0.019   7.480  0.3742 -0.3801 -0.5115
 6470TIP3    H140969   5.383   0.037   7.402  1.3640 -1.2636 -1.4218
 6470TIP3    H240970   5.432   0.099   7.532  0.6046  0.6399 -2.0258
 6471TIP3   OH240971   2.418   0.768   6.444 -0.3679  0.1033 -0.1032
 6471TIP3    H140972   2.336   0.793   6.486 -0.3458 -1.6678  1.1429
 6471TIP3    H240973   2.427   0.827   6.369 -2.6697  0.4505 -0.1640
 6472TIP3   OH240974   3.661   4.389   6.248  0.2736 -0.7060 -0.2904
 6472TIP3    H140975   3.731   4.449   6.222  0.4900  0.1606  2.0634
 6472TIP3    H240976   3.701   4.302   6.241  0.8766 -0.3793 -1.0569
 6473TIP3   OH240977   2.954   3.341   1.573 -0.0937 -0.2675  0.9773
 6473TIP3    H140978   2.909   3.336   1.489 -0.7842  1.3094  1.2131
 6473TIP3    H240979   3.020   3.272   1.570  1.0508  0.8119 -1.5410
 6474TIP3   OH240980   5.129   3.422   7.289 -0.3251  0.5432 -0.3041
 6474TIP3    H140981   5.066   3.475   7.338 -0.3624  2.4815 -2.3087
 6474TIP3    H240982   5.214   3.447   7.325 -0.4682  0.5595  0.0258
 6475TIP3   OH240983   0.892   0.966   7.869 -0.9918 -0.8611  0.0249
 6475TIP3    H140984   0.837   0.957   7.947 -1.8059  1.8319 -0.1255
 6475TIP3    H240985   0.861   0.897   7.810 -1.6745 -1.7350  1.3376
 6476TIP3   OH240986   5.159   6.223   0.541 -0.6324 -0.2026  0.3523
 6476TIP3    H140987   5.071   6.250   0.567 -0.7692 -0.9840  0.7245
 6476TIP3    H240988   5.203   6.201   0.623 -0.8708 -2.1110  0.0301
 6477TIP3   OH240989   4.344   2.420   2.023  0.0241 -0.2026  0.0434
 6477TIP3    H140990   4.429   2.408   1.981 -0.2660  0.3180 -0.7036
 6477TIP3    H240991   4.319   2.332   2.051  1.9248 -0.0858  2.5422
 6478TIP3   OH240992   1.421   6.569   8.404  0.0073 -0.2608  0.0516
 6478TIP3    H140993   1.476   6.492   8.395  1.7938  1.0513 -0.8676
 6478TIP3    H240994   1.368   6.552   8.482  0.9265 -2.0540  0.3292
 6479TIP3   OH240995   4.974   3.853   0.263  0.9371  0.1391  0.5766
 6479TIP3    H140996   4.935   3.768   0.279  1.3582 -0.7026 -2.3206
 6479TIP3    H240997   5.069   3.836   0.263  1.1482  1.1060  2.2576
 6480TIP3   OH240998   5.924   2.365   6.520  0.8673  0.2913 -0.7348
 6480TIP3    H140999   5.844   2.322   6.552 -0.4358  3.3466  0.5476
 6480TIP3    H241000   5.918   2.358   6.424 -0.1082 -0.9255 -0.6109
 6481TIP3   OH241001   4.995   0.592   2.030 -0.7815  0.0543  0.7208
 6481TIP3    H141002   5.020   0.509   2.070 -1.8428  0.0817  1.4807
 6481TIP3    H241003   5.061   0.654   2.063 -0.3275 -0.3665  0.6194
 6482TIP3   OH241004   5.434   1.151   8.503  0.1234 -0.1612 -0.0455
 6482TIP3    H141005   5.406   1.073   8.456  2.4371 -0.7287 -0.5920
 6482TIP3    H241006   5.383   1.149   8.585 -3.7296  0.6633 -2.1818
 6483TIP3   OH241007   5.359   4.635   7.175  0.6686 -0.0555 -0.0094
 6483TIP3    H141008   5.320   4.637   7.087 -0.3221  0.5920  0.4251
 6483TIP3    H241009   5.324   4.712   7.218  0.4184 -0.8502  1.2611
 6484TIP3   OH241010   0.235   5.173   7.944 -0.7501  0.0940 -0.1284
 6484TIP3    H141011   0.288   5.241   7.983  0.8631 -0.7966 -0.6519
 6484TIP3    H241012   0.197   5.126   8.018  0.3663 -0.1197  0.3361
 6485TIP3   OH241013   4.551   2.394   8.339 -0.3230  0.8634  0.0456
 6485TIP3    H141014   4.633   2.444   8.341  0.4570 -0.2840 -1.1313
 6485TIP3    H241015   4.523   2.398   8.247  0.1946 -1.4074 -0.2957
 6486TIP3   OH241016   6.683   1.741   1.935 -0.0456 -0.9229  0.0183
 6486TIP3    H141017   6.593   1.772   1.942 -0.3408 -1.2779 -1.7191
 6486TIP3    H241018   6.720   1.753   2.022 -1.8545 -1.0105  0.8337
 6487TIP3   OH241019   0.696   2.389   6.125 -0.0212 -0.0433 -0.4460
 6487TIP3    H141020   0.630   2.342   6.075 -0.6188  1.1028 -0.7682
 6487TIP3    H241021   0.647   2.445   6.184  0.6778 -0.0481  0.1591
 6488TIP3   OH241022   0.360   6.123   0.631 -0.3649 -0.4271 -0.3407
 6488TIP3    H141023   0.274   6.123   0.589 -1.0121 -0.7246  0.9429
 6488TIP3    H241024   0.418   6.083   0.566 -0.9459  0.7783 -1.6718
 6489TIP3   OH241025   1.348   2.278   8.517 -0.1062  0.0047 -0.2050
 6489TIP3    H141026   1.383   2.224   8.587  2.2340  0.5510 -0.8333
 6489TIP3    H241027   1.255   2.289   8.537  0.0690 -1.5575  1.6379
 6490TIP3   OH241028   1.983   2.182   2.036  0.3873  0.1081 -0.5466
 6490TIP3    H141029   2.061   2.128   2.025  0.4075 -0.1463  0.6354
 6490TIP3    H241030   1.942   2.149   2.117  0.7446  2.2258  0.5817
 6491TIP3   OH241031   2.428   6.883   8.392 -0.1376 -0.7065  0.7632
 6491TIP3    H141032   2.354   6.908   8.448 -0.7694 -0.1434 -0.3109
 6491TIP3    H241033   2.478   6.964   8.381 -2.2271  0.3240 -2.7820
 6492TIP3   OH241034   0.857   2.279   1.580 -0.3695  0.8232  0.6273
 6492TIP3    H141035   0.883   2.215   1.646  0.5458  0.6300  0.1029
 6492TIP3    H241036   0.841   2.228   1.501  0.3166  1.2128  0.2166
 6493TIP3   OH241037   5.975   4.413   0.302  0.3083  0.0162 -0.7148
 6493TIP3    H141038   6.015   4.342   0.353 -1.2041 -0.8756 -0.7016
 6493TIP3    H241039   6.035   4.428   0.230  1.5176 -0.0721  0.2495
 6494TIP3   OH241040   1.814   6.474   8.146  0.1004 -0.3655 -0.0993
 6494TIP3    H141041   1.781   6.417   8.216 -0.4578 -0.6014 -0.5503
 6494TIP3    H241042   1.775   6.559   8.164 -3.8003 -1.3595 -2.5817
 6495TIP3   OH241043   1.985   0.335   0.367  0.2497  0.1363  0.6407
 6495TIP3    H141044   1.971   0.410   0.309  0.6229  0.7754  1.3463
 6495TIP3    H241045   1.952   0.365   0.452  1.2012 -0.1800  1.1393
 6496TIP3   OH241046   0.406   2.986   7.317 -0.0359 -0.4596  0.5507
 6496TIP3    H141047   0.352   2.936   7.378 -1.6945  1.0443  0.4108
 6496TIP3    H241048   0.419   2.927   7.243 -3.4657 -0.2176 -0.4230
 6497TIP3   OH241049   4.309   4.885   0.334 -0.3053 -0.6800 -0.8940
 6497TIP3    H141050   4.268   4.827   0.270 -1.0445  0.7104 -1.7381
 6497TIP3    H241051   4.400   4.891   0.307 -0.2916 -1.2083 -0.9731
 6498TIP3   OH241052   3.023   0.780   0.013 -0.4195  0.4688  0.0359
 6498TIP3    H141053   2.989   0.863  -0.018 -1.4404  0.7521  1.8219
 6498TIP3    H241054   2.981   0.766   0.098  1.8057 -0.5268  1.0615
 6499TIP3   OH241055   6.525   1.580   2.171 -0.0937  0.4346  0.5488
 6499TIP3    H141056   6.572   1.584   2.254 -0.6639 -2.1073  1.0811
 6499TIP3    H241057   6.528   1.487   2.146 -1.8593  0.7631 -1.1313
 6500TIP3   OH241058   2.374   5.044   1.393  0.2951 -0.2929  0.4823
 6500TIP3    H141059   2.404   5.061   1.303  0.0605  0.3228  0.5145
 6500TIP3    H241060   2.279   5.057   1.390  0.2514 -0.5302  0.7634
 6501TIP3   OH241061   2.237   3.907   7.391  0.0725  0.2635 -0.4770
 6501TIP3    H141062   2.262   3.999   7.395 -1.0544  0.6186 -1.0464
 6501TIP3    H241063   2.148   3.908   7.355 -0.0553 -1.0314 -0.2484
 6502TIP3   OH241064   3.971   2.657   2.710 -0.2811 -0.1475  0.4650
 6502TIP3    H141065   3.907   2.656   2.638 -0.1169 -1.5029  0.3208
 6502TIP3    H241066   3.960   2.743   2.750 -0.9118  0.3379 -0.7052
 6503TIP3   OH241067   5.556   1.050   0.507  0.0142 -0.0230  0.1962
 6503TIP3    H141068   5.469   1.051   0.548  0.2679  1.8593  0.7764
 6503TIP3    H241069   5.609   0.997   0.565 -1.0540 -2.5723 -0.9877
 6504TIP3   OH241070   1.682   6.162   8.252 -0.3568  1.2581 -0.3013
 6504TIP3    H141071   1.705   6.235   8.309 -1.4457  0.4641  1.2465
 6504TIP3    H241072   1.586   6.168   8.245 -0.4074  0.2437 -0.5201
 6505TIP3   OH241073   5.111   1.899   1.510 -0.2798  0.4278 -0.1431
 6505TIP3    H141074   5.050   1.968   1.485  0.8004  1.2429 -0.6066
 6505TIP3    H241075   5.197   1.934   1.488  0.2504 -1.3668 -1.0851
 6506TIP3   OH241076   6.596   3.130   0.869 -0.2101  0.1478 -0.3846
 6506TIP3    H141077   6.634   3.050   0.904  0.3515 -0.1889 -1.6998
 6506TIP3    H241078   6.638   3.142   0.784  0.2288  2.2206  0.0647
 6507TIP3   OH241079   6.492   6.649   7.424 -0.6636  0.4195 -0.3622
 6507TIP3    H141080   6.460   6.559   7.419  0.6401 -0.1139  0.4261
 6507TIP3    H241081   6.578   6.642   7.466 -1.1661  2.1815  1.0998
 6508TIP3   OH241082   6.162   4.894   7.891  0.1071 -0.8093  0.1695
 6508TIP3    H141083   6.187   4.907   7.982  0.2588  1.6824 -0.1566
 6508TIP3    H241084   6.075   4.853   7.895 -0.2163 -0.0350  1.4486
 6509TIP3   OH241085   3.057   5.307   7.999 -0.7409  0.2491 -0.3828
 6509TIP3    H141086   3.141   5.261   7.995 -0.4474  0.8897 -2.4512
 6509TIP3    H241087   3.008   5.261   8.067  0.1531 -2.0432 -1.1957
 6510TIP3   OH241088   6.576   4.872   7.695 -0.3172 -0.1485 -0.0122
 6510TIP3    H141089   6.606   4.963   7.695  1.4258 -0.6738 -0.0095
 6510TIP3    H241090   6.481   4.877   7.699 -0.2548  1.6711 -0.1674
 6511TIP3   OH241091   1.605   6.001   1.250 -0.2903  0.5113  0.0126
 6511TIP3    H141092   1.567   5.918   1.220 -1.7343  1.2581 -0.3025
 6511TIP3    H241093   1.602   5.996   1.346  0.2405 -0.0539  0.0074
 6512TIP3   OH241094   3.986   1.946   1.533 -0.4515 -0.3427  0.2278
 6512TIP3    H141095   3.993   1.850   1.533 -0.7611 -0.3871  1.3801
 6512TIP3    H241096   3.991   1.970   1.626 -2.2205  0.6033  0.1261
 6513TIP3   OH241097   1.492   4.436   1.855 -0.2920  0.3431  0.1320
 6513TIP3    H141098   1.548   4.435   1.777 -0.1676 -0.2255  0.2285
 6513TIP3    H241099   1.472   4.344   1.872  0.1480  0.4117  1.1120
 6514TIP3   OH241100   1.430   0.555   7.490 -0.6570  0.6719 -0.1326
 6514TIP3    H141101   1.493   0.623   7.515 -1.8452  1.9521 -0.4782
 6514TIP3    H241102   1.428   0.496   7.565 -0.2218  1.4957  0.5551
 6515TIP3   OH241103   1.513   1.381   0.179  0.1602 -0.5214 -0.7549
 6515TIP3    H141104   1.608   1.394   0.176  0.4511 -2.4823 -0.9773
 6515TIP3    H241105   1.492   1.381   0.272  0.1458  1.1318 -0.7164
 6516TIP3   OH241106   6.361   4.425   8.304 -0.2580 -0.4381 -0.3891
 6516TIP3    H141107   6.376   4.397   8.395 -0.0105  0.1496 -0.2416
 6516TIP3    H241108   6.378   4.519   8.306 -0.2102 -0.4322 -1.0581
 6517TIP3   OH241109   2.196   0.638   0.075 -0.2317  0.4347 -0.0033
 6517TIP3    H141110   2.183   0.686  -0.007  0.5621 -0.3431 -0.6035
 6517TIP3    H241111   2.259   0.570   0.053 -0.8998 -0.5350  0.9662
 6518TIP3   OH241112   0.676   4.015   1.764 -0.2271  0.6909 -0.3916
 6518TIP3    H141113   0.736   3.974   1.826  0.2377  0.9993 -0.6286
 6518TIP3    H241114   0.602   3.955   1.758 -0.7931  1.1536  1.2860
 6519TIP3   OH241115   0.994   4.876   1.654 -0.1217  0.2226 -0.5033
 6519TIP3    H141116   1.004   4.964   1.691  0.2543  0.4369 -1.0945
 6519TIP3    H241117   0.968   4.821   1.728 -0.3483  0.8290 -0.1237
 6520TIP3   OH241118   0.458   5.065   7.819  0.6729 -0.2865 -0.0999
 6520TIP3    H141119   0.507   4.986   7.844  0.7877 -0.1353  0.1523
 6520TIP3    H241120   0.387   5.071   7.883  1.1651  0.2878  0.3977
 6521TIP3   OH241121   6.402   1.499   1.295  0.6970 -0.2157 -0.6807
 6521TIP3    H141122   6.314   1.460   1.300  0.9038 -0.5673  0.4960
 6521TIP3    H241123   6.385   1.593   1.286  0.1345  0.0059  1.8513
 6522TIP3   OH241124   6.784   5.890   0.549  0.0005  0.3808  0.0508
 6522TIP3    H141125   6.726   5.893   0.473 -0.3156 -0.6783  0.2235
 6522TIP3    H241126   6.771   5.973   0.593 -2.5335 -0.3697  0.8807
 6523TIP3   OH241127   1.969   4.342   1.131  0.3236 -0.6822  0.0254
 6523TIP3    H141128   1.981   4.337   1.226  0.3053  0.0589  0.0663
 6523TIP3    H241129   1.906   4.272   1.112 -0.6698  0.0014  0.7377
 6524TIP3   OH241130   3.438   3.266   2.218  0.2712  0.5205 -0.5366
 6524TIP3    H141131   3.368   3.202   2.203  0.4240  0.4274 -0.8541
 6524TIP3    H241132   3.511   3.214   2.252  0.2202  0.6042 -0.2959
 6525TIP3   OH241133   2.100   4.337   1.378 -0.3853  0.0704 -0.5989
 6525TIP3    H141134   2.121   4.427   1.402 -1.4297  0.0960  0.2560
 6525TIP3    H241135   2.041   4.307   1.446  0.4613 -1.4961 -0.5130
 6526TIP3   OH241136   1.466   3.717   7.893 -0.0570 -0.7613  0.4298
 6526TIP3    H141137   1.518   3.776   7.838 -0.5101 -1.3460 -0.6597
 6526TIP3    H241138   1.413   3.667   7.831 -1.1442 -0.9275  1.4540
 6527TIP3   OH241139   5.377   6.045   2.142 -0.4398 -0.2514  0.3203
 6527TIP3    H141140   5.351   6.130   2.108 -1.1668 -0.3550  0.6098
 6527TIP3    H241141   5.464   6.060   2.180  0.0629  0.0345 -0.8764
 6528TIP3   OH241142   6.533   0.085   1.123  0.6094  0.1899 -0.0846
 6528TIP3    H141143   6.614   0.077   1.173  1.5327 -0.0119 -1.5509
 6528TIP3    H241144   6.551   0.040   1.041 -0.2630  1.8864 -1.2709
 6529TIP3   OH241145   6.886   5.644   2.053  0.5276 -0.1468  0.8509
 6529TIP3    H141146   6.808   5.590   2.069  0.6866 -0.3923  0.8059
 6529TIP3    H241147   6.853   5.733   2.044  0.2529 -0.2511  0.8401
 6530TIP3   OH241148   0.902   5.182   1.277 -0.4865  0.3349  0.4107
 6530TIP3    H141149   0.815   5.177   1.236 -0.7809  0.2774  1.0240
 6530TIP3    H241150   0.952   5.241   1.220 -0.6302 -0.3631 -0.4585
 6531TIP3   OH241151   2.872   0.102   0.876  0.1732  0.5286  0.5435
 6531TIP3    H141152   2.828   0.025   0.838 -0.0723  0.8460  0.1848
 6531TIP3    H241153   2.957   0.068   0.903  0.5304  0.3833 -0.6868
 6532TIP3   OH241154   1.938   0.164   2.190  0.0501 -0.2060  0.3836
 6532TIP3    H141155   1.843   0.169   2.200  0.1033 -0.9223  1.3566
 6532TIP3    H241156   1.965   0.254   2.170 -0.7581  0.1327  0.7890
 6533TIP3   OH241157   3.678   3.242   0.496 -0.5019  0.5809  0.3769
 6533TIP3    H141158   3.603   3.300   0.507 -0.3217  1.1611 -1.2709
 6533TIP3    H241159   3.733   3.285   0.432 -0.1387 -1.1941 -0.5719
 6534TIP3   OH241160   1.115   5.245   0.659 -0.0475  0.2104  0.0961
 6534TIP3    H141161   1.089   5.334   0.635 -2.1026 -0.1208  0.8422
 6534TIP3    H241162   1.087   5.236   0.750 -0.8045 -1.4966 -0.2574
 6535TIP3   OH241163   0.705   3.749   2.434  0.0249  0.2617  0.0687
 6535TIP3    H141164   0.742   3.820   2.486 -0.1837  0.4045  0.0186
 6535TIP3    H241165   0.761   3.745   2.357 -1.0563  1.5742 -0.8153
 6536TIP3   OH241166   0.439   3.814   2.358 -0.6508  0.1963 -0.1372
 6536TIP3    H141167   0.390   3.825   2.439  0.8182  0.6395  0.7359
 6536TIP3    H241168   0.531   3.810   2.386 -0.0771  0.7211 -1.8057
 6537TIP3   OH241169   2.824   1.705   6.442  0.3689  0.5134  0.5639
 6537TIP3    H141170   2.886   1.730   6.373 -0.4127  1.7332  0.2753
 6537TIP3    H241171   2.740   1.742   6.414  0.0624  1.1823  2.2321
 6538TIP3   OH241172   2.687   3.763   1.700  0.2086  0.2182 -0.1811
 6538TIP3    H141173   2.749   3.830   1.673 -0.9271  0.7402 -1.6221
 6538TIP3    H241174   2.643   3.800   1.777  0.1150  0.8067 -0.5154
 6539TIP3   OH241175   6.716   4.060   1.214 -0.3654 -0.1558 -0.4460
 6539TIP3    H141176   6.630   4.077   1.253 -0.1561 -1.5822  0.6765
 6539TIP3    H241177   6.778   4.064   1.287  0.6986  1.7223 -1.3635
 6540TIP3   OH241178   1.144   5.538   1.006  0.2028 -0.2711 -0.4233
 6540TIP3    H141179   1.235   5.513   1.021  0.4308  1.0953  0.5754
 6540TIP3    H241180   1.120   5.593   1.080 -1.1282  0.2248 -1.1665
 6541TIP3   OH241181   4.577   1.896   6.938 -0.1292  0.9613  0.3506
 6541TIP3    H141182   4.571   1.903   7.033  1.9489 -0.4317  0.6493
 6541TIP3    H241183   4.649   1.953   6.914  0.3114  0.1983 -0.1988
 6542TIP3   OH241184   6.226   4.198   7.682 -0.0382 -0.4265  0.4437
 6542TIP3    H141185   6.274   4.281   7.684 -0.3254 -0.1767 -1.3866
 6542TIP3    H241186   6.143   4.217   7.725 -0.1738  0.2940 -0.1195
 6543TIP3   OH241187   0.593   4.131   0.685  0.4738 -0.0502  1.0127
 6543TIP3    H141188   0.562   4.168   0.767 -0.9596 -0.4012  0.6520
 6543TIP3    H241189   0.566   4.193   0.618 -0.1445 -0.7416  0.6124
 6544TIP3   OH241190   3.885   0.379   0.864 -0.2022  0.5227  0.6075
 6544TIP3    H141191   3.882   0.473   0.844  0.3862  0.1433 -1.5029
 6544TIP3    H241192   3.801   0.345   0.833 -0.1382  0.2328  0.7494
 6545TIP3   OH241193   2.168   1.494   7.492  0.0800  0.6455 -0.7041
 6545TIP3    H141194   2.198   1.403   7.491  2.5545  1.3622 -0.3890
 6545TIP3    H241195   2.181   1.523   7.582 -1.6337  1.0647 -0.5633
 6546TIP3   OH241196   2.711   4.512   8.037  0.4176  0.7473  0.0443
 6546TIP3    H141197   2.742   4.456   8.108 -1.5608 -0.4080  0.1043
 6546TIP3    H241198   2.751   4.597   8.053  2.0600 -0.1547  1.0306
 6547TIP3   OH241199   1.779   6.340   7.352 -0.0225  0.4760 -0.1271
 6547TIP3    H141200   1.820   6.424   7.328  1.0586 -0.4735 -1.7790
 6547TIP3    H241201   1.720   6.321   7.280 -2.0722  0.8909  1.3487
 6548TIP3   OH241202   0.414   1.276   7.829  0.1231  0.1933 -0.1929
 6548TIP3    H141203   0.449   1.199   7.874 -0.8429 -1.3378 -1.9106
 6548TIP3    H241204   0.470   1.348   7.857  1.6169 -1.2840  0.8018
 6549TIP3   OH241205   3.457   1.048   0.434  0.7090 -0.7090 -0.0406
 6549TIP3    H141206   3.531   1.094   0.475 -0.2543  0.1308  0.8228
 6549TIP3    H241207   3.442   0.972   0.491 -0.1887  0.0827  0.8236
 6550TIP3   OH241208   6.311   0.410   1.372 -0.2544 -0.2638 -0.0456
 6550TIP3    H141209   6.355   0.339   1.419 -0.3474  0.6080  1.4499
 6550TIP3    H241210   6.377   0.443   1.311  0.6143 -0.1050  0.9443
 6551TIP3   OH241211   0.392   5.577   0.581 -0.3342 -0.1260  0.3078
 6551TIP3    H141212   0.430   5.522   0.513 -1.2087  0.3966 -0.6468
 6551TIP3    H241213   0.329   5.520   0.626 -0.2464 -0.2842  0.2299
 6552TIP3   OH241214   0.538   4.020   6.257 -0.2812 -0.2963  0.3440
 6552TIP3    H141215   0.535   4.085   6.187 -0.2421 -0.2391  0.3952
 6552TIP3    H241216   0.631   4.015   6.281 -0.2743 -0.4227  0.2915
 6553TIP3   OH241217   4.781   6.137   7.921 -0.0959 -0.9040  0.4086
 6553TIP3    H141218   4.796   6.115   8.013  2.1218 -0.1612  0.2943
 6553TIP3    H241219   4.777   6.053   7.876  1.3222 -1.2353  0.8677
 6554TIP3   OH241220   5.009   3.584   1.468 -0.2178  0.5066  0.2044
 6554TIP3    H141221   5.094   3.581   1.422  0.2007 -1.1784  0.9926
 6554TIP3    H241222   4.951   3.631   1.409  0.5159 -0.8809 -1.7106
 6555TIP3   OH241223   0.572   6.888   1.256  0.1375  0.1522  0.3242
 6555TIP3    H141224   0.661   6.860   1.276 -0.5278 -1.3042  1.4360
 6555TIP3    H241225   0.561   6.971   1.302  0.5861 -0.1730  1.0282
 6556TIP3   OH241226   2.915   3.400   8.014 -0.3898 -0.2287 -0.0680
 6556TIP3    H141227   2.854   3.348   8.066  0.1812 -1.3609 -0.5006
 6556TIP3    H241228   2.969   3.336   7.969 -0.9206  0.7293 -2.1632
 6557TIP3   OH241229   0.675   6.787   7.919  0.8380 -0.3976  0.1669
 6557TIP3    H141230   0.580   6.794   7.912  0.6216 -1.8049  1.1841
 6557TIP3    H241231   0.708   6.871   7.886 -0.7567  0.2552  0.1381
 6558TIP3   OH241232   3.584   4.160   6.503  0.0585 -0.5134  0.2181
 6558TIP3    H141233   3.522   4.090   6.520 -1.0924 -0.3940 -2.9451
 6558TIP3    H241234   3.647   4.123   6.441  0.1647  0.8506 -0.5351
 6559TIP3   OH241235   5.442   4.284   0.471  0.1326  0.0335 -0.2813
 6559TIP3    H141236   5.440   4.328   0.556 -0.4177 -0.8977  0.1979
 6559TIP3    H241237   5.470   4.352   0.410  0.2118  0.8028  0.5876
 6560TIP3   OH241238   0.881   5.007   0.247  0.0965 -0.1637  0.4876
 6560TIP3    H141239   0.806   5.047   0.291  0.9706 -0.3043  2.1788
 6560TIP3    H241240   0.957   5.050   0.286  0.9203  0.2927 -1.5071
 6561TIP3   OH241241   3.899   3.540   2.289  0.2613 -0.4284  0.2481
 6561TIP3    H141242   3.956   3.532   2.365  0.8016  1.1801  0.0575
 6561TIP3    H241243   3.898   3.634   2.270 -0.3362 -0.7327 -1.3769
 6562TIP3   OH241244   2.486   0.446   6.335  0.5140 -0.1816 -0.0985
 6562TIP3    H141245   2.581   0.440   6.339  0.5303 -0.5457 -0.8649
 6562TIP3    H241246   2.462   0.497   6.412  1.3812  0.5068 -0.2693
 6563TIP3   OH241247   3.676   4.937   1.414 -0.2542 -0.1516 -0.3431
 6563TIP3    H141248   3.591   4.898   1.394  0.2618 -0.9474 -1.0711
 6563TIP3    H241249   3.728   4.922   1.335  0.9524 -0.7744  0.5428
 6564TIP3   OH241250   1.374   1.442   7.258  0.1981 -0.0696  0.3714
 6564TIP3    H141251   1.334   1.362   7.225 -0.2488  0.0192  0.6992
 6564TIP3    H241252   1.456   1.414   7.298 -0.4942 -0.5164  1.5053
 6565TIP3   OH241253   4.201   1.995   8.447  0.2978 -0.4398  0.1732
 6565TIP3    H141254   4.198   1.902   8.425 -0.0368 -0.2691 -0.5262
 6565TIP3    H241255   4.282   2.026   8.408  0.4872 -0.4667  0.5411
 6566TIP3   OH241256   1.161   0.724   0.780  0.3128  0.3766  0.2264
 6566TIP3    H141257   1.168   0.725   0.685  0.7535 -1.6439  0.1899
 6566TIP3    H241258   1.156   0.631   0.803  1.0151  0.7727  2.2156
 6567TIP3   OH241259   1.224   6.791   2.728  0.1583  0.2000  0.0478
 6567TIP3    H141260   1.282   6.866   2.718  0.8679 -0.3910 -0.4042
 6567TIP3    H241261   1.206   6.763   2.639  1.8274 -1.5852  0.1977
 6568TIP3   OH241262   1.333   0.987   1.312 -0.0439 -0.3286  0.2281
 6568TIP3    H141263   1.415   1.036   1.313  0.5010 -1.2015  1.3543
 6568TIP3    H241264   1.284   1.021   1.387 -0.3197 -0.4394  0.1012
 6569TIP3   OH241265   5.596   4.715   7.676  0.4528 -0.0271  0.2175
 6569TIP3    H141266   5.588   4.688   7.584 -0.6225  2.1664 -0.4078
 6569TIP3    H241267   5.533   4.661   7.723 -0.3449  0.1178 -0.6593
 6570TIP3   OH241268   0.110   1.767   5.993 -0.2808 -0.5245 -0.1905
 6570TIP3    H141269   0.082   1.807   6.075  0.7514  0.5438 -0.3233
 6570TIP3    H241270   0.204   1.754   6.005 -0.2865 -1.2043 -0.8624
 6571TIP3   OH241271   0.887   1.624   2.080  0.2298 -0.0003 -0.4096
 6571TIP3    H141272   0.863   1.553   2.019 -1.2603  0.5114 -0.4651
 6571TIP3    H241273   0.943   1.582   2.145  2.1602 -0.5077 -2.2757
 6572TIP3   OH241274   6.559   2.723   7.767 -0.2798  0.2491 -0.2843
 6572TIP3    H141275   6.463   2.733   7.767 -0.2021  1.0983  0.4046
 6572TIP3    H241276   6.585   2.747   7.678 -0.7345 -0.3791 -0.6012
 6573TIP3   OH241277   3.100   3.019   0.403  0.4300  0.0977  0.1602
 6573TIP3    H141278   3.070   2.961   0.473 -0.1692  0.1333 -0.0566
 6573TIP3    H241279   3.094   2.965   0.324  2.7228 -0.5041  0.3226
 6574TIP3   OH241280   2.109   1.548   1.360  0.0760 -0.5765 -0.4016
 6574TIP3    H141281   2.056   1.574   1.435 -0.6289  0.5830 -1.2587
 6574TIP3    H241282   2.175   1.618   1.352 -0.5928 -0.0515 -1.5447
 6575TIP3   OH241283   3.820   6.772   0.887  0.1481  0.3432  0.8429
 6575TIP3    H141284   3.753   6.740   0.947 -0.1457  0.0255  0.3520
 6575TIP3    H241285   3.771   6.814   0.816  0.5140  1.4472  1.2178
 6576TIP3   OH241286   2.845   1.421   8.091 -0.4734 -0.0312 -0.1808
 6576TIP3    H141287   2.779   1.355   8.070  0.1598  0.3233 -4.1381
 6576TIP3    H241288   2.920   1.371   8.122 -1.2766 -0.7786  0.6073
 6577TIP3   OH241289   4.996   4.105   2.105  0.1836  0.0204 -0.0039
 6577TIP3    H141290   4.998   4.117   2.200 -0.2446  2.0099 -0.2160
 6577TIP3    H241291   5.078   4.142   2.074 -1.0598  2.4238 -0.6632
 6578TIP3   OH241292   0.986   4.365   7.586 -0.1025 -0.5523 -0.4857
 6578TIP3    H141293   1.029   4.308   7.651  0.3328  1.1975  0.8219
 6578TIP3    H241294   0.896   4.334   7.584  0.4451 -2.2509 -0.9339
 6579TIP3   OH241295   1.574   5.886   8.115  0.0983 -0.2483 -0.6912
 6579TIP3    H141296   1.640   5.822   8.090  1.2433  0.7128 -0.2199
 6579TIP3    H241297   1.623   5.966   8.132 -1.0012  0.1128  1.1074
 6580TIP3   OH241298   2.672   2.474   7.287 -0.4520 -0.3587 -0.4268
 6580TIP3    H141299   2.627   2.393   7.262  1.9058 -0.8204 -3.8784
 6580TIP3    H241300   2.632   2.541   7.232  0.0627  0.1122 -0.2370
 6581TIP3   OH241301   6.303   5.876   2.267 -0.4186 -0.1876  0.3535
 6581TIP3    H141302   6.353   5.808   2.312  1.4877  0.4361 -0.7263
 6581TIP3    H241303   6.239   5.905   2.332  1.9872  0.4360  2.6208
 6582TIP3   OH241304   1.140   3.905   0.715 -0.3600  0.5677  0.2114
 6582TIP3    H141305   1.087   3.896   0.635 -1.7308 -0.5967  1.2021
 6582TIP3    H241306   1.079   3.941   0.779  0.2134 -0.2125  1.2169
 6583TIP3   OH241307   5.872   0.062   1.388  0.3402  0.5914 -0.0232
 6583TIP3    H141308   5.890   0.140   1.441 -0.1725  0.9169 -0.3287
 6583TIP3    H241309   5.777   0.056   1.386  0.3394  0.8332 -1.2837
 6584TIP3   OH241310   1.103   6.376   0.822  0.0629  0.2547  0.6786
 6584TIP3    H141311   1.180   6.426   0.793  0.7095  0.1241  2.1195
 6584TIP3    H241312   1.105   6.297   0.768  1.0130  0.1932  0.7816
 6585TIP3   OH241313   5.601   4.867   7.272  0.5110 -0.0549 -0.0269
 6585TIP3    H141314   5.639   4.803   7.332  0.2743 -0.5905 -0.4461
 6585TIP3    H241315   5.508   4.867   7.292  0.7748  1.8161  1.5287
 6586TIP3   OH241316   1.210   3.960   0.300  0.0265 -0.2216 -0.1349
 6586TIP3    H141317   1.162   3.934   0.221  1.3764 -1.3897 -0.6343
 6586TIP3    H241318   1.230   4.052   0.286 -2.2435  0.3757  0.2264
 6587TIP3   OH241319   1.439   2.477   2.384  0.6400 -0.0218 -0.4626
 6587TIP3    H141320   1.520   2.460   2.335  0.3590 -0.5385 -0.7513
 6587TIP3    H241321   1.417   2.567   2.362  0.9657  0.0192 -0.6300
 6588TIP3   OH241322   1.779   2.899   0.969  0.1467  0.2805  0.6906
 6588TIP3    H141323   1.768   2.859   1.056 -1.8218  0.7638  0.6958
 6588TIP3    H241324   1.807   2.988   0.987 -0.8051  0.5511  0.8614
 6589TIP3   OH241325   0.197   5.605   8.295 -0.9591  0.3459 -0.5714
 6589TIP3    H141326   0.224   5.681   8.347  0.2661 -0.7499  0.4838
 6589TIP3    H241327   0.179   5.537   8.361 -0.8349 -0.6388 -1.5314
 6590TIP3   OH241328   4.161   2.740   7.718  0.0754  0.1755  0.8341
 6590TIP3    H141329   4.124   2.669   7.665 -0.3082  0.6327  0.4770
 6590TIP3    H241330   4.135   2.720   7.808  1.4788 -1.0880  1.0078
 6591TIP3   OH241331   0.673   1.638   8.176 -0.1860 -0.4666  0.5370
 6591TIP3    H141332   0.660   1.682   8.092  1.6428 -0.0986  0.3928
 6591TIP3    H241333   0.600   1.667   8.231 -0.3227  0.8782 -0.3165
 6592TIP3   OH241334   2.606   3.832   0.076  0.2107  0.1772 -0.4832
 6592TIP3    H141335   2.614   3.817  -0.018  1.6616 -0.0117 -0.3536
 6592TIP3    H241336   2.512   3.844   0.091  0.0394  1.2061 -2.1064
 6593TIP3   OH241337   5.265   3.143   6.956  0.5127 -0.0790 -0.1121
 6593TIP3    H141338   5.268   3.234   6.985 -0.9241 -0.0503  0.0071
 6593TIP3    H241339   5.276   3.149   6.861 -1.0364  0.3620 -0.2851
 6594TIP3   OH241340   4.215   5.650   0.554  0.4465  0.0483 -0.9761
 6594TIP3    H141341   4.203   5.729   0.500 -2.3747 -0.5865 -1.4801
 6594TIP3    H241342   4.169   5.581   0.505 -0.0173 -1.1350  1.0040
 6595TIP3   OH241343   0.989   1.280   7.538 -0.0378 -0.4628 -0.2987
 6595TIP3    H141344   1.034   1.248   7.616  1.6573  0.4480 -0.8616
 6595TIP3    H241345   1.058   1.288   7.472 -1.5526 -1.9238 -2.1437
 6596TIP3   OH241346   1.326   0.894   7.985 -0.1526 -0.1728  0.6385
 6596TIP3    H141347   1.395   0.942   7.939 -1.1297  1.0814  0.4298
 6596TIP3    H241348   1.259   0.879   7.919 -0.3907 -0.7786  1.0058
 6597TIP3   OH241349   0.441   0.949   6.296 -0.0467  0.4907  0.2599
 6597TIP3    H141350   0.453   0.869   6.244 -1.0489  1.0685 -0.8990
 6597TIP3    H241351   0.530   0.983   6.307  0.2549 -0.0229 -0.4936
 6598TIP3   OH241352   5.187   4.910   7.857 -0.0625  0.7375  0.0852
 6598TIP3    H141353   5.120   4.879   7.916  0.6086  1.3821  1.2206
 6598TIP3    H241354   5.268   4.868   7.887  0.3897  1.5261  0.0195
 6599TIP3   OH241355   1.465   0.676   1.948 -0.2816 -0.4345 -0.4623
 6599TIP3    H141356   1.398   0.699   2.013 -0.1999  2.2865 -1.2190
 6599TIP3    H241357   1.548   0.691   1.993 -0.2079 -0.8789 -0.4516
 6600TIP3   OH241358   6.386   3.893   8.480 -0.3404 -0.3965  0.3232
 6600TIP3    H141359   6.311   3.920   8.428 -0.0485  1.5183  0.8036
 6600TIP3    H241360   6.349   3.847   8.555 -0.8680 -1.4865 -0.5829
 6601TIP3   OH241361   3.713   2.376   1.335 -0.1021  0.0535  0.3319
 6601TIP3    H141362   3.801   2.338   1.341  0.6379  0.6119 -3.9903
 6601TIP3    H241363   3.658   2.306   1.300 -0.3230  0.9338 -1.1465
 6602TIP3   OH241364   2.980   1.966   0.607  0.2611 -0.2029 -0.1601
 6602TIP3    H141365   2.970   1.962   0.702  2.6093  0.1430  0.1751
 6602TIP3    H241366   3.010   1.878   0.583  0.3108 -0.0975 -0.4802
 6603TIP3   OH241367   6.717   3.368   7.087  0.1718 -0.1735 -0.3725
 6603TIP3    H141368   6.790   3.415   7.126 -0.7503  0.2577  0.9273
 6603TIP3    H241369   6.649   3.370   7.154 -1.1202 -0.3480 -1.6150
 6604TIP3   OH241370   6.539   1.309   7.157 -0.3505  0.5098  0.5121
 6604TIP3    H141371   6.537   1.346   7.246  0.1195  1.0933  0.2822
 6604TIP3    H241372   6.575   1.379   7.103 -0.2317  0.0000 -0.0689
 6605TIP3   OH241373   6.797   1.840   7.901  0.5245 -0.1180  0.1191
 6605TIP3    H141374   6.768   1.840   7.992  2.4910  0.1878  0.7990
 6605TIP3    H241375   6.748   1.769   7.860  0.6353 -1.2011  1.7700
 6606TIP3   OH241376   3.192   5.155   6.942 -0.1536  0.5834  0.1685
 6606TIP3    H141377   3.220   5.246   6.932  1.2814  0.0332 -1.0326
 6606TIP3    H241378   3.117   5.160   7.002 -0.6842  2.6413 -0.6015
 6607TIP3   OH241379   5.945   5.060   8.277  0.3671  0.6090  0.3403
 6607TIP3    H141380   5.868   5.115   8.287 -0.4576 -0.4661  0.1004
 6607TIP3    H241381   5.951   5.043   8.183  1.1134  0.9692  0.3112
 6608TIP3   OH241382   5.050   6.246   7.256  0.0756 -0.2993  0.1699
 6608TIP3    H141383   4.963   6.273   7.284 -0.2011 -1.1423  0.1402
 6608TIP3    H241384   5.039   6.218   7.166  0.2664 -0.9391  0.3440
 6609TIP3   OH241385   0.509   2.880   7.878 -0.2193 -0.0154 -0.5831
 6609TIP3    H141386   0.563   2.830   7.939 -1.0090 -2.3540 -1.6685
 6609TIP3    H241387   0.449   2.816   7.840 -0.5399  1.5367 -2.9546
 6610TIP3   OH241388   6.479   5.979   6.743  0.2924 -0.1095  0.1596
 6610TIP3    H141389   6.469   6.070   6.716  1.8543  0.1744  0.4667
 6610TIP3    H241390   6.486   5.930   6.662  1.2882  0.2881 -0.0118
 6611TIP3   OH241391   6.757   0.225   6.674  0.2975  0.3774  0.4510
 6611TIP3    H141392   6.697   0.177   6.731  0.4288  1.8416  1.9009
 6611TIP3    H241393   6.840   0.178   6.681 -0.5275 -1.5856 -1.4663
 6612TIP3   OH241394   3.598   1.576   7.542  0.1932 -0.2633 -0.1466
 6612TIP3    H141395   3.568   1.639   7.476  1.5584 -0.6071 -1.1397
 6612TIP3    H241396   3.564   1.611   7.625  1.7554  2.4077 -0.5032
 6613TIP3   OH241397   2.800   6.501   7.525  0.0993  0.0140 -0.1525
 6613TIP3    H141398   2.727   6.440   7.517 -1.5789  2.0530 -1.4267
 6613TIP3    H241399   2.849   6.491   7.444 -0.8461  1.0964 -0.8914
 6614TIP3   OH241400   1.656   4.549   7.123  0.0856  0.2262 -0.2762
 6614TIP3    H141401   1.569   4.572   7.092  1.0505  0.4478 -3.1377
 6614TIP3    H241402   1.716   4.588   7.058  2.4640  1.8166  2.6028
 6615TIP3   OH241403   4.945   6.620   0.219 -0.0629  0.4328 -0.4743
 6615TIP3    H141404   4.949   6.602   0.313  1.5456 -1.1409 -0.8056
 6615TIP3    H241405   4.875   6.564   0.186  0.6245 -0.4432 -0.4814
 6616TIP3   OH241406   5.157   5.977   0.028 -0.2320  0.1885  0.0043
 6616TIP3    H141407   5.090   5.935   0.082  0.4217 -0.5058  0.2834
 6616TIP3    H241408   5.238   5.930   0.048  0.0011 -0.2293 -1.7101
 6617TIP3   OH241409   3.611   2.123   0.202 -0.2762  0.0779 -0.2254
 6617TIP3    H141410   3.559   2.044   0.191 -0.0867 -0.4114  1.9059
 6617TIP3    H241411   3.608   2.166   0.117 -1.7584 -1.3783 -0.9624
 6618TIP3   OH241412   2.159   4.577   1.489  0.1700  0.7131  0.5074
 6618TIP3    H141413   2.249   4.551   1.505  0.8163  1.8272 -1.0890
 6618TIP3    H241414   2.143   4.650   1.549 -0.2897 -0.6057  2.0454
 6619TIP3   OH241415   3.856   3.374   8.278  0.0142  0.2833 -0.1861
 6619TIP3    H141416   3.806   3.456   8.279  0.9835  0.9332  2.1483
 6619TIP3    H241417   3.790   3.305   8.272 -0.8697  1.1734 -1.3302
 6620TIP3   OH241418   2.385   0.150   1.512 -0.1824 -0.2649  0.0245
 6620TIP3    H141419   2.462   0.094   1.513  0.4408  0.5414 -0.6690
 6620TIP3    H241420   2.327   0.111   1.446 -0.3525 -0.8444  0.5112
 6621TIP3   OH241421   2.344   6.897   2.599 -0.2529  0.5124  0.8218
 6621TIP3    H141422   2.290   6.976   2.601 -0.4933  0.3376  1.4500
 6621TIP3    H241423   2.358   6.875   2.691  1.1958  0.7612  0.6973
 6622TIP3   OH241424   0.838   6.467   0.690  0.2728  0.6571  0.2932
 6622TIP3    H141425   0.806   6.451   0.601  0.9390  2.9318 -0.4297
 6622TIP3    H241426   0.930   6.443   0.687  0.2217  0.4362  0.4703
 6623TIP3   OH241427   3.187   6.189   0.889 -0.3099 -0.1380 -0.0851
 6623TIP3    H141428   3.095   6.171   0.913 -0.0391 -0.8264  0.5043
 6623TIP3    H241429   3.224   6.229   0.968  0.2995 -1.3634  0.2875
 6624TIP3   OH241430   4.072   0.263   1.051  0.0784 -0.8345 -0.1662
 6624TIP3    H141431   4.131   0.338   1.063  0.3888 -1.2192  0.7720
 6624TIP3    H241432   4.009   0.294   0.986  0.4012  0.1262 -0.0534
 6625TIP3   OH241433   4.493   6.185   7.324  0.1456 -0.0122 -0.2265
 6625TIP3    H141434   4.483   6.170   7.230  0.1128 -0.1586 -0.2005
 6625TIP3    H241435   4.587   6.195   7.337  0.2267 -0.7575 -0.1675
 6626TIP3   OH241436   3.925   0.087   7.490  0.0145 -0.4952 -0.2764
 6626TIP3    H141437   3.924   0.030   7.567 -1.6284 -3.2048 -2.0992
 6626TIP3    H241438   3.912   0.027   7.416  1.4746  1.9466 -2.6991
 6627TIP3   OH241439   2.805   4.951   0.495 -0.1601 -0.5816  0.3438
 6627TIP3    H141440   2.760   5.012   0.436 -0.3314 -0.0134  1.0592
 6627TIP3    H241441   2.752   4.871   0.490  0.1730 -0.7557 -0.7414
 6628TIP3   OH241442   5.658   3.727   8.124 -0.3142  0.4198  0.0993
 6628TIP3    H141443   5.622   3.776   8.051  0.5920  1.1321  0.1117
 6628TIP3    H241444   5.694   3.793   8.183  0.0836 -0.2047  0.5750
 6629TIP3   OH241445   5.514   5.820   1.930 -0.1748 -0.6279 -1.0984
 6629TIP3    H141446   5.474   5.840   2.014 -2.3541 -1.4810 -1.8747
 6629TIP3    H241447   5.513   5.904   1.883  1.7816  0.0419 -0.0678
 6630TIP3   OH241448   0.430   4.266   7.272 -0.0268 -1.1609 -0.0801
 6630TIP3    H141449   0.495   4.228   7.214 -0.4679  1.2090 -2.3476
 6630TIP3    H241450   0.480   4.322   7.331  0.1239  0.4200 -1.6189
 6631TIP3   OH241451   3.926   0.082   0.644 -0.1311  0.5451  0.1513
 6631TIP3    H141452   3.958   0.163   0.605  0.0976 -0.9782 -3.1571
 6631TIP3    H241453   3.831   0.092   0.648 -0.1221  0.8801 -0.4817
 6632TIP3   OH241454   5.786   4.485   7.633 -0.1610 -0.2430  0.2855
 6632TIP3    H141455   5.702   4.448   7.603 -0.3167 -0.2019  0.6734
 6632TIP3    H241456   5.772   4.579   7.632 -0.3372 -0.2610  0.9935
 6633TIP3   OH241457   3.392   0.795   0.557  0.0883 -0.4328 -0.7087
 6633TIP3    H141458   3.332   0.770   0.628  1.0884 -0.9001 -0.0001
 6633TIP3    H241459   3.416   0.712   0.517  1.1666 -0.3658 -0.2239
 6634TIP3   OH241460   2.596   5.968   0.483 -0.3106 -0.4865  0.0986
 6634TIP3    H141461   2.646   5.892   0.453 -0.2934 -0.6502  0.5370
 6634TIP3    H241462   2.549   5.998   0.405  1.3789  0.3996 -0.6297
 6635TIP3   OH241463   3.387   2.587   2.302 -0.1357  0.1424 -0.6529
 6635TIP3    H141464   3.318   2.559   2.362 -1.1238  1.7112 -0.9717
 6635TIP3    H241465   3.458   2.525   2.316 -1.3839 -1.1922  0.1134
 6636TIP3   OH241466   5.996   6.026   1.948 -0.0008  0.5805 -0.5822
 6636TIP3    H141467   5.964   6.000   2.035  1.9353 -1.6622 -0.4373
 6636TIP3    H241468   6.082   6.065   1.965  0.9310 -0.9625 -1.5128
 6637TIP3   OH241469   0.635   5.334   7.970  0.5040 -0.6594  0.7969
 6637TIP3    H141470   0.681   5.290   7.899  0.8668 -0.6032  0.9958
 6637TIP3    H241471   0.704   5.368   8.027  0.3663  2.3113 -0.6233
 6638TIP3   OH241472   1.342   1.686   1.619  0.1204  0.4458 -0.0868
 6638TIP3    H141473   1.354   1.610   1.674  0.5642  0.4025 -0.2373
 6638TIP3    H241474   1.430   1.707   1.588  0.1604  1.6268  0.7601
 6639TIP3   OH241475   6.263   2.212   7.209 -0.1369 -0.0260 -0.1190
 6639TIP3    H141476   6.333   2.232   7.146 -0.1175 -2.5593 -1.0245
 6639TIP3    H241477   6.267   2.117   7.218 -0.7499  0.1595  3.0632
 6640TIP3   OH241478   3.549   1.150   0.996 -0.0703  0.5365  0.0453
 6640TIP3    H141479   3.554   1.231   1.047 -1.8409  1.0166 -0.4746
 6640TIP3    H241480   3.568   1.081   1.060 -2.5038  1.0957  1.5185
 6641TIP3   OH241481   3.437   6.806   6.592 -0.6363  0.6030  0.0440
 6641TIP3    H141482   3.447   6.809   6.497  2.4984  1.1427  0.2980
 6641TIP3    H241483   3.390   6.724   6.608  0.4690 -0.5053 -1.8906
 6642TIP3   OH241484   5.994   2.588   2.380 -0.3354  0.5054  0.0653
 6642TIP3    H141485   6.071   2.539   2.351  0.0407  0.8042  0.5400
 6642TIP3    H241486   5.920   2.534   2.352  0.0775 -0.7450  1.2639
 6643TIP3   OH241487   5.370   0.978   6.918  0.5821 -0.1443 -0.3645
 6643TIP3    H141488   5.316   1.024   6.854 -0.4387  1.4725  1.5334
 6643TIP3    H241489   5.419   1.048   6.962  0.0265 -0.9758  1.6963
 6644TIP3   OH241490   1.010   0.402   7.208 -0.2433 -0.4696  0.4569
 6644TIP3    H141491   1.059   0.452   7.143  0.2951 -1.9496 -0.3361
 6644TIP3    H241492   0.918   0.418   7.187 -0.0970  0.8800  0.7981
 6645TIP3   OH241493   5.634   2.536   7.183 -0.1712  0.0894 -0.0955
 6645TIP3    H141494   5.634   2.576   7.270 -2.5497  0.1587 -0.0618
 6645TIP3    H241495   5.629   2.609   7.122 -0.5387 -0.0096 -0.1903
 6646TIP3   OH241496   6.230   1.722   1.734  0.1303  0.6457  0.1064
 6646TIP3    H141497   6.178   1.798   1.760  1.6469  2.8380 -2.6671
 6646TIP3    H241498   6.171   1.670   1.680 -0.6613  0.2680  1.2985
 6647TIP3   OH241499   3.014   0.656   1.227  0.0674 -0.2383  0.1104
 6647TIP3    H141500   2.958   0.635   1.153  0.6726  0.0390 -0.4333
 6647TIP3    H241501   3.062   0.734   1.200  0.7337 -0.4841  0.5523
 6648TIP3   OH241502   0.291   5.626   7.107 -0.0003 -0.0800 -0.1905
 6648TIP3    H141503   0.295   5.657   7.016  0.6511 -1.7451 -0.7711
 6648TIP3    H241504   0.322   5.536   7.103  0.0890 -0.1794  1.7112
 6649TIP3   OH241505   4.614   2.957   1.419 -0.3723 -0.6348 -0.0120
 6649TIP3    H141506   4.522   2.983   1.424 -1.3544 -3.3590 -1.4126
 6649TIP3    H241507   4.643   2.953   1.510 -1.3208  1.1717  0.4105
 6650TIP3   OH241508   1.889   2.532   2.036  0.2007 -0.2747  0.3645
 6650TIP3    H141509   1.804   2.565   2.063  0.5151  2.0111 -1.1202
 6650TIP3    H241510   1.943   2.534   2.115 -0.4946  0.4983  0.8301
 6651TIP3   OH241511   1.393   2.629   1.964  0.5284 -0.0855  0.1916
 6651TIP3    H141512   1.311   2.646   2.011  0.3010 -0.9569  0.1325
 6651TIP3    H241513   1.407   2.708   1.911 -0.7367 -0.2649 -0.4545
 6652TIP3   OH241514   6.254   5.655   7.776  0.6192 -0.9257 -0.2599
 6652TIP3    H141515   6.342   5.674   7.744  0.4518 -0.9820 -0.7664
 6652TIP3    H241516   6.249   5.560   7.775  0.5242 -0.9200 -0.3106
 6653TIP3   OH241517   6.626   5.872   8.301  0.1116  0.2611 -1.1575
 6653TIP3    H141518   6.716   5.861   8.270  0.2855  1.9104 -1.3228
 6653TIP3    H241519   6.629   5.948   8.359 -1.0106 -0.2415 -0.3807
 6654TIP3   OH241520   2.072   4.779   8.466 -0.6717  0.4345  0.1436
 6654TIP3    H141521   2.030   4.742   8.388 -1.9930  0.0799  0.9802
 6654TIP3    H241522   2.027   4.738   8.540  1.8464 -0.6948  1.1516
 6655TIP3   OH241523   3.059   1.083   0.188  0.2365 -0.1726  0.0501
 6655TIP3    H141524   3.100   1.088   0.102  1.3626  0.3742  0.5946
 6655TIP3    H241525   3.124   1.120   0.248 -0.9323  0.4228  1.0032
 6656TIP3   OH241526   5.298   4.664   7.568 -0.0694  0.3894 -0.0996
 6656TIP3    H141527   5.320   4.656   7.661 -1.8889 -0.3766  0.3147
 6656TIP3    H241528   5.218   4.717   7.567 -0.9806 -0.9486 -1.0790
 6657TIP3   OH241529   1.259   3.323   6.518 -0.4089  0.3792  0.3533
 6657TIP3    H141530   1.182   3.361   6.561 -1.3490 -0.7439 -0.2902
 6657TIP3    H241531   1.333   3.373   6.554 -1.2916  0.5188  2.0909
 6658TIP3   OH241532   6.842   4.391   0.781 -0.2232  0.2715 -0.1281
 6658TIP3    H141533   6.856   4.347   0.865 -0.6464 -1.6127 -0.9884
 6658TIP3    H241534   6.905   4.464   0.782 -0.8503  0.8764  2.1628
 6659TIP3   OH241535   4.043   2.592   8.347 -0.6830  0.1729 -0.2113
 6659TIP3    H141536   4.138   2.598   8.347 -0.7060  0.5598  0.0181
 6659TIP3    H241537   4.025   2.498   8.348 -0.3059  0.0947 -0.4522
 6660TIP3   OH241538   6.116   0.070   1.948 -0.0868  0.4475  0.3881
 6660TIP3    H141539   6.117   0.132   2.021 -1.3869 -0.4202  1.1965
 6660TIP3    H241540   6.027   0.074   1.914 -0.0662 -0.6366  0.1644
 6661TIP3   OH241541   4.125   4.679   8.066 -0.3933 -0.7340 -0.7400
 6661TIP3    H141542   4.164   4.666   7.980 -3.0865 -2.9721 -1.7823
 6661TIP3    H241543   4.173   4.619   8.123  1.3146  0.6628 -0.6158
 6662TIP3   OH241544   3.479   1.535   0.247 -0.3806 -0.0866 -0.5310
 6662TIP3    H141545   3.527   1.589   0.185  0.7612 -1.2499 -0.7154
 6662TIP3    H241546   3.499   1.573   0.333  1.4969 -0.9408 -0.5388
 6663TIP3   OH241547   0.577   4.171   0.149  0.1780 -0.4664 -0.2927
 6663TIP3    H141548   0.622   4.128   0.222 -2.0618  1.3618  2.3569
 6663TIP3    H241549   0.506   4.110   0.126 -1.4627  0.5096  1.7864
 6664TIP3   OH241550   5.061   2.060   7.243 -0.3405 -0.0918  0.6587
 6664TIP3    H141551   5.121   2.135   7.239  0.5232 -0.7412  1.0761
 6664TIP3    H241552   5.028   2.051   7.153  2.6112 -1.6178 -0.4116
 6665TIP3   OH241553   5.313   1.920   2.399 -0.2643  0.3680 -0.2479
 6665TIP3    H141554   5.222   1.889   2.399  0.0431 -0.5778  0.4324
 6665TIP3    H241555   5.342   1.906   2.489  1.0668 -0.8788 -0.8364
 6666TIP3   OH241556   4.190   4.549   1.497  0.2160 -0.0670 -0.3886
 6666TIP3    H141557   4.212   4.523   1.586  0.1803  0.2235 -0.2969
 6666TIP3    H241558   4.243   4.627   1.480  1.7362 -1.2311 -1.3137
 6667TIP3   OH241559   5.031   6.214   0.128 -0.1764  0.1033 -0.1352
 6667TIP3    H141560   5.036   6.170   0.214 -0.5516  0.2323 -0.0424
 6667TIP3    H241561   5.067   6.150   0.066 -0.1794 -0.1079  0.0782
 6668TIP3   OH241562   2.307   6.869   7.790 -0.2356 -0.2265 -0.0900
 6668TIP3    H141563   2.256   6.795   7.822 -0.1818  0.0936  0.7690
 6668TIP3    H241564   2.327   6.920   7.869  1.3539 -0.3027 -0.4091
 6669TIP3   OH241565   3.542   1.394   2.108  0.0120 -0.1319  0.0287
 6669TIP3    H141566   3.587   1.457   2.052 -0.6032 -0.3018 -0.6732
 6669TIP3    H241567   3.607   1.325   2.124  0.9365  1.0036  1.4084
 6670TIP3   OH241568   4.771   2.406   7.585  0.3954 -0.0699  0.0961
 6670TIP3    H141569   4.847   2.448   7.626  1.4043 -2.5112  0.9445
 6670TIP3    H241570   4.702   2.413   7.651  0.8446 -0.5368  0.6307
 6671TIP3   OH241571   4.871   1.098   1.097 -0.3927 -0.1411 -0.2202
 6671TIP3    H141572   4.833   1.034   1.037  1.8151 -0.9185 -0.9025
 6671TIP3    H241573   4.910   1.046   1.167  0.2270  0.5404 -0.0504
 6672TIP3   OH241574   6.362   5.304   1.803  0.2904  0.2904 -0.0946
 6672TIP3    H141575   6.435   5.253   1.836  2.2811  1.7907 -1.9128
 6672TIP3    H241576   6.350   5.275   1.713 -2.5587 -1.0937  0.5979
 6673TIP3   OH241577   2.331   5.879   6.905 -0.3278 -0.3338 -0.0461
 6673TIP3    H141578   2.371   5.929   6.976  0.4160 -0.0230 -0.6674
 6673TIP3    H241579   2.267   5.939   6.866 -1.9997 -1.0783  1.4165
 6674TIP3   OH241580   5.988   2.390   1.163 -0.1887 -0.0976  0.5635
 6674TIP3    H141581   5.916   2.452   1.174  0.3337  0.4934  0.7043
 6674TIP3    H241582   5.980   2.332   1.239 -0.7895 -0.3189  0.3364
 6675TIP3   OH241583   5.387   5.129   2.559 -0.4068 -0.2679  0.1850
 6675TIP3    H141584   5.316   5.186   2.588 -0.2584 -0.2630  0.5419
 6675TIP3    H241585   5.459   5.189   2.540 -0.5011 -0.2712 -0.1997
 6676TIP3   OH241586   5.147   3.385   0.683 -0.6999 -0.4581  0.6031
 6676TIP3    H141587   5.090   3.332   0.627  0.9633 -0.6938 -0.9541
 6676TIP3    H241588   5.235   3.370   0.649  0.0966  1.4707  1.6453
 6677TIP3   OH241589   6.723   6.393   7.260 -0.2250  0.3942 -0.1033
 6677TIP3    H141590   6.755   6.475   7.221 -0.8306  0.4412 -0.5177
 6677TIP3    H241591   6.726   6.330   7.188  0.9382 -0.1534  0.3945
 6678TIP3   OH241592   1.576   0.299   7.340  0.1435  0.3390 -0.3152
 6678TIP3    H141593   1.547   0.337   7.257 -0.9465  0.5587  0.1535
 6678TIP3    H241594   1.498   0.299   7.395  0.7791 -0.1007  0.6071
 6679TIP3   OH241595   3.436   1.487   1.299 -0.2205 -0.1729 -0.0250
 6679TIP3    H141596   3.529   1.484   1.279  0.1725  0.2749  1.5983
 6679TIP3    H241597   3.393   1.470   1.215  1.3105 -2.0505 -0.5110
 6680TIP3   OH241598   5.195   0.171   7.964 -0.5639  0.5843  0.5681
 6680TIP3    H141599   5.159   0.106   8.024  0.7698  0.0588  0.8091
 6680TIP3    H241600   5.196   0.128   7.879  1.3136 -0.1186  0.9177
 6681TIP3   OH241601   0.939   1.793   7.904 -0.1343 -0.3133  0.1273
 6681TIP3    H141602   0.902   1.879   7.924  0.0547  0.0092 -0.8347
 6681TIP3    H241603   1.029   1.812   7.876 -0.5609 -0.6340 -1.6005
 6682TIP3   OH241604   4.778   5.765   0.796 -0.2029  0.1190  0.0281
 6682TIP3    H141605   4.843   5.806   0.740  2.2477  0.2120  2.6840
 6682TIP3    H241606   4.706   5.828   0.801  1.1535  1.7413 -0.1218
 6683TIP3   OH241607   0.871   0.894   7.142  0.1771  0.0331 -0.2934
 6683TIP3    H141608   0.901   0.976   7.183 -1.2061  0.8737 -0.9027
 6683TIP3    H241609   0.850   0.837   7.216 -0.0170  0.6732  0.1559
 6684TIP3   OH241610   0.220   2.955   1.695 -0.0854  0.1231 -0.3726
 6684TIP3    H141611   0.199   2.976   1.604  2.6014 -0.8315 -1.3200
 6684TIP3    H241612   0.304   2.908   1.690 -0.0310 -0.2898  2.5778
 6685TIP3   OH241613   3.012   4.531   7.501 -0.1709 -0.0271  0.4591
 6685TIP3    H141614   2.988   4.486   7.582  0.8856  0.2064  0.9181
 6685TIP3    H241615   2.978   4.474   7.432 -2.3737  0.4850  1.0344
 6686TIP3   OH241616   2.465   2.107   0.307 -0.4645  0.3209 -0.2164
 6686TIP3    H141617   2.461   2.183   0.249 -2.2048  1.3804  1.1984
 6686TIP3    H241618   2.491   2.143   0.392 -1.2217 -0.6603  0.4530
 6687TIP3   OH241619   2.415   0.250   0.641  0.5774  0.1588 -0.0722
 6687TIP3    H141620   2.469   0.320   0.678 -0.2101  0.8660 -0.2389
 6687TIP3    H241621   2.455   0.169   0.674  1.4677  0.6799  0.1606
 6688TIP3   OH241622   4.007   3.045   7.238  0.1971 -0.3566 -0.4613
 6688TIP3    H141623   3.979   3.001   7.158 -0.9372 -0.5525  0.0201
 6688TIP3    H241624   4.005   2.976   7.305  1.6437 -0.3204 -0.3387
 6689TIP3   OH241625   5.180   0.115   1.662 -0.1775  0.5807  0.2326
 6689TIP3    H141626   5.104   0.103   1.719  1.1682  2.9951  2.7690
 6689TIP3    H241627   5.181   0.208   1.642  1.8709  0.5356 -0.0698
 6690TIP3   OH241628   6.619   4.110   8.189 -0.2468 -0.1724 -0.5965
 6690TIP3    H141629   6.680   4.184   8.180 -1.7697  1.3537  0.7289
 6690TIP3    H241630   6.538   4.142   8.150 -0.8433 -1.2859 -0.3031
 6691TIP3   OH241631   4.392   1.880   7.620  0.2745  0.5603 -0.2369
 6691TIP3    H141632   4.430   1.853   7.704  0.7018 -0.3770 -0.7228
 6691TIP3    H241633   4.441   1.958   7.595 -0.4327  1.3701  0.7894
 6692TIP3   OH241634   2.293   6.504   7.602 -0.2030  0.3264 -0.5314
 6692TIP3    H141635   2.200   6.507   7.579 -0.4182 -1.8345 -0.1497
 6692TIP3    H241636   2.316   6.412   7.595  1.6007  0.6474  0.6708
 6693TIP3   OH241637   6.829   2.124   7.221 -0.1730 -0.5625 -0.4101
 6693TIP3    H141638   6.828   2.182   7.145  2.4296 -1.1960 -1.0054
 6693TIP3    H241639   6.845   2.182   7.295  1.9352 -0.4071 -0.9400
 6694TIP3   OH241640   5.260   2.916   6.407  0.4157 -0.0675 -0.0251
 6694TIP3    H141641   5.177   2.918   6.359  1.0735 -1.2650 -1.2959
 6694TIP3    H241642   5.327   2.909   6.339  1.4140 -1.5189  1.0360
 6695TIP3   OH241643   5.523   2.899   1.311  0.5299  0.0957  0.1688
 6695TIP3    H141644   5.602   2.912   1.260  0.6626 -1.3683 -0.0394
 6695TIP3    H241645   5.452   2.923   1.252  0.7947  1.6619  0.4406
 6696TIP3   OH241646   6.225   5.262   0.422  0.0431 -0.0806 -0.0936
 6696TIP3    H141647   6.149   5.315   0.397  0.8807  1.2041 -0.0265
 6696TIP3    H241648   6.299   5.322   0.414  1.3998 -1.8809 -2.4478
 6697TIP3   OH241649   1.994   2.837   1.909 -0.5906 -0.4648  0.5042
 6697TIP3    H141650   1.919   2.871   1.957  0.8776  0.8637  1.9921
 6697TIP3    H241651   2.030   2.768   1.965  0.4006  0.2303  0.7492
 6698TIP3   OH241652   4.756   5.115   1.834 -0.2000 -0.5313 -0.0062
 6698TIP3    H141653   4.770   5.155   1.920  1.8179 -1.0708 -0.0351
 6698TIP3    H241654   4.733   5.188   1.777  0.4781  0.1504  0.5710
 6699TIP3   OH241655   6.774   5.588   6.505 -0.2125 -0.1391 -0.0553
 6699TIP3    H141656   6.766   5.643   6.583 -0.3688  0.5417 -0.5474
 6699TIP3    H241657   6.694   5.605   6.455 -0.2358 -0.7691 -0.2498
 6700TIP3   OH241658   6.815   0.741   8.219 -0.0166 -0.5399  0.5072
 6700TIP3    H141659   6.876   0.813   8.209  4.2511 -3.9661 -1.7690
 6700TIP3    H241660   6.824   0.714   8.310  0.8869 -0.1277  0.5478
 6701TIP3   OH241661   0.452   1.191   8.410 -0.5432 -0.7146 -1.0436
 6701TIP3    H141662   0.434   1.103   8.441  0.1109 -0.9108 -1.2115
 6701TIP3    H241663   0.384   1.207   8.344 -1.2290 -0.7299 -0.3581
 6702TIP3   OH241664   1.165   4.961   0.678 -0.4002 -0.2683 -0.3411
 6702TIP3    H141665   1.261   4.960   0.673 -0.2523 -1.5772  1.6285
 6702TIP3    H241666   1.140   5.043   0.636  1.5860  0.1743 -0.7828
 6703TIP3   OH241667   3.382   3.233   3.215  0.0549  0.4191  0.1638
 6703TIP3    H141668   3.291   3.241   3.244 -0.1657  1.0725 -0.6773
 6703TIP3    H241669   3.376   3.226   3.119  0.7582 -1.6257  0.2133
 6704TIP3   OH241670   0.439   4.916   1.757 -0.4032  0.1264 -0.0106
 6704TIP3    H141671   0.391   4.974   1.817 -1.4661  0.2594 -0.9564
 6704TIP3    H241672   0.371   4.864   1.715  0.2165  0.6441 -1.7311
 6705TIP3   OH241673   2.236   0.751   7.111  0.7044 -0.1461  0.0447
 6705TIP3    H141674   2.231   0.723   7.020  2.7081  0.9739 -0.4679
 6705TIP3    H241675   2.192   0.836   7.113 -1.5627 -1.2397  0.7156
 6706TIP3   OH241676   6.761   2.452   0.576  0.1588  0.2399  0.1216
 6706TIP3    H141677   6.686   2.470   0.520  0.6660 -0.4180 -0.7981
 6706TIP3    H241678   6.831   2.426   0.516  0.7580 -0.3547  1.0383
 6707TIP3   OH241679   5.720   6.393   8.457  0.1025 -0.3536  0.2487
 6707TIP3    H141680   5.714   6.305   8.419 -0.8729 -0.4076  0.4967
 6707TIP3    H241681   5.814   6.410   8.463  0.4065 -2.2295  2.1567
 6708TIP3   OH241682   2.942   1.899   7.729  0.0156  0.4400  0.1965
 6708TIP3    H141683   2.936   1.860   7.816 -0.7966  0.8168  0.3173
 6708TIP3    H241684   2.988   1.982   7.743  0.2000  0.3357  0.2112
 6709TIP3   OH241685   6.892   1.490   0.372 -0.6794 -0.3745  0.2539
 6709TIP3    H141686   6.941   1.439   0.436 -0.5576 -1.6538 -0.8103
 6709TIP3    H241687   6.814   1.438   0.354 -0.0840 -0.7252 -1.5698
 6710TIP3   OH241688   0.088   0.517   0.955  0.3637 -0.0092 -0.7042
 6710TIP3    H141689   0.107   0.439   1.007 -2.4751 -1.2471 -1.3084
 6710TIP3    H241690   0.100   0.590   1.015  1.3038 -1.0522  0.4116
 6711TIP3   OH241691   4.115   2.355   2.597  0.0667 -0.4802 -0.6638
 6711TIP3    H141692   4.061   2.303   2.658  1.8836 -1.5859  0.0794
 6711TIP3    H241693   4.052   2.391   2.535 -2.1091  1.7750  2.5164
 6712TIP3   OH241694   1.018   0.945   0.705  0.0362 -0.1681  0.3701
 6712TIP3    H141695   0.982   0.916   0.621  0.8358  0.1550 -0.0950
 6712TIP3    H241696   1.077   0.874   0.732 -1.2570 -0.9092  1.3583
 6713TIP3   OH241697   5.611   5.381   1.539  0.0596 -0.0763  0.8305
 6713TIP3    H141698   5.628   5.350   1.450  1.0175 -0.8702  1.2699
 6713TIP3    H241699   5.670   5.455   1.550  0.7864 -0.7031  1.1942
 6714TIP3   OH241700   3.937   3.773   1.681  0.8669  0.0633  0.0661
 6714TIP3    H141701   3.874   3.812   1.620 -0.7125 -0.6925  1.1651
 6714TIP3    H241702   3.915   3.812   1.766 -1.2104 -3.4775  1.3601
 6715TIP3   OH241703   3.418   0.863   7.776  0.0420  0.3704 -0.2019
 6715TIP3    H141704   3.509   0.858   7.806  0.0564  1.3427 -0.0529
 6715TIP3    H241705   3.405   0.783   7.725  0.6281 -0.3515  0.7346
 6716TIP3   OH241706   3.020   2.622   2.447  0.2201 -0.1391  0.0627
 6716TIP3    H141707   3.018   2.578   2.362 -3.0961  0.1629 -0.1431
 6716TIP3    H241708   3.092   2.580   2.494  1.2104 -1.3320 -2.3440
 6717TIP3   OH241709   6.639   1.345   0.295  0.3046 -0.2298 -0.2240
 6717TIP3    H141710   6.572   1.407   0.267  0.5729  0.6501  1.0097
 6717TIP3    H241711   6.622   1.331   0.388  1.1685 -0.8419 -0.1406
 6718TIP3   OH241712   2.280   2.835   2.291 -0.2755 -0.4954  0.7548
 6718TIP3    H141713   2.345   2.829   2.221 -1.6827 -0.8384 -0.5926
 6718TIP3    H241714   2.247   2.925   2.286 -2.3390 -1.2413 -0.9758
 6719TIP3   OH241715   5.518   3.403   1.716 -0.2250 -0.6182 -0.3142
 6719TIP3    H141716   5.585   3.382   1.651  1.5597  1.2943  0.7800
 6719TIP3    H241717   5.546   3.356   1.795 -0.7566 -0.6476 -0.1439
 6720TIP3   OH241718   0.893   0.821   8.306 -0.2093  0.0407 -0.4620
 6720TIP3    H141719   0.921   0.869   8.384 -1.7536  0.2859 -0.0379
 6720TIP3    H241720   0.894   0.886   8.236  0.0801  0.0924 -0.4124
 6721TIP3   OH241721   2.491   6.392   0.492 -0.6418  0.0429  0.0415
 6721TIP3    H141722   2.539   6.325   0.444 -0.8140  0.7591 -1.1609
 6721TIP3    H241723   2.506   6.473   0.443 -1.7579  0.5745  0.5339
 6722TIP3   OH241724   3.344   1.524   7.432 -0.5022  0.2603  0.4356
 6722TIP3    H141725   3.323   1.431   7.439 -0.9459  0.2861 -0.4568
 6722TIP3    H241726   3.438   1.527   7.418 -0.7040 -0.1479 -1.1535
 6723TIP3   OH241727   1.589   0.787   7.486  0.2683 -0.6748 -0.3733
 6723TIP3    H141728   1.557   0.866   7.444 -1.3494 -1.0344  0.1159
 6723TIP3    H241729   1.592   0.809   7.579 -0.0631 -1.1377 -0.2494
 6724TIP3   OH241730   1.751   5.687   8.479  0.3998  0.2836  0.6439
 6724TIP3    H141731   1.669   5.682   8.430  1.1982  0.1053 -0.7494
 6724TIP3    H241732   1.759   5.779   8.504  0.4192  0.5843 -0.4179
 6725TIP3   OH241733   2.283   4.207   8.289  0.1766 -0.4117 -0.0643
 6725TIP3    H141734   2.274   4.116   8.260  0.7365 -0.4459 -0.1326
 6725TIP3    H241735   2.239   4.258   8.221  0.0252 -0.6176 -0.1226
 6726TIP3   OH241736   2.144   0.374   7.161 -0.4627 -0.2151  0.0155
 6726TIP3    H141737   2.184   0.403   7.079 -0.9370  0.6965  0.0900
 6726TIP3    H241738   2.050   0.384   7.147 -0.7011 -2.2908 -0.1403
 6727TIP3   OH241739   3.951   1.483   0.443 -0.1424  0.6056 -0.4940
 6727TIP3    H141740   4.016   1.551   0.461 -1.9059  2.1860  0.2980
 6727TIP3    H241741   3.895   1.520   0.375 -1.0118 -0.1420 -0.2047
 6728TIP3   OH241742   5.155   4.409   1.342 -0.2945  0.4105 -0.2267
 6728TIP3    H141743   5.226   4.448   1.292  0.7123 -0.7445  0.2327
 6728TIP3    H241744   5.102   4.362   1.278  1.1763 -1.3424 -0.2437
 6729TIP3   OH241745   3.418   2.673   2.057 -0.6485  0.0745 -0.0624
 6729TIP3    H141746   3.384   2.637   2.139 -0.4572 -1.5444 -0.6599
 6729TIP3    H241747   3.403   2.604   1.992  0.0726  0.9438 -1.1971
 6730TIP3   OH241748   6.718   3.728   1.543  0.4755 -0.3401 -0.1375
 6730TIP3    H141749   6.731   3.698   1.453 -1.7724 -0.7573 -0.4031
 6730TIP3    H241750   6.692   3.649   1.590 -0.7078  0.2906  0.3032
 6731TIP3   OH241751   0.073   3.104   0.425  0.1712 -0.0173  0.0984
 6731TIP3    H141752   0.161   3.134   0.444 -0.2441  1.0476  0.4064
 6731TIP3    H241753   0.066   3.109   0.329  0.6424 -0.7182  0.0179
 6732TIP3   OH241754   1.880   4.398   6.909 -0.0478  0.2467  0.4921
 6732TIP3    H141755   1.828   4.418   6.831 -0.3875  0.9813  0.8972
 6732TIP3    H241756   1.944   4.469   6.914 -0.9895  1.0355  1.7080
 6733TIP3   OH241757   0.360   3.547   2.839  0.2984 -0.0992  0.0014
 6733TIP3    H141758   0.354   3.451   2.834 -0.7397  0.0271 -1.9204
 6733TIP3    H241759   0.454   3.565   2.841  0.5689 -1.1020 -1.8949
 6734TIP3   OH241760   1.466   6.754   0.283  0.3075 -0.3761 -0.4891
 6734TIP3    H141761   1.414   6.774   0.205  0.0399 -2.1660 -0.8235
 6734TIP3    H241762   1.416   6.686   0.328  0.3415  0.7935  1.4022
 6735TIP3   OH241763   0.317   4.927   8.253 -0.2861  0.2063 -0.2080
 6735TIP3    H141764   0.365   4.954   8.175 -1.6577  0.3900 -1.0269
 6735TIP3    H241765   0.363   4.968   8.326  0.1778  1.2309 -1.0541
 6736TIP3   OH241766   2.054   1.783   0.564 -0.6566  0.1101 -0.2135
 6736TIP3    H141767   2.063   1.774   0.469 -0.3057 -0.1154 -0.1620
 6736TIP3    H241768   2.117   1.851   0.587  0.8536 -1.3531  0.1307
 6737TIP3   OH241769   1.820   2.780   7.562 -0.5332  0.0103 -0.4037
 6737TIP3    H141770   1.857   2.827   7.637  0.8757 -0.9019 -0.4920
 6737TIP3    H241771   1.824   2.843   7.490 -0.4486  0.3892 -0.0688
 6738TIP3   OH241772   3.980   5.775   0.922  0.1620 -0.1653 -0.0701
 6738TIP3    H141773   3.971   5.822   1.004 -0.3818 -0.1388 -0.1406
 6738TIP3    H241774   3.928   5.825   0.859  2.0514  0.8690 -0.8885
 6739TIP3   OH241775   5.020   4.592   0.291  0.4953  0.4293  0.3363
 6739TIP3    H141776   5.111   4.603   0.266  0.5440 -2.3953 -1.0821
 6739TIP3    H241777   5.023   4.541   0.372  0.1900  0.1087  0.1509
 6740TIP3   OH241778   1.480   3.366   0.299  0.0223  0.3141 -0.0605
 6740TIP3    H141779   1.462   3.296   0.236  0.1665  1.0575 -0.9543
 6740TIP3    H241780   1.478   3.323   0.384  0.6969 -0.8892 -0.6323
 6741TIP3   OH241781   1.434   5.373   2.077  0.7103  0.3667  0.5193
 6741TIP3    H141782   1.401   5.313   2.144 -0.1917  1.1987  0.8472
 6741TIP3    H241783   1.399   5.339   1.995 -0.5282  0.9030  0.7983
 6742TIP3   OH241784   4.321   1.273   1.443 -0.1459 -0.9763  0.3422
 6742TIP3    H141785   4.312   1.365   1.418 -1.5706 -1.2600 -0.2979
 6742TIP3    H241786   4.384   1.237   1.381 -0.8184 -0.7947 -0.4671
 6743TIP3   OH241787   4.238   2.120   1.621  0.2120 -0.3931 -0.1836
 6743TIP3    H141788   4.217   2.064   1.546 -1.0059  0.3972 -0.4489
 6743TIP3    H241789   4.326   2.152   1.602  0.2147 -0.7898 -0.9095
 6744TIP3   OH241790   3.542   1.953   8.028  0.1875  0.3099  0.1579
 6744TIP3    H141791   3.543   2.048   8.016  1.2403  0.3207  0.2226
 6744TIP3    H241792   3.488   1.920   7.957 -3.7118  1.2076  2.3710
 6745TIP3   OH241793   5.536   5.049   8.490  0.7644  0.2933  0.0062
 6745TIP3    H141794   5.521   5.129   8.439 -0.7834  0.1874  0.2642
 6745TIP3    H241795   5.587   4.993   8.431  1.1028  1.1143 -0.5044
 6746TIP3   OH241796   0.151   2.590   6.949 -0.0267  0.5252  0.1057
 6746TIP3    H141797   0.157   2.613   6.856  0.3164  0.2844  0.0622
 6746TIP3    H241798   0.208   2.513   6.957 -0.2021  0.4343  0.4787
 6747TIP3   OH241799   6.200   1.258   1.242 -0.4596  0.2290 -0.3200
 6747TIP3    H141800   6.290   1.252   1.213 -0.1869  2.2684 -0.0124
 6747TIP3    H241801   6.152   1.198   1.185  0.9911 -0.5205 -0.7924
 6748TIP3   OH241802   3.557   6.151   0.830  0.3320 -0.3368 -0.5237
 6748TIP3    H141803   3.520   6.161   0.743 -1.6836 -0.9185  0.2233
 6748TIP3    H241804   3.639   6.201   0.827  0.3840 -0.4535 -2.7593
 6749TIP3   OH241805   5.354   0.550   0.191 -0.9688  0.2320 -0.1985
 6749TIP3    H141806   5.352   0.501   0.273  0.1023 -0.9408 -0.8172
 6749TIP3    H241807   5.412   0.624   0.208 -1.2942  0.3720  0.2952
 6750TIP3   OH241808   0.083   6.206   6.500 -0.1834 -0.1960  0.7052
 6750TIP3    H141809   0.151   6.145   6.472 -0.7073 -0.0539 -0.9393
 6750TIP3    H241810   0.087   6.278   6.438 -2.4846 -0.6643 -0.0937
 6751TIP3   OH241811   5.932   1.162   1.715 -0.0163 -0.0987  0.5467
 6751TIP3    H141812   5.878   1.241   1.712 -0.2614 -0.2675  0.4702
 6751TIP3    H241813   5.943   1.144   1.808  1.8580  1.2513  0.6594
 6752TIP3   OH241814   4.617   5.206   8.292  0.4162 -0.1801 -0.2305
 6752TIP3    H141815   4.613   5.227   8.199  0.1042 -0.8666 -0.3807
 6752TIP3    H241816   4.711   5.199   8.311  0.4983  0.5377 -0.3528
 6753TIP3   OH241817   0.132   2.982   1.443 -0.0994  0.6720 -0.3502
 6753TIP3    H141818   0.180   2.913   1.397 -0.7338 -1.6768  2.2237
 6753TIP3    H241819   0.040   2.957   1.435 -0.3393  1.2107  0.6061
 6754TIP3   OH241820   6.692   6.749   0.583 -0.1519 -0.5794 -0.3956
 6754TIP3    H141821   6.671   6.669   0.631 -1.6248 -0.2613 -0.4677
 6754TIP3    H241822   6.766   6.724   0.527  1.7104 -0.9315  2.0550
 6755TIP3   OH241823   2.658   5.664   0.100 -0.3642 -0.1258  0.0585
 6755TIP3    H141824   2.601   5.608   0.045  0.5484 -1.4455  0.3990
 6755TIP3    H241825   2.604   5.684   0.176 -0.3001 -1.6472  0.5406
 6756TIP3   OH241826   0.302   0.840   7.238 -0.5013  0.1548 -0.0134
 6756TIP3    H141827   0.382   0.835   7.290 -2.4164 -1.2792  3.0587
 6756TIP3    H241828   0.275   0.931   7.243  0.0972  0.3218  0.2617
 6757TIP3   OH241829   0.784   4.774   0.813 -0.0402  0.0074  0.4269
 6757TIP3    H141830   0.735   4.855   0.799  1.9839  1.0585 -1.0643
 6757TIP3    H241831   0.747   4.712   0.750 -0.3938  0.3257  0.3173
 6758TIP3   OH241832   0.709   5.699   0.792 -0.0178 -0.3356 -0.3785
 6758TIP3    H141833   0.726   5.632   0.858 -5.3217 -1.6309  0.1213
 6758TIP3    H241834   0.715   5.653   0.709 -1.3046 -0.9145 -0.1782
 6759TIP3   OH241835   1.389   6.477   7.758  0.9841 -0.3239 -0.1678
 6759TIP3    H141836   1.469   6.493   7.707  1.8859 -3.7502 -0.0837
 6759TIP3    H241837   1.403   6.391   7.799 -1.7152  0.0985  1.9774
 6760TIP3   OH241838   6.580   5.036   7.103  0.2245 -0.6659 -0.4478
 6760TIP3    H141839   6.535   5.016   7.185  2.1659  0.1029  0.8888
 6760TIP3    H241840   6.669   5.002   7.115  0.7614  0.1087 -1.9281
 6761TIP3   OH241841   5.060   0.545   1.736 -0.4016 -0.0002  0.2081
 6761TIP3    H141842   5.024   0.632   1.715 -0.6157 -0.7650 -3.1122
 6761TIP3    H241843   5.023   0.525   1.822 -3.7389  1.4859 -0.6967
 6762TIP3   OH241844   0.605   4.284   0.991 -0.2933  0.4827  0.0265
 6762TIP3    H141845   0.579   4.291   1.082 -1.2777  0.5695 -0.2514
 6762TIP3    H241846   0.698   4.263   0.994 -0.2176  0.9390  1.0348
 6763TIP3   OH241847   5.371   3.581   6.378  0.2032 -0.3841 -0.1828
 6763TIP3    H141848   5.355   3.509   6.439  0.1681 -0.3197 -0.1171
 6763TIP3    H241849   5.319   3.654   6.411 -0.6358 -0.6590 -0.8705
 6764TIP3   OH241850   6.899   4.757   1.382  0.2341  0.6099  0.4128
 6764TIP3    H141851   6.812   4.724   1.358  0.6260 -0.9237  0.9769
 6764TIP3    H241852   6.885   4.849   1.402 -1.3120  0.3499  0.6721
 6765TIP3   OH241853   0.236   5.410   8.499  0.1291 -0.8160  0.9737
 6765TIP3    H141854   0.205   5.430   8.588 -0.6229 -2.1028  1.0309
 6765TIP3    H241855   0.279   5.325   8.508  2.2995  0.1656  0.5612
 6766TIP3   OH241856   5.009   1.592   2.093  0.6362  0.3890 -0.1379
 6766TIP3    H141857   4.944   1.561   2.157 -0.9272  2.0802 -0.8283
 6766TIP3    H241858   5.083   1.619   2.146  0.8421 -1.5823  0.6811
 6767TIP3   OH241859   5.025   5.817   7.550  0.1362 -0.1474  0.0843
 6767TIP3    H141860   5.011   5.895   7.496 -1.3352 -1.5219 -1.6377
 6767TIP3    H241861   5.120   5.814   7.563  0.1566  2.5478  1.2700
 6768TIP3   OH241862   4.551   1.887   8.300 -0.0794  0.5233 -0.2569
 6768TIP3    H141863   4.630   1.939   8.315 -0.7376  1.5248 -0.2150
 6768TIP3    H241864   4.553   1.821   8.369 -0.0463  1.4756  0.6780
 6769TIP3   OH241865   1.019   0.767   7.546  0.3980 -0.0444  0.4808
 6769TIP3    H141866   1.075   0.814   7.484 -0.0874  0.4921  0.4428
 6769TIP3    H241867   1.062   0.682   7.557  0.8968  0.1367 -0.0050
 6770TIP3   OH241868   0.955   0.934   1.733  0.4176 -0.4772 -0.0643
 6770TIP3    H141869   0.876   0.954   1.784  1.3057  0.6529  0.9443
 6770TIP3    H241870   1.011   0.886   1.793 -0.1765 -2.8985 -1.3414
 6771TIP3   OH241871   1.568   1.182   8.443  0.0509 -0.4302  0.5165
 6771TIP3    H141872   1.637   1.206   8.381 -0.6922 -0.2605 -0.2699
 6771TIP3    H241873   1.614   1.166   8.525  1.0058 -0.1671  0.0506
 6772TIP3   OH241874   0.600   4.597   1.815  0.3926 -0.3405 -0.1559
 6772TIP3    H141875   0.526   4.582   1.874  0.2105  0.2365 -0.2330
 6772TIP3    H241876   0.672   4.547   1.854  0.6768  1.1567  1.3499
 6773TIP3   OH241877   2.301   0.923   2.285  0.3033  0.2949 -0.0272
 6773TIP3    H141878   2.214   0.913   2.324 -0.5493  1.9775 -1.3602
 6773TIP3    H241879   2.304   0.856   2.216 -0.4102  0.9231 -0.6957
 6774TIP3   OH241880   6.274   4.867   7.191  0.1154  0.0571 -0.1834
 6774TIP3    H141881   6.259   4.803   7.261 -1.3151 -0.2839 -0.7484
 6774TIP3    H241882   6.323   4.937   7.232  0.3158 -0.6708  0.8650
 6775TIP3   OH241883   2.579   0.688   7.959  0.3497  0.6669  0.2657
 6775TIP3    H141884   2.625   0.659   8.039  0.3632  3.3626  1.3378
 6775TIP3    H241885   2.629   0.764   7.929 -0.5965  0.6677 -1.4294
 6776TIP3   OH241886   4.658   5.288   1.640  0.3063  0.4140 -0.1351
 6776TIP3    H141887   4.644   5.226   1.568  0.9607  0.5182 -0.3547
 6776TIP3    H241888   4.584   5.349   1.634  0.2483  0.3016 -0.5939
 6777TIP3   OH241889   5.277   5.749   7.623  0.1281  0.1324  0.4776
 6777TIP3    H141890   5.355   5.783   7.578  0.8133 -0.1404  1.4361
 6777TIP3    H241891   5.286   5.779   7.713 -1.3099  0.7944  0.4279
 6778TIP3   OH241892   2.511   0.304   0.244  0.0959 -0.1983  0.3234
 6778TIP3    H141893   2.445   0.328   0.178  0.3858 -1.4168 -0.4292
 6778TIP3    H241894   2.580   0.370   0.234  1.3342 -1.7535 -2.3877
 6779TIP3   OH241895   4.230   0.779   6.931 -0.1419 -0.2247 -0.2835
 6779TIP3    H141896   4.242   0.870   6.959  0.4474 -0.0731 -1.0047
 6779TIP3    H241897   4.315   0.738   6.945  0.4140  0.0474 -2.4778
 6780TIP3   OH241898   6.566   0.596   7.778  0.3256 -0.1016  0.3484
 6780TIP3    H141899   6.654   0.620   7.750  0.4924  1.9803  2.3294
 6780TIP3    H241900   6.577   0.563   7.867 -0.7266 -1.6723 -0.0514
 6781TIP3   OH241901   6.114   4.760   6.723  0.8284 -0.4677 -0.3536
 6781TIP3    H141902   6.037   4.807   6.755 -0.2225 -1.3712 -1.4552
 6781TIP3    H241903   6.178   4.829   6.705 -0.2960  0.4637 -0.9383
 6782TIP3   OH241904   3.764   6.326   7.669 -0.3634  0.0820  0.3013
 6782TIP3    H141905   3.800   6.327   7.580 -1.0742 -1.4887 -0.0401
 6782TIP3    H241906   3.702   6.253   7.669  0.5305 -0.7574  2.4379
 6783TIP3   OH241907   5.944   2.726   2.160 -0.9481  0.1539 -0.1876
 6783TIP3    H141908   5.977   2.718   2.249 -0.8782 -0.1280 -0.2375
 6783TIP3    H241909   5.892   2.647   2.146  1.3612 -1.2991 -1.3652
 6784TIP3   OH241910   3.950   5.756   1.666 -0.2594 -0.2425  0.3890
 6784TIP3    H141911   3.946   5.682   1.605 -0.3945 -0.0743  0.1886
 6784TIP3    H241912   3.970   5.717   1.751 -2.6295 -0.7994  0.7723
 6785TIP3   OH241913   3.336   4.277   2.850 -0.5344  0.0283 -0.3581
 6785TIP3    H141914   3.379   4.238   2.773 -2.2995  0.5181 -1.6526
 6785TIP3    H241915   3.404   4.331   2.890  1.2282 -2.2756  0.0182
 6786TIP3   OH241916   6.725   3.402   0.546  0.1146  0.6193  0.6862
 6786TIP3    H141917   6.762   3.464   0.608  1.9393 -0.4895  0.7891
 6786TIP3    H241918   6.631   3.403   0.564  0.2688  2.3064  1.5961
 6787TIP3   OH241919   1.887   4.005   7.086 -0.0357  0.4341  0.0946
 6787TIP3    H141920   1.915   3.986   6.996 -0.1624 -2.3793  0.5657
 6787TIP3    H241921   1.793   4.023   7.077  0.2722  1.8955 -0.5017
 6788TIP3   OH241922   2.545   6.021   1.262 -0.2608  0.2263 -0.4068
 6788TIP3    H141923   2.596   6.070   1.326 -0.4804  1.7799 -1.3587
 6788TIP3    H241924   2.478   5.976   1.314 -0.0330  0.9229  0.5164
 6789TIP3   OH241925   3.944   5.469   0.344  0.4933 -0.2074  0.0340
 6789TIP3    H141926   3.909   5.402   0.403 -0.4175  0.0795 -0.1572
 6789TIP3    H241927   3.985   5.420   0.273  1.3536 -0.5577  0.7586
 6790TIP3   OH241928   0.982   4.256   2.294  0.1579  0.0292 -0.1837
 6790TIP3    H141929   0.957   4.187   2.356 -2.7150 -0.2590 -1.5223
 6790TIP3    H241930   1.048   4.216   2.239  0.3896 -0.7822  0.6581
 6791TIP3   OH241931   4.382   4.983   8.521 -0.3520 -0.5672  0.6045
 6791TIP3    H141932   4.471   4.950   8.511 -0.5383 -0.3561 -3.7453
 6791TIP3    H241933   4.393   5.076   8.541  0.4952 -0.3457 -0.7552
 6792TIP3   OH241934   5.341   1.634   8.220  0.1225 -0.4828 -0.7296
 6792TIP3    H141935   5.394   1.585   8.157 -0.3823 -0.4354 -1.2036
 6792TIP3    H241936   5.255   1.593   8.215  0.2258 -0.8445  0.3577
 6793TIP3   OH241937   0.132   4.784   7.173  0.8281 -0.4652 -0.8080
 6793TIP3    H141938   0.138   4.717   7.105 -1.0163 -1.6121  0.1019
 6793TIP3    H241939   0.096   4.739   7.249 -0.0392  1.4518 -0.0159
 6794TIP3   OH241940   0.514   5.210   1.477  0.2404 -0.4914  0.3677
 6794TIP3    H141941   0.594   5.177   1.518  1.1338  0.7404 -0.2929
 6794TIP3    H241942   0.450   5.213   1.548  1.4414  0.5801  1.4778
 6795TIP3   OH241943   2.618   1.459   0.201  0.2791  0.0949 -0.7787
 6795TIP3    H141944   2.683   1.470   0.133  0.8982  1.2162 -0.0487
 6795TIP3    H241945   2.663   1.414   0.272  0.5010  1.4282 -0.0186
 6796TIP3   OH241946   3.711   5.095   1.992 -0.4353  0.3776 -0.2170
 6796TIP3    H141947   3.770   5.020   1.997  0.4004  1.0034 -0.4932
 6796TIP3    H241948   3.698   5.121   2.083 -1.1697 -0.4271 -0.0793
 6797TIP3   OH241949   3.894   0.420   7.148 -0.3330  0.2660  0.6766
 6797TIP3    H141950   3.896   0.515   7.139 -1.3532  0.1710 -0.9187
 6797TIP3    H241951   3.849   0.405   7.232  1.1673  1.1648  1.7009
 6798TIP3   OH241952   4.318   6.579   7.820 -0.0832 -0.6377  0.6061
 6798TIP3    H141953   4.231   6.593   7.858 -0.2995  0.6550 -0.2747
 6798TIP3    H241954   4.379   6.607   7.888 -0.4698  1.9276  0.0034
 6799TIP3   OH241955   1.117   0.322   0.276  0.5898  0.2636  0.2854
 6799TIP3    H141956   1.147   0.339   0.366  1.4701  3.4003 -0.4713
 6799TIP3    H241957   1.195   0.335   0.222 -0.0943 -0.8208 -1.0343
 6800TIP3   OH241958   5.289   4.132   0.304 -0.6187 -0.2496  0.3653
 6800TIP3    H141959   5.260   4.212   0.258 -0.7589  0.3806  1.5082
 6800TIP3    H241960   5.356   4.163   0.365 -0.0819 -1.1519  0.2431
 6801TIP3   OH241961   4.452   4.089   7.733 -0.7307 -0.1384 -0.0040
 6801TIP3    H141962   4.472   4.093   7.639 -2.1471  1.1671 -0.2952
 6801TIP3    H241963   4.367   4.132   7.741 -1.6592 -2.1082  1.6204
 6802TIP3   OH241964   5.293   3.861   1.364 -0.3402  0.0834 -0.6402
 6802TIP3    H141965   5.213   3.819   1.333 -1.1209  1.1103 -0.0882
 6802TIP3    H241966   5.282   3.864   1.459 -0.3504  1.5603 -0.6650
 6803TIP3   OH241967   4.959   2.418   0.978 -0.1467 -0.1319  0.1711
 6803TIP3    H141968   5.005   2.501   0.976 -0.3119 -0.0016  1.0807
 6803TIP3    H241969   4.942   2.397   0.886 -3.1712  2.5509 -0.0574
 6804TIP3   OH241970   4.471   0.639   1.002 -0.7324  0.2554  1.1588
 6804TIP3    H141971   4.477   0.732   1.025  1.2474  0.3796  0.3396
 6804TIP3    H241972   4.465   0.639   0.906 -4.0627 -0.4165  1.2213
 6805TIP3   OH241973   5.423   6.228   0.707 -0.5290 -0.5962  0.2312
 6805TIP3    H141974   5.490   6.171   0.745 -0.2528  0.2116  1.0066
 6805TIP3    H241975   5.452   6.316   0.731 -1.8051 -0.2271  0.4609
 6806TIP3   OH241976   3.768   4.797   7.040 -0.5806  0.0896  0.7105
 6806TIP3    H141977   3.762   4.887   7.008 -1.4497  0.0104  0.6434
 6806TIP3    H241978   3.862   4.783   7.054 -0.4683  1.1557  1.1455
 6807TIP3   OH241979   3.580   4.349   1.052  0.3512  0.8798  0.1974
 6807TIP3    H141980   3.645   4.282   1.074  1.2981  2.4873  2.7273
 6807TIP3    H241981   3.611   4.386   0.969  1.4334  0.1786  0.2697
 6808TIP3   OH241982   3.880   5.101   7.240  0.5338  0.0262 -0.5766
 6808TIP3    H141983   3.789   5.073   7.233  0.4265  0.6130 -1.6379
 6808TIP3    H241984   3.875   5.195   7.258  0.9269  0.1915 -1.2935
 6809TIP3   OH241985   5.809   0.701   1.154  0.2151  0.4187 -0.4564
 6809TIP3    H141986   5.807   0.620   1.206 -0.6239  0.9094  0.3015
 6809TIP3    H241987   5.899   0.733   1.162  0.3729 -0.0811 -0.1973
 6810TIP3   OH241988   0.148   4.730   8.006  0.4306  0.6446  0.7871
 6810TIP3    H141989   0.057   4.758   7.990 -0.1225 -1.1247  0.6784
 6810TIP3    H241990   0.190   4.738   7.920  0.1486  0.6330  0.6448
 6811TIP3   OH241991   2.445   1.259   2.140 -0.2926  0.2868 -0.3058
 6811TIP3    H141992   2.358   1.252   2.100 -0.2577 -1.3350 -0.1627
 6811TIP3    H241993   2.450   1.350   2.170 -1.5641  0.6643 -1.1433
 6812TIP3   OH241994   2.717   2.341   0.502 -0.1605 -0.3039  0.1307
 6812TIP3    H141995   2.772   2.310   0.431 -0.4207  0.6158 -0.4942
 6812TIP3    H241996   2.659   2.267   0.522 -2.6231  0.4830 -3.1493
 6813TIP3   OH241997   4.023   3.046   6.968  0.2681  0.2713  0.2967
 6813TIP3    H141998   3.960   3.110   6.935 -0.2263  0.2863  1.2328
 6813TIP3    H241999   4.096   3.050   6.906 -0.0943  1.1676 -0.0888
 6814TIP3   OH242000   0.455   2.816   0.316 -0.8034  0.1398  0.3977
 6814TIP3    H142001   0.531   2.851   0.270 -1.0777  0.3096  0.0660
 6814TIP3    H242002   0.490   2.781   0.398 -0.3340 -0.0298  0.1274
 6815TIP3   OH242003   5.158   3.326   8.540 -0.0377  0.4686 -0.0734
 6815TIP3    H142004   5.229   3.383   8.507 -0.8124  0.9937 -0.8707
 6815TIP3    H242005   5.151   3.257   8.475  1.3937 -1.0202  1.2549
 6816TIP3   OH242006   2.178   0.809   8.408  0.0911  0.1049  0.1958
 6816TIP3    H142007   2.139   0.787   8.323  0.2786  1.4756 -0.2716
 6816TIP3    H242008   2.272   0.818   8.390  0.0233  1.2902  0.3296
 6817TIP3   OH242009   1.837   3.674   7.690  0.4655 -0.4418  0.0855
 6817TIP3    H142010   1.812   3.620   7.765  2.8266  0.3972  1.5725
 6817TIP3    H242011   1.908   3.625   7.648  2.7658  1.4022  1.5585
 6818TIP3   OH242012   0.596   1.368   1.440 -0.3769  0.7427 -0.4160
 6818TIP3    H142013   0.666   1.426   1.471 -1.0992  1.2017  0.4071
 6818TIP3    H242014   0.628   1.280   1.458  0.0951  0.9377 -0.2793
 6819TIP3   OH242015   3.060   4.228   0.951  0.4393 -0.2195  0.1972
 6819TIP3    H142016   3.139   4.255   0.998 -0.8519  2.3149  1.0479
 6819TIP3    H242017   3.077   4.253   0.860  0.5437  0.5283  0.4141
 6820TIP3   OH242018   0.970   0.554   0.341  0.4872 -0.0197 -0.3504
 6820TIP3    H142019   1.027   0.479   0.324  2.0516  1.2087 -0.7673
 6820TIP3    H242020   0.925   0.570   0.258  1.2101  0.3418 -0.6797
 6821TIP3   OH242021   0.134   0.531   2.075  0.2732  0.1613  0.1510
 6821TIP3    H142022   0.226   0.513   2.096  0.5461  1.9043  0.6277
 6821TIP3    H242023   0.107   0.457   2.020  0.7712 -2.4518  3.1481
 6822TIP3   OH242024   1.713   1.739   1.773  0.6986 -0.0102 -0.0437
 6822TIP3    H142025   1.662   1.791   1.712  0.1807 -1.3687 -0.8201
 6822TIP3    H242026   1.680   1.762   1.859  0.3602  0.7988 -0.3862
 6823TIP3   OH242027   4.693   4.122   1.760  0.0848  0.7149  0.7673
 6823TIP3    H142028   4.785   4.100   1.776  0.0990 -0.8248 -1.0358
 6823TIP3    H242029   4.665   4.167   1.839  1.7234 -0.9048  2.3756
 6824TIP3   OH242030   3.288   3.378   8.051  0.4509  0.0008 -0.0977
 6824TIP3    H142031   3.375   3.357   8.083  0.3492 -1.1151 -0.5220
 6824TIP3    H242032   3.276   3.323   7.974 -0.0122  1.3125 -1.0113
 6825TIP3   OH242033   1.151   0.652   7.950  0.6428 -0.0416 -0.4613
 6825TIP3    H142034   1.065   0.691   7.965  0.3296 -0.7458 -0.3974
 6825TIP3    H242035   1.201   0.720   7.905 -0.4007 -0.1258 -1.7979
 6826TIP3   OH242036   6.506   3.867   2.009 -0.4881 -0.0022  0.2511
 6826TIP3    H142037   6.485   3.890   2.100  0.5434  0.0628  0.4933
 6826TIP3    H242038   6.436   3.906   1.957 -1.6008 -0.8429  1.0830
 6827TIP3   OH242039   3.022   2.476   6.935  0.6204 -0.0032 -0.5984
 6827TIP3    H142040   3.117   2.467   6.928  1.0050  0.4639  2.5659
 6827TIP3    H242041   3.009   2.562   6.977 -1.0655 -0.8469  0.7330
 6828TIP3   OH242042   4.751   0.329   7.198  0.1632  0.2997 -0.0673
 6828TIP3    H142043   4.838   0.344   7.161  0.4640  0.7351  0.7629
 6828TIP3    H242044   4.717   0.254   7.151 -0.2988  1.9669 -2.5865
 6829TIP3   OH242045   0.723   1.320   7.492 -0.4290  0.0894  0.4365
 6829TIP3    H142046   0.677   1.387   7.542 -0.8819  0.3430 -0.3088
 6829TIP3    H242047   0.794   1.292   7.550 -0.7075  0.6494  1.0650
 6830TIP3   OH242048   3.873   4.235   8.381 -0.0876  0.0378  0.1610
 6830TIP3    H142049   3.881   4.176   8.456  1.1259 -0.3889 -0.2911
 6830TIP3    H242050   3.795   4.204   8.334 -0.7849  0.2343  1.1631
 6831TIP3   OH242051   5.266   2.754   1.942 -0.0086 -0.8597  0.1842
 6831TIP3    H142052   5.260   2.660   1.924 -0.4298 -0.8412  0.2364
 6831TIP3    H242053   5.201   2.794   1.885  0.2858 -0.5794  0.0369
 6832TIP3   OH242054   2.882   3.087   1.432  0.0526 -0.8377 -0.0443
 6832TIP3    H142055   2.873   3.125   1.345 -0.6162 -0.9857 -0.0498
 6832TIP3    H242056   2.974   3.101   1.456 -0.0820  0.4146 -0.2124
 6833TIP3   OH242057   3.645   6.709   1.117  0.1704  0.4189 -0.5889
 6833TIP3    H142058   3.691   6.633   1.152 -0.5479 -0.3578 -1.2688
 6833TIP3    H242059   3.642   6.771   1.190 -0.9287 -0.9870  0.6299
 6834TIP3   OH242060   1.119   6.802   2.007 -0.5463  0.1610 -0.2105
 6834TIP3    H142061   1.066   6.750   2.067 -2.1774  0.4709 -1.3156
 6834TIP3    H242062   1.196   6.748   1.989 -0.3869 -0.2446  1.5541
 6835TIP3   OH242063   1.420   2.463   8.082 -0.1369 -0.0136 -0.2406
 6835TIP3    H142064   1.488   2.531   8.081 -0.4312  0.2952 -1.7135
 6835TIP3    H242065   1.338   2.511   8.069 -0.2139 -0.7256 -2.9086
 6836TIP3   OH242066   2.274   3.673   7.545  0.4900  0.2852  0.7811
 6836TIP3    H142067   2.227   3.736   7.490 -2.9626 -1.7315  1.1647
 6836TIP3    H242068   2.321   3.727   7.609  2.6964  2.5993 -2.4397
 6837TIP3   OH242069   6.231   4.161   2.085 -0.2161  0.4849 -0.5596
 6837TIP3    H142070   6.188   4.078   2.104  0.7246  0.3369  1.1347
 6837TIP3    H242071   6.195   4.222   2.149 -0.2538  1.1718 -1.2246
 6838TIP3   OH242072   1.437   4.119   1.769 -0.2414  0.0000  0.2081
 6838TIP3    H142073   1.350   4.145   1.739 -0.0719 -0.1810 -0.4480
 6838TIP3    H242074   1.442   4.026   1.749  0.1972  0.0644  0.0185
 6839TIP3   OH242075   3.771   5.485   0.930 -0.1169 -0.1025 -0.0854
 6839TIP3    H142076   3.806   5.426   0.996 -1.2671 -0.0870  0.5777
 6839TIP3    H242077   3.676   5.474   0.936 -0.3991  2.0660  0.3404
 6840TIP3   OH242078   6.066   2.975   2.172 -0.3286  0.0036  0.5796
 6840TIP3    H142079   6.023   2.891   2.156 -2.9885  0.8497  2.6362
 6840TIP3    H242080   6.017   3.038   2.119  0.5197  0.5412  0.4127
 6841TIP3   OH242081   1.614   4.355   7.990 -0.1507 -0.2120  0.1688
 6841TIP3    H142082   1.525   4.385   7.977 -0.5325 -1.6592 -0.8156
 6841TIP3    H242083   1.648   4.409   8.062 -0.8896  2.2165 -1.2112
 6842TIP3   OH242084   0.232   2.543   7.310  0.0227 -0.6995 -0.2464
 6842TIP3    H142085   0.229   2.638   7.312 -0.5180 -0.7153  0.3647
 6842TIP3    H242086   0.144   2.517   7.282 -0.5677 -1.0320  1.7277
 6843TIP3   OH242087   5.697   4.606   8.005  0.1032 -0.6332 -0.3557
 6843TIP3    H142088   5.657   4.684   7.968 -0.4213 -0.5486  0.3754
 6843TIP3    H242089   5.675   4.536   7.943 -1.3692 -0.6278  0.1314
 6844TIP3   OH242090   2.988   2.506   1.627  0.5987 -0.3377 -0.7710
 6844TIP3    H142091   3.038   2.501   1.545  1.2616  0.7888 -0.4490
 6844TIP3    H242092   3.028   2.439   1.683 -0.4239 -1.7330 -1.6353
 6845TIP3   OH242093   1.549   3.187   7.048  0.1524  0.2846  0.1000
 6845TIP3    H142094   1.593   3.266   7.079  3.1325 -1.5632  0.9637
 6845TIP3    H242095   1.556   3.192   6.953 -0.2577  1.3483  0.1148
 6846TIP3   OH242096   6.234   6.126   1.670 -0.1729  0.1007 -0.1404
 6846TIP3    H142097   6.289   6.183   1.617  0.7563  0.1607  0.8566
 6846TIP3    H242098   6.251   6.154   1.760 -0.3607 -1.1756  0.3033
 6847TIP3   OH242099   3.755   4.227   0.705 -0.4194  0.1622 -0.0793
 6847TIP3    H142100   3.729   4.147   0.750 -0.6045  0.7259  0.8343
 6847TIP3    H242101   3.841   4.247   0.740 -0.1011  0.0399 -0.7634
 6848TIP3   OH242102   1.403   5.515   1.625 -0.0657  0.6378  0.3134
 6848TIP3    H142103   1.368   5.545   1.541 -0.5232 -0.3045  0.1509
 6848TIP3    H242104   1.449   5.591   1.660 -1.0306  1.4732 -0.1610
 6849TIP3   OH242105   4.704   4.085   8.422  0.1882 -0.4791  0.0287
 6849TIP3    H142106   4.789   4.087   8.466 -0.4033 -1.0451  1.2451
 6849TIP3    H242107   4.683   3.992   8.414 -0.3662 -0.3426 -0.1781
 6850TIP3   OH242108   3.993   0.706   7.060 -0.5219 -0.7119 -0.4019
 6850TIP3    H142109   3.956   0.794   7.059 -1.2793 -0.9974  0.8197
 6850TIP3    H242110   4.078   0.715   7.016 -0.1707  0.8158  0.5335
 6851TIP3   OH242111   1.304   6.840   0.086 -0.2678 -0.4879 -0.2020
 6851TIP3    H142112   1.234   6.795   0.133  0.4356 -0.9344  0.4471
 6851TIP3    H242113   1.262   6.878   0.009 -1.1909 -0.8522  0.1180
 6852TIP3   OH242114   2.293   0.771   7.888  0.1729  0.9706 -0.7553
 6852TIP3    H142115   2.282   0.689   7.840  0.2165  1.0205 -0.8512
 6852TIP3    H242116   2.379   0.764   7.928  0.5727  1.3541 -1.5189
 6853TIP3   OH242117   5.266   4.348   1.722  0.0415 -0.4328  0.1996
 6853TIP3    H142118   5.237   4.285   1.657 -0.6820 -0.7011  0.7641
 6853TIP3    H242119   5.245   4.434   1.685  4.7692 -0.0916 -2.5132
 6854TIP3   OH242120   5.987   4.107   8.205  0.5237  0.3425 -0.0603
 6854TIP3    H142121   6.022   4.081   8.120 -0.2359  2.2675 -1.0172
 6854TIP3    H242122   5.968   4.201   8.196 -0.5778  0.3641  1.8886
 6855TIP3   OH242123   1.863   0.544   8.064 -0.5061 -0.1263 -0.0205
 6855TIP3    H142124   1.840   0.511   8.150 -1.9272  1.0240  0.0843
 6855TIP3    H242125   1.872   0.639   8.076  2.8979 -0.2859 -0.4123
 6856TIP3   OH242126   2.726   3.221   7.842 -0.2080 -0.3671  0.7993
 6856TIP3    H142127   2.678   3.249   7.921 -2.6456  1.2511 -1.0752
 6856TIP3    H242128   2.680   3.142   7.813  0.2245 -0.5520  0.6143
 6857TIP3   OH242129   5.406   0.932   1.886 -0.0254  0.2008 -0.0266
 6857TIP3    H142130   5.426   1.013   1.933  1.1052  0.0807 -0.2688
 6857TIP3    H242131   5.491   0.903   1.852 -0.6834 -0.1426 -1.4421
 6858TIP3   OH242132   3.173   3.678   3.665 -0.0664 -0.1875 -0.0721
 6858TIP3    H142133   3.193   3.648   3.576 -1.9161 -1.4002 -0.1307
 6858TIP3    H242134   3.078   3.668   3.673  0.1030 -0.5516  2.1816
 6859TIP3   OH242135   6.865   0.000   8.421 -0.0401  0.3720  0.6223
 6859TIP3    H142136   6.876  -0.073   8.359 -1.2960 -0.6189  1.5184
 6859TIP3    H242137   6.882  -0.038   8.507 -2.6650  0.5598  1.3171
 6860TIP3   OH242138   1.335   0.144   1.968  0.3629  0.2758  0.2012
 6860TIP3    H142139   1.376   0.117   2.050  0.3214  0.9016  0.4353
 6860TIP3    H242140   1.261   0.084   1.957  0.0156  0.5563  0.9267
 6861TIP3   OH242141   1.974   4.050   0.526  0.2630  0.3265 -0.0902
 6861TIP3    H142142   2.002   3.961   0.546 -1.6035 -0.1397  0.6736
 6861TIP3    H242143   1.980   4.096   0.611  2.2820  1.3003 -0.6836
 6862TIP3   OH242144   1.363   2.692   7.441  0.4302  0.1999  0.5402
 6862TIP3    H142145   1.425   2.681   7.368 -0.9774 -1.5776 -0.4784
 6862TIP3    H242146   1.300   2.757   7.409 -0.3812 -0.8285 -0.0222
 6863TIP3   OH242147   3.883   5.328   6.970  0.2943  0.5016  0.3819
 6863TIP3    H142148   3.965   5.285   6.948  0.6009  0.3561  1.6875
 6863TIP3    H242149   3.817   5.258   6.964  0.6979 -0.0461  1.9064
 6864TIP3   OH242150   2.679   4.740   2.478  0.2862 -0.6850  0.5154
 6864TIP3    H142151   2.644   4.829   2.471 -0.0172 -0.8222  0.2750
 6864TIP3    H242152   2.637   4.692   2.406  0.5359 -0.9931  0.5728
 6865TIP3   OH242153   3.734   5.971   1.680 -0.0223 -0.4362  0.5405
 6865TIP3    H142154   3.793   5.897   1.668 -0.5760 -0.5370 -2.1825
 6865TIP3    H242155   3.680   5.947   1.756  0.2105 -2.5655  0.0891
 6866TIP3   OH242156   5.886   3.548   7.477  0.0032  0.0200  0.3026
 6866TIP3    H142157   5.910   3.461   7.511 -2.0177  0.2718  2.6736
 6866TIP3    H242158   5.956   3.570   7.416 -0.0261 -3.8083 -1.4162
 6867TIP3   OH242159   3.604   5.366   6.662  0.3764  0.1116 -0.0760
 6867TIP3    H142160   3.619   5.403   6.749 -0.2335  1.1051 -0.3848
 6867TIP3    H242161   3.574   5.277   6.679 -2.4224  1.1459  0.8683
 6868TIP3   OH242162   2.645   4.347   6.884  0.4213 -0.1618  0.1654
 6868TIP3    H142163   2.558   4.316   6.860  0.4559 -0.5939  0.5766
 6868TIP3    H242164   2.629   4.426   6.934  0.4055  1.8244 -2.7228
 6869TIP3   OH242165   2.191   2.238   8.541  0.4889  0.1474 -0.3945
 6869TIP3    H142166   2.285   2.258   8.536  1.1410 -1.8279  2.2267
 6869TIP3    H242167   2.150   2.321   8.567  1.8995  0.4166  1.1369
 6870TIP3   OH242168   6.511   6.284   6.867 -0.2375  0.4064 -0.2933
 6870TIP3    H142169   6.423   6.319   6.878 -0.7138 -0.5988 -0.8285
 6870TIP3    H242170   6.512   6.204   6.920  0.2562  0.2591 -0.5165
 6871TIP3   OH242171   2.112   2.078   1.197 -0.4957 -0.0901 -0.8177
 6871TIP3    H142172   2.098   2.043   1.285  1.0879 -0.6972 -0.7705
 6871TIP3    H242173   2.050   2.151   1.190 -1.9198 -1.1528  0.1129
 6872TIP3   OH242174   3.773   6.565   0.342  0.4213 -0.1990 -0.1035
 6872TIP3    H142175   3.791   6.616   0.422 -0.0150  0.5105 -0.4463
 6872TIP3    H242176   3.698   6.609   0.302  1.3011  0.1217 -1.4748
 6873TIP3   OH242177   2.188   2.172   0.407  0.0378  1.0771 -0.3119
 6873TIP3    H142178   2.263   2.143   0.355 -1.3229 -2.6315 -0.5327
 6873TIP3    H242179   2.150   2.244   0.357 -1.3372 -2.3826 -4.9824
 6874TIP3   OH242180   5.151   0.014   0.055 -0.1563  0.0111  0.2709
 6874TIP3    H142181   5.152   0.008  -0.041 -0.0285 -1.3850  0.3460
 6874TIP3    H242182   5.204   0.092   0.074  0.6410 -0.2486 -0.7707
 6875TIP3   OH242183   2.899   1.114   7.061 -0.1811  0.3480  0.6413
 6875TIP3    H142184   2.990   1.105   7.091  1.1091  3.4075 -1.7773
 6875TIP3    H242185   2.904   1.104   6.966 -2.7844 -1.2847  0.5653
 6876TIP3   OH242186   6.795   5.352   7.331  0.2362 -0.2547 -0.0910
 6876TIP3    H142187   6.887   5.341   7.310  0.4295  0.0056  0.5935
 6876TIP3    H242188   6.753   5.368   7.247  0.8147 -0.3397 -0.4029
 6877TIP3   OH242189   2.513   1.510   2.252  0.2460 -0.3226 -0.7571
 6877TIP3    H142190   2.571   1.526   2.178  0.6481  1.4363 -0.0989
 6877TIP3    H242191   2.437   1.565   2.237  0.7835  0.8554  0.5987
 6878TIP3   OH242192   2.237   0.070   1.035 -0.5202  0.0743  0.3107
 6878TIP3    H142193   2.152   0.027   1.026 -1.0905  1.3094 -0.4921
 6878TIP3    H242194   2.239   0.134   0.964  1.4188 -0.4513 -0.1662
 6879TIP3   OH242195   3.592   0.684   6.615  0.4192  0.3532  0.5339
 6879TIP3    H142196   3.569   0.768   6.576 -0.0318 -0.3431 -0.7758
 6879TIP3    H242197   3.618   0.705   6.705  1.2483  1.9865 -0.0546
 6880TIP3   OH242198   3.670   2.478   0.939 -0.5349  0.3664  0.0091
 6880TIP3    H142199   3.683   2.433   1.023  2.2010  0.3259 -0.3476
 6880TIP3    H242200   3.719   2.427   0.876  0.3436  2.2788 -0.9469
 6881TIP3   OH242201   3.305   0.272   0.158  0.3308 -0.5714  0.0319
 6881TIP3    H142202   3.335   0.350   0.205 -0.7634  0.1825 -0.4938
 6881TIP3    H242203   3.299   0.204   0.225 -0.3522  0.2515  0.8152
 6882TIP3   OH242204   3.272   0.143   6.991  0.0698 -0.4271  0.3006
 6882TIP3    H142205   3.272   0.230   7.032  0.1228  1.4478 -3.2455
 6882TIP3    H242206   3.179   0.120   6.984  0.0706 -0.8601  1.5897
 6883TIP3   OH242207   6.883   2.915   8.204 -0.6761 -0.3741 -0.5619
 6883TIP3    H142208   6.893   2.824   8.176 -1.6035 -0.7097  0.1396
 6883TIP3    H242209   6.875   2.965   8.123  1.2516 -0.7081 -1.0184
 6884TIP3   OH242210   3.023   3.565   6.597  0.0798 -0.3179 -0.4860
 6884TIP3    H142211   2.996   3.618   6.673  0.1192 -0.1155 -0.6121
 6884TIP3    H242212   2.972   3.600   6.524  2.1347  1.4754 -1.1763
 6885TIP3   OH242213   2.891   2.910   7.737  0.3984 -0.0594  0.2532
 6885TIP3    H142214   2.921   2.980   7.680  0.8519 -0.1624  0.3593
 6885TIP3    H242215   2.798   2.902   7.719 -0.3620  2.6038  2.3521
 6886TIP3   OH242216   2.736   0.917   0.613  0.1237  0.0805 -0.4517
 6886TIP3    H142217   2.665   0.915   0.678  0.6351 -3.0882  0.1654
 6886TIP3    H242218   2.803   0.972   0.653 -0.7419  0.5576  0.3947
 6887TIP3   OH242219   4.082   2.129   8.174  0.3688 -0.5611 -0.2686
 6887TIP3    H142220   4.162   2.087   8.203  0.7135 -0.5385 -1.1381
 6887TIP3    H242221   4.102   2.223   8.175 -0.5234 -0.3222  2.0431
 6888TIP3   OH242222   6.785   4.031   7.758 -0.0008  0.2574 -0.3879
 6888TIP3    H142223   6.792   4.118   7.799 -1.7348  0.3563 -0.2285
 6888TIP3    H242224   6.697   4.029   7.722 -0.0912 -1.5586 -0.1525
 6889TIP3   OH242225   4.523   6.149   7.044  0.2377 -0.3013  0.7507
 6889TIP3    H142226   4.602   6.098   7.062  1.1496  0.2698 -1.3590
 6889TIP3    H242227   4.555   6.234   7.015 -1.2159  0.6182  1.6759
 6890TIP3   OH242228   4.740   3.164   2.521 -0.1991  0.2498 -0.1605
 6890TIP3    H142229   4.785   3.087   2.487  0.1977  0.6352 -0.5243
 6890TIP3    H242230   4.664   3.129   2.568  0.8921 -0.4684  1.1585
 6891TIP3   OH242231   3.150   4.012   7.509 -0.0408 -0.1614 -0.6078
 6891TIP3    H142232   3.229   3.985   7.462  1.1092 -0.0341  1.1612
 6891TIP3    H242233   3.141   4.105   7.490 -0.4149 -0.4043 -1.6882
 6892TIP3   OH242234   6.213   1.465   0.433  0.0783  0.1315 -0.0400
 6892TIP3    H142235   6.182   1.553   0.414 -1.5677  0.0921  2.1252
 6892TIP3    H242236   6.227   1.464   0.528  1.7874 -1.4449 -0.2497
 6893TIP3   OH242237   1.512   0.105   7.823 -0.5679  0.0372 -0.7039
 6893TIP3    H142238   1.511   0.101   7.918 -1.5230 -1.2693 -0.7377
 6893TIP3    H242239   1.422   0.087   7.797  0.0975 -1.8549 -1.9041
 6894TIP3   OH242240   4.363   2.585   8.238  0.3918  0.0866 -0.1164
 6894TIP3    H142241   4.449   2.593   8.198  0.6960 -1.0995  0.2480
 6894TIP3    H242242   4.378   2.599   8.332  0.2847 -0.6211  0.0132
 6895TIP3   OH242243   4.258   5.973   7.214 -0.1317 -0.4930  0.7147
 6895TIP3    H142244   4.182   6.024   7.243 -1.4648 -2.1876  0.3397
 6895TIP3    H242245   4.290   5.932   7.294 -1.0363 -1.5770  0.5440
 6896TIP3   OH242246   2.574   4.718   2.203 -0.1425 -0.4457  0.1465
 6896TIP3    H142247   2.626   4.798   2.209  0.2985 -0.7532  0.5792
 6896TIP3    H242248   2.630   4.657   2.155 -0.0783 -0.7865  0.6383
 6897TIP3   OH242249   2.021   2.031   1.694  0.8403 -0.1551 -0.4441
 6897TIP3    H142250   1.958   2.098   1.666 -0.7258 -0.4563  2.0547
 6897TIP3    H242251   2.069   2.072   1.766  0.4716 -1.3539  0.5241
 6898TIP3   OH242252   6.179   4.042   1.579  0.1739  0.7353  0.3142
 6898TIP3    H142253   6.156   4.068   1.668 -1.8451  0.1248  0.0233
 6898TIP3    H242254   6.204   3.950   1.587 -0.8101  0.4415  0.1610
 6899TIP3   OH242255   1.704   1.977   0.271  0.0294 -0.4756 -0.0408
 6899TIP3    H142256   1.737   2.060   0.238  0.9058 -0.8582 -0.1371
 6899TIP3    H242257   1.611   1.977   0.245  0.0038  0.4808  0.0021
 6900TIP3   OH242258   3.560   1.066   1.955 -0.0089  0.7716 -0.6038
 6900TIP3    H142259   3.488   1.008   1.981 -0.0460  1.2727  0.4772
 6900TIP3    H242260   3.639   1.015   1.972 -0.0766  0.5898 -0.8313
 6901TIP3   OH242261   3.934   4.677   7.724  0.6165  0.0114  0.1080
 6901TIP3    H142262   3.957   4.648   7.635 -0.8255 -0.8435 -0.0364
 6901TIP3    H242263   3.896   4.599   7.765 -1.0238  1.0146  0.6167
 6902TIP3   OH242264   5.244   5.318   0.137  0.1108  0.0643  0.0227
 6902TIP3    H142265   5.320   5.377   0.140  0.1323  0.0161  0.4113
 6902TIP3    H242266   5.183   5.361   0.077 -0.3057  0.9947  1.0740
 6903TIP3   OH242267   6.509   4.333   0.035  0.4653  0.0045 -0.0971
 6903TIP3    H142268   6.547   4.245   0.032  0.8872  0.1943 -2.0397
 6903TIP3    H242269   6.575   4.389  -0.006 -0.8178  0.7678 -1.2391
 6904TIP3   OH242270   2.461   0.937   1.703 -0.2531  0.0438 -0.2134
 6904TIP3    H142271   2.521   0.994   1.751  0.3840  0.9488 -1.9940
 6904TIP3    H242272   2.376   0.980   1.710 -0.1701  0.1479  0.1468
 6905TIP3   OH242273   0.852   5.472   2.068  0.8506  0.3278 -0.4300
 6905TIP3    H142274   0.763   5.505   2.076  1.1546  1.1987 -0.5777
 6905TIP3    H242275   0.891   5.487   2.155  0.2685 -1.9036  0.3041
 6906TIP3   OH242276   1.031   3.558   1.680  0.5386  0.2558 -0.5486
 6906TIP3    H142277   0.957   3.546   1.740  0.4662 -2.0489 -1.0228
 6906TIP3    H242278   1.089   3.620   1.726 -1.2406  1.4485  0.2074
 6907TIP3   OH242279   0.632   5.689   1.399 -0.9687  0.0523  0.1976
 6907TIP3    H142280   0.651   5.684   1.493  1.7079 -0.9776 -0.2966
 6907TIP3    H242281   0.601   5.601   1.377 -2.7012  0.6077  0.2579
 6908TIP3   OH242282   3.626   4.863   8.493  0.5026  0.6595 -0.0547
 6908TIP3    H142283   3.565   4.870   8.420 -0.4670  1.6057  0.8200
 6908TIP3    H242284   3.702   4.915   8.466  0.7934 -0.2181 -0.9912
 6909TIP3   OH242285   0.974   3.907   0.482 -0.1934  0.4135  0.2406
 6909TIP3    H142286   0.905   3.857   0.438  0.6061  0.0423 -0.6224
 6909TIP3    H242287   1.025   3.945   0.411 -0.0350  1.4215  0.8857
 6910TIP3   OH242288   2.249   1.517   8.085 -0.5239  0.1909 -0.6121
 6910TIP3    H142289   2.234   1.611   8.070 -0.2429  0.3636  0.1730
 6910TIP3    H242290   2.314   1.514   8.154  1.6905 -0.5546 -2.6071
 6911TIP3   OH242291   3.762   0.504   0.601  0.2380  0.0955 -0.0437
 6911TIP3    H142292   3.667   0.507   0.607  0.1631 -0.0060 -1.0094
 6911TIP3    H242293   3.791   0.593   0.619 -0.1837  0.6102 -1.7683
 6912TIP3   OH242294   1.007   5.173   7.935  0.6036 -0.6523  0.6233
 6912TIP3    H142295   1.088   5.160   7.887 -2.0452 -2.6200 -4.0109
 6912TIP3    H242296   0.994   5.268   7.936  2.0462 -0.4265 -0.2339
 6913TIP3   OH242297   4.748   5.406   7.210 -0.5375 -0.0811 -0.0507
 6913TIP3    H142298   4.767   5.323   7.253  1.3400  0.2341 -0.2069
 6913TIP3    H242299   4.832   5.452   7.207 -0.8048  0.4137 -2.9923
 6914TIP3   OH242300   6.238   6.843   1.272  0.0714  0.5236 -0.7617
 6914TIP3    H142301   6.310   6.801   1.224  0.8555  0.9220  0.0246
 6914TIP3    H242302   6.200   6.905   1.210  1.2103  1.1973 -0.8163
 6915TIP3   OH242303   4.118   0.338   6.887 -0.6308  0.5059 -0.2753
 6915TIP3    H142304   4.067   0.379   6.957 -1.8810 -0.5615 -0.5174
 6915TIP3    H242305   4.053   0.318   6.819  0.5721  1.6879 -1.8573
 6916TIP3   OH242306   5.111   3.997   7.379 -0.3875  0.5426 -0.6793
 6916TIP3    H142307   5.079   4.012   7.468  0.6863  0.7447 -0.3066
 6916TIP3    H242308   5.048   4.041   7.323 -1.3956 -0.0761 -0.0645
 6917TIP3   OH242309   5.480   2.429   8.133 -0.2013  0.5988  0.2526
 6917TIP3    H142310   5.500   2.503   8.190  2.5834 -0.3325  0.6565
 6917TIP3    H242311   5.436   2.365   8.190 -1.3013  1.3369  0.2545
 6918TIP3   OH242312   0.397   3.527   6.769  0.0492  0.3692 -0.3812
 6918TIP3    H142313   0.436   3.516   6.682  1.1339 -0.5104  0.1781
 6918TIP3    H242314   0.318   3.578   6.754  1.0177  1.5608 -1.6862
 6919TIP3   OH242315   5.583   6.276   7.837  0.8514  0.2343 -0.5353
 6919TIP3    H142316   5.562   6.191   7.875  0.7187 -0.1067 -1.3434
 6919TIP3    H242317   5.573   6.263   7.743 -1.8443  1.8606 -0.5582
 6920TIP3   OH242318   6.103   1.780   8.010 -0.6791 -0.2157  0.6880
 6920TIP3    H142319   6.019   1.737   8.024 -1.7014  1.2771 -0.6247
 6920TIP3    H242320   6.112   1.786   7.915 -0.1058  1.5254  0.8160
 6921TIP3   OH242321   1.771   4.339   8.482  0.3197 -0.4072 -0.8582
 6921TIP3    H142322   1.849   4.366   8.433  1.3827 -0.1878  0.8645
 6921TIP3    H242323   1.740   4.419   8.525 -0.0461 -0.7506 -0.4730
 6922TIP3   OH242324   3.264   5.870   6.705 -0.2504 -0.3880  0.2408
 6922TIP3    H142325   3.344   5.918   6.727 -0.2180  0.1356 -0.9064
 6922TIP3    H242326   3.202   5.894   6.773  0.3879 -0.3131  0.8049
 6923TIP3   OH242327   3.654   2.127   6.720  0.2342  0.3446 -0.3715
 6923TIP3    H142328   3.728   2.066   6.717  0.4481  0.5598  0.3869
 6923TIP3    H242329   3.654   2.168   6.633 -0.4372 -1.3402 -1.2050
 6924TIP3   OH242330   3.220   0.722   7.151 -0.1902 -0.4042 -0.2606
 6924TIP3    H142331   3.247   0.724   7.059 -1.6944 -1.1440 -0.7422
 6924TIP3    H242332   3.257   0.803   7.187 -1.4445  1.0727 -2.0776
 6925TIP3   OH242333   1.448   3.616   0.212 -0.0153  0.3631  0.4442
 6925TIP3    H142334   1.470   3.527   0.238 -0.3448 -0.1599 -0.9857
 6925TIP3    H242335   1.420   3.658   0.294  1.1581 -0.5059  1.3308
 6926TIP3   OH242336   4.605   0.963   7.056 -0.0610 -0.3854 -0.5807
 6926TIP3    H142337   4.514   0.965   7.026 -0.0927 -3.1847 -0.9426
 6926TIP3    H242338   4.656   0.977   6.976 -0.1681 -0.9175 -0.7435
 6927TIP3   OH242339   4.232   2.659   6.436 -0.4957 -0.5300 -0.0700
 6927TIP3    H142340   4.242   2.595   6.507  1.8734 -0.8562 -0.6155
 6927TIP3    H242341   4.295   2.728   6.458  0.4598 -0.7556 -1.9581
 6928TIP3   OH242342   3.365   4.037   2.266  0.3342 -0.3624 -0.0167
 6928TIP3    H142343   3.405   4.106   2.212  0.3974 -0.4262 -0.0527
 6928TIP3    H242344   3.290   4.007   2.215  0.8584 -0.9799 -0.4483
 6929TIP3   OH242345   3.600   4.333   8.007  0.6849  0.2143 -0.0366
 6929TIP3    H142346   3.607   4.379   8.091 -3.3698 -0.3336  0.8151
 6929TIP3    H242347   3.509   4.347   7.979  1.0264 -2.1277 -2.8601
 6930TIP3   OH242348   4.146   0.274   0.345  0.0497 -0.1510 -0.3209
 6930TIP3    H142349   4.114   0.283   0.434  0.9448  1.3437 -0.1094
 6930TIP3    H242350   4.069   0.291   0.290 -0.9427 -2.8888  0.0987
 6931TIP3   OH242351   1.805   5.021   0.101  0.5486  0.5138  0.0205
 6931TIP3    H142352   1.804   4.999   0.008  2.1104  1.6145 -0.2993
 6931TIP3    H242353   1.834   5.113   0.103  0.4676  0.5259  1.5920
 6932TIP3   OH242354   3.127   4.689   1.514 -0.2782 -0.0645 -0.2874
 6932TIP3    H142355   3.201   4.749   1.508  0.2745 -0.7857 -0.9925
 6932TIP3    H242356   3.146   4.635   1.591  0.5863 -1.0721 -1.1808
 6933TIP3   OH242357   4.393   2.942   7.583 -0.4222  0.3391  0.4265
 6933TIP3    H142358   4.453   2.933   7.658  0.7729 -0.5833 -0.6061
 6933TIP3    H242359   4.322   2.882   7.603 -0.5099  0.6704  1.1741
 6934TIP3   OH242360   5.575   2.670   0.400 -0.2623 -0.3656  0.0036
 6934TIP3    H142361   5.533   2.753   0.422  1.4548  1.5088 -3.0609
 6934TIP3    H242362   5.652   2.666   0.457 -0.2210  0.2673 -0.0043
 6935TIP3   OH242363   6.591   6.348   8.514  0.0522 -0.0696  0.3430
 6935TIP3    H142364   6.499   6.373   8.508 -0.0587 -0.6598 -0.6738
 6935TIP3    H242365   6.621   6.386   8.596 -1.1063  0.1020  0.7041
 6936TIP3   OH242366   2.540   3.975   0.790 -0.1838 -0.2669 -0.4327
 6936TIP3    H142367   2.589   3.901   0.753  0.4199 -0.5711  0.9188
 6936TIP3    H242368   2.500   3.940   0.869  0.8957  1.0726  0.7631
 6937TIP3   OH242369   5.619   0.443   1.014  0.0236  0.2957  0.8134
 6937TIP3    H142370   5.553   0.507   0.987  0.3315  0.1510 -0.3252
 6937TIP3    H242371   5.699   0.470   0.969  0.5541  0.0066  1.5556
 6938TIP3   OH242372   4.702   5.883   6.819 -0.3034  0.0916 -0.2546
 6938TIP3    H142373   4.670   5.949   6.759 -1.3809  0.1332  0.3424
 6938TIP3    H242374   4.748   5.820   6.763 -1.5251 -0.0237 -1.1711
 6939TIP3   OH242375   2.223   6.752   2.079 -0.1111 -0.6823  0.4659
 6939TIP3    H142376   2.311   6.727   2.109  0.5351  1.6332  0.6797
 6939TIP3    H242377   2.165   6.725   2.150  0.2291 -3.1958 -0.1211
 6940TIP3   OH242378   3.451   3.467   0.408 -0.3850  0.3597  0.2111
 6940TIP3    H142379   3.477   3.526   0.338 -1.2425  1.2562  0.6128
 6940TIP3    H242380   3.355   3.467   0.405 -0.4130 -0.4393  0.6930
 6941TIP3   OH242381   6.215   3.661   7.664  0.2044  0.0972  0.5336
 6941TIP3    H142382   6.156   3.733   7.688 -1.5896 -0.0283 -2.8504
 6941TIP3    H242383   6.302   3.701   7.660 -0.4464  1.5963  0.6565
 6942TIP3   OH242384   2.418   2.435   2.068 -0.4168  0.0356  0.8678
 6942TIP3    H142385   2.361   2.359   2.084 -1.5481  0.8966  1.0653
 6942TIP3    H242386   2.496   2.418   2.121  0.8682 -2.5625 -1.6238
 6943TIP3   OH242387   2.029   5.645   1.460  0.4481  0.1900 -0.0197
 6943TIP3    H142388   2.122   5.621   1.465 -0.0276 -2.3953 -1.6553
 6943TIP3    H242389   2.015   5.667   1.368 -0.4786  1.0345  0.3155
 6944TIP3   OH242390   2.380   1.185   8.188  0.3264 -0.2809  0.4355
 6944TIP3    H142391   2.328   1.192   8.268 -1.6406  1.4005 -0.8937
 6944TIP3    H242392   2.340   1.113   8.139 -0.7707  0.9247 -0.5259
 6945TIP3   OH242393   2.946   2.500   0.894  0.2784 -0.5394 -0.3084
 6945TIP3    H142394   2.894   2.579   0.911  0.4494 -0.7448  1.3349
 6945TIP3    H242395   2.886   2.440   0.850  0.2514  0.6224 -1.9444
 6946TIP3   OH242396   4.680   1.217   7.961 -0.3975 -0.0544 -0.3621
 6946TIP3    H142397   4.594   1.235   7.999  0.5154  0.5558  1.5373
 6946TIP3    H242398   4.683   1.271   7.882 -1.6077  0.1896 -0.2667
 6947TIP3   OH242399   2.168   2.953   0.867  0.5601  0.0217 -0.2648
 6947TIP3    H142400   2.110   3.025   0.891 -0.1986 -0.9228  0.8015
 6947TIP3    H242401   2.126   2.911   0.792  1.1099  0.7804 -1.0245
 6948TIP3   OH242402   3.690   1.653   1.280 -0.2979  0.0152  0.6977
 6948TIP3    H142403   3.690   1.741   1.318  0.5539  0.5861 -0.5323
 6948TIP3    H242404   3.730   1.664   1.193 -2.0449 -1.2316 -0.3476
 6949TIP3   OH242405   2.499   5.596   1.580  0.8032  0.2486  0.2466
 6949TIP3    H142406   2.549   5.668   1.541  0.8502  0.9163  1.4786
 6949TIP3    H242407   2.526   5.596   1.672 -0.6498 -0.0779  0.6949
 6950TIP3   OH242408   5.788   2.388   6.250 -0.2470 -0.1849 -0.1200
 6950TIP3    H142409   5.838   2.337   6.186 -0.7540  0.7904 -1.3218
 6950TIP3    H242410   5.842   2.464   6.268  0.4215 -0.9910  1.5378
 6951TIP3   OH242411   3.692   1.504   1.885  0.3963  0.2586 -0.3860
 6951TIP3    H142412   3.778   1.472   1.913  0.5746  2.1968  1.5054
 6951TIP3    H242413   3.691   1.489   1.790  2.7214  0.0051 -0.4261
 6952TIP3   OH242414   0.621   5.653   1.997  0.2194  1.0137  0.1407
 6952TIP3    H142415   0.537   5.655   2.042  1.2629  2.0896  2.1598
 6952TIP3    H242416   0.664   5.735   2.022  2.3259  0.0014  0.0706
 6953TIP3   OH242417   5.045   2.059   8.241  0.5230 -0.1602 -0.2498
 6953TIP3    H142418   5.058   2.094   8.153  0.9739 -1.6151 -0.7861
 6953TIP3    H242419   5.074   1.968   8.236 -0.1499 -0.4946  1.2149
 6954TIP3   OH242420   1.490   2.521   1.082 -0.6612 -0.0483  0.2785
 6954TIP3    H142421   1.505   2.452   1.017 -2.4369  1.5525 -1.9586
 6954TIP3    H242422   1.434   2.585   1.038 -0.6601  1.9284  2.8901
 6955TIP3   OH242423   5.670   4.833   2.172 -0.4275 -0.0577  0.4058
 6955TIP3    H142424   5.746   4.860   2.120  0.3914  1.1093  2.0931
 6955TIP3    H242425   5.617   4.912   2.180 -0.4212 -0.1463  1.4938
 6956TIP3   OH242426   4.522   0.273   7.646  0.1894  0.5447 -0.1727
 6956TIP3    H142427   4.551   0.186   7.620  2.3940  0.3007  2.5491
 6956TIP3    H242428   4.455   0.297   7.582  0.0788 -2.7817 -1.4849
 6957TIP3   OH242429   3.734   6.241   1.300 -0.0149 -0.6932 -0.5625
 6957TIP3    H142430   3.656   6.207   1.255 -1.0768  1.2273 -0.2995
 6957TIP3    H242431   3.806   6.227   1.239 -1.1228  0.2522 -2.1549
 6958TIP3   OH242432   5.028   6.059   0.350 -0.1642  0.4956  0.0372
 6958TIP3    H142433   4.939   6.033   0.370 -0.0163 -0.0391  0.0155
 6958TIP3    H242434   5.059   6.102   0.430  0.0369 -0.6066  0.5819
 6959TIP3   OH242435   3.673   3.397   1.927 -0.5000  0.4047  0.1757
 6959TIP3    H142436   3.586   3.417   1.961  0.3444  1.5886  1.7498
 6959TIP3    H242437   3.733   3.449   1.981  1.2374 -0.8156 -0.4850
 6960TIP3   OH242438   4.888   2.407   1.795  0.0643 -0.2913  0.0363
 6960TIP3    H142439   4.846   2.462   1.860 -1.0604 -1.1355  0.0441
 6960TIP3    H242440   4.948   2.351   1.845  0.2942  0.0700  0.1669
 6961TIP3   OH242441   5.595   3.524   6.232 -0.3194 -0.9270  0.3515
 6961TIP3    H142442   5.582   3.532   6.138  0.7958  0.8419  0.2946
 6961TIP3    H242443   5.511   3.548   6.270 -0.5690 -0.9639 -0.1721
 6962TIP3   OH242444   2.229   0.290   0.865  0.0186 -0.5367  0.8358
 6962TIP3    H142445   2.255   0.293   0.773 -0.0056  0.6393  0.8491
 6962TIP3    H242446   2.143   0.332   0.866 -0.2694 -1.1252  1.3153
 6963TIP3   OH242447   6.208   1.173   7.196  0.4787  0.8305  0.7619
 6963TIP3    H142448   6.214   1.118   7.118  3.0696 -0.2397  1.5798
 6963TIP3    H242449   6.184   1.259   7.163  1.5904  0.4317 -1.2800
 6964TIP3   OH242450   6.227   1.077   8.072 -0.7167 -0.4013 -0.3244
 6964TIP3    H142451   6.245   0.987   8.047 -0.2449 -0.7984  1.3519
 6964TIP3    H242452   6.209   1.074   8.166 -2.4086  1.0224 -0.5350
 6965TIP3   OH242453   4.040   3.464   2.012  0.8176  0.1102  0.1490
 6965TIP3    H142454   4.047   3.482   2.106  1.1254 -2.0808  0.5952
 6965TIP3    H242455   3.976   3.528   1.981 -0.1346  0.1834  2.0786
 6966TIP3   OH242456   5.097   0.260   0.279 -0.1642 -0.1329 -0.5056
 6966TIP3    H142457   5.053   0.278   0.196 -0.2149 -0.5747 -0.5751
 6966TIP3    H242458   5.187   0.287   0.264 -0.3284  0.4437 -0.4774
 6967TIP3   OH242459   0.158   5.347   0.445 -0.0354  0.1692 -0.5356
 6967TIP3    H142460   0.094   5.418   0.455 -0.5910 -0.3091 -0.6545
 6967TIP3    H242461   0.135   5.305   0.362  0.0737 -0.3701 -0.2947
 6968TIP3   OH242462   6.107   2.078   8.022  0.2400  0.6297  0.0195
 6968TIP3    H142463   6.129   1.987   8.002  1.6503  0.9330  0.0669
 6968TIP3    H242464   6.192   2.121   8.031 -0.3984  1.6631  1.3422
 6969TIP3   OH242465   2.275   2.890   1.396 -0.3136 -0.1155 -0.5268
 6969TIP3    H142466   2.244   2.840   1.320  0.4351  0.5190 -1.2620
 6969TIP3    H242467   2.289   2.824   1.464 -0.1935 -0.7949 -1.1997
 6970TIP3   OH242468   0.534   4.391   1.660 -0.2819  0.7821 -0.6947
 6970TIP3    H142469   0.537   4.456   1.731 -2.0851 -1.4086  1.5902
 6970TIP3    H242470   0.444   4.359   1.661  0.5565 -1.8483 -1.5583
 6971TIP3   OH242471   2.013   3.415   7.233 -0.0495  0.0674  0.5755
 6971TIP3    H142472   2.082   3.410   7.167 -0.6471  0.5754 -0.0973
 6971TIP3    H242473   1.943   3.464   7.191  0.1662  1.7914  2.1148
 6972TIP3   OH242474   1.466   1.201   8.149  0.3413 -0.6325 -0.0415
 6972TIP3    H142475   1.483   1.292   8.126 -1.7490 -0.1629  0.0517
 6972TIP3    H242476   1.551   1.158   8.144  1.2563  1.1784 -0.7304
 6973TIP3   OH242477   0.400   4.669   6.942  0.1930 -0.2415 -0.0670
 6973TIP3    H142478   0.446   4.707   7.017  2.4526 -1.1012 -0.9336
 6973TIP3    H242479   0.429   4.721   6.867  0.0819 -1.0857 -0.7055
 6974TIP3   OH242480   1.128   6.471   2.386  0.2508  0.4195  0.5590
 6974TIP3    H142481   1.224   6.477   2.382  0.3693 -1.3271 -0.5901
 6974TIP3    H242482   1.111   6.394   2.441 -0.5742  1.7077  2.1807
 6975TIP3   OH242483   0.631   3.542   7.567  0.0577 -0.4226 -0.1080
 6975TIP3    H142484   0.696   3.474   7.584 -1.1942 -1.2662  1.5102
 6975TIP3    H242485   0.676   3.624   7.587  0.6923 -0.9778  0.8216
 6976TIP3   OH242486   4.198   4.091   8.536 -0.1964  0.3120 -0.8005
 6976TIP3    H142487   4.226   4.055   8.620 -0.2786  0.7921 -0.5602
 6976TIP3    H242488   4.242   4.037   8.470  0.9690  0.7794 -0.4409
 6977TIP3   OH242489   2.712   5.235   1.536  0.4365  0.3427  0.6682
 6977TIP3    H142490   2.660   5.196   1.606 -1.0766 -0.6131 -0.9341
 6977TIP3    H242491   2.766   5.163   1.503 -1.5116 -0.2141 -1.5161
 6978TIP3   OH242492   5.485   1.896   1.329 -0.2902  0.9254  0.0028
 6978TIP3    H142493   5.478   1.965   1.394 -1.5895  0.6177  0.2318
 6978TIP3    H242494   5.434   1.823   1.366 -0.3440  0.4499 -0.9703
 6979TIP3   OH242495   6.553   5.091   2.293 -0.2382 -0.2655  0.2503
 6979TIP3    H142496   6.563   5.121   2.383  0.2593  0.2637  0.0231
 6979TIP3    H242497   6.635   5.116   2.249 -0.6778 -0.0537 -0.4749
 6980TIP3   OH242498   0.681   3.192   1.240 -0.1736  0.0620  0.0056
 6980TIP3    H142499   0.626   3.152   1.308  0.1609  0.3156  0.4282
 6980TIP3    H242500   0.654   3.149   1.159 -1.4347  0.6320  0.1077
 6981TIP3   OH242501   0.574   4.353   0.405  0.5222 -0.1431  0.4093
 6981TIP3    H142502   0.656   4.371   0.451 -0.1881  0.2409  1.5748
 6981TIP3    H242503   0.529   4.437   0.401 -0.3346 -0.5645  0.8613
 6982TIP3   OH242504   2.571   5.039   1.161  0.2959 -0.2184  0.1940
 6982TIP3    H142505   2.579   4.979   1.235  1.3969 -1.1791 -0.6656
 6982TIP3    H242506   2.660   5.071   1.146 -0.1255  0.9319  0.0491
 6983TIP3   OH242507   3.198   5.822   0.232  0.1567 -0.3728 -0.5035
 6983TIP3    H142508   3.234   5.762   0.297  0.0670  1.2357  1.0714
 6983TIP3    H242509   3.268   5.885   0.216  0.0857 -0.5926 -1.8217
 6984TIP3   OH242510   5.549   4.530   1.666 -0.7910 -0.4644  0.5888
 6984TIP3    H142511   5.542   4.434   1.669  2.1544 -0.7496  1.8651
 6984TIP3    H242512   5.536   4.552   1.574 -0.1717 -2.2472  0.0253
 6985TIP3   OH242513   0.499   5.360   1.951 -0.0443  0.0899  0.2604
 6985TIP3    H142514   0.525   5.404   2.032  1.7761 -1.2150  0.4620
 6985TIP3    H242515   0.408   5.335   1.965 -0.1372  0.9850  1.3885
 6986TIP3   OH242516   4.786   5.927   0.378  1.0034  0.2422  0.0688
 6986TIP3    H142517   4.722   5.996   0.363 -0.3449 -1.2753 -1.7063
 6986TIP3    H242518   4.736   5.856   0.419  1.6532 -0.7097 -0.7129
 6987TIP3   OH242519   5.340   1.210   0.206  0.4897  0.1425  0.4298
 6987TIP3    H142520   5.310   1.276   0.268 -0.3473 -0.2849  0.5037
 6987TIP3    H242521   5.330   1.127   0.253 -0.5297 -0.2247 -0.3850
 6988TIP3   OH242522   0.121   5.177   7.055  0.0942  0.4228 -0.4381
 6988TIP3    H142523   0.069   5.234   6.999 -3.3549 -1.8972  0.0383
 6988TIP3    H242524   0.158   5.111   6.996  1.6300  1.3909 -0.6194
 6989TIP3   OH242525   6.260   2.932   6.817 -0.5539  0.5346 -0.3598
 6989TIP3    H142526   6.247   2.938   6.912  3.2766 -0.1363  0.4029
 6989TIP3    H242527   6.301   3.016   6.794 -1.8358  0.8585 -1.5358
 6990TIP3   OH242528   0.289   5.041   6.865 -0.1307 -0.3038 -0.3071
 6990TIP3    H142529   0.271   5.056   6.773  2.7567  0.3904 -0.8587
 6990TIP3    H242530   0.368   4.986   6.865  0.7502  0.8653  1.7208
 6991TIP3   OH242531   5.706   5.469   2.229 -0.2091  0.3040 -0.0959
 6991TIP3    H142532   5.618   5.432   2.240  0.5352 -1.7159 -0.5450
 6991TIP3    H242533   5.763   5.412   2.280  0.9816  1.0002 -0.5907
 6992TIP3   OH242534   1.973   4.221   7.370 -0.5351  0.4555  0.5413
 6992TIP3    H142535   1.966   4.128   7.347 -0.4548  0.5428  0.1522
 6992TIP3    H242536   1.958   4.267   7.287  0.2900  0.7646  0.5538
 6993TIP3   OH242537   2.188   0.222   2.563  0.1549  0.6165  0.3526
 6993TIP3    H142538   2.150   0.303   2.528 -0.2914  0.9093  1.4756
 6993TIP3    H242539   2.143   0.152   2.515 -0.4167  1.0029  0.3187
 6994TIP3   OH242540   2.273   4.104   1.295  0.8739 -0.2681 -0.5916
 6994TIP3    H142541   2.365   4.127   1.285  0.7625 -0.1566 -1.4344
 6994TIP3    H242542   2.227   4.188   1.291  0.6188 -0.4480 -1.7584
 6995TIP3   OH242543   3.371   2.737   6.965  0.0723  0.0019 -0.2469
 6995TIP3    H142544   3.418   2.808   7.009 -1.4078  0.6180  0.3706
 6995TIP3    H242545   3.423   2.659   6.986  1.2016  0.7431 -0.1546
 6996TIP3   OH242546   4.968   2.916   7.173 -0.1231  0.2688 -0.4652
 6996TIP3    H142547   4.991   2.973   7.246  0.1279  2.0798 -1.8878
 6996TIP3    H242548   5.051   2.900   7.128 -0.2410 -0.9855 -0.2772
 6997TIP3   OH242549   1.943   5.547   0.096  0.5311  1.0278  0.1606
 6997TIP3    H142550   1.927   5.571   0.187 -0.8038  1.4975 -0.1759
 6997TIP3    H242551   1.870   5.586   0.047  0.3192 -0.5608 -0.8968
 6998TIP3   OH242552   4.715   0.176   0.016 -0.0449  1.0489  0.7364
 6998TIP3    H142553   4.712   0.184   0.112 -2.2627 -2.6549  1.1761
 6998TIP3    H242554   4.723   0.082   0.001 -0.1867  1.4901 -2.7572
 6999TIP3   OH242555   4.023   3.840   2.972  0.3397  0.3067 -0.4562
 6999TIP3    H142556   4.064   3.881   2.895 -1.4321  0.8432 -1.1603
 6999TIP3    H242557   3.933   3.872   2.971 -0.1230 -0.8558  1.0253
 7000TIP3   OH242558   2.826   4.415   0.229 -0.2579 -0.3089  0.3184
 7000TIP3    H142559   2.765   4.360   0.277 -1.2649 -0.8785 -1.5387
 7000TIP3    H242560   2.776   4.493   0.207  0.2093 -0.0276  0.2316
 7001TIP3   OH242561   0.429   1.993   2.421 -0.5241  0.7304 -0.2321
 7001TIP3    H142562   0.524   1.993   2.416 -0.5255 -0.1728 -0.3997
 7001TIP3    H242563   0.407   2.068   2.476  0.3114  0.5032  0.4208
 7002TIP3   OH242564   6.862   5.499   8.409  0.0047  0.1925 -0.0993
 7002TIP3    H142565   6.782   5.511   8.358 -0.3502 -1.5234  0.0052
 7002TIP3    H242566   6.882   5.406   8.401  0.1303 -0.0964  2.5741
 7003TIP3   OH242567   5.772   1.349   7.832 -0.0949 -0.5179  0.2055
 7003TIP3    H142568   5.694   1.369   7.779  0.5949 -2.8743 -1.8914
 7003TIP3    H242569   5.739   1.296   7.904 -0.7162  0.5174  0.7011
 7004TIP3   OH242570   4.485   5.413   7.563  0.4379  0.3138  0.1628
 7004TIP3    H142571   4.526   5.384   7.644  1.5039 -4.0917 -1.7083
 7004TIP3    H242572   4.536   5.491   7.538  2.9938 -0.7974  1.5153
 7005TIP3   OH242573   3.106   2.888   8.334  0.5352 -0.1594 -0.1728
 7005TIP3    H142574   3.162   2.937   8.394 -2.5136  0.4853  2.4597
 7005TIP3    H242575   3.044   2.954   8.301 -0.4419 -1.2862 -0.6729
 7006TIP3   OH242576   1.584   5.230   0.857 -0.2830 -0.2488 -0.1412
 7006TIP3    H142577   1.596   5.178   0.936  1.0346 -0.2334 -0.3152
 7006TIP3    H242578   1.586   5.321   0.887  1.0387 -0.2186 -0.2736
 7007TIP3   OH242579   4.533   3.433   7.168 -0.1176 -0.0562 -0.1373
 7007TIP3    H142580   4.453   3.412   7.120 -1.3250  0.2911  1.6441
 7007TIP3    H242581   4.573   3.505   7.119 -0.9679 -0.1379 -0.9587
 7008TIP3   OH242582   3.211   5.613   0.587  0.2358  0.5934  0.1746
 7008TIP3    H142583   3.244   5.646   0.671  1.5282  2.4578 -0.9938
 7008TIP3    H242584   3.115   5.617   0.596  0.3136 -0.3891  1.9490
 7009TIP3   OH242585   0.553   5.044   6.395 -0.5538  0.7118  0.1156
 7009TIP3    H142586   0.574   5.106   6.326 -0.6281 -0.3999 -0.9334
 7009TIP3    H242587   0.565   5.094   6.476  0.8285  1.6662 -0.6250
 7010TIP3   OH242588   1.944   3.418   1.309  0.1278  0.0164 -0.4248
 7010TIP3    H142589   1.916   3.509   1.315  1.8657  0.5568  0.0717
 7010TIP3    H242590   1.872   3.367   1.347 -0.7408  1.1968 -0.4575
 7011TIP3   OH242591   6.704   2.172   6.222 -0.1942 -0.1795 -0.0449
 7011TIP3    H142592   6.671   2.103   6.278  1.6479 -1.5742 -0.5629
 7011TIP3    H242593   6.775   2.212   6.271 -1.1699  1.3263  0.2049
 7012TIP3   OH242594   5.369   0.505   7.806 -0.2604 -0.4465 -0.0203
 7012TIP3    H142595   5.289   0.555   7.791 -1.6966 -3.1000 -2.0794
 7012TIP3    H242596   5.433   0.542   7.746 -0.6830  0.1598 -0.1031
 7013TIP3   OH242597   4.059   6.105   0.539 -0.3049  0.2326 -0.3150
 7013TIP3    H142598   4.013   6.055   0.608  1.2322  0.3009  0.8130
 7013TIP3    H242599   4.043   6.197   0.562  0.6625  0.2615  0.3097
 7014TIP3   OH242600   6.048   6.807   6.686  0.0046 -0.0557 -0.3115
 7014TIP3    H142601   6.015   6.721   6.711  0.7922  0.3039  2.3734
 7014TIP3    H242602   6.104   6.791   6.610  0.2950 -1.9530  0.2664
 7015TIP3   OH242603   2.028   3.230   0.465 -0.0963 -0.1310  0.2828
 7015TIP3    H142604   2.082   3.159   0.500  0.2350 -1.8788 -3.3856
 7015TIP3    H242605   2.091   3.293   0.430 -0.3354 -0.9335 -1.6977
 7016TIP3   OH242606   5.012   5.751   0.467 -0.4125 -0.3042  0.1046
 7016TIP3    H142607   4.939   5.789   0.418 -0.0699  0.3860  0.1194
 7016TIP3    H242608   5.043   5.679   0.412  0.4018  0.8871 -1.0540
 7017TIP3   OH242609   0.223   1.613   0.642 -0.0969  0.2876 -0.6223
 7017TIP3    H142610   0.226   1.704   0.673 -0.0956 -0.2534  1.0523
 7017TIP3    H242611   0.314   1.585   0.641 -0.1941 -0.0981  0.1945
 7018TIP3   OH242612   4.615   4.715   7.891 -0.4700  0.6923  0.1224
 7018TIP3    H142613   4.564   4.649   7.938 -1.8096  0.8082 -1.1201
 7018TIP3    H242614   4.624   4.681   7.802  1.7839  0.6132  0.3210
 7019TIP3   OH242615   6.136   2.593   0.639  0.0139 -0.4052  0.3859
 7019TIP3    H142616   6.143   2.685   0.663  0.7259 -0.7931  1.8099
 7019TIP3    H242617   6.212   2.552   0.679  1.1293 -1.2299 -2.3870
 7020TIP3   OH242618   0.326   4.590   1.069  0.0063 -0.0143 -0.1578
 7020TIP3    H142619   0.373   4.516   1.108 -0.1507  0.8640  1.7891
 7020TIP3    H242620   0.371   4.668   1.103 -0.7256  0.8101 -1.0137
 7021TIP3   OH242621   5.547   2.223   7.327  0.1598 -0.3630  0.4790
 7021TIP3    H142622   5.640   2.237   7.307 -0.2752  2.2759 -0.0676
 7021TIP3    H242623   5.525   2.293   7.389 -0.8599 -2.5851  2.7824
 7022TIP3   OH242624   5.293   2.611   7.063  0.4996  0.2114 -0.4366
 7022TIP3    H142625   5.268   2.564   6.983 -1.3585 -0.0919  0.2742
 7022TIP3    H242626   5.305   2.701   7.034 -0.7117  0.2154 -0.9836
 7023TIP3   OH242627   5.809   5.032   7.160 -0.2064  0.4165 -0.2558
 7023TIP3    H142628   5.845   4.959   7.110 -2.6826  0.2731 -2.0233
 7023TIP3    H242629   5.742   4.992   7.216 -0.0210  1.0609  0.4397
 7024TIP3   OH242630   4.286   5.497   6.934 -0.1766 -0.9189 -0.6712
 7024TIP3    H142631   4.332   5.546   7.002  1.3475 -1.8309 -0.9916
 7024TIP3    H242632   4.202   5.542   6.924 -0.0672 -0.2451  1.1657
 7025TIP3   OH242633   4.850   2.607   2.265  0.2011 -0.3586  0.7994
 7025TIP3    H142634   4.914   2.540   2.242  0.4554 -0.1138  0.7921
 7025TIP3    H242635   4.880   2.641   2.349 -0.1797 -0.5674  1.0231
 7026TIP3   OH242636   1.591   2.570   0.278  0.3132 -0.5085 -0.2615
 7026TIP3    H142637   1.544   2.492   0.306 -1.1565  0.4694  0.1510
 7026TIP3    H242638   1.660   2.581   0.344 -1.0463 -0.0924  1.1733
 7027TIP3   OH242639   5.612   6.756   7.225  0.1008  0.0715 -0.2077
 7027TIP3    H142640   5.662   6.759   7.307 -0.3060  0.6504  0.0283
 7027TIP3    H242641   5.632   6.839   7.182 -0.7017  0.3395 -0.0808
 7028TIP3   OH242642   1.623   0.063   1.466 -0.4039  0.2622  0.1898
 7028TIP3    H142643   1.597  -0.026   1.489  2.1712 -0.5009  0.5581
 7028TIP3    H242644   1.677   0.052   1.388 -0.4236  1.5640 -0.0180
 7029TIP3   OH242645   0.758   6.420   7.144 -0.2510 -0.2448  0.2360
 7029TIP3    H142646   0.748   6.401   7.237 -2.1521  1.0709  0.3525
 7029TIP3    H242647   0.711   6.348   7.100  0.8274 -0.9825  0.2484
 7030TIP3   OH242648   1.350   4.424   8.035  0.3014  0.4167 -1.2053
 7030TIP3    H142649   1.347   4.471   7.952  1.3457  1.9112 -0.4461
 7030TIP3    H242650   1.286   4.470   8.091  2.2386  1.8437 -0.0504
 7031TIP3   OH242651   3.776   2.903   0.736  0.1107  0.3186 -0.2076
 7031TIP3    H142652   3.716   2.840   0.775  1.0980  0.5475  1.8340
 7031TIP3    H242653   3.733   2.931   0.655 -1.1624 -1.6215 -0.2581
 7032TIP3   OH242654   0.820   1.008   0.887  0.1061 -0.1133 -0.0617
 7032TIP3    H142655   0.885   0.958   0.837 -1.0418  0.1411 -1.9199
 7032TIP3    H242656   0.858   1.096   0.893  1.1739 -0.6385  1.3621
 7033TIP3   OH242657   1.927   6.867   0.035  0.4468 -0.2215  0.1052
 7033TIP3    H142658   1.956   6.795   0.092 -0.4400 -0.5172  0.2006
 7033TIP3    H242659   1.853   6.906   0.081 -0.1998 -0.3773 -0.7737
 7034TIP3   OH242660   3.619   4.359   1.857 -0.4514  0.4200  0.5190
 7034TIP3    H142661   3.662   4.439   1.886  0.1084  1.2136 -2.1816
 7034TIP3    H242662   3.556   4.388   1.790 -0.1172 -1.3635 -0.6674
 7035TIP3   OH242663   4.685   0.763   6.814 -0.5224 -0.4715  0.5697
 7035TIP3    H142664   4.632   0.814   6.753  0.1702  0.8829  1.0651
 7035TIP3    H242665   4.768   0.810   6.818 -0.6257 -0.3982  2.7392
 7036TIP3   OH242666   1.584   6.305   0.074  0.0040 -0.2328 -0.5270
 7036TIP3    H142667   1.512   6.312   0.136  0.8803 -1.5051  0.6881
 7036TIP3    H242668   1.652   6.255   0.120  0.9848 -0.5825 -2.2319
 7037TIP3   OH242669   0.044   0.738   7.191  0.0604 -0.2389  0.4279
 7037TIP3    H142670   0.134   0.768   7.182 -0.1680 -0.0170 -1.6756
 7037TIP3    H242671  -0.007   0.799   7.137 -1.1985 -1.0013  0.7133
 7038TIP3   OH242672   0.075   5.817   0.883  0.1018  0.1635 -0.4885
 7038TIP3    H142673   0.163   5.803   0.849  0.5377  1.8192 -0.1570
 7038TIP3    H242674   0.021   5.834   0.806  0.1144 -0.5951 -0.6707
 7039TIP3   OH242675   0.855   0.179   8.280 -0.0216 -0.0462  0.3187
 7039TIP3    H142676   0.765   0.191   8.248  0.5543  0.4888 -1.2031
 7039TIP3    H242677   0.852   0.209   8.371 -1.1368  1.0707 -0.0491
 7040TIP3   OH242678   0.402   0.352   0.455  0.7560 -0.2541 -0.0727
 7040TIP3    H142679   0.390   0.259   0.437  0.3628 -0.9658  3.2576
 7040TIP3    H242680   0.347   0.396   0.390 -0.6517 -2.4066 -0.4500
 7041TIP3   OH242681   5.056   4.157   0.742 -0.2076  0.2337 -0.2434
 7041TIP3    H142682   5.126   4.221   0.730  0.0212 -0.0535 -0.4719
 7041TIP3    H242683   5.053   4.110   0.658 -1.3972  0.9509 -0.6219
 7042TIP3   OH242684   2.864   5.819   6.583 -0.0761 -0.8366  0.0556
 7042TIP3    H142685   2.919   5.765   6.639  2.1557  1.3057  0.1137
 7042TIP3    H242686   2.793   5.848   6.640  0.5525 -1.0195  0.9521
 7043TIP3   OH242687   6.414   2.664   0.934  0.3282  0.4513 -0.2450
 7043TIP3    H142688   6.426   2.588   0.878 -0.2335  0.9003 -0.9965
 7043TIP3    H242689   6.326   2.654   0.970  0.4301  0.5121  0.0253
 7044TIP3   OH242690   1.363   3.699   7.243  0.0908 -0.1140  0.2114
 7044TIP3    H142691   1.280   3.744   7.261 -0.3260 -0.9477  0.4519
 7044TIP3    H242692   1.336   3.618   7.199  0.7396 -0.6100  0.7111
 7045TIP3   OH242693   1.864   5.336   2.029  0.1051 -0.0219 -0.0403
 7045TIP3    H142694   1.953   5.360   2.056  0.3275 -0.4175 -0.4031
 7045TIP3    H242695   1.849   5.251   2.071  0.6013 -0.8350 -1.4376
 7046TIP3   OH242696   6.104   0.165   7.921 -0.7683 -0.1506 -0.3435
 7046TIP3    H142697   6.146   0.212   7.993 -0.3452 -0.4376 -0.4048
 7046TIP3    H242698   6.172   0.110   7.884 -0.2576  1.8276 -2.6011
 7047TIP3   OH242699   3.532   4.928   7.661  0.1024  0.4042  0.1552
 7047TIP3    H142700   3.440   4.948   7.676 -0.2613 -0.6232 -0.5579
 7047TIP3    H242701   3.531   4.860   7.594  1.3842  0.3542  0.1574
 7048TIP3   OH242702   5.644   2.062   0.538  0.5436 -0.2411  0.3389
 7048TIP3    H142703   5.715   2.042   0.599  0.7793  0.9534  0.4804
 7048TIP3    H242704   5.605   2.143   0.571  0.1980  0.0303 -0.6739
 7049TIP3   OH242705   2.247   1.256   7.809 -0.0688  0.4671  0.1078
 7049TIP3    H142706   2.256   1.217   7.722 -2.3472 -0.6149  0.2738
 7049TIP3    H242707   2.160   1.294   7.809  1.2615  3.8871  0.7103
 7050TIP3   OH242708   1.293   4.388   0.688  0.1287  0.0410  0.9004
 7050TIP3    H142709   1.362   4.340   0.735  0.6057 -0.7700 -0.5637
 7050TIP3    H242710   1.232   4.320   0.659  0.6783  0.3128 -0.9977
 7051TIP3   OH242711   0.386   5.237   6.665 -0.0239 -0.0852  0.5989
 7051TIP3    H142712   0.480   5.251   6.655 -0.2041  1.5666  0.8438
 7051TIP3    H242713   0.377   5.190   6.748  0.6880 -2.3416 -0.5313
 7052TIP3   OH242714   3.644   2.710   7.860 -0.2030  0.2920 -0.3254
 7052TIP3    H142715   3.555   2.735   7.882  0.1660  1.6382 -0.2966
 7052TIP3    H242716   3.644   2.701   7.765 -0.3214  0.4927 -0.3444
 7053TIP3   OH242717   2.078   3.808   0.622  0.0143 -0.5205 -0.2408
 7053TIP3    H142718   2.147   3.781   0.682 -1.5810 -1.5693  1.1986
 7053TIP3    H242719   2.049   3.726   0.581  0.0661  0.0005 -1.3666
 7054TIP3   OH242720   3.201   4.524   1.720 -0.4874 -0.6718 -0.4642
 7054TIP3    H142721   3.267   4.579   1.762 -1.7055 -0.5112  1.3454
 7054TIP3    H242722   3.247   4.442   1.700  0.5243 -0.1677 -0.2476
 7055TIP3   OH242723   2.545   0.585   1.505 -0.4522 -0.6964  0.0405
 7055TIP3    H142724   2.563   0.491   1.516  2.3530 -0.2527  0.0006
 7055TIP3    H242725   2.535   0.618   1.594 -0.7513 -0.9176  0.0903
 7056TIP3   OH242726   2.691   5.938   7.980 -0.3145 -0.0695 -0.2515
 7056TIP3    H142727   2.740   5.882   8.039 -0.8435  0.0761  0.3382
 7056TIP3    H242728   2.747   6.014   7.966 -0.0649 -0.2393 -0.1683
 7057TIP3   OH242729   4.002   0.200   8.171  0.0308  0.0157  0.1915
 7057TIP3    H142730   3.960   0.133   8.225  0.1393 -0.0079  0.2448
 7057TIP3    H242731   3.968   0.282   8.205 -1.3071 -0.0566 -0.8543
 7058TIP3   OH242732   2.467   1.103   1.125 -0.1509  0.2070 -0.3231
 7058TIP3    H142733   2.405   1.126   1.193  0.6292  0.4695  0.3163
 7058TIP3    H242734   2.547   1.151   1.147 -0.3430  1.5373 -2.2972
 7059TIP3   OH242735   3.506   5.118   8.238 -0.5186 -0.2965  0.0191
 7059TIP3    H142736   3.415   5.088   8.236 -0.2373 -1.1629 -0.5143
 7059TIP3    H242737   3.519   5.152   8.327 -0.8309 -1.8931  0.7073
 7060TIP3   OH242738   4.267   2.674   8.485 -0.0986  0.1102 -0.2675
 7060TIP3    H142739   4.303   2.762   8.494  2.8588 -1.0521  0.4983
 7060TIP3    H242740   4.242   2.648   8.574 -0.4961 -0.0222 -0.4126
 7061TIP3   OH242741   2.762   6.752   0.836  0.7426  0.2725  0.6414
 7061TIP3    H142742   2.847   6.713   0.816 -0.2656 -1.8277  0.1651
 7061TIP3    H242743   2.707   6.729   0.761 -0.2273  1.7152  0.8749
 7062TIP3   OH242744   6.037   5.289   1.330 -0.2377 -0.2531  0.0783
 7062TIP3    H142745   6.012   5.282   1.422 -1.5348 -1.1793 -0.3089
 7062TIP3    H242746   5.955   5.304   1.284  0.2274 -0.9921 -1.0417
 7063TIP3   OH242747   3.660   2.147   8.430  0.1614  0.5157  0.2293
 7063TIP3    H142748   3.638   2.054   8.432 -0.1496  0.5948  0.9747
 7063TIP3    H242749   3.705   2.160   8.347 -1.8771  0.1589 -1.0011
 7064LIG     O142750   3.199   3.071   6.380 -0.2904 -0.2094 -0.3855
 7064LIG     O242751   3.160   3.172   5.938 -0.1812 -0.0546 -0.3762
 7064LIG     N142752   3.359   3.076   6.000  0.3371 -0.5208  0.4165
 7064LIG     N242753   3.485   2.980   6.319  0.1456 -0.1285 -0.2440
 7064LIG     N342754   3.180   3.119   6.157  0.1261  0.2482  0.5886
 7064LIG     N442755   3.559   2.986   6.108 -0.5644 -0.7412 -0.3214
 7064LIG     C142756   3.380   3.033   6.241  0.2663 -0.5502  0.7335
 7064LIG     C242757   3.431   3.034   6.107 -0.0883  0.3434 -0.3926
 7064LIG     C342758   3.254   3.073   6.270  0.2871 -0.3275  0.4565
 7064LIG     C442759   3.232   3.126   6.025 -0.6564  0.0043  0.2098
 7064LIG     C542760   3.586   2.956   6.237 -0.2780 -0.6526  0.1419
 7064LIG     C642761   3.408   3.070   5.859 -0.9466 -0.2467  0.1529
 7064LIG     C742762   3.488   2.963   6.466  0.2830  0.0343 -0.4194
 7064LIG     C842763   3.041   3.171   6.178  0.3256  0.1253 -0.4129
 7064LIG     H142764   3.684   2.922   6.270  1.0837  2.3846 -0.4844
 7064LIG     H242765   3.325   3.078   5.785 -0.9516 -0.1566  0.1678
 7064LIG     H342766   3.456   2.970   5.848 -0.8176 -0.3921  1.8175
 7064LIG     H442767   3.487   3.145   5.835 -0.3671 -0.7793  0.3726
 7064LIG     H542768   3.483   3.065   6.511 -0.1461  0.2145 -0.8629
 7064LIG     H642769   3.587   2.919   6.489  0.9829  0.6473 -2.0956
 7064LIG     H742770   3.394   2.913   6.499  0.4934  0.0953  0.2811
 7064LIG     H842771   3.034   3.281   6.164 -0.8376 -0.1515 -2.3842
 7064LIG     H942772   3.007   3.153   6.282  0.1405  0.2636 -0.4473
 7064LIG    H1042773   2.961   3.135   6.109 -1.2034 -2.3157  2.3990
   6.90195   6.90195   8.55198
