Title
42773
    1SAPS     N    1   4.457   4.230   6.889  0.0444  0.2769  0.2823
    1SAPS   HN1    2   4.371   4.172   6.885 -1.0516  1.4824  3.2403
    1SAPS   HN2    3   4.446   4.328   6.856 -1.3888  1.2768  3.3499
    1SAPS   HN3    4   4.518   4.187   6.817 -2.3138  1.9831 -2.9693
    1SAPS   C12    5   4.519   4.225   7.027 -0.1652 -0.6249  0.4753
    1SAPS  H12A    6   4.451   4.292   7.078  2.1945  1.1403  1.4955
    1SAPS   C13    7   4.507   4.076   7.082 -0.2973 -0.3747  0.3938
    1SAPS  O13A    8   4.513   3.985   7.002  0.0420 -0.0291 -0.2522
    1SAPS  O13B    9   4.516   4.058   7.206  0.1075  0.5080  0.1364
    1SAPS   C11   10   4.658   4.288   7.015  0.5592 -0.6649 -0.3892
    1SAPS  H11A   11   4.723   4.219   6.957 -0.0751  0.1139 -2.0777
    1SAPS  H11B   12   4.708   4.293   7.114 -2.6854 -0.8573  1.3844
    1SAPS     P   13   4.785   4.461   6.877  0.1837  0.0412  0.2710
    1SAPS   O13   14   4.760   4.588   6.794 -0.0331 -0.7326  0.6069
    1SAPS   O14   15   4.882   4.478   6.985  0.2222 -0.4126 -0.3209
    1SAPS   O12   16   4.649   4.415   6.950  0.4659  0.0460  0.4689
    1SAPS   O11   17   4.823   4.335   6.788  0.1865 -0.7188  0.3018
    1SAPS    C1   18   4.966   4.323   6.738  0.7692  0.2224  0.5180
    1SAPS    HA   19   5.035   4.388   6.796  0.1374  1.9872 -0.6150
    1SAPS    HB   20   4.999   4.218   6.752  0.8365  0.0050 -1.0638
    1SAPS    C2   21   4.970   4.352   6.590 -0.2949 -0.0886  0.4540
    1SAPS    HS   22   4.932   4.455   6.580  0.3077  0.2272  1.2624
    1SAPS   O21   23   4.883   4.252   6.522  0.2495 -0.5862  0.3138
    1SAPS   C21   24   4.832   4.293   6.407 -0.9511  0.6055 -0.5381
    1SAPS   O22   25   4.813   4.411   6.373 -0.6762 -0.2015 -0.2015
    1SAPS   C22   26   4.808   4.184   6.317  0.3097  0.8011 -0.3450
    1SAPS   H2R   27   4.777   4.092   6.369  0.4909  1.1566  0.3984
    1SAPS   H2S   28   4.733   4.212   6.240 -0.5867  0.0904  0.2477
    1SAPS    C3   29   5.120   4.342   6.540 -0.0094 -0.7398 -0.1627
    1SAPS    HX   30   5.154   4.236   6.541  2.7506  0.0440 -1.4429
    1SAPS    HY   31   5.168   4.408   6.614  0.5124  1.7489 -2.5813
    1SAPS   O31   32   5.140   4.392   6.407 -0.2490  0.2540  0.4974
    1SAPS   C31   33   5.228   4.488   6.389 -0.6792  0.1863 -0.5512
    1SAPS   O32   34   5.291   4.548   6.477  0.6602 -0.6690  0.3828
    1SAPS   C32   35   5.265   4.482   6.246 -0.3467 -0.2998 -0.5129
    1SAPS   H2X   36   5.317   4.577   6.224 -1.5893  0.5970  0.2647
    1SAPS   H2Y   37   5.169   4.470   6.192  0.0662 -2.1288 -0.8979
    1SAPS   C23   38   4.947   4.160   6.251 -0.5429  0.7141  0.4222
    1SAPS   H3R   39   5.029   4.140   6.324  0.9579 -0.5380 -1.5115
    1SAPS   H3S   40   4.967   4.251   6.190 -1.8480  1.2800  0.8143
    1SAPS   C24   41   4.941   4.039   6.157  0.1530 -0.0405 -0.0354
    1SAPS   H4R   42   4.873   4.070   6.074  1.6675  3.5279 -0.1644
    1SAPS   H4S   43   4.905   3.949   6.211 -1.7302 -0.1175 -1.2952
    1SAPS   C25   44   5.074   4.003   6.101  0.8292 -0.1663 -0.3243
    1SAPS   H5R   45   5.141   3.962   6.179  0.2765 -0.3103  0.0804
    1SAPS   C26   46   5.125   4.016   5.979 -0.1199 -0.7459 -0.2598
    1SAPS   H6R   47   5.221   3.967   5.954  1.1331  1.6642 -0.4144
    1SAPS   C27   48   5.045   4.063   5.851 -0.1255  0.6263  0.3770
    1SAPS   H7R   49   4.936   4.075   5.871 -0.7337  0.1357 -2.2597
    1SAPS   H7S   50   5.070   3.981   5.780 -1.6924  0.7887 -0.4063
    1SAPS   C28   51   5.093   4.187   5.777  0.2454 -0.2560  0.3470
    1SAPS   H8R   52   5.139   4.267   5.836 -1.3340  1.8729 -1.1861
    1SAPS   C29   53   5.109   4.197   5.645  0.2434  0.0003 -0.1247
    1SAPS   H9R   54   5.156   4.287   5.603  0.1146  0.2394  0.2462
    1SAPS  C210   55   5.093   4.100   5.535  0.5275  0.5710 -0.7647
    1SAPS  H10R   56   5.168   4.023   5.565 -1.1863 -0.4873  1.0703
    1SAPS  H10S   57   5.134   4.132   5.437  1.6393  1.7564  0.0507
    1SAPS  C211   58   4.956   4.041   5.527 -0.1428 -0.2156 -0.4567
    1SAPS  H11R   59   4.907   4.029   5.625 -1.6703  1.8032 -0.9239
    1SAPS  C212   60   4.890   4.031   5.416 -0.1589 -0.0392  0.5448
    1SAPS  H12R   61   4.800   3.969   5.429  0.0301 -0.1979  1.1345
    1SAPS  C213   62   4.925   4.062   5.274  0.3128  0.1003  0.4579
    1SAPS  H13R   63   5.009   4.134   5.268  2.4239 -2.2241  0.5483
    1SAPS  H13S   64   4.835   4.111   5.230  0.8634 -1.6793 -3.0130
    1SAPS  C214   65   4.966   3.947   5.188  0.5680  0.1958  0.7735
    1SAPS  H14R   66   5.057   3.896   5.224 -0.2451 -1.0616  1.1103
    1SAPS  C215   67   4.911   3.909   5.069  0.0258 -0.3783 -0.3921
    1SAPS  H15R   68   4.956   3.823   5.018 -2.9730 -1.2662 -1.7701
    1SAPS  C216   69   4.799   3.976   4.994 -0.4307  1.0449  0.0665
    1SAPS  H16R   70   4.769   4.075   5.036 -0.5638  0.6430  0.9389
    1SAPS  H16S   71   4.707   3.915   5.010 -1.0726  2.4156  1.9915
    1SAPS  C217   72   4.815   3.993   4.843 -0.2080 -0.3520 -1.1105
    1SAPS  H17R   73   4.819   3.894   4.793 -0.9269 -0.6461 -0.6092
    1SAPS  H17S   74   4.909   4.049   4.826 -0.2086 -0.0685 -0.2057
    1SAPS  C218   75   4.706   4.068   4.767 -0.5180  0.0009 -0.1027
    1SAPS  H18R   76   4.707   4.173   4.803  1.9163  0.3149 -0.9254
    1SAPS  H18S   77   4.611   4.020   4.798 -0.0111  0.3837  2.2861
    1SAPS  C219   78   4.715   4.080   4.613 -0.2229  1.3759  0.3631
    1SAPS  H19R   79   4.618   4.110   4.568  0.2152  3.4420  0.6815
    1SAPS  H19S   80   4.729   3.972   4.589 -1.7661  0.9829  1.0922
    1SAPS  C220   81   4.844   4.163   4.574  0.3176  0.4964 -0.1250
    1SAPS  H20R   82   4.845   4.173   4.463  0.8855 -1.1130 -0.2936
    1SAPS  H20S   83   4.937   4.114   4.612 -1.0327 -1.9470  0.2698
    1SAPS  H20T   84   4.823   4.263   4.618 -1.5112  0.2116 -0.2653
    1SAPS   C33   85   5.348   4.359   6.211 -0.8508 -0.8980  0.4213
    1SAPS   H3X   86   5.313   4.263   6.255  0.2398 -0.5118  2.2617
    1SAPS   H3Y   87   5.453   4.372   6.245 -0.7121  0.5551 -0.4817
    1SAPS   C34   88   5.359   4.352   6.059  0.5649 -0.6210  0.5201
    1SAPS   H4X   89   5.384   4.449   6.013 -1.8481 -0.2402 -0.0784
    1SAPS   H4Y   90   5.260   4.329   6.016 -0.7518  1.8728  1.9641
    1SAPS   C35   91   5.470   4.255   6.017  0.1436  0.2576  0.2082
    1SAPS   H5X   92   5.459   4.214   5.914  1.6425  1.7775 -0.6204
    1SAPS   H5Y   93   5.459   4.165   6.081 -1.5293 -0.7420 -1.3945
    1SAPS   C36   94   5.615   4.309   6.027  0.2467 -0.0603 -0.3978
    1SAPS   H6X   95   5.685   4.230   5.990  0.2715 -0.0533 -0.3674
    1SAPS   H6Y   96   5.652   4.324   6.131  1.0482 -1.5380 -0.4336
    1SAPS   C37   97   5.648   4.433   5.949 -0.1369 -0.4307 -0.8336
    1SAPS   H7X   98   5.742   4.478   5.986  1.4468 -2.1052 -2.5789
    1SAPS   H7Y   99   5.568   4.510   5.955  0.8281  0.7372 -2.2965
    1SAPS   C38  100   5.672   4.396   5.802  0.3160 -0.0664  0.2354
    1SAPS   H8X  101   5.568   4.373   5.770  0.8179  0.4496 -1.9356
    1SAPS   H8Y  102   5.737   4.306   5.798 -0.6765 -0.7434 -1.2209
    1SAPS   C39  103   5.756   4.500   5.732  0.2150  0.2638  0.1940
    1SAPS   H9X  104   5.834   4.537   5.802  1.5098  1.8761 -1.9506
    1SAPS   H9Y  105   5.699   4.592   5.708  0.0644  0.1821  0.2396
    1SAPS  C310  106   5.805   4.445   5.601 -0.5258 -0.2004 -0.1752
    1SAPS  H10X  107   5.844   4.344   5.627 -0.8360 -0.1610  0.4702
    1SAPS  H10Y  108   5.900   4.500   5.582 -0.7453  1.4016  2.7833
    1SAPS  C311  109   5.716   4.458   5.475 -0.2489 -0.2438 -0.3007
    1SAPS  H11X  110   5.751   4.394   5.392  0.2064 -0.7751  0.2948
    1SAPS  H11Y  111   5.713   4.565   5.446 -1.2019 -0.2029 -0.0942
    1SAPS  C312  112   5.567   4.421   5.485 -0.1551 -0.2940 -0.8896
    1SAPS  H12X  113   5.524   4.479   5.569  0.8547  1.2692 -1.4142
    1SAPS  H12Y  114   5.539   4.315   5.501  0.1803 -0.5390 -1.8377
    1SAPS  C313  115   5.491   4.476   5.364  0.4285 -0.4603  0.2411
    1SAPS  H13X  116   5.531   4.437   5.268 -1.1466 -1.3568 -0.0773
    1SAPS  H13Y  117   5.496   4.587   5.357 -1.9061 -0.2905  0.7305
    1SAPS  C314  118   5.347   4.444   5.381 -0.3020 -0.3411 -0.0950
    1SAPS  H14X  119   5.307   4.478   5.479  2.1784 -1.0023  1.2237
    1SAPS  H14Y  120   5.331   4.336   5.400 -1.0359 -0.1977  0.1287
    1SAPS  C315  121   5.254   4.481   5.261 -0.4976  0.1018 -0.3367
    1SAPS  H15X  122   5.286   4.425   5.170 -1.6157 -2.1247  0.5708
    1SAPS  H15Y  123   5.277   4.589   5.255 -0.2827  0.3791  3.2997
    1SAPS  C316  124   5.105   4.479   5.282 -0.5338  0.2084 -1.0224
    1SAPS  H16X  125   5.093   4.402   5.361  0.6459 -1.3000 -2.2326
    1SAPS  H16Y  126   5.053   4.451   5.188  1.4934  0.3537 -2.2490
    1SAPS  C317  127   5.037   4.607   5.341  0.4295  0.3461  1.4470
    1SAPS  H17X  128   5.013   4.677   5.258  0.2313 -0.9008  0.4192
    1SAPS  H17Y  129   5.112   4.656   5.407  0.7221  2.7712 -0.5314
    1SAPS  C318  130   4.914   4.578   5.427 -0.1627  1.1339 -0.2200
    1SAPS  H18X  131   4.833   4.551   5.356  0.9675 -1.5112 -0.6261
    1SAPS  H18Y  132   4.882   4.652   5.502 -0.9623 -1.1308  1.7948
    1SAPS  H18Z  133   4.927   4.480   5.478  0.3585  2.0382  1.4490
    2SAPS     N  134   4.896   0.155   7.220  0.1086  0.2625  0.4541
    2SAPS   HN1  135   4.894   0.168   7.323  3.9099 -0.5294  0.7690
    2SAPS   HN2  136   4.856   0.063   7.194 -1.1788  1.0994 -0.6678
    2SAPS   HN3  137   4.998   0.157   7.201  0.0116 -1.1817 -0.3831
    2SAPS   C12  138   4.829   0.249   7.118  0.3782 -0.4089  0.2826
    2SAPS  H12A  139   4.873   0.221   7.024 -0.2472 -1.5629  0.3188
    2SAPS   C13  140   4.674   0.222   7.112 -0.6391 -0.2274  0.2121
    2SAPS  O13A  141   4.631   0.119   7.172 -0.0099  0.0700 -0.0390
    2SAPS  O13B  142   4.607   0.286   7.030 -0.2900  0.1562  0.0200
    2SAPS   C11  143   4.849   0.396   7.157 -0.0720  0.1749  0.2806
    2SAPS  H11A  144   4.810   0.464   7.077  1.1701 -0.2178 -0.6948
    2SAPS  H11B  145   4.959   0.413   7.153 -0.3744  2.1991 -2.0173
    2SAPS     P  146   4.843   0.558   7.350  0.2935 -0.0778 -0.2064
    2SAPS   O13  147   4.775   0.577   7.482 -0.7262  0.4376 -0.4189
    2SAPS   O14  148   4.988   0.550   7.369 -0.0201  0.4013 -0.2650
    2SAPS   O12  149   4.790   0.419   7.285  0.5921 -0.0779  0.0528
    2SAPS   O11  150   4.808   0.675   7.253  0.4182  0.0783 -0.5689
    2SAPS    C1  151   4.676   0.728   7.232  0.8371 -0.8225 -0.0108
    2SAPS    HA  152   4.592   0.672   7.278 -2.3878  2.3334 -1.5469
    2SAPS    HB  153   4.671   0.832   7.271  1.6567 -0.6074 -0.4670
    2SAPS    C2  154   4.644   0.727   7.073  0.2389  0.3000 -0.3053
    2SAPS    HS  155   4.621   0.620   7.054 -0.9388  0.0895  1.9721
    2SAPS   O21  156   4.760   0.772   7.003  0.5714 -0.4629  0.1277
    2SAPS   C21  157   4.789   0.710   6.889 -0.2520 -0.4102 -0.1803
    2SAPS   O22  158   4.725   0.617   6.851  0.2992 -0.2192  0.6418
    2SAPS   C22  159   4.910   0.780   6.820 -0.3638 -0.7628  0.4153
    2SAPS   H2R  160   4.916   0.888   6.842 -0.6132 -0.4394 -1.0307
    2SAPS   H2S  161   4.999   0.734   6.868 -0.5498 -2.0928 -0.4578
    2SAPS    C3  162   4.501   0.787   7.027 -0.2296 -0.2737  0.1336
    2SAPS    HX  163   4.484   0.877   7.090 -0.5026 -0.7262  0.7127
    2SAPS    HY  164   4.414   0.723   7.052 -1.2287  1.1271  0.4171
    2SAPS   O31  165   4.510   0.842   6.892  0.4964  0.1320 -0.1267
    2SAPS   C31  166   4.444   0.770   6.799 -0.3912  0.0192 -0.5833
    2SAPS   O32  167   4.375   0.671   6.825 -0.3047 -0.6356 -0.3420
    2SAPS   C32  168   4.459   0.843   6.665 -0.1846  0.1889  0.8585
    2SAPS   H2X  169   4.557   0.895   6.674 -0.1222 -0.0849  1.9481
    2SAPS   H2Y  170   4.372   0.911   6.657 -0.1788 -0.0094 -3.8632
    2SAPS   C23  171   4.908   0.762   6.667 -0.3457  0.5248  0.0401
    2SAPS   H3R  172   4.813   0.803   6.625 -0.5499 -0.3757 -0.3966
    2SAPS   H3S  173   4.922   0.653   6.653  1.6954  0.6457  0.7994
    2SAPS   C24  174   5.017   0.849   6.599  0.2400 -0.0547  0.1167
    2SAPS   H4R  175   5.012   0.952   6.641 -0.3648 -0.3470  0.7826
    2SAPS   H4S  176   4.991   0.858   6.491  0.6546  2.2174  0.1663
    2SAPS   C25  177   5.153   0.794   6.604 -0.3562  0.3088  0.0732
    2SAPS   H5R  178   5.195   0.785   6.705  2.0900  1.3538 -0.7558
    2SAPS   C26  179   5.229   0.767   6.498  0.0828  0.9829 -0.4321
    2SAPS   H6R  180   5.333   0.736   6.519  0.1027  2.2727  1.5574
    2SAPS   C27  181   5.198   0.783   6.353  0.6609 -0.0083  0.0648
    2SAPS   H7R  182   5.151   0.884   6.348 -0.4708 -0.5289  0.0749
    2SAPS   H7S  183   5.125   0.708   6.317  1.4130 -0.3153 -0.8863
    2SAPS   C28  184   5.325   0.776   6.265 -0.1350 -0.2290 -0.2256
    2SAPS   H8R  185   5.409   0.720   6.308  0.3742 -0.9422 -2.0490
    2SAPS   C29  186   5.342   0.811   6.134  0.9666  0.0759  0.0044
    2SAPS   H9R  187   5.443   0.803   6.090  1.8661  0.0183  1.9491
    2SAPS  C210  188   5.242   0.885   6.047  0.1460  0.3373  0.0173
    2SAPS  H10R  189   5.286   0.978   6.005 -0.1483 -0.3461 -1.8907
    2SAPS  H10S  190   5.144   0.905   6.095 -1.7896 -1.5332 -2.8328
    2SAPS  C211  191   5.194   0.789   5.943  0.0359 -0.3060  0.0480
    2SAPS  H11R  192   5.147   0.695   5.977  0.0862  0.2106  1.6032
    2SAPS  C212  193   5.211   0.804   5.807 -0.2799 -0.4450  0.0125
    2SAPS  H12R  194   5.195   0.721   5.736  1.6057 -1.9981  1.2987
    2SAPS  C213  195   5.277   0.922   5.740  0.4351 -0.0679 -0.0759
    2SAPS  H13R  196   5.343   0.981   5.807  0.3101  1.0260 -0.8814
    2SAPS  H13S  197   5.198   0.996   5.715  1.0679  0.6821  0.1205
    2SAPS  C214  198   5.365   0.885   5.623 -0.1112  0.3497 -0.1909
    2SAPS  H14R  199   5.463   0.844   5.649  0.6087  2.2474  0.2421
    2SAPS  C215  200   5.338   0.888   5.488  0.2001 -0.5902 -0.3868
    2SAPS  H15R  201   5.424   0.873   5.420 -1.0026  3.4482 -3.1877
    2SAPS  C216  202   5.209   0.939   5.423  0.9683 -0.5152 -0.2138
    2SAPS  H16R  203   5.143   1.004   5.484 -2.2034 -3.3364 -0.3421
    2SAPS  H16S  204   5.140   0.856   5.397 -0.2009  0.6420 -0.9927
    2SAPS  C217  205   5.252   1.012   5.293 -0.3985  0.0067  0.4691
    2SAPS  H17R  206   5.320   1.097   5.313 -1.1011  0.8248 -0.4880
    2SAPS  H17S  207   5.163   1.039   5.232  0.0494  0.9608  0.2268
    2SAPS  C218  208   5.328   0.923   5.185 -0.2819  0.4750  0.1245
    2SAPS  H18R  209   5.434   0.905   5.214 -0.3909  0.1031  0.2912
    2SAPS  H18S  210   5.335   0.984   5.092 -1.0803  1.5282  0.7397
    2SAPS  C219  211   5.265   0.793   5.151  0.1412  0.5444 -0.2307
    2SAPS  H19R  212   5.163   0.799   5.106 -0.6470 -2.6297  0.8282
    2SAPS  H19S  213   5.266   0.732   5.244 -0.3169  0.2302 -0.4253
    2SAPS  C220  214   5.355   0.713   5.064  1.2158  0.1791 -0.3282
    2SAPS  H20R  215   5.298   0.619   5.046  2.0254 -0.5485  0.7629
    2SAPS  H20S  216   5.453   0.699   5.114  1.7376 -0.1230 -1.4094
    2SAPS  H20T  217   5.382   0.760   4.967 -0.9457  2.7827  0.2089
    2SAPS   C33  218   4.450   0.743   6.550 -0.1359 -0.2194 -0.0735
    2SAPS   H3X  219   4.363   0.675   6.558  1.5785 -2.6102 -0.3846
    2SAPS   H3Y  220   4.536   0.673   6.545 -0.0802 -0.0699 -2.2239
    2SAPS   C34  221   4.440   0.813   6.411 -0.0485 -0.7489 -0.0357
    2SAPS   H4X  222   4.538   0.856   6.379 -1.1974  1.1129 -1.2402
    2SAPS   H4Y  223   4.371   0.900   6.415 -0.6097 -1.2358  2.1032
    2SAPS   C35  224   4.394   0.720   6.297  0.2921  0.4644 -0.0786
    2SAPS   H5X  225   4.284   0.706   6.306  0.3531  0.5323  0.8088
    2SAPS   H5Y  226   4.438   0.618   6.292 -0.2799  0.2770 -2.3661
    2SAPS   C36  227   4.419   0.780   6.152 -0.2653 -0.3855 -0.2772
    2SAPS   H6X  228   4.528   0.767   6.133 -0.3183 -1.9963  0.3568
    2SAPS   H6Y  229   4.384   0.885   6.153 -0.4835 -0.4535 -0.5710
    2SAPS   C37  230   4.341   0.715   6.031 -0.0626 -0.2972  0.3173
    2SAPS   H7X  231   4.230   0.726   6.040  0.0276  0.7451  0.2940
    2SAPS   H7Y  232   4.354   0.605   6.019 -0.3007 -0.3699  0.7037
    2SAPS   C38  233   4.388   0.776   5.897 -0.4664 -0.0490  0.2254
    2SAPS   H8X  234   4.498   0.783   5.909 -0.3002 -2.0665  0.2049
    2SAPS   H8Y  235   4.330   0.869   5.877  0.5047  0.4270 -0.4689
    2SAPS   C39  236   4.356   0.695   5.767  0.2834 -0.8085 -0.3627
    2SAPS   H9X  237   4.246   0.688   5.750  0.2809 -1.7403 -0.0092
    2SAPS   H9Y  238   4.389   0.589   5.759 -1.3091 -1.2911 -1.0180
    2SAPS  C310  239   4.413   0.767   5.648  0.0359  0.9844  0.4954
    2SAPS  H10X  240   4.523   0.755   5.658 -0.0946 -0.6319  0.2847
    2SAPS  H10Y  241   4.379   0.872   5.647 -1.1718  0.6080  0.9140
    2SAPS  C311  242   4.369   0.693   5.521 -0.1618  0.2011  0.3334
    2SAPS  H11X  243   4.266   0.720   5.489 -0.3890  1.0351  1.6793
    2SAPS  H11Y  244   4.359   0.583   5.534  0.1044  0.4049  2.7604
    2SAPS  C312  245   4.449   0.729   5.392  0.5654 -0.3872  0.1242
    2SAPS  H12X  246   4.553   0.736   5.430 -0.4404 -0.1568  3.1186
    2SAPS  H12Y  247   4.417   0.832   5.363  2.7825  0.0441 -0.9534
    2SAPS  C313  248   4.432   0.642   5.269  0.1448  0.1668  0.4185
    2SAPS  H13X  249   4.504   0.558   5.281  0.5736  0.4471 -0.1298
    2SAPS  H13Y  250   4.474   0.704   5.187  0.3805 -0.2629  0.2124
    2SAPS  C314  251   4.281   0.618   5.229  0.3543  0.0864  0.1205
    2SAPS  H14X  252   4.234   0.719   5.235 -0.2721 -0.2394  0.9118
    2SAPS  H14Y  253   4.229   0.557   5.306  2.3320 -0.6085  0.9620
    2SAPS  C315  254   4.255   0.561   5.088  0.1577  0.2871  0.1964
    2SAPS  H15X  255   4.298   0.459   5.093 -1.4174 -0.3469  1.6681
    2SAPS  H15Y  256   4.324   0.616   5.020  1.3716  0.3417  1.4157
    2SAPS  C316  257   4.104   0.582   5.041 -0.5994 -0.2444  0.3522
    2SAPS  H16X  258   4.055   0.666   5.095  1.2815  0.3925  1.1233
    2SAPS  H16Y  259   4.058   0.482   5.060  0.2510 -0.5976  0.5909
    2SAPS  C317  260   4.090   0.613   4.894  0.1677  0.4052 -0.0394
    2SAPS  H17X  261   3.986   0.599   4.860  1.1066 -4.0321 -1.8611
    2SAPS  H17Y  262   4.129   0.538   4.822 -0.0377  1.2231 -1.0190
    2SAPS  C318  263   4.155   0.744   4.842  0.7286  0.1004 -0.1861
    2SAPS  H18X  264   4.082   0.828   4.849  1.8559  1.2232 -1.2132
    2SAPS  H18Y  265   4.169   0.725   4.734  1.4580 -1.1438  0.1152
    2SAPS  H18Z  266   4.259   0.759   4.878 -0.0552  1.3779  1.7434
    3SAPS     N  267   5.419   5.838   7.171 -0.3192 -0.3144  1.2144
    3SAPS   HN1  268   5.407   5.848   7.068  1.5634 -1.2976  0.8555
    3SAPS   HN2  269   5.425   5.929   7.221 -0.2711 -0.6659  1.8575
    3SAPS   HN3  270   5.508   5.788   7.187  0.0600  0.5434  1.8943
    3SAPS   C12  271   5.304   5.762   7.227  0.0851 -0.4656 -0.2500
    3SAPS  H12A  272   5.299   5.668   7.173 -1.0064 -1.4938  1.5207
    3SAPS   C13  273   5.310   5.750   7.385 -0.2637  0.1601  0.2443
    3SAPS  O13A  274   5.424   5.758   7.439  0.8396  0.1027 -0.0788
    3SAPS  O13B  275   5.213   5.698   7.449 -0.1438 -0.0452  0.4090
    3SAPS   C11  276   5.174   5.834   7.189  0.1112  0.3650  0.2841
    3SAPS  H11A  277   5.088   5.793   7.246 -1.3934  0.7583 -1.6257
    3SAPS  H11B  278   5.142   5.805   7.087  1.2024 -0.8294  0.2617
    3SAPS     P  279   5.047   6.069   7.192 -0.0246  0.0624  0.1513
    3SAPS   O13  280   4.931   6.008   7.256  0.1133  0.1882 -0.4021
    3SAPS   O14  281   5.089   6.202   7.238  0.0909  0.2510 -0.2067
    3SAPS   O12  282   5.177   5.976   7.204 -0.1555 -0.1075  0.8061
    3SAPS   O11  283   5.023   6.074   7.036 -0.1845 -0.2338  0.8642
    3SAPS    C1  284   5.133   6.055   6.949  0.5035  0.5827  0.1147
    3SAPS    HA  285   5.233   6.047   6.995  1.4760 -2.3908 -2.2321
    3SAPS    HB  286   5.112   5.963   6.891 -1.6908  0.8825  0.3573
    3SAPS    C2  287   5.128   6.166   6.843  0.4150  0.2227 -0.8353
    3SAPS    HS  288   5.124   6.263   6.897  0.0104 -1.4382  2.3580
    3SAPS   O21  289   5.021   6.153   6.749 -0.4800  0.4034  0.5994
    3SAPS   C21  290   4.993   6.252   6.673 -0.5305 -0.1729  0.0095
    3SAPS   O22  291   5.042   6.367   6.679  0.5184 -0.2411  0.2621
    3SAPS   C22  292   4.888   6.190   6.574  0.5579 -0.0478 -0.1010
    3SAPS   H2R  293   4.888   6.079   6.575 -1.7039 -0.1151 -0.9914
    3SAPS   H2S  294   4.784   6.200   6.611 -0.0238 -3.3828 -0.5463
    3SAPS    C3  295   5.266   6.175   6.760 -0.2530 -0.2490 -0.5207
    3SAPS    HX  296   5.344   6.187   6.837 -0.3099  2.8824 -0.8416
    3SAPS    HY  297   5.269   6.265   6.696 -0.6633  0.1714  0.0454
    3SAPS   O31  298   5.283   6.061   6.673 -0.7928 -0.2034  0.4857
    3SAPS   C31  299   5.402   6.045   6.625  0.1439  0.0533 -0.7904
    3SAPS   O32  300   5.501   6.113   6.643 -0.0014 -0.5151  0.4865
    3SAPS   C32  301   5.398   5.931   6.526  0.5361 -0.1574 -0.2643
    3SAPS   H2X  302   5.318   5.959   6.454  3.0931  3.0672 -2.1590
    3SAPS   H2Y  303   5.365   5.838   6.576  1.4413  0.4462  1.5857
    3SAPS   C23  304   4.902   6.238   6.425 -0.0308 -0.0185  0.0456
    3SAPS   H3R  305   4.922   6.348   6.427 -1.9815  0.4303 -1.0937
    3SAPS   H3S  306   4.804   6.224   6.374 -0.4456  0.0176  0.8210
    3SAPS   C24  307   5.012   6.168   6.340 -0.2292  0.0260 -0.6585
    3SAPS   H4R  308   5.102   6.165   6.405 -1.3877 -1.5310  0.9851
    3SAPS   H4S  309   5.033   6.234   6.253 -0.2774  0.6411 -0.2105
    3SAPS   C25  310   4.973   6.029   6.296 -0.0787  0.8434 -0.0455
    3SAPS   H5R  311   4.941   5.964   6.378  0.9891 -0.2650 -0.4833
    3SAPS   C26  312   4.971   5.977   6.171  0.2568  0.0746 -1.3557
    3SAPS   H6R  313   4.939   5.873   6.161  0.8159 -0.2104 -0.3655
    3SAPS   C27  314   5.011   6.037   6.042 -0.4213 -0.1514 -0.4258
    3SAPS   H7R  315   5.026   6.147   6.048  0.5321 -0.3518  1.3756
    3SAPS   H7S  316   4.915   6.031   5.986 -1.1599 -1.7543  0.9059
    3SAPS   C28  317   5.130   5.981   5.971 -0.1302  0.2681 -0.1032
    3SAPS   H8R  318   5.205   5.930   6.034 -2.8061 -0.5557  2.6809
    3SAPS   C29  319   5.136   5.969   5.839  0.2240  0.4043  0.5560
    3SAPS   H9R  320   5.227   5.913   5.810 -0.6288 -1.0758  0.6160
    3SAPS  C210  321   5.052   6.027   5.727  0.2046 -0.1869  0.1444
    3SAPS  H10R  322   5.121   6.091   5.668  2.3289 -2.4219  0.0505
    3SAPS  H10S  323   4.975   6.086   5.782  0.9723  0.1361  0.9049
    3SAPS  C211  324   4.992   5.919   5.637 -0.2274  0.0645 -0.1237
    3SAPS  H11R  325   4.983   5.823   5.689 -1.8494  0.2926  0.0586
    3SAPS  C212  326   4.961   5.932   5.508  0.1294 -0.0299  0.1768
    3SAPS  H12R  327   4.925   5.850   5.443  1.3668 -1.8485  1.6817
    3SAPS  C213  328   4.980   6.067   5.442 -0.0941 -0.6904 -0.0605
    3SAPS  H13R  329   5.087   6.097   5.447 -0.0457 -1.0318  1.2224
    3SAPS  H13S  330   4.937   6.146   5.507  0.2887 -1.9576  1.8005
    3SAPS  C214  331   4.936   6.084   5.297  0.7209  0.1749  0.9693
    3SAPS  H14R  332   4.872   6.171   5.276  0.6140  0.1660  1.2507
    3SAPS  C215  333   4.992   6.030   5.190 -1.5763  0.5257  0.1883
    3SAPS  H15R  334   4.940   6.044   5.094 -1.2002  0.3458 -0.0428
    3SAPS  C216  335   5.103   5.928   5.175 -0.0992  0.4087  0.2159
    3SAPS  H16R  336   5.092   5.855   5.258 -0.5166  0.9494  0.6444
    3SAPS  H16S  337   5.198   5.984   5.191  0.0857  0.6836 -1.6384
    3SAPS  C217  338   5.105   5.844   5.048 -0.0386  0.4221  0.2015
    3SAPS  H17R  339   5.006   5.801   5.024  1.0419 -2.6597  0.7731
    3SAPS  H17S  340   5.169   5.760   5.083  1.5947  1.6604  0.3014
    3SAPS  C218  341   5.169   5.917   4.933  0.3088 -0.3524 -0.0222
    3SAPS  H18R  342   5.242   5.994   4.967  0.7369 -0.1358 -1.3821
    3SAPS  H18S  343   5.088   5.969   4.878 -2.3328 -0.7793  3.1414
    3SAPS  C219  344   5.240   5.823   4.835 -0.9384 -0.7306  0.1075
    3SAPS  H19R  345   5.321   5.777   4.897 -0.3130  3.3578  2.6668
    3SAPS  H19S  346   5.179   5.737   4.799 -1.7285  0.9856 -2.9738
    3SAPS  C220  347   5.302   5.875   4.706  0.3396  0.7324 -0.3228
    3SAPS  H20R  348   5.228   5.915   4.634 -1.4561  1.1765  1.6956
    3SAPS  H20S  349   5.357   5.792   4.656 -0.4022  1.1090 -1.8152
    3SAPS  H20T  350   5.376   5.955   4.727  0.2628  0.4090  1.3016
    3SAPS   C33  351   5.528   5.896   6.447 -0.4599 -0.1509  1.1203
    3SAPS   H3X  352   5.611   5.887   6.520 -0.4095  0.5753  1.1598
    3SAPS   H3Y  353   5.563   5.979   6.381 -0.8646 -0.3412  0.6584
    3SAPS   C34  354   5.511   5.768   6.354 -0.2699 -0.5142 -0.2478
    3SAPS   H4X  355   5.502   5.669   6.404  1.6212 -0.8203 -0.4305
    3SAPS   H4Y  356   5.601   5.759   6.290  0.2511 -1.3236  0.5731
    3SAPS   C35  357   5.389   5.769   6.263 -0.1190 -0.1501 -0.0095
    3SAPS   H5X  358   5.310   5.756   6.340  0.1233 -0.9249  0.1178
    3SAPS   H5Y  359   5.379   5.867   6.213  0.1285  0.7389  1.5981
    3SAPS   C36  360   5.373   5.646   6.169 -0.1943 -0.7154  0.9668
    3SAPS   H6X  361   5.395   5.553   6.225 -0.2172 -1.4346 -0.1945
    3SAPS   H6Y  362   5.442   5.652   6.083  0.6213 -2.4387  1.4639
    3SAPS   C37  363   5.230   5.630   6.127 -0.5783 -0.4365 -0.0900
    3SAPS   H7X  364   5.204   5.734   6.098  0.0349 -0.2452  0.0353
    3SAPS   H7Y  365   5.174   5.598   6.217 -0.5109 -1.6132 -0.4581
    3SAPS   C38  366   5.213   5.532   6.012 -0.1409 -0.1144 -0.3263
    3SAPS   H8X  367   5.227   5.429   6.050 -0.2313 -0.4909 -1.2851
    3SAPS   H8Y  368   5.297   5.541   5.940  0.2158 -1.5367 -0.1284
    3SAPS   C39  369   5.080   5.543   5.932 -0.2627 -0.1902 -0.1314
    3SAPS   H9X  370   5.035   5.644   5.937  1.4338  0.6496 -1.3094
    3SAPS   H9Y  371   4.999   5.476   5.970 -1.7948  0.7109 -1.6880
    3SAPS  C310  372   5.103   5.522   5.780 -0.0072  0.2565  0.3591
    3SAPS  H10X  373   5.191   5.586   5.756 -0.5536  0.5259 -1.0612
    3SAPS  H10Y  374   5.032   5.578   5.716  1.4221  0.3950 -1.1897
    3SAPS  C311  375   5.121   5.370   5.737 -0.1294 -0.2854 -0.1923
    3SAPS  H11X  376   5.027   5.309   5.735 -0.0744 -0.3669 -0.3161
    3SAPS  H11Y  377   5.182   5.327   5.819  1.8676  0.9839 -0.9460
    3SAPS  C312  378   5.187   5.349   5.596  0.0034  0.2472 -0.3328
    3SAPS  H12X  379   5.191   5.242   5.570 -0.2760  0.3834 -0.9481
    3SAPS  H12Y  380   5.293   5.380   5.611 -0.1220  0.1855  0.7437
    3SAPS  C313  381   5.129   5.432   5.483  0.6963 -0.2183  0.4619
    3SAPS  H13X  382   5.169   5.535   5.500 -1.1703  0.6192 -0.0083
    3SAPS  H13Y  383   5.019   5.438   5.480  0.6179  1.7135 -5.0699
    3SAPS  C314  384   5.192   5.389   5.341 -0.6473  0.2978  0.9404
    3SAPS  H14X  385   5.170   5.284   5.315 -0.4830  0.3398  0.6267
    3SAPS  H14Y  386   5.302   5.378   5.335 -0.7639 -0.2241 -1.1209
    3SAPS  C315  387   5.122   5.455   5.217 -0.0577 -0.8668 -0.4464
    3SAPS  H15X  388   5.134   5.564   5.229 -1.4320 -0.8766  1.5845
    3SAPS  H15Y  389   5.014   5.427   5.219 -0.0634 -0.8821  1.9273
    3SAPS  C316  390   5.169   5.433   5.072  0.5334 -0.1207 -0.3056
    3SAPS  H16X  391   5.183   5.527   5.015  0.7869 -1.1282 -1.9600
    3SAPS  H16Y  392   5.093   5.374   5.019  0.9699 -1.6822  0.7368
    3SAPS  C317  393   5.288   5.342   5.046 -0.8353 -0.6906  0.0757
    3SAPS  H17X  394   5.284   5.234   5.071 -3.8598 -0.4440  1.0577
    3SAPS  H17Y  395   5.376   5.372   5.107  0.7382 -1.9079 -1.4827
    3SAPS  C318  396   5.329   5.354   4.900 -0.8669 -0.5677  0.7399
    3SAPS  H18X  397   5.343   5.460   4.872  1.9385 -1.7325 -2.9742
    3SAPS  H18Y  398   5.262   5.307   4.824 -2.5808 -0.6697  2.2318
    3SAPS  H18Z  399   5.429   5.315   4.873 -0.6070  0.6760 -0.1889
    4SAPS     N  400   4.355   3.607   6.744 -0.5570  0.0372 -0.5113
    4SAPS   HN1  401   4.274   3.611   6.680 -2.5988  1.0854  1.9775
    4SAPS   HN2  402   4.328   3.571   6.838 -0.5691  0.7486 -0.2369
    4SAPS   HN3  403   4.396   3.702   6.754  0.2243 -0.3330  0.0207
    4SAPS   C12  404   4.457   3.527   6.674 -0.5009  0.0982 -0.2924
    4SAPS  H12A  405   4.464   3.562   6.572  1.0839  0.0821 -0.2075
    4SAPS   C13  406   4.598   3.539   6.737  0.6496  0.1101 -0.4826
    4SAPS  O13A  407   4.629   3.643   6.801  0.7357  0.6503  0.1140
    4SAPS  O13B  408   4.685   3.473   6.678  0.1520 -0.6665 -0.6587
    4SAPS   C11  409   4.409   3.382   6.658  0.5975 -0.4290  0.3400
    4SAPS  H11A  410   4.374   3.335   6.752  1.0259 -0.1003  0.6679
    4SAPS  H11B  411   4.493   3.326   6.611  1.2775  2.0081 -1.5615
    4SAPS     P  412   4.239   3.255   6.502 -0.1538  0.6645 -0.2632
    4SAPS   O13  413   4.228   3.155   6.611 -0.1169 -0.0844  0.3536
    4SAPS   O14  414   4.119   3.292   6.430  0.4511  0.9520 -0.1942
    4SAPS   O12  415   4.294   3.384   6.575  0.0285  0.4100 -0.8184
    4SAPS   O11  416   4.354   3.212   6.406 -0.5346 -0.6016 -0.7302
    4SAPS    C1  417   4.404   3.321   6.325 -0.0372 -0.1518  0.3788
    4SAPS    HA  418   4.413   3.419   6.378 -0.5942 -0.2141  0.5898
    4SAPS    HB  419   4.509   3.302   6.293 -0.0649  3.4443 -2.5988
    4SAPS    C2  420   4.322   3.357   6.190 -0.4773  0.6106  0.3314
    4SAPS    HS  421   4.231   3.410   6.224 -1.3405  0.1673 -1.2329
    4SAPS   O21  422   4.286   3.227   6.128 -0.1345 -0.2166 -0.1500
    4SAPS   C21  423   4.191   3.223   6.036  0.3351  0.3242 -0.4191
    4SAPS   O22  424   4.109   3.314   6.020  0.2950  0.6775 -0.0155
    4SAPS   C22  425   4.202   3.086   5.964  0.2766  0.2326  0.7170
    4SAPS   H2R  426   4.299   3.085   5.910  0.3340  0.4843  0.8157
    4SAPS   H2S  427   4.208   3.001   6.036  1.0038 -0.3465 -0.0096
    4SAPS    C3  428   4.411   3.449   6.092  0.6604 -0.0755  0.8137
    4SAPS    HX  429   4.499   3.387   6.062  2.1514  3.1581 -2.3209
    4SAPS    HY  430   4.452   3.545   6.130  0.0464  0.4459  0.1845
    4SAPS   O31  431   4.339   3.478   5.970  0.1674 -0.2642  0.2388
    4SAPS   C31  432   4.246   3.573   5.985  1.0050 -0.3175  0.7035
    4SAPS   O32  433   4.227   3.628   6.090  0.2010  0.9194 -0.0990
    4SAPS   C32  434   4.151   3.580   5.871  0.3697 -0.3763 -0.2817
    4SAPS   H2X  435   4.117   3.686   5.872  0.2974 -0.4020  1.1160
    4SAPS   H2Y  436   4.072   3.516   5.913  2.4608 -0.7200  3.5761
    4SAPS   C23  437   4.082   3.047   5.871 -0.4788 -0.3669  0.1844
    4SAPS   H3R  438   3.986   3.057   5.924 -1.6534 -3.8141 -1.0500
    4SAPS   H3S  439   4.104   2.942   5.842 -0.7392 -0.9889  2.1270
    4SAPS   C24  440   4.084   3.129   5.741  0.1899  0.2575  0.4567
    4SAPS   H4R  441   4.185   3.114   5.699  1.8587 -1.7541  4.5768
    4SAPS   H4S  442   4.066   3.234   5.774 -2.5277  0.2145 -0.5803
    4SAPS   C25  443   3.978   3.093   5.637  0.0978  0.7095 -0.0613
    4SAPS   H5R  444   3.902   3.025   5.679  0.3979  1.0676  1.0965
    4SAPS   C26  445   3.984   3.110   5.503  0.2451 -0.1997 -0.3606
    4SAPS   H6R  446   3.894   3.086   5.445 -0.1675  1.3005 -0.3671
    4SAPS   C27  447   4.077   3.201   5.426  0.3249 -0.2332 -0.5538
    4SAPS   H7R  448   4.159   3.237   5.493  1.9681 -0.0752 -2.5619
    4SAPS   H7S  449   4.022   3.290   5.389  0.4378  0.3029  0.5121
    4SAPS   C28  450   4.150   3.132   5.309 -0.6757 -0.3330 -0.8509
    4SAPS   H8R  451   4.154   3.023   5.308 -0.9542 -0.3480 -0.6475
    4SAPS   C29  452   4.220   3.189   5.208  0.5481  0.3123 -0.0481
    4SAPS   H9R  453   4.251   3.126   5.123  0.1540  0.3077 -0.1889
    4SAPS  C210  454   4.245   3.338   5.194  0.0264 -0.1977  0.2621
    4SAPS  H10R  455   4.284   3.377   5.290  0.3980  0.6084 -0.2027
    4SAPS  H10S  456   4.144   3.383   5.188 -0.3516 -0.9765  0.5836
    4SAPS  C211  457   4.328   3.366   5.071 -0.5996 -0.0917 -0.3382
    4SAPS  H11R  458   4.436   3.361   5.091 -0.4566  1.3638 -0.6426
    4SAPS  C212  459   4.296   3.369   4.943 -0.8624 -0.0410 -0.4259
    4SAPS  H12R  460   4.378   3.376   4.870  2.2824 -0.1842  2.8187
    4SAPS  C213  461   4.157   3.375   4.883 -0.0879 -0.3731 -0.1692
    4SAPS  H13R  462   4.081   3.352   4.960 -1.2085  0.2723 -1.0451
    4SAPS  H13S  463   4.143   3.289   4.814  0.5127 -1.4466  1.0075
    4SAPS  C214  464   4.130   3.517   4.829 -0.3563  0.8059  0.2175
    4SAPS  H14R  465   4.104   3.597   4.899  1.3035  0.8381  0.8524
    4SAPS  C215  466   4.137   3.543   4.698  0.0201 -0.4420  0.1808
    4SAPS  H15R  467   4.129   3.649   4.671 -1.6269 -0.1113  1.7897
    4SAPS  C216  468   4.169   3.451   4.586 -0.4990 -0.5837 -0.4662
    4SAPS  H16R  469   4.219   3.356   4.616  0.5700  0.5897  1.6433
    4SAPS  H16S  470   4.250   3.505   4.534 -0.2587  1.0205  1.4538
    4SAPS  C217  471   4.050   3.433   4.488 -0.3056 -0.0705 -1.0635
    4SAPS  H17R  472   4.083   3.398   4.388 -0.9852  0.0764 -1.3380
    4SAPS  H17S  473   4.000   3.531   4.475  1.7060  1.2791  0.7041
    4SAPS  C218  474   3.954   3.323   4.529  0.3637  0.0311 -0.1479
    4SAPS  H18R  475   3.912   3.333   4.631  0.1458 -1.4506 -0.0575
    4SAPS  H18S  476   4.009   3.228   4.510 -0.3882 -0.3935 -0.2615
    4SAPS  C219  477   3.836   3.293   4.425  0.1869 -0.0820  0.4595
    4SAPS  H19R  478   3.870   3.277   4.321  0.8625 -5.0221  1.1933
    4SAPS  H19S  479   3.764   3.377   4.435  0.9908  0.5797  0.9286
    4SAPS  C220  480   3.759   3.167   4.468 -1.4890 -0.3256  0.4895
    4SAPS  H20R  481   3.680   3.133   4.398 -1.4362 -0.2754  0.4052
    4SAPS  H20S  482   3.704   3.188   4.562 -0.5373  1.1197  0.7631
    4SAPS  H20T  483   3.831   3.085   4.487  0.0031  0.5991 -0.8943
    4SAPS   C33  484   4.185   3.529   5.727  0.6466  0.6719 -0.5924
    4SAPS   H3X  485   4.088   3.503   5.680  0.7410  0.8341 -0.8850
    4SAPS   H3Y  486   4.246   3.438   5.746  1.5937  1.7416  2.0083
    4SAPS   C34  487   4.257   3.627   5.641 -0.2597 -0.2883  0.8149
    4SAPS   H4X  488   4.359   3.644   5.682 -0.8001  0.4829  1.9127
    4SAPS   H4Y  489   4.199   3.722   5.644  0.5129  0.1771  2.3908
    4SAPS   C35  490   4.267   3.591   5.492 -0.1066 -0.5543 -0.0842
    4SAPS   H5X  491   4.167   3.557   5.455  0.8038 -2.6403 -0.7882
    4SAPS   H5Y  492   4.322   3.494   5.486 -1.8306 -1.5963  0.1406
    4SAPS   C36  493   4.328   3.700   5.407 -0.3246 -0.1735  0.2248
    4SAPS   H6X  494   4.434   3.709   5.439 -0.2112  1.8521 -0.5910
    4SAPS   H6Y  495   4.270   3.793   5.426  1.3886  0.7142  1.3251
    4SAPS   C37  496   4.317   3.676   5.253 -0.5351 -0.5112 -0.6925
    4SAPS   H7X  497   4.213   3.651   5.223 -0.5579 -0.9350 -0.2619
    4SAPS   H7Y  498   4.381   3.591   5.219  1.8850  1.2629 -0.8856
    4SAPS   C38  499   4.353   3.796   5.165 -0.1284  0.0214 -0.3072
    4SAPS   H8X  500   4.458   3.823   5.190 -1.3369  1.2057  4.4028
    4SAPS   H8Y  501   4.292   3.886   5.185 -0.5218 -0.9261  3.4927
    4SAPS   C39  502   4.326   3.764   5.022 -0.1020 -0.2832 -0.1428
    4SAPS   H9X  503   4.219   3.753   4.993 -0.1153 -0.8641  0.1139
    4SAPS   H9Y  504   4.371   3.666   4.997  1.5818  0.5053 -0.3110
    4SAPS  C310  505   4.366   3.878   4.921  0.3780  0.6480 -0.4708
    4SAPS  H10X  506   4.476   3.879   4.908  0.7609 -1.5565  1.7716
    4SAPS  H10Y  507   4.341   3.973   4.973 -0.5887 -0.0900  0.4747
    4SAPS  C311  508   4.299   3.851   4.787  0.2058 -0.3279  0.1296
    4SAPS  H11X  509   4.189   3.842   4.798  0.0578  1.1977  0.1653
    4SAPS  H11Y  510   4.338   3.758   4.741 -0.2056  0.5571 -2.1450
    4SAPS  C312  511   4.320   3.960   4.681 -0.0817 -0.0192 -0.6379
    4SAPS  H12X  512   4.429   3.975   4.668  0.1237 -0.7253  0.1474
    4SAPS  H12Y  513   4.281   4.055   4.722 -1.8244 -1.6328  1.7450
    4SAPS  C313  514   4.246   3.939   4.544  0.0191  0.0053 -0.3302
    4SAPS  H13X  515   4.263   4.034   4.489 -0.0502 -1.2063 -2.5659
    4SAPS  H13Y  516   4.136   3.924   4.549  0.3780 -2.9225  2.4924
    4SAPS  C314  517   4.298   3.813   4.466  0.4864 -0.0104  0.5555
    4SAPS  H14X  518   4.278   3.727   4.534 -0.0596 -0.3878 -0.0657
    4SAPS  H14Y  519   4.406   3.824   4.444  0.6923 -1.8134  0.5101
    4SAPS  C315  520   4.199   3.804   4.338  0.0990  0.7792 -0.3958
    4SAPS  H15X  521   4.091   3.824   4.354 -0.1381 -0.8148  0.2222
    4SAPS  H15Y  522   4.214   3.700   4.302  2.4872  0.7660  0.4770
    4SAPS  C316  523   4.260   3.882   4.230 -0.1342 -0.7827  0.9345
    4SAPS  H16X  524   4.367   3.857   4.216 -0.3106 -1.6885  1.1405
    4SAPS  H16Y  525   4.262   3.988   4.264 -3.1506 -0.5163  0.5244
    4SAPS  C317  526   4.190   3.884   4.097 -0.2635 -0.8815 -0.3791
    4SAPS  H17X  527   4.141   3.788   4.069 -1.4710 -0.0478 -1.2715
    4SAPS  H17Y  528   4.270   3.904   4.022 -0.0993 -1.7969 -0.4603
    4SAPS  C318  529   4.076   3.994   4.086 -0.1017 -0.0011 -0.5885
    4SAPS  H18X  530   4.022   3.989   4.183  0.7500 -0.9106 -0.1382
    4SAPS  H18Y  531   4.009   3.980   3.999  0.6754 -2.6035 -0.8645
    4SAPS  H18Z  532   4.118   4.097   4.096  3.8349 -1.4811  0.0565
    5SAPS     N  533   5.779   5.195   7.173 -0.7516  0.0883  0.2038
    5SAPS   HN1  534   5.770   5.264   7.250 -0.9722 -1.4353  1.5997
    5SAPS   HN2  535   5.748   5.098   7.195  1.3267 -0.6807 -0.0369
    5SAPS   HN3  536   5.883   5.185   7.170 -0.9276 -1.9283 -0.9823
    5SAPS   C12  537   5.720   5.222   7.028  0.3028  0.1791 -0.0071
    5SAPS  H12A  538   5.751   5.147   6.957 -1.5507 -1.1645  0.5331
    5SAPS   C13  539   5.563   5.199   7.031 -1.0205  0.5408  0.0235
    5SAPS  O13A  540   5.510   5.154   7.138  0.5051  0.1358 -0.3172
    5SAPS  O13B  541   5.494   5.229   6.935 -0.2202  0.4179 -0.2715
    5SAPS   C11  542   5.748   5.369   6.980  0.0953 -0.0952 -0.0542
    5SAPS  H11A  543   5.708   5.439   7.056 -0.7246 -1.2344  0.5843
    5SAPS  H11B  544   5.688   5.389   6.889  2.6051 -0.0863 -1.8318
    5SAPS     P  545   5.971   5.499   7.002 -0.2810 -0.1136  0.1768
    5SAPS   O13  546   5.931   5.559   7.129  0.1940  0.4932 -0.4816
    5SAPS   O14  547   6.117   5.472   6.991 -0.8924  0.6886  0.5952
    5SAPS   O12  548   5.885   5.379   6.958  0.1855 -0.1191 -0.2716
    5SAPS   O11  549   5.921   5.600   6.890 -0.3901  0.2402 -0.2055
    5SAPS    C1  550   5.910   5.574   6.751 -0.1068  0.2767 -0.6832
    5SAPS    HA  551   5.970   5.483   6.731 -1.4953 -1.1387  1.2836
    5SAPS    HB  552   5.807   5.544   6.723  0.8951 -2.5005 -1.7581
    5SAPS    C2  553   5.963   5.688   6.661  0.2310 -0.6353  0.1838
    5SAPS    HS  554   5.905   5.783   6.660 -2.3262 -2.0761  1.3566
    5SAPS   O21  555   5.983   5.639   6.523  0.4112  0.9863  0.5382
    5SAPS   C21  556   5.866   5.643   6.456  0.1015 -1.3738 -0.5802
    5SAPS   O22  557   5.762   5.686   6.504 -0.5993 -0.1201 -0.0708
    5SAPS   C22  558   5.899   5.605   6.312 -0.5430 -0.0365 -0.2306
    5SAPS   H2R  559   5.996   5.552   6.306  0.8054  2.4153 -1.4998
    5SAPS   H2S  560   5.817   5.536   6.281 -0.1313 -1.1424  1.0660
    5SAPS    C3  561   6.092   5.728   6.719 -0.8646 -0.2364  0.3175
    5SAPS    HX  562   6.148   5.633   6.729  0.5691  0.5165 -0.3025
    5SAPS    HY  563   6.088   5.779   6.817  0.3327  1.8778 -0.6825
    5SAPS   O31  564   6.157   5.826   6.632  0.2712 -0.1928  0.5861
    5SAPS   C31  565   6.286   5.801   6.595 -0.3035  0.0464 -0.4589
    5SAPS   O32  566   6.352   5.714   6.644  0.1053 -0.4323 -0.5034
    5SAPS   C32  567   6.339   5.892   6.486 -0.6316  0.4096 -0.5359
    5SAPS   H2X  568   6.450   5.887   6.494 -0.6870  1.9392  2.9495
    5SAPS   H2Y  569   6.306   5.994   6.516 -0.4862  0.9600 -2.1433
    5SAPS   C23  570   5.903   5.734   6.219  0.3771 -0.1107  0.0471
    5SAPS   H3R  571   5.986   5.794   6.262  1.7619 -3.9236  3.3273
    5SAPS   H3S  572   5.811   5.793   6.234  1.1628  1.3721 -0.7816
    5SAPS   C24  573   5.910   5.700   6.067  0.3325 -0.0332  0.2986
    5SAPS   H4R  574   6.008   5.651   6.045  0.9925  0.1245  2.6590
    5SAPS   H4S  575   5.912   5.800   6.017 -2.5357  1.2753  2.5186
    5SAPS   C25  576   5.797   5.624   6.012  0.2052  0.3907 -0.1229
    5SAPS   H5R  577   5.803   5.520   6.046  2.0287  0.8273  1.0252
    5SAPS   C26  578   5.690   5.657   5.927 -0.0792  0.1764  0.2971
    5SAPS   H6R  579   5.614   5.582   5.901  0.5145 -0.0419 -0.8938
    5SAPS   C27  580   5.669   5.791   5.866 -0.1849 -0.0399 -0.3169
    5SAPS   H7R  581   5.723   5.857   5.937 -1.7710 -0.8482  1.7732
    5SAPS   H7S  582   5.562   5.819   5.871 -0.1298  0.3384 -1.1688
    5SAPS   C28  583   5.707   5.819   5.719 -0.0861 -0.0877 -0.1775
    5SAPS   H8R  584   5.792   5.888   5.711  1.0548 -1.5022 -0.7728
    5SAPS   C29  585   5.647   5.789   5.601 -0.6625 -0.4492 -0.4212
    5SAPS   H9R  586   5.692   5.821   5.506 -0.0344  1.0596  0.3539
    5SAPS  C210  587   5.527   5.699   5.589  0.0595  0.2163  0.3627
    5SAPS  H10R  588   5.517   5.627   5.673  1.4171  0.1513  0.4961
    5SAPS  H10S  589   5.536   5.631   5.502 -3.5714 -0.1271  0.1338
    5SAPS  C211  590   5.387   5.761   5.570 -0.4320  0.2578 -0.0212
    5SAPS  H11R  591   5.307   5.720   5.633  1.6376 -2.6364  0.9247
    5SAPS  C212  592   5.342   5.827   5.465 -0.5345 -0.2067 -0.3630
    5SAPS  H12R  593   5.240   5.869   5.466 -0.8813 -1.0386  0.3871
    5SAPS  C213  594   5.438   5.864   5.347 -0.0557 -0.2057 -0.5174
    5SAPS  H13R  595   5.539   5.887   5.388  0.4443 -0.7809 -1.3845
    5SAPS  H13S  596   5.404   5.963   5.310 -0.1395  0.1697  0.5533
    5SAPS  C214  597   5.459   5.760   5.242 -0.1093  0.1372  0.3278
    5SAPS  H14R  598   5.414   5.665   5.272 -0.5253  0.6503  1.3678
    5SAPS  C215  599   5.514   5.775   5.117  0.5534 -0.3854 -0.2742
    5SAPS  H15R  600   5.536   5.686   5.056 -0.8903 -0.0063 -1.4334
    5SAPS  C216  601   5.547   5.913   5.061  0.1607  0.5122  0.1619
    5SAPS  H16R  602   5.466   5.985   5.086 -0.6361 -1.0796  2.6573
    5SAPS  H16S  603   5.547   5.904   4.951  2.0999 -0.5082  0.2081
    5SAPS  C217  604   5.684   5.977   5.099 -0.5040 -0.4391  0.0196
    5SAPS  H17R  605   5.775   5.929   5.057  0.1163  1.3090 -0.7331
    5SAPS  H17S  606   5.683   5.965   5.210  0.1949 -1.1807 -0.0502
    5SAPS  C218  607   5.690   6.123   5.049  0.7476  0.5458 -0.2772
    5SAPS  H18R  608   5.591   6.171   5.058  0.8525  0.4376  1.8515
    5SAPS  H18S  609   5.713   6.123   4.940 -2.8424 -1.7306 -1.1996
    5SAPS  C219  610   5.783   6.210   5.127 -0.2441  0.3796 -0.3665
    5SAPS  H19R  611   5.886   6.174   5.103  0.0089 -1.3260  2.7795
    5SAPS  H19S  612   5.758   6.212   5.235  0.9186  0.2430 -0.0807
    5SAPS  C220  613   5.755   6.362   5.095 -0.6300  0.2492 -0.1734
    5SAPS  H20R  614   5.662   6.408   5.135 -0.7531  0.0853 -0.2731
    5SAPS  H20S  615   5.755   6.379   4.985 -1.2794 -1.1054 -0.4021
    5SAPS  H20T  616   5.837   6.422   5.142 -2.1933  0.4686  2.5014
    5SAPS   C33  617   6.272   5.863   6.355  0.2264  0.7043  0.3980
    5SAPS   H3X  618   6.162   5.875   6.352 -0.2308 -2.0002  2.5252
    5SAPS   H3Y  619   6.277   5.756   6.326  4.0335  0.8386  0.0789
    5SAPS   C34  620   6.340   5.942   6.237 -0.3026  0.2993 -0.5859
    5SAPS   H4X  621   6.448   5.915   6.227  0.1024  2.2072 -1.7976
    5SAPS   H4Y  622   6.322   6.048   6.264 -1.7167 -0.5483  2.2296
    5SAPS   C35  623   6.273   5.901   6.106  0.5228 -0.0251 -0.4870
    5SAPS   H5X  624   6.162   5.906   6.116  0.5938 -0.6653  0.9982
    5SAPS   H5Y  625   6.300   5.796   6.080  0.2136  0.2229 -1.8637
    5SAPS   C36  626   6.300   5.996   5.994 -0.1513 -0.2422  0.0035
    5SAPS   H6X  627   6.407   5.995   5.966  0.1999 -2.2789  1.1632
    5SAPS   H6Y  628   6.283   6.098   6.035  2.0685  0.3252 -0.3893
    5SAPS   C37  629   6.220   5.973   5.867 -0.0521  0.9058 -0.1290
    5SAPS   H7X  630   6.120   5.942   5.903 -0.1762  2.2660  0.7700
    5SAPS   H7Y  631   6.264   5.891   5.807 -1.6415 -0.5424  0.6188
    5SAPS   C38  632   6.206   6.097   5.774 -0.2581  0.3927 -0.2886
    5SAPS   H8X  633   6.160   6.176   5.837  1.6913  0.1134  1.6010
    5SAPS   H8Y  634   6.148   6.073   5.682 -2.9139  1.7432  0.9259
    5SAPS   C39  635   6.350   6.137   5.718  0.1336 -0.5407 -0.8097
    5SAPS   H9X  636   6.404   6.044   5.693  1.6236 -0.1650  0.8043
    5SAPS   H9Y  637   6.403   6.182   5.805  1.4227 -1.9504 -0.8467
    5SAPS  C310  638   6.343   6.223   5.590  0.0175 -0.1341  0.4661
    5SAPS  H10X  639   6.284   6.315   5.612  0.4116  0.2576 -0.0779
    5SAPS  H10Y  640   6.275   6.167   5.522  0.0295  0.4911 -0.0707
    5SAPS  C311  641   6.485   6.251   5.531  0.2537  0.4121 -0.1071
    5SAPS  H11X  642   6.526   6.150   5.507  1.3353  0.5064  1.2133
    5SAPS  H11Y  643   6.553   6.296   5.607 -0.0442  2.8943 -1.2441
    5SAPS  C312  644   6.479   6.336   5.402  0.7547 -0.5200 -0.3462
    5SAPS  H12X  645   6.434   6.433   5.431 -2.1115 -1.6559 -0.6379
    5SAPS  H12Y  646   6.412   6.294   5.323  2.1617 -2.8971 -0.3713
    5SAPS  C313  647   6.622   6.367   5.345  0.2233  0.6011  0.5106
    5SAPS  H13X  648   6.674   6.278   5.386  0.7426  1.3207  1.4670
    5SAPS  H13Y  649   6.669   6.457   5.391 -2.5176  2.7899 -0.6608
    5SAPS  C314  650   6.639   6.367   5.191  0.5168  0.3261  0.7731
    5SAPS  H14X  651   6.747   6.365   5.166  1.1942  2.3053  3.0998
    5SAPS  H14Y  652   6.600   6.460   5.146  0.5298  0.1568  0.4049
    5SAPS  C315  653   6.560   6.260   5.115  0.2562 -0.0774  0.5348
    5SAPS  H15X  654   6.584   6.272   5.007  0.6106  1.2520  0.7361
    5SAPS  H15Y  655   6.454   6.294   5.122 -0.5802 -2.3881 -0.1814
    5SAPS  C316  656   6.583   6.119   5.153  0.3928  0.2964  0.3897
    5SAPS  H16X  657   6.498   6.057   5.115 -0.9380  1.7296  0.9114
    5SAPS  H16Y  658   6.569   6.106   5.263 -1.9226 -0.1244  0.1131
    5SAPS  C317  659   6.713   6.060   5.096 -0.0876 -0.6312 -0.1498
    5SAPS  H17X  660   6.741   6.101   4.997  0.4036  0.4351  0.4021
    5SAPS  H17Y  661   6.696   5.951   5.086  0.6838 -0.8162  0.4501
    5SAPS  C318  662   6.818   6.075   5.203  0.1478  0.1756 -0.0165
    5SAPS  H18X  663   6.923   6.067   5.168  0.6643  1.4650  1.1230
    5SAPS  H18Y  664   6.799   6.000   5.283 -2.0120  0.4767 -0.1883
    5SAPS  H18Z  665   6.810   6.168   5.264  1.0039  0.2827 -0.0554
    6SAPS     N  666   2.306   5.219   6.611 -0.4574 -0.2558  1.0861
    6SAPS   HN1  667   2.292   5.207   6.508  2.1719 -0.3131  0.6512
    6SAPS   HN2  668   2.235   5.281   6.655  0.0678  2.0632 -1.0971
    6SAPS   HN3  669   2.401   5.256   6.632  0.3144 -1.7164  0.3856
    6SAPS   C12  670   2.291   5.085   6.680  0.1239 -0.4429  0.1426
    6SAPS  H12A  671   2.372   5.096   6.750 -1.0538 -0.5526  1.5748
    6SAPS   C13  672   2.157   5.062   6.750  0.0674  0.7441 -0.2172
    6SAPS  O13A  673   2.070   5.154   6.744  0.4557 -0.7378 -0.4171
    6SAPS  O13B  674   2.144   4.965   6.834  0.0409 -0.0466  1.0673
    6SAPS   C11  675   2.317   4.974   6.571 -1.0893 -0.2247  0.1690
    6SAPS  H11A  676   2.231   4.984   6.502 -0.0982 -1.2929 -1.2750
    6SAPS  H11B  677   2.316   4.871   6.613  0.4930 -0.7900 -1.0653
    6SAPS     P  678   2.575   4.930   6.528  0.0897 -0.3268 -0.3133
    6SAPS   O13  679   2.627   4.991   6.650 -0.2535  0.4376 -0.0307
    6SAPS   O14  680   2.559   4.785   6.524 -0.1437 -0.2631  0.5145
    6SAPS   O12  681   2.434   4.994   6.488 -0.4172  0.3597 -0.4207
    6SAPS   O11  682   2.675   4.985   6.422 -0.0132 -0.5778  0.1257
    6SAPS    C1  683   2.655   5.112   6.360 -0.0865  0.2574 -0.2979
    6SAPS    HA  684   2.623   5.195   6.427 -2.1302 -1.1973  0.6424
    6SAPS    HB  685   2.757   5.139   6.325 -0.0956 -1.6519 -2.0027
    6SAPS    C2  686   2.567   5.095   6.232 -0.7488  0.8427 -0.3481
    6SAPS    HS  687   2.464   5.076   6.271 -0.6734 -0.1343 -0.5886
    6SAPS   O21  688   2.621   4.975   6.157 -0.3615  0.8032 -0.1546
    6SAPS   C21  689   2.532   4.898   6.099 -0.3877  0.4022 -0.3740
    6SAPS   O22  690   2.413   4.925   6.106 -0.3615 -0.5463  0.1043
    6SAPS   C22  691   2.600   4.784   6.019  0.1867 -0.2340 -0.8343
    6SAPS   H2R  692   2.710   4.799   6.022  0.1265  0.1260 -0.0381
    6SAPS   H2S  693   2.571   4.697   6.082 -2.9977  0.1106 -1.6427
    6SAPS    C3  694   2.569   5.224   6.153 -0.3087 -0.0495  0.0186
    6SAPS    HX  695   2.671   5.242   6.114  0.7922 -3.0607  1.2194
    6SAPS    HY  696   2.555   5.308   6.225  0.9411  0.0759  0.1284
    6SAPS   O31  697   2.462   5.238   6.061  0.0959  0.8955  0.3853
    6SAPS   C31  698   2.495   5.200   5.933  0.8548  0.7345  0.0216
    6SAPS   O32  699   2.608   5.176   5.900 -0.0539  0.0930 -0.4214
    6SAPS   C32  700   2.372   5.191   5.841  0.1152  0.0751  0.2206
    6SAPS   H2X  701   2.304   5.267   5.886  1.0632 -0.8254  3.4666
    6SAPS   H2Y  702   2.325   5.091   5.855  0.5993 -0.0530  1.0043
    6SAPS   C23  703   2.553   4.773   5.875 -0.0707  0.6001  0.1452
    6SAPS   H3R  704   2.597   4.860   5.822  1.0418  1.0801  1.8160
    6SAPS   H3S  705   2.443   4.787   5.862 -0.1267 -0.4335 -0.6976
    6SAPS   C24  706   2.600   4.645   5.798 -0.2272  0.7039 -0.4340
    6SAPS   H4R  707   2.563   4.643   5.694  4.0444  0.7058 -2.1782
    6SAPS   H4S  708   2.562   4.553   5.848  2.1516 -0.7779 -1.1512
    6SAPS   C25  709   2.745   4.613   5.788 -0.2232 -0.2253 -0.2621
    6SAPS   H5R  710   2.786   4.567   5.879 -0.3147 -0.3402 -0.2801
    6SAPS   C26  711   2.829   4.652   5.690 -0.8018  0.3497 -0.3495
    6SAPS   H6R  712   2.932   4.616   5.699 -1.2363 -0.7547  0.4892
    6SAPS   C27  713   2.781   4.735   5.569 -0.8407  0.1526 -0.0217
    6SAPS   H7R  714   2.692   4.689   5.521 -0.0154 -1.3427 -0.1909
    6SAPS   H7S  715   2.854   4.718   5.487 -0.8910 -1.2953  0.2070
    6SAPS   C28  716   2.759   4.883   5.593 -0.1272  0.1781 -0.3737
    6SAPS   H8R  717   2.797   4.932   5.683 -0.5615 -2.3895  1.3193
    6SAPS   C29  718   2.679   4.948   5.510  0.0029  0.0753  0.1246
    6SAPS   H9R  719   2.660   5.053   5.537  2.8118  1.2911 -2.2193
    6SAPS  C210  720   2.612   4.901   5.380  0.1315  0.5176 -0.1960
    6SAPS  H10R  721   2.665   4.813   5.337 -0.2349 -0.2365  0.8522
    6SAPS  H10S  722   2.627   4.982   5.305  1.8593  0.3197 -0.0983
    6SAPS  C211  723   2.461   4.888   5.399  0.4551  0.4956  0.1428
    6SAPS  H11R  724   2.423   4.893   5.502 -2.4455  1.1027 -0.8603
    6SAPS  C212  725   2.370   4.899   5.297  0.3376 -0.4842  0.0284
    6SAPS  H12R  726   2.263   4.917   5.311 -0.3656 -2.6616 -1.9958
    6SAPS  C213  727   2.411   4.898   5.152  0.1416 -0.4471  0.0138
    6SAPS  H13R  728   2.495   4.830   5.129  0.3572  0.5253 -2.3269
    6SAPS  H13S  729   2.463   4.994   5.129  3.0031 -1.5189  1.5250
    6SAPS  C214  730   2.304   4.873   5.048  0.0777 -0.6349 -0.0756
    6SAPS  H14R  731   2.227   4.800   5.075 -0.7265  0.3772  0.4401
    6SAPS  C215  732   2.293   4.942   4.933  0.1631 -0.4626  0.1446
    6SAPS  H15R  733   2.227   4.911   4.851  0.2611  0.7222 -0.4057
    6SAPS  C216  734   2.370   5.064   4.897 -0.2441  0.2722  0.0923
    6SAPS  H16R  735   2.475   5.036   4.919 -0.4058  0.7395  1.6095
    6SAPS  H16S  736   2.334   5.154   4.952 -2.7655 -0.7027  0.1980
    6SAPS  C217  737   2.362   5.102   4.742  0.3061  0.5440 -0.8259
    6SAPS  H17R  738   2.435   5.184   4.720  1.7869  0.2209  2.3188
    6SAPS  H17S  739   2.258   5.122   4.709 -0.5909 -1.0183  0.9301
    6SAPS  C218  740   2.402   4.982   4.653  0.4050 -0.0735 -0.0614
    6SAPS  H18R  741   2.337   4.895   4.678 -1.3580  1.4844  1.0339
    6SAPS  H18S  742   2.507   4.963   4.685  0.0601  0.5108  1.5052
    6SAPS  C219  743   2.404   5.011   4.507 -0.1484  0.0028  0.2320
    6SAPS  H19R  744   2.464   4.932   4.456 -2.0894 -1.7582  0.5228
    6SAPS  H19S  745   2.466   5.101   4.491  2.6175 -1.8678 -0.3529
    6SAPS  C220  746   2.265   5.022   4.438 -0.0308  0.5388  0.2549
    6SAPS  H20R  747   2.205   4.934   4.469 -0.6506  0.0253 -2.1605
    6SAPS  H20S  748   2.280   5.016   4.328  1.0207 -0.5010  0.4445
    6SAPS  H20T  749   2.223   5.121   4.467 -0.5592  0.0730  1.1139
    6SAPS   C33  750   2.413   5.200   5.690  0.2147 -0.5766 -0.1905
    6SAPS   H3X  751   2.462   5.106   5.658  1.5993 -0.0485  0.2785
    6SAPS   H3Y  752   2.495   5.275   5.679 -0.8837  0.7416  0.2800
    6SAPS   C34  753   2.296   5.250   5.602 -0.2662  0.4334  0.8018
    6SAPS   H4X  754   2.276   5.352   5.640 -0.7437  0.0797  1.5289
    6SAPS   H4Y  755   2.198   5.198   5.611 -1.0592  2.0156  1.5725
    6SAPS   C35  756   2.339   5.250   5.452 -0.8851  0.4442  0.4635
    6SAPS   H5X  757   2.283   5.167   5.403  1.0275  0.0266 -1.1380
    6SAPS   H5Y  758   2.440   5.204   5.445 -2.2910 -2.6495 -1.7032
    6SAPS   C36  759   2.305   5.387   5.395 -0.2709 -0.6149 -0.6815
    6SAPS   H6X  760   2.364   5.451   5.464 -1.0714  0.0054 -0.5623
    6SAPS   H6Y  761   2.195   5.397   5.405 -0.2196 -2.1800  2.4476
    6SAPS   C37  762   2.360   5.428   5.254  0.6048  0.4627  0.3090
    6SAPS   H7X  763   2.452   5.369   5.235  1.2663  1.2090  1.1055
    6SAPS   H7Y  764   2.396   5.531   5.271  0.6432  0.2138  1.8966
    6SAPS   C38  765   2.246   5.420   5.145  0.0622 -0.6883 -0.3117
    6SAPS   H8X  766   2.163   5.488   5.174 -0.0612 -1.2781  0.7558
    6SAPS   H8Y  767   2.202   5.318   5.137 -0.8146 -0.2964 -0.6303
    6SAPS   C39  768   2.298   5.467   5.008 -0.0155 -0.0349 -0.1679
    6SAPS   H9X  769   2.390   5.406   4.992 -0.2205 -0.5758  0.6491
    6SAPS   H9Y  770   2.331   5.573   5.011  1.0731 -0.3714  2.1107
    6SAPS  C310  771   2.204   5.459   4.886  0.1099  0.8632  0.6917
    6SAPS  H10X  772   2.115   5.524   4.898 -0.8541 -0.4267  0.7170
    6SAPS  H10Y  773   2.169   5.354   4.896 -0.0782  0.7484 -0.9374
    6SAPS  C311  774   2.267   5.492   4.750 -0.5284  0.0746 -0.3097
    6SAPS  H11X  775   2.360   5.433   4.741 -0.4813  0.1521 -0.3311
    6SAPS  H11Y  776   2.306   5.595   4.739  0.8866 -0.6313 -2.4784
    6SAPS  C312  777   2.182   5.446   4.638 -0.7985 -0.1984  0.1076
    6SAPS  H12X  778   2.087   5.503   4.644  0.3951  1.7983  1.7222
    6SAPS  H12Y  779   2.163   5.338   4.651  2.8040 -0.7087  2.5530
    6SAPS  C313  780   2.247   5.481   4.504 -0.6567  0.4071  0.5403
    6SAPS  H13X  781   2.354   5.451   4.505 -1.0050 -0.8974  0.2226
    6SAPS  H13Y  782   2.242   5.588   4.474 -0.9714 -0.1871 -1.7859
    6SAPS  C314  783   2.184   5.402   4.385 -0.1382 -0.5899  0.3567
    6SAPS  H14X  784   2.094   5.467   4.379 -0.2059 -0.7892 -1.4673
    6SAPS  H14Y  785   2.145   5.302   4.414 -2.9498  0.2510 -0.2342
    6SAPS  C315  786   2.250   5.409   4.242 -0.1882  0.8159 -0.5300
    6SAPS  H15X  787   2.333   5.335   4.232 -0.8894 -0.3627  1.5215
    6SAPS  H15Y  788   2.287   5.512   4.223 -0.6727  0.9366 -0.8120
    6SAPS  C316  789   2.143   5.378   4.134  0.5378  0.3510 -0.2611
    6SAPS  H16X  790   2.060   5.447   4.160 -0.4625 -1.6298  2.3158
    6SAPS  H16Y  791   2.111   5.273   4.153  0.0503  0.5749  0.1566
    6SAPS  C317  792   2.192   5.394   3.993  0.1124  0.3341 -0.4442
    6SAPS  H17X  793   2.243   5.492   3.979  0.7464  0.1105  0.2302
    6SAPS  H17Y  794   2.102   5.393   3.928  0.2955  0.3623 -0.6975
    6SAPS  C318  795   2.277   5.279   3.951 -0.4837  0.2998 -0.8297
    6SAPS  H18X  796   2.309   5.300   3.847 -0.9463  1.6483 -0.7196
    6SAPS  H18Y  797   2.238   5.176   3.966  1.3913 -0.7007 -2.4367
    6SAPS  H18Z  798   2.374   5.281   4.006  0.6288  1.1399 -2.7193
    7SAPS     N  799   3.306   5.932   6.879  0.5387  0.3878 -0.3061
    7SAPS   HN1  800   3.390   5.871   6.885  0.1261 -0.2206 -0.6512
    7SAPS   HN2  801   3.244   5.889   6.808  1.6312 -3.1985  0.6881
    7SAPS   HN3  802   3.325   6.028   6.845  0.0026  0.2442 -1.0314
    7SAPS   C12  803   3.232   5.932   7.009  0.4846 -0.2830  0.2858
    7SAPS  H12A  804   3.139   5.881   6.993  0.3097 -0.1471  0.8649
    7SAPS   C13  805   3.299   5.857   7.130 -0.2424 -0.8097  0.1054
    7SAPS  O13A  806   3.412   5.800   7.110 -0.2466  0.4518 -0.0750
    7SAPS  O13B  807   3.224   5.830   7.228  0.8202  0.2700  0.1754
    7SAPS   C11  808   3.204   6.081   7.055 -0.0408  0.4016 -0.0449
    7SAPS  H11A  809   3.304   6.113   7.091 -0.4026 -0.9120  2.2364
    7SAPS  H11B  810   3.140   6.077   7.146  0.7527  2.6774  0.6748
    7SAPS     P  811   3.095   6.317   6.984  0.0073  0.4030 -0.1689
    7SAPS   O13  812   2.971   6.306   7.055  0.3892  0.1261  0.1685
    7SAPS   O14  813   3.193   6.415   7.033  0.2626  0.4310  0.3749
    7SAPS   O12  814   3.161   6.172   6.954 -0.4686 -0.6788  0.5162
    7SAPS   O11  815   3.065   6.369   6.841  0.6291 -0.3917 -0.7001
    7SAPS    C1  816   3.077   6.292   6.722  0.7349 -0.5322 -0.1100
    7SAPS    HA  817   3.133   6.197   6.734  0.1270 -1.0549 -1.2870
    7SAPS    HB  818   2.977   6.264   6.682  0.3657 -0.3456  0.6706
    7SAPS    C2  819   3.145   6.376   6.615  0.1309 -0.3842  0.2467
    7SAPS    HS  820   3.242   6.409   6.657 -0.4689  2.0088 -0.1132
    7SAPS   O21  821   3.058   6.494   6.597 -0.6278 -0.3873 -0.4957
    7SAPS   C21  822   3.130   6.596   6.544 -0.1582 -0.4070  0.5685
    7SAPS   O22  823   3.252   6.606   6.540  0.0197  0.5846 -0.2043
    7SAPS   C22  824   3.034   6.710   6.501  0.5860 -0.1969  0.7517
    7SAPS   H2R  825   2.988   6.671   6.408  1.9299 -0.2401  0.0875
    7SAPS   H2S  826   2.955   6.711   6.579 -0.7488  0.2404 -0.5523
    7SAPS    C3  827   3.166   6.299   6.484  0.2404  0.2509  0.5488
    7SAPS    HX  828   3.067   6.264   6.449  1.6157 -1.7489 -1.6837
    7SAPS    HY  829   3.226   6.208   6.507  1.5536  1.3746  1.7845
    7SAPS   O31  830   3.229   6.382   6.383 -0.0315  0.0743 -0.1851
    7SAPS   C31  831   3.357   6.356   6.362  0.2812 -0.4836  0.7358
    7SAPS   O32  832   3.428   6.269   6.411  0.1891  0.9021  0.3888
    7SAPS   C32  833   3.402   6.463   6.258 -0.0748  0.1556  0.4302
    7SAPS   H2X  834   3.444   6.548   6.317 -1.3329  0.8367  0.3820
    7SAPS   H2Y  835   3.313   6.514   6.217 -0.1776 -0.6902 -0.4164
    7SAPS   C23  836   3.101   6.850   6.484  0.1294 -0.1434 -0.3970
    7SAPS   H3R  837   3.168   6.867   6.571 -0.0783 -1.2095 -0.0076
    7SAPS   H3S  838   3.014   6.919   6.491  1.1452  1.1305 -0.0309
    7SAPS   C24  839   3.165   6.861   6.348 -0.2534  0.2438 -0.1002
    7SAPS   H4R  840   3.101   6.812   6.272 -0.2523 -0.5469  0.3932
    7SAPS   H4S  841   3.262   6.806   6.347 -0.2926  0.0621  1.6291
    7SAPS   C25  842   3.201   7.001   6.320 -0.4343  0.0055  0.6548
    7SAPS   H5R  843   3.267   7.050   6.393 -1.2687  0.8460  0.8683
    7SAPS   C26  844   3.186   7.069   6.205  0.1697  0.6330  0.0813
    7SAPS   H6R  845   3.217   7.174   6.215  2.1700  0.0143  0.9035
    7SAPS   C27  846   3.113   7.018   6.091 -0.8364 -0.5202 -0.4301
    7SAPS   H7R  847   3.062   7.097   6.032 -0.4045 -0.2107 -0.3929
    7SAPS   H7S  848   3.028   6.957   6.129 -0.4545 -0.2438  0.9180
    7SAPS   C28  849   3.213   6.941   6.010  0.5788  0.0986  0.2708
    7SAPS   H8R  850   3.284   6.881   6.069 -0.6900 -2.5487 -0.7411
    7SAPS   C29  851   3.221   6.931   5.880 -0.2922  0.5075 -0.0327
    7SAPS   H9R  852   3.300   6.864   5.843 -1.3727 -0.3189 -0.9195
    7SAPS  C210  853   3.142   6.999   5.774  0.1624  0.1163 -0.0092
    7SAPS  H10R  854   3.042   7.021   5.817  0.2449 -0.7423  0.6710
    7SAPS  H10S  855   3.117   6.924   5.696 -0.6025  0.1572  0.1864
    7SAPS  C211  856   3.196   7.128   5.720  0.1650 -0.0693 -0.2613
    7SAPS  H11R  857   3.199   7.215   5.787  1.3982 -0.0152 -0.3619
    7SAPS  C212  858   3.247   7.152   5.597  0.3355  0.6651  0.2792
    7SAPS  H12R  859   3.271   7.258   5.579 -0.7103  1.0433  1.0138
    7SAPS  C213  860   3.268   7.053   5.482 -0.1403 -0.2213 -0.0464
    7SAPS  H13R  861   3.164   7.033   5.449  0.4398 -0.1045 -2.1123
    7SAPS  H13S  862   3.310   6.959   5.522 -0.8524  0.1105  1.5644
    7SAPS  C214  863   3.373   7.086   5.371  0.7743  0.3307  0.3579
    7SAPS  H14R  864   3.432   7.176   5.395  0.3213  1.0447 -1.1252
    7SAPS  C215  865   3.376   7.042   5.245 -0.2219 -0.3028  0.2871
    7SAPS  H15R  866   3.465   7.064   5.184 -0.5248  2.7895  0.8113
    7SAPS  C216  867   3.283   6.957   5.165  0.3683  0.1237  0.9930
    7SAPS  H16R  868   3.233   7.021   5.090 -1.9815 -2.5467  0.1032
    7SAPS  H16S  869   3.206   6.912   5.231 -0.1649 -1.0135 -0.3603
    7SAPS  C217  870   3.346   6.837   5.096  0.0986  0.5787  0.3945
    7SAPS  H17R  871   3.393   6.780   5.179 -0.0433  0.4961  0.4193
    7SAPS  H17S  872   3.431   6.853   5.027 -0.2028 -3.0798 -1.0766
    7SAPS  C218  873   3.239   6.746   5.033  0.2672  0.0743  0.4123
    7SAPS  H18R  874   3.171   6.800   4.963 -1.4496  1.0983  2.7557
    7SAPS  H18S  875   3.176   6.726   5.122 -1.4901  0.6832 -0.6430
    7SAPS  C219  876   3.292   6.617   4.966  0.1898  0.3014 -0.4314
    7SAPS  H19R  877   3.207   6.545   4.967  0.8724 -0.5619  1.8188
    7SAPS  H19S  878   3.379   6.586   5.028 -1.4930 -2.6179  0.6953
    7SAPS  C220  879   3.337   6.655   4.821 -0.5504  0.0847 -0.4917
    7SAPS  H20R  880   3.409   6.739   4.823  2.7911 -2.5724  1.2373
    7SAPS  H20S  881   3.259   6.687   4.749  0.4567  3.4593 -0.2340
    7SAPS  H20T  882   3.387   6.570   4.770 -1.2891  0.3994 -1.7883
    7SAPS   C33  883   3.493   6.410   6.145  0.2158  0.0018 -0.0470
    7SAPS   H3X  884   3.583   6.364   6.191 -1.5732 -1.5332  2.1167
    7SAPS   H3Y  885   3.540   6.497   6.094  0.7070  0.6305  1.4347
    7SAPS   C34  886   3.430   6.302   6.053  0.0385  0.1805  0.4667
    7SAPS   H4X  887   3.390   6.214   6.107 -6.3101  2.3557  0.1829
    7SAPS   H4Y  888   3.508   6.260   5.986  1.1850  2.1333  0.4721
    7SAPS   C35  889   3.323   6.362   5.965 -0.0686 -0.2135  0.0210
    7SAPS   H5X  890   3.232   6.390   6.023 -1.4942 -1.2095 -1.6494
    7SAPS   H5Y  891   3.284   6.285   5.895  0.7805 -0.7635  0.1407
    7SAPS   C36  892   3.351   6.489   5.881 -0.3078 -0.5312  0.1536
    7SAPS   H6X  893   3.370   6.573   5.952  0.2022 -1.0575  0.6510
    7SAPS   H6Y  894   3.259   6.519   5.827  0.1281  0.3421 -0.1276
    7SAPS   C37  895   3.449   6.457   5.763 -0.1210  0.2570  0.3605
    7SAPS   H7X  896   3.548   6.434   5.808 -0.7367  1.4405  2.4834
    7SAPS   H7Y  897   3.455   6.548   5.699 -2.4462  0.9512  1.0470
    7SAPS   C38  898   3.406   6.351   5.660  0.5337  0.4736  0.2348
    7SAPS   H8X  899   3.297   6.371   5.648  0.4414  0.0841  0.4006
    7SAPS   H8Y  900   3.413   6.250   5.707 -2.3461  1.0867  2.3032
    7SAPS   C39  901   3.488   6.363   5.530  0.3703 -0.1861 -0.4482
    7SAPS   H9X  902   3.587   6.314   5.543  0.2208 -0.8951 -1.7844
    7SAPS   H9Y  903   3.506   6.469   5.502  0.9662 -0.5729 -1.5767
    7SAPS  C310  904   3.415   6.294   5.405 -0.1122  0.0142  0.0697
    7SAPS  H10X  905   3.305   6.308   5.404 -0.6043 -3.1050 -0.5368
    7SAPS  H10Y  906   3.441   6.186   5.407 -0.9500 -0.1986 -0.5824
    7SAPS  C311  907   3.480   6.350   5.273 -0.5938 -0.0410  0.7756
    7SAPS  H11X  908   3.590   6.344   5.289 -0.6735  1.3344  2.0278
    7SAPS  H11Y  909   3.452   6.456   5.254  0.5524 -0.3250 -3.5475
    7SAPS  C312  910   3.442   6.259   5.156 -0.9090 -0.4758  0.2706
    7SAPS  H12X  911   3.338   6.282   5.123 -0.7334  0.6207  0.4440
    7SAPS  H12Y  912   3.439   6.156   5.198  1.8965 -1.1017 -0.8316
    7SAPS  C313  913   3.537   6.270   5.032 -0.4179  0.2334 -0.1542
    7SAPS  H13X  914   3.616   6.192   5.039 -1.1421 -0.6362 -1.3047
    7SAPS  H13Y  915   3.594   6.364   5.048  2.0322 -1.2168  0.0801
    7SAPS  C314  916   3.466   6.258   4.893  0.2743 -0.0024  0.1643
    7SAPS  H14X  917   3.385   6.333   4.881  1.1438  0.8591 -0.5871
    7SAPS  H14Y  918   3.429   6.155   4.873 -0.1240  0.1689  0.0151
    7SAPS  C315  919   3.563   6.276   4.772 -0.1231 -0.6362  0.1351
    7SAPS  H15X  920   3.660   6.223   4.782  1.5923  2.0592 -0.9619
    7SAPS  H15Y  921   3.594   6.383   4.772 -1.2165 -0.2670 -1.9805
    7SAPS  C316  922   3.495   6.247   4.643  0.6928  0.0478  0.3648
    7SAPS  H16X  923   3.431   6.333   4.615  1.2579  1.2745  2.5576
    7SAPS  H16Y  924   3.438   6.153   4.656  2.2565 -1.2899 -1.7680
    7SAPS  C317  925   3.602   6.213   4.533  0.4121  0.9113 -0.4212
    7SAPS  H17X  926   3.559   6.164   4.443 -0.1878  1.2699 -0.3352
    7SAPS  H17Y  927   3.672   6.141   4.579 -2.0634 -2.1832 -1.1448
    7SAPS  C318  928   3.681   6.334   4.499 -0.3133  0.0474 -0.1593
    7SAPS  H18X  929   3.620   6.410   4.445  1.8023  2.2162  0.3462
    7SAPS  H18Y  930   3.756   6.307   4.422 -2.7067 -3.9698 -1.3690
    7SAPS  H18Z  931   3.741   6.378   4.581  0.1721  1.7439 -1.3560
    8SAPS     N  932   3.516   1.151   6.564  0.0767 -0.6660 -0.0200
    8SAPS   HN1  933   3.475   1.096   6.486 -0.4418  1.5561 -1.3970
    8SAPS   HN2  934   3.547   1.246   6.537  1.8771 -0.3671  2.6780
    8SAPS   HN3  935   3.599   1.094   6.589  1.9085  1.1250 -1.6922
    8SAPS   C12  936   3.425   1.152   6.683  0.1830 -1.1503 -0.6764
    8SAPS  H12A  937   3.409   1.053   6.722 -2.1061 -0.5372  0.0885
    8SAPS   C13  938   3.496   1.221   6.806 -0.2902  0.1287  0.6231
    8SAPS  O13A  939   3.615   1.261   6.802 -0.2256  0.2917  0.2899
    8SAPS  O13B  940   3.444   1.189   6.917 -0.1921 -0.2092  0.0315
    8SAPS   C11  941   3.289   1.209   6.650 -0.4608  0.2319  0.6317
    8SAPS  H11A  942   3.298   1.310   6.604 -1.8123 -0.4935 -1.3400
    8SAPS  H11B  943   3.238   1.219   6.748  1.0781  0.6889  1.4241
    8SAPS     P  944   3.084   1.160   6.494  0.3545 -0.1601 -0.1883
    8SAPS   O13  945   3.041   1.053   6.404  0.0665 -0.0291 -0.5567
    8SAPS   O14  946   2.979   1.205   6.595 -0.8034  0.1228  0.4899
    8SAPS   O12  947   3.220   1.126   6.564  0.4629  0.2164 -0.3060
    8SAPS   O11  948   3.119   1.294   6.422  0.3087  0.4148 -0.4232
    8SAPS    C1  949   3.233   1.310   6.337  0.0216 -0.1209 -0.1301
    8SAPS    HA  950   3.296   1.390   6.381 -0.6154  0.7061 -0.6840
    8SAPS    HB  951   3.302   1.223   6.331  2.0191  1.4917 -3.0548
    8SAPS    C2  952   3.202   1.346   6.191 -0.2261  0.2795 -0.0597
    8SAPS    HS  953   3.134   1.434   6.195  1.1058  1.3097  0.8780
    8SAPS   O21  954   3.151   1.232   6.113  0.2436 -0.3795 -0.5224
    8SAPS   C21  955   3.018   1.219   6.107  0.4353 -0.1527  0.1419
    8SAPS   O22  956   2.932   1.293   6.157 -0.5026 -0.4277  0.3466
    8SAPS   C22  957   2.998   1.075   6.048  0.2619 -0.2654  0.8387
    8SAPS   H2R  958   3.040   0.999   6.118  1.0220  0.1023  0.7899
    8SAPS   H2S  959   2.888   1.059   6.047 -0.0585  1.7412  0.3430
    8SAPS    C3  960   3.333   1.399   6.122 -0.4497  0.0049 -0.5466
    8SAPS    HX  961   3.418   1.333   6.151 -0.1185  0.5469 -0.2448
    8SAPS    HY  962   3.352   1.504   6.154 -2.3392  0.3448 -0.4627
    8SAPS   O31  963   3.331   1.399   5.976 -0.1296  0.3288  0.1764
    8SAPS   C31  964   3.275   1.498   5.912  1.4072  0.0162  0.1724
    8SAPS   O32  965   3.278   1.613   5.951 -0.2862 -0.0939 -0.1503
    8SAPS   C32  966   3.211   1.450   5.779 -0.1403  0.1737  0.2184
    8SAPS   H2X  967   3.142   1.368   5.808 -1.0916  1.8255  2.9644
    8SAPS   H2Y  968   3.297   1.423   5.713  0.0393  2.4637 -0.5747
    8SAPS   C23  969   3.040   1.065   5.901  0.5576  0.9383 -0.1846
    8SAPS   H3R  970   3.075   0.961   5.884 -1.1630  0.2036  0.5384
    8SAPS   H3S  971   3.132   1.124   5.883  1.3043 -0.9207 -3.0639
    8SAPS   C24  972   2.923   1.084   5.800 -0.1019 -0.4789  0.1895
    8SAPS   H4R  973   2.852   0.998   5.803  0.6411 -1.2004 -1.4470
    8SAPS   H4S  974   2.965   1.066   5.698 -0.8758 -1.6273  0.0489
    8SAPS   C25  975   2.848   1.219   5.807 -0.1044 -0.8609  0.0125
    8SAPS   H5R  976   2.815   1.253   5.907  1.2012  0.0071  0.1595
    8SAPS   C26  977   2.790   1.282   5.702  0.0159 -0.0044  0.1919
    8SAPS   H6R  978   2.747   1.381   5.724  2.1871  1.0706 -0.0896
    8SAPS   C27  979   2.803   1.254   5.552  0.3220 -0.1462 -0.1928
    8SAPS   H7R  980   2.705   1.211   5.524  0.7014  0.3848 -2.5618
    8SAPS   H7S  981   2.892   1.188   5.541  0.3882 -0.3201  1.1771
    8SAPS   C28  982   2.830   1.378   5.464 -1.7584 -0.1076  0.2695
    8SAPS   H8R  983   2.913   1.436   5.508 -0.9058 -0.5141 -0.7724
    8SAPS   C29  984   2.780   1.413   5.347  0.3812 -0.1329 -0.9410
    8SAPS   H9R  985   2.824   1.498   5.292  2.6300 -0.2087  0.6197
    8SAPS  C210  986   2.684   1.337   5.257  0.1769  0.0338  0.1887
    8SAPS  H10R  987   2.614   1.277   5.319 -1.1399  1.8427  0.5503
    8SAPS  H10S  988   2.748   1.263   5.206 -1.0710 -0.2105 -1.0720
    8SAPS  C211  989   2.612   1.425   5.155  0.3622  0.0701 -1.0995
    8SAPS  H11R  990   2.662   1.515   5.117 -0.0863  1.8058  2.0296
    8SAPS  C212  991   2.496   1.385   5.106 -0.1152 -0.2669 -0.8424
    8SAPS  H12R  992   2.440   1.454   5.040 -1.7841 -0.3347  0.4281
    8SAPS  C213  993   2.413   1.261   5.137 -0.7807 -0.0689  0.0589
    8SAPS  H13R  994   2.482   1.173   5.144  1.0268  1.2624 -0.1943
    8SAPS  H13S  995   2.341   1.241   5.055 -0.0660 -0.6351 -0.4422
    8SAPS  C214  996   2.338   1.278   5.264 -0.1645  0.3431 -0.2837
    8SAPS  H14R  997   2.317   1.383   5.292 -2.1684 -0.3201  0.8386
    8SAPS  C215  998   2.294   1.188   5.355  0.2249  0.3985  0.3150
    8SAPS  H15R  999   2.230   1.218   5.439 -3.0774 -2.8269 -0.7817
    8SAPS  C216 1000   2.308   1.036   5.336  0.1918  0.6144  0.6516
    8SAPS  H16R 1001   2.382   1.026   5.254  0.9895  3.3267  0.9223
    8SAPS  H16S 1002   2.212   0.991   5.302  1.3353 -2.4560  1.2501
    8SAPS  C217 1003   2.359   0.980   5.467 -0.3361  0.1709 -0.6025
    8SAPS  H17R 1004   2.362   0.870   5.452 -2.5845  0.0350 -0.4419
    8SAPS  H17S 1005   2.288   1.002   5.549  2.3984  3.7304  1.0697
    8SAPS  C218 1006   2.489   1.045   5.504 -0.5941 -0.0348 -0.0456
    8SAPS  H18R 1007   2.479   1.143   5.555 -0.9069 -0.4328  0.6676
    8SAPS  H18S 1008   2.556   1.059   5.416  0.0938  0.9390  0.6191
    8SAPS  C219 1009   2.579   0.946   5.594 -0.2371  0.4267 -0.1171
    8SAPS  H19R 1010   2.688   0.964   5.580  0.1200 -0.4533  1.3611
    8SAPS  H19S 1011   2.568   0.838   5.568 -1.7234  0.6341 -0.4597
    8SAPS  C220 1012   2.549   0.966   5.741  0.3757 -0.1613  0.5635
    8SAPS  H20R 1013   2.448   1.009   5.750 -0.1274 -1.5497  2.2172
    8SAPS  H20S 1014   2.619   1.039   5.787 -1.6366  2.3166 -0.1121
    8SAPS  H20T 1015   2.560   0.867   5.791 -0.1220 -0.9942 -0.9123
    8SAPS   C33 1016   3.133   1.558   5.710  0.4128 -0.8041  0.1585
    8SAPS   H3X 1017   3.066   1.608   5.783  0.9204  0.9229 -0.4979
    8SAPS   H3Y 1018   3.055   1.520   5.641  0.7301  1.7119 -1.7425
    8SAPS   C34 1019   3.207   1.666   5.629  0.1446  0.5742  0.0807
    8SAPS   H4X 1020   3.275   1.701   5.709 -1.8353 -1.2422  2.7051
    8SAPS   H4Y 1021   3.140   1.746   5.591  0.0280 -0.4050 -1.8993
    8SAPS   C35 1022   3.272   1.601   5.500 -0.1639 -0.2946 -0.3726
    8SAPS   H5X 1023   3.209   1.512   5.475 -3.9439  2.5878 -2.2166
    8SAPS   H5Y 1024   3.376   1.563   5.509  0.1271  0.7712  1.1238
    8SAPS   C36 1025   3.280   1.702   5.380  0.2145 -0.1747  0.8386
    8SAPS   H6X 1026   3.315   1.802   5.411 -0.3627  1.1792 -2.4757
    8SAPS   H6Y 1027   3.180   1.722   5.336  0.6336 -0.7388 -0.4157
    8SAPS   C37 1028   3.389   1.649   5.282  0.2413  0.0273 -0.3128
    8SAPS   H7X 1029   3.355   1.548   5.251 -1.0633  0.1416  0.6797
    8SAPS   H7Y 1030   3.483   1.651   5.341  0.1441 -1.9209 -0.0396
    8SAPS   C38 1031   3.406   1.725   5.154 -0.0888  0.2397 -0.8139
    8SAPS   H8X 1032   3.423   1.834   5.161  2.6573 -0.0818 -1.2883
    8SAPS   H8Y 1033   3.310   1.718   5.098 -0.3581  0.1484 -0.3494
    8SAPS   C39 1034   3.514   1.670   5.072  0.5572  0.5182 -0.0720
    8SAPS   H9X 1035   3.509   1.559   5.080  1.8346  0.5181  1.2089
    8SAPS   H9Y 1036   3.612   1.703   5.112  2.3779 -1.8441 -2.2920
    8SAPS  C310 1037   3.510   1.715   4.922  0.3477 -0.1087 -0.5858
    8SAPS  H10X 1038   3.404   1.703   4.891 -0.3692  1.7309  1.0032
    8SAPS  H10Y 1039   3.570   1.639   4.867 -0.3878 -1.9507  1.0656
    8SAPS  C311 1040   3.566   1.855   4.913 -0.1095  0.9518  0.5793
    8SAPS  H11X 1041   3.668   1.860   4.957  0.5865  1.4994 -0.9908
    8SAPS  H11Y 1042   3.498   1.914   4.977  1.1338  1.6436  1.3012
    8SAPS  C312 1043   3.569   1.911   4.778  0.0276 -0.4707  0.7092
    8SAPS  H12X 1044   3.493   1.862   4.714  0.3042  0.2334 -0.1795
    8SAPS  H12Y 1045   3.666   1.893   4.727  0.7137 -0.1793  1.8811
    8SAPS  C313 1046   3.550   2.067   4.785 -0.0204  0.5157 -0.2478
    8SAPS  H13X 1047   3.618   2.084   4.871  1.1959 -2.3488 -0.5413
    8SAPS  H13Y 1048   3.450   2.091   4.827 -0.4743 -1.4820 -0.0590
    8SAPS  C314 1049   3.607   2.140   4.656 -0.6675  0.8142 -0.4863
    8SAPS  H14X 1050   3.553   2.095   4.569 -2.0942 -1.5583  1.4977
    8SAPS  H14Y 1051   3.715   2.115   4.650 -1.0420 -1.7463  1.4718
    8SAPS  C315 1052   3.588   2.295   4.656 -0.2931  0.1811  0.1506
    8SAPS  H15X 1053   3.484   2.331   4.672 -0.5188 -0.6666  0.6497
    8SAPS  H15Y 1054   3.615   2.331   4.554  0.2350 -1.0643 -0.1631
    8SAPS  C316 1055   3.693   2.357   4.756 -0.3068  0.1001  0.0488
    8SAPS  H16X 1056   3.696   2.300   4.852  2.4925 -0.5849 -0.3355
    8SAPS  H16Y 1057   3.670   2.464   4.777 -1.2340 -0.1102  0.1404
    8SAPS  C317 1058   3.829   2.364   4.679  0.1376 -0.1988 -0.2439
    8SAPS  H17X 1059   3.803   2.405   4.579  0.2875  1.5648  0.4058
    8SAPS  H17Y 1060   3.859   2.258   4.663  1.7446  0.1317  0.4045
    8SAPS  C318 1061   3.921   2.452   4.764 -0.2877 -0.1511  0.7227
    8SAPS  H18X 1062   3.870   2.549   4.783 -1.3221 -0.8335  1.5450
    8SAPS  H18Y 1063   4.021   2.463   4.716 -0.4230  1.0577  0.6852
    8SAPS  H18Z 1064   3.947   2.403   4.860  0.5386 -3.0136 -0.8696
    9SAPS     N 1065   3.457   5.562   7.011  0.1778 -0.0072  0.4408
    9SAPS   HN1 1066   3.449   5.662   7.037  1.4865  0.2519 -0.0371
    9SAPS   HN2 1067   3.358   5.532   7.005  0.2038  0.1940 -2.0508
    9SAPS   HN3 1068   3.493   5.524   7.101  3.2916 -0.6433 -0.9418
    9SAPS   C12 1069   3.546   5.530   6.897 -0.5889  0.0645 -0.3034
    9SAPS  H12A 1070   3.649   5.535   6.930 -1.2510 -2.3756  2.6004
    9SAPS   C13 1071   3.536   5.373   6.870  0.7379 -0.2729 -0.0734
    9SAPS  O13A 1072   3.451   5.299   6.915  0.1197  0.2593 -0.5570
    9SAPS  O13B 1073   3.618   5.338   6.782 -0.5154  0.0839 -0.1242
    9SAPS   C11 1074   3.505   5.619   6.782  0.4633 -0.1454  0.3170
    9SAPS  H11A 1075   3.400   5.602   6.748 -0.0249  2.5594  0.2696
    9SAPS  H11B 1076   3.570   5.579   6.701  2.0522 -0.6188  1.7803
    9SAPS     P 1077   3.634   5.838   6.726 -0.1901  0.2876 -0.7064
    9SAPS   O13 1078   3.612   5.983   6.753 -0.0337  0.3082 -0.0253
    9SAPS   O14 1079   3.772   5.784   6.741  0.3074  0.1799  0.6264
    9SAPS   O12 1080   3.526   5.758   6.814 -0.4368  0.0906 -0.5369
    9SAPS   O11 1081   3.598   5.806   6.574 -0.3412 -0.6934  0.5432
    9SAPS    C1 1082   3.522   5.901   6.495 -0.5406  0.0336  0.4568
    9SAPS    HA 1083   3.448   5.949   6.563 -0.8640 -1.9171  1.5448
    9SAPS    HB 1084   3.589   5.979   6.454  1.8200 -1.2667  1.6436
    9SAPS    C2 1085   3.440   5.827   6.378  0.7939 -0.1118 -0.9578
    9SAPS    HS 1086   3.401   5.736   6.429  2.9466  0.2358  1.5318
    9SAPS   O21 1087   3.528   5.781   6.278 -0.0021 -0.0739  0.2117
    9SAPS   C21 1088   3.484   5.689   6.199  0.1215 -0.6337 -0.1401
    9SAPS   O22 1089   3.378   5.629   6.205 -0.1821  0.3368 -0.2463
    9SAPS   C22 1090   3.574   5.665   6.076 -1.0434 -0.2601  0.7350
    9SAPS   H2R 1091   3.654   5.741   6.063 -1.6854  0.5803  1.6258
    9SAPS   H2S 1092   3.627   5.572   6.107  2.7380  2.2105  2.4072
    9SAPS    C3 1093   3.334   5.933   6.324  0.0713  0.2864  0.4403
    9SAPS    HX 1094   3.385   6.024   6.285 -0.4585  0.0021 -0.9695
    9SAPS    HY 1095   3.258   5.958   6.401 -2.6639  0.9656 -2.2864
    9SAPS   O31 1096   3.259   5.881   6.212  0.7071 -0.0292 -0.4306
    9SAPS   C31 1097   3.144   5.928   6.175  0.0619 -0.2988 -0.1861
    9SAPS   O32 1098   3.078   6.005   6.242  0.0036 -0.1744  0.2720
    9SAPS   C32 1099   3.097   5.872   6.039 -0.6141  0.1422  0.1288
    9SAPS   H2X 1100   2.991   5.841   6.033 -1.3644  2.4990  0.1695
    9SAPS   H2Y 1101   3.161   5.786   6.009 -1.5539 -1.0932  1.5055
    9SAPS   C23 1102   3.503   5.645   5.938  0.2776  0.2553  0.1605
    9SAPS   H3R 1103   3.416   5.580   5.961 -1.3504  1.8533 -1.2180
    9SAPS   H3S 1104   3.560   5.577   5.871 -0.7918 -0.0846 -0.4298
    9SAPS   C24 1105   3.465   5.769   5.858  0.4283  0.1033  0.4649
    9SAPS   H4R 1106   3.412   5.836   5.929 -1.0327 -1.1945  0.6558
    9SAPS   H4S 1107   3.399   5.747   5.772  2.1764  3.0230 -1.8417
    9SAPS   C25 1108   3.577   5.856   5.813  0.1607 -1.0335 -0.3728
    9SAPS   H5R 1109   3.643   5.889   5.894 -0.5177  0.6508 -0.4693
    9SAPS   C26 1110   3.611   5.903   5.691  0.0205 -0.9612  0.9332
    9SAPS   H6R 1111   3.698   5.969   5.685 -1.4424  1.0365  0.7025
    9SAPS   C27 1112   3.541   5.894   5.563 -0.1443  0.6701 -0.4260
    9SAPS   H7R 1113   3.552   5.987   5.503  3.0266  0.4159 -0.4194
    9SAPS   H7S 1114   3.437   5.867   5.588 -0.4275  1.8422 -0.2598
    9SAPS   C28 1115   3.613   5.780   5.494  0.1633 -0.1139 -0.6108
    9SAPS   H8R 1116   3.620   5.686   5.551  1.2775  0.2569 -0.1241
    9SAPS   C29 1117   3.665   5.774   5.371  0.1124 -0.1549  0.4502
    9SAPS   H9R 1118   3.719   5.687   5.329  4.9004  1.9708  1.5589
    9SAPS  C210 1119   3.650   5.886   5.275 -0.2998  0.0798 -0.3394
    9SAPS  H10R 1120   3.743   5.931   5.236 -1.6625  1.8491 -1.7320
    9SAPS  H10S 1121   3.594   5.970   5.321  0.2884  0.7052 -0.7523
    9SAPS  C211 1122   3.544   5.845   5.174 -0.2099  0.2047  0.5386
    9SAPS  H11R 1123   3.453   5.807   5.223 -0.8930  0.1136 -0.7540
    9SAPS  C212 1124   3.560   5.840   5.042 -0.0926  0.9964  0.3709
    9SAPS  H12R 1125   3.482   5.796   4.978 -0.4367  1.6577  0.3338
    9SAPS  C213 1126   3.678   5.878   4.957 -0.8100  0.3906  0.9822
    9SAPS  H13R 1127   3.744   5.789   4.955  1.0116  1.6590  1.2503
    9SAPS  H13S 1128   3.735   5.963   5.003  0.9631 -1.0048  1.4917
    9SAPS  C214 1129   3.639   5.910   4.812  0.1295  0.2390  0.3154
    9SAPS  H14R 1130   3.604   6.013   4.798 -3.9419 -0.6425  2.5280
    9SAPS  C215 1131   3.606   5.832   4.710 -0.3540 -0.7031  0.0240
    9SAPS  H15R 1132   3.586   5.869   4.608 -3.5710 -0.4072  0.6394
    9SAPS  C216 1133   3.635   5.683   4.702  0.8676 -0.8268 -0.1666
    9SAPS  H16R 1134   3.542   5.644   4.656 -0.2378  0.0855  1.2327
    9SAPS  H16S 1135   3.649   5.626   4.796  1.3218  0.5796  0.6426
    9SAPS  C217 1136   3.750   5.662   4.603  0.3376  0.1971 -0.1177
    9SAPS  H17R 1137   3.840   5.706   4.651  0.7436 -1.6938  0.9514
    9SAPS  H17S 1138   3.736   5.707   4.502  0.2866 -0.4746 -0.4123
    9SAPS  C218 1139   3.789   5.518   4.572 -0.1820 -0.3134  0.9454
    9SAPS  H18R 1140   3.706   5.470   4.516  0.9477  0.7957 -1.8695
    9SAPS  H18S 1141   3.809   5.461   4.665  2.8554  1.6666  1.6809
    9SAPS  C219 1142   3.910   5.505   4.477 -0.4113 -0.3134  0.4670
    9SAPS  H19R 1143   3.902   5.589   4.405  0.1944 -0.4275  0.2633
    9SAPS  H19S 1144   3.910   5.408   4.424  1.0775 -0.7715  1.2464
    9SAPS  C220 1145   4.049   5.503   4.547  0.0712 -0.5301  1.0707
    9SAPS  H20R 1146   4.125   5.495   4.466  2.7713 -0.8088  3.4753
    9SAPS  H20S 1147   4.078   5.418   4.612  1.9480 -0.7663 -0.0119
    9SAPS  H20T 1148   4.061   5.602   4.597 -1.6069  0.1924  0.1303
    9SAPS   C33 1149   3.117   5.980   5.928 -0.1501 -0.0502 -0.8878
    9SAPS   H3X 1150   3.226   6.002   5.924 -0.1208 -0.2330 -1.1035
    9SAPS   H3Y 1151   3.073   6.079   5.950  0.5231  0.0300  0.2228
    9SAPS   C34 1152   3.084   5.924   5.789 -0.0218 -0.4413  0.1973
    9SAPS   H4X 1153   2.976   5.898   5.789 -0.5713  1.6370 -1.1475
    9SAPS   H4Y 1154   3.147   5.836   5.763  0.1719 -0.6526  1.3392
    9SAPS   C35 1155   3.112   6.026   5.679 -0.1329 -0.7046  0.8111
    9SAPS   H5X 1156   3.221   6.038   5.666 -0.3044 -0.8750 -1.1317
    9SAPS   H5Y 1157   3.066   6.121   5.713 -1.2305 -1.2390  0.8674
    9SAPS   C36 1158   3.045   5.988   5.544 -0.0407  0.5159 -0.3031
    9SAPS   H6X 1159   2.942   5.951   5.556 -0.1334  0.8140 -0.1553
    9SAPS   H6Y 1160   3.113   5.905   5.515  0.3071  0.6829  0.0160
    9SAPS   C37 1161   3.060   6.090   5.432 -0.4823 -0.1148 -0.3440
    9SAPS   H7X 1162   3.157   6.144   5.441 -1.9117  2.5354  0.1158
    9SAPS   H7Y 1163   2.992   6.177   5.434  0.1477  0.4135 -0.9846
    9SAPS   C38 1164   3.057   6.034   5.283 -0.1214 -0.4727 -0.0839
    9SAPS   H8X 1165   2.965   5.972   5.277 -1.3333  1.2343  0.1686
    9SAPS   H8Y 1166   3.144   5.966   5.269  0.0993 -0.4204  0.9631
    9SAPS   C39 1167   3.065   6.143   5.173  0.4125  0.2745  0.1577
    9SAPS   H9X 1168   3.145   6.219   5.190 -0.0063  0.7023  0.2293
    9SAPS   H9Y 1169   2.966   6.194   5.178  0.1689 -0.1979  0.2333
    9SAPS  C310 1170   3.072   6.075   5.035  0.2239  0.4887  0.0126
    9SAPS  H10X 1171   3.000   5.991   5.030  1.0580 -0.2407 -0.1568
    9SAPS  H10Y 1172   3.174   6.036   5.010 -0.5427 -0.9904 -0.9637
    9SAPS  C311 1173   3.047   6.169   4.919 -0.0654  0.6685 -0.1528
    9SAPS  H11X 1174   3.119   6.252   4.930 -0.7449  1.5953 -2.2352
    9SAPS  H11Y 1175   2.944   6.212   4.924 -1.1655 -1.8506  0.5232
    9SAPS  C312 1176   3.078   6.112   4.780 -0.1622  0.6569  0.0657
    9SAPS  H12X 1177   2.996   6.040   4.758  0.0887  0.5294 -0.4919
    9SAPS  H12Y 1178   3.175   6.058   4.781 -0.4315  0.1762  0.2314
    9SAPS  C313 1179   3.093   6.224   4.676  0.1257  0.4821  0.2982
    9SAPS  H13X 1180   3.185   6.280   4.707  0.5488  1.2565 -2.1609
    9SAPS  H13Y 1181   3.001   6.284   4.691 -2.7427 -3.7590  1.3624
    9SAPS  C314 1182   3.107   6.179   4.527 -0.2484  0.3809  0.3880
    9SAPS  H14X 1183   3.005   6.149   4.494  0.1338 -1.0778  0.4851
    9SAPS  H14Y 1184   3.184   6.099   4.516  0.7267  1.1216  1.5157
    9SAPS  C315 1185   3.143   6.291   4.421  0.3397  0.4319 -0.5171
    9SAPS  H15X 1186   3.247   6.328   4.433  0.1829  1.2753 -1.5463
    9SAPS  H15Y 1187   3.076   6.375   4.447  1.3055  1.2745 -0.6923
    9SAPS  C316 1188   3.136   6.260   4.269 -1.3320  0.5983  0.0969
    9SAPS  H16X 1189   3.218   6.185   4.259 -1.1515  1.0743 -2.7410
    9SAPS  H16Y 1190   3.164   6.351   4.212 -0.2932  0.0520 -0.3017
    9SAPS  C317 1191   2.999   6.209   4.223  0.5765 -0.0491  0.3609
    9SAPS  H17X 1192   2.929   6.291   4.247  0.4841  0.9174 -2.8387
    9SAPS  H17Y 1193   2.975   6.117   4.282  1.2639  1.0299  2.4072
    9SAPS  C318 1194   2.986   6.185   4.068  0.2253  0.2297  0.2691
    9SAPS  H18X 1195   3.050   6.098   4.045 -0.7632 -0.4876  0.1795
    9SAPS  H18Y 1196   3.028   6.278   4.023 -0.5448  0.8620  0.8295
    9SAPS  H18Z 1197   2.877   6.173   4.049  0.6720 -1.2220 -1.7416
   10SAPS     N 1198   2.886   4.982   6.687  0.6815  0.4157 -0.8159
   10SAPS   HN1 1199   2.784   4.999   6.672  0.4395  0.6625  0.9344
   10SAPS   HN2 1200   2.920   4.954   6.592 -3.0438 -2.6990 -1.5297
   10SAPS   HN3 1201   2.884   4.901   6.753  0.5491  0.4130 -0.8229
   10SAPS   C12 1202   2.959   5.094   6.730 -0.0145 -0.5264 -0.7013
   10SAPS  H12A 1203   2.933   5.099   6.835  1.1310 -1.9168 -0.3305
   10SAPS   C13 1204   3.112   5.091   6.713 -0.1213 -0.0834 -0.1712
   10SAPS  O13A 1205   3.173   4.998   6.658  0.1285  0.1891  0.1459
   10SAPS  O13B 1206   3.172   5.196   6.747  0.2879  0.2145  0.2672
   10SAPS   C11 1207   2.899   5.235   6.669 -0.4093  0.3710 -0.7273
   10SAPS  H11A 1208   2.918   5.213   6.562  0.3304  0.5422 -0.6369
   10SAPS  H11B 1209   2.956   5.326   6.696 -1.1197  0.9395 -1.1060
   10SAPS     P 1210   2.672   5.373   6.683 -0.2532 -0.1670 -0.1230
   10SAPS   O13 1211   2.532   5.330   6.692 -0.2416  0.1053  0.4233
   10SAPS   O14 1212   2.713   5.479   6.778 -0.3392  0.3818 -0.2300
   10SAPS   O12 1213   2.760   5.243   6.701 -0.0421 -0.2457  0.8906
   10SAPS   O11 1214   2.707   5.419   6.536  0.4456 -0.4609 -0.3751
   10SAPS    C1 1215   2.797   5.523   6.512 -0.7007 -0.4376  0.2447
   10SAPS    HA 1216   2.753   5.624   6.530  2.1314  0.8061  0.7155
   10SAPS    HB 1217   2.888   5.511   6.575  0.3998  0.3693 -1.1340
   10SAPS    C2 1218   2.853   5.525   6.358 -0.1469  0.1828 -0.1712
   10SAPS    HS 1219   2.919   5.614   6.356 -0.1286  0.1645 -0.4106
   10SAPS   O21 1220   2.745   5.526   6.254 -0.5421 -0.0289  0.0548
   10SAPS   C21 1221   2.714   5.650   6.219 -0.8409  0.6046  1.4662
   10SAPS   O22 1222   2.765   5.751   6.246 -0.8167 -0.2380  0.4446
   10SAPS   C22 1223   2.608   5.635   6.108 -0.7991  0.3665  1.1585
   10SAPS   H2R 1224   2.531   5.559   6.132 -0.3190 -0.1895  0.9741
   10SAPS   H2S 1225   2.564   5.736   6.092 -1.0867  0.4931  2.6701
   10SAPS    C3 1226   2.958   5.408   6.332 -0.1165 -0.2580 -0.3829
   10SAPS    HX 1227   2.905   5.310   6.325  0.5924 -0.6405 -0.4545
   10SAPS    HY 1228   3.012   5.408   6.429 -2.4718  0.6109  1.0256
   10SAPS   O31 1229   3.045   5.428   6.226  0.3329 -0.0975  0.5694
   10SAPS   C31 1230   3.024   5.370   6.110  0.1426  0.3245 -0.4033
   10SAPS   O32 1231   2.944   5.281   6.095 -0.4819  0.1982  0.4310
   10SAPS   C32 1232   3.129   5.421   6.011 -0.5321 -0.5908  0.0275
   10SAPS   H2X 1233   3.177   5.325   5.983  0.0351 -0.1292 -0.6254
   10SAPS   H2Y 1234   3.196   5.500   6.053  0.4394 -0.8283 -1.0113
   10SAPS   C23 1235   2.678   5.597   5.967  0.8710 -0.1238  0.1523
   10SAPS   H3R 1236   2.738   5.505   5.978 -0.6431 -1.2361 -0.4577
   10SAPS   H3S 1237   2.752   5.676   5.944 -0.0187 -0.1711 -3.4117
   10SAPS   C24 1238   2.569   5.582   5.857  0.0174  0.5735  0.4176
   10SAPS   H4R 1239   2.515   5.679   5.851 -2.9428 -0.5434  4.7023
   10SAPS   H4S 1240   2.497   5.508   5.897 -0.2669  0.4333 -0.3336
   10SAPS   C25 1241   2.637   5.532   5.735  0.0464 -0.2567  0.3775
   10SAPS   H5R 1242   2.685   5.435   5.756  0.6758 -0.1522 -0.4857
   10SAPS   C26 1243   2.658   5.590   5.616  0.4487 -0.4020  0.4774
   10SAPS   H6R 1244   2.703   5.535   5.531 -1.6588 -2.2908  0.4808
   10SAPS   C27 1245   2.587   5.720   5.573 -0.1366 -0.2347  0.3641
   10SAPS   H7R 1246   2.550   5.772   5.664  0.9331 -0.2031  0.7880
   10SAPS   H7S 1247   2.496   5.691   5.516 -1.3495  1.0273  1.5711
   10SAPS   C28 1248   2.669   5.817   5.497  0.4632 -0.7434 -0.2040
   10SAPS   H8R 1249   2.756   5.857   5.551 -0.9054  0.4918  1.1747
   10SAPS   C29 1250   2.653   5.872   5.376 -0.3943  0.1113 -0.4234
   10SAPS   H9R 1251   2.744   5.926   5.344  1.5929 -1.9100  1.5438
   10SAPS  C210 1252   2.552   5.824   5.274 -0.0129 -1.2510 -0.1229
   10SAPS  H10R 1253   2.530   5.907   5.204  1.7324 -2.2999 -2.0288
   10SAPS  H10S 1254   2.459   5.786   5.320  0.0345 -1.9433 -0.5718
   10SAPS  C211 1255   2.613   5.704   5.198  0.8001  0.9653 -0.6146
   10SAPS  H11R 1256   2.687   5.646   5.255 -2.2943 -2.2081  0.4951
   10SAPS  C212 1257   2.607   5.680   5.071  0.7340 -0.1683  0.2713
   10SAPS  H12R 1258   2.656   5.594   5.023  1.3787  0.9690 -1.1928
   10SAPS  C213 1259   2.543   5.764   4.963 -0.0549 -0.0131 -0.4896
   10SAPS  H13R 1260   2.462   5.826   5.006 -0.4440 -0.3093 -0.7983
   10SAPS  H13S 1261   2.493   5.693   4.895  0.8227 -0.0710 -1.0922
   10SAPS  C214 1262   2.643   5.858   4.898 -0.7146  0.1035  0.2152
   10SAPS  H14R 1263   2.681   5.938   4.962 -0.1865  0.5379 -0.6265
   10SAPS  C215 1264   2.684   5.848   4.765  0.6153  0.9180 -0.6420
   10SAPS  H15R 1265   2.761   5.921   4.735  1.7281  0.0878  0.1324
   10SAPS  C216 1266   2.636   5.749   4.661 -0.1824  0.0131 -0.9048
   10SAPS  H16R 1267   2.557   5.685   4.705 -2.6854  3.3171 -0.2238
   10SAPS  H16S 1268   2.723   5.688   4.627  0.3440  1.6086 -2.6118
   10SAPS  C217 1269   2.562   5.807   4.539 -0.3707 -0.4509  0.9284
   10SAPS  H17R 1270   2.513   5.902   4.568 -1.1530 -0.3650 -0.5573
   10SAPS  H17S 1271   2.492   5.731   4.498 -0.7259 -0.3189  1.2827
   10SAPS  C218 1272   2.667   5.819   4.424 -0.3469  0.4807 -0.2079
   10SAPS  H18R 1273   2.742   5.738   4.432 -1.7139 -0.7461  0.5942
   10SAPS  H18S 1274   2.728   5.911   4.437  1.1052 -0.7916  3.4874
   10SAPS  C219 1275   2.595   5.803   4.293  0.3811  0.5822 -0.1105
   10SAPS  H19R 1276   2.529   5.891   4.279  0.8718  1.3662  1.9974
   10SAPS  H19S 1277   2.526   5.716   4.296  2.2818 -1.1021 -2.2213
   10SAPS  C220 1278   2.683   5.769   4.174 -0.6334 -0.3350 -0.2320
   10SAPS  H20R 1279   2.621   5.773   4.082  1.9528  2.9994 -2.1128
   10SAPS  H20S 1280   2.728   5.669   4.190  1.3124  0.5870  0.4940
   10SAPS  H20T 1281   2.766   5.844   4.170 -0.4086 -0.3108  2.7715
   10SAPS   C33 1282   3.045   5.479   5.893  0.0402 -0.5724  0.1241
   10SAPS   H3X 1283   2.992   5.572   5.923 -0.0084 -0.0169 -1.6095
   10SAPS   H3Y 1284   2.967   5.410   5.855 -0.7078  0.8202 -0.9546
   10SAPS   C34 1285   3.130   5.522   5.777  0.3097  0.1429  0.2088
   10SAPS   H4X 1286   3.180   5.430   5.738 -3.0369 -0.5442 -3.0185
   10SAPS   H4Y 1287   3.208   5.601   5.783  2.0122 -1.1918 -2.3369
   10SAPS   C35 1288   3.042   5.580   5.664  0.2404 -0.1217  0.6749
   10SAPS   H5X 1289   3.002   5.679   5.695 -1.1432 -0.2828 -0.4784
   10SAPS   H5Y 1290   2.947   5.522   5.664  0.1920 -0.0845 -0.8838
   10SAPS   C36 1291   3.097   5.583   5.514 -0.0971 -0.4085  0.1414
   10SAPS   H6X 1292   3.101   5.477   5.482  0.9401  0.5457 -3.3736
   10SAPS   H6Y 1293   3.202   5.618   5.512  0.5667 -2.2917 -0.3736
   10SAPS   C37 1294   3.003   5.655   5.409 -0.6292 -0.0870 -1.0538
   10SAPS   H7X 1295   2.984   5.761   5.435  2.1855  0.2077  0.1513
   10SAPS   H7Y 1296   2.903   5.606   5.410 -1.0270  0.7141 -0.7533
   10SAPS   C38 1297   3.053   5.643   5.263  0.4121  0.9217  0.4893
   10SAPS   H8X 1298   3.101   5.543   5.258 -2.4903 -0.5024 -2.8539
   10SAPS   H8Y 1299   3.134   5.717   5.251  0.1591  1.3025  1.0961
   10SAPS   C39 1300   2.948   5.642   5.156 -0.3317  0.1432  0.1266
   10SAPS   H9X 1301   2.904   5.743   5.156 -1.9285 -0.4875  1.8682
   10SAPS   H9Y 1302   2.858   5.582   5.182 -0.7502  0.6149 -0.2253
   10SAPS  C310 1303   3.007   5.606   5.017 -0.1312  0.0137 -0.1300
   10SAPS  H10X 1304   2.925   5.612   4.942 -1.0509  0.3847  0.8905
   10SAPS  H10Y 1305   3.054   5.505   5.019  1.2158  0.6206 -0.1569
   10SAPS  C311 1306   3.125   5.704   4.980 -0.4187  0.0351 -0.3157
   10SAPS  H11X 1307   3.205   5.683   5.054 -1.0798 -2.1415 -0.1313
   10SAPS  H11Y 1308   3.089   5.808   4.991  1.9704  0.9234 -0.3459
   10SAPS  C312 1309   3.187   5.701   4.833  0.2184 -0.0266 -0.5108
   10SAPS  H12X 1310   3.222   5.597   4.813 -0.9652 -0.6289  0.3753
   10SAPS  H12Y 1311   3.268   5.776   4.832 -1.4159  1.8360  0.2341
   10SAPS  C313 1312   3.092   5.718   4.714 -0.9075  0.4266  0.4879
   10SAPS  H13X 1313   3.015   5.793   4.742 -2.5201 -1.5177  1.5389
   10SAPS  H13Y 1314   3.033   5.627   4.689  1.5370 -0.8204 -1.1767
   10SAPS  C314 1315   3.164   5.787   4.593 -0.7848  0.5807 -0.0825
   10SAPS  H14X 1316   3.259   5.730   4.589 -0.2940  1.4365 -1.2413
   10SAPS  H14Y 1317   3.188   5.888   4.632 -0.3209  0.3980  0.1215
   10SAPS  C315 1318   3.087   5.798   4.463 -0.4597 -0.6487 -0.3345
   10SAPS  H15X 1319   3.146   5.866   4.399  2.2352 -1.1948  1.4185
   10SAPS  H15Y 1320   2.995   5.856   4.485  0.0567 -0.0778  0.3567
   10SAPS  C316 1321   3.072   5.670   4.388 -0.7935 -0.0925  0.2906
   10SAPS  H16X 1322   2.986   5.619   4.435 -0.2827 -0.5977  0.6987
   10SAPS  H16Y 1323   3.163   5.609   4.408 -0.8676 -0.7481 -1.1663
   10SAPS  C317 1324   3.046   5.674   4.234  0.4296 -0.2814 -0.3215
   10SAPS  H17X 1325   2.939   5.702   4.221 -0.7371 -3.6584  0.9286
   10SAPS  H17Y 1326   3.052   5.570   4.197 -0.1860 -0.0245 -1.1583
   10SAPS  C318 1327   3.145   5.766   4.158  0.0371 -0.2610  0.5464
   10SAPS  H18X 1328   3.093   5.779   4.061 -0.1825 -1.3195  0.5026
   10SAPS  H18Y 1329   3.245   5.726   4.132  0.3790  0.4121  0.7985
   10SAPS  H18Z 1330   3.163   5.866   4.202 -1.1052  0.0052  0.4390
   11SAPS     N 1331   4.122   6.774   2.260 -0.6231  0.7191  0.3916
   11SAPS   HN1 1332   4.120   6.871   2.297 -0.3430  1.0106 -0.3510
   11SAPS   HN2 1333   4.082   6.712   2.334 -1.4236  0.3245 -0.3542
   11SAPS   HN3 1334   4.220   6.741   2.248 -0.8709  0.2820 -0.5674
   11SAPS   C12 1335   4.041   6.738   2.137 -0.7359  0.4669  0.0679
   11SAPS  H12A 1336   3.967   6.816   2.121 -1.1710 -0.2352 -1.5184
   11SAPS   C13 1337   4.129   6.738   2.005 -0.3173 -0.0298 -1.0644
   11SAPS  O13A 1338   4.253   6.755   2.012 -0.1851  0.1181  0.3854
   11SAPS  O13B 1339   4.067   6.715   1.901 -0.2116  0.3915  0.3795
   11SAPS   C11 1340   3.974   6.600   2.158 -0.2014 -0.0439  0.1714
   11SAPS  H11A 1341   4.054   6.523   2.163 -0.8101 -0.6381  1.0891
   11SAPS  H11B 1342   3.920   6.569   2.066  1.1257 -0.6078 -0.4439
   11SAPS     P 1343   3.909   6.517   2.412  0.1654  0.0189  0.2466
   11SAPS   O13 1344   3.807   6.569   2.503 -0.4843  0.1851 -0.4643
   11SAPS   O14 1345   3.931   6.370   2.391 -0.2928  0.0946  0.0217
   11SAPS   O12 1346   3.892   6.593   2.277  0.0528  0.2065 -0.2348
   11SAPS   O11 1347   4.048   6.576   2.459 -0.6109  0.3992 -0.4853
   11SAPS    C1 1348   4.169   6.502   2.465  0.3357 -0.5526  0.7390
   11SAPS    HA 1349   4.192   6.433   2.381 -1.0741 -0.6927  0.4436
   11SAPS    HB 1350   4.252   6.576   2.460  0.4175 -0.7089 -0.5970
   11SAPS    C2 1351   4.173   6.416   2.591 -0.5113 -0.1096  0.6533
   11SAPS    HS 1352   4.104   6.332   2.571  0.0657 -0.1596 -1.2782
   11SAPS   O21 1353   4.148   6.494   2.703  0.0142 -0.1771 -0.4874
   11SAPS   C21 1354   4.051   6.463   2.789 -0.1142  0.3046 -0.7915
   11SAPS   O22 1355   3.963   6.380   2.774 -0.0295  0.3907 -0.1602
   11SAPS   C22 1356   4.059   6.529   2.921  0.3213  0.1225  0.4199
   11SAPS   H2R 1357   3.983   6.481   2.987 -0.1131  0.3696  0.1033
   11SAPS   H2S 1358   4.156   6.511   2.972 -0.3195  0.2609  1.7323
   11SAPS    C3 1359   4.310   6.356   2.614  0.1178 -0.2257  0.1611
   11SAPS    HX 1360   4.379   6.439   2.639  0.2842 -0.7364  1.4490
   11SAPS    HY 1361   4.342   6.300   2.524 -2.0698  1.5320 -1.8467
   11SAPS   O31 1362   4.298   6.270   2.731  0.6143 -0.0189  0.7175
   11SAPS   C31 1363   4.258   6.151   2.709  0.6079 -0.0458 -0.0419
   11SAPS   O32 1364   4.204   6.113   2.608  0.2400 -0.1425  0.2285
   11SAPS   C32 1365   4.285   6.064   2.827 -0.4778 -0.3726  0.4586
   11SAPS   H2X 1366   4.225   6.100   2.913  0.4915 -1.8381  1.8046
   11SAPS   H2Y 1367   4.393   6.087   2.836 -0.8595  2.8021 -1.6322
   11SAPS   C23 1368   4.031   6.680   2.907 -1.2777 -0.1550  0.0536
   11SAPS   H3R 1369   3.959   6.694   2.824  1.0554 -1.9245 -2.4813
   11SAPS   H3S 1370   4.128   6.719   2.868  1.0668 -4.7713  0.5126
   11SAPS   C24 1371   4.023   6.754   3.037 -0.0642  0.4764  0.0362
   11SAPS   H4R 1372   4.038   6.864   3.025  4.8128 -0.0149 -0.5185
   11SAPS   H4S 1373   4.113   6.743   3.102 -1.6748  0.0437  2.3242
   11SAPS   C25 1374   3.888   6.729   3.095  0.0289  0.1073 -0.1273
   11SAPS   H5R 1375   3.809   6.754   3.022 -0.7324  0.6635  0.8586
   11SAPS   C26 1376   3.849   6.682   3.224 -0.0864 -0.4890  0.1145
   11SAPS   H6R 1377   3.743   6.661   3.244 -0.5992  1.6929 -0.0130
   11SAPS   C27 1378   3.940   6.644   3.334  0.4861 -0.1538 -0.2576
   11SAPS   H7R 1379   4.007   6.562   3.301  1.1386  0.3254 -0.1381
   11SAPS   H7S 1380   3.883   6.605   3.421 -1.0145 -2.5198 -2.1998
   11SAPS   C28 1381   4.015   6.769   3.383 -0.0416 -0.3624 -0.2802
   11SAPS   H8R 1382   3.950   6.857   3.392 -1.4545 -1.1443 -2.0906
   11SAPS   C29 1383   4.141   6.778   3.426 -0.4719 -0.3642  0.1713
   11SAPS   H9R 1384   4.188   6.870   3.462 -1.0848 -0.2316  0.6390
   11SAPS  C210 1385   4.242   6.666   3.414 -0.4916  0.2338 -0.1465
   11SAPS  H10R 1386   4.269   6.633   3.311  2.2625  0.4064  0.4368
   11SAPS  H10S 1387   4.205   6.573   3.462 -2.2666 -0.0909 -1.9932
   11SAPS  C211 1388   4.376   6.693   3.478  0.1914  0.5304  1.1093
   11SAPS  H11R 1389   4.453   6.746   3.420  0.4970 -1.0868 -0.0227
   11SAPS  C212 1390   4.399   6.681   3.611  0.2940  0.2789 -0.0953
   11SAPS  H12R 1391   4.488   6.729   3.654  0.2115 -0.7107  1.2685
   11SAPS  C213 1392   4.308   6.620   3.717  1.2060 -0.0687  0.5930
   11SAPS  H13R 1393   4.236   6.547   3.674  0.7626  1.6529 -1.8349
   11SAPS  H13S 1394   4.243   6.702   3.754  0.5069  0.2803 -1.2965
   11SAPS  C214 1395   4.379   6.562   3.832  0.3911  0.8251 -0.3307
   11SAPS  H14R 1396   4.389   6.453   3.828  2.4136  1.0005 -1.5689
   11SAPS  C215 1397   4.434   6.631   3.935 -0.2635  0.2389  0.1933
   11SAPS  H15R 1398   4.492   6.580   4.014  0.1318  0.7649  0.2466
   11SAPS  C216 1399   4.436   6.780   3.958  0.4978 -0.4668 -0.9311
   11SAPS  H16R 1400   4.382   6.835   3.878  0.0773  0.8074  0.1820
   11SAPS  H16S 1401   4.541   6.814   3.966  0.2673 -0.0087  0.4504
   11SAPS  C217 1402   4.363   6.832   4.088  1.2619  0.1506  0.3130
   11SAPS  H17R 1403   4.263   6.784   4.097  1.2495  0.4181  2.0101
   11SAPS  H17S 1404   4.352   6.942   4.094  0.5365  0.0186  2.0599
   11SAPS  C218 1405   4.445   6.795   4.216  0.4503  0.1840 -0.7406
   11SAPS  H18R 1406   4.547   6.841   4.216  0.9423 -0.7814  1.6885
   11SAPS  H18S 1407   4.462   6.685   4.218 -0.6014 -0.0214  2.5280
   11SAPS  C219 1408   4.374   6.816   4.354 -0.1848 -0.0060  0.2285
   11SAPS  H19R 1409   4.265   6.794   4.359 -0.0141 -0.8718  0.3787
   11SAPS  H19S 1410   4.375   6.926   4.367 -1.6292  0.3565 -2.0499
   11SAPS  C220 1411   4.444   6.743   4.462  0.2189  0.0403 -0.0514
   11SAPS  H20R 1412   4.381   6.739   4.554  0.8950  1.1707  0.4759
   11SAPS  H20S 1413   4.547   6.778   4.482  0.3947 -0.8709  0.6954
   11SAPS  H20T 1414   4.453   6.634   4.441  0.0251 -0.0517  0.3337
   11SAPS   C33 1415   4.241   5.921   2.791  0.1451  1.1167  0.7742
   11SAPS   H3X 1416   4.315   5.877   2.721 -1.3167 -0.8571  0.3801
   11SAPS   H3Y 1417   4.142   5.912   2.742  0.0181  2.8753  0.6278
   11SAPS   C34 1418   4.245   5.821   2.914  0.1504  0.0070  0.5627
   11SAPS   H4X 1419   4.233   5.719   2.872  1.1435  0.1422 -0.0938
   11SAPS   H4Y 1420   4.163   5.850   2.982  1.9995  0.3492  2.7623
   11SAPS   C35 1421   4.375   5.824   3.001  0.0595 -0.2380 -0.0013
   11SAPS   H5X 1422   4.385   5.926   3.043 -0.3492  0.2903 -1.1584
   11SAPS   H5Y 1423   4.461   5.796   2.937  0.2890 -0.8041  0.5376
   11SAPS   C36 1424   4.372   5.734   3.131 -0.1311 -0.3860  0.4684
   11SAPS   H6X 1425   4.478   5.725   3.162  0.5537  3.1108 -0.3609
   11SAPS   H6Y 1426   4.337   5.631   3.111  2.0119 -1.3879  1.6098
   11SAPS   C37 1427   4.291   5.812   3.250  0.0616 -0.1447  0.2381
   11SAPS   H7X 1428   4.186   5.825   3.214  0.2957  0.5474 -0.2136
   11SAPS   H7Y 1429   4.333   5.915   3.249  1.6894 -0.7883 -0.0086
   11SAPS   C38 1430   4.307   5.749   3.387 -0.3539  0.1137 -0.1720
   11SAPS   H8X 1431   4.414   5.725   3.403 -0.3063  1.0293  0.9260
   11SAPS   H8Y 1432   4.240   5.660   3.384 -0.6943  0.2642  1.8903
   11SAPS   C39 1433   4.268   5.827   3.510  0.2146 -0.4832 -0.2106
   11SAPS   H9X 1434   4.166   5.863   3.485  0.9104  1.7623 -0.0197
   11SAPS   H9Y 1435   4.331   5.917   3.525 -0.6423  0.5211 -2.1802
   11SAPS  C310 1436   4.258   5.746   3.645 -0.6017 -0.2402 -0.0130
   11SAPS  H10X 1437   4.352   5.688   3.654  1.6998  3.1577 -0.2620
   11SAPS  H10Y 1438   4.174   5.675   3.630 -0.9022  0.0856  0.1149
   11SAPS  C311 1439   4.244   5.836   3.765  0.4191  0.3255 -0.1225
   11SAPS  H11X 1440   4.175   5.921   3.745 -1.7828 -0.4562  3.2134
   11SAPS  H11Y 1441   4.340   5.874   3.806  1.1538  0.3591 -1.7663
   11SAPS  C312 1442   4.185   5.753   3.882 -0.0612  0.0294 -0.0288
   11SAPS  H12X 1443   4.254   5.669   3.899 -0.5559 -0.0692  1.6470
   11SAPS  H12Y 1444   4.088   5.714   3.843 -0.0280  1.3780 -1.6186
   11SAPS  C313 1445   4.164   5.834   4.012 -0.1274  0.6257 -1.0575
   11SAPS  H13X 1446   4.086   5.912   3.995  0.8598  1.5695 -1.3713
   11SAPS  H13Y 1447   4.266   5.875   4.026  1.3135 -2.5199 -1.4836
   11SAPS  C314 1448   4.131   5.745   4.130 -0.4084  0.2164 -0.0410
   11SAPS  H14X 1449   4.210   5.673   4.163 -1.3233 -1.5837 -1.5844
   11SAPS  H14Y 1450   4.051   5.680   4.089 -0.0060  0.4861 -1.2816
   11SAPS  C315 1451   4.076   5.823   4.248  0.3525 -0.8848 -0.4228
   11SAPS  H15X 1452   4.028   5.753   4.319 -1.5179  0.7839  0.0337
   11SAPS  H15Y 1453   3.993   5.887   4.212 -2.8378 -3.7414  1.3395
   11SAPS  C316 1454   4.182   5.901   4.330  0.1746 -0.3961 -0.0551
   11SAPS  H16X 1455   4.149   6.004   4.356 -0.5794 -0.9940  1.4852
   11SAPS  H16Y 1456   4.272   5.912   4.266 -0.4595  1.7176 -0.6583
   11SAPS  C317 1457   4.233   5.839   4.451 -0.6801 -0.2685 -0.0638
   11SAPS  H17X 1458   4.328   5.889   4.481 -1.5235  0.2230  1.9797
   11SAPS  H17Y 1459   4.248   5.730   4.438  2.6063 -0.0358  0.6666
   11SAPS  C318 1460   4.142   5.855   4.574  0.7064  0.5203  0.5954
   11SAPS  H18X 1461   4.131   5.962   4.601  0.3581  0.3012  1.3388
   11SAPS  H18Y 1462   4.172   5.786   4.655 -2.5129  0.4655  1.8750
   11SAPS  H18Z 1463   4.037   5.834   4.544  0.7345 -0.9358  1.4463
   12SAPS     N 1464   3.696   5.440   1.746  0.0376  0.1137  0.0909
   12SAPS   HN1 1465   3.756   5.449   1.662  1.3146 -0.3907  0.9237
   12SAPS   HN2 1466   3.600   5.465   1.714 -0.7551 -1.2911  1.2119
   12SAPS   HN3 1467   3.730   5.513   1.812 -1.6593  0.8475  0.2134
   12SAPS   C12 1468   3.700   5.302   1.812 -0.1373  0.3551 -1.0685
   12SAPS  H12A 1469   3.631   5.244   1.752 -0.0561 -2.2784  1.1966
   12SAPS   C13 1470   3.830   5.231   1.810  0.1484  0.0172 -0.5758
   12SAPS  O13A 1471   3.923   5.282   1.740  0.3887  0.2507  0.4017
   12SAPS  O13B 1472   3.848   5.128   1.881  0.5447 -0.1019  0.4565
   12SAPS   C11 1473   3.633   5.317   1.951  0.3529  0.4260 -0.2795
   12SAPS  H11A 1474   3.705   5.384   2.004  2.2215 -1.3387 -0.4412
   12SAPS  H11B 1475   3.637   5.214   1.995  0.9118  0.2643 -0.6929
   12SAPS     P 1476   3.370   5.309   1.968  0.5053 -0.0610 -0.0881
   12SAPS   O13 1477   3.254   5.401   1.985 -0.5842 -0.3646 -0.0325
   12SAPS   O14 1478   3.347   5.206   1.861  0.9186  0.9115 -0.4301
   12SAPS   O12 1479   3.502   5.384   1.932  0.3567 -0.2118 -0.4552
   12SAPS   O11 1480   3.395   5.230   2.109  0.5702 -0.2786  0.0481
   12SAPS    C1 1481   3.420   5.319   2.221  0.1075 -0.6657 -0.1600
   12SAPS    HA 1482   3.514   5.378   2.215 -0.4112  0.2053  0.0773
   12SAPS    HB 1483   3.328   5.381   2.231  0.4498 -0.1102 -0.4201
   12SAPS    C2 1484   3.424   5.236   2.343  0.1250 -0.6982 -0.5244
   12SAPS    HS 1485   3.332   5.174   2.346  0.1372 -0.6817  2.2695
   12SAPS   O21 1486   3.420   5.318   2.461  0.1284  0.1925  0.4225
   12SAPS   C21 1487   3.334   5.293   2.562 -0.2799  0.0642  0.4813
   12SAPS   O22 1488   3.250   5.205   2.564 -0.6916  0.3464 -0.5370
   12SAPS   C22 1489   3.390   5.376   2.681  0.4110 -0.1930  0.0464
   12SAPS   H2R 1490   3.482   5.327   2.719 -0.0896 -0.2672  1.1831
   12SAPS   H2S 1491   3.417   5.479   2.648 -0.7831  0.4093  0.8593
   12SAPS    C3 1492   3.545   5.142   2.346  0.2559 -0.1147 -0.1084
   12SAPS    HX 1493   3.633   5.208   2.328  1.6770 -1.7256  0.5955
   12SAPS    HY 1494   3.550   5.077   2.256 -1.0468  0.5674 -0.6938
   12SAPS   O31 1495   3.557   5.078   2.474  0.4660  0.0782  0.0134
   12SAPS   C31 1496   3.490   4.964   2.478  0.7466  1.0194 -0.4013
   12SAPS   O32 1497   3.424   4.918   2.386  0.6864  0.1068 -0.6044
   12SAPS   C32 1498   3.514   4.891   2.620  0.9094  0.6411  0.9765
   12SAPS   H2X 1499   3.623   4.875   2.635  0.9618 -0.5535 -0.4577
   12SAPS   H2Y 1500   3.464   4.792   2.617  0.1298  1.0498 -0.1330
   12SAPS   C23 1501   3.293   5.376   2.807  0.0100  0.3669  0.4260
   12SAPS   H3R 1502   3.268   5.271   2.833  0.3354  0.5616  1.5684
   12SAPS   H3S 1503   3.197   5.426   2.785 -0.2608 -0.1845  0.3265
   12SAPS   C24 1504   3.354   5.444   2.933 -0.1366 -0.3309  0.1696
   12SAPS   H4R 1505   3.401   5.544   2.921 -1.1514  0.1444  0.0674
   12SAPS   H4S 1506   3.437   5.377   2.965  1.1128  1.9297  2.0580
   12SAPS   C25 1507   3.254   5.447   3.045  0.3218  0.3785 -0.4409
   12SAPS   H5R 1508   3.175   5.521   3.026  0.7853  0.8001 -0.7579
   12SAPS   C26 1509   3.263   5.392   3.171 -0.1294 -0.2935  0.4766
   12SAPS   H6R 1510   3.171   5.400   3.232 -0.4952 -0.4941 -0.0375
   12SAPS   C27 1511   3.365   5.296   3.224  0.1796  1.0605  0.1107
   12SAPS   H7R 1512   3.416   5.340   3.312  0.0078  0.5829  0.4519
   12SAPS   H7S 1513   3.448   5.271   3.154  0.3954 -1.4221  1.1400
   12SAPS   C28 1514   3.306   5.154   3.258  0.0663 -0.4674 -0.0904
   12SAPS   H8R 1515   3.318   5.074   3.183 -1.0924 -1.4967  0.7869
   12SAPS   C29 1516   3.246   5.126   3.370  0.6767  0.0834  0.1754
   12SAPS   H9R 1517   3.198   5.029   3.392  0.3805  0.2377  0.2034
   12SAPS  C210 1518   3.225   5.221   3.482  0.0689 -0.0870  0.4578
   12SAPS  H10R 1519   3.190   5.316   3.436  2.2378  0.1088 -0.9382
   12SAPS  H10S 1520   3.323   5.239   3.532  0.4094  1.1711 -0.5904
   12SAPS  C211 1521   3.123   5.187   3.586  0.3240 -0.4574 -0.0405
   12SAPS  H11R 1522   3.024   5.234   3.575  0.3214 -0.6214 -0.8375
   12SAPS  C212 1523   3.131   5.089   3.673  0.1368 -0.0457 -0.0500
   12SAPS  H12R 1524   3.039   5.076   3.731 -0.9392  1.3371 -1.3662
   12SAPS  C213 1525   3.239   4.988   3.698 -0.1797  0.4045 -0.3746
   12SAPS  H13R 1526   3.285   5.013   3.795  2.6462  0.1265 -1.5558
   12SAPS  H13S 1527   3.329   5.002   3.635  0.9994  1.0815  1.4138
   12SAPS  C214 1528   3.182   4.847   3.702  0.6225  0.0005  0.4613
   12SAPS  H14R 1529   3.191   4.800   3.603 -3.1928 -0.1163  0.0393
   12SAPS  C215 1530   3.128   4.777   3.803  0.3022  0.1187 -0.2334
   12SAPS  H15R 1531   3.116   4.670   3.780  0.0972  0.3939 -1.5015
   12SAPS  C216 1532   3.085   4.827   3.938 -0.0747  0.0039 -0.0848
   12SAPS  H16R 1533   2.998   4.769   3.975 -0.5341  0.3684 -0.5693
   12SAPS  H16S 1534   3.045   4.931   3.934 -1.1588 -0.3897  0.1008
   12SAPS  C217 1535   3.193   4.843   4.049 -0.6087 -0.3587 -0.0502
   12SAPS  H17R 1536   3.152   4.894   4.139  2.4055  0.5792  0.8934
   12SAPS  H17S 1537   3.284   4.902   4.027 -0.1378 -0.4751  1.4815
   12SAPS  C218 1538   3.257   4.707   4.082 -0.0016  0.3238 -0.4131
   12SAPS  H18R 1539   3.332   4.728   4.162 -0.7779  1.3233  0.0820
   12SAPS  H18S 1540   3.318   4.665   3.999  0.6358  0.0035  0.2032
   12SAPS  C219 1541   3.152   4.600   4.116 -0.2676 -0.4500  0.6081
   12SAPS  H19R 1542   3.100   4.572   4.022  1.3290  0.2595 -0.5459
   12SAPS  H19S 1543   3.078   4.642   4.187  1.3594  0.1738  1.9820
   12SAPS  C220 1544   3.204   4.473   4.184  0.5351  0.2119  0.2710
   12SAPS  H20R 1545   3.265   4.486   4.276 -0.0373 -1.1351  0.8733
   12SAPS  H20S 1546   3.261   4.415   4.108 -3.2699 -0.6728 -2.2420
   12SAPS  H20T 1547   3.119   4.414   4.226 -0.7700  2.4666  0.9578
   12SAPS   C33 1548   3.449   4.974   2.739 -0.7667 -0.1731 -0.3458
   12SAPS   H3X 1549   3.353   5.017   2.705  0.8947  2.2798 -2.3082
   12SAPS   H3Y 1550   3.513   5.061   2.767  1.4285 -2.1636  1.3056
   12SAPS   C34 1551   3.446   4.907   2.877  0.0025  0.3086  0.4617
   12SAPS   H4X 1552   3.376   4.823   2.856  1.1227 -0.3232 -0.9114
   12SAPS   H4Y 1553   3.407   4.980   2.952  2.0867 -0.4688  2.4081
   12SAPS   C35 1554   3.578   4.850   2.922 -0.5472 -0.1556  1.1693
   12SAPS   H5X 1555   3.650   4.934   2.926 -0.9407  0.2231  0.5286
   12SAPS   H5Y 1556   3.614   4.779   2.845  0.9464  3.1732 -1.4140
   12SAPS   C36 1557   3.575   4.773   3.057 -0.3874  0.0177 -0.9595
   12SAPS   H6X 1558   3.509   4.686   3.035  0.3648 -1.1379  1.0334
   12SAPS   H6Y 1559   3.526   4.826   3.142 -2.0106 -1.9064 -0.6249
   12SAPS   C37 1560   3.714   4.738   3.104  0.2913  0.3967 -0.2314
   12SAPS   H7X 1561   3.775   4.827   3.128 -0.6644  2.1427 -3.6249
   12SAPS   H7Y 1562   3.763   4.669   3.032 -1.8948 -1.3375 -0.1938
   12SAPS   C38 1563   3.725   4.648   3.230 -0.2438 -0.3896 -0.0909
   12SAPS   H8X 1564   3.824   4.651   3.280 -1.3180 -0.0356  2.1221
   12SAPS   H8Y 1565   3.700   4.543   3.202 -1.4929  0.5830 -2.9941
   12SAPS   C39 1566   3.633   4.696   3.350  0.3853 -0.2613  0.3645
   12SAPS   H9X 1567   3.654   4.614   3.422  0.2211  0.2645  1.0225
   12SAPS   H9Y 1568   3.526   4.701   3.321  0.1388 -2.3928  0.7299
   12SAPS  C310 1569   3.682   4.827   3.417 -0.2490 -0.1247 -0.2895
   12SAPS  H10X 1570   3.669   4.900   3.335 -0.3670  0.4402  0.2306
   12SAPS  H10Y 1571   3.790   4.830   3.443 -0.0431  0.1996 -1.1484
   12SAPS  C311 1572   3.601   4.869   3.538  0.3837  0.2073 -0.2671
   12SAPS  H11X 1573   3.494   4.844   3.522  0.4129  0.2646 -0.5689
   12SAPS  H11Y 1574   3.604   4.979   3.556 -1.7863  0.1046  1.2038
   12SAPS  C312 1575   3.646   4.806   3.668  0.7201  0.1304 -0.0028
   12SAPS  H12X 1576   3.621   4.698   3.662  0.2024  0.1754  1.1102
   12SAPS  H12Y 1577   3.564   4.839   3.735  0.9328 -0.8110  0.7365
   12SAPS  C313 1578   3.780   4.849   3.726 -0.2390  0.0796 -0.4109
   12SAPS  H13X 1579   3.789   4.959   3.731 -2.4463  0.2490  0.8808
   12SAPS  H13Y 1580   3.861   4.815   3.657 -1.0175 -0.3374 -1.1359
   12SAPS  C314 1581   3.805   4.792   3.865 -0.3036  0.5317 -0.7475
   12SAPS  H14X 1582   3.912   4.814   3.885 -0.2426  0.7057 -1.2455
   12SAPS  H14Y 1583   3.796   4.682   3.866 -1.0564  0.4220  3.9881
   12SAPS  C315 1584   3.711   4.861   3.969 -0.3060 -0.6205  0.3995
   12SAPS  H15X 1585   3.612   4.835   3.926  0.5235 -0.9320 -1.4228
   12SAPS  H15Y 1586   3.718   4.971   3.958 -1.2535 -0.4000  1.8210
   12SAPS  C316 1587   3.698   4.822   4.112 -0.1989 -0.3301  0.2863
   12SAPS  H16X 1588   3.648   4.723   4.103  0.6275 -0.7266  0.0415
   12SAPS  H16Y 1589   3.621   4.892   4.151 -1.4970 -2.2350  1.3021
   12SAPS  C317 1590   3.826   4.806   4.193 -0.3933 -0.6400  0.7486
   12SAPS  H17X 1591   3.887   4.898   4.190  0.0207 -0.9234  0.2639
   12SAPS  H17Y 1592   3.889   4.733   4.138  1.5221  0.6474  1.1153
   12SAPS  C318 1593   3.807   4.750   4.337  0.0481 -1.1492 -0.5334
   12SAPS  H18X 1594   3.902   4.756   4.395 -0.4780  3.5927  0.2449
   12SAPS  H18Y 1595   3.775   4.644   4.327 -1.2586 -1.0816  2.1428
   12SAPS  H18Z 1596   3.732   4.810   4.392  0.6685  1.2853 -2.1844
   13SAPS     N 1597   0.457   5.672   2.789 -0.8820  0.4264 -0.0875
   13SAPS   HN1 1598   0.376   5.626   2.836 -0.3393  0.4726  0.8988
   13SAPS   HN2 1599   0.546   5.648   2.836  0.9486  0.9984 -3.0306
   13SAPS   HN3 1600   0.440   5.774   2.789 -0.4435  0.5014  0.0868
   13SAPS   C12 1601   0.475   5.638   2.640 -0.1196  0.2988 -0.2280
   13SAPS  H12A 1602   0.401   5.676   2.571  2.3528  0.9090 -2.7262
   13SAPS   C13 1603   0.610   5.691   2.589 -0.0349  0.4642 -0.0623
   13SAPS  O13A 1604   0.677   5.769   2.657  0.0058  0.1204  0.1680
   13SAPS  O13B 1605   0.642   5.655   2.471 -0.3251 -0.5113 -0.3882
   13SAPS   C11 1606   0.484   5.479   2.635  0.3878  0.1373 -0.2664
   13SAPS  H11A 1607   0.571   5.452   2.697  1.7374  2.0000 -1.2253
   13SAPS  H11B 1608   0.514   5.445   2.533  2.0530  0.2099  0.1786
   13SAPS     P 1609   0.333   5.270   2.669  0.2240 -0.0634  0.1376
   13SAPS   O13 1610   0.206   5.243   2.738  0.4341 -0.2858  0.5298
   13SAPS   O14 1611   0.364   5.211   2.535  0.4368  0.2001 -0.5523
   13SAPS   O12 1612   0.359   5.420   2.677 -0.2972 -0.9553  0.1520
   13SAPS   O11 1613   0.442   5.206   2.763 -0.3671 -0.5820 -0.5005
   13SAPS    C1 1614   0.486   5.266   2.888 -0.6020 -0.2476 -0.4383
   13SAPS    HA 1615   0.595   5.288   2.882 -0.3700 -0.7338  1.2904
   13SAPS    HB 1616   0.436   5.357   2.928  0.7200  0.2224  0.2307
   13SAPS    C2 1617   0.469   5.166   3.007  0.3143  0.7455 -0.7864
   13SAPS    HS 1618   0.500   5.219   3.099  1.8658 -1.7108  0.2270
   13SAPS   O21 1619   0.551   5.046   2.974  0.1341  0.8990 -0.2291
   13SAPS   C21 1620   0.620   5.003   3.081 -0.3984  0.0505 -0.0767
   13SAPS   O22 1621   0.598   5.038   3.196 -0.3980 -0.3074  0.4485
   13SAPS   C22 1622   0.734   4.904   3.051  0.3050 -1.2585 -0.1947
   13SAPS   H2R 1623   0.769   4.933   2.950 -2.6033 -1.3424 -1.3255
   13SAPS   H2S 1624   0.816   4.924   3.124  2.2429 -2.8278 -1.8248
   13SAPS    C3 1625   0.321   5.126   3.022  0.3795 -0.6743 -0.2797
   13SAPS    HX 1626   0.294   5.060   2.937 -1.8059  1.2165 -1.1408
   13SAPS    HY 1627   0.265   5.216   2.990  0.3164 -0.0101  1.6082
   13SAPS   O31 1628   0.286   5.075   3.154  0.0921 -0.2247  0.4162
   13SAPS   C31 1629   0.284   4.936   3.161  0.2984 -0.9054  0.4944
   13SAPS   O32 1630   0.299   4.859   3.070  0.3559  0.5109  0.0334
   13SAPS   C32 1631   0.245   4.896   3.305  0.2164 -0.3971 -0.3677
   13SAPS   H2X 1632   0.213   4.789   3.299 -1.2632 -0.3300  3.3586
   13SAPS   H2Y 1633   0.151   4.949   3.333 -1.0416 -1.9372 -1.4401
   13SAPS   C23 1634   0.690   4.754   3.049 -0.0500  0.0926 -0.2288
   13SAPS   H3R 1635   0.785   4.704   3.024 -0.5742 -1.6370  1.0407
   13SAPS   H3S 1636   0.604   4.732   2.982  0.1836 -0.7022 -0.2738
   13SAPS   C24 1637   0.670   4.691   3.193  0.3637  0.0422  0.5785
   13SAPS   H4R 1638   0.640   4.584   3.187 -2.3202  0.6640  1.4938
   13SAPS   H4S 1639   0.579   4.745   3.227  0.0118 -0.3445  0.2643
   13SAPS   C25 1640   0.777   4.716   3.300 -0.2230 -0.3789  0.5191
   13SAPS   H5R 1641   0.796   4.822   3.322 -1.8902  0.1635 -0.4152
   13SAPS   C26 1642   0.853   4.631   3.371  0.1194 -0.4376  0.3689
   13SAPS   H6R 1643   0.916   4.665   3.455  2.8727 -0.7894 -1.4090
   13SAPS   C27 1644   0.842   4.485   3.350  0.3878  0.0657 -0.9997
   13SAPS   H7R 1645   0.778   4.455   3.264 -0.6023  0.2452 -0.3502
   13SAPS   H7S 1646   0.783   4.443   3.435 -0.7375  2.3223 -0.5980
   13SAPS   C28 1647   0.972   4.413   3.344  0.4351  0.2155  0.5145
   13SAPS   H8R 1648   0.979   4.362   3.247  1.2491  0.5734  0.3805
   13SAPS   C29 1649   1.057   4.386   3.446  0.3804  0.3572  0.4951
   13SAPS   H9R 1650   1.144   4.323   3.422 -1.5114 -2.7777  1.1674
   13SAPS  C210 1651   1.058   4.432   3.584  0.8036 -0.2193 -0.3397
   13SAPS  H10R 1652   0.996   4.522   3.600  2.5004  0.7517  1.0052
   13SAPS  H10S 1653   1.159   4.459   3.621  0.0280  0.9272  1.0216
   13SAPS  C211 1654   0.997   4.320   3.670 -0.0945 -0.0566 -0.6171
   13SAPS  H11R 1655   0.890   4.298   3.655 -0.7468  0.4624  2.6355
   13SAPS  C212 1656   1.055   4.252   3.768  0.1380 -0.0374 -0.9935
   13SAPS  H12R 1657   0.993   4.186   3.832  0.3906  0.7793  0.1238
   13SAPS  C213 1658   1.202   4.263   3.809 -0.1418 -0.1937 -1.0671
   13SAPS  H13R 1659   1.267   4.290   3.723 -0.2484 -1.9402 -1.7145
   13SAPS  H13S 1660   1.232   4.160   3.837 -0.6053  0.0148  0.2800
   13SAPS  C214 1661   1.237   4.347   3.931  0.0487 -0.1659 -0.5612
   13SAPS  H14R 1662   1.293   4.435   3.895 -2.7775  1.0621 -2.2728
   13SAPS  C215 1663   1.235   4.318   4.061  0.0823 -0.9169  0.0547
   13SAPS  H15R 1664   1.273   4.392   4.133 -1.4733  0.5625 -0.5744
   13SAPS  C216 1665   1.179   4.190   4.112  0.3473 -0.1391 -0.9236
   13SAPS  H16R 1666   1.177   4.106   4.039 -0.4650 -1.3931  0.4864
   13SAPS  H16S 1667   1.079   4.220   4.149  0.6199  0.2969 -0.5397
   13SAPS  C217 1668   1.266   4.138   4.227 -0.0666 -0.8273 -0.3248
   13SAPS  H17R 1669   1.258   4.215   4.307  0.6757 -0.3610 -0.6863
   13SAPS  H17S 1670   1.373   4.120   4.206 -0.6751 -3.8114 -1.3534
   13SAPS  C218 1671   1.206   4.009   4.283 -0.1964  0.1633  0.4944
   13SAPS  H18R 1672   1.213   3.913   4.228 -0.1504 -0.3029  1.3036
   13SAPS  H18S 1673   1.099   4.019   4.312 -0.0916 -0.9411  1.3100
   13SAPS  C219 1674   1.287   3.968   4.404 -1.4491  0.6322 -0.1584
   13SAPS  H19R 1675   1.302   4.059   4.466 -3.1137  0.4685  0.5492
   13SAPS  H19S 1676   1.388   3.934   4.374 -1.7409 -1.4338  0.9458
   13SAPS  C220 1677   1.222   3.843   4.477 -0.2701  0.1135 -0.0498
   13SAPS  H20R 1678   1.126   3.872   4.523 -0.5959  1.0229 -1.2535
   13SAPS  H20S 1679   1.287   3.793   4.552  1.8448  0.8925 -1.2678
   13SAPS  H20T 1680   1.201   3.760   4.406 -0.2787 -3.0662  3.3664
   13SAPS   C33 1681   0.345   4.918   3.411 -0.1958  0.1552 -0.1093
   13SAPS   H3X 1682   0.280   4.965   3.488 -0.2633 -3.4594  2.3033
   13SAPS   H3Y 1683   0.433   4.980   3.387  0.9166 -0.7537  1.3942
   13SAPS   C34 1684   0.405   4.789   3.479 -0.3128 -0.8172 -0.8769
   13SAPS   H4X 1685   0.427   4.710   3.404  0.8553 -1.1756 -0.1662
   13SAPS   H4Y 1686   0.327   4.754   3.550  1.8323 -0.9666  1.5170
   13SAPS   C35 1687   0.532   4.813   3.564 -0.6026  0.3214 -0.7666
   13SAPS   H5X 1688   0.500   4.887   3.640  0.0645 -0.2227  0.0653
   13SAPS   H5Y 1689   0.621   4.840   3.504  1.3079 -1.1328  1.2502
   13SAPS   C36 1690   0.589   4.691   3.638  0.2316  0.2632 -0.7716
   13SAPS   H6X 1691   0.637   4.621   3.566  0.1266  1.0637 -1.6564
   13SAPS   H6Y 1692   0.506   4.642   3.693  0.0315  0.8610 -0.5348
   13SAPS   C37 1693   0.705   4.726   3.738 -0.0027  0.0147 -0.8325
   13SAPS   H7X 1694   0.666   4.804   3.807 -2.1923 -0.9404 -0.8825
   13SAPS   H7Y 1695   0.797   4.763   3.690  0.2448  0.4202 -0.0673
   13SAPS   C38 1696   0.741   4.601   3.815  0.0679  0.5779 -0.6754
   13SAPS   H8X 1697   0.773   4.520   3.746 -1.4212  0.8340 -1.7161
   13SAPS   H8Y 1698   0.649   4.566   3.867 -0.9332  1.8602 -1.5263
   13SAPS   C39 1699   0.843   4.623   3.926 -0.2341 -0.6081  0.3595
   13SAPS   H9X 1700   0.832   4.725   3.969 -0.1910 -0.3254 -0.2884
   13SAPS   H9Y 1701   0.941   4.629   3.874 -1.2490 -0.3991 -1.5941
   13SAPS  C310 1702   0.837   4.529   4.036  0.1810  0.2045  0.6456
   13SAPS  H10X 1703   0.850   4.428   3.991  2.2359  0.6414  0.1424
   13SAPS  H10Y 1704   0.736   4.530   4.082  0.4990 -0.8246  1.4057
   13SAPS  C311 1705   0.934   4.557   4.144 -0.3744  0.1565 -0.5816
   13SAPS  H11X 1706   0.921   4.656   4.193  2.4972 -0.0607  0.8385
   13SAPS  H11Y 1707   1.040   4.555   4.110 -0.8370  2.2127 -2.4064
   13SAPS  C312 1708   0.914   4.458   4.257 -0.4944  0.4499  0.2362
   13SAPS  H12X 1709   0.914   4.350   4.231  4.6301 -0.3675  2.3449
   13SAPS  H12Y 1710   0.818   4.483   4.306  0.9769  1.4369  2.8229
   13SAPS  C313 1711   1.016   4.473   4.371  0.0977  0.0194 -0.3711
   13SAPS  H13X 1712   1.004   4.566   4.431  0.4964 -1.1598  1.6320
   13SAPS  H13Y 1713   1.115   4.479   4.321 -0.7585  2.1387 -1.9697
   13SAPS  C314 1714   1.007   4.361   4.478 -1.2577  0.8265 -0.0568
   13SAPS  H14X 1715   1.005   4.258   4.434  0.0895  0.1786  1.3142
   13SAPS  H14Y 1716   0.922   4.358   4.549 -1.6998 -2.0599 -0.5765
   13SAPS  C315 1717   1.128   4.362   4.568 -0.1677  0.3900 -0.2062
   13SAPS  H15X 1718   1.225   4.352   4.515 -0.9103 -0.7246 -1.4147
   13SAPS  H15Y 1719   1.119   4.266   4.623  1.2986 -0.1606 -0.8937
   13SAPS  C316 1720   1.119   4.479   4.674 -0.8009 -0.3568 -0.2378
   13SAPS  H16X 1721   1.017   4.472   4.719 -0.3797  0.1944  0.8316
   13SAPS  H16Y 1722   1.129   4.578   4.624 -0.8351 -0.5702 -0.6709
   13SAPS  C317 1723   1.226   4.466   4.789  0.8931 -0.1585  0.4199
   13SAPS  H17X 1724   1.329   4.487   4.753  1.3537  0.7698  2.1867
   13SAPS  H17Y 1725   1.224   4.363   4.832  1.0851 -0.6954 -0.8087
   13SAPS  C318 1726   1.202   4.558   4.909 -0.0172  0.7009 -0.6975
   13SAPS  H18X 1727   1.189   4.662   4.873  3.3393  0.6272 -2.4429
   13SAPS  H18Y 1728   1.300   4.549   4.960 -0.0312 -1.2680 -0.9149
   13SAPS  H18Z 1729   1.121   4.522   4.977  1.5230 -0.8722  0.3919
   14SAPS     N 1730   0.268   5.949   3.076 -0.5268 -0.5507 -0.0594
   14SAPS   HN1 1731   0.191   5.887   3.046 -0.2589 -1.0374  0.2400
   14SAPS   HN2 1732   0.356   5.901   3.104  0.2891  0.9070  0.0169
   14SAPS   HN3 1733   0.236   5.987   3.167  0.3685 -2.7676  1.2506
   14SAPS   C12 1734   0.285   6.062   2.972 -0.0192  0.1617  0.0975
   14SAPS  H12A 1735   0.352   6.130   3.023  2.5412 -2.2934  0.2196
   14SAPS   C13 1736   0.359   6.034   2.840 -0.4228 -0.0920 -0.6061
   14SAPS  O13A 1737   0.376   5.923   2.790 -0.5897  0.3258 -0.5087
   14SAPS  O13B 1738   0.398   6.136   2.774 -0.1864 -0.0644 -0.0381
   14SAPS   C11 1739   0.149   6.128   2.935  0.1702  0.5506 -0.3922
   14SAPS  H11A 1740   0.104   6.042   2.880 -0.2023 -1.5475  2.9475
   14SAPS  H11B 1741   0.158   6.221   2.874 -0.2254  1.6874  1.2147
   14SAPS     P 1742  -0.059   6.237   3.053  0.0011  0.3365 -0.0035
   14SAPS   O13 1743  -0.039   6.336   2.949 -0.1822  0.1804  0.2150
   14SAPS   O14 1744  -0.170   6.143   3.039  0.9496 -0.3403 -0.8268
   14SAPS   O12 1745   0.078   6.158   3.055  0.2987 -0.0065 -0.1850
   14SAPS   O11 1746  -0.058   6.298   3.194  0.8189  0.4989  0.3958
   14SAPS    C1 1747   0.004   6.252   3.306 -0.4843  1.0022  0.0654
   14SAPS    HA 1748  -0.041   6.313   3.388 -1.6623 -0.3287  0.4388
   14SAPS    HB 1749  -0.019   6.145   3.328 -2.6087  1.0580 -1.5503
   14SAPS    C2 1750   0.157   6.275   3.323  0.6763 -0.4258  0.0654
   14SAPS    HS 1751   0.207   6.222   3.239  0.6881 -0.4309  0.0755
   14SAPS   O21 1752   0.201   6.217   3.451 -0.6666  0.0518  0.0963
   14SAPS   C21 1753   0.240   6.092   3.434 -0.1433  0.5853 -0.3812
   14SAPS   O22 1754   0.228   6.020   3.335  0.4609  0.4330 -0.1005
   14SAPS   C22 1755   0.288   6.033   3.566  0.2876 -0.1108 -0.3442
   14SAPS   H2R 1756   0.265   5.925   3.565 -0.2165 -0.0050 -1.4904
   14SAPS   H2S 1757   0.396   6.057   3.578  0.0138  0.7855  0.5139
   14SAPS    C3 1758   0.194   6.427   3.317  0.3567 -0.0903  0.0342
   14SAPS    HX 1759   0.147   6.475   3.229  0.8057  3.0713  1.3667
   14SAPS    HY 1760   0.302   6.436   3.293  0.4421  1.1219  0.7829
   14SAPS   O31 1761   0.170   6.499   3.440  0.0956  0.1595  0.3087
   14SAPS   C31 1762   0.114   6.622   3.441 -0.6386 -0.1087 -0.5237
   14SAPS   O32 1763   0.090   6.690   3.345 -0.0365  0.0641 -0.0341
   14SAPS   C32 1764   0.063   6.658   3.586  0.4158  0.0770 -0.0274
   14SAPS   H2X 1765   0.131   6.611   3.660  1.2774 -0.2938 -1.0253
   14SAPS   H2Y 1766  -0.041   6.619   3.588  0.3384  0.2468 -0.5613
   14SAPS   C23 1767   0.217   6.093   3.694 -0.1816 -0.0934  0.2114
   14SAPS   H3R 1768   0.232   6.203   3.694 -1.6063  0.1216  1.0883
   14SAPS   H3S 1769   0.279   6.054   3.778  1.9832 -0.1902 -1.3471
   14SAPS   C24 1770   0.070   6.049   3.721 -0.0815  0.8510 -0.0623
   14SAPS   H4R 1771   0.057   6.058   3.831  0.4896  0.0862  0.0741
   14SAPS   H4S 1772   0.071   5.939   3.708  1.4185  1.1056 -3.1740
   14SAPS   C25 1773  -0.040   6.115   3.636  0.6290  0.5528  0.3967
   14SAPS   H5R 1774  -0.003   6.195   3.570  1.5047 -0.0236  0.1774
   14SAPS   C26 1775  -0.173   6.081   3.632  0.0730 -0.0599  0.1400
   14SAPS   H6R 1776  -0.236   6.141   3.565  1.9647  1.2756 -0.5253
   14SAPS   C27 1777  -0.251   5.997   3.722 -0.3604 -0.7661 -0.8780
   14SAPS   H7R 1778  -0.180   5.975   3.805 -0.5198 -1.1473 -0.8430
   14SAPS   H7S 1779  -0.269   5.906   3.661  0.1178 -0.8933 -0.8366
   14SAPS   C28 1780  -0.378   6.056   3.776 -0.0629  0.0872 -0.4576
   14SAPS   H8R 1781  -0.454   6.080   3.700 -1.4232 -2.7408 -0.1080
   14SAPS   C29 1782  -0.427   6.049   3.905 -0.2915  0.6330  0.2577
   14SAPS   H9R 1783  -0.523   6.096   3.932 -1.4179 -0.8620 -0.9421
   14SAPS  C210 1784  -0.349   5.991   4.020 -0.2452 -0.7737 -0.6706
   14SAPS  H10R 1785  -0.266   6.062   4.037 -0.7738  0.2363 -2.1898
   14SAPS  H10S 1786  -0.307   5.891   3.996  0.7856 -0.4124 -0.4266
   14SAPS  C211 1787  -0.429   5.979   4.144  0.2915 -0.7351 -1.1340
   14SAPS  H11R 1788  -0.527   5.939   4.117  0.3721 -2.3662  0.7561
   14SAPS  C212 1789  -0.383   5.995   4.273 -0.3606 -0.6443 -0.1029
   14SAPS  H12R 1790  -0.449   5.980   4.360  1.8109  0.4616  1.8544
   14SAPS  C213 1791  -0.248   6.051   4.316 -0.1700  0.1573  0.0868
   14SAPS  H13R 1792  -0.199   6.101   4.229  0.8387  0.0809  0.6039
   14SAPS  H13S 1793  -0.184   5.963   4.339 -1.0196 -0.2716  0.8431
   14SAPS  C214 1794  -0.249   6.154   4.431  0.2380 -0.0391 -1.0762
   14SAPS  H14R 1795  -0.316   6.241   4.429  2.1484  1.6239  1.2959
   14SAPS  C215 1796  -0.197   6.136   4.556  1.1126  0.4199 -0.4626
   14SAPS  H15R 1797  -0.196   6.218   4.630 -1.5225  0.1806 -0.0718
   14SAPS  C216 1798  -0.128   6.011   4.600 -0.1881 -0.5354 -0.2147
   14SAPS  H16R 1799  -0.168   5.918   4.555 -2.9229  0.6437 -0.4522
   14SAPS  H16S 1800  -0.152   6.000   4.708 -0.4812 -0.4429 -0.2668
   14SAPS  C217 1801   0.025   6.020   4.600 -0.4335 -0.2395 -0.0020
   14SAPS  H17R 1802   0.048   6.037   4.492 -0.7036  0.0262 -0.0196
   14SAPS  H17S 1803   0.062   5.920   4.632  0.7167  0.4702  0.9710
   14SAPS  C218 1804   0.084   6.120   4.709  0.1479  0.2403 -0.4493
   14SAPS  H18R 1805   0.032   6.105   4.807 -0.0278  1.4771 -0.3393
   14SAPS  H18S 1806   0.070   6.224   4.673 -0.9073  0.6466  1.0391
   14SAPS  C219 1807   0.232   6.108   4.728 -0.3170 -0.4402  0.0872
   14SAPS  H19R 1808   0.286   6.117   4.631  1.2506 -0.2072  0.9329
   14SAPS  H19S 1809   0.267   6.008   4.762 -0.7719 -0.7988 -0.4810
   14SAPS  C220 1810   0.296   6.213   4.824  0.2963 -0.4272 -0.1639
   14SAPS  H20R 1811   0.252   6.197   4.924 -0.3020  3.1405  0.2833
   14SAPS  H20S 1812   0.268   6.315   4.789 -0.8226 -0.8976 -0.6771
   14SAPS  H20T 1813   0.406   6.200   4.823  0.4318  0.6606 -0.6134
   14SAPS   C33 1814   0.069   6.814   3.607  0.3033  0.1797  0.4311
   14SAPS   H3X 1815  -0.004   6.864   3.539  0.9672 -0.1807 -0.5690
   14SAPS   H3Y 1816   0.172   6.852   3.586  0.5043  0.5679  2.0106
   14SAPS   C34 1817   0.036   6.857   3.750 -0.6281  0.6597 -0.8633
   14SAPS   H4X 1818  -0.059   6.810   3.786  0.1672 -0.1251  0.2590
   14SAPS   H4Y 1819   0.022   6.967   3.760 -2.0321  0.4272  0.0940
   14SAPS   C35 1820   0.156   6.817   3.849 -0.2841 -0.3252 -0.1367
   14SAPS   H5X 1821   0.247   6.836   3.789  0.5094 -0.7336  0.9138
   14SAPS   H5Y 1822   0.147   6.708   3.868 -0.2402 -0.1101  1.1923
   14SAPS   C36 1823   0.179   6.893   3.982  0.3472  1.0194  0.7766
   14SAPS   H6X 1824   0.093   6.871   4.049  0.7262  0.6369  1.1418
   14SAPS   H6Y 1825   0.190   7.003   3.966  0.4140  0.7708 -1.1665
   14SAPS   C37 1826   0.313   6.844   4.053  0.4511 -0.2933  1.1235
   14SAPS   H7X 1827   0.388   6.856   3.972  0.1242  1.2576  1.0032
   14SAPS   H7Y 1828   0.308   6.738   4.085 -0.3200 -0.7247 -0.3427
   14SAPS   C38 1829   0.338   6.926   4.184  0.6477  1.1313  0.0356
   14SAPS   H8X 1830   0.330   7.031   4.150 -2.7304  0.4101 -1.7891
   14SAPS   H8Y 1831   0.442   6.902   4.217  0.6723  0.3797 -0.5543
   14SAPS   C39 1832   0.241   6.885   4.293 -0.3765  0.2238  0.0724
   14SAPS   H9X 1833   0.249   6.777   4.321 -2.7751  0.1901  0.8682
   14SAPS   H9Y 1834   0.133   6.896   4.269 -0.5157 -3.1622 -1.5662
   14SAPS  C310 1835   0.263   6.970   4.420  0.2773 -0.8130  0.9198
   14SAPS  H10X 1836   0.368   7.006   4.426  0.8218 -1.5979 -2.2437
   14SAPS  H10Y 1837   0.246   6.912   4.513  0.2590 -1.2415  0.6518
   14SAPS  C311 1838   0.173   7.093   4.427 -0.2927 -0.1496  0.2063
   14SAPS  H11X 1839   0.067   7.061   4.430 -0.9482  1.6335 -1.7530
   14SAPS  H11Y 1840   0.177   7.146   4.330  1.0331 -1.2454 -0.3820
   14SAPS  C312 1841   0.212   7.184   4.545 -0.5475 -0.4799  0.3423
   14SAPS  H12X 1842   0.239   7.117   4.629  1.8499  0.5718  0.4950
   14SAPS  H12Y 1843   0.127   7.250   4.570 -0.4102  0.7122 -2.0993
   14SAPS  C313 1844   0.327   7.275   4.492  0.0218 -0.0259 -0.0837
   14SAPS  H13X 1845   0.269   7.343   4.425  0.5861  0.3608 -0.1844
   14SAPS  H13Y 1846   0.402   7.222   4.429  0.7423 -0.9448  1.4779
   14SAPS  C314 1847   0.390   7.368   4.602  0.3178  0.5887 -1.1780
   14SAPS  H14X 1848   0.454   7.441   4.548  0.6949  1.6436  0.6197
   14SAPS  H14Y 1849   0.447   7.308   4.675 -0.0683 -1.1709 -2.2457
   14SAPS  C315 1850   0.277   7.453   4.667 -0.8827 -0.5247 -0.0918
   14SAPS  H15X 1851   0.229   7.385   4.740  0.1765 -1.1919  0.0104
   14SAPS  H15Y 1852   0.208   7.476   4.583 -0.6338  3.9537  0.6820
   14SAPS  C316 1853   0.329   7.579   4.730  0.2747  0.9320 -0.0684
   14SAPS  H16X 1854   0.245   7.649   4.749  0.7163  1.4983 -0.1935
   14SAPS  H16Y 1855   0.404   7.623   4.662  0.4756  0.1433 -0.3690
   14SAPS  C317 1856   0.402   7.568   4.870 -0.5077  0.6526  0.8621
   14SAPS  H17X 1857   0.497   7.516   4.842 -0.5250  0.0729  1.8557
   14SAPS  H17Y 1858   0.342   7.499   4.932  0.0096  2.2609  3.2988
   14SAPS  C318 1859   0.450   7.693   4.954  0.1406 -0.5441  0.5741
   14SAPS  H18X 1860   0.536   7.677   5.021 -0.8693 -0.1619  2.0086
   14SAPS  H18Y 1861   0.361   7.725   5.013 -0.5762 -0.0967 -0.6894
   14SAPS  H18Z 1862   0.472   7.774   4.881 -0.5515 -1.1175 -0.2912
   15SAPS     N 1863   4.910   6.887   2.364 -0.1875  0.1315 -0.2748
   15SAPS   HN1 1864   4.944   6.843   2.452 -1.4619 -2.5711 -1.0293
   15SAPS   HN2 1865   4.919   6.990   2.369  1.9593  0.0851 -1.6981
   15SAPS   HN3 1866   4.811   6.857   2.351 -0.4997  1.6208 -1.6947
   15SAPS   C12 1867   4.987   6.838   2.239 -0.5815  1.1223  0.2022
   15SAPS  H12A 1868   4.955   6.735   2.232  1.4894  0.4410  0.2830
   15SAPS   C13 1869   4.962   6.902   2.098  0.0895  0.7326  0.0997
   15SAPS  O13A 1870   4.887   7.003   2.095  0.3786 -0.3138 -0.0888
   15SAPS  O13B 1871   5.038   6.878   2.001  0.1194 -0.1521 -0.6883
   15SAPS   C11 1872   5.136   6.834   2.280  0.4580  0.2377  0.2938
   15SAPS  H11A 1873   5.155   6.943   2.284  0.0273  0.3942 -1.2482
   15SAPS  H11B 1874   5.207   6.798   2.202  0.3585  1.6633 -0.4961
   15SAPS     P 1875   5.269   6.671   2.442  0.4337  0.1247 -0.0018
   15SAPS   O13 1876   5.364   6.658   2.330  0.2605  0.4418 -0.1559
   15SAPS   O14 1877   5.328   6.703   2.567 -0.8721  0.1964 -0.2458
   15SAPS   O12 1878   5.158   6.777   2.407  0.1122 -0.0714 -0.1946
   15SAPS   O11 1879   5.195   6.540   2.454  0.0735 -0.4921  0.2102
   15SAPS    C1 1880   5.058   6.507   2.448 -0.4531 -0.0050  0.3453
   15SAPS    HA 1881   4.996   6.580   2.392  0.1719  1.4274  1.4513
   15SAPS    HB 1882   5.048   6.412   2.391  0.4772 -1.0622  1.8626
   15SAPS    C2 1883   4.996   6.487   2.586 -0.0115 -0.5540  0.4830
   15SAPS    HS 1884   4.887   6.473   2.571 -0.4236  0.1960  2.4621
   15SAPS   O21 1885   5.028   6.587   2.689 -0.4204  0.0732 -0.1734
   15SAPS   C21 1886   4.986   6.708   2.679  0.0522 -0.2092 -0.0954
   15SAPS   O22 1887   4.910   6.759   2.597  0.2322 -0.1210  0.2851
   15SAPS   C22 1888   5.037   6.781   2.794  0.6360  0.7613 -0.0770
   15SAPS   H2R 1889   4.982   6.738   2.881 -0.9401  2.0292 -0.3929
   15SAPS   H2S 1890   5.147   6.778   2.809  0.8836 -0.3816 -1.8264
   15SAPS    C3 1891   5.044   6.350   2.632  0.0630 -0.0478 -0.5063
   15SAPS    HX 1892   5.155   6.350   2.638  0.0631 -1.6616 -0.2039
   15SAPS    HY 1893   5.009   6.286   2.548 -1.3558 -0.3030  0.2502
   15SAPS   O31 1894   4.990   6.320   2.763  0.8288  0.1951 -0.8972
   15SAPS   C31 1895   4.881   6.252   2.773  0.0694 -0.0313 -0.8123
   15SAPS   O32 1896   4.802   6.214   2.688 -0.2484 -0.3335 -0.0078
   15SAPS   C32 1897   4.865   6.220   2.918  0.6724  0.5889 -0.7562
   15SAPS   H2X 1898   4.786   6.284   2.963 -1.2372 -1.3671 -1.1663
   15SAPS   H2Y 1899   4.953   6.232   2.984  0.2822  0.7312 -0.2587
   15SAPS   C23 1900   5.016   6.938   2.776 -0.1026  0.8043  0.2901
   15SAPS   H3R 1901   5.069   6.964   2.683  0.8057 -1.8677 -0.0389
   15SAPS   H3S 1902   5.077   6.979   2.859  0.7648 -1.5823  0.9356
   15SAPS   C24 1903   4.875   6.994   2.792 -0.1925  0.3242 -0.7906
   15SAPS   H4R 1904   4.845   6.978   2.898 -0.9491  0.5364 -0.9609
   15SAPS   H4S 1905   4.794   6.947   2.732  0.1518 -1.6897  0.2424
   15SAPS   C25 1906   4.894   7.138   2.753 -0.0047 -0.7164  0.2773
   15SAPS   H5R 1907   4.957   7.170   2.669  0.3992 -0.5850  0.6288
   15SAPS   C26 1908   4.862   7.245   2.829  0.6611 -0.1213  0.0029
   15SAPS   H6R 1909   4.854   7.339   2.772 -0.6659 -1.4201 -2.0924
   15SAPS   C27 1910   4.782   7.254   2.958  0.7559  0.4727 -0.5810
   15SAPS   H7R 1911   4.733   7.157   2.983 -2.0640  1.5243 -1.6358
   15SAPS   H7S 1912   4.698   7.324   2.937  0.6266  0.1712 -1.0869
   15SAPS   C28 1913   4.864   7.315   3.071  1.1961 -0.0467  0.1593
   15SAPS   H8R 1914   4.878   7.424   3.060  0.3171 -0.1155 -2.5408
   15SAPS   C29 1915   4.875   7.255   3.190  0.2561  0.2174  0.1766
   15SAPS   H9R 1916   4.915   7.312   3.275 -0.4457  2.0585 -0.6645
   15SAPS  C210 1917   4.856   7.112   3.220  0.2899 -0.0955 -0.3311
   15SAPS  H10R 1918   4.753   7.087   3.188  1.2815 -0.3471 -3.6065
   15SAPS  H10S 1919   4.857   7.093   3.330 -1.2397 -1.4229 -0.5079
   15SAPS  C211 1920   4.951   7.023   3.151 -0.1366  0.6936 -0.0984
   15SAPS  H11R 1921   5.007   7.065   3.066 -3.0107 -1.2184 -3.2155
   15SAPS  C212 1922   4.964   6.888   3.171  0.2896  0.0762 -0.4107
   15SAPS  H12R 1923   5.042   6.835   3.114 -1.0287 -0.5821 -1.6562
   15SAPS  C213 1924   4.902   6.816   3.288 -0.2953 -0.1320 -0.1746
   15SAPS  H13R 1925   4.799   6.852   3.307  0.1442  1.4386 -0.6519
   15SAPS  H13S 1926   4.964   6.839   3.378 -1.3231 -1.0655  0.8014
   15SAPS  C214 1927   4.899   6.667   3.273 -0.0039 -0.5196 -0.4609
   15SAPS  H14R 1928   4.890   6.626   3.171 -0.1768  0.6457 -0.9333
   15SAPS  C215 1929   4.910   6.577   3.373 -0.2070 -0.3128  0.1231
   15SAPS  H15R 1930   4.920   6.472   3.341 -0.8517  0.1047 -1.5751
   15SAPS  C216 1931   4.931   6.612   3.519 -0.1549 -0.0445  0.3796
   15SAPS  H16R 1932   4.927   6.722   3.533 -1.8757  0.1414 -1.1132
   15SAPS  H16S 1933   5.029   6.566   3.546 -0.0067  0.9356  1.5984
   15SAPS  C217 1934   4.830   6.550   3.603  0.7908 -0.1516  0.7594
   15SAPS  H17R 1935   4.791   6.458   3.556  0.4181 -0.3016  1.3435
   15SAPS  H17S 1936   4.739   6.612   3.615  0.3401  0.0277 -2.6525
   15SAPS  C218 1937   4.877   6.531   3.744 -0.5995  0.0372 -0.4118
   15SAPS  H18R 1938   4.949   6.611   3.773 -2.7780  2.0823 -0.2970
   15SAPS  H18S 1939   4.938   6.438   3.738  0.2928  0.5271  0.5814
   15SAPS  C219 1940   4.766   6.515   3.847  0.7547  0.1178  0.9465
   15SAPS  H19R 1941   4.689   6.438   3.823 -1.6274  2.3046  1.1939
   15SAPS  H19S 1942   4.710   6.611   3.847  0.5496 -0.0014  1.1639
   15SAPS  C220 1943   4.824   6.470   3.983  0.6791 -0.7466  0.3594
   15SAPS  H20R 1944   4.904   6.539   4.017 -0.7971  1.7248 -0.9284
   15SAPS  H20S 1945   4.866   6.367   3.978  0.3692 -0.8433 -0.2959
   15SAPS  H20T 1946   4.741   6.459   4.056  0.2631  0.3620  0.0683
   15SAPS   C33 1947   4.813   6.076   2.942  0.3952  0.8758  0.2883
   15SAPS   H3X 1948   4.893   6.007   2.907 -0.4599  0.3030 -0.5908
   15SAPS   H3Y 1949   4.719   6.070   2.883  0.4094  1.2921  0.2256
   15SAPS   C34 1950   4.772   6.045   3.094  0.1274  0.2970 -0.0965
   15SAPS   H4X 1951   4.675   6.094   3.116 -0.0933 -0.7669  1.4660
   15SAPS   H4Y 1952   4.847   6.090   3.163 -0.4903  0.9391  0.1675
   15SAPS   C35 1953   4.778   5.892   3.127 -0.4339 -0.0714 -0.1771
   15SAPS   H5X 1954   4.868   5.855   3.074 -0.9605 -1.4159 -0.1748
   15SAPS   H5Y 1955   4.688   5.842   3.084 -4.1340  3.0598  3.0624
   15SAPS   C36 1956   4.797   5.871   3.276  0.0139 -0.0230  0.3805
   15SAPS   H6X 1957   4.839   5.968   3.309  0.4129  0.4111 -1.3061
   15SAPS   H6Y 1958   4.881   5.801   3.293  0.0885  0.2143  0.9894
   15SAPS   C37 1959   4.674   5.828   3.361  0.3703  0.0242  0.5199
   15SAPS   H7X 1960   4.665   5.719   3.344  0.7172 -0.0617  0.8678
   15SAPS   H7Y 1961   4.581   5.876   3.324  0.6031  0.2431  0.1990
   15SAPS   C38 1962   4.696   5.845   3.513 -0.5593 -0.2274 -0.0416
   15SAPS   H8X 1963   4.608   5.812   3.572  0.3939 -0.3851  1.3396
   15SAPS   H8Y 1964   4.721   5.953   3.519 -0.6668 -0.1176 -1.2183
   15SAPS   C39 1965   4.802   5.748   3.564  0.4299  0.5947 -0.0311
   15SAPS   H9X 1966   4.894   5.755   3.502 -0.6273  0.5039 -1.6743
   15SAPS   H9Y 1967   4.756   5.649   3.540 -1.9604  2.2185 -2.7364
   15SAPS  C310 1968   4.834   5.755   3.718  0.5395  1.2114  0.4995
   15SAPS  H10X 1969   4.741   5.752   3.778 -1.3634 -0.8642 -2.3138
   15SAPS  H10Y 1970   4.884   5.852   3.740  0.5562  1.8370 -1.9491
   15SAPS  C311 1971   4.913   5.633   3.770 -0.0542 -0.1348  0.0213
   15SAPS  H11X 1972   5.016   5.655   3.733 -0.6162  1.7022 -0.5362
   15SAPS  H11Y 1973   4.879   5.531   3.741 -1.1215 -0.3640  1.9403
   15SAPS  C312 1974   4.929   5.627   3.924 -0.7183  0.2340 -0.8504
   15SAPS  H12X 1975   4.833   5.637   3.978 -0.6058 -0.4023 -0.5211
   15SAPS  H12Y 1976   4.996   5.707   3.962  1.3258 -1.1926 -1.2667
   15SAPS  C313 1977   4.976   5.485   3.962 -0.0102 -0.3032 -0.1772
   15SAPS  H13X 1978   5.073   5.461   3.914  0.2009  0.1332  0.0275
   15SAPS  H13Y 1979   4.900   5.411   3.927  0.3291  0.0724 -1.7870
   15SAPS  C314 1980   5.001   5.472   4.113  0.4297  0.0477  0.0990
   15SAPS  H14X 1981   4.907   5.475   4.171  0.6540  0.1184  0.4636
   15SAPS  H14Y 1982   5.056   5.566   4.139  1.5997 -0.3122 -0.9448
   15SAPS  C315 1983   5.100   5.362   4.156  0.1204  0.8833  0.0985
   15SAPS  H15X 1984   5.199   5.398   4.123  1.1468  0.6010  2.6223
   15SAPS  H15Y 1985   5.067   5.266   4.111 -1.0646  0.8639  0.9492
   15SAPS  C316 1986   5.110   5.342   4.312  0.3681  0.5057  0.4030
   15SAPS  H16X 1987   5.181   5.258   4.328 -0.0861 -0.0105 -0.2101
   15SAPS  H16Y 1988   5.012   5.315   4.357  1.2042 -1.0400  1.3921
   15SAPS  C317 1989   5.164   5.468   4.382  0.2531 -0.4741 -0.3636
   15SAPS  H17X 1990   5.111   5.560   4.348  2.7398  0.8688 -0.8791
   15SAPS  H17Y 1991   5.273   5.480   4.362  0.3832 -0.2738  0.4323
   15SAPS  C318 1992   5.164   5.468   4.534  0.1753 -0.9456 -0.1556
   15SAPS  H18X 1993   5.245   5.536   4.568  2.5937 -3.7508  0.0573
   15SAPS  H18Y 1994   5.177   5.369   4.582 -0.4972 -0.9763 -0.0226
   15SAPS  H18Z 1995   5.064   5.505   4.564  0.7637 -0.1713  0.9389
   16SAPS     N 1996   6.708   0.606   2.294 -0.5409  0.1614 -0.0521
   16SAPS   HN1 1997   6.725   0.538   2.217  0.1176 -0.6954  0.8269
   16SAPS   HN2 1998   6.647   0.558   2.363  1.0955 -0.4884  0.9926
   16SAPS   HN3 1999   6.662   0.687   2.247 -1.4240 -0.7265 -0.7655
   16SAPS   C12 2000   6.835   0.641   2.375 -0.1541 -0.5114  0.1900
   16SAPS  H12A 2001   6.883   0.545   2.382 -0.0737 -0.6568 -1.7220
   16SAPS   C13 2002   6.943   0.731   2.307 -0.0533  0.3235 -0.3704
   16SAPS  O13A 2003   6.927   0.762   2.188  0.1572 -0.0405  0.0895
   16SAPS  O13B 2004   7.047   0.757   2.373 -0.7995  0.5044  0.2381
   16SAPS   C11 2005   6.783   0.686   2.513  0.3392  0.1413  0.6372
   16SAPS  H11A 2006   6.719   0.775   2.493 -0.9740 -0.3094  2.5621
   16SAPS  H11B 2007   6.874   0.712   2.570  1.9105  1.9612 -2.4587
   16SAPS     P 2008   6.747   0.482   2.670  0.3912 -0.3722  0.3663
   16SAPS   O13 2009   6.689   0.354   2.632  0.1327 -0.1623  0.0630
   16SAPS   O14 2010   6.895   0.489   2.688  0.3333  0.0836 -0.2871
   16SAPS   O12 2011   6.696   0.590   2.568 -0.7356  0.6116  0.4637
   16SAPS   O11 2012   6.668   0.536   2.793  0.7485 -0.3418 -0.1473
   16SAPS    C1 2013   6.568   0.637   2.796  0.4302 -0.1258 -0.1158
   16SAPS    HA 2014   6.617   0.735   2.813 -1.4155  0.7443  0.3719
   16SAPS    HB 2015   6.509   0.641   2.702  0.5762  0.4775 -0.1872
   16SAPS    C2 2016   6.457   0.612   2.898  0.0654  0.1999 -0.0847
   16SAPS    HS 2017   6.381   0.692   2.898 -0.0575  0.1126 -1.9242
   16SAPS   O21 2018   6.511   0.571   3.031 -0.0778 -0.3325 -0.3466
   16SAPS   C21 2019   6.548   0.689   3.086  0.4306  0.0780 -0.3137
   16SAPS   O22 2020   6.520   0.803   3.045 -0.4745 -0.3152 -0.2018
   16SAPS   C22 2021   6.611   0.671   3.222  0.1425  0.0649  0.1181
   16SAPS   H2R 2022   6.688   0.590   3.219 -0.0929 -0.1819  0.7339
   16SAPS   H2S 2023   6.661   0.767   3.245 -1.1580  0.6677  0.4534
   16SAPS    C3 2024   6.358   0.492   2.858 -0.6997 -0.4245 -0.2799
   16SAPS    HX 2025   6.408   0.393   2.855 -0.9292 -0.6655  2.0552
   16SAPS    HY 2026   6.329   0.525   2.756  0.7804  1.4734 -0.1653
   16SAPS   O31 2027   6.241   0.490   2.946 -0.5984  0.4834  0.0580
   16SAPS   C31 2028   6.252   0.405   3.049 -0.3670  0.0716  0.1825
   16SAPS   O32 2029   6.345   0.339   3.088 -0.0015  0.2788 -0.7194
   16SAPS   C32 2030   6.117   0.417   3.131 -0.2117 -0.4403 -0.2559
   16SAPS   H2X 2031   6.070   0.317   3.143 -0.1174 -0.5023 -0.3950
   16SAPS   H2Y 2032   6.050   0.489   3.080 -1.3724 -0.2082  1.5209
   16SAPS   C23 2033   6.507   0.651   3.337 -0.2712  0.4576  0.9236
   16SAPS   H3R 2034   6.442   0.562   3.322 -0.2324  0.6494 -0.5198
   16SAPS   H3S 2035   6.444   0.741   3.322  0.2841  0.4882 -1.7155
   16SAPS   C24 2036   6.558   0.632   3.479 -0.2265 -0.1940  0.2366
   16SAPS   H4R 2037   6.661   0.591   3.467 -0.1833 -0.3844  1.1612
   16SAPS   H4S 2038   6.488   0.557   3.522  0.5337 -0.7730  0.4796
   16SAPS   C25 2039   6.558   0.764   3.553 -0.1639 -0.0050  0.3006
   16SAPS   H5R 2040   6.585   0.850   3.491  0.5233  1.6898  2.7918
   16SAPS   C26 2041   6.535   0.796   3.681  0.1238 -0.1868  0.1401
   16SAPS   H6R 2042   6.549   0.898   3.720  0.3321 -0.5230  0.9773
   16SAPS   C27 2043   6.496   0.696   3.790  0.0067 -0.4317 -0.1450
   16SAPS   H7R 2044   6.417   0.622   3.763 -0.4549 -0.3439  0.9090
   16SAPS   H7S 2045   6.445   0.755   3.869  0.4786  0.5272 -0.5532
   16SAPS   C28 2046   6.610   0.609   3.839 -0.5429 -0.1565 -0.1255
   16SAPS   H8R 2047   6.652   0.535   3.771  0.5383 -1.0264  1.4282
   16SAPS   C29 2048   6.667   0.603   3.963  0.3579 -0.8620  0.6649
   16SAPS   H9R 2049   6.748   0.530   3.978  1.7234  0.3841 -0.3213
   16SAPS  C210 2050   6.636   0.688   4.083 -0.3992 -0.7065 -0.1876
   16SAPS  H10R 2051   6.560   0.763   4.052  0.1120  0.3585  1.0488
   16SAPS  H10S 2052   6.729   0.743   4.107 -1.0106 -0.0263  0.7098
   16SAPS  C211 2053   6.592   0.613   4.199 -0.3787 -0.1542 -0.5738
   16SAPS  H11R 2054   6.526   0.529   4.173  0.4719 -0.7459 -0.8712
   16SAPS  C212 2055   6.655   0.623   4.319 -0.5888 -0.8779 -0.2095
   16SAPS  H12R 2056   6.608   0.589   4.413  2.0800  0.7251  1.8671
   16SAPS  C213 2057   6.760   0.722   4.358  0.7800  0.0482  0.3014
   16SAPS  H13R 2058   6.717   0.824   4.345 -0.1494 -0.3701  0.0075
   16SAPS  H13S 2059   6.840   0.724   4.282 -0.4392 -0.9312 -1.0748
   16SAPS  C214 2060   6.828   0.720   4.494 -0.8155 -0.6922  0.6878
   16SAPS  H14R 2061   6.923   0.665   4.494 -0.2741  0.2077  0.2661
   16SAPS  C215 2062   6.787   0.781   4.605 -0.2431 -0.4153  0.2161
   16SAPS  H15R 2063   6.849   0.788   4.695  1.0219  3.6946 -0.7485
   16SAPS  C216 2064   6.659   0.865   4.605 -0.4235  0.6317 -0.5441
   16SAPS  H16R 2065   6.585   0.814   4.671 -1.7782 -0.7122 -2.9322
   16SAPS  H16S 2066   6.606   0.859   4.507 -0.3497 -1.5340 -0.5046
   16SAPS  C217 2067   6.670   1.009   4.649 -0.1409  0.2650 -0.1310
   16SAPS  H17R 2068   6.738   1.081   4.598  0.5869 -0.5344 -0.3078
   16SAPS  H17S 2069   6.707   1.005   4.754  1.4606 -0.6653 -0.6829
   16SAPS  C218 2070   6.532   1.071   4.641 -0.9128  0.4382 -0.7319
   16SAPS  H18R 2071   6.448   1.018   4.691  0.3329 -0.9292  0.0005
   16SAPS  H18S 2072   6.498   1.088   4.536 -0.1343  0.1546 -1.0395
   16SAPS  C219 2073   6.547   1.205   4.714 -0.4397 -0.3253  0.4016
   16SAPS  H19R 2074   6.463   1.272   4.686  1.9368  1.7620 -2.3704
   16SAPS  H19S 2075   6.636   1.263   4.679 -0.6244  1.7440  2.9993
   16SAPS  C220 2076   6.554   1.185   4.869 -0.2683 -0.1553 -0.1689
   16SAPS  H20R 2077   6.578   1.287   4.906  0.6285 -0.9137  1.4432
   16SAPS  H20S 2078   6.645   1.131   4.904 -0.1222 -0.2803 -0.7281
   16SAPS  H20T 2079   6.458   1.144   4.906 -1.1958  3.0040  1.2203
   16SAPS   C33 2080   6.135   0.472   3.275 -0.4192  0.0127 -0.5480
   16SAPS   H3X 2081   6.195   0.565   3.259  1.0815 -1.1477 -2.0270
   16SAPS   H3Y 2082   6.197   0.416   3.347  0.4892 -0.2685 -1.5140
   16SAPS   C34 2083   6.005   0.512   3.348  0.0060 -0.4521  0.3730
   16SAPS   H4X 2084   5.946   0.422   3.374  0.0922  0.0956  2.6754
   16SAPS   H4Y 2085   5.952   0.581   3.279 -0.2143  0.1076  1.0951
   16SAPS   C35 2086   6.033   0.581   3.486 -0.4141 -0.3558 -0.1136
   16SAPS   H5X 2087   5.937   0.613   3.533 -0.4333 -0.7367  0.1078
   16SAPS   H5Y 2088   6.082   0.677   3.460 -1.9440  0.7842  0.9475
   16SAPS   C36 2089   6.109   0.506   3.591  0.4883  0.4900 -0.8515
   16SAPS   H6X 2090   6.212   0.491   3.551  0.8251  1.2508 -0.2947
   16SAPS   H6Y 2091   6.060   0.406   3.593 -1.5994  1.4459  1.4024
   16SAPS   C37 2092   6.105   0.570   3.724  0.3667 -0.2033 -0.7690
   16SAPS   H7X 2093   6.003   0.607   3.749  1.3337  1.9898  0.1995
   16SAPS   H7Y 2094   6.173   0.656   3.740 -1.1913  0.6589  1.9306
   16SAPS   C38 2095   6.131   0.462   3.830 -0.1624  0.7215 -0.6310
   16SAPS   H8X 2096   6.211   0.397   3.788  0.8773  1.5451  0.0125
   16SAPS   H8Y 2097   6.035   0.407   3.840 -0.2315  0.7210 -1.2546
   16SAPS   C39 2098   6.190   0.503   3.967  0.2218 -0.2086  0.0487
   16SAPS   H9X 2099   6.292   0.544   3.950 -0.2519  0.2405 -2.0421
   16SAPS   H9Y 2100   6.186   0.422   4.043 -1.0288 -0.5850 -0.3945
   16SAPS  C310 2101   6.110   0.618   4.038  0.8512  0.2521  0.3846
   16SAPS  H10X 2102   6.109   0.703   3.967 -0.9760  1.7433  2.1125
   16SAPS  H10Y 2103   6.168   0.654   4.126  0.5364  0.2324  0.5988
   16SAPS  C311 2104   5.966   0.583   4.092 -0.6504  0.6498  0.4602
   16SAPS  H11X 2105   5.898   0.556   4.009  1.6358 -0.7178 -1.0854
   16SAPS  H11Y 2106   5.935   0.675   4.147 -2.3883  0.9473 -0.9453
   16SAPS  C312 2107   5.971   0.471   4.198 -0.0646  0.1790 -0.0948
   16SAPS  H12X 2108   6.051   0.497   4.271  0.9638  1.1238 -1.5084
   16SAPS  H12Y 2109   5.996   0.375   4.148  0.5713  0.2325  0.1118
   16SAPS  C313 2110   5.843   0.452   4.275 -0.2694  0.1111 -0.1853
   16SAPS  H13X 2111   5.867   0.365   4.340  1.6907 -0.0219 -1.0096
   16SAPS  H13Y 2112   5.752   0.411   4.226  0.0931 -0.9399 -0.0095
   16SAPS  C314 2113   5.812   0.563   4.376 -0.2368 -0.0503 -0.0102
   16SAPS  H14X 2114   5.836   0.661   4.331 -0.2737  0.0833  0.2558
   16SAPS  H14Y 2115   5.863   0.546   4.474 -0.0904  0.5944  0.0287
   16SAPS  C315 2116   5.664   0.569   4.423 -0.8391  0.2780  0.0943
   16SAPS  H15X 2117   5.622   0.467   4.434 -2.6427  1.0103  0.3359
   16SAPS  H15Y 2118   5.595   0.614   4.348 -1.4278 -0.9093 -0.1137
   16SAPS  C316 2119   5.647   0.638   4.560  0.5250 -0.1687  0.5315
   16SAPS  H16X 2120   5.664   0.747   4.547 -0.2051 -0.1160 -0.0819
   16SAPS  H16Y 2121   5.711   0.592   4.638 -0.9818  0.1947  2.0579
   16SAPS  C317 2122   5.502   0.613   4.606  0.2449  0.2630  0.0723
   16SAPS  H17X 2123   5.490   0.503   4.617  1.7877 -0.3068 -2.8346
   16SAPS  H17Y 2124   5.435   0.652   4.527  1.3342  0.2184 -0.9077
   16SAPS  C318 2125   5.469   0.683   4.737 -0.2940 -0.0190  0.2648
   16SAPS  H18X 2126   5.537   0.653   4.820  0.3480  1.1865  0.1949
   16SAPS  H18Y 2127   5.364   0.681   4.773  0.1591 -0.5274  1.6333
   16SAPS  H18Z 2128   5.499   0.789   4.726 -1.7837  0.4856  0.7944
   17SAPS     N 2129   2.555   0.732   2.381 -0.3258 -0.0611 -0.1942
   17SAPS   HN1 2130   2.547   0.833   2.402  0.0687  0.6990 -3.2172
   17SAPS   HN2 2131   2.580   0.718   2.281 -1.1393 -0.7994 -0.3126
   17SAPS   HN3 2132   2.456   0.699   2.380 -0.0289 -1.0751  1.2825
   17SAPS   C12 2133   2.637   0.649   2.475  0.8658 -0.1052  0.6076
   17SAPS  H12A 2134   2.602   0.663   2.576 -2.5638  1.9863 -0.6754
   17SAPS   C13 2135   2.645   0.501   2.440 -0.1489  1.0175  0.0742
   17SAPS  O13A 2136   2.575   0.450   2.345  0.1370 -0.1303  0.4565
   17SAPS  O13B 2137   2.692   0.427   2.532 -0.2043 -0.7479  0.0441
   17SAPS   C11 2138   2.782   0.706   2.465 -0.4330  0.5391  0.3583
   17SAPS  H11A 2139   2.829   0.686   2.366  0.2656 -0.7197  0.9210
   17SAPS  H11B 2140   2.839   0.647   2.539 -1.4698  0.2220  0.9262
   17SAPS     P 2141   2.912   0.939   2.483 -0.3547  0.2742 -0.1160
   17SAPS   O13 2142   3.037   0.873   2.522 -0.5116  0.3311  0.2382
   17SAPS   O14 2143   2.914   1.015   2.358 -0.2649  0.3329  0.2987
   17SAPS   O12 2144   2.783   0.844   2.498  0.0306  0.3056  0.1870
   17SAPS   O11 2145   2.894   1.052   2.592 -0.4514  0.3404 -0.4008
   17SAPS    C1 2146   2.760   1.105   2.614  0.1022  0.0102  0.5207
   17SAPS    HA 2147   2.755   1.213   2.588  1.8947 -0.5555 -2.7261
   17SAPS    HB 2148   2.684   1.067   2.543 -0.3268 -0.2339  1.1017
   17SAPS    C2 2149   2.699   1.067   2.751 -0.1709 -0.4131 -0.0703
   17SAPS    HS 2150   2.590   1.088   2.758  0.0793  0.4913  1.9038
   17SAPS   O21 2151   2.778   1.138   2.853  0.0444 -1.2530 -0.3554
   17SAPS   C21 2152   2.753   1.268   2.859 -0.4500 -0.6143  0.1135
   17SAPS   O22 2153   2.679   1.337   2.792  0.3060 -0.1774 -0.7027
   17SAPS   C22 2154   2.831   1.321   2.986  0.2053  0.7137  0.0153
   17SAPS   H2R 2155   2.940   1.303   2.988  0.0283 -0.3205  1.7110
   17SAPS   H2S 2156   2.824   1.431   2.971 -1.4052  1.0092  2.3050
   17SAPS    C3 2157   2.714   0.914   2.790  0.7140 -0.2932 -0.3945
   17SAPS    HX 2158   2.822   0.890   2.798  0.4494 -0.9356  1.8045
   17SAPS    HY 2159   2.666   0.861   2.705 -0.3996  1.0269 -0.6361
   17SAPS   O31 2160   2.636   0.894   2.910  0.1084  0.2186 -0.3964
   17SAPS   C31 2161   2.646   0.764   2.965 -0.0811 -0.1620  0.2510
   17SAPS   O32 2162   2.702   0.671   2.906  0.3695 -0.7484 -0.1319
   17SAPS   C32 2163   2.585   0.761   3.105  0.3379 -0.6150 -0.7386
   17SAPS   H2X 2164   2.474   0.756   3.098  0.0742  1.6856  0.6446
   17SAPS   H2Y 2165   2.632   0.843   3.163 -0.7915 -0.2619 -0.2984
   17SAPS   C23 2166   2.756   1.278   3.117 -0.0265  0.3126  0.3947
   17SAPS   H3R 2167   2.648   1.307   3.116 -0.4933 -1.3277 -0.0751
   17SAPS   H3S 2168   2.790   1.343   3.200  1.1830  1.1556 -0.7339
   17SAPS   C24 2169   2.751   1.126   3.159  0.7578 -0.4324  0.5355
   17SAPS   H4R 2170   2.687   1.064   3.094  0.5211 -0.7613  1.0736
   17SAPS   H4S 2171   2.692   1.133   3.253  0.1311  0.5587  0.0764
   17SAPS   C25 2172   2.888   1.053   3.186 -0.3534 -0.8569  0.1908
   17SAPS   H5R 2173   2.956   1.055   3.099 -1.6622 -1.6058 -0.8953
   17SAPS   C26 2174   2.926   1.010   3.303 -0.4949 -0.3621  0.2531
   17SAPS   H6R 2175   3.027   0.967   3.308 -0.9773 -1.6059 -0.2740
   17SAPS   C27 2176   2.847   1.000   3.430  1.2531 -0.0815 -0.5861
   17SAPS   H7R 2177   2.887   0.933   3.509 -0.8222 -0.7301 -0.0415
   17SAPS   H7S 2178   2.745   0.969   3.402  1.5057 -0.7379 -0.7867
   17SAPS   C28 2179   2.831   1.128   3.501 -0.3092  0.3354  0.1574
   17SAPS   H8R 2180   2.915   1.197   3.482  0.6722 -0.7217  0.5654
   17SAPS   C29 2181   2.744   1.171   3.585  0.2605  1.0821 -0.4290
   17SAPS   H9R 2182   2.757   1.269   3.633 -1.6273  0.7769  0.7786
   17SAPS  C210 2183   2.623   1.094   3.637  0.1098 -0.2011  0.3511
   17SAPS  H10R 2184   2.552   1.066   3.555  0.1926 -0.0378  0.2254
   17SAPS  H10S 2185   2.562   1.167   3.694 -1.4242 -0.2517 -1.1260
   17SAPS  C211 2186   2.635   0.972   3.721 -0.4297  0.2448  0.0860
   17SAPS  H11R 2187   2.611   0.874   3.678  1.1637 -0.2605  0.2751
   17SAPS  C212 2188   2.674   0.971   3.848 -0.1832  0.1795 -0.1511
   17SAPS  H12R 2189   2.690   0.870   3.888  0.9161  0.2659 -0.3444
   17SAPS  C213 2190   2.702   1.087   3.944 -0.3534  0.6049 -0.0489
   17SAPS  H13R 2191   2.609   1.108   4.002 -0.2984  0.2952  0.1578
   17SAPS  H13S 2192   2.719   1.183   3.891 -2.0150  1.9163  1.6624
   17SAPS  C214 2193   2.819   1.065   4.040 -1.0421  0.0977  0.3930
   17SAPS  H14R 2194   2.916   1.064   3.989 -0.8927 -1.7540  0.6157
   17SAPS  C215 2195   2.813   1.026   4.173  0.9534 -0.1594  1.0029
   17SAPS  H15R 2196   2.907   1.016   4.229  1.8038  3.3946  0.4821
   17SAPS  C216 2197   2.685   0.988   4.247 -0.0201  0.7714  0.7078
   17SAPS  H16R 2198   2.606   1.065   4.246 -1.2484 -0.3560 -2.7339
   17SAPS  H16S 2199   2.719   0.963   4.350  1.8615  0.2603  0.0143
   17SAPS  C217 2200   2.615   0.861   4.188  0.0555 -0.3172 -0.0059
   17SAPS  H17R 2201   2.680   0.771   4.197  1.5627  0.7524  0.1189
   17SAPS  H17S 2202   2.598   0.871   4.079  0.7001 -0.0036 -0.0823
   17SAPS  C218 2203   2.476   0.832   4.251 -0.4748  0.0487 -0.2919
   17SAPS  H18R 2204   2.438   0.735   4.213 -0.2164 -2.1610  4.4418
   17SAPS  H18S 2205   2.397   0.898   4.209 -0.6706 -0.1863 -0.2943
   17SAPS  C219 2206   2.466   0.845   4.402  0.5591 -0.3184 -0.0587
   17SAPS  H19R 2207   2.361   0.836   4.434  0.4974 -1.0049 -0.4310
   17SAPS  H19S 2208   2.500   0.946   4.432 -0.7805  0.1540 -0.1138
   17SAPS  C220 2209   2.559   0.746   4.469 -0.6684  0.0139 -0.3221
   17SAPS  H20R 2210   2.662   0.739   4.429 -0.4019 -1.0965  0.4947
   17SAPS  H20S 2211   2.513   0.645   4.458 -0.2829 -0.0595 -1.3762
   17SAPS  H20T 2212   2.570   0.776   4.575  2.0017 -1.6243 -0.0425
   17SAPS   C33 2213   2.623   0.633   3.172 -0.1041 -0.0079  0.0933
   17SAPS   H3X 2214   2.733   0.625   3.177 -0.0778 -1.9600 -2.0376
   17SAPS   H3Y 2215   2.581   0.544   3.121 -1.3107  0.7144 -0.2203
   17SAPS   C34 2216   2.565   0.608   3.316  0.1785  0.4265  0.3015
   17SAPS   H4X 2217   2.454   0.600   3.310  0.2120 -0.2410  0.4627
   17SAPS   H4Y 2218   2.593   0.693   3.382 -0.0264  0.9427 -0.2729
   17SAPS   C35 2219   2.613   0.474   3.373  0.3249 -0.8071 -0.3965
   17SAPS   H5X 2220   2.721   0.452   3.358  1.2232  2.5855  0.4398
   17SAPS   H5Y 2221   2.553   0.398   3.319  1.0427 -1.5784 -0.1366
   17SAPS   C36 2222   2.583   0.446   3.521 -0.0865  0.4782  0.1770
   17SAPS   H6X 2223   2.610   0.341   3.548  2.6501  1.1679  0.4078
   17SAPS   H6Y 2224   2.473   0.442   3.534 -0.1888 -1.2003 -0.9218
   17SAPS   C37 2225   2.648   0.537   3.625  0.2509  0.2427 -1.1056
   17SAPS   H7X 2226   2.615   0.642   3.614  1.1881  0.6977  0.2334
   17SAPS   H7Y 2227   2.758   0.540   3.613  0.7637  2.0109  2.7208
   17SAPS   C38 2228   2.610   0.487   3.764 -0.1382 -0.2605 -0.4258
   17SAPS   H8X 2229   2.611   0.376   3.755 -2.0077 -0.4176  0.7583
   17SAPS   H8Y 2230   2.503   0.502   3.790  0.2286  0.1113  0.9787
   17SAPS   C39 2231   2.690   0.549   3.880  0.5898 -0.2511  0.0568
   17SAPS   H9X 2232   2.725   0.650   3.851  0.7249 -0.9205 -2.4110
   17SAPS   H9Y 2233   2.776   0.478   3.883 -1.3753 -2.7097  2.1921
   17SAPS  C310 2234   2.622   0.553   4.020  0.2634  0.7948 -0.2345
   17SAPS  H10X 2235   2.531   0.616   4.032 -0.5407 -0.0413 -1.6624
   17SAPS  H10Y 2236   2.696   0.583   4.098  0.5630 -0.4228 -0.0295
   17SAPS  C311 2237   2.561   0.417   4.063 -0.7187 -0.3781  0.0497
   17SAPS  H11X 2238   2.645   0.345   4.054  0.9991  1.2869  1.6623
   17SAPS  H11Y 2239   2.477   0.393   3.994 -1.0454  0.9440 -0.0371
   17SAPS  C312 2240   2.525   0.418   4.210  0.7199 -0.2480  0.8209
   17SAPS  H12X 2241   2.453   0.502   4.224 -0.5397 -1.4132  1.6641
   17SAPS  H12Y 2242   2.612   0.460   4.266  0.1509  1.8892  0.2165
   17SAPS  C313 2243   2.450   0.296   4.251 -0.0326 -0.1085 -0.4124
   17SAPS  H13X 2244   2.523   0.213   4.241 -1.9388 -1.7722 -1.2819
   17SAPS  H13Y 2245   2.366   0.279   4.180 -0.2780  1.0078 -0.4016
   17SAPS  C314 2246   2.404   0.302   4.397 -0.2942 -0.3219 -0.6901
   17SAPS  H14X 2247   2.351   0.397   4.421 -0.0882 -0.7602  1.7545
   17SAPS  H14Y 2248   2.491   0.285   4.464 -0.4307 -3.2347 -1.1016
   17SAPS  C315 2249   2.308   0.187   4.438 -0.8794 -0.1591  0.2496
   17SAPS  H15X 2250   2.371   0.097   4.453  2.0657  1.7852  0.2831
   17SAPS  H15Y 2251   2.250   0.164   4.346  0.4616 -1.5440 -0.2820
   17SAPS  C316 2252   2.217   0.200   4.564 -0.8986 -0.8594  0.0476
   17SAPS  H16X 2253   2.135   0.128   4.544  0.6693 -1.6071 -5.3807
   17SAPS  H16Y 2254   2.183   0.305   4.572  3.0935  0.6439 -0.1903
   17SAPS  C317 2255   2.295   0.162   4.692 -0.0829  0.5888 -1.0799
   17SAPS  H17X 2256   2.396   0.209   4.688  0.8750 -1.2834 -0.2841
   17SAPS  H17Y 2257   2.326   0.055   4.692  0.2479  0.6828 -0.6684
   17SAPS  C318 2258   2.228   0.206   4.824 -0.0627  0.0982  0.7291
   17SAPS  H18X 2259   2.138   0.151   4.858  0.4480  0.3958  2.6653
   17SAPS  H18Y 2260   2.195   0.312   4.819 -0.1866  0.0195 -0.2317
   17SAPS  H18Z 2261   2.295   0.206   4.913  1.6680 -0.4305 -0.5211
   18SAPS     N 2262   6.788   4.529   2.233 -0.9637  0.3084  0.6961
   18SAPS   HN1 2263   6.854   4.584   2.292 -0.4479  1.0252 -0.5099
   18SAPS   HN2 2264   6.691   4.556   2.257 -0.9027  0.4930  0.7365
   18SAPS   HN3 2265   6.800   4.428   2.253 -0.5728  0.4100  0.9818
   18SAPS   C12 2266   6.809   4.556   2.089 -0.2849 -0.5133  0.4776
   18SAPS  H12A 2267   6.742   4.495   2.030 -0.4547  2.1051 -2.2752
   18SAPS   C13 2268   6.781   4.697   2.053  0.2302 -0.2529 -0.1944
   18SAPS  O13A 2269   6.737   4.775   2.139  0.1851 -0.3386 -0.9357
   18SAPS  O13B 2270   6.806   4.732   1.937  0.2942  0.3863  0.0393
   18SAPS   C11 2271   6.950   4.517   2.049  0.0832  0.2411 -0.6421
   18SAPS  H11A 2272   7.019   4.595   2.086 -2.2862  1.7181  0.8613
   18SAPS  H11B 2273   6.966   4.522   1.939  1.4107 -1.0776 -0.5499
   18SAPS     P 2274   7.140   4.352   2.107 -0.1558 -0.0912 -0.0858
   18SAPS   O13 2275   7.159   4.204   2.107  0.5837 -0.1315  0.3658
   18SAPS   O14 2276   7.216   4.423   2.010  0.4599  0.4623  0.1214
   18SAPS   O12 2277   6.986   4.381   2.086 -0.8220 -0.1461 -0.3072
   18SAPS   O11 2278   7.167   4.411   2.254  0.2578 -0.6266  0.1713
   18SAPS    C1 2279   7.290   4.399   2.310 -0.4062  0.1809 -0.9422
   18SAPS    HA 2280   7.369   4.337   2.261  1.7599  2.8115 -0.9792
   18SAPS    HB 2281   7.328   4.503   2.319 -1.7959  0.8157 -2.0979
   18SAPS    C2 2282   7.299   4.337   2.452 -0.1414  0.8960 -0.3222
   18SAPS    HS 2283   7.405   4.349   2.481  0.3598 -0.6136 -1.4106
   18SAPS   O21 2284   7.259   4.200   2.447  0.1924  0.2116  0.8761
   18SAPS   C21 2285   7.352   4.112   2.486  0.2700  0.5020 -0.3512
   18SAPS   O22 2286   7.464   4.136   2.522  0.1592 -0.0119  0.1937
   18SAPS   C22 2287   7.290   3.979   2.490  0.2938 -0.2532 -0.7016
   18SAPS   H2R 2288   7.193   3.997   2.540  1.0572 -0.9048  1.1095
   18SAPS   H2S 2289   7.273   3.949   2.385  1.8473  0.1478 -1.1088
   18SAPS    C3 2290   7.213   4.409   2.556  0.3187  0.4827 -0.0780
   18SAPS    HX 2291   7.105   4.401   2.531  0.2367  2.2711 -0.4153
   18SAPS    HY 2292   7.230   4.519   2.552  0.5106  0.4194 -3.2645
   18SAPS   O31 2293   7.238   4.340   2.684 -0.4226 -0.3328 -0.5102
   18SAPS   C31 2294   7.274   4.424   2.776  0.3084 -0.8114 -0.1599
   18SAPS   O32 2295   7.277   4.547   2.765  0.5265 -0.2489 -0.0595
   18SAPS   C32 2296   7.319   4.351   2.911  0.4543  0.5462  0.3381
   18SAPS   H2X 2297   7.250   4.264   2.914 -0.6862  1.3464 -1.1801
   18SAPS   H2Y 2298   7.314   4.418   2.999  0.5243 -0.6715  1.2990
   18SAPS   C23 2299   7.351   3.854   2.570  0.0516  0.2170 -0.1520
   18SAPS   H3R 2300   7.434   3.824   2.503 -0.7548 -1.8149 -0.3090
   18SAPS   H3S 2301   7.282   3.767   2.563  0.6722 -0.3199  0.2476
   18SAPS   C24 2302   7.404   3.893   2.713  0.4244  0.4738  0.2354
   18SAPS   H4R 2303   7.498   3.949   2.692  0.7950 -0.1568  0.2107
   18SAPS   H4S 2304   7.436   3.801   2.765  1.8492  0.1020 -1.2224
   18SAPS   C25 2305   7.327   3.992   2.794 -0.1675  0.7067 -0.1005
   18SAPS   H5R 2306   7.342   4.097   2.763 -2.8174  0.5540 -2.2378
   18SAPS   C26 2307   7.238   3.956   2.886  0.6005 -0.0502 -0.1610
   18SAPS   H6R 2308   7.187   4.037   2.940  1.2763 -0.6544  1.4490
   18SAPS   C27 2309   7.200   3.819   2.935  1.0150 -0.0983 -0.3019
   18SAPS   H7R 2310   7.225   3.744   2.857  1.5689 -1.9880  1.6127
   18SAPS   H7S 2311   7.092   3.814   2.959  1.1580 -1.0312  0.1620
   18SAPS   C28 2312   7.289   3.779   3.052  0.1235  1.1698 -0.4258
   18SAPS   H8R 2313   7.337   3.682   3.033 -0.8684  0.2250  1.6264
   18SAPS   C29 2314   7.304   3.833   3.166 -0.8726 -0.5535 -1.0096
   18SAPS   H9R 2315   7.371   3.783   3.237  0.3508  0.2765 -1.5642
   18SAPS  C210 2316   7.249   3.971   3.208  0.1613 -0.8815 -0.3022
   18SAPS  H10R 2317   7.148   3.988   3.166 -0.3168 -1.7361  0.4566
   18SAPS  H10S 2318   7.314   4.047   3.160 -2.4968  3.4986  2.3457
   18SAPS  C211 2319   7.245   3.970   3.357  0.1496  0.3807 -0.6798
   18SAPS  H11R 2320   7.168   3.906   3.400  0.5485  1.1677  1.3294
   18SAPS  C212 2321   7.336   4.031   3.435  0.2711  0.3650  0.4623
   18SAPS  H12R 2322   7.309   4.027   3.541  1.9232 -0.5756  0.8757
   18SAPS  C213 2323   7.451   4.126   3.397  0.2201  0.3027  0.3885
   18SAPS  H13R 2324   7.438   4.154   3.290 -2.0728 -1.1623  0.2200
   18SAPS  H13S 2325   7.546   4.070   3.388 -0.4078 -0.6832 -0.3363
   18SAPS  C214 2326   7.477   4.256   3.466  0.1849  0.1526  0.1382
   18SAPS  H14R 2327   7.478   4.346   3.403  0.6507 -0.0422 -0.1371
   18SAPS  C215 2328   7.508   4.276   3.594  0.2663  0.2502 -0.3954
   18SAPS  H15R 2329   7.519   4.379   3.630  0.8455 -0.7500  2.5224
   18SAPS  C216 2330   7.524   4.164   3.704  0.5114 -0.1199  0.8746
   18SAPS  H16R 2331   7.590   4.084   3.664 -0.4180  0.0057 -0.9836
   18SAPS  H16S 2332   7.424   4.119   3.723  0.3667 -0.6442 -0.9626
   18SAPS  C217 2333   7.584   4.215   3.839  0.2766 -0.4220  0.3764
   18SAPS  H17R 2334   7.521   4.302   3.865  0.0776 -1.0726  2.2444
   18SAPS  H17S 2335   7.687   4.251   3.817  0.2970 -0.1892  0.8435
   18SAPS  C218 2336   7.575   4.111   3.947  0.1903 -0.1153  0.1529
   18SAPS  H18R 2337   7.625   4.017   3.914 -0.3042  0.4833 -2.5076
   18SAPS  H18S 2338   7.470   4.088   3.975  0.8368 -1.9269  1.2981
   18SAPS  C219 2339   7.649   4.157   4.081 -0.5902  0.0206 -0.6987
   18SAPS  H19R 2340   7.608   4.254   4.118  0.0485  0.4985 -1.2105
   18SAPS  H19S 2341   7.757   4.169   4.057 -0.6309  0.6826 -0.5783
   18SAPS  C220 2342   7.631   4.060   4.207  0.9213 -0.3296  0.5685
   18SAPS  H20R 2343   7.674   3.959   4.191  3.3678  0.6639  0.3565
   18SAPS  H20S 2344   7.522   4.059   4.226  0.6440 -0.4951 -0.8855
   18SAPS  H20T 2345   7.680   4.110   4.293  0.0539 -0.6044  1.2393
   18SAPS   C33 2346   7.463   4.289   2.899  0.3809 -0.1127 -0.0029
   18SAPS   H3X 2347   7.487   4.271   2.792 -1.2206 -0.3620 -0.3397
   18SAPS   H3Y 2348   7.467   4.192   2.953 -0.5187 -1.0587 -1.5592
   18SAPS   C34 2349   7.568   4.388   2.955 -0.2408 -0.4737 -0.1474
   18SAPS   H4X 2350   7.540   4.402   3.062  0.4054 -0.4934  0.0308
   18SAPS   H4Y 2351   7.576   4.484   2.901 -0.3914  0.2596  1.1036
   18SAPS   C35 2352   7.714   4.339   2.952 -0.1440  0.4852  0.2015
   18SAPS   H5X 2353   7.733   4.275   2.863 -0.6209 -0.4164  0.7389
   18SAPS   H5Y 2354   7.732   4.276   3.041 -2.9642 -0.6049  0.0729
   18SAPS   C36 2355   7.822   4.450   2.940  0.4782 -0.2866  0.5218
   18SAPS   H6X 2356   7.787   4.532   3.006  0.8027  1.2665 -1.1571
   18SAPS   H6Y 2357   7.824   4.487   2.835  0.7296  1.8525  1.2501
   18SAPS   C37 2358   7.965   4.402   2.960  0.0694  0.3188  0.0403
   18SAPS   H7X 2359   7.979   4.314   2.894 -1.1744  1.1214 -1.3445
   18SAPS   H7Y 2360   7.971   4.355   3.061 -0.6561 -3.6463 -1.5709
   18SAPS   C38 2361   8.071   4.505   2.935 -0.4438 -0.0248  0.2118
   18SAPS   H8X 2362   8.044   4.573   2.851  1.4358  0.1907 -0.2506
   18SAPS   H8Y 2363   8.166   4.450   2.924 -0.5245 -0.2104  0.4275
   18SAPS   C39 2364   8.091   4.594   3.064  0.1517  0.0876  0.3082
   18SAPS   H9X 2365   8.126   4.529   3.147 -3.1194 -0.8265  1.1326
   18SAPS   H9Y 2366   7.987   4.622   3.093 -0.4034 -0.6330 -0.9499
   18SAPS  C310 2367   8.185   4.713   3.040 -0.5144 -0.0652  0.1492
   18SAPS  H10X 2368   8.144   4.772   2.955 -0.0252  0.7542  0.4664
   18SAPS  H10Y 2369   8.288   4.683   3.011 -0.8285  0.2964 -1.4300
   18SAPS  C311 2370   8.216   4.800   3.164 -0.3331 -0.7977  0.5570
   18SAPS  H11X 2371   8.120   4.846   3.197 -0.3221 -1.1874  1.1393
   18SAPS  H11Y 2372   8.297   4.871   3.137 -1.9451  0.6357 -0.7352
   18SAPS  C312 2373   8.274   4.733   3.288 -0.6033 -0.0025  0.2115
   18SAPS  H12X 2374   8.358   4.662   3.272 -0.9225 -0.6135  1.1438
   18SAPS  H12Y 2375   8.194   4.659   3.307 -0.9487  0.8063  2.1488
   18SAPS  C313 2376   8.292   4.816   3.413  0.4977  0.2565 -0.9261
   18SAPS  H13X 2377   8.387   4.873   3.410 -0.7310  2.5220  0.6207
   18SAPS  H13Y 2378   8.308   4.745   3.497  0.9260  3.4583  1.8809
   18SAPS  C314 2379   8.189   4.923   3.440  0.3074 -1.0960 -0.2939
   18SAPS  H14X 2380   8.170   4.994   3.356 -2.5551  0.0849  1.2203
   18SAPS  H14Y 2381   8.218   4.990   3.523 -2.1849 -0.9269  0.4980
   18SAPS  C315 2382   8.050   4.869   3.479 -0.2236 -0.7184  0.6782
   18SAPS  H15X 2383   8.056   4.805   3.569 -0.2017 -0.1051  1.1218
   18SAPS  H15Y 2384   8.025   4.801   3.395  0.9785 -1.0004  0.5293
   18SAPS  C316 2385   7.946   4.980   3.514 -0.3331 -0.3069 -0.1426
   18SAPS  H16X 2386   8.006   5.059   3.565  1.1138 -2.1001  1.1335
   18SAPS  H16Y 2387   7.868   4.932   3.577 -1.0212  2.9480  1.7330
   18SAPS  C317 2388   7.894   5.050   3.388 -0.4401 -0.2882  0.3846
   18SAPS  H17X 2389   7.883   4.985   3.299  3.1675 -0.3055 -0.1900
   18SAPS  H17Y 2390   7.978   5.118   3.364 -2.2429  2.5848  1.7155
   18SAPS  C318 2391   7.757   5.111   3.413  0.7209  0.1661 -0.3505
   18SAPS  H18X 2392   7.775   5.177   3.500  1.7400 -0.8416  0.2390
   18SAPS  H18Y 2393   7.676   5.042   3.445  1.1335  0.3397  1.1358
   18SAPS  H18Z 2394   7.721   5.163   3.322  1.0773 -0.7760 -1.0450
   19SAPS     N 2395   6.377   1.337   2.520 -0.2151 -0.2451 -0.5533
   19SAPS   HN1 2396   6.326   1.297   2.601 -1.7916  1.2981 -0.7244
   19SAPS   HN2 2397   6.478   1.314   2.525 -0.3410 -0.9272 -0.9463
   19SAPS   HN3 2398   6.365   1.439   2.536 -0.4237 -0.6507  2.3080
   19SAPS   C12 2399   6.320   1.284   2.392  0.0953  0.1798  0.3222
   19SAPS  H12A 2400   6.213   1.289   2.406  0.0949  0.2497  0.2944
   19SAPS   C13 2401   6.346   1.369   2.257 -0.2774 -0.5804 -1.1128
   19SAPS  O13A 2402   6.437   1.457   2.264 -0.5651  0.2791 -0.4878
   19SAPS  O13B 2403   6.294   1.328   2.155  0.8428 -0.1092  0.6652
   19SAPS   C11 2404   6.352   1.136   2.357 -0.3966  0.3151  0.0132
   19SAPS  H11A 2405   6.454   1.133   2.314  0.2937  1.9106  1.4392
   19SAPS  H11B 2406   6.275   1.108   2.281  0.3349 -2.1928  0.1073
   19SAPS     P 2407   6.349   0.904   2.461  0.2760  0.2090 -0.1330
   19SAPS   O13 2408   6.297   0.855   2.333  0.5933  0.2435 -0.4088
   19SAPS   O14 2409   6.489   0.877   2.485  0.0092  0.2508  0.3582
   19SAPS   O12 2410   6.330   1.052   2.467 -0.2597 -0.1509 -0.4745
   19SAPS   O11 2411   6.249   0.856   2.580 -0.1109  0.3419  0.2134
   19SAPS    C1 2412   6.123   0.921   2.607 -0.8812  0.0798 -0.1286
   19SAPS    HA 2413   6.067   0.935   2.512  0.2260  0.2829 -0.7635
   19SAPS    HB 2414   6.061   0.860   2.676  0.3487 -0.1719  0.7820
   19SAPS    C2 2415   6.131   1.056   2.689 -0.1662  0.0770  0.3053
   19SAPS    HS 2416   6.157   1.135   2.615  0.1748  0.2442  0.6001
   19SAPS   O21 2417   6.216   1.035   2.803 -0.4263 -0.5081 -0.2403
   19SAPS   C21 2418   6.298   1.134   2.828 -0.4174  0.8318 -0.1788
   19SAPS   O22 2419   6.289   1.248   2.785 -0.4404 -1.0691 -0.1946
   19SAPS   C22 2420   6.420   1.090   2.909 -0.2786  0.0115  0.7625
   19SAPS   H2R 2421   6.388   1.070   3.013 -0.2606  1.4524  1.0605
   19SAPS   H2S 2422   6.462   0.997   2.864  0.1024  0.1354  0.8596
   19SAPS    C3 2423   5.987   1.099   2.737  0.5990  0.3440 -0.4510
   19SAPS    HX 2424   5.949   1.029   2.815  3.0916 -0.0775  0.4816
   19SAPS    HY 2425   5.924   1.102   2.646  1.3048 -1.2185 -1.0257
   19SAPS   O31 2426   5.981   1.231   2.800  0.5607  0.2704  0.6048
   19SAPS   C31 2427   6.009   1.336   2.720 -0.4407  0.1056  0.5058
   19SAPS   O32 2428   6.015   1.335   2.601 -0.3765 -0.4165  0.3187
   19SAPS   C32 2429   6.009   1.469   2.806  0.0747 -0.7942 -0.1488
   19SAPS   H2X 2430   5.908   1.512   2.789 -0.1447 -2.0881 -2.4238
   19SAPS   H2Y 2431   6.087   1.537   2.767 -1.6866  0.3934 -1.7870
   19SAPS   C23 2432   6.540   1.193   2.915 -0.2168  0.0887 -0.2046
   19SAPS   H3R 2433   6.518   1.276   2.844  0.5907  1.2842  0.9066
   19SAPS   H3S 2434   6.623   1.135   2.869 -0.5018  0.0339 -0.6549
   19SAPS   C24 2435   6.596   1.237   3.059 -0.5436 -0.9102  0.3025
   19SAPS   H4R 2436   6.676   1.313   3.051  0.0619 -1.6375 -0.9020
   19SAPS   H4S 2437   6.641   1.139   3.086 -0.2869 -0.6809  0.7132
   19SAPS   C25 2438   6.487   1.293   3.153 -0.2643  0.0009 -0.3405
   19SAPS   H5R 2439   6.404   1.337   3.096  1.3470  1.1829 -1.8398
   19SAPS   C26 2440   6.488   1.313   3.283 -0.4037 -0.1445  0.2591
   19SAPS   H6R 2441   6.402   1.350   3.341 -0.2207  1.0274 -0.1808
   19SAPS   C27 2442   6.598   1.268   3.376  0.0142 -0.2744  0.2312
   19SAPS   H7R 2443   6.658   1.184   3.335 -1.2651 -1.3270  0.4773
   19SAPS   H7S 2444   6.556   1.225   3.469 -1.7314  0.6033 -0.1055
   19SAPS   C28 2445   6.696   1.382   3.400  0.0513  0.6831  0.4744
   19SAPS   H8R 2446   6.777   1.408   3.331  1.6900  1.9860  2.7847
   19SAPS   C29 2447   6.702   1.435   3.520  0.0507 -0.2450  0.0756
   19SAPS   H9R 2448   6.778   1.514   3.522  0.8372 -0.8624 -2.0866
   19SAPS  C210 2449   6.606   1.422   3.634  0.5593  0.0217 -0.1291
   19SAPS  H10R 2450   6.504   1.402   3.593  0.8845 -0.4183 -0.7316
   19SAPS  H10S 2451   6.606   1.519   3.688 -2.9366 -0.3680  0.8680
   19SAPS  C211 2452   6.649   1.323   3.736  0.1515  0.4321  0.6834
   19SAPS  H11R 2453   6.758   1.336   3.748  0.3043  1.0709 -1.0997
   19SAPS  C212 2454   6.569   1.252   3.810  0.5020  0.1688 -0.0788
   19SAPS  H12R 2455   6.630   1.180   3.866  0.0638 -0.2737 -0.1621
   19SAPS  C213 2456   6.423   1.212   3.799 -0.1591 -0.7159 -0.4199
   19SAPS  H13R 2457   6.419   1.103   3.777  0.2204 -0.9426  0.5823
   19SAPS  H13S 2458   6.370   1.259   3.713 -1.0289  0.8610  0.9199
   19SAPS  C214 2459   6.352   1.249   3.931  0.3650  0.1678  0.1054
   19SAPS  H14R 2460   6.319   1.354   3.938  0.2971  0.1056  0.7904
   19SAPS  C215 2461   6.316   1.168   4.029 -0.2672 -0.7189 -0.0325
   19SAPS  H15R 2462   6.256   1.208   4.112  1.3071 -0.2588  0.9483
   19SAPS  C216 2463   6.337   1.020   4.024 -1.0806  0.0167  1.1324
   19SAPS  H16R 2464   6.432   0.989   3.975 -0.8558  0.8529  1.0165
   19SAPS  H16S 2465   6.249   0.976   3.972 -0.1630 -0.0012 -0.4717
   19SAPS  C217 2466   6.359   0.969   4.169 -0.0248  0.0322  0.0876
   19SAPS  H17R 2467   6.445   1.023   4.215  0.4694 -0.6087 -0.0649
   19SAPS  H17S 2468   6.393   0.863   4.167  1.2024  0.4132 -2.0480
   19SAPS  C218 2469   6.232   0.989   4.264  0.5082  0.2030 -0.2495
   19SAPS  H18R 2470   6.144   1.020   4.203 -0.4256  1.2224  1.5264
   19SAPS  H18S 2471   6.250   1.073   4.333 -2.3886  2.6835 -2.2454
   19SAPS  C219 2472   6.208   0.870   4.349  0.0452  0.2093  0.5577
   19SAPS  H19R 2473   6.215   0.773   4.297  1.8122  0.0311  1.0788
   19SAPS  H19S 2474   6.106   0.875   4.392  0.4058 -1.7063  1.7402
   19SAPS  C220 2475   6.293   0.848   4.482 -0.2637 -0.4594  0.1706
   19SAPS  H20R 2476   6.401   0.855   4.460 -0.5149 -0.8785 -1.3542
   19SAPS  H20S 2477   6.281   0.747   4.527 -1.5772 -0.4709 -0.1555
   19SAPS  H20T 2478   6.277   0.921   4.565  1.0199 -0.9816  0.9106
   19SAPS   C33 2479   6.021   1.438   2.964  0.3899 -0.5025 -0.7116
   19SAPS   H3X 2480   6.117   1.386   2.986  0.0325 -0.3239  1.5392
   19SAPS   H3Y 2481   5.935   1.377   3.000  1.0774 -1.1484 -0.1237
   19SAPS   C34 2482   6.015   1.566   3.036  0.1961 -0.0387  0.5012
   19SAPS   H4X 2483   5.938   1.620   2.976 -0.7234  0.5587  2.1390
   19SAPS   H4Y 2484   6.112   1.620   3.028 -0.3983  0.9245 -0.5987
   19SAPS   C35 2485   5.971   1.557   3.185 -0.4753  0.3512  0.3445
   19SAPS   H5X 2486   5.884   1.488   3.182 -0.1268 -0.1469  1.2417
   19SAPS   H5Y 2487   5.946   1.658   3.223  1.0646  1.1086 -0.5623
   19SAPS   C36 2488   6.077   1.493   3.273  0.7663 -0.6498  0.1293
   19SAPS   H6X 2489   6.173   1.543   3.246 -0.0361  0.6147 -0.4588
   19SAPS   H6Y 2490   6.093   1.386   3.249  0.7820 -0.6309  0.0542
   19SAPS   C37 2491   6.031   1.490   3.413  0.4083  0.6458  0.2021
   19SAPS   H7X 2492   5.943   1.423   3.419  0.8567 -0.2221 -2.0880
   19SAPS   H7Y 2493   5.991   1.592   3.433  0.5360  0.5798  0.8207
   19SAPS   C38 2494   6.154   1.484   3.507  0.0549 -0.4094  0.0917
   19SAPS   H8X 2495   6.225   1.569   3.496 -2.6075  1.7598 -1.7469
   19SAPS   H8Y 2496   6.211   1.391   3.482 -2.1738 -2.6665  2.7749
   19SAPS   C39 2497   6.109   1.469   3.651  0.7254 -0.4836  0.5908
   19SAPS   H9X 2498   6.189   1.456   3.726  0.7355 -1.2023  0.4602
   19SAPS   H9Y 2499   6.042   1.381   3.655  0.0143 -0.1664 -2.0730
   19SAPS  C310 2500   6.020   1.581   3.707 -0.1819  0.7126  0.4674
   19SAPS  H10X 2501   5.932   1.592   3.640 -0.4734  0.0280  0.7341
   19SAPS  H10Y 2502   6.080   1.672   3.731  0.2156 -0.0277  2.4302
   19SAPS  C311 2503   5.963   1.539   3.848  0.2213 -0.4366 -0.7248
   19SAPS  H11X 2504   5.907   1.443   3.849  0.6606 -0.7302  1.3837
   19SAPS  H11Y 2505   5.900   1.628   3.869 -1.2629 -1.6048  0.0081
   19SAPS  C312 2506   6.076   1.533   3.966  0.6413  0.0372 -0.1220
   19SAPS  H12X 2507   6.161   1.579   3.911 -1.0373  0.0774 -2.8757
   19SAPS  H12Y 2508   6.094   1.426   3.989 -0.1334 -0.1926 -0.5663
   19SAPS  C313 2509   6.049   1.625   4.090 -0.3455  0.7664  0.2788
   19SAPS  H13X 2510   6.032   1.731   4.059 -1.5838  0.6380  0.4766
   19SAPS  H13Y 2511   6.138   1.614   4.155 -1.8356 -2.7659  1.9588
   19SAPS  C314 2512   5.918   1.590   4.161 -0.6263  0.3716 -0.0857
   19SAPS  H14X 2513   5.859   1.519   4.099  1.2814 -1.9123  0.5576
   19SAPS  H14Y 2514   5.864   1.686   4.172  2.0625  2.0529 -0.6162
   19SAPS  C315 2515   5.935   1.543   4.309 -0.4312  0.0426 -0.0642
   19SAPS  H15X 2516   5.988   1.618   4.371  1.7140  0.0346 -1.7686
   19SAPS  H15Y 2517   5.989   1.446   4.311  0.1124  0.2696  3.6123
   19SAPS  C316 2518   5.793   1.531   4.366 -0.2011 -0.2812  0.3739
   19SAPS  H16X 2519   5.749   1.446   4.309 -0.0715 -1.5447  2.0718
   19SAPS  H16Y 2520   5.738   1.626   4.351  0.8844  0.1929 -0.8011
   19SAPS  C317 2521   5.814   1.479   4.508 -0.0047  0.4530 -0.6006
   19SAPS  H17X 2522   5.867   1.555   4.568  2.5779 -1.6111 -0.0550
   19SAPS  H17Y 2523   5.873   1.384   4.504 -0.3895  0.1886 -0.0491
   19SAPS  C318 2524   5.696   1.437   4.593  0.1365 -0.3355  0.0499
   19SAPS  H18X 2525   5.645   1.535   4.606  0.0075 -0.2230 -1.1853
   19SAPS  H18Y 2526   5.734   1.384   4.683 -0.0274 -0.7752 -0.1330
   19SAPS  H18Z 2527   5.634   1.362   4.539  3.0658 -2.4175 -0.6500
   20SAPS     N 2528   6.562   3.442   1.880  0.0238 -0.4445 -0.6392
   20SAPS   HN1 2529   6.596   3.347   1.854 -0.0974 -0.2702 -1.4893
   20SAPS   HN2 2530   6.509   3.491   1.805 -1.6538  2.3053  2.1091
   20SAPS   HN3 2531   6.644   3.504   1.893 -1.5170  1.4332  0.8119
   20SAPS   C12 2532   6.466   3.444   1.991  0.6727  0.7121  0.0896
   20SAPS  H12A 2533   6.440   3.549   1.996  0.4846  0.6239  3.3538
   20SAPS   C13 2534   6.329   3.390   1.967  0.0914 -0.2457 -0.0646
   20SAPS  O13A 2535   6.293   3.340   1.855 -0.2400  0.5856 -0.4933
   20SAPS  O13B 2536   6.251   3.375   2.064  0.0079  0.0462  0.6625
   20SAPS   C11 2537   6.534   3.408   2.128  0.2352  0.3984  0.0916
   20SAPS  H11A 2538   6.454   3.387   2.202  1.7787 -1.1712  1.4165
   20SAPS  H11B 2539   6.597   3.493   2.161  2.0708 -0.7759 -0.2345
   20SAPS     P 2540   6.630   3.168   2.213 -0.0767  0.4087 -0.2612
   20SAPS   O13 2541   6.524   3.074   2.172  0.2273 -0.0260 -0.1493
   20SAPS   O14 2542   6.775   3.126   2.206  0.2343 -0.1987  0.4907
   20SAPS   O12 2543   6.622   3.298   2.115  0.8103  0.2357 -0.1775
   20SAPS   O11 2544   6.589   3.216   2.361 -0.8386 -0.0625 -0.1858
   20SAPS    C1 2545   6.666   3.325   2.421 -0.3928  0.8613 -0.1739
   20SAPS    HA 2546   6.689   3.406   2.348  1.5233 -1.3018 -2.0949
   20SAPS    HB 2547   6.601   3.357   2.506  0.2084  0.7194  0.3463
   20SAPS    C2 2548   6.793   3.258   2.492  0.7027 -0.1028  0.2015
   20SAPS    HS 2549   6.854   3.240   2.400  0.5836 -0.4880  0.1956
   20SAPS   O21 2550   6.760   3.141   2.561  0.8088 -0.0972  0.6135
   20SAPS   C21 2551   6.841   3.048   2.585 -0.0984 -0.4034 -0.1599
   20SAPS   O22 2552   6.961   3.048   2.560 -0.0739  0.3077 -0.7384
   20SAPS   C22 2553   6.758   2.927   2.638  0.0633  0.1746  0.4543
   20SAPS   H2R 2554   6.665   2.918   2.577 -0.1518  0.6095  0.7089
   20SAPS   H2S 2555   6.815   2.832   2.633  2.4080  1.5272  0.0725
   20SAPS    C3 2556   6.875   3.354   2.582 -0.2831 -0.0749  0.6050
   20SAPS    HX 2557   6.907   3.440   2.520  0.3529 -0.1694  0.7987
   20SAPS    HY 2558   6.961   3.304   2.633  0.1678  0.4987  0.4126
   20SAPS   O31 2559   6.793   3.397   2.689 -0.0875  0.6854 -0.0724
   20SAPS   C31 2560   6.802   3.527   2.729 -0.0365  0.2017  0.5855
   20SAPS   O32 2561   6.855   3.613   2.665  0.2937 -0.3850  0.3062
   20SAPS   C32 2562   6.730   3.541   2.859  0.3118  0.1852 -0.1125
   20SAPS   H2X 2563   6.724   3.444   2.913 -3.5847  0.2553 -0.1257
   20SAPS   H2Y 2564   6.623   3.560   2.834  0.3096 -0.3261 -0.4896
   20SAPS   C23 2565   6.720   2.949   2.793 -0.7402  0.2488 -0.0943
   20SAPS   H3R 2566   6.627   2.895   2.821 -1.4388  1.6336  0.3382
   20SAPS   H3S 2567   6.685   3.054   2.807 -0.4036  0.7042 -2.2832
   20SAPS   C24 2568   6.847   2.923   2.879  1.3250  0.5105  0.1759
   20SAPS   H4R 2569   6.934   2.990   2.862 -0.0874  2.2417 -0.5164
   20SAPS   H4S 2570   6.877   2.819   2.857 -2.0753 -0.3782 -0.8374
   20SAPS   C25 2571   6.805   2.929   3.022  0.2527 -0.8926  0.0128
   20SAPS   H5R 2572   6.798   2.828   3.066 -1.0614 -0.9552 -0.2697
   20SAPS   C26 2573   6.776   3.037   3.095  0.2067 -0.2924  0.0948
   20SAPS   H6R 2574   6.729   3.032   3.195 -1.7867  0.4033 -0.7557
   20SAPS   C27 2575   6.771   3.176   3.045 -0.1345  0.6043  0.3041
   20SAPS   H7R 2576   6.812   3.194   2.943  2.5220  0.4659  1.2762
   20SAPS   H7S 2577   6.839   3.228   3.116 -0.7866  0.2705  1.1818
   20SAPS   C28 2578   6.636   3.237   3.063  0.1809 -0.1752 -0.2188
   20SAPS   H8R 2579   6.568   3.218   2.978 -1.2761 -2.1273  1.2683
   20SAPS   C29 2580   6.593   3.295   3.178  0.3495 -0.7964 -0.0412
   20SAPS   H9R 2581   6.490   3.332   3.169  1.0537  1.7310  1.4484
   20SAPS  C210 2582   6.676   3.311   3.306  0.4180  0.7426  0.1843
   20SAPS  H10R 2583   6.724   3.411   3.301  0.1011  0.8389 -1.5305
   20SAPS  H10S 2584   6.756   3.234   3.313  0.5582  0.9943  1.7496
   20SAPS  C211 2585   6.586   3.310   3.424 -0.5309 -0.3427 -0.3678
   20SAPS  H11R 2586   6.494   3.249   3.426 -0.2747 -0.7167  0.3996
   20SAPS  C212 2587   6.613   3.379   3.541 -0.9074 -0.4776 -0.3763
   20SAPS  H12R 2588   6.550   3.348   3.626  0.7325 -1.4829  0.5236
   20SAPS  C213 2589   6.740   3.459   3.584  0.6775  0.0207  0.3626
   20SAPS  H13R 2590   6.821   3.428   3.515  0.2963 -1.6417  0.6183
   20SAPS  H13S 2591   6.766   3.422   3.686  0.3484 -2.1817 -0.2929
   20SAPS  C214 2592   6.715   3.603   3.564  0.2485 -0.2853 -0.0927
   20SAPS  H14R 2593   6.700   3.625   3.457  2.4974  0.2600 -0.3292
   20SAPS  C215 2594   6.697   3.698   3.660  0.2224  0.7822 -0.4557
   20SAPS  H15R 2595   6.669   3.801   3.632 -1.1180  0.1735 -1.4842
   20SAPS  C216 2596   6.702   3.675   3.807  0.7817 -0.2186  0.1550
   20SAPS  H16R 2597   6.733   3.572   3.837  2.2023  0.6658  1.9271
   20SAPS  H16S 2598   6.599   3.690   3.845  0.6797  2.2706 -0.9147
   20SAPS  C217 2599   6.785   3.784   3.881  0.7764 -0.0736  0.3579
   20SAPS  H17R 2600   6.732   3.881   3.880  1.2431  0.1866 -1.2062
   20SAPS  H17S 2601   6.885   3.782   3.833  0.7681  1.5270  0.2201
   20SAPS  C218 2602   6.799   3.759   4.030 -0.1738 -0.7905  0.1606
   20SAPS  H18R 2603   6.831   3.655   4.052  0.8157 -0.8349 -1.3282
   20SAPS  H18S 2604   6.703   3.775   4.084 -1.0219 -2.4908 -0.7696
   20SAPS  C219 2605   6.898   3.859   4.089 -0.0867 -0.6580  0.0737
   20SAPS  H19R 2606   6.842   3.955   4.079  0.1232 -0.3559  1.4837
   20SAPS  H19S 2607   6.991   3.861   4.029 -1.3496 -0.2879 -1.9748
   20SAPS  C220 2608   6.937   3.836   4.238 -0.2308  0.3737  0.2703
   20SAPS  H20R 2609   6.865   3.876   4.313 -0.1949  0.5500  0.2122
   20SAPS  H20S 2610   7.038   3.874   4.266  0.7145 -3.2447  2.3673
   20SAPS  H20T 2611   6.955   3.727   4.249  0.6795  0.2064 -2.3042
   20SAPS   C33 2612   6.784   3.662   2.941 -1.0072 -0.7492 -0.4081
   20SAPS   H3X 2613   6.770   3.746   2.870  0.2093  0.5360  0.8134
   20SAPS   H3Y 2614   6.891   3.641   2.966 -0.4417 -1.2174 -2.9290
   20SAPS   C34 2615   6.704   3.688   3.070  0.9221  0.2246  0.4163
   20SAPS   H4X 2616   6.725   3.603   3.138 -1.9225 -1.2226 -0.3889
   20SAPS   H4Y 2617   6.595   3.676   3.051  1.0412  1.6002 -1.5032
   20SAPS   C35 2618   6.714   3.825   3.132 -0.2641 -0.8943  0.2489
   20SAPS   H5X 2619   6.637   3.828   3.212  0.2170 -3.0770  0.8562
   20SAPS   H5Y 2620   6.671   3.903   3.066  0.3473 -1.0052 -0.2958
   20SAPS   C36 2621   6.855   3.860   3.186 -0.5497  0.4771  0.0261
   20SAPS   H6X 2622   6.922   3.858   3.097 -2.8393 -0.8246 -1.7937
   20SAPS   H6Y 2623   6.877   3.785   3.265 -0.8536 -0.0074 -0.3456
   20SAPS   C37 2624   6.867   3.995   3.267  1.7885 -0.3834  0.3771
   20SAPS   H7X 2625   6.856   4.082   3.199  0.4894  0.3625  1.5016
   20SAPS   H7Y 2626   6.975   3.998   3.294  1.7639 -0.1827  0.4537
   20SAPS   C38 2627   6.768   4.012   3.383  0.5767 -0.6850  0.1123
   20SAPS   H8X 2628   6.760   3.926   3.452  0.5694 -1.3809 -0.7457
   20SAPS   H8Y 2629   6.662   4.026   3.354  0.5569  1.6116  1.0488
   20SAPS   C39 2630   6.811   4.116   3.485  0.1761 -0.4375  0.2006
   20SAPS   H9X 2631   6.831   4.209   3.427  2.8339 -0.7193  0.5702
   20SAPS   H9Y 2632   6.907   4.088   3.532  0.3484  0.7242  0.5820
   20SAPS  C310 2633   6.703   4.129   3.598  0.0538 -0.0334  0.4713
   20SAPS  H10X 2634   6.675   4.025   3.626 -1.4849  0.1709 -0.2113
   20SAPS  H10Y 2635   6.607   4.173   3.565  0.3239 -1.2788 -2.2022
   20SAPS  C311 2636   6.760   4.213   3.709  0.2813 -0.1103 -0.1920
   20SAPS  H11X 2637   6.774   4.316   3.670 -0.3974 -0.4725 -1.4093
   20SAPS  H11Y 2638   6.858   4.168   3.737  0.5486  0.2965 -0.4536
   20SAPS  C312 2639   6.680   4.223   3.834 -0.1552  0.3446 -0.2044
   20SAPS  H12X 2640   6.652   4.122   3.871 -2.5217  0.5392 -1.2978
   20SAPS  H12Y 2641   6.579   4.266   3.812 -0.0994  0.7454  0.2946
   20SAPS  C313 2642   6.746   4.292   3.958 -0.1088 -0.0376 -0.3736
   20SAPS  H13X 2643   6.762   4.393   3.916 -0.6126 -0.4466 -1.6046
   20SAPS  H13Y 2644   6.841   4.235   3.971 -1.7043 -2.5641  1.3425
   20SAPS  C314 2645   6.648   4.283   4.081 -0.2602  0.0533  0.3320
   20SAPS  H14X 2646   6.590   4.189   4.086  0.4251 -0.3511  0.8187
   20SAPS  H14Y 2647   6.581   4.366   4.048  0.4754 -0.2532 -2.1561
   20SAPS  C315 2648   6.724   4.321   4.210 -0.2388  0.2095  0.5393
   20SAPS  H15X 2649   6.656   4.347   4.294 -0.4085  0.2401  0.3932
   20SAPS  H15Y 2650   6.793   4.406   4.196 -0.4984  0.0949 -1.7241
   20SAPS  C316 2651   6.798   4.204   4.257  0.0059 -0.0266  0.3066
   20SAPS  H16X 2652   6.866   4.171   4.176 -0.6799 -0.2638 -0.1773
   20SAPS  H16Y 2653   6.721   4.124   4.261 -0.4929  0.4883  2.6895
   20SAPS  C317 2654   6.872   4.213   4.391 -0.3373  0.3331  0.0709
   20SAPS  H17X 2655   6.974   4.252   4.371  0.5725 -0.2756  3.0967
   20SAPS  H17Y 2656   6.888   4.109   4.426 -2.3682 -0.7071 -1.8191
   20SAPS  C318 2657   6.801   4.286   4.494  0.3812 -0.1755 -0.3531
   20SAPS  H18X 2658   6.854   4.287   4.592 -0.1007 -0.5310 -0.0859
   20SAPS  H18Y 2659   6.695   4.254   4.499  0.1021  0.3879 -2.1723
   20SAPS  H18Z 2660   6.799   4.394   4.469 -0.3196  0.1682  1.0846
   21CHL1    C3 2661   2.394   3.737   5.998  0.0201 -0.0499 -0.4605
   21CHL1    H3 2662   2.354   3.634   5.995 -0.3977  0.1177 -0.7052
   21CHL1    O3 2663   2.390   3.759   6.142  0.1474  0.0560  0.5320
   21CHL1   H3' 2664   2.481   3.758   6.172  0.8005 -1.6565 -1.2722
   21CHL1    C4 2665   2.542   3.753   5.955  0.1345 -0.0650  0.1619
   21CHL1   H4A 2666   2.583   3.851   5.987  2.8310 -1.3553  0.9193
   21CHL1   H4B 2667   2.594   3.675   6.014 -0.4841 -0.2412  0.4903
   21CHL1    C5 2668   2.551   3.729   5.805  0.1378 -0.2982  0.2510
   21CHL1    C6 2669   2.635   3.632   5.757  0.0512 -0.3842  0.8399
   21CHL1    H6 2670   2.693   3.568   5.825  0.0789 -0.9672  0.2799
   21CHL1    C7 2671   2.634   3.589   5.610 -0.0618  0.4145  0.1960
   21CHL1   H7A 2672   2.741   3.575   5.585  0.0660 -0.2246  1.0498
   21CHL1   H7B 2673   2.587   3.489   5.601 -0.2776  0.5525 -0.2563
   21CHL1    C8 2674   2.569   3.698   5.523 -0.3501 -0.1688  0.0466
   21CHL1    H8 2675   2.635   3.787   5.527  1.7707 -1.6946  1.0075
   21CHL1   C14 2676   2.557   3.649   5.374  0.2720  0.0315 -0.8138
   21CHL1   H14 2677   2.486   3.564   5.384  2.2444 -1.4477  2.1594
   21CHL1   C15 2678   2.688   3.603   5.302  0.0033 -0.1195 -0.6619
   21CHL1  H15A 2679   2.766   3.674   5.338  3.0648 -2.7805 -1.5855
   21CHL1  H15B 2680   2.727   3.500   5.317 -1.7331 -0.5486  1.3486
   21CHL1   C16 2681   2.654   3.617   5.153 -0.3344  0.0115 -0.4432
   21CHL1  H16A 2682   2.720   3.692   5.103  1.8474  0.1423  2.3999
   21CHL1  H16B 2683   2.662   3.514   5.114  0.8258  0.1251 -0.5318
   21CHL1   C17 2684   2.509   3.673   5.145 -0.0871  0.2991  0.2125
   21CHL1   H17 2685   2.445   3.583   5.155  1.2426 -0.9070 -1.5600
   21CHL1   C13 2686   2.495   3.755   5.280  0.4759  0.7746  0.0820
   21CHL1   C18 2687   2.583   3.886   5.271 -0.6337 -0.2905 -0.3173
   21CHL1  H18A 2688   2.529   3.971   5.223  0.5347 -1.1421 -3.3497
   21CHL1  H18B 2689   2.610   3.924   5.372 -1.2566 -0.6684  0.0083
   21CHL1  H18C 2690   2.678   3.865   5.218 -0.3874  2.6756 -1.2033
   21CHL1   C12 2691   2.348   3.793   5.334 -0.1618 -0.3534 -0.8227
   21CHL1  H12A 2692   2.300   3.873   5.273  0.3452 -0.7384 -1.7459
   21CHL1  H12B 2693   2.288   3.701   5.327 -0.3086 -0.4156  0.8261
   21CHL1   C11 2694   2.354   3.837   5.480 -0.2579  0.6162  0.2006
   21CHL1  H11A 2695   2.413   3.931   5.479  0.8796 -0.0475  1.3076
   21CHL1  H11B 2696   2.251   3.857   5.519 -0.4377  0.9673 -0.4451
   21CHL1    C9 2697   2.436   3.743   5.580  0.2755 -0.0379 -0.3211
   21CHL1    H9 2698   2.371   3.653   5.586  2.4202 -1.7242 -1.2044
   21CHL1   C10 2699   2.448   3.806   5.726  0.3191  0.5216  0.0910
   21CHL1   C19 2700   2.506   3.953   5.721  0.7536  0.1518 -0.5108
   21CHL1  H19A 2701   2.429   4.018   5.674 -0.3570  1.9245  3.3966
   21CHL1  H19B 2702   2.530   4.000   5.819 -1.6920 -2.1163  1.3030
   21CHL1  H19C 2703   2.592   3.973   5.653  0.1294  2.1045 -0.8017
   21CHL1    C1 2704   2.305   3.819   5.790 -0.2994 -0.2120  0.2540
   21CHL1   H1A 2705   2.254   3.901   5.737  0.4354 -0.2149 -0.4771
   21CHL1   H1B 2706   2.257   3.721   5.769  0.9430 -0.2756 -2.7372
   21CHL1    C2 2707   2.305   3.843   5.941  0.0199  0.0317  1.2807
   21CHL1   H2A 2708   2.201   3.839   5.978 -0.9875  1.4437 -1.1392
   21CHL1   H2B 2709   2.340   3.945   5.968  0.9521 -0.0066  0.3252
   21CHL1   C20 2710   2.487   3.743   5.014  0.0568 -0.5347 -0.8423
   21CHL1   H20 2711   2.538   3.841   4.999 -1.1037  0.3764  0.8168
   21CHL1   C21 2712   2.337   3.762   5.005  0.2491 -0.4350  0.2716
   21CHL1  H21A 2713   2.302   3.773   4.900  1.0815  1.2552  0.1415
   21CHL1  H21B 2714   2.302   3.856   5.053  2.5578  1.0593 -0.8018
   21CHL1  H21C 2715   2.281   3.672   5.038  1.4880 -1.7728 -1.1136
   21CHL1   C22 2716   2.540   3.661   4.889  0.5121  0.3408 -0.1280
   21CHL1  H22A 2717   2.488   3.703   4.800  0.1549  1.5159  0.6177
   21CHL1  H22B 2718   2.651   3.668   4.888  0.5447  0.5973  1.7005
   21CHL1   C23 2719   2.496   3.507   4.877 -0.0099 -0.0973  0.2658
   21CHL1  H23A 2720   2.562   3.438   4.934 -0.4365 -1.0315 -0.3328
   21CHL1  H23B 2721   2.392   3.487   4.912  0.6174 -2.2528  1.0623
   21CHL1   C24 2722   2.505   3.453   4.737 -0.5088 -0.1729 -0.5218
   21CHL1  H24A 2723   2.426   3.507   4.679 -1.2573 -0.8231 -0.1148
   21CHL1  H24B 2724   2.606   3.463   4.691 -0.6488 -2.4187 -1.4158
   21CHL1   C25 2725   2.483   3.303   4.711 -0.3324 -0.6482 -0.4289
   21CHL1   H25 2726   2.574   3.245   4.737  1.4599  0.9948 -2.6347
   21CHL1   C26 2727   2.360   3.246   4.778 -0.0316  0.3876 -0.0316
   21CHL1  H26A 2728   2.333   3.146   4.737  0.3214 -0.0575  0.7908
   21CHL1  H26B 2729   2.385   3.248   4.887 -0.2086  3.3885  0.0225
   21CHL1  H26C 2730   2.270   3.308   4.756 -0.3359 -0.2881 -0.7348
   21CHL1   C27 2731   2.473   3.274   4.562  0.3634  0.0822  0.5595
   21CHL1  H27A 2732   2.400   3.338   4.508  0.1276 -0.1061  0.6550
   21CHL1  H27B 2733   2.574   3.285   4.516  1.0565 -0.9367  1.7905
   21CHL1  H27C 2734   2.438   3.170   4.546 -0.5882  0.5617 -0.5614
   22CHL1    C3 2735   5.328   3.068   5.877  0.7847 -0.3906 -0.1618
   22CHL1    H3 2736   5.417   3.006   5.856  1.5941  0.4522  0.6874
   22CHL1    O3 2737   5.339   3.111   6.015  0.0659  0.3523  0.9561
   22CHL1   H3' 2738   5.267   3.173   6.029  0.4582  0.5613  2.1804
   22CHL1    C4 2739   5.324   3.197   5.782 -0.3586  0.1451  0.0953
   22CHL1   H4A 2740   5.233   3.255   5.812 -1.2897 -0.8626 -0.6951
   22CHL1   H4B 2741   5.423   3.246   5.795 -0.1297 -0.0922 -0.7283
   22CHL1    C5 2742   5.310   3.150   5.639 -0.0460 -0.0975 -0.3894
   22CHL1    C6 2743   5.399   3.185   5.542  0.4014 -0.3546  0.0192
   22CHL1    H6 2744   5.489   3.245   5.561  0.8562 -1.2665  0.8128
   22CHL1    C7 2745   5.367   3.145   5.401  0.4462 -0.2552  0.3511
   22CHL1   H7A 2746   5.390   3.240   5.349 -0.0930  1.6784  3.3453
   22CHL1   H7B 2747   5.443   3.070   5.372  0.3153 -0.6075  0.8946
   22CHL1    C8 2748   5.228   3.101   5.367 -0.0663  0.0226  0.1008
   22CHL1    H8 2749   5.158   3.187   5.356 -1.6053 -0.8941  2.0748
   22CHL1   C14 2750   5.229   3.031   5.230 -0.3159 -0.1293 -0.5624
   22CHL1   H14 2751   5.298   2.945   5.247 -2.8505 -2.2391 -0.3493
   22CHL1   C15 2752   5.308   3.101   5.112 -0.5136  0.6189 -0.3773
   22CHL1  H15A 2753   5.276   3.208   5.120 -3.1788  0.1079 -2.4835
   22CHL1  H15B 2754   5.416   3.083   5.129  0.5799  4.9132 -1.4735
   22CHL1   C16 2755   5.260   3.025   4.992 -0.6045  0.2100  0.8095
   22CHL1  H16A 2756   5.214   3.097   4.921  1.8718 -1.4282 -2.8444
   22CHL1  H16B 2757   5.327   2.975   4.918  0.4479  0.4347  1.5754
   22CHL1   C17 2758   5.156   2.910   5.036 -0.7197 -0.3543 -0.1801
   22CHL1   H17 2759   5.213   2.823   5.074 -0.5063 -0.5070 -0.8350
   22CHL1   C13 2760   5.099   2.965   5.176 -0.0983 -0.1307  0.4294
   22CHL1   C18 2761   4.987   3.071   5.157  0.1147  0.2486 -0.6720
   22CHL1  H18A 2762   4.986   3.145   5.239 -2.3987  1.2761 -1.5379
   22CHL1  H18B 2763   5.006   3.144   5.075  1.3493  1.8359  0.9475
   22CHL1  H18C 2764   4.882   3.039   5.140 -1.4648  3.7432  1.6263
   22CHL1   C12 2765   5.057   2.862   5.289  0.6964  0.3113  0.5948
   22CHL1  H12A 2766   4.967   2.808   5.253  1.7443  0.4555 -2.4922
   22CHL1  H12B 2767   5.134   2.782   5.298 -0.9591 -1.2540  1.3322
   22CHL1   C11 2768   5.040   2.933   5.425  0.3554 -0.7062  0.2676
   22CHL1  H11A 2769   4.961   3.011   5.428  0.4794 -0.5085 -1.0793
   22CHL1  H11B 2770   5.005   2.858   5.499 -0.9604  0.8671  1.3141
   22CHL1    C9 2771   5.178   2.998   5.470 -0.3347 -0.0445  0.3730
   22CHL1    H9 2772   5.257   2.919   5.474  1.0091  1.1907 -0.5140
   22CHL1   C10 2773   5.186   3.059   5.611  0.0148 -0.1555  0.1376
   22CHL1   C19 2774   5.054   3.139   5.636  0.3579  0.1850  0.0952
   22CHL1  H19A 2775   5.043   3.178   5.740  0.8093  1.8190 -0.4325
   22CHL1  H19B 2776   5.043   3.230   5.573 -0.6707 -0.3172 -0.4792
   22CHL1  H19C 2777   4.969   3.070   5.621 -1.2280  1.7725  1.3466
   22CHL1    C1 2778   5.183   2.944   5.715 -0.1108 -0.7815  0.1885
   22CHL1   H1A 2779   5.087   2.890   5.704 -0.2246 -0.8462  1.3054
   22CHL1   H1B 2780   5.271   2.882   5.687 -0.2261 -1.1904  0.7030
   22CHL1    C2 2781   5.198   2.986   5.860 -0.0853 -0.4906  0.2912
   22CHL1   H2A 2782   5.202   2.889   5.914 -2.0475 -1.6152 -1.4127
   22CHL1   H2B 2783   5.112   3.046   5.896 -0.2942  0.4262 -1.6238
   22CHL1   C20 2784   5.054   2.872   4.931 -0.5726 -0.3403  0.4050
   22CHL1   H20 2785   5.003   2.966   4.900 -1.5042 -1.2657 -1.0100
   22CHL1   C21 2786   4.943   2.779   4.981  0.2363  0.0490  0.9253
   22CHL1  H21A 2787   4.904   2.704   4.909  2.0567 -1.8759  1.8509
   22CHL1  H21B 2788   4.855   2.834   5.020  0.5083  0.7097  0.6280
   22CHL1  H21C 2789   4.990   2.724   5.065 -0.0494 -1.5771  0.0662
   22CHL1   C22 2790   5.113   2.821   4.794 -0.2977 -0.2885 -0.0224
   22CHL1  H22A 2791   5.189   2.899   4.769 -0.1153 -0.3393  0.3690
   22CHL1  H22B 2792   5.180   2.734   4.814  1.1055  1.0723  1.6038
   22CHL1   C23 2793   5.017   2.799   4.672 -0.8561 -0.5971 -0.4627
   22CHL1  H23A 2794   5.079   2.746   4.597  0.8835 -2.4649  2.1161
   22CHL1  H23B 2795   4.946   2.715   4.690 -0.9265 -0.4769 -0.1733
   22CHL1   C24 2796   4.956   2.934   4.633  0.1758 -0.2074  0.8298
   22CHL1  H24A 2797   4.864   2.941   4.694  0.1268 -1.8754  0.9857
   22CHL1  H24B 2798   5.027   3.018   4.653  0.7528 -0.0306 -1.6367
   22CHL1   C25 2799   4.901   2.942   4.485  0.1499 -0.6555  0.6326
   22CHL1   H25 2800   4.879   3.050   4.471  0.8043 -0.6487 -0.5199
   22CHL1   C26 2801   5.004   2.901   4.370 -0.1064  0.3617  0.4317
   22CHL1  H26A 2802   5.028   2.793   4.385 -2.7515 -0.4477 -0.4334
   22CHL1  H26B 2803   4.957   2.901   4.269 -0.5681 -2.6256  0.5537
   22CHL1  H26C 2804   5.094   2.965   4.376  1.3192 -1.6357  1.2706
   22CHL1   C27 2805   4.768   2.856   4.469  0.8293  0.7781  0.3987
   22CHL1  H27A 2806   4.696   2.877   4.551  1.2139  0.4598  0.8218
   22CHL1  H27B 2807   4.716   2.867   4.371 -1.1080 -1.4152  1.0899
   22CHL1  H27C 2808   4.787   2.746   4.468 -0.8683  0.4655 -0.0675
   23CHL1    C3 2809   2.239   4.395   6.002 -0.0545  0.6107 -0.4739
   23CHL1    H3 2810   2.349   4.397   6.018 -0.1195  0.8843 -0.0318
   23CHL1    O3 2811   2.184   4.405   6.136 -0.2052 -0.6577  0.0327
   23CHL1   H3' 2812   2.180   4.499   6.154  1.9007 -0.2292 -1.3814
   23CHL1    C4 2813   2.187   4.506   5.917  0.4870  0.1803  0.5521
   23CHL1   H4A 2814   2.078   4.510   5.937  0.5413  0.6687  0.7722
   23CHL1   H4B 2815   2.226   4.600   5.961  1.6800  0.3619 -0.8208
   23CHL1    C5 2816   2.205   4.494   5.763 -0.3514 -0.4220  0.0402
   23CHL1    C6 2817   2.256   4.597   5.692 -0.6633 -0.3265  0.3643
   23CHL1    H6 2818   2.275   4.685   5.756 -1.0729 -0.8496  1.2240
   23CHL1    C7 2819   2.272   4.590   5.539 -0.0324 -0.0792 -0.4957
   23CHL1   H7A 2820   2.220   4.680   5.500 -1.8594  0.2081  2.3212
   23CHL1   H7B 2821   2.380   4.588   5.512 -0.1773 -0.3379 -1.0693
   23CHL1    C8 2822   2.216   4.465   5.467  0.1327  0.0562 -0.4430
   23CHL1    H8 2823   2.110   4.488   5.444  0.5602 -0.5267 -3.4974
   23CHL1   C14 2824   2.291   4.433   5.335 -0.3855  0.2765 -0.2772
   23CHL1   H14 2825   2.384   4.383   5.369 -1.4870 -1.1667  0.7112
   23CHL1   C15 2826   2.332   4.540   5.232 -0.1967 -0.7085  1.0070
   23CHL1  H15A 2827   2.245   4.599   5.196 -0.8532 -1.6927  0.9524
   23CHL1  H15B 2828   2.399   4.623   5.263 -1.9034  1.6426 -1.1803
   23CHL1   C16 2829   2.362   4.456   5.105 -0.4349  0.9158  0.4485
   23CHL1  H16A 2830   2.302   4.496   5.020  1.8767  0.3056 -1.6105
   23CHL1  H16B 2831   2.469   4.468   5.077 -0.2196  0.3281  1.0093
   23CHL1   C17 2832   2.322   4.314   5.137 -0.4529  0.9035 -0.3560
   23CHL1   H17 2833   2.414   4.269   5.181  0.0572  2.2380 -0.0184
   23CHL1   C13 2834   2.235   4.315   5.262 -0.3920  0.8944 -0.0336
   23CHL1   C18 2835   2.090   4.352   5.221 -0.0547 -0.0010  0.1254
   23CHL1  H18A 2836   2.052   4.263   5.167  0.9586  0.3780 -1.2839
   23CHL1  H18B 2837   2.027   4.364   5.311 -0.3616 -1.3239  0.1051
   23CHL1  H18C 2838   2.072   4.447   5.165  0.2900 -0.1790 -0.2998
   23CHL1   C12 2839   2.246   4.188   5.344 -0.2729 -0.0580  0.4678
   23CHL1  H12A 2840   2.205   4.098   5.293 -0.2829 -0.5767  1.3674
   23CHL1  H12B 2841   2.350   4.169   5.379 -0.5284 -1.4480  0.5156
   23CHL1   C11 2842   2.175   4.216   5.481 -0.6293 -0.5872 -0.1247
   23CHL1  H11A 2843   2.065   4.228   5.466 -0.6398 -0.1789  0.2731
   23CHL1  H11B 2844   2.199   4.127   5.543  0.9493 -1.2290 -1.5890
   23CHL1    C9 2845   2.232   4.341   5.555 -0.6723 -0.1754  0.2685
   23CHL1    H9 2846   2.342   4.327   5.561 -0.8359 -1.0968  1.6451
   23CHL1   C10 2847   2.177   4.357   5.702 -0.2016 -0.2188  0.6867
   23CHL1   C19 2848   2.027   4.329   5.693  0.5344  0.0824  0.5064
   23CHL1  H19A 2849   1.974   4.388   5.615  0.9342 -1.8599 -1.3444
   23CHL1  H19B 2850   2.011   4.222   5.666 -0.6891 -0.1614  2.0520
   23CHL1  H19C 2851   1.982   4.352   5.792  0.3036  0.4443  0.3187
   23CHL1    C1 2852   2.248   4.252   5.796  0.8011 -0.8301 -0.0632
   23CHL1   H1A 2853   2.221   4.148   5.767 -2.5964 -0.6775  1.9906
   23CHL1   H1B 2854   2.358   4.269   5.793  0.5028  1.2946 -2.7580
   23CHL1    C2 2855   2.202   4.262   5.944  0.5115  0.6489 -0.0314
   23CHL1   H2A 2856   2.253   4.183   6.002 -2.2607 -1.2505  0.0317
   23CHL1   H2B 2857   2.091   4.261   5.952  0.2723  1.6868 -2.3191
   23CHL1   C20 2858   2.279   4.224   5.016 -0.3100  0.6189 -0.2716
   23CHL1   H20 2859   2.219   4.140   5.056 -0.7520  0.6422 -0.8753
   23CHL1   C21 2860   2.404   4.158   4.962 -0.2708 -0.2413 -0.0134
   23CHL1  H21A 2861   2.451   4.234   4.895 -0.1332 -0.0176  0.3327
   23CHL1  H21B 2862   2.375   4.073   4.897  0.2663 -1.1140  0.8648
   23CHL1  H21C 2863   2.476   4.117   5.036 -1.2025 -0.4322  0.7991
   23CHL1   C22 2864   2.207   4.301   4.906  0.6789  0.0003  0.3380
   23CHL1  H22A 2865   2.143   4.381   4.951  3.4221  1.8248  1.2415
   23CHL1  H22B 2866   2.281   4.358   4.846  0.3881  1.3062  1.1761
   23CHL1   C23 2867   2.124   4.206   4.816  0.6434  0.5160  0.2980
   23CHL1  H23A 2868   2.199   4.140   4.766 -1.8971 -2.3551 -0.0487
   23CHL1  H23B 2869   2.051   4.140   4.867  1.6035  1.0592  2.4748
   23CHL1   C24 2870   2.061   4.288   4.700  0.5443 -0.4912  0.4242
   23CHL1  H24A 2871   1.975   4.342   4.744  2.0207  0.4743  2.2641
   23CHL1  H24B 2872   2.145   4.351   4.663  0.4137 -0.0763  0.8361
   23CHL1   C25 2873   1.996   4.211   4.587  0.1581 -0.1413  0.2110
   23CHL1   H25 2874   1.913   4.151   4.631  0.5488 -4.2167 -3.8935
   23CHL1   C26 2875   1.925   4.313   4.496 -0.6782 -0.2144 -0.6509
   23CHL1  H26A 2876   1.856   4.253   4.432 -0.6918 -0.8621 -0.0449
   23CHL1  H26B 2877   1.868   4.394   4.546  2.3418  1.3675  0.5001
   23CHL1  H26C 2878   2.000   4.366   4.434 -0.0410 -0.1100  0.1935
   23CHL1   C27 2879   2.091   4.114   4.504  0.1404 -0.0152  0.3614
   23CHL1  H27A 2880   2.132   4.028   4.562 -0.9696 -0.8368 -0.0407
   23CHL1  H27B 2881   2.041   4.072   4.415  1.1168  1.9610 -1.1856
   23CHL1  H27C 2882   2.174   4.177   4.465  0.5060  0.0919  1.2830
   24CHL1    C3 2883   4.251   5.094   6.132 -0.3140  0.5049 -0.3313
   24CHL1    H3 2884   4.146   5.060   6.146 -0.4372  1.3782  1.1365
   24CHL1    O3 2885   4.307   5.111   6.263  0.9081  0.0206 -0.4524
   24CHL1   H3' 2886   4.393   5.150   6.246  1.4518 -0.6988  0.5236
   24CHL1    C4 2887   4.340   5.001   6.054 -0.2941 -0.0706 -0.1078
   24CHL1   H4A 2888   4.444   5.039   6.055 -0.3303  0.1496 -1.8748
   24CHL1   H4B 2889   4.333   4.897   6.095  3.3259 -0.4407 -0.1002
   24CHL1    C5 2890   4.309   4.992   5.902  0.5436 -0.1385 -0.0314
   24CHL1    C6 2891   4.288   4.877   5.837 -0.7626 -0.3962  0.1517
   24CHL1    H6 2892   4.297   4.786   5.897  0.4873  2.0411  4.0402
   24CHL1    C7 2893   4.269   4.866   5.687  0.1410 -0.0701 -1.0412
   24CHL1   H7A 2894   4.338   4.789   5.646  0.3191 -1.1720  1.1733
   24CHL1   H7B 2895   4.166   4.828   5.667 -0.1449  0.4249 -0.5303
   24CHL1    C8 2896   4.292   4.996   5.611  0.3934 -0.6598 -0.1988
   24CHL1    H8 2897   4.400   5.013   5.592  0.4131  0.9735  1.0872
   24CHL1   C14 2898   4.223   4.979   5.478 -0.0608 -0.2518 -0.4243
   24CHL1   H14 2899   4.120   4.954   5.510  1.0993 -1.9730  2.3605
   24CHL1   C15 2900   4.263   4.860   5.390  0.5621  0.5500  0.0177
   24CHL1  H15A 2901   4.370   4.832   5.379  0.4240  0.5717 -1.6097
   24CHL1  H15B 2902   4.210   4.766   5.419 -1.5551  1.5747 -0.3578
   24CHL1   C16 2903   4.205   4.899   5.255 -0.0153 -0.1096 -0.2946
   24CHL1  H16A 2904   4.288   4.906   5.182  1.4760  0.7864  1.3982
   24CHL1  H16B 2905   4.131   4.832   5.206  0.4339  0.5873 -1.9808
   24CHL1   C17 2906   4.150   5.045   5.264 -0.0411  0.0494  0.3320
   24CHL1   H17 2907   4.044   5.023   5.291  0.7640 -3.4136  1.1914
   24CHL1   C13 2908   4.217   5.104   5.390 -0.4669 -0.2966  0.7272
   24CHL1   C18 2909   4.359   5.140   5.347  0.3283 -0.3819  0.0742
   24CHL1  H18A 2910   4.358   5.243   5.305 -0.0319  0.5128  2.1617
   24CHL1  H18B 2911   4.426   5.150   5.435 -0.0159 -1.1729  0.4337
   24CHL1  H18C 2912   4.397   5.062   5.278 -1.6854 -0.7138 -0.7461
   24CHL1   C12 2913   4.146   5.210   5.466  0.4885  0.1047  0.3918
   24CHL1  H12A 2914   4.131   5.306   5.412 -1.2245 -1.9097 -3.0392
   24CHL1  H12B 2915   4.042   5.182   5.492  0.0955  2.1088  1.1576
   24CHL1   C11 2916   4.215   5.241   5.604 -0.6354  0.0438  0.5541
   24CHL1  H11A 2917   4.314   5.278   5.571 -1.0678  1.2710  0.5794
   24CHL1  H11B 2918   4.155   5.323   5.649  0.2721  1.8859 -1.4005
   24CHL1    C9 2919   4.226   5.113   5.690 -0.4259  0.0138 -0.8544
   24CHL1    H9 2920   4.118   5.090   5.703 -1.0251  2.4937 -0.7795
   24CHL1   C10 2921   4.287   5.134   5.835  0.5672 -0.1395  0.5824
   24CHL1   C19 2922   4.429   5.188   5.814  0.2565  0.2990  1.0875
   24CHL1  H19A 2923   4.425   5.279   5.751  2.9157 -0.1363  0.1669
   24CHL1  H19B 2924   4.474   5.205   5.915  0.2360 -1.0513  1.3500
   24CHL1  H19C 2925   4.498   5.115   5.767 -0.8302  0.9908 -1.7782
   24CHL1    C1 2926   4.201   5.226   5.916  0.2421  0.5756 -0.4147
   24CHL1   H1A 2927   4.215   5.329   5.874  0.0082  0.8410  0.1516
   24CHL1   H1B 2928   4.094   5.196   5.914 -0.0114  1.3526  0.6407
   24CHL1    C2 2929   4.239   5.231   6.063 -0.8740 -0.9042 -0.8692
   24CHL1   H2A 2930   4.161   5.291   6.115  0.3330 -0.1511  0.1553
   24CHL1   H2B 2931   4.334   5.288   6.070 -1.2883 -0.3967  2.0683
   24CHL1   C20 2932   4.151   5.117   5.124  0.3593  0.0279 -0.8900
   24CHL1   H20 2933   4.255   5.138   5.090 -0.0424  0.9605 -1.5750
   24CHL1   C21 2934   4.076   5.251   5.144  0.3006 -0.5926  0.7707
   24CHL1  H21A 2935   4.057   5.298   5.045 -3.0974  1.2508  2.1544
   24CHL1  H21B 2936   4.143   5.323   5.197  0.8893 -0.0782 -0.6115
   24CHL1  H21C 2937   3.980   5.243   5.199  0.0613 -0.0528  0.4388
   24CHL1   C22 2938   4.077   5.037   5.010  0.1762 -0.2242 -1.3762
   24CHL1  H22A 2939   4.087   5.090   4.913 -1.0682 -2.0266 -2.5477
   24CHL1  H22B 2940   4.114   4.932   4.999  0.5823 -0.4867  1.5800
   24CHL1   C23 2941   3.924   5.030   5.017  0.7460  0.1050  0.1522
   24CHL1  H23A 2942   3.895   4.991   5.117 -0.8415  0.3599 -0.1844
   24CHL1  H23B 2943   3.868   5.125   5.008 -0.2504 -0.0670  3.2994
   24CHL1   C24 2944   3.855   4.939   4.915 -0.8247  0.6341  0.0963
   24CHL1  H24A 2945   3.900   4.838   4.918  0.9364  0.9174 -5.3568
   24CHL1  H24B 2946   3.748   4.940   4.947 -0.5982  2.1436  0.8971
   24CHL1   C25 2947   3.857   4.987   4.767 -0.5324  0.2672 -0.7030
   24CHL1   H25 2948   3.958   4.955   4.732 -1.6544 -2.7721 -1.5239
   24CHL1   C26 2949   3.756   4.903   4.686  0.0344  0.0861 -0.7121
   24CHL1  H26A 2950   3.775   4.797   4.715 -1.9656  0.4384  2.3879
   24CHL1  H26B 2951   3.651   4.928   4.715  0.8654  1.3675  1.4240
   24CHL1  H26C 2952   3.758   4.917   4.576 -2.8619  1.4431 -0.6889
   24CHL1   C27 2953   3.837   5.134   4.748  0.5941 -0.2646 -0.6980
   24CHL1  H27A 2954   3.744   5.168   4.798  2.0012  0.8863  1.2890
   24CHL1  H27B 2955   3.914   5.193   4.801 -0.8022 -0.7314  2.0811
   24CHL1  H27C 2956   3.849   5.153   4.639  1.5696 -0.7494 -0.6846
   25CHL1    C3 2957   5.884   6.900   6.071  0.0008  0.4918 -0.2919
   25CHL1    H3 2958   5.870   7.010   6.057  2.9761  0.8087 -1.5381
   25CHL1    O3 2959   5.931   6.872   6.204  0.4887  0.7838  0.0680
   25CHL1   H3' 2960   5.858   6.904   6.258 -1.3713 -2.2080 -0.4301
   25CHL1    C4 2961   5.744   6.824   6.041  0.1047 -0.0153 -0.0194
   25CHL1   H4A 2962   5.740   6.716   6.065 -1.6444 -0.6161 -2.6323
   25CHL1   H4B 2963   5.667   6.879   6.099 -0.1907  0.0887 -0.5045
   25CHL1    C5 2964   5.700   6.847   5.898  0.2523  0.1112 -0.1828
   25CHL1    C6 2965   5.575   6.896   5.857  0.4274 -0.4611  0.1434
   25CHL1    H6 2966   5.500   6.923   5.933  0.9633  0.4556  0.3702
   25CHL1    C7 2967   5.533   6.913   5.714  0.0693 -0.2659 -0.1244
   25CHL1   H7A 2968   5.437   6.858   5.702  0.1816 -0.1075 -2.0195
   25CHL1   H7B 2969   5.535   7.018   5.677 -1.6245  0.2036  0.9746
   25CHL1    C8 2970   5.629   6.841   5.621 -0.4678  0.5606 -0.3218
   25CHL1    H8 2971   5.599   6.734   5.620 -0.2714  0.4797  1.0873
   25CHL1   C14 2972   5.607   6.887   5.480 -0.3784 -0.4427  0.8186
   25CHL1   H14 2973   5.647   6.991   5.476  1.1132 -0.8307  3.4818
   25CHL1   C15 2974   5.459   6.898   5.431 -0.8616  0.0392 -0.2130
   25CHL1  H15A 2975   5.401   6.818   5.481  1.7904 -1.8716  0.0137
   25CHL1  H15B 2976   5.430   7.005   5.445  0.4334  1.0228 -3.8399
   25CHL1   C16 2977   5.470   6.890   5.278 -0.2413 -0.2665  0.2941
   25CHL1  H16A 2978   5.416   6.798   5.248  0.4975 -0.7117  0.2880
   25CHL1  H16B 2979   5.423   6.977   5.228 -2.1572 -1.3538  0.1057
   25CHL1   C17 2980   5.621   6.882   5.249 -0.2342 -0.8017 -0.3479
   25CHL1   H17 2981   5.660   6.986   5.253 -0.4216 -0.7667  1.3213
   25CHL1   C13 2982   5.683   6.813   5.374 -0.0360 -0.1843  0.1428
   25CHL1   C18 2983   5.648   6.655   5.363 -0.1720  0.4341 -0.1362
   25CHL1  H18A 2984   5.676   6.594   5.452 -1.4125  3.1422  2.2642
   25CHL1  H18B 2985   5.539   6.645   5.345 -0.0941  2.4125 -2.0342
   25CHL1  H18C 2986   5.704   6.616   5.276 -1.9260  1.7522 -1.9238
   25CHL1   C12 2987   5.827   6.851   5.389  0.1627 -0.2312  0.3686
   25CHL1  H12A 2988   5.890   6.799   5.313  1.8496  2.3977 -0.1788
   25CHL1  H12B 2989   5.844   6.959   5.368  0.7645 -0.4407 -0.2838
   25CHL1   C11 2990   5.868   6.801   5.529 -0.3285  0.9469 -0.8663
   25CHL1  H11A 2991   5.867   6.691   5.517 -1.2266  0.5062  2.2675
   25CHL1  H11B 2992   5.974   6.830   5.544 -0.6144  1.4486  0.3157
   25CHL1    C9 2993   5.779   6.860   5.646  1.1115  0.5406 -0.5324
   25CHL1    H9 2994   5.798   6.969   5.655 -0.5345  0.7307  1.1345
   25CHL1   C10 2995   5.814   6.810   5.790 -0.2242  0.4531 -0.8953
   25CHL1   C19 2996   5.815   6.656   5.795  0.4949 -0.2023 -0.0623
   25CHL1  H19A 2997   5.892   6.619   5.724  0.1020  0.7254 -0.9903
   25CHL1  H19B 2998   5.857   6.632   5.896  2.0857  3.2888  0.2505
   25CHL1  H19C 2999   5.716   6.611   5.773  1.3606 -1.7707 -0.8802
   25CHL1    C1 3000   5.950   6.871   5.829  0.6505  0.4604 -0.1130
   25CHL1   H1A 3001   6.035   6.836   5.767 -1.5261 -0.6091 -2.6817
   25CHL1   H1B 3002   5.937   6.981   5.822  0.0184  0.5908  2.3101
   25CHL1    C2 3003   5.995   6.855   5.973 -0.1276  0.4125 -0.2173
   25CHL1   H2A 3004   6.091   6.909   5.987 -0.5196  1.2970 -0.8708
   25CHL1   H2B 3005   5.999   6.745   5.994  0.8835  0.7115  1.3422
   25CHL1   C20 3006   5.655   6.829   5.109 -0.0278 -1.0368  0.0753
   25CHL1   H20 3007   5.628   6.725   5.083 -2.3324 -0.3535 -0.5371
   25CHL1   C21 3008   5.800   6.830   5.072 -0.8462  0.9760  0.0171
   25CHL1  H21A 3009   5.798   6.816   4.962 -1.0684 -2.8352  0.3676
   25CHL1  H21B 3010   5.846   6.742   5.122 -0.7855  0.8270 -0.2980
   25CHL1  H21C 3011   5.848   6.928   5.091  1.2856 -0.0244  0.1613
   25CHL1   C22 3012   5.566   6.895   4.991 -0.0999 -0.3391 -0.3816
   25CHL1  H22A 3013   5.604   6.852   4.896 -0.7467 -1.6194 -0.0841
   25CHL1  H22B 3014   5.464   6.853   5.006  0.5964 -2.5840 -1.5368
   25CHL1   C23 3015   5.560   7.050   4.978 -0.3614  0.1845 -0.1902
   25CHL1  H23A 3016   5.541   7.092   5.078 -3.0552 -1.6992  0.1923
   25CHL1  H23B 3017   5.663   7.083   4.951 -0.9340  1.1403 -1.3518
   25CHL1   C24 3018   5.469   7.108   4.866  0.3209  0.4229  0.1171
   25CHL1  H24A 3019   5.494   7.214   4.842  0.0514  0.5083  0.2106
   25CHL1  H24B 3020   5.480   7.044   4.776 -2.2772 -0.4035  0.3230
   25CHL1   C25 3021   5.325   7.100   4.908  0.6090 -0.2923  0.5235
   25CHL1   H25 3022   5.296   6.999   4.945 -0.9456  0.5413  1.7021
   25CHL1   C26 3023   5.284   7.194   5.025 -0.1421 -0.5109  0.0291
   25CHL1  H26A 3024   5.320   7.297   5.005  0.8511 -0.6286  1.0666
   25CHL1  H26B 3025   5.174   7.191   5.037 -0.2369  0.7302 -0.4016
   25CHL1  H26C 3026   5.334   7.162   5.119 -0.8673 -2.8514 -0.3273
   25CHL1   C27 3027   5.230   7.142   4.796  0.3889  0.4015  0.7922
   25CHL1  H27A 3028   5.245   7.069   4.714 -1.8237  0.1270  0.5758
   25CHL1  H27B 3029   5.125   7.138   4.832  0.0317 -0.7395 -0.3083
   25CHL1  H27C 3030   5.248   7.246   4.759 -0.1048  0.1383 -0.2370
   26CHL1    C3 3031   4.993   2.569   6.396  0.7611 -0.5331 -0.4825
   26CHL1    H3 3032   5.006   2.460   6.412 -0.7573 -0.5597  0.8188
   26CHL1    O3 3033   4.996   2.630   6.527 -0.5051 -0.5465  0.1339
   26CHL1   H3' 3034   4.976   2.723   6.512 -3.0941 -1.3172 -2.0573
   26CHL1    C4 3035   5.114   2.620   6.315 -0.2434  0.5165  0.5493
   26CHL1   H4A 3036   5.099   2.730   6.315 -0.7244  0.4600  1.1407
   26CHL1   H4B 3037   5.208   2.589   6.366  0.3077  2.4632  0.7765
   26CHL1    C5 3038   5.103   2.565   6.169 -0.4355  0.9599  0.6120
   26CHL1    C6 3039   5.212   2.505   6.122  0.1901 -0.3399  0.2916
   26CHL1    H6 3040   5.299   2.492   6.189  2.7680 -1.0183 -2.8962
   26CHL1    C7 3041   5.223   2.465   5.976 -0.5426 -0.8288  0.1819
   26CHL1   H7A 3042   5.315   2.511   5.933  1.1349 -2.3758  1.9316
   26CHL1   H7B 3043   5.231   2.354   5.973  1.4284 -0.7681  1.5464
   26CHL1    C8 3044   5.099   2.517   5.888 -0.7536 -0.3418  0.0990
   26CHL1    H8 3045   5.116   2.622   5.857  1.8579 -0.9519 -0.7740
   26CHL1   C14 3046   5.079   2.427   5.768 -0.8250 -0.5103 -1.1693
   26CHL1   H14 3047   5.043   2.334   5.816 -2.0555  1.1222  1.2746
   26CHL1   C15 3048   5.204   2.395   5.690  0.5578 -0.1893 -0.4694
   26CHL1  H15A 3049   5.266   2.483   5.663  2.4323 -1.7256 -1.4232
   26CHL1  H15B 3050   5.275   2.332   5.747  0.3698 -0.2481 -0.3005
   26CHL1   C16 3051   5.149   2.344   5.560  0.3147  0.1858  1.3679
   26CHL1  H16A 3052   5.198   2.395   5.475 -1.6578  0.8964  0.6077
   26CHL1  H16B 3053   5.165   2.235   5.541  0.0784  0.4556 -0.5330
   26CHL1   C17 3054   4.990   2.369   5.555 -1.5652 -0.8921 -0.2202
   26CHL1   H17 3055   4.951   2.272   5.592  2.0234 -2.0605  0.8185
   26CHL1   C13 3056   4.975   2.472   5.666 -0.5083 -0.4141 -0.0842
   26CHL1   C18 3057   4.991   2.616   5.614 -0.2125 -0.1279 -0.2578
   26CHL1  H18A 3058   4.904   2.650   5.552  0.9245  2.3617 -0.6096
   26CHL1  H18B 3059   4.996   2.681   5.703 -2.3887 -1.5134  0.9693
   26CHL1  H18C 3060   5.083   2.623   5.552  0.5624  0.2658  0.9134
   26CHL1   C12 3061   4.842   2.465   5.748  0.7886  0.5553  0.4607
   26CHL1  H12A 3062   4.763   2.502   5.678  0.7773  0.2356  0.3071
   26CHL1  H12B 3063   4.817   2.365   5.789 -0.9703  0.1346 -1.4912
   26CHL1   C11 3064   4.848   2.553   5.877  0.5470  0.8033  0.1827
   26CHL1  H11A 3065   4.850   2.659   5.845 -0.2761  1.3154  1.7320
   26CHL1  H11B 3066   4.751   2.538   5.930  0.6454 -0.0119  0.1414
   26CHL1    C9 3067   4.960   2.513   5.965 -0.0673 -0.0194 -0.1118
   26CHL1    H9 3068   4.940   2.406   5.990 -2.8491  0.6813  0.9477
   26CHL1   C10 3069   4.966   2.598   6.102 -0.2705  0.3983 -0.0468
   26CHL1   C19 3070   4.949   2.752   6.075  0.5242  0.4837  0.3743
   26CHL1  H19A 3071   4.842   2.767   6.050 -0.3636 -1.5119  2.6281
   26CHL1  H19B 3072   4.966   2.819   6.162  1.6395 -0.3994  0.8608
   26CHL1  H19C 3073   5.005   2.777   5.982 -3.7821  0.5852 -2.4500
   26CHL1    C1 3074   4.852   2.543   6.192  0.0634 -0.1428 -0.1820
   26CHL1   H1A 3075   4.754   2.571   6.147 -0.0757 -2.6098 -1.6216
   26CHL1   H1B 3076   4.873   2.434   6.198  1.9015  0.2608  2.8186
   26CHL1    C2 3077   4.857   2.602   6.335  0.0342 -0.2529 -0.0781
   26CHL1   H2A 3078   4.767   2.569   6.392 -0.0278 -1.5836 -0.8998
   26CHL1   H2B 3079   4.861   2.712   6.320  0.2275 -0.0435  1.3386
   26CHL1   C20 3080   4.939   2.407   5.413 -0.5837  0.0543  0.1887
   26CHL1   H20 3081   4.973   2.506   5.376 -0.4502 -1.0379 -2.9083
   26CHL1   C21 3082   4.787   2.399   5.413 -0.3190 -0.9472  0.5764
   26CHL1  H21A 3083   4.750   2.437   5.314  4.4834  0.4348 -0.9513
   26CHL1  H21B 3084   4.739   2.465   5.488  0.6866  0.4313  0.0516
   26CHL1  H21C 3085   4.751   2.295   5.427  1.2371 -1.6056 -0.0702
   26CHL1   C22 3086   4.989   2.299   5.307  0.1724  0.3208 -0.2366
   26CHL1  H22A 3087   5.095   2.271   5.326 -0.2667  0.1373  2.3353
   26CHL1  H22B 3088   4.934   2.206   5.335  0.5956  0.0905 -0.1608
   26CHL1   C23 3089   4.953   2.341   5.165 -0.6624 -0.1618  0.6990
   26CHL1  H23A 3090   4.847   2.375   5.161 -1.0893 -1.5196 -0.0057
   26CHL1  H23B 3091   5.015   2.430   5.142 -1.3970  0.0678 -0.5185
   26CHL1   C24 3092   4.992   2.237   5.056 -0.5982 -0.2185 -0.4562
   26CHL1  H24A 3093   5.102   2.224   5.066 -0.6394 -0.1196  0.1783
   26CHL1  H24B 3094   4.952   2.134   5.069 -0.2885 -0.2678  0.1612
   26CHL1   C25 3095   4.946   2.288   4.913  0.3279 -0.5104 -0.3934
   26CHL1   H25 3096   4.998   2.213   4.850  5.8195  0.2070  2.6472
   26CHL1   C26 3097   4.797   2.282   4.909 -0.0512 -0.1668  0.4360
   26CHL1  H26A 3098   4.776   2.279   4.799  1.0554 -0.0197  0.2108
   26CHL1  H26B 3099   4.754   2.197   4.966  0.0520 -0.8604 -0.4964
   26CHL1  H26C 3100   4.761   2.378   4.952  2.7922  0.7161  1.0155
   26CHL1   C27 3101   5.023   2.412   4.866  0.8046  0.3358  0.6081
   26CHL1  H27A 3102   5.129   2.383   4.853  0.5324 -1.8177  2.4535
   26CHL1  H27B 3103   4.980   2.461   4.776  3.1044  1.1487 -0.1068
   26CHL1  H27C 3104   5.026   2.481   4.953 -0.3981  0.2224  0.7546
   27CHL1    C3 3105   2.360   3.376   6.274 -0.7545 -0.0045 -0.0982
   27CHL1    H3 3106   2.386   3.484   6.263  0.9142 -0.6468 -4.0233
   27CHL1    O3 3107   2.356   3.350   6.413  0.0285 -0.8044  0.9155
   27CHL1   H3' 3108   2.439   3.391   6.440 -0.4610 -0.4795  1.9935
   27CHL1    C4 3109   2.218   3.349   6.216 -0.0669  0.4619  0.0542
   27CHL1   H4A 3110   2.203   3.241   6.234 -2.7160  0.7834  0.0956
   27CHL1   H4B 3111   2.137   3.403   6.268 -0.3345 -0.1008  0.2234
   27CHL1    C5 3112   2.208   3.368   6.063  0.6665  0.1221  0.2542
   27CHL1    C6 3113   2.114   3.458   6.020  0.5179  0.3085  0.1903
   27CHL1    H6 3114   2.037   3.495   6.089  0.2787  2.0045 -0.9223
   27CHL1    C7 3115   2.088   3.466   5.871  0.1055 -0.5362 -0.2388
   27CHL1   H7A 3116   1.980   3.453   5.850 -0.4294  2.9013 -0.2639
   27CHL1   H7B 3117   2.114   3.570   5.840  0.6216  0.0145  1.8753
   27CHL1    C8 3118   2.163   3.363   5.779  0.0298  0.2749  0.2383
   27CHL1    H8 3119   2.100   3.274   5.798 -1.7764  1.4358 -0.0430
   27CHL1   C14 3120   2.158   3.395   5.633  0.5226 -0.0340 -0.6882
   27CHL1   H14 3121   2.223   3.484   5.619  1.4599 -1.0129 -3.0373
   27CHL1   C15 3122   2.023   3.442   5.568  0.1620  0.1923  0.2922
   27CHL1  H15A 3123   1.942   3.375   5.606 -0.2204 -0.0217 -0.8770
   27CHL1  H15B 3124   1.990   3.548   5.576  0.8377  0.6442 -2.1473
   27CHL1   C16 3125   2.040   3.408   5.421  0.3101 -0.7276 -0.4008
   27CHL1  H16A 3126   1.951   3.351   5.390 -0.2395  0.5598 -1.3041
   27CHL1  H16B 3127   2.049   3.500   5.359 -2.6504 -1.1813 -1.6319
   27CHL1   C17 3128   2.183   3.345   5.405 -0.5031  0.5119 -0.0174
   27CHL1   H17 3129   2.253   3.428   5.383  0.6643 -0.5664 -0.5582
   27CHL1   C13 3130   2.225   3.286   5.542  0.2894 -0.8734 -0.3030
   27CHL1   C18 3131   2.141   3.154   5.553  0.0619 -0.8537 -0.2520
   27CHL1  H18A 3132   2.147   3.117   5.657  1.2330  4.5395  1.9242
   27CHL1  H18B 3133   2.036   3.175   5.525  0.3014  0.6837 -0.0866
   27CHL1  H18C 3134   2.175   3.075   5.481 -1.0006 -0.1941 -1.5260
   27CHL1   C12 3135   2.367   3.275   5.582 -0.7548  0.9874  0.1468
   27CHL1  H12A 3136   2.427   3.209   5.516 -0.7320  1.5349 -0.3943
   27CHL1  H12B 3137   2.400   3.380   5.565  1.0936 -0.0225 -3.6231
   27CHL1   C11 3138   2.389   3.239   5.733  0.1648  0.6017 -0.7184
   27CHL1  H11A 3139   2.373   3.129   5.739  2.2215  0.2070 -1.6394
   27CHL1  H11B 3140   2.496   3.254   5.760  0.3543 -0.2123 -0.9833
   27CHL1    C9 3141   2.308   3.330   5.827 -0.4204  0.0805  0.0082
   27CHL1    H9 3142   2.353   3.432   5.822 -0.7066  0.3641  2.3542
   27CHL1   C10 3143   2.311   3.292   5.976 -0.0010 -1.4547 -0.1904
   27CHL1   C19 3144   2.278   3.139   5.996 -0.2339  0.1319  0.1161
   27CHL1  H19A 3145   2.364   3.078   5.961 -0.5512 -1.0447  1.2953
   27CHL1  H19B 3146   2.268   3.111   6.103  0.1617 -0.3947  0.0186
   27CHL1  H19C 3147   2.180   3.109   5.953  1.1559 -1.6886 -1.9584
   27CHL1    C1 3148   2.455   3.312   6.043  0.2587 -0.1435  0.0633
   27CHL1   H1A 3149   2.534   3.244   6.005  1.0985 -0.6533  2.5348
   27CHL1   H1B 3150   2.490   3.417   6.033  2.3785 -0.6596  1.4042
   27CHL1    C2 3151   2.458   3.294   6.193  0.3472 -0.2765  0.4903
   27CHL1   H2A 3152   2.562   3.298   6.231  0.8114  1.1582 -0.8222
   27CHL1   H2B 3153   2.426   3.191   6.219 -1.1667 -0.2901 -1.1977
   27CHL1   C20 3154   2.192   3.253   5.275  1.0846  0.1381  0.4670
   27CHL1   H20 3155   2.134   3.160   5.292  1.7243  0.1165  2.9948
   27CHL1   C21 3156   2.342   3.223   5.243 -0.3366 -0.5661 -0.6092
   27CHL1  H21A 3157   2.370   3.142   5.314 -2.8124 -0.8515  0.1305
   27CHL1  H21B 3158   2.406   3.313   5.246 -1.0859 -0.0382  0.0711
   27CHL1  H21C 3159   2.354   3.173   5.145  0.5543 -2.7903  0.5550
   27CHL1   C22 3160   2.130   3.322   5.151 -0.3256  0.1724  0.3102
   27CHL1  H22A 3161   2.042   3.384   5.180  0.3838  0.1413  2.7434
   27CHL1  H22B 3162   2.203   3.399   5.118 -0.0215 -0.1761  0.1593
   27CHL1   C23 3163   2.074   3.222   5.046  0.2784 -0.6462  0.1528
   27CHL1  H23A 3164   2.155   3.165   4.996  1.3461  1.1911 -0.3207
   27CHL1  H23B 3165   2.022   3.140   5.100 -0.2195 -1.0268 -0.8734
   27CHL1   C24 3166   1.987   3.289   4.938 -0.8609 -0.0812  0.3907
   27CHL1  H24A 3167   1.904   3.334   4.998 -0.3371 -2.3704  3.0615
   27CHL1  H24B 3168   2.055   3.365   4.894  1.7486 -1.8929  1.0374
   27CHL1   C25 3169   1.926   3.197   4.828  0.6107  0.0054  1.0879
   27CHL1   H25 3170   1.816   3.211   4.834  0.0067 -2.8773 -1.0761
   27CHL1   C26 3171   1.971   3.239   4.690 -0.2479 -0.7410  0.4852
   27CHL1  H26A 3172   2.077   3.209   4.673  0.4116  1.5112  0.3869
   27CHL1  H26B 3173   1.909   3.183   4.617 -2.1834  1.2481  0.4853
   27CHL1  H26C 3174   1.958   3.348   4.676 -4.2549 -1.1335  0.0295
   27CHL1   C27 3175   1.955   3.047   4.845 -0.4737 -0.8668 -0.5104
   27CHL1  H27A 3176   1.902   3.018   4.938  0.0130 -0.7679 -0.1993
   27CHL1  H27B 3177   2.065   3.034   4.847 -0.1745  1.2283  0.3485
   27CHL1  H27C 3178   1.904   2.987   4.767 -0.9219  0.0168 -0.9139
   28CHL1    C3 3179   6.589   3.516   6.215 -0.1867 -0.5532  0.1263
   28CHL1    H3 3180   6.618   3.614   6.173  0.6336 -0.3816  1.0393
   28CHL1    O3 3181   6.619   3.538   6.347  0.5702  0.2529 -0.3599
   28CHL1   H3' 3182   6.615   3.455   6.395  0.1309  0.2628 -0.3715
   28CHL1    C4 3183   6.437   3.490   6.206 -0.1135 -0.2460 -0.3795
   28CHL1   H4A 3184   6.428   3.398   6.269  2.7793  1.5439  3.0033
   28CHL1   H4B 3185   6.377   3.569   6.256 -2.1261 -0.9681 -1.5536
   28CHL1    C5 3186   6.389   3.450   6.065  0.2586  0.2044 -0.2896
   28CHL1    C6 3187   6.290   3.520   6.011 -1.1479 -0.0935  0.5612
   28CHL1    H6 3188   6.246   3.604   6.067  1.7630  1.8769  0.1516
   28CHL1    C7 3189   6.245   3.496   5.864 -0.1017  0.1883  0.5825
   28CHL1   H7A 3190   6.139   3.516   5.841 -0.4124 -1.8827  0.0037
   28CHL1   H7B 3191   6.305   3.571   5.808 -0.7200 -1.6066 -2.7098
   28CHL1    C8 3192   6.296   3.369   5.802 -0.4150  0.0340 -0.3168
   28CHL1    H8 3193   6.236   3.286   5.845  2.3383 -0.6021  2.6852
   28CHL1   C14 3194   6.276   3.383   5.651  0.1431 -0.0181  0.2576
   28CHL1   H14 3195   6.343   3.465   5.615  0.8673 -0.5534  0.3681
   28CHL1   C15 3196   6.135   3.411   5.594 -0.3222  0.3381 -1.1593
   28CHL1  H15A 3197   6.062   3.358   5.660 -0.4062  1.0543 -0.6572
   28CHL1  H15B 3198   6.118   3.521   5.598 -1.1246  0.2153 -0.8596
   28CHL1   C16 3199   6.135   3.375   5.445  0.2709  0.4722  0.3540
   28CHL1  H16A 3200   6.054   3.303   5.420 -0.0464  0.7136  0.6798
   28CHL1  H16B 3201   6.128   3.467   5.383 -1.6759 -0.2779 -0.6281
   28CHL1   C17 3202   6.278   3.302   5.423 -0.1421  0.1574 -0.1612
   28CHL1   H17 3203   6.356   3.376   5.394  1.0350 -0.7877  0.4813
   28CHL1   C13 3204   6.319   3.263   5.570 -0.6165  0.2427  0.0224
   28CHL1   C18 3205   6.242   3.133   5.604 -0.3225 -0.5173  0.2817
   28CHL1  H18A 3206   6.134   3.140   5.579 -0.2662 -0.9762 -0.1087
   28CHL1  H18B 3207   6.291   3.050   5.548  2.2775  1.3123 -0.3194
   28CHL1  H18C 3208   6.260   3.115   5.712  0.6415 -0.3557  0.1484
   28CHL1   C12 3209   6.472   3.246   5.594 -0.0296 -0.1689  0.1405
   28CHL1  H12A 3210   6.516   3.151   5.558 -0.6846 -1.1940  1.9322
   28CHL1  H12B 3211   6.525   3.329   5.543 -1.8656 -0.9220 -3.2581
   28CHL1   C11 3212   6.502   3.232   5.749  0.3140 -0.4633 -0.0132
   28CHL1  H11A 3213   6.456   3.137   5.783 -0.8916  0.4041  0.8707
   28CHL1  H11B 3214   6.609   3.224   5.779  0.2322 -0.4651  0.2785
   28CHL1    C9 3215   6.445   3.355   5.832 -0.0045 -0.0028 -0.7413
   28CHL1    H9 3216   6.504   3.437   5.787  3.1488 -0.9393  1.3997
   28CHL1   C10 3217   6.474   3.351   5.982  0.4323 -0.1053  0.4197
   28CHL1   C19 3218   6.441   3.203   6.031 -0.0891  0.1846  0.3705
   28CHL1  H19A 3219   6.439   3.206   6.142 -0.9458 -0.6960  0.3912
   28CHL1  H19B 3220   6.344   3.162   5.995 -0.4518  0.7667  0.6570
   28CHL1  H19C 3221   6.523   3.129   6.017 -1.0417 -1.5448  2.9966
   28CHL1    C1 3222   6.628   3.377   6.009  0.7428  0.0616  0.2094
   28CHL1   H1A 3223   6.683   3.290   5.966 -0.8943 -0.0999 -1.7281
   28CHL1   H1B 3224   6.671   3.451   5.939 -0.0677 -0.5216 -0.9570
   28CHL1    C2 3225   6.675   3.405   6.156  0.6436 -0.3279 -0.3580
   28CHL1   H2A 3226   6.784   3.426   6.157  0.7786 -1.0210  0.9389
   28CHL1   H2B 3227   6.647   3.316   6.216 -0.7270 -0.2206 -0.7971
   28CHL1   C20 3228   6.274   3.188   5.318  0.4353  0.0044 -0.1035
   28CHL1   H20 3229   6.221   3.098   5.356 -2.5272  1.3920 -0.6926
   28CHL1   C21 3230   6.418   3.143   5.279  0.0453 -0.3145 -0.3733
   28CHL1  H21A 3231   6.475   3.229   5.236  0.4245 -1.0565 -1.3949
   28CHL1  H21B 3232   6.417   3.072   5.194 -4.0580  0.2294 -0.9577
   28CHL1  H21C 3233   6.472   3.094   5.363  1.2419  0.7228 -0.5082
   28CHL1   C22 3234   6.208   3.224   5.180  0.5352  0.1749  0.4767
   28CHL1  H22A 3235   6.201   3.138   5.111 -0.3924  0.5521  0.0907
   28CHL1  H22B 3236   6.104   3.244   5.214  0.8741  0.3117  1.4862
   28CHL1   C23 3237   6.267   3.349   5.106 -0.1289 -0.6110  0.4671
   28CHL1  H23A 3238   6.269   3.442   5.167  0.7487  0.3028 -0.9112
   28CHL1  H23B 3239   6.368   3.321   5.071 -0.3768  0.8880 -1.6792
   28CHL1   C24 3240   6.176   3.390   4.985  0.4482 -0.4609 -0.5406
   28CHL1  H24A 3241   6.157   3.297   4.928  1.6797 -0.4186 -1.0501
   28CHL1  H24B 3242   6.081   3.423   5.032  1.5260  0.7577  0.9159
   28CHL1   C25 3243   6.249   3.496   4.892 -0.2416  0.0405  0.2433
   28CHL1   H25 3244   6.351   3.456   4.877 -0.7968 -1.2714 -0.2185
   28CHL1   C26 3245   6.182   3.518   4.749  0.0925  0.1526 -0.6843
   28CHL1  H26A 3246   6.082   3.566   4.763 -0.1261 -0.3131 -0.6405
   28CHL1  H26B 3247   6.242   3.588   4.687  0.2939 -0.4651 -1.1943
   28CHL1  H26C 3248   6.170   3.421   4.697 -1.4122 -0.1251  0.1029
   28CHL1   C27 3249   6.258   3.635   4.951 -0.0639  0.7469 -0.0745
   28CHL1  H27A 3250   6.287   3.707   4.872 -1.3021  0.2950 -0.9803
   28CHL1  H27B 3251   6.160   3.678   4.980 -0.5033  0.1680 -0.6857
   28CHL1  H27C 3252   6.326   3.647   5.038 -0.5911 -2.3535  0.9035
   29CHL1    C3 3253   2.886   4.281   5.996 -0.3501 -0.1186  0.1612
   29CHL1    H3 3254   2.874   4.388   5.971 -0.7465  0.0887  1.1798
   29CHL1    O3 3255   2.877   4.274   6.134  0.2676  0.7106 -0.3453
   29CHL1   H3' 3256   2.892   4.182   6.158 -0.2975 -0.4968 -3.9268
   29CHL1    C4 3257   2.770   4.203   5.924  0.1518 -0.0652  0.3258
   29CHL1   H4A 3258   2.782   4.096   5.952  0.6917 -0.1594 -0.2313
   29CHL1   H4B 3259   2.678   4.253   5.962 -0.2418 -0.6249  0.1140
   29CHL1    C5 3260   2.771   4.225   5.772 -0.1854  0.1436  0.4448
   29CHL1    C6 3261   2.659   4.259   5.699 -0.2796  0.0213 -0.5824
   29CHL1    H6 3262   2.564   4.265   5.753 -0.0076 -1.6872  0.1358
   29CHL1    C7 3263   2.664   4.293   5.553  0.4104  0.1709 -0.4335
   29CHL1   H7A 3264   2.573   4.249   5.505  0.0564 -0.6522  0.9367
   29CHL1   H7B 3265   2.669   4.404   5.546 -2.8498  0.6194  2.0008
   29CHL1    C8 3266   2.787   4.226   5.485  0.3118 -0.6165  0.1448
   29CHL1    H8 3267   2.773   4.116   5.480  0.3678 -0.5523 -2.8343
   29CHL1   C14 3268   2.799   4.271   5.342  0.3529 -0.1834 -0.3422
   29CHL1   H14 3269   2.839   4.375   5.351  1.1870 -0.4764 -0.5644
   29CHL1   C15 3270   2.680   4.276   5.255  0.5499 -0.3478 -0.6170
   29CHL1  H15A 3271   2.601   4.200   5.275 -1.1549  1.6976  0.8647
   29CHL1  H15B 3272   2.635   4.377   5.264 -0.6356 -1.0756  3.5444
   29CHL1   C16 3273   2.738   4.264   5.110 -0.3055  0.5155  0.0858
   29CHL1  H16A 3274   2.696   4.167   5.075 -1.5882  0.7231  0.9676
   29CHL1  H16B 3275   2.692   4.339   5.043 -1.2049 -0.7095 -0.7210
   29CHL1   C17 3276   2.895   4.274   5.124  0.5715  0.8592  0.6237
   29CHL1   H17 3277   2.914   4.383   5.137 -2.3758  1.2802  2.2484
   29CHL1   C13 3278   2.915   4.209   5.262  0.6550  0.0688 -0.6166
   29CHL1   C18 3279   2.906   4.055   5.238 -0.5645  0.4382  0.5284
   29CHL1  H18A 3280   2.821   4.018   5.178 -0.8966  1.8594  0.0908
   29CHL1  H18B 3281   2.993   4.030   5.174 -0.3941  0.2678  0.8275
   29CHL1  H18C 3282   2.911   4.001   5.335 -0.1902 -0.9402 -0.2281
   29CHL1   C12 3283   3.045   4.242   5.336  0.4512 -0.0713 -0.7058
   29CHL1  H12A 3284   3.134   4.197   5.287  2.1452  1.9041  0.3505
   29CHL1  H12B 3285   3.069   4.351   5.328  1.0472 -0.0895  0.5590
   29CHL1   C11 3286   3.046   4.209   5.480 -0.0368  0.4840 -0.0724
   29CHL1  H11A 3287   3.040   4.098   5.475 -1.9757  0.4538  1.5719
   29CHL1  H11B 3288   3.147   4.230   5.520  1.0543  0.2132 -2.5331
   29CHL1    C9 3289   2.919   4.254   5.557 -0.5265 -0.4847  0.1039
   29CHL1    H9 3290   2.932   4.364   5.568  1.4942 -0.6718 -0.0595
   29CHL1   C10 3291   2.917   4.206   5.701 -0.2192  0.4267  0.2851
   29CHL1   C19 3292   2.946   4.046   5.714  0.5034  0.0539  0.4662
   29CHL1  H19A 3293   3.050   4.021   5.685  0.7826  0.1338  1.3782
   29CHL1  H19B 3294   2.945   4.009   5.818  3.9161 -0.2913  0.4911
   29CHL1  H19C 3295   2.876   3.989   5.649  1.1533 -2.4187  1.7996
   29CHL1    C1 3296   3.032   4.271   5.788  0.4780 -1.0359 -0.5320
   29CHL1   H1A 3297   3.128   4.238   5.744  2.1256  1.1610  1.1750
   29CHL1   H1B 3298   3.021   4.380   5.769 -0.8872 -1.3156 -1.5299
   29CHL1    C2 3299   3.026   4.250   5.941 -0.2277  0.3208  0.6245
   29CHL1   H2A 3300   3.110   4.296   5.998 -1.5953  3.7769  0.1136
   29CHL1   H2B 3301   3.044   4.143   5.965  0.2259  0.1977 -0.1983
   29CHL1   C20 3302   2.979   4.232   5.001  0.4582 -0.2316  0.8880
   29CHL1   H20 3303   2.997   4.122   5.002 -0.3440 -0.3710  1.1350
   29CHL1   C21 3304   3.108   4.309   5.008  0.2386 -0.2152  0.1096
   29CHL1  H21A 3305   3.164   4.280   5.099  0.7392 -2.1629 -0.7648
   29CHL1  H21B 3306   3.084   4.416   5.025 -1.5619 -0.5468 -0.0921
   29CHL1  H21C 3307   3.175   4.283   4.923  1.5092 -2.4730  1.7137
   29CHL1   C22 3308   2.910   4.253   4.861  0.1947  0.1310 -0.8046
   29CHL1  H22A 3309   2.812   4.200   4.862  0.3186 -0.1583  1.4590
   29CHL1  H22B 3310   2.895   4.362   4.849 -0.5643  0.2871  1.1869
   29CHL1   C23 3311   2.990   4.203   4.741 -0.4752  0.1606 -0.3567
   29CHL1  H23A 3312   3.074   4.274   4.723  0.0802  0.3802  2.6072
   29CHL1  H23B 3313   3.037   4.105   4.761  3.3009  1.4289 -1.9331
   29CHL1   C24 3314   2.912   4.174   4.609 -0.7183  0.0621  0.0642
   29CHL1  H24A 3315   2.979   4.139   4.528 -2.1809 -2.4352 -0.1834
   29CHL1  H24B 3316   2.852   4.082   4.623  0.2230 -0.8382 -1.5355
   29CHL1   C25 3317   2.819   4.291   4.560  0.1218  0.5679 -0.3136
   29CHL1   H25 3318   2.745   4.321   4.637 -0.2769  0.2269 -0.5591
   29CHL1   C26 3319   2.898   4.415   4.516 -0.0943 -0.5828  0.9059
   29CHL1  H26A 3320   2.944   4.464   4.605  1.7170 -0.3639 -0.1126
   29CHL1  H26B 3321   2.969   4.387   4.436  0.7395 -2.3557  2.2046
   29CHL1  H26C 3322   2.837   4.498   4.474  1.1661 -0.6608 -1.1926
   29CHL1   C27 3323   2.740   4.239   4.447  0.6242 -0.2883  0.5384
   29CHL1  H27A 3324   2.669   4.313   4.404  0.5244 -0.3907  0.5237
   29CHL1  H27B 3325   2.810   4.218   4.363  0.1459  0.0978  0.0345
   29CHL1  H27C 3326   2.680   4.150   4.478  0.4791 -0.0366  0.9828
   30CHL1    C3 3327   4.882   4.598   6.072  0.0899 -0.8959 -0.3335
   30CHL1    H3 3328   4.891   4.700   6.028  1.0461 -0.7058  0.2779
   30CHL1    O3 3329   4.938   4.590   6.199  0.2345  0.3183  0.4875
   30CHL1   H3' 3330   4.894   4.514   6.238 -0.1412 -1.3682 -2.8506
   30CHL1    C4 3331   4.740   4.549   6.083  0.2272 -0.1237 -0.1285
   30CHL1   H4A 3332   4.722   4.464   6.152 -0.0241  0.2482  0.2638
   30CHL1   H4B 3333   4.678   4.629   6.128  0.6763  0.6314 -0.8306
   30CHL1    C5 3334   4.667   4.529   5.948  0.2375 -0.2597  0.1638
   30CHL1    C6 3335   4.547   4.587   5.924  0.2784 -0.2150  0.3214
   30CHL1    H6 3336   4.503   4.661   5.992  0.5181 -0.4486  0.7405
   30CHL1    C7 3337   4.475   4.553   5.796 -0.0706 -0.1545  0.0298
   30CHL1   H7A 3338   4.369   4.533   5.822  0.2577 -1.7132  0.2470
   30CHL1   H7B 3339   4.474   4.638   5.723 -2.9575 -1.6071 -1.8190
   30CHL1    C8 3340   4.524   4.424   5.725  0.2177 -0.7524 -0.3399
   30CHL1    H8 3341   4.490   4.333   5.779  0.0765  0.2075  1.2650
   30CHL1   C14 3342   4.460   4.430   5.591  0.0710 -0.9748  0.0570
   30CHL1   H14 3343   4.508   4.512   5.534 -1.1496  0.1907  0.6461
   30CHL1   C15 3344   4.312   4.461   5.578  0.0751  0.8279  0.4923
   30CHL1  H15A 3345   4.253   4.412   5.658  0.8235 -0.7002  0.1468
   30CHL1  H15B 3346   4.286   4.569   5.573  0.9074  0.9774 -1.2304
   30CHL1   C16 3347   4.267   4.393   5.449  0.2730  0.1753 -0.6659
   30CHL1  H16A 3348   4.184   4.323   5.472 -0.0452  0.2409 -1.5854
   30CHL1  H16B 3349   4.236   4.460   5.366 -2.8090 -0.2244  0.0424
   30CHL1   C17 3350   4.392   4.318   5.391  0.6314  0.8692  0.2270
   30CHL1   H17 3351   4.438   4.398   5.329  0.3831 -0.6339 -2.0504
   30CHL1   C13 3352   4.480   4.302   5.512 -0.5018 -0.6745  0.4231
   30CHL1   C18 3353   4.434   4.171   5.574  0.9012  0.7767 -0.8592
   30CHL1  H18A 3354   4.483   4.156   5.673 -0.8566 -1.7070 -0.2789
   30CHL1  H18B 3355   4.325   4.155   5.581  1.0936 -0.0632  3.2928
   30CHL1  H18C 3356   4.465   4.082   5.515 -3.8628 -0.9733 -1.1034
   30CHL1   C12 3357   4.635   4.316   5.480 -0.2967  0.3430 -0.5461
   30CHL1  H12A 3358   4.655   4.230   5.413  0.9189  0.1286  0.0742
   30CHL1  H12B 3359   4.661   4.403   5.416 -2.2150  0.9316 -0.5889
   30CHL1   C11 3360   4.718   4.307   5.613 -0.0758 -0.2395 -1.1363
   30CHL1  H11A 3361   4.680   4.214   5.659 -1.2156  1.5323  1.7991
   30CHL1  H11B 3362   4.828   4.312   5.598  0.2772 -0.9911  0.9845
   30CHL1    C9 3363   4.677   4.423   5.709 -0.5498 -0.1913  0.9563
   30CHL1    H9 3364   4.706   4.519   5.660 -0.8091 -1.7602 -2.5578
   30CHL1   C10 3365   4.746   4.430   5.850  0.0983  0.2727 -0.1431
   30CHL1   C19 3366   4.751   4.285   5.901  0.0284 -0.8505  0.2029
   30CHL1  H19A 3367   4.811   4.236   5.822 -0.2554 -1.3133  0.2722
   30CHL1  H19B 3368   4.800   4.275   6.000  1.7511  1.8990 -0.2539
   30CHL1  H19C 3369   4.645   4.252   5.906 -0.4699  0.5703 -0.5004
   30CHL1    C1 3370   4.892   4.487   5.841  0.0142  0.4772  0.5136
   30CHL1   H1A 3371   4.961   4.419   5.786 -0.5759  1.6082 -1.7595
   30CHL1   H1B 3372   4.883   4.578   5.778 -1.9586  1.1410  1.6557
   30CHL1    C2 3373   4.957   4.504   5.974 -0.0404  0.8517  0.2130
   30CHL1   H2A 3374   5.060   4.543   5.953 -0.3336  1.3296 -0.3722
   30CHL1   H2B 3375   4.975   4.404   6.018  1.9961  0.7266 -0.7638
   30CHL1   C20 3376   4.360   4.202   5.294 -0.1062 -0.3386  0.4984
   30CHL1   H20 3377   4.308   4.127   5.357 -1.5250 -0.3388 -0.6110
   30CHL1   C21 3378   4.491   4.149   5.225 -0.4278 -0.6093 -0.2610
   30CHL1  H21A 3379   4.463   4.079   5.143  0.3075 -0.4132 -0.6936
   30CHL1  H21B 3380   4.560   4.092   5.289 -1.1314 -2.6278 -1.2128
   30CHL1  H21C 3381   4.551   4.227   5.173  0.3540 -0.9080  0.1970
   30CHL1   C22 3382   4.258   4.239   5.185  0.9439 -0.1349 -0.0928
   30CHL1  H22A 3383   4.220   4.152   5.127  0.6243 -0.0714  0.0203
   30CHL1  H22B 3384   4.167   4.265   5.244  0.7340 -1.5505  0.2610
   30CHL1   C23 3385   4.299   4.350   5.080  0.6610 -0.7013  0.3952
   30CHL1  H23A 3386   4.340   4.439   5.132 -2.0787  0.9991 -0.1541
   30CHL1  H23B 3387   4.379   4.298   5.023 -0.1254 -2.9169  1.1621
   30CHL1   C24 3388   4.185   4.404   4.995  0.2114 -0.2653  0.3738
   30CHL1  H24A 3389   4.122   4.327   4.945 -1.0422  0.8740  0.1179
   30CHL1  H24B 3390   4.109   4.455   5.058  1.8122  2.3415  0.3429
   30CHL1   C25 3391   4.233   4.507   4.890 -0.1095  0.1931  0.4639
   30CHL1   H25 3392   4.339   4.532   4.910  1.2073 -1.6136 -3.2577
   30CHL1   C26 3393   4.244   4.446   4.745  0.2543 -0.5292  0.2344
   30CHL1  H26A 3394   4.327   4.372   4.748  1.5116  0.8401  0.7893
   30CHL1  H26B 3395   4.147   4.407   4.708  0.0005 -0.0044  0.3449
   30CHL1  H26C 3396   4.278   4.526   4.676  0.7506  0.2943  1.3968
   30CHL1   C27 3397   4.139   4.630   4.878  0.0568 -0.3535  0.0718
   30CHL1  H27A 3398   4.041   4.610   4.829 -1.3957  3.1016  1.2054
   30CHL1  H27B 3399   4.127   4.680   4.977  0.1234 -1.4880  0.6673
   30CHL1  H27C 3400   4.178   4.703   4.804 -2.1503  0.5027 -0.3440
   31CHL1    C3 3401   1.788   4.818   6.008 -0.5228  0.6147  0.5376
   31CHL1    H3 3402   1.684   4.800   5.972  0.1196 -2.1060 -0.2308
   31CHL1    O3 3403   1.801   4.765   6.140  0.2741 -0.4603 -0.2549
   31CHL1   H3' 3404   1.867   4.823   6.179  0.9166  0.8614 -3.0802
   31CHL1    C4 3405   1.886   4.730   5.920 -0.2157  0.4558  0.3314
   31CHL1   H4A 3406   1.984   4.716   5.971 -1.4034 -2.3989  2.0707
   31CHL1   H4B 3407   1.856   4.623   5.927  2.2287 -0.2734  0.6513
   31CHL1    C5 3408   1.891   4.772   5.773 -0.4951  0.0484 -0.5906
   31CHL1    C6 3409   1.869   4.680   5.678  0.3856 -0.3885 -0.5329
   31CHL1    H6 3410   1.858   4.576   5.713  0.4450  0.0460  0.8604
   31CHL1    C7 3411   1.850   4.713   5.530  0.0711 -0.1659  0.0575
   31CHL1   H7A 3412   1.908   4.638   5.471  2.3016  1.8667 -0.5421
   31CHL1   H7B 3413   1.743   4.711   5.501 -0.0661  0.9752  0.4262
   31CHL1    C8 3414   1.901   4.859   5.499 -0.0069  0.1241  0.3651
   31CHL1    H8 3415   2.011   4.870   5.504  0.0824 -0.6485  0.2281
   31CHL1   C14 3416   1.853   4.894   5.359  0.4518 -0.2212 -0.2770
   31CHL1   H14 3417   1.744   4.869   5.363  0.7851 -2.0764 -1.6547
   31CHL1   C15 3418   1.902   4.809   5.250 -0.0679 -0.3755  1.2707
   31CHL1  H15A 3419   2.008   4.784   5.271  0.4323  1.3516  0.9299
   31CHL1  H15B 3420   1.848   4.712   5.251 -0.2316 -0.3147 -0.2046
   31CHL1   C16 3421   1.888   4.896   5.116  1.1701 -0.4513 -0.4360
   31CHL1  H16A 3422   1.993   4.906   5.080  1.2780 -1.2522 -0.3679
   31CHL1  H16B 3423   1.812   4.844   5.054  1.2366 -1.2691  0.1479
   31CHL1   C17 3424   1.826   5.034   5.167  0.3162  0.2991 -0.2386
   31CHL1   H17 3425   1.717   5.024   5.187  0.6313  0.9401  2.1859
   31CHL1   C13 3426   1.874   5.044   5.314  0.1123 -0.4854 -0.4230
   31CHL1   C18 3427   2.022   5.070   5.295  0.0386 -0.0470  0.2926
   31CHL1  H18A 3428   2.052   5.166   5.248  2.1651 -0.1493  1.3163
   31CHL1  H18B 3429   2.065   5.080   5.397 -0.1510  2.4167  0.1911
   31CHL1  H18C 3430   2.077   4.992   5.237 -1.6746  0.3336 -2.0012
   31CHL1   C12 3431   1.803   5.127   5.416 -0.5485 -0.2640  0.6953
   31CHL1  H12A 3432   1.825   5.231   5.384 -2.6573 -0.1919 -0.7135
   31CHL1  H12B 3433   1.696   5.119   5.387 -0.4949  0.5192  0.2698
   31CHL1   C11 3434   1.830   5.098   5.559 -0.8629 -0.3920 -0.2337
   31CHL1  H11A 3435   1.927   5.150   5.578 -0.0448 -1.1019 -2.1755
   31CHL1  H11B 3436   1.756   5.161   5.611 -1.4138 -0.9440 -0.3401
   31CHL1    C9 3437   1.841   4.950   5.600  1.2933 -0.0233 -0.6804
   31CHL1    H9 3438   1.735   4.918   5.604 -0.0027  3.8339  1.6298
   31CHL1   C10 3439   1.889   4.923   5.745  0.6290 -0.0331 -0.4006
   31CHL1   C19 3440   2.037   4.961   5.756 -0.4091  0.2440  0.5296
   31CHL1  H19A 3441   2.059   5.065   5.725 -0.0816 -0.4771 -1.8447
   31CHL1  H19B 3442   2.060   4.950   5.864 -3.3472  1.4946  1.3966
   31CHL1  H19C 3443   2.094   4.886   5.697 -0.7232  0.7362 -0.4307
   31CHL1    C1 3444   1.804   5.010   5.851  0.3556 -0.2105  0.1092
   31CHL1   H1A 3445   1.827   5.118   5.841  0.4739 -0.4049 -2.5690
   31CHL1   H1B 3446   1.699   4.984   5.825  0.1267  0.3531  0.4529
   31CHL1    C2 3447   1.828   4.966   5.994  0.1971  0.4492 -0.1603
   31CHL1   H2A 3448   1.752   5.017   6.056  1.1971 -0.3886  1.8367
   31CHL1   H2B 3449   1.932   4.993   6.024 -0.0453  1.1391  0.0631
   31CHL1   C20 3450   1.832   5.150   5.066 -0.8798  0.1534  0.0024
   31CHL1   H20 3451   1.922   5.213   5.086 -2.8335  3.1294  0.1038
   31CHL1   C21 3452   1.716   5.242   5.080  0.4451  0.0897  0.3408
   31CHL1  H21A 3453   1.689   5.259   5.186 -0.8346  1.0167 -0.1055
   31CHL1  H21B 3454   1.627   5.195   5.033  0.4976 -1.5864  1.8382
   31CHL1  H21C 3455   1.733   5.342   5.034  0.4421  0.7961  1.8301
   31CHL1   C22 3456   1.831   5.099   4.919 -0.3008  0.4175 -0.2048
   31CHL1  H22A 3457   1.918   5.032   4.901  0.2038  1.1557 -0.6209
   31CHL1  H22B 3458   1.747   5.029   4.900  2.1018 -2.7533  0.0041
   31CHL1   C23 3459   1.850   5.205   4.810 -0.5715  0.0028 -0.1993
   31CHL1  H23A 3460   1.800   5.304   4.826  0.5614  0.5475  0.0663
   31CHL1  H23B 3461   1.959   5.227   4.813 -0.9718  2.2012  2.0832
   31CHL1   C24 3462   1.829   5.154   4.667  0.4341 -0.5017 -0.7629
   31CHL1  H24A 3463   1.925   5.112   4.630 -0.4301 -4.5933  1.0802
   31CHL1  H24B 3464   1.762   5.065   4.669 -0.3373  0.0737  0.6634
   31CHL1   C25 3465   1.782   5.258   4.558  0.4031 -0.3399  0.0927
   31CHL1   H25 3466   1.847   5.347   4.550 -0.1493  0.1344  0.7221
   31CHL1   C26 3467   1.783   5.196   4.420  0.2850  0.0873 -0.3464
   31CHL1  H26A 3468   1.712   5.111   4.424  1.7821 -1.1953  0.4505
   31CHL1  H26B 3469   1.738   5.262   4.344 -1.9191  1.0832  1.6846
   31CHL1  H26C 3470   1.888   5.169   4.396  0.2579  0.0654 -0.4402
   31CHL1   C27 3471   1.630   5.299   4.579  0.1096 -0.0032 -0.3224
   31CHL1  H27A 3472   1.567   5.215   4.615 -0.0054 -0.5138 -1.6429
   31CHL1  H27B 3473   1.625   5.369   4.666 -3.0163 -1.5211  0.8478
   31CHL1  H27C 3474   1.580   5.340   4.489  0.9461  0.8159 -0.4321
   32CHL1    C3 3475   4.021   2.785   6.190 -0.1950 -0.0265  0.8429
   32CHL1    H3 3476   4.067   2.881   6.160  0.1778 -0.7365 -0.9822
   32CHL1    O3 3477   4.057   2.777   6.330  0.3070 -0.0382  0.6613
   32CHL1   H3' 3478   4.050   2.683   6.349 -1.4138  0.2353  1.4996
   32CHL1    C4 3479   3.867   2.777   6.168  0.2312 -0.1942 -0.2025
   32CHL1   H4A 3480   3.842   2.684   6.223 -1.2930  0.4866  0.3250
   32CHL1   H4B 3481   3.818   2.860   6.224  0.4955 -0.8038  0.9754
   32CHL1    C5 3482   3.828   2.779   6.023  0.6343 -0.5095  0.1117
   32CHL1    C6 3483   3.751   2.876   5.966 -0.7905 -0.5703 -0.8604
   32CHL1    H6 3484   3.716   2.959   6.028  0.5049 -0.6047 -0.0470
   32CHL1    C7 3485   3.702   2.875   5.825  0.0602  0.0728  0.1981
   32CHL1   H7A 3486   3.592   2.888   5.815  0.1359 -0.3294 -1.4909
   32CHL1   H7B 3487   3.747   2.951   5.759 -2.4362  0.8703 -0.6959
   32CHL1    C8 3488   3.734   2.743   5.748 -0.6431  0.3721 -0.1250
   32CHL1    H8 3489   3.665   2.664   5.785  1.8628 -1.2706  1.3539
   32CHL1   C14 3490   3.722   2.765   5.603 -0.7700 -0.3576 -1.2963
   32CHL1   H14 3491   3.807   2.830   5.573  0.4373 -0.9437  0.6672
   32CHL1   C15 3492   3.602   2.836   5.549  0.4394 -0.2402  0.3886
   32CHL1  H15A 3493   3.516   2.803   5.612 -0.7825 -0.9902 -1.5940
   32CHL1  H15B 3494   3.619   2.946   5.553  1.5620 -0.2768 -1.9474
   32CHL1   C16 3495   3.585   2.781   5.404  0.5174 -0.4720  0.6655
   32CHL1  H16A 3496   3.487   2.728   5.408 -0.4276  0.9899 -1.4806
   32CHL1  H16B 3497   3.579   2.862   5.328  0.5366 -1.4264 -0.3623
   32CHL1   C17 3498   3.697   2.683   5.383 -0.3303 -0.1015 -0.2090
   32CHL1   H17 3499   3.774   2.758   5.352 -0.5177  0.4356  0.5914
   32CHL1   C13 3500   3.738   2.632   5.524 -0.0623  0.0332 -0.1394
   32CHL1   C18 3501   3.629   2.532   5.572 -0.3043  1.1655  0.2263
   32CHL1  H18A 3502   3.529   2.573   5.549 -0.2723  0.4982 -1.2604
   32CHL1  H18B 3503   3.647   2.441   5.510 -0.4748  1.2868 -0.0023
   32CHL1  H18C 3504   3.636   2.497   5.677 -0.3686  0.4482 -0.0026
   32CHL1   C12 3505   3.879   2.581   5.543 -0.4823  0.9212 -0.2771
   32CHL1  H12A 3506   3.896   2.484   5.493 -0.4536  0.2941  0.9029
   32CHL1  H12B 3507   3.944   2.660   5.500 -0.9182  1.7915  0.6150
   32CHL1   C11 3508   3.917   2.564   5.692  0.9834  0.3341  0.2948
   32CHL1  H11A 3509   3.867   2.472   5.730  0.4141 -1.4204 -4.0636
   32CHL1  H11B 3510   4.024   2.537   5.703  0.6927 -0.9940 -0.0156
   32CHL1    C9 3511   3.874   2.690   5.783  0.2042  0.0847  0.0878
   32CHL1    H9 3512   3.946   2.767   5.751 -0.7425  0.2759 -1.7189
   32CHL1   C10 3513   3.896   2.664   5.942  0.3431  0.2513 -0.0156
   32CHL1   C19 3514   3.836   2.534   5.993 -0.3811 -0.4310 -0.7101
   32CHL1  H19A 3515   3.727   2.524   5.974 -0.4493 -1.1355 -0.0146
   32CHL1  H19B 3516   3.875   2.443   5.941 -1.7362 -0.0791 -2.4513
   32CHL1  H19C 3517   3.857   2.522   6.101  1.6849 -1.9074 -1.2073
   32CHL1    C1 3518   4.053   2.667   5.969  0.5435 -1.0015  0.2277
   32CHL1   H1A 3519   4.107   2.588   5.913 -0.1146 -1.7147  0.5623
   32CHL1   H1B 3520   4.091   2.757   5.917  0.9165 -0.8539  0.7462
   32CHL1    C2 3521   4.092   2.675   6.116  0.2148  0.2079 -0.0167
   32CHL1   H2A 3522   4.202   2.687   6.121  0.1394  1.0855 -0.3490
   32CHL1   H2B 3523   4.074   2.578   6.168 -0.4328  0.6489  0.6064
   32CHL1   C20 3524   3.674   2.588   5.272 -0.1231 -0.0666 -0.2202
   32CHL1   H20 3525   3.584   2.528   5.294 -0.5764  0.9636  0.8622
   32CHL1   C21 3526   3.788   2.488   5.252 -0.6736 -0.1904 -0.1496
   32CHL1  H21A 3527   3.766   2.441   5.154 -1.3780  1.9120 -1.0459
   32CHL1  H21B 3528   3.792   2.405   5.326 -1.2205 -0.4827 -0.4414
   32CHL1  H21C 3529   3.888   2.536   5.247 -1.2020  0.8824 -0.4889
   32CHL1   C22 3530   3.644   2.654   5.138  0.3547  0.1108 -0.2544
   32CHL1  H22A 3531   3.621   2.568   5.071 -3.1425  1.4151 -0.9444
   32CHL1  H22B 3532   3.552   2.713   5.157  0.6645  0.6902 -0.5325
   32CHL1   C23 3533   3.750   2.743   5.082  0.2932  0.1029  0.1433
   32CHL1  H23A 3534   3.765   2.829   5.150  2.3899  1.9581 -2.4364
   32CHL1  H23B 3535   3.844   2.685   5.068 -0.3654 -0.5099 -2.0727
   32CHL1   C24 3536   3.704   2.778   4.942 -0.2294  0.5311  0.5882
   32CHL1  H24A 3537   3.676   2.689   4.883 -1.4523  2.4493 -1.8837
   32CHL1  H24B 3538   3.608   2.833   4.958  0.1831  1.7006 -0.7815
   32CHL1   C25 3539   3.801   2.866   4.856 -0.2347 -0.0942  0.5555
   32CHL1   H25 3540   3.896   2.811   4.840 -1.4060 -2.6023  1.5879
   32CHL1   C26 3541   3.729   2.891   4.719  0.2526  0.8282 -0.3952
   32CHL1  H26A 3542   3.806   2.923   4.646  0.6231  0.0347 -0.3648
   32CHL1  H26B 3543   3.688   2.794   4.684 -1.2546  0.9668  0.8691
   32CHL1  H26C 3544   3.645   2.964   4.723 -0.4303  0.0468 -0.1552
   32CHL1   C27 3545   3.855   2.992   4.926  0.2777  0.5609  0.3102
   32CHL1  H27A 3546   3.763   3.052   4.943 -0.1887  0.4023 -1.4721
   32CHL1  H27B 3547   3.907   2.979   5.023  2.6373  2.9330 -0.5369
   32CHL1  H27C 3548   3.915   3.057   4.859 -1.7246  3.4979  1.1657
   33CHL1    C3 3549   1.740   3.814   5.918  0.2056  0.1727 -0.7782
   33CHL1    H3 3550   1.629   3.810   5.907 -0.2678 -0.2186  3.0540
   33CHL1    O3 3551   1.769   3.810   6.060 -0.1775 -0.0046 -0.6700
   33CHL1   H3' 3552   1.845   3.868   6.053  0.5742 -0.8817 -0.0634
   33CHL1    C4 3553   1.797   3.693   5.851  0.1760  0.5970  0.3037
   33CHL1   H4A 3554   1.907   3.678   5.853  0.0783 -0.0634  0.9065
   33CHL1   H4B 3555   1.739   3.609   5.895 -0.6770 -0.5196 -2.7096
   33CHL1    C5 3556   1.767   3.695   5.704 -0.2689 -0.2831 -0.1047
   33CHL1    C6 3557   1.695   3.600   5.631  0.4640 -0.0623 -0.4283
   33CHL1    H6 3558   1.658   3.512   5.685 -1.2410  1.5215  1.1301
   33CHL1    C7 3559   1.685   3.599   5.481 -0.1069  1.1026 -0.0677
   33CHL1   H7A 3560   1.713   3.500   5.439  0.6279  1.2172  0.1413
   33CHL1   H7B 3561   1.579   3.624   5.457 -1.5001 -1.8190  2.3062
   33CHL1    C8 3562   1.777   3.693   5.413 -0.2322 -0.2603  0.6077
   33CHL1    H8 3563   1.883   3.664   5.427 -0.2052  0.2286  1.5144
   33CHL1   C14 3564   1.765   3.698   5.262 -0.6039 -0.1277 -0.1895
   33CHL1   H14 3565   1.664   3.742   5.250 -0.6934 -0.4477 -0.6370
   33CHL1   C15 3566   1.772   3.569   5.185 -0.0193  0.5371 -0.2161
   33CHL1  H15A 3567   1.861   3.515   5.223  1.4595  1.6663 -1.9041
   33CHL1  H15B 3568   1.680   3.507   5.196 -1.0676  2.1546  0.6212
   33CHL1   C16 3569   1.787   3.610   5.039 -0.0570  0.5721 -0.0889
   33CHL1  H16A 3570   1.875   3.557   4.997 -2.1784 -0.5476 -3.5841
   33CHL1  H16B 3571   1.694   3.576   4.988  0.5235  0.1835 -0.9097
   33CHL1   C17 3572   1.790   3.766   5.038 -0.1774  0.1880  0.4034
   33CHL1   H17 3573   1.681   3.786   5.037 -0.1411  0.4984 -1.1006
   33CHL1   C13 3574   1.842   3.799   5.179 -0.5137  0.1628  0.0439
   33CHL1   C18 3575   1.998   3.768   5.189  0.6180  0.6959  0.6492
   33CHL1  H18A 3576   2.012   3.667   5.146 -0.9356 -0.4380  2.6580
   33CHL1  H18B 3577   2.052   3.849   5.135  0.2404  3.3181  3.8294
   33CHL1  H18C 3578   2.039   3.771   5.293 -0.8528 -0.3015  1.2805
   33CHL1   C12 3579   1.812   3.939   5.241  0.2509 -0.3743 -0.9278
   33CHL1  H12A 3580   1.862   4.023   5.189 -0.0400 -0.2836 -1.0626
   33CHL1  H12B 3581   1.705   3.961   5.220  0.5475  1.1372 -0.9947
   33CHL1   C11 3582   1.838   3.946   5.394  0.9498 -0.5129 -0.0301
   33CHL1  H11A 3583   1.944   3.935   5.422  0.5249 -1.0913  1.4310
   33CHL1  H11B 3584   1.813   4.046   5.435 -0.7292 -0.9408  0.0773
   33CHL1    C9 3585   1.768   3.835   5.478  0.0391 -0.2754  0.2859
   33CHL1    H9 3586   1.659   3.855   5.486 -0.4575 -1.2670 -2.7136
   33CHL1   C10 3587   1.812   3.824   5.626 -0.7617 -0.1093  0.2192
   33CHL1   C19 3588   1.978   3.822   5.639 -0.1351  0.4166  0.0465
   33CHL1  H19A 3589   2.016   3.818   5.744  0.8743 -0.8264 -0.3521
   33CHL1  H19B 3590   2.029   3.747   5.576  1.7568  3.2328 -2.0558
   33CHL1  H19C 3591   2.007   3.923   5.602 -0.0566  0.8806  1.3147
   33CHL1    C1 3592   1.766   3.948   5.710 -0.8372  0.4633 -0.5788
   33CHL1   H1A 3593   1.814   4.034   5.660 -1.2160  0.1269 -1.5396
   33CHL1   H1B 3594   1.657   3.959   5.691 -0.4385  2.5561 -1.9310
   33CHL1    C2 3595   1.796   3.937   5.864  0.1124 -0.8780  0.7002
   33CHL1   H2A 3596   1.747   4.019   5.921  2.2861  0.5839  0.5761
   33CHL1   H2B 3597   1.905   3.948   5.882  0.4914 -2.6795 -0.2391
   33CHL1   C20 3598   1.860   3.826   4.921 -0.1633  0.5565  0.6822
   33CHL1   H20 3599   1.971   3.824   4.933  0.2554 -0.0467 -2.5059
   33CHL1   C21 3600   1.811   3.974   4.907 -0.3461  0.4232 -0.0494
   33CHL1  H21A 3601   1.703   3.989   4.885 -0.0687  0.0413 -1.8234
   33CHL1  H21B 3602   1.864   4.026   4.824 -0.8093 -1.0227 -1.3063
   33CHL1  H21C 3603   1.839   4.032   4.997  3.0138  0.0123 -0.7110
   33CHL1   C22 3604   1.836   3.760   4.782  0.0453 -0.1538 -0.0626
   33CHL1  H22A 3605   1.834   3.649   4.783  0.0900 -0.1531  0.4145
   33CHL1  H22B 3606   1.732   3.784   4.749  0.3456  0.3364 -0.6724
   33CHL1   C23 3607   1.952   3.797   4.687 -0.0587  0.3189 -0.4795
   33CHL1  H23A 3608   1.924   3.896   4.643 -1.5979  0.9208  1.6702
   33CHL1  H23B 3609   2.052   3.812   4.732  0.8916  1.0137 -2.6524
   33CHL1   C24 3610   1.958   3.673   4.590 -0.6905 -0.0459  0.2868
   33CHL1  H24A 3611   1.948   3.577   4.646 -3.8049  0.0448  0.0386
   33CHL1  H24B 3612   1.870   3.690   4.525 -1.8341  1.4827  2.1556
   33CHL1   C25 3613   2.082   3.667   4.493  0.1018  0.1659 -0.6231
   33CHL1   H25 3614   2.095   3.772   4.460  0.2878  0.6251  0.8440
   33CHL1   C26 3615   2.212   3.621   4.565 -0.0606 -0.7639 -0.1337
   33CHL1  H26A 3616   2.296   3.633   4.493 -0.9322 -0.0351 -1.0670
   33CHL1  H26B 3617   2.230   3.692   4.648 -1.6588  0.7070 -0.9752
   33CHL1  H26C 3618   2.201   3.514   4.592 -0.5949 -0.6798 -0.0012
   33CHL1   C27 3619   2.068   3.574   4.374  0.3032 -0.6469 -0.3323
   33CHL1  H27A 3620   2.070   3.466   4.398 -0.5725 -0.4233  0.8733
   33CHL1  H27B 3621   1.971   3.605   4.328 -2.1303 -2.7363  2.9471
   33CHL1  H27C 3622   2.150   3.592   4.302  1.8401 -2.1040  0.9709
   34CHL1    C3 3623   3.791   5.004   6.059  0.0499 -0.5390 -0.0138
   34CHL1    H3 3624   3.832   5.106   6.077 -0.2416 -0.4258  0.0172
   34CHL1    O3 3625   3.802   4.919   6.170  0.0577  0.3616  0.1944
   34CHL1   H3' 3626   3.744   4.843   6.155  0.6604 -0.5101  1.9322
   34CHL1    C4 3627   3.640   5.014   6.019 -0.4158 -0.0621 -0.2828
   34CHL1   H4A 3628   3.591   4.916   5.997 -1.7363  1.0436 -2.6680
   34CHL1   H4B 3629   3.594   5.055   6.111 -1.4859 -2.8228  0.5319
   34CHL1    C5 3630   3.619   5.089   5.890  0.2145  0.1999  0.6127
   34CHL1    C6 3631   3.527   5.190   5.892  0.3254  0.6370 -0.2725
   34CHL1    H6 3632   3.480   5.209   5.989  1.2819 -1.6107  0.6979
   34CHL1    C7 3633   3.498   5.274   5.775  0.2604  0.2402 -0.4819
   34CHL1   H7A 3634   3.390   5.293   5.754  0.2386  0.0506 -0.5422
   34CHL1   H7B 3635   3.547   5.373   5.787 -0.4951  0.5417  0.2166
   34CHL1    C8 3636   3.549   5.209   5.652 -0.5833  0.0923 -0.6311
   34CHL1    H8 3637   3.477   5.125   5.636 -0.9958 -0.1735  2.1258
   34CHL1   C14 3638   3.540   5.313   5.535 -0.3218  0.2277 -0.6189
   34CHL1   H14 3639   3.624   5.384   5.550 -0.7137  0.3824  1.0273
   34CHL1   C15 3640   3.422   5.398   5.518 -0.2644 -0.3260 -0.1348
   34CHL1  H15A 3641   3.328   5.344   5.540 -1.3617  1.5804  0.0584
   34CHL1  H15B 3642   3.419   5.487   5.585  1.5267 -0.5511  0.2929
   34CHL1   C16 3643   3.433   5.441   5.374 -0.1589 -0.5805 -0.7361
   34CHL1  H16A 3644   3.333   5.420   5.329 -1.2192  0.2607  1.0996
   34CHL1  H16B 3645   3.454   5.549   5.362  0.5586 -0.5331  0.6662
   34CHL1   C17 3646   3.551   5.370   5.306 -0.6813  0.2506  0.6026
   34CHL1   H17 3647   3.641   5.432   5.327 -0.4810  0.0896  0.2357
   34CHL1   C13 3648   3.578   5.250   5.399  0.1926 -0.2132 -0.2065
   34CHL1   C18 3649   3.480   5.134   5.364 -0.1208 -0.0502  0.8244
   34CHL1  H18A 3650   3.515   5.098   5.265 -0.5995  1.1437  0.2040
   34CHL1  H18B 3651   3.497   5.048   5.433  0.4599 -0.5408  0.0834
   34CHL1  H18C 3652   3.373   5.162   5.355 -0.0969  0.0888  0.9687
   34CHL1   C12 3653   3.725   5.209   5.411  0.3860 -0.5121 -0.5666
   34CHL1  H12A 3654   3.777   5.174   5.320 -0.0323  1.6816 -1.6920
   34CHL1  H12B 3655   3.779   5.299   5.445  0.6018 -1.3415  1.4801
   34CHL1   C11 3656   3.752   5.108   5.528  0.4304  0.5063 -0.5011
   34CHL1  H11A 3657   3.720   5.008   5.493  2.1285 -0.5701  0.8379
   34CHL1  H11B 3658   3.858   5.085   5.553  0.6572  0.7839 -1.1935
   34CHL1    C9 3659   3.692   5.149   5.662  0.0757 -0.5009  0.0774
   34CHL1    H9 3660   3.752   5.237   5.693  1.0480 -1.0276 -0.2733
   34CHL1   C10 3661   3.701   5.046   5.779 -0.4887  0.2062  0.1782
   34CHL1   C19 3662   3.636   4.912   5.729 -0.2890 -0.1483 -0.8201
   34CHL1  H19A 3663   3.671   4.874   5.632  0.0050  0.1086 -0.8163
   34CHL1  H19B 3664   3.644   4.833   5.807 -0.1592 -1.1366 -1.8137
   34CHL1  H19C 3665   3.526   4.923   5.717 -0.5345 -2.0212 -0.5870
   34CHL1    C1 3666   3.855   5.012   5.816 -0.0167 -0.3878  0.4861
   34CHL1   H1A 3667   3.894   4.944   5.738 -4.1304 -1.9804 -0.4806
   34CHL1   H1B 3668   3.910   5.108   5.825 -1.1539  0.5044 -1.4232
   34CHL1    C2 3669   3.865   4.935   5.949  0.8079  0.0557 -0.2053
   34CHL1   H2A 3670   3.971   4.915   5.976  0.3717 -1.5083  0.5038
   34CHL1   H2B 3671   3.823   4.834   5.929  4.7240 -1.9866  0.6628
   34CHL1   C20 3672   3.522   5.340   5.160 -0.1884  0.1011 -0.4814
   34CHL1   H20 3673   3.448   5.257   5.150 -0.6973  0.4304  0.4893
   34CHL1   C21 3674   3.655   5.280   5.103 -0.3784  1.0088 -0.0608
   34CHL1  H21A 3675   3.741   5.340   5.138  1.0872 -0.1637 -1.5182
   34CHL1  H21B 3676   3.659   5.259   4.994  0.0147 -2.2285  0.4765
   34CHL1  H21C 3677   3.660   5.176   5.141 -1.5814  1.0673  0.3126
   34CHL1   C22 3678   3.480   5.464   5.082 -0.3047 -0.7163 -0.0534
   34CHL1  H22A 3679   3.381   5.494   5.123 -1.1783 -0.4349 -2.2117
   34CHL1  H22B 3680   3.551   5.548   5.091  0.1238 -1.0365 -0.3812
   34CHL1   C23 3681   3.460   5.437   4.927 -0.5501 -0.2011 -0.6206
   34CHL1  H23A 3682   3.436   5.527   4.866 -0.3931 -0.7261 -1.4686
   34CHL1  H23B 3683   3.549   5.391   4.879 -0.8065  0.1560 -1.4453
   34CHL1   C24 3684   3.343   5.338   4.914  0.1278 -0.5951  0.8328
   34CHL1  H24A 3685   3.381   5.242   4.956  1.5670 -0.5217 -0.2192
   34CHL1  H24B 3686   3.268   5.372   4.989  1.4349 -1.8123  2.8137
   34CHL1   C25 3687   3.296   5.303   4.770  0.0663 -0.0239 -0.9372
   34CHL1   H25 3688   3.241   5.392   4.733 -1.7139 -0.3353  0.8200
   34CHL1   C26 3689   3.415   5.263   4.683  1.0473  0.0844 -0.0057
   34CHL1  H26A 3690   3.473   5.346   4.637 -1.1819  0.7310 -1.8726
   34CHL1  H26B 3691   3.478   5.198   4.747  0.1550  0.0989  0.9193
   34CHL1  H26C 3692   3.377   5.201   4.599  0.4031  1.8955 -1.1070
   34CHL1   C27 3693   3.191   5.187   4.779  0.3677 -0.9049  0.3114
   34CHL1  H27A 3694   3.148   5.192   4.677  1.9174  3.5860 -0.3688
   34CHL1  H27B 3695   3.232   5.084   4.791  0.2761 -0.8613  1.0622
   34CHL1  H27C 3696   3.110   5.203   4.854 -0.5252  2.8052 -1.2250
   35CHL1    C3 3697   4.346   0.318   6.451  0.5072 -1.1025  0.1181
   35CHL1    H3 3698   4.282   0.381   6.386  0.1669 -1.3246  0.2324
   35CHL1    O3 3699   4.351   0.380   6.580  0.6076 -0.1933 -0.2618
   35CHL1   H3' 3700   4.432   0.353   6.624  1.3597 -1.0190 -2.0447
   35CHL1    C4 3701   4.304   0.178   6.457  0.0679  0.1768 -0.3151
   35CHL1   H4A 3702   4.376   0.127   6.524  0.3004  2.6771  1.4908
   35CHL1   H4B 3703   4.203   0.177   6.504  0.9079  1.2849  1.6448
   35CHL1    C5 3704   4.301   0.107   6.325 -0.3268 -0.5195  0.4342
   35CHL1    C6 3705   4.196   0.045   6.276  0.3505  0.2268  0.7991
   35CHL1    H6 3706   4.096   0.043   6.323 -0.1833  2.7135 -0.0857
   35CHL1    C7 3707   4.190  -0.006   6.138 -0.4865  0.6978 -0.1505
   35CHL1   H7A 3708   4.135  -0.102   6.145  0.8953 -0.2806 -1.9417
   35CHL1   H7B 3709   4.143   0.060   6.062  1.4016 -1.1618 -3.1354
   35CHL1    C8 3710   4.329  -0.062   6.087 -0.4123 -0.5202 -0.2628
   35CHL1    H8 3711   4.369  -0.141   6.153 -1.8191 -2.4008 -1.5694
   35CHL1   C14 3712   4.327  -0.119   5.945  0.7743  0.0437  0.2578
   35CHL1   H14 3713   4.294  -0.029   5.889  1.1157 -0.8483 -1.4603
   35CHL1   C15 3714   4.230  -0.228   5.904 -0.2471 -0.1189 -0.4978
   35CHL1  H15A 3715   4.239  -0.309   5.979  1.1053  0.2874 -0.1850
   35CHL1  H15B 3716   4.128  -0.186   5.916 -0.4568 -1.0411  1.0400
   35CHL1   C16 3717   4.288  -0.270   5.759  0.2360  0.2059 -0.3009
   35CHL1  H16A 3718   4.295  -0.381   5.759 -0.5552  0.1083  1.8310
   35CHL1  H16B 3719   4.215  -0.245   5.679 -1.6217 -1.4140  0.7922
   35CHL1   C17 3720   4.425  -0.203   5.743 -0.4630  0.1779  0.2795
   35CHL1   H17 3721   4.395  -0.112   5.687 -1.9631  1.3857  2.8690
   35CHL1   C13 3722   4.465  -0.158   5.878  0.5319 -0.1958  0.5243
   35CHL1   C18 3723   4.518  -0.282   5.959  0.4102 -0.2794 -0.1193
   35CHL1  H18A 3724   4.449  -0.367   5.937 -1.3110  1.5579 -2.3300
   35CHL1  H18B 3725   4.613  -0.312   5.910  0.5810  2.0330 -1.3199
   35CHL1  H18C 3726   4.537  -0.264   6.067 -2.0614  2.7250 -0.0497
   35CHL1   C12 3727   4.563  -0.036   5.891 -0.2496  0.1937  0.8168
   35CHL1  H12A 3728   4.660  -0.080   5.863 -1.1573 -0.6489 -1.2273
   35CHL1  H12B 3729   4.535   0.043   5.818  1.8091  1.3163  1.1883
   35CHL1   C11 3730   4.563   0.008   6.041 -0.4370  0.0410  0.4747
   35CHL1  H11A 3731   4.610  -0.076   6.097  2.0529  1.2920  0.3994
   35CHL1  H11B 3732   4.629   0.095   6.063  1.2460 -1.4792  1.7000
   35CHL1    C9 3733   4.424   0.056   6.099 -0.0779  0.6522  0.7450
   35CHL1    H9 3734   4.381   0.140   6.040 -0.5088 -0.6642 -0.9009
   35CHL1   C10 3735   4.438   0.110   6.245 -0.0497 -1.3546 -0.4520
   35CHL1   C19 3736   4.541   0.026   6.323 -0.0816 -0.1666  0.1222
   35CHL1  H19A 3737   4.522  -0.082   6.306 -0.5320 -0.0145 -0.3812
   35CHL1  H19B 3738   4.646   0.053   6.297 -0.1725  0.3359  0.2723
   35CHL1  H19C 3739   4.529   0.028   6.433  1.8104 -2.6305  0.4674
   35CHL1    C1 3740   4.492   0.257   6.244 -0.0089  0.0149 -0.2823
   35CHL1   H1A 3741   4.593   0.252   6.198  1.4933 -0.1603  2.7622
   35CHL1   H1B 3742   4.429   0.320   6.178 -0.4257 -0.3785 -0.2706
   35CHL1    C2 3743   4.489   0.327   6.384 -0.7159 -0.2386  0.2528
   35CHL1   H2A 3744   4.501   0.438   6.376 -2.2486 -0.1666 -1.9975
   35CHL1   H2B 3745   4.580   0.303   6.443  1.5851  1.6376 -2.2406
   35CHL1   C20 3746   4.529  -0.279   5.655 -0.8353  0.1461 -0.1315
   35CHL1   H20 3747   4.562  -0.365   5.717  2.4794  1.8552  0.7273
   35CHL1   C21 3748   4.658  -0.189   5.630  0.4322  0.5256  0.0583
   35CHL1  H21A 3749   4.724  -0.197   5.719  1.4865 -2.1851 -0.8512
   35CHL1  H21B 3750   4.631  -0.085   5.601  1.2893  0.4979 -0.8559
   35CHL1  H21C 3751   4.712  -0.232   5.544 -0.8845  0.3126 -0.6869
   35CHL1   C22 3752   4.470  -0.334   5.528  0.5604 -0.3136 -0.0525
   35CHL1  H22A 3753   4.544  -0.398   5.475 -1.4692 -1.2471 -1.9010
   35CHL1  H22B 3754   4.389  -0.401   5.562  0.3681  0.6761  1.5450
   35CHL1   C23 3755   4.397  -0.235   5.435  0.6017 -0.4690  1.0240
   35CHL1  H23A 3756   4.297  -0.205   5.473  0.5990  0.2173  0.4995
   35CHL1  H23B 3757   4.450  -0.137   5.430 -0.4168  0.0334 -1.3688
   35CHL1   C24 3758   4.392  -0.301   5.291 -0.3870  0.6761 -0.9315
   35CHL1  H24A 3759   4.498  -0.301   5.256 -0.6259 -0.5674 -1.6925
   35CHL1  H24B 3760   4.370  -0.407   5.313 -1.2394  1.3080  1.5574
   35CHL1   C25 3761   4.293  -0.244   5.191  0.6545  0.8658  0.2338
   35CHL1   H25 3762   4.305  -0.134   5.181 -1.7783  1.1273 -0.4151
   35CHL1   C26 3763   4.307  -0.323   5.059 -1.0468 -0.6601 -0.4991
   35CHL1  H26A 3764   4.292  -0.432   5.075  1.6012 -0.9207  0.6849
   35CHL1  H26B 3765   4.233  -0.289   4.983  1.6300 -0.2128 -3.1078
   35CHL1  H26C 3766   4.414  -0.304   5.038 -1.1786  2.5475  1.1975
   35CHL1   C27 3767   4.153  -0.276   5.249  0.0331 -0.9005  1.2837
   35CHL1  H27A 3768   4.139  -0.378   5.292  1.6653 -1.8749 -0.3452
   35CHL1  H27B 3769   4.139  -0.203   5.332 -1.0180  0.9337 -0.4306
   35CHL1  H27C 3770   4.074  -0.253   5.175  0.2568 -0.9502  1.0258
   36CHL1    C3 3771   0.961   4.342   6.365 -0.2387  0.4698  0.1405
   36CHL1    H3 3772   0.864   4.396   6.362  1.2412  3.3008 -0.4428
   36CHL1    O3 3773   1.012   4.313   6.493  0.6147  0.1167 -0.0196
   36CHL1   H3' 3774   0.977   4.227   6.515  1.9064  0.1548  2.5585
   36CHL1    C4 3775   0.952   4.207   6.288 -0.5225  0.0004 -0.2428
   36CHL1   H4A 3776   1.037   4.138   6.306 -1.9777 -1.5709  1.0424
   36CHL1   H4B 3777   0.862   4.154   6.327  0.6538 -1.2574  0.8938
   36CHL1    C5 3778   0.937   4.213   6.140 -0.8059  0.1443  0.1982
   36CHL1    C6 3779   0.843   4.150   6.075  0.1014  0.2930  0.6313
   36CHL1    H6 3780   0.760   4.092   6.120 -2.7160  3.5766  0.0671
   36CHL1    C7 3781   0.833   4.151   5.926  0.5757 -0.1230 -0.2610
   36CHL1   H7A 3782   0.816   4.053   5.877  2.5958 -0.4015 -0.4726
   36CHL1   H7B 3783   0.744   4.214   5.900 -1.1566 -1.7566  1.3668
   36CHL1    C8 3784   0.964   4.208   5.852  0.1023 -0.3387 -0.1238
   36CHL1    H8 3785   1.047   4.135   5.862  1.2355  0.4656 -2.7073
   36CHL1   C14 3786   0.936   4.237   5.710  0.0840 -0.9075 -0.8275
   36CHL1   H14 3787   0.859   4.317   5.708 -0.4800 -1.4016  0.2004
   36CHL1   C15 3788   0.875   4.128   5.630  0.2135 -0.6183 -0.5266
   36CHL1  H15A 3789   0.920   4.028   5.646  1.5146 -0.4022 -2.4636
   36CHL1  H15B 3790   0.768   4.119   5.658  0.6167  1.0760  1.8508
   36CHL1   C16 3791   0.899   4.177   5.488  0.4456  0.4473  0.3649
   36CHL1  H16A 3792   0.943   4.091   5.433 -1.6492 -0.3836 -0.1067
   36CHL1  H16B 3793   0.812   4.207   5.427 -0.6755  1.0170  2.1585
   36CHL1   C17 3794   0.992   4.296   5.492 -0.1713  0.2380  0.6772
   36CHL1   H17 3795   0.928   4.387   5.489 -1.6126 -0.7210  1.2931
   36CHL1   C13 3796   1.054   4.290   5.633 -0.2347 -0.8134 -0.6601
   36CHL1   C18 3797   1.163   4.181   5.639 -0.1439  1.1459 -0.1506
   36CHL1  H18A 3798   1.131   4.085   5.593 -2.0481  1.2013  0.9651
   36CHL1  H18B 3799   1.256   4.202   5.581  1.8500  0.9438  2.7487
   36CHL1  H18C 3800   1.202   4.159   5.741  1.2214  0.2612 -0.8235
   36CHL1   C12 3801   1.092   4.424   5.696 -0.0689 -0.4917  0.1993
   36CHL1  H12A 3802   1.175   4.466   5.636  1.5180 -2.5238  0.8768
   36CHL1  H12B 3803   1.004   4.492   5.693  0.2508 -0.0842 -1.8377
   36CHL1   C11 3804   1.137   4.407   5.850  0.0206  0.1617 -0.3484
   36CHL1  H11A 3805   1.234   4.354   5.847 -1.1670 -2.3074  1.3417
   36CHL1  H11B 3806   1.144   4.505   5.900 -3.3172 -0.9126  2.6592
   36CHL1    C9 3807   1.019   4.340   5.928 -0.0044  0.6045  0.1287
   36CHL1    H9 3808   0.932   4.409   5.920 -0.6822 -0.4325 -2.6978
   36CHL1   C10 3809   1.038   4.306   6.075  0.2228  0.0568  0.8469
   36CHL1   C19 3810   1.183   4.258   6.093  0.3501  0.2033  0.6480
   36CHL1  H19A 3811   1.250   4.346   6.092  1.6898 -0.7856  0.9497
   36CHL1  H19B 3812   1.216   4.212   6.189  2.5673  1.1458  0.3860
   36CHL1  H19C 3813   1.214   4.187   6.014 -1.1115 -0.0275  0.2514
   36CHL1    C1 3814   1.033   4.443   6.141  0.0450 -0.2711 -0.0716
   36CHL1   H1A 3815   1.105   4.508   6.086  0.2719 -0.0343  0.4832
   36CHL1   H1B 3816   0.933   4.489   6.129 -0.1827 -0.9984 -1.0267
   36CHL1    C2 3817   1.067   4.433   6.296 -0.2670  0.0241  0.7221
   36CHL1   H2A 3818   1.054   4.539   6.329  0.0095  0.5774 -0.8583
   36CHL1   H2B 3819   1.167   4.386   6.308 -1.2501 -2.1003  0.9782
   36CHL1   C20 3820   1.093   4.304   5.372 -0.0561  0.3735  1.0888
   36CHL1   H20 3821   1.158   4.216   5.383 -1.0255 -0.7920 -1.5156
   36CHL1   C21 3822   1.176   4.442   5.365  0.3482 -0.2710 -0.1224
   36CHL1  H21A 3823   1.203   4.463   5.259 -0.2411 -0.9003 -0.4101
   36CHL1  H21B 3824   1.262   4.431   5.434  1.0716 -2.5264 -1.2777
   36CHL1  H21C 3825   1.104   4.520   5.398  1.0362  0.2573  0.1417
   36CHL1   C22 3826   1.016   4.274   5.236  0.1650  0.1546 -0.0695
   36CHL1  H22A 3827   1.092   4.267   5.155 -1.3602 -0.9941 -1.4476
   36CHL1  H22B 3828   0.990   4.167   5.230  0.8065 -0.2280  2.6801
   36CHL1   C23 3829   0.900   4.363   5.197  0.4325  0.1855 -0.3069
   36CHL1  H23A 3830   0.807   4.338   5.253  0.2883 -0.9619 -1.0173
   36CHL1  H23B 3831   0.934   4.464   5.227 -0.4027 -0.1478  1.9930
   36CHL1   C24 3832   0.865   4.369   5.044 -0.2113 -0.4570  0.5924
   36CHL1  H24A 3833   0.955   4.397   4.984 -1.5404 -0.4501 -1.4663
   36CHL1  H24B 3834   0.853   4.265   5.007  1.7584 -0.1283 -1.2147
   36CHL1   C25 3835   0.750   4.460   5.006 -0.3949 -0.8285  0.0333
   36CHL1   H25 3836   0.785   4.555   5.052 -0.2790 -0.1704 -1.3646
   36CHL1   C26 3837   0.745   4.486   4.851  0.1985  0.5959 -0.2669
   36CHL1  H26A 3838   0.739   4.396   4.786  0.0143 -1.4238  2.3694
   36CHL1  H26B 3839   0.659   4.551   4.826  0.4757  0.9859 -0.2113
   36CHL1  H26C 3840   0.835   4.547   4.828  0.7353  0.4576  1.3476
   36CHL1   C27 3841   0.615   4.405   5.066  0.1207  0.1924  0.3129
   36CHL1  H27A 3842   0.622   4.418   5.177 -0.0257  1.5362  0.1795
   36CHL1  H27B 3843   0.527   4.460   5.027  0.3803  1.0607  0.8951
   36CHL1  H27C 3844   0.611   4.300   5.032 -1.0962  0.0827  0.7297
   37CHL1    C3 3845   1.101   0.704   5.840 -0.1864  0.3238  0.0426
   37CHL1    H3 3846   1.205   0.743   5.837 -0.6135  1.4560 -1.5943
   37CHL1    O3 3847   1.065   0.667   5.973  0.0470  0.4187  0.0283
   37CHL1   H3' 3848   0.974   0.637   5.978  0.4266 -0.6343  1.0317
   37CHL1    C4 3849   0.999   0.811   5.798  0.2860 -0.5803 -0.3716
   37CHL1   H4A 3850   0.899   0.762   5.799 -0.5915  1.0446 -1.9082
   37CHL1   H4B 3851   0.989   0.896   5.869 -2.6357 -1.6703  0.6605
   37CHL1    C5 3852   1.013   0.857   5.653 -0.1689 -0.1189  0.0145
   37CHL1    C6 3853   1.024   0.989   5.620  0.1082  0.3540 -0.0409
   37CHL1    H6 3854   1.011   1.069   5.694 -3.1565  0.0069 -0.0896
   37CHL1    C7 3855   1.040   1.039   5.485  0.4105  0.5417  1.2171
   37CHL1   H7A 3856   0.974   1.126   5.463  0.1251  0.2612  0.9543
   37CHL1   H7B 3857   1.144   1.075   5.469 -0.4188  2.9839  0.7719
   37CHL1    C8 3858   1.006   0.926   5.381 -0.2444  0.5869 -0.0525
   37CHL1    H8 3859   0.896   0.909   5.384 -0.1324 -0.1374  3.0210
   37CHL1   C14 3860   1.047   0.979   5.247 -0.0085  0.3985 -0.4452
   37CHL1   H14 3861   1.157   0.991   5.255  0.2256 -1.8756  0.4118
   37CHL1   C15 3862   0.995   1.118   5.193 -0.3275  0.8665  0.7561
   37CHL1  H15A 3863   0.887   1.131   5.216  0.0796  1.6219  2.3949
   37CHL1  H15B 3864   1.051   1.204   5.237  0.6470  0.0246  1.2186
   37CHL1   C16 3865   1.015   1.114   5.040  0.6073  0.6061  0.2064
   37CHL1  H16A 3866   0.919   1.129   4.986  0.4875  1.8579  0.7447
   37CHL1  H16B 3867   1.075   1.201   5.006  2.1124  0.3877  2.0607
   37CHL1   C17 3868   1.078   0.971   5.008 -0.2092 -0.3526 -0.0376
   37CHL1   H17 3869   1.189   0.978   5.007 -0.1397 -1.2760 -0.1217
   37CHL1   C13 3870   1.035   0.881   5.126  0.0527 -0.3244 -0.2170
   37CHL1   C18 3871   0.882   0.844   5.112  0.5581 -0.3581  0.0053
   37CHL1  H18A 3872   0.837   0.783   5.194 -0.6874  0.9028  0.2992
   37CHL1  H18B 3873   0.819   0.935   5.122  3.1246  1.5551 -0.2443
   37CHL1  H18C 3874   0.866   0.789   5.017  0.8670  0.8991 -0.8050
   37CHL1   C12 3875   1.119   0.756   5.159  0.4615  0.1191  0.1027
   37CHL1  H12A 3876   1.112   0.683   5.076 -2.0507  0.9732 -0.5178
   37CHL1  H12B 3877   1.218   0.806   5.160  0.5434 -0.0434  0.1031
   37CHL1   C11 3878   1.085   0.698   5.299 -0.3133 -0.5724  0.0807
   37CHL1  H11A 3879   0.988   0.643   5.298 -0.8611  0.1117  3.4194
   37CHL1  H11B 3880   1.157   0.620   5.328  0.8355  0.5351  0.3042
   37CHL1    C9 3881   1.087   0.799   5.412 -0.0983 -0.7682  0.0240
   37CHL1    H9 3882   1.195   0.822   5.425 -0.2403  1.1415 -1.6556
   37CHL1   C10 3883   1.031   0.748   5.548 -0.2142 -0.3476  0.5091
   37CHL1   C19 3884   0.893   0.681   5.526  0.3602  0.6243 -0.1306
   37CHL1  H19A 3885   0.921   0.593   5.463  0.3813  0.7667 -0.3230
   37CHL1  H19B 3886   0.851   0.645   5.622 -1.1486  2.1850 -0.1411
   37CHL1  H19C 3887   0.824   0.748   5.469 -1.4936 -1.1305 -0.0623
   37CHL1    C1 3888   1.135   0.644   5.598  0.1316  0.3844 -0.3186
   37CHL1   H1A 3889   1.148   0.563   5.522  0.8788 -0.6057  0.8253
   37CHL1   H1B 3890   1.235   0.693   5.599  1.1021 -1.4880 -0.6672
   37CHL1    C2 3891   1.106   0.586   5.743 -0.3023 -0.0757  0.0257
   37CHL1   H2A 3892   1.193   0.522   5.769  2.0706  1.6441 -2.9918
   37CHL1   H2B 3893   1.008   0.534   5.743  0.1637 -1.0361 -2.0376
   37CHL1   C20 3894   1.050   0.920   4.863 -0.5069 -0.0548 -0.5765
   37CHL1   H20 3895   0.943   0.891   4.853 -0.0632 -2.3619  0.7809
   37CHL1   C21 3896   1.133   0.800   4.830  0.2734  0.9992  0.1954
   37CHL1  H21A 3897   1.241   0.821   4.848  0.5064 -0.3601  0.5160
   37CHL1  H21B 3898   1.125   0.780   4.721 -1.2704  0.8560  0.3097
   37CHL1  H21C 3899   1.100   0.707   4.881  1.5088  1.0446  1.1262
   37CHL1   C22 3900   1.081   1.031   4.762 -0.2439  0.0442 -1.0464
   37CHL1  H22A 3901   1.022   1.122   4.784  0.3288 -0.0765  1.2974
   37CHL1  H22B 3902   1.188   1.055   4.781  0.2378 -3.4680  1.7004
   37CHL1   C23 3903   1.045   0.994   4.614  0.3313 -0.4023  0.6266
   37CHL1  H23A 3904   1.126   0.928   4.578  0.0571 -0.3890 -0.0364
   37CHL1  H23B 3905   0.947   0.942   4.611  1.2308 -2.1680 -2.6472
   37CHL1   C24 3906   1.032   1.122   4.523 -0.3252  0.3926  0.0477
   37CHL1  H24A 3907   0.949   1.192   4.546  0.2603  2.8499 -4.2433
   37CHL1  H24B 3908   1.131   1.173   4.528 -0.1183 -0.1450  2.2736
   37CHL1   C25 3909   1.006   1.073   4.377  0.3460  0.1453  0.8545
   37CHL1   H25 3910   0.902   1.035   4.375  0.0518  0.9455 -0.3690
   37CHL1   C26 3911   1.013   1.200   4.288  0.0981 -0.4564 -0.1515
   37CHL1  H26A 3912   0.983   1.171   4.185 -1.9808  2.0713 -0.3562
   37CHL1  H26B 3913   0.947   1.282   4.321  2.2667  1.1470  0.4334
   37CHL1  H26C 3914   1.112   1.250   4.292  0.2864 -0.9009  1.0357
   37CHL1   C27 3915   1.110   0.974   4.324 -0.1979  0.1006 -0.0183
   37CHL1  H27A 3916   1.205   1.031   4.315 -0.7353  1.4724  2.2855
   37CHL1  H27B 3917   1.127   0.882   4.383 -2.8527 -0.9171 -0.6643
   37CHL1  H27C 3918   1.068   0.963   4.221  0.9066  1.7249 -0.6937
   38CHL1    C3 3919   3.571   2.064   6.170 -0.7010 -0.0649  0.3985
   38CHL1    H3 3920   3.486   2.131   6.145  0.7134  1.9238  0.7026
   38CHL1    O3 3921   3.561   2.031   6.306  0.7550 -0.5043 -0.1183
   38CHL1   H3' 3922   3.597   2.102   6.360 -0.3808  0.7281 -0.9067
   38CHL1    C4 3923   3.573   1.935   6.088  0.4792  0.1416 -0.0645
   38CHL1   H4A 3924   3.663   1.886   6.133 -0.1145 -0.3414  0.6143
   38CHL1   H4B 3925   3.485   1.873   6.111 -0.2516  1.0651 -0.3111
   38CHL1    C5 3926   3.610   1.958   5.947 -0.5960 -0.6667 -0.3490
   38CHL1    C6 3927   3.529   1.917   5.852 -0.7864  0.0682 -0.4293
   38CHL1    H6 3928   3.449   1.846   5.877 -0.1540 -1.2627 -1.9534
   38CHL1    C7 3929   3.548   1.936   5.706  0.2701  0.7402 -0.2824
   38CHL1   H7A 3930   3.525   1.844   5.648  1.7153 -0.0853  0.4138
   38CHL1   H7B 3931   3.487   2.017   5.661 -1.8702 -0.3807  0.5009
   38CHL1    C8 3932   3.695   1.969   5.672  0.0933 -0.5482 -0.2714
   38CHL1    H8 3933   3.752   1.876   5.687  1.5200 -0.1109 -2.5355
   38CHL1   C14 3934   3.714   2.013   5.531 -0.2746 -0.2196  1.0047
   38CHL1   H14 3935   3.658   2.107   5.515  0.2193  0.4255  2.8181
   38CHL1   C15 3936   3.671   1.911   5.417  0.0926 -0.1631 -0.1859
   38CHL1  H15A 3937   3.711   1.811   5.442 -0.5418 -0.1549  0.9390
   38CHL1  H15B 3938   3.561   1.903   5.403 -0.1692  1.7512  0.5300
   38CHL1   C16 3939   3.735   1.961   5.286 -0.3429  0.3350  0.1821
   38CHL1  H16A 3940   3.799   1.881   5.243  3.2954  1.6559  2.6249
   38CHL1  H16B 3941   3.658   1.998   5.216  0.0274 -3.3443 -2.3931
   38CHL1   C17 3942   3.832   2.075   5.331  0.2666  1.0131  0.0084
   38CHL1   H17 3943   3.781   2.173   5.322  0.2613  1.0710  0.5927
   38CHL1   C13 3944   3.852   2.061   5.486  0.3894  0.2935 -0.1100
   38CHL1   C18 3945   3.947   1.954   5.511 -0.4215  0.5460  0.0993
   38CHL1  H18A 3946   3.950   1.930   5.619 -2.0460 -1.0945 -0.1713
   38CHL1  H18B 3947   3.924   1.859   5.457  0.9064  0.4280 -0.2923
   38CHL1  H18C 3948   4.047   1.992   5.483 -0.0294  0.8934  1.8526
   38CHL1   C12 3949   3.877   2.187   5.570  0.6031  0.6946 -0.3177
   38CHL1  H12A 3950   3.984   2.209   5.555  0.5891  3.1370  2.3209
   38CHL1  H12B 3951   3.812   2.275   5.550  2.0553  2.1500  1.0728
   38CHL1   C11 3952   3.870   2.154   5.718  0.0223 -0.2953 -0.3442
   38CHL1  H11A 3953   3.955   2.088   5.744  0.3416  0.7703  1.4935
   38CHL1  H11B 3954   3.891   2.248   5.775 -1.5701  0.5510 -1.0736
   38CHL1    C9 3955   3.735   2.089   5.765  0.2718 -0.1497  0.3893
   38CHL1    H9 3956   3.655   2.166   5.763  1.0822  0.7325  0.9445
   38CHL1   C10 3957   3.736   2.052   5.921  0.5536  1.1196  0.1442
   38CHL1   C19 3958   3.862   1.970   5.959  0.3103  0.3644 -0.0908
   38CHL1  H19A 3959   3.962   2.017   5.965  1.3324 -1.5029 -1.3733
   38CHL1  H19B 3960   3.840   1.923   6.057 -1.1609 -0.1056 -0.6169
   38CHL1  H19C 3961   3.867   1.881   5.891 -0.2775  0.7169 -0.6132
   38CHL1    C1 3962   3.731   2.180   6.010 -0.1088 -0.2328  0.1443
   38CHL1   H1A 3963   3.828   2.233   6.014 -1.0022  1.4121  0.8509
   38CHL1   H1B 3964   3.651   2.245   5.968 -0.6345 -2.2808 -2.2900
   38CHL1    C2 3965   3.697   2.152   6.157 -0.2086  0.4941  0.0303
   38CHL1   H2A 3966   3.685   2.250   6.208  0.1289  0.5828 -0.0616
   38CHL1   H2B 3967   3.784   2.095   6.196  0.4833  0.4978 -1.4235
   38CHL1   C20 3968   3.952   2.077   5.240  0.0586 -0.4513  0.0911
   38CHL1   H20 3969   3.992   1.974   5.248 -2.8655 -1.5582  1.5664
   38CHL1   C21 3970   4.049   2.184   5.285  0.4059 -0.6321  0.4159
   38CHL1  H21A 3971   4.124   2.197   5.204 -0.4350 -2.0755 -0.6568
   38CHL1  H21B 3972   4.102   2.171   5.382 -1.5065  0.6897  1.7147
   38CHL1  H21C 3973   3.994   2.280   5.294  1.4012 -0.1388  1.5230
   38CHL1   C22 3974   3.916   2.101   5.087 -0.0857 -0.2009  0.1553
   38CHL1  H22A 3975   3.838   2.027   5.058 -0.6899  0.7861 -0.7906
   38CHL1  H22B 3976   3.875   2.203   5.073  3.1362  1.1304 -0.2750
   38CHL1   C23 3977   4.035   2.088   4.990 -0.1387  0.0605  0.0057
   38CHL1  H23A 3978   4.095   2.180   4.980 -1.7067  0.9546 -1.6307
   38CHL1  H23B 3979   4.105   2.019   5.042 -2.0026 -1.3341  0.8269
   38CHL1   C24 3980   3.993   2.037   4.849  0.1456  0.0848 -1.1918
   38CHL1  H24A 3981   3.922   1.956   4.876  2.1464 -1.6105 -0.7856
   38CHL1  H24B 3982   3.947   2.122   4.793 -0.5575  0.0630 -0.6653
   38CHL1   C25 3983   4.114   1.992   4.767 -0.0911  0.3729  0.0633
   38CHL1   H25 3984   4.182   1.938   4.836 -0.3083  0.2998  0.2235
   38CHL1   C26 3985   4.080   1.898   4.656  0.0714 -0.0825  0.0525
   38CHL1  H26A 3986   4.014   1.816   4.693  0.4100  0.4923  2.0413
   38CHL1  H26B 3987   4.033   1.965   4.580  1.0182  0.5129 -0.0270
   38CHL1  H26C 3988   4.169   1.855   4.607 -0.8864 -0.8846 -1.0409
   38CHL1   C27 3989   4.176   2.117   4.710 -0.8395  0.0976  0.4287
   38CHL1  H27A 3990   4.101   2.170   4.647 -0.8081 -0.3342  0.0254
   38CHL1  H27B 3991   4.206   2.189   4.789 -0.6261  0.9099 -0.3876
   38CHL1  H27C 3992   4.267   2.100   4.650 -1.3459  0.8628 -0.5838
   39CHL1    C3 3993   4.348   2.052   5.935  0.6133 -0.4997  0.0604
   39CHL1    H3 3994   4.283   1.962   5.926  0.6060 -0.4285 -0.6328
   39CHL1    O3 3995   4.348   2.116   6.061  0.3102  0.2017  0.0411
   39CHL1   H3' 3996   4.276   2.074   6.107 -0.3515 -0.7296 -1.7572
   39CHL1    C4 3997   4.487   2.006   5.911  0.1647 -0.3053  0.0379
   39CHL1   H4A 3998   4.550   2.095   5.935  1.6921 -1.6445  1.1997
   39CHL1   H4B 3999   4.520   1.943   5.996 -1.8144  0.7858  1.7197
   39CHL1    C5 4000   4.505   1.967   5.767 -0.6650  1.0393 -0.5619
   39CHL1    C6 4001   4.550   1.847   5.744  0.1595  0.1040 -0.7947
   39CHL1    H6 4002   4.585   1.786   5.829 -1.0342 -0.1731 -0.4905
   39CHL1    C7 4003   4.572   1.799   5.605 -0.1273  0.3627  0.6205
   39CHL1   H7A 4004   4.665   1.742   5.589 -0.6649 -0.8454  1.6320
   39CHL1   H7B 4005   4.494   1.727   5.571  2.8719 -2.2476 -1.1856
   39CHL1    C8 4006   4.572   1.921   5.496 -0.3212  0.5039 -0.1952
   39CHL1    H8 4007   4.671   1.969   5.507 -0.6751  1.1101  0.4326
   39CHL1   C14 4008   4.556   1.857   5.355 -0.1727 -0.0987 -0.3923
   39CHL1   H14 4009   4.455   1.812   5.362 -1.4199  2.6494  0.8698
   39CHL1   C15 4010   4.651   1.746   5.308  0.2099 -0.4994  0.3172
   39CHL1  H15A 4011   4.754   1.780   5.331  0.4637 -0.7680 -0.3945
   39CHL1  H15B 4012   4.639   1.650   5.363  2.0369 -1.0283 -0.1441
   39CHL1   C16 4013   4.634   1.739   5.159  0.6035  0.6321 -0.2574
   39CHL1  H16A 4014   4.738   1.737   5.120  1.1586  0.6952  1.1684
   39CHL1  H16B 4015   4.577   1.648   5.132 -1.4326  1.5218  0.8009
   39CHL1   C17 4016   4.544   1.860   5.116 -0.1468 -0.6214  0.2616
   39CHL1   H17 4017   4.439   1.828   5.100 -1.6109  2.9686  1.5118
   39CHL1   C13 4018   4.543   1.953   5.237  0.1395 -0.5556  0.5601
   39CHL1   C18 4019   4.678   2.031   5.235 -0.5671 -0.0052 -0.2748
   39CHL1  H18A 4020   4.750   1.967   5.180 -1.3374  0.2650 -1.6505
   39CHL1  H18B 4021   4.680   2.131   5.187 -0.4664  0.8404  1.3997
   39CHL1  H18C 4022   4.723   2.049   5.335 -1.5568  1.7780 -0.0971
   39CHL1   C12 4023   4.428   2.050   5.264  0.5747 -0.7281 -0.1435
   39CHL1  H12A 4024   4.413   2.128   5.186 -0.9611 -1.6105 -0.7716
   39CHL1  H12B 4025   4.338   1.985   5.256  1.2594 -1.8009  0.6367
   39CHL1   C11 4026   4.440   2.122   5.400 -0.6884 -0.1224  0.8854
   39CHL1  H11A 4027   4.530   2.188   5.404 -1.7615  1.3769  0.8667
   39CHL1  H11B 4028   4.356   2.188   5.428 -0.6294 -0.1386  1.1037
   39CHL1    C9 4029   4.456   2.017   5.513 -0.0464  0.0862 -0.8328
   39CHL1    H9 4030   4.369   1.949   5.508  0.9840 -1.5097  1.2440
   39CHL1   C10 4031   4.460   2.072   5.661  0.2990 -0.6849  0.6921
   39CHL1   C19 4032   4.560   2.193   5.657 -0.0581  0.0108  0.2569
   39CHL1  H19A 4033   4.590   2.210   5.763  0.3633  0.7644  0.0237
   39CHL1  H19B 4034   4.656   2.166   5.607 -0.0484 -1.8745  1.1680
   39CHL1  H19C 4035   4.519   2.288   5.618  1.1057 -0.2654 -1.7844
   39CHL1    C1 4036   4.315   2.118   5.692  0.3173  0.1555 -0.1006
   39CHL1   H1A 4037   4.291   2.210   5.634 -0.8585  0.3377  0.6386
   39CHL1   H1B 4038   4.238   2.040   5.673  0.7014 -0.2295 -0.0871
   39CHL1    C2 4039   4.294   2.158   5.838  0.1845 -0.3059  0.0292
   39CHL1   H2A 4040   4.186   2.178   5.857  0.3882  0.4884  0.3550
   39CHL1   H2B 4041   4.337   2.259   5.853 -0.3290 -0.0367 -0.2903
   39CHL1   C20 4042   4.584   1.924   4.979  0.1839 -0.5288  0.4855
   39CHL1   H20 4043   4.688   1.961   4.986 -0.5703  1.6174  0.9037
   39CHL1   C21 4044   4.498   2.046   4.953 -0.1282 -0.2288  0.5543
   39CHL1  H21A 4045   4.516   2.089   4.852  3.5910  0.0123  1.1762
   39CHL1  H21B 4046   4.512   2.127   5.027 -0.2626  0.0868  0.2364
   39CHL1  H21C 4047   4.389   2.023   4.959 -0.7885  1.8668 -1.6283
   39CHL1   C22 4048   4.582   1.828   4.855 -0.3429  0.2908  0.6771
   39CHL1  H22A 4049   4.560   1.729   4.899 -0.5088  0.3283  0.6791
   39CHL1  H22B 4050   4.498   1.843   4.784 -0.5660  1.7812  1.2204
   39CHL1   C23 4051   4.717   1.811   4.774  0.2033 -0.0323 -0.2400
   39CHL1  H23A 4052   4.796   1.787   4.847 -1.2121 -0.3557  1.2503
   39CHL1  H23B 4053   4.701   1.728   4.702  0.3228 -0.3411  0.0850
   39CHL1   C24 4054   4.756   1.948   4.697 -0.0279  0.1834 -0.2072
   39CHL1  H24A 4055   4.678   1.985   4.626 -0.9630 -0.8183  0.2750
   39CHL1  H24B 4056   4.767   2.035   4.766 -1.7109  1.8991 -1.9542
   39CHL1   C25 4057   4.891   1.931   4.624  1.0505 -0.3584  1.1846
   39CHL1   H25 4058   4.961   1.882   4.695  1.8705  0.3769  0.9077
   39CHL1   C26 4059   4.883   1.835   4.499  0.5023  0.8340  0.3303
   39CHL1  H26A 4060   4.835   1.877   4.408  0.2706  1.0306  0.5399
   39CHL1  H26B 4061   4.981   1.791   4.472  0.4556  0.5060  0.6903
   39CHL1  H26C 4062   4.822   1.750   4.537  0.9683  0.2151 -0.2826
   39CHL1   C27 4063   4.953   2.071   4.578  0.0094 -0.2928  0.5190
   39CHL1  H27A 4064   4.899   2.097   4.485 -2.0829  1.1936  2.0481
   39CHL1  H27B 4065   4.923   2.137   4.663  2.4514 -0.0937  1.3114
   39CHL1  H27C 4066   5.063   2.061   4.567 -0.1120 -0.2891 -0.8492
   40CHL1    C3 4067   5.040   0.395   6.581 -0.1712 -1.1117  0.1405
   40CHL1    H3 4068   5.085   0.494   6.555  1.2480 -1.5754  0.7458
   40CHL1    O3 4069   5.060   0.366   6.715 -0.3128  0.5021 -0.0752
   40CHL1   H3' 4070   5.006   0.289   6.734 -0.7220  0.6636 -0.5731
   40CHL1    C4 4071   4.894   0.389   6.544  0.1584  0.2876  0.4943
   40CHL1   H4A 4072   4.851   0.287   6.557  2.3059 -0.7535 -0.0081
   40CHL1   H4B 4073   4.847   0.458   6.617 -0.8717 -0.5894  0.6832
   40CHL1    C5 4074   4.868   0.427   6.403  0.5629  0.3531 -0.5466
   40CHL1    C6 4075   4.785   0.527   6.378  0.6684  0.7110  0.0740
   40CHL1    H6 4076   4.729   0.579   6.457 -0.2362  0.6255 -0.4862
   40CHL1    C7 4077   4.767   0.572   6.234  0.3985  0.1050  0.4821
   40CHL1   H7A 4078   4.663   0.600   6.207  1.0695 -0.4513 -3.3089
   40CHL1   H7B 4079   4.828   0.665   6.219 -0.0442  0.5246  1.2178
   40CHL1    C8 4080   4.815   0.473   6.124  0.3214  0.2179 -0.2605
   40CHL1    H8 4081   4.737   0.394   6.121 -0.4002  0.9122 -0.2465
   40CHL1   C14 4082   4.832   0.544   5.985  0.4383  0.3801 -0.0067
   40CHL1   H14 4083   4.916   0.615   6.000 -0.1758  0.9684  0.7391
   40CHL1   C15 4084   4.718   0.632   5.938 -0.4271  0.1433 -0.1541
   40CHL1  H15A 4085   4.623   0.583   5.968  0.2646 -1.5656 -0.6358
   40CHL1  H15B 4086   4.722   0.733   5.984 -1.9884  0.3794 -0.4608
   40CHL1   C16 4087   4.735   0.639   5.793  0.0170  0.1328  0.3027
   40CHL1  H16A 4088   4.649   0.595   5.739  1.4953  0.6037 -2.5863
   40CHL1  H16B 4089   4.753   0.743   5.760  0.3199  0.5288  1.6393
   40CHL1   C17 4090   4.863   0.556   5.762 -0.1527 -0.1951 -0.2823
   40CHL1   H17 4091   4.952   0.622   5.763  0.3567 -0.8454 -0.9599
   40CHL1   C13 4092   4.875   0.453   5.875  0.0776  0.1466  0.1647
   40CHL1   C18 4093   4.775   0.333   5.867  0.2955 -0.4906  0.3580
   40CHL1  H18A 4094   4.807   0.265   5.784  1.5503  1.6759 -1.0351
   40CHL1  H18B 4095   4.749   0.267   5.953 -0.8733 -1.3374 -0.6040
   40CHL1  H18C 4096   4.680   0.375   5.829  0.7795  0.1337 -0.1831
   40CHL1   C12 4097   5.017   0.402   5.907  0.2254 -0.5223 -1.0946
   40CHL1  H12A 4098   5.050   0.323   5.836 -2.6381 -1.7441 -1.2100
   40CHL1  H12B 4099   5.089   0.487   5.908 -0.1475 -0.1214  1.9550
   40CHL1   C11 4100   5.015   0.332   6.045  0.4930 -0.0979  0.1876
   40CHL1  H11A 4101   4.944   0.248   6.029  0.5256  0.0970 -1.1318
   40CHL1  H11B 4102   5.112   0.280   6.056 -1.0092 -2.8139  1.9023
   40CHL1    C9 4103   4.955   0.419   6.164  0.0443 -0.0288  0.3143
   40CHL1    H9 4104   5.028   0.502   6.170  0.4367 -0.2829 -0.7015
   40CHL1   C10 4105   4.956   0.356   6.302 -0.0303 -0.2303  0.3691
   40CHL1   C19 4106   4.894   0.216   6.283  0.4260  0.7032  0.0526
   40CHL1  H19A 4107   4.859   0.170   6.378  0.0431  0.6214 -0.1285
   40CHL1  H19B 4108   4.803   0.222   6.220 -0.3884 -0.3344  1.0897
   40CHL1  H19C 4109   4.960   0.139   6.238  0.1079  0.8005 -0.5831
   40CHL1    C1 4110   5.103   0.350   6.356  0.3702  0.7495  0.6538
   40CHL1   H1A 4111   5.166   0.294   6.283 -0.6813  0.3128  0.0528
   40CHL1   H1B 4112   5.138   0.455   6.346 -0.2522  0.7172 -4.4225
   40CHL1    C2 4113   5.114   0.296   6.498  0.2313  0.1492  0.0418
   40CHL1   H2A 4114   5.217   0.296   6.538 -1.0076 -3.1730  3.8817
   40CHL1   H2B 4115   5.064   0.197   6.497 -0.5748  0.5345 -1.3525
   40CHL1   C20 4116   4.862   0.511   5.611 -0.3762 -0.4877 -0.0782
   40CHL1   H20 4117   4.784   0.432   5.604 -2.0382  1.0213  0.5159
   40CHL1   C21 4118   5.006   0.462   5.578  0.3155  0.8171  0.3675
   40CHL1  H21A 4119   5.078   0.541   5.608 -1.0008  1.7999  1.0500
   40CHL1  H21B 4120   5.020   0.429   5.472  1.1442 -0.9318  0.9849
   40CHL1  H21C 4121   5.017   0.361   5.622  2.2251  0.0793 -1.6088
   40CHL1   C22 4122   4.829   0.634   5.521  0.5411 -0.0996  0.1561
   40CHL1  H22A 4123   4.735   0.689   5.545  1.5442  1.8906 -0.2321
   40CHL1  H22B 4124   4.913   0.704   5.539  0.6222  0.0036 -0.6055
   40CHL1   C23 4125   4.819   0.592   5.373 -0.0365  0.8907 -0.6340
   40CHL1  H23A 4126   4.897   0.516   5.352 -1.2976 -0.3527 -0.9660
   40CHL1  H23B 4127   4.720   0.543   5.359  0.3107  0.6592 -2.5427
   40CHL1   C24 4128   4.827   0.717   5.283 -0.3511 -0.1067 -0.1216
   40CHL1  H24A 4129   4.780   0.813   5.314  1.2034  1.0229 -1.1564
   40CHL1  H24B 4130   4.934   0.745   5.287 -0.5688  0.7715 -0.2047
   40CHL1   C25 4131   4.787   0.684   5.141  0.1349  0.3367  0.2634
   40CHL1   H25 4132   4.689   0.634   5.129  1.2435 -1.4793 -1.8961
   40CHL1   C26 4133   4.789   0.814   5.060 -0.4629 -0.0430 -0.3182
   40CHL1  H26A 4134   4.688   0.856   5.078 -1.1995 -1.8390 -0.0425
   40CHL1  H26B 4135   4.857   0.888   5.107 -1.1241 -0.2404  0.9872
   40CHL1  H26C 4136   4.807   0.811   4.950 -3.4696  0.1279 -0.8951
   40CHL1   C27 4137   4.891   0.592   5.072 -0.4154  0.2322 -0.7609
   40CHL1  H27A 4138   4.918   0.602   4.964  2.5536  2.2675  0.0338
   40CHL1  H27B 4139   4.986   0.626   5.118 -0.7639 -0.4705  0.5121
   40CHL1  H27C 4140   4.866   0.487   5.096  3.6547 -0.9108 -0.7917
   41CHL1    C3 4141   0.751   5.315   6.008  0.1938  0.0685  0.3878
   41CHL1    H3 4142   0.679   5.236   5.980  0.9825 -1.0753  1.4719
   41CHL1    O3 4143   0.789   5.294   6.144 -0.3105 -0.8610  0.6713
   41CHL1   H3' 4144   0.713   5.282   6.201  1.5573  0.1902  3.6196
   41CHL1    C4 4145   0.876   5.288   5.923 -0.0601 -0.4888 -0.0764
   41CHL1   H4A 4146   0.960   5.359   5.939 -0.2011  0.1318 -1.8624
   41CHL1   H4B 4147   0.917   5.187   5.945  0.2504 -0.1030  1.2366
   41CHL1    C5 4148   0.832   5.289   5.781 -0.3511  0.4892  0.3853
   41CHL1    C6 4149   0.853   5.178   5.708 -0.4455 -0.4637  0.7817
   41CHL1    H6 4150   0.911   5.092   5.746  2.0799 -0.0267 -1.7614
   41CHL1    C7 4151   0.807   5.165   5.570 -0.2070 -0.1860  0.8241
   41CHL1   H7A 4152   0.890   5.122   5.510 -0.5699  1.0753 -0.6615
   41CHL1   H7B 4153   0.717   5.101   5.566 -1.4027  1.4585 -0.7186
   41CHL1    C8 4154   0.777   5.294   5.497  0.0709  0.9483  0.3182
   41CHL1    H8 4155   0.877   5.337   5.472  0.1843 -0.3766 -1.7501
   41CHL1   C14 4156   0.700   5.276   5.365 -0.0170 -0.6733 -0.0299
   41CHL1   H14 4157   0.604   5.235   5.404 -1.3417  2.7983  0.7368
   41CHL1   C15 4158   0.753   5.186   5.251 -0.1646 -0.0657  0.5738
   41CHL1  H15A 4159   0.858   5.214   5.231 -0.4590  0.1957 -0.6942
   41CHL1  H15B 4160   0.743   5.077   5.268 -0.0211 -0.3809 -1.1574
   41CHL1   C16 4161   0.680   5.241   5.133  0.3202  1.1403  0.1949
   41CHL1  H16A 4162   0.747   5.249   5.044  0.1387 -0.9193 -0.1822
   41CHL1  H16B 4163   0.619   5.154   5.099  1.4655 -0.1236  1.2581
   41CHL1   C17 4164   0.597   5.365   5.177 -0.6454 -0.5794  0.4358
   41CHL1   H17 4165   0.501   5.318   5.206 -0.3940 -1.3097  0.1292
   41CHL1   C13 4166   0.668   5.413   5.301  0.8311  0.5803 -0.2822
   41CHL1   C18 4167   0.792   5.488   5.256  0.2633  0.3579 -0.9832
   41CHL1  H18A 4168   0.855   5.527   5.339 -0.5319 -1.2935  0.4630
   41CHL1  H18B 4169   0.849   5.425   5.184  0.2089  0.8392 -1.4532
   41CHL1  H18C 4170   0.764   5.578   5.197 -2.9003 -0.2974 -0.6547
   41CHL1   C12 4171   0.577   5.492   5.388 -0.4151 -0.5644 -0.2637
   41CHL1  H12A 4172   0.548   5.589   5.342  0.4257  0.0835  0.5174
   41CHL1  H12B 4173   0.491   5.424   5.406 -0.5563 -0.2715  0.2064
   41CHL1   C11 4174   0.646   5.521   5.518  0.7172  0.4048  0.0292
   41CHL1  H11A 4175   0.721   5.603   5.516 -0.1329  1.1906 -0.5898
   41CHL1  H11B 4176   0.566   5.556   5.586  0.0615  1.8033 -1.3851
   41CHL1    C9 4177   0.699   5.391   5.588 -0.3309  0.1577 -0.5005
   41CHL1    H9 4178   0.606   5.338   5.617 -1.8077  2.7001 -0.3956
   41CHL1   C10 4179   0.763   5.413   5.726  0.5778  0.1514  0.4522
   41CHL1   C19 4180   0.867   5.529   5.722  0.6473 -0.3177 -0.6216
   41CHL1  H19A 4181   0.812   5.625   5.707 -1.7533 -1.3334  1.0679
   41CHL1  H19B 4182   0.915   5.526   5.822 -1.9398  1.5936  0.7945
   41CHL1  H19C 4183   0.953   5.515   5.652  1.4348  0.8551  0.0778
   41CHL1    C1 4184   0.657   5.455   5.827  0.0381 -0.5545 -0.8076
   41CHL1   H1A 4185   0.616   5.553   5.796  1.1442 -0.4475 -2.0496
   41CHL1   H1B 4186   0.576   5.379   5.821 -0.3752 -0.1254 -0.7215
   41CHL1    C2 4187   0.696   5.458   5.979  0.2071  0.2990  0.2973
   41CHL1   H2A 4188   0.603   5.480   6.037  0.9759  0.5777  1.4484
   41CHL1   H2B 4189   0.768   5.540   5.999 -0.0264  0.6817 -0.3925
   41CHL1   C20 4190   0.565   5.469   5.071  0.0205  0.1911 -0.4673
   41CHL1   H20 4191   0.562   5.567   5.123  0.8240  0.4757 -0.9364
   41CHL1   C21 4192   0.415   5.433   5.035  0.1025 -0.1244  1.5170
   41CHL1  H21A 4193   0.338   5.442   5.114 -3.0794  0.7508 -1.4484
   41CHL1  H21B 4194   0.391   5.330   5.001 -2.6307  0.9237 -0.0881
   41CHL1  H21C 4195   0.375   5.501   4.957  1.9364 -0.5601  0.1091
   41CHL1   C22 4196   0.654   5.479   4.948 -0.2783  0.3883  0.2196
   41CHL1  H22A 4197   0.751   5.512   4.990  0.1259  1.5201 -1.4965
   41CHL1  H22B 4198   0.657   5.378   4.901  0.2505 -0.3691  1.8094
   41CHL1   C23 4199   0.611   5.566   4.825  0.1722 -0.2058  0.3514
   41CHL1  H23A 4200   0.697   5.563   4.754 -0.4844  0.3381 -0.4936
   41CHL1  H23B 4201   0.523   5.527   4.769 -0.5406  0.3802  1.0495
   41CHL1   C24 4202   0.592   5.717   4.845  0.6793 -0.5151  1.0402
   41CHL1  H24A 4203   0.494   5.732   4.894 -1.5431 -0.3162 -3.0247
   41CHL1  H24B 4204   0.664   5.747   4.924 -1.0138 -1.5834  3.0588
   41CHL1   C25 4205   0.625   5.799   4.711  0.3150  0.6622  0.4390
   41CHL1   H25 4206   0.720   5.766   4.664  0.2071  1.4076 -0.3300
   41CHL1   C26 4207   0.518   5.767   4.607  0.1495  0.1111  0.1158
   41CHL1  H26A 4208   0.508   5.659   4.583 -2.1882  0.4879 -0.9006
   41CHL1  H26B 4209   0.425   5.802   4.657  0.4323  0.2761  0.5363
   41CHL1  H26C 4210   0.530   5.821   4.510  0.0318 -0.2821 -0.1179
   41CHL1   C27 4211   0.641   5.945   4.746 -0.6501 -0.2735  0.1754
   41CHL1  H27A 4212   0.680   6.007   4.663 -0.6260 -0.9691 -0.3416
   41CHL1  H27B 4213   0.543   5.987   4.780  0.6373  2.8367  0.3932
   41CHL1  H27C 4214   0.723   5.960   4.819  0.1977  1.0165 -0.9980
   42CHL1    C3 4215   6.460   2.204   5.967  0.1820  0.5006  0.0025
   42CHL1    H3 4216   6.470   2.314   5.954 -2.8063  0.7803 -0.6110
   42CHL1    O3 4217   6.433   2.174   6.102 -0.6446  0.1997  0.1628
   42CHL1   H3' 4218   6.340   2.151   6.093 -0.3649 -0.4185 -1.3819
   42CHL1    C4 4219   6.339   2.165   5.883 -0.1001 -0.3554  0.0853
   42CHL1   H4A 4220   6.312   2.059   5.902  0.2516 -0.7493 -1.5050
   42CHL1   H4B 4221   6.249   2.225   5.909 -0.9726 -1.2885 -0.6972
   42CHL1    C5 4222   6.367   2.197   5.735  0.1346 -0.2338 -0.2565
   42CHL1    C6 4223   6.297   2.294   5.672  0.3877 -0.5238  0.3349
   42CHL1    H6 4224   6.210   2.343   5.718 -1.4978 -1.4382 -2.0302
   42CHL1    C7 4225   6.316   2.331   5.529  0.1900 -0.4567  0.1705
   42CHL1   H7A 4226   6.221   2.336   5.473  0.7718  0.4135 -0.7638
   42CHL1   H7B 4227   6.361   2.432   5.528 -1.6038  0.3745 -1.4439
   42CHL1    C8 4228   6.412   2.218   5.457  0.0111 -0.5919  0.3660
   42CHL1    H8 4229   6.349   2.130   5.433 -1.1881  0.7952 -1.9841
   42CHL1   C14 4230   6.458   2.276   5.320 -0.7592  0.0021  1.1283
   42CHL1   H14 4231   6.511   2.368   5.351 -1.6102  0.4034  1.4381
   42CHL1   C15 4232   6.351   2.330   5.224 -0.2336 -0.2664  0.2822
   42CHL1  H15A 4233   6.270   2.256   5.205 -0.0480 -0.1453 -1.0183
   42CHL1  H15B 4234   6.314   2.429   5.258  1.1465  0.0729  0.8632
   42CHL1   C16 4235   6.430   2.342   5.091  0.3060  0.0676 -0.4657
   42CHL1  H16A 4236   6.369   2.301   5.008  0.8645  1.2203 -1.4857
   42CHL1  H16B 4237   6.454   2.447   5.061 -0.3523  0.4880  0.4407
   42CHL1   C17 4238   6.570   2.266   5.110  0.1812 -0.4659 -0.5433
   42CHL1   H17 4239   6.642   2.344   5.142 -0.7472 -0.7299  2.6336
   42CHL1   C13 4240   6.551   2.184   5.242 -0.5280 -0.2629  0.1384
   42CHL1   C18 4241   6.486   2.058   5.198  0.7387 -0.6888 -0.5046
   42CHL1  H18A 4242   6.563   1.983   5.167  0.2934 -2.6169  2.5959
   42CHL1  H18B 4243   6.442   1.995   5.278 -0.7525 -1.7710 -2.0925
   42CHL1  H18C 4244   6.412   2.084   5.120  1.5670  1.0984 -0.7393
   42CHL1   C12 4245   6.681   2.157   5.328 -0.2068  0.0763  0.0991
   42CHL1  H12A 4246   6.755   2.095   5.273 -0.4069 -0.4805  0.4520
   42CHL1  H12B 4247   6.726   2.258   5.340  0.6497 -0.1405 -1.0303
   42CHL1   C11 4248   6.640   2.097   5.466 -0.0775 -0.7680 -0.0169
   42CHL1  H11A 4249   6.606   1.991   5.454  0.2621 -0.8997  0.1697
   42CHL1  H11B 4250   6.729   2.082   5.531  0.5463  1.7590 -0.1995
   42CHL1    C9 4251   6.531   2.182   5.543  0.6353  0.5415  0.4919
   42CHL1    H9 4252   6.577   2.283   5.551  0.1323  0.8098  0.0102
   42CHL1   C10 4253   6.492   2.127   5.678  0.2276  0.3760  0.0971
   42CHL1   C19 4254   6.453   1.972   5.667  0.0403 -0.7075 -0.5559
   42CHL1  H19A 4255   6.538   1.911   5.632  2.3792  1.5362  0.7986
   42CHL1  H19B 4256   6.445   1.926   5.768  0.4729 -0.5002 -0.4224
   42CHL1  H19C 4257   6.361   1.945   5.610  0.0589 -0.3007 -0.7853
   42CHL1    C1 4258   6.613   2.152   5.776 -0.6984 -1.3982 -0.3836
   42CHL1   H1A 4259   6.701   2.090   5.749 -1.1359 -1.7040 -1.1397
   42CHL1   H1B 4260   6.635   2.261   5.775  0.6303 -1.6517 -0.6367
   42CHL1    C2 4261   6.589   2.128   5.929 -0.2848  0.3772  0.0291
   42CHL1   H2A 4262   6.678   2.161   5.986 -0.7484  1.3622  0.1956
   42CHL1   H2B 4263   6.578   2.018   5.945 -0.1503  0.0259 -2.0061
   42CHL1   C20 4264   6.620   2.201   4.982  0.2447 -0.0172  0.6271
   42CHL1   H20 4265   6.552   2.117   4.953  0.0436 -0.2683  1.7850
   42CHL1   C21 4266   6.759   2.144   4.999  1.0171 -0.3345  0.4213
   42CHL1  H21A 4267   6.829   2.224   5.032 -1.2598  2.5944 -1.3449
   42CHL1  H21B 4268   6.804   2.119   4.900  0.4775  0.3936 -0.0236
   42CHL1  H21C 4269   6.757   2.049   5.056 -2.1541 -0.0248  0.9783
   42CHL1   C22 4270   6.602   2.299   4.854  0.1664  0.7384 -0.2544
   42CHL1  H22A 4271   6.622   2.236   4.765  1.1454 -0.2846  0.6630
   42CHL1  H22B 4272   6.500   2.338   4.833 -0.6032  0.4502  2.5845
   42CHL1   C23 4273   6.692   2.420   4.855  0.4985 -0.1187  1.2749
   42CHL1  H23A 4274   6.649   2.503   4.916 -0.3292  1.3653 -1.1911
   42CHL1  H23B 4275   6.793   2.394   4.893  0.8916 -2.4298 -1.0942
   42CHL1   C24 4276   6.716   2.475   4.712 -0.6252 -0.0743 -0.3326
   42CHL1  H24A 4277   6.780   2.563   4.732 -2.4815  1.0558  0.8653
   42CHL1  H24B 4278   6.766   2.400   4.647  0.4204  0.6570 -0.3977
   42CHL1   C25 4279   6.589   2.520   4.638  0.0200 -0.2092  0.1813
   42CHL1   H25 4280   6.518   2.435   4.629  1.5843 -1.5576  0.2133
   42CHL1   C26 4281   6.525   2.637   4.717 -0.1544  0.1436 -0.0668
   42CHL1  H26A 4282   6.462   2.701   4.651  0.1570 -0.7732 -1.2901
   42CHL1  H26B 4283   6.467   2.602   4.805  2.2466  0.2582  1.6561
   42CHL1  H26C 4284   6.608   2.687   4.770  0.1942 -0.9957  0.4913
   42CHL1   C27 4285   6.615   2.577   4.490  0.4696 -0.2741 -0.2455
   42CHL1  H27A 4286   6.640   2.495   4.419 -0.8304 -2.0048  1.2118
   42CHL1  H27B 4287   6.535   2.649   4.464  0.4623  0.0212  0.5716
   42CHL1  H27C 4288   6.708   2.638   4.489  0.6903 -0.5535  1.1152
   43CHL1    C3 4289   1.580   1.718   5.572 -0.0527 -0.2217 -0.3958
   43CHL1    H3 4290   1.477   1.675   5.571 -0.5034  0.8203 -1.2725
   43CHL1    O3 4291   1.627   1.694   5.706  0.7662  0.1133 -0.0329
   43CHL1   H3' 4292   1.572   1.742   5.768  0.6595 -0.1177  0.0525
   43CHL1    C4 4293   1.664   1.640   5.470 -0.0544 -0.0037  0.0318
   43CHL1   H4A 4294   1.772   1.663   5.482  0.8084 -2.9426 -1.1653
   43CHL1   H4B 4295   1.646   1.532   5.489  1.0305 -0.0944  0.5970
   43CHL1    C5 4296   1.638   1.673   5.324 -0.3134  0.6154 -0.4423
   43CHL1    C6 4297   1.606   1.575   5.242  0.3107  0.3335  0.4927
   43CHL1    H6 4298   1.618   1.472   5.280 -1.4278  0.4856  1.5463
   43CHL1    C7 4299   1.567   1.594   5.098  0.1045  0.5367  0.5695
   43CHL1   H7A 4300   1.629   1.535   5.027  0.2587 -0.8917  1.8505
   43CHL1   H7B 4301   1.463   1.557   5.086  0.5246 -0.2296 -1.0032
   43CHL1    C8 4302   1.576   1.745   5.049 -0.3670 -0.3981  0.7307
   43CHL1    H8 4303   1.682   1.763   5.022 -1.2909  0.0742 -3.2322
   43CHL1   C14 4304   1.486   1.770   4.928  0.0052 -0.4947  0.5458
   43CHL1   H14 4305   1.388   1.731   4.961  0.0113 -0.0662  1.0760
   43CHL1   C15 4306   1.525   1.688   4.805 -0.0144  0.3100  0.4561
   43CHL1  H15A 4307   1.634   1.698   4.788  0.7572 -2.3477  2.9799
   43CHL1  H15B 4308   1.498   1.581   4.817  0.3632  0.2917  1.1974
   43CHL1   C16 4309   1.452   1.753   4.687 -0.4017  0.5179 -0.2437
   43CHL1  H16A 4310   1.528   1.791   4.614  0.8353 -0.8441  0.2935
   43CHL1  H16B 4311   1.373   1.690   4.641 -0.5548 -1.0159  1.9619
   43CHL1   C17 4312   1.388   1.884   4.747  0.2525  0.2218 -0.0363
   43CHL1   H17 4313   1.294   1.836   4.780  2.6458 -3.7270  1.7442
   43CHL1   C13 4314   1.469   1.914   4.871  0.2414  0.4993 -1.1659
   43CHL1   C18 4315   1.606   1.980   4.846  0.6361  0.2269  0.5466
   43CHL1  H18A 4316   1.676   1.968   4.932  1.8501  2.8199  0.0110
   43CHL1  H18B 4317   1.649   1.939   4.751  1.5026 -3.5348  2.3527
   43CHL1  H18C 4318   1.589   2.089   4.839 -1.3616 -0.0670  0.3936
   43CHL1   C12 4319   1.406   1.993   4.984  0.0923 -0.1203  1.2578
   43CHL1  H12A 4320   1.393   2.100   4.958 -1.2250 -0.6669 -0.4573
   43CHL1  H12B 4321   1.307   1.947   5.006  0.1563 -0.0828  1.6380
   43CHL1   C11 4322   1.497   1.987   5.110  0.1597  0.6611 -0.3855
   43CHL1  H11A 4323   1.588   2.050   5.099 -0.9849  2.4608 -0.0425
   43CHL1  H11B 4324   1.448   2.031   5.200  2.2740  0.1843  1.0700
   43CHL1    C9 4325   1.532   1.843   5.160  0.0371 -0.3445 -0.4622
   43CHL1    H9 4326   1.430   1.803   5.183 -1.1415  1.6708 -1.8429
   43CHL1   C10 4327   1.614   1.820   5.287  0.3960  0.9646 -0.1194
   43CHL1   C19 4328   1.762   1.881   5.273  0.8088  0.5289  0.5823
   43CHL1  H19A 4329   1.824   1.823   5.202  0.0600  1.0798 -0.5495
   43CHL1  H19B 4330   1.751   1.989   5.249 -1.4640  0.2861  0.2918
   43CHL1  H19C 4331   1.812   1.889   5.372 -0.4035  1.4352  1.1551
   43CHL1    C1 4332   1.528   1.894   5.402  0.5435 -0.1175  0.0899
   43CHL1   H1A 4333   1.530   2.004   5.389 -0.5539 -0.3486 -3.1486
   43CHL1   H1B 4334   1.422   1.861   5.394  0.0082  1.5285 -0.0644
   43CHL1    C2 4335   1.582   1.871   5.541 -0.7782  0.0445 -0.3591
   43CHL1   H2A 4336   1.523   1.924   5.618 -0.3026 -1.2712  0.9740
   43CHL1   H2B 4337   1.686   1.910   5.552 -0.9362 -0.2775  3.4038
   43CHL1   C20 4338   1.371   1.998   4.647 -0.0844  0.3994  0.1402
   43CHL1   H20 4339   1.454   2.070   4.657 -0.1966  0.6699 -0.8540
   43CHL1   C21 4340   1.237   2.058   4.699  0.1657  0.2899 -0.4740
   43CHL1  H21A 4341   1.148   1.992   4.690 -1.1608  2.0752 -1.0826
   43CHL1  H21B 4342   1.194   2.150   4.654 -1.0220  0.1498  0.3281
   43CHL1  H21C 4343   1.248   2.078   4.808 -1.1593  2.3774 -0.6712
   43CHL1   C22 4344   1.369   1.962   4.499 -0.2235  0.2508 -0.2383
   43CHL1  H22A 4345   1.466   1.918   4.470  0.1468  0.8484  0.0732
   43CHL1  H22B 4346   1.287   1.889   4.483 -1.3310  1.3729  0.1327
   43CHL1   C23 4347   1.338   2.086   4.411 -0.8581 -0.0016  0.3145
   43CHL1  H23A 4348   1.244   2.135   4.445  0.1059  1.7479  0.6230
   43CHL1  H23B 4349   1.417   2.163   4.426  0.3686 -1.3554  0.9269
   43CHL1   C24 4350   1.323   2.043   4.266  0.4837  0.1116  1.0194
   43CHL1  H24A 4351   1.404   1.975   4.231 -0.7530 -1.1293  0.4786
   43CHL1  H24B 4352   1.232   1.980   4.257  0.1158  0.5827  1.3613
   43CHL1   C25 4353   1.315   2.163   4.169 -0.7898  0.2199 -0.1625
   43CHL1   H25 4354   1.408   2.224   4.171 -1.5870  1.5207 -1.1552
   43CHL1   C26 4355   1.332   2.099   4.026 -0.1950 -0.3830 -0.2299
   43CHL1  H26A 4356   1.264   2.013   4.004  0.6364 -0.1002 -5.0881
   43CHL1  H26B 4357   1.318   2.171   3.943  1.7134 -1.0209 -1.1553
   43CHL1  H26C 4358   1.439   2.073   4.018 -0.2291 -0.4314 -0.5374
   43CHL1   C27 4359   1.200   2.250   4.176  0.0221 -0.5544 -0.1304
   43CHL1  H27A 4360   1.110   2.185   4.178 -0.9679  0.7752  0.0012
   43CHL1  H27B 4361   1.207   2.300   4.275 -1.4322 -2.2632  0.9252
   43CHL1  H27C 4362   1.189   2.318   4.090 -0.2252 -1.7144 -1.0463
   44CHL1    C3 4363   0.116   4.173   6.148 -0.6092 -0.2021 -0.3403
   44CHL1    H3 4364   0.040   4.236   6.097 -1.5150 -1.8522 -1.1150
   44CHL1    O3 4365   0.089   4.175   6.291  0.4580 -0.8136 -0.1140
   44CHL1   H3' 4366   0.160   4.120   6.325  0.2103  0.3679  2.4884
   44CHL1    C4 4367   0.102   4.030   6.092  0.5144 -0.0729 -0.2059
   44CHL1   H4A 4368   0.165   3.956   6.147  0.0703  0.0762  0.5179
   44CHL1   H4B 4369   0.001   3.988   6.110  1.4434 -1.4277  2.4718
   44CHL1    C5 4370   0.135   4.031   5.943  0.6273  0.0912 -0.4973
   44CHL1    C6 4371   0.044   3.996   5.856 -0.2088 -0.2055  0.1391
   44CHL1    H6 4372  -0.048   3.952   5.896 -0.7303 -0.4031 -1.2345
   44CHL1    C7 4373   0.058   4.005   5.699  0.0211  0.1112 -0.5382
   44CHL1   H7A 4374   0.017   3.911   5.657 -1.4743 -0.0365  1.1058
   44CHL1   H7B 4375   0.001   4.088   5.653 -0.9956 -1.8347 -3.0188
   44CHL1    C8 4376   0.214   4.010   5.670  0.0519  0.1834  0.0997
   44CHL1    H8 4377   0.266   3.915   5.694  0.5597 -0.1155 -1.9581
   44CHL1   C14 4378   0.244   4.034   5.521  0.5460  0.2748 -0.6127
   44CHL1   H14 4379   0.200   4.132   5.491 -0.8752  0.1032  0.7608
   44CHL1   C15 4380   0.173   3.938   5.417  0.6071  0.1512  0.2092
   44CHL1  H15A 4381   0.183   3.834   5.454 -1.4945 -0.7240 -1.4830
   44CHL1  H15B 4382   0.065   3.962   5.416  0.4957 -0.3533 -1.0436
   44CHL1   C16 4383   0.245   3.956   5.288  0.1632 -0.4092  0.7989
   44CHL1  H16A 4384   0.273   3.859   5.241 -0.1050  0.3319 -0.9717
   44CHL1  H16B 4385   0.180   4.012   5.218  0.1844  2.5711  2.9826
   44CHL1   C17 4386   0.364   4.053   5.323 -0.3895 -0.0793  0.3439
   44CHL1   H17 4387   0.341   4.160   5.300  3.2778  0.5536 -1.0390
   44CHL1   C13 4388   0.386   4.038   5.476  0.2277 -0.0270 -0.2161
   44CHL1   C18 4389   0.458   3.901   5.494 -0.4026 -0.4333  0.3283
   44CHL1  H18A 4390   0.421   3.823   5.424 -1.4718 -0.6915  1.1630
   44CHL1  H18B 4391   0.566   3.914   5.472 -0.4914 -0.8101 -0.3477
   44CHL1  H18C 4392   0.444   3.868   5.599 -1.5878  1.8723  0.9653
   44CHL1   C12 4393   0.455   4.148   5.557  0.6919 -0.4994 -0.6061
   44CHL1  H12A 4394   0.563   4.132   5.536  0.7223 -1.7830  0.3677
   44CHL1  H12B 4395   0.418   4.246   5.519  0.1858 -0.9246 -1.2282
   44CHL1   C11 4396   0.440   4.130   5.709  0.2135 -0.5572  0.2534
   44CHL1  H11A 4397   0.501   4.040   5.732  2.3341  0.9391  0.7726
   44CHL1  H11B 4398   0.470   4.223   5.762  0.7099 -1.0168  0.7889
   44CHL1    C9 4399   0.291   4.113   5.753  0.2046 -0.1388 -0.3870
   44CHL1    H9 4400   0.241   4.207   5.722 -0.0670  0.0755  0.6499
   44CHL1   C10 4401   0.273   4.092   5.911 -0.0798  0.1310 -0.4420
   44CHL1   C19 4402   0.376   3.995   5.966 -0.7783 -0.4148  0.0541
   44CHL1  H19A 4403   0.473   4.047   5.979 -1.6905  0.7263  3.3780
   44CHL1  H19B 4404   0.359   3.955   6.069 -2.1788 -1.7298 -0.6281
   44CHL1  H19C 4405   0.380   3.913   5.890  0.1313  0.6720 -1.0987
   44CHL1    C1 4406   0.282   4.229   5.981 -0.0221  0.1583 -0.8096
   44CHL1   H1A 4407   0.383   4.269   5.960 -0.0619 -0.4847 -2.3427
   44CHL1   H1B 4408   0.219   4.305   5.930 -1.3844  0.4269  1.1756
   44CHL1    C2 4409   0.252   4.230   6.129 -0.2982 -0.3819 -0.4807
   44CHL1   H2A 4410   0.261   4.332   6.171 -2.2004 -0.0380 -0.8339
   44CHL1   H2B 4411   0.329   4.173   6.187  0.1232  1.5497  0.9614
   44CHL1   C20 4412   0.478   4.027   5.229 -0.0080 -0.1546  0.0137
   44CHL1   H20 4413   0.512   3.923   5.250 -1.0635 -0.6082 -0.4340
   44CHL1   C21 4414   0.598   4.115   5.253 -0.8012 -0.6914 -0.6485
   44CHL1  H21A 4415   0.562   4.220   5.260 -0.4352 -0.5420 -0.9788
   44CHL1  H21B 4416   0.668   4.113   5.167  0.7437 -1.3729  0.5595
   44CHL1  H21C 4417   0.653   4.098   5.348 -1.2348  2.2791  0.2299
   44CHL1   C22 4418   0.439   4.034   5.080 -0.5830  0.4577 -0.1586
   44CHL1  H22A 4419   0.353   3.966   5.060  0.0808 -0.1416 -1.0310
   44CHL1  H22B 4420   0.412   4.141   5.066  0.7955  0.6914 -1.1636
   44CHL1   C23 4421   0.537   3.992   4.970  0.0171  0.1634  0.7809
   44CHL1  H23A 4422   0.621   4.064   4.959 -0.0582  0.0136 -1.2454
   44CHL1  H23B 4423   0.578   3.892   4.998  0.4154 -0.9097 -3.0588
   44CHL1   C24 4424   0.487   3.979   4.820  0.0503  0.0435  0.6726
   44CHL1  H24A 4425   0.407   3.902   4.819 -1.1236  1.2294 -0.5769
   44CHL1  H24B 4426   0.441   4.073   4.782  0.2137 -0.3608 -0.5509
   44CHL1   C25 4427   0.593   3.922   4.724 -0.4554 -0.2460  0.1821
   44CHL1   H25 4428   0.684   3.982   4.746  0.8693 -2.8407  2.4002
   44CHL1   C26 4429   0.651   3.778   4.741  0.3911 -0.2185 -0.2556
   44CHL1  H26A 4430   0.571   3.707   4.770  1.5522 -0.5781  2.3500
   44CHL1  H26B 4431   0.717   3.750   4.656  2.2717 -0.1621  1.1167
   44CHL1  H26C 4432   0.715   3.787   4.831  0.6154  0.7938 -0.5059
   44CHL1   C27 4433   0.551   3.944   4.582 -0.2212 -0.1715  0.4595
   44CHL1  H27A 4434   0.646   3.947   4.524  0.5860  0.6742  1.7914
   44CHL1  H27B 4435   0.480   3.866   4.547 -1.5497  0.5785  1.4390
   44CHL1  H27C 4436   0.507   4.045   4.568  0.0845 -0.0968 -0.0026
   45CHL1    C3 4437   1.476   5.186   6.005  0.2683  0.5144  0.3617
   45CHL1    H3 4438   1.551   5.121   5.956  0.8178  1.6605 -0.3708
   45CHL1    O3 4439   1.483   5.186   6.149 -0.3083 -0.0108 -0.2298
   45CHL1   H3' 4440   1.397   5.221   6.174  0.4134  2.5418 -0.9545
   45CHL1    C4 4441   1.509   5.330   5.956  0.2328  0.0926  0.1382
   45CHL1   H4A 4442   1.440   5.397   6.012 -2.0762 -3.0483  1.3484
   45CHL1   H4B 4443   1.614   5.363   5.971  1.0458 -1.3331 -1.9470
   45CHL1    C5 4444   1.482   5.334   5.805 -0.4116 -0.3528 -0.4838
   45CHL1    C6 4445   1.572   5.389   5.720 -0.6903 -0.1859 -0.1107
   45CHL1    H6 4446   1.664   5.434   5.761 -1.1699  0.9614 -0.2479
   45CHL1    C7 4447   1.559   5.391   5.569  0.4344 -0.0373 -0.2919
   45CHL1   H7A 4448   1.624   5.475   5.535 -0.9162  1.0606 -0.2712
   45CHL1   H7B 4449   1.595   5.295   5.526  2.8792  0.8481 -0.3936
   45CHL1    C8 4450   1.415   5.399   5.523  0.2217  0.5367 -0.5875
   45CHL1    H8 4451   1.376   5.498   5.557  1.6841  1.0202 -0.2141
   45CHL1   C14 4452   1.397   5.383   5.376 -0.0843 -0.0999  0.6707
   45CHL1   H14 4453   1.423   5.275   5.362 -0.1917 -0.4091  2.6561
   45CHL1   C15 4454   1.485   5.465   5.275  0.2132 -0.6762 -0.3553
   45CHL1  H15A 4455   1.486   5.566   5.323 -1.2161 -0.9094  0.2257
   45CHL1  H15B 4456   1.590   5.433   5.256  0.7663 -0.8149  2.4569
   45CHL1   C16 4457   1.395   5.477   5.146  0.4563 -0.3942  0.5637
   45CHL1  H16A 4458   1.364   5.583   5.137 -1.1131 -0.8529  0.2115
   45CHL1  H16B 4459   1.452   5.453   5.053  0.5492 -1.0333  0.7825
   45CHL1   C17 4460   1.277   5.383   5.169  0.0735 -0.1732 -0.0192
   45CHL1   H17 4461   1.311   5.279   5.153 -0.5524 -0.3493 -0.2572
   45CHL1   C13 4462   1.249   5.382   5.326 -0.8575 -0.1264 -0.7094
   45CHL1   C18 4463   1.186   5.523   5.361  0.4069 -0.4869  0.0338
   45CHL1  H18A 4464   1.079   5.520   5.333  0.6164 -0.7293 -0.7874
   45CHL1  H18B 4465   1.190   5.555   5.467  0.3450  0.3556 -0.2098
   45CHL1  H18C 4466   1.237   5.597   5.296 -1.0905  1.4980  1.0358
   45CHL1   C12 4467   1.162   5.274   5.388  0.5777  0.2620 -0.3555
   45CHL1  H12A 4468   1.053   5.262   5.369  0.6701 -0.4808 -0.4478
   45CHL1  H12B 4469   1.193   5.175   5.348 -0.2443  0.0001 -0.3637
   45CHL1   C11 4470   1.178   5.277   5.538  0.3248  0.4378 -0.1767
   45CHL1  H11A 4471   1.112   5.358   5.577 -1.3720 -0.1232 -1.7048
   45CHL1  H11B 4472   1.142   5.181   5.580 -0.4473  1.6617  2.1366
   45CHL1    C9 4473   1.325   5.291   5.594  0.0219  0.1613 -0.0096
   45CHL1    H9 4474   1.368   5.192   5.567 -0.9066 -0.4255  0.6131
   45CHL1   C10 4475   1.344   5.294   5.752  0.1220  0.3763  0.4303
   45CHL1   C19 4476   1.239   5.398   5.811  0.3106  0.0246 -0.1013
   45CHL1  H19A 4477   1.137   5.355   5.809  0.6351 -0.8800  1.5122
   45CHL1  H19B 4478   1.256   5.427   5.917 -0.2700 -3.6847  1.1324
   45CHL1  H19C 4479   1.239   5.491   5.750 -2.3562 -0.2079 -0.5894
   45CHL1    C1 4480   1.312   5.154   5.811  0.0463  0.2542  0.4969
   45CHL1   H1A 4481   1.210   5.128   5.777  0.0253  1.7800 -0.7079
   45CHL1   H1B 4482   1.381   5.077   5.771 -1.8996 -0.7484 -1.0743
   45CHL1    C2 4483   1.329   5.148   5.960  0.0404 -0.0157 -0.6267
   45CHL1   H2A 4484   1.311   5.046   6.001 -1.5815 -0.3499 -2.0362
   45CHL1   H2B 4485   1.253   5.212   6.010 -0.3356 -0.4050 -0.6862
   45CHL1   C20 4486   1.160   5.395   5.068 -0.2343  0.3663  0.6512
   45CHL1   H20 4487   1.090   5.474   5.104  0.0992  1.0664 -0.1871
   45CHL1   C21 4488   1.089   5.263   5.060  0.0993 -0.0999 -0.1481
   45CHL1  H21A 4489   1.165   5.192   5.022  1.7305  0.7275  1.3881
   45CHL1  H21B 4490   0.999   5.268   4.995 -0.2418 -0.8294  0.2552
   45CHL1  H21C 4491   1.054   5.230   5.160 -0.0344 -0.5311 -0.3364
   45CHL1   C22 4492   1.208   5.428   4.923  0.1587 -0.5261 -0.0007
   45CHL1  H22A 4493   1.246   5.532   4.926 -0.3841 -0.3337  0.3332
   45CHL1  H22B 4494   1.295   5.371   4.884  0.0991 -0.3671 -0.3699
   45CHL1   C23 4495   1.093   5.435   4.816  0.1066 -0.4054 -0.7392
   45CHL1  H23A 4496   1.029   5.346   4.806 -0.1930 -0.3685  0.6135
   45CHL1  H23B 4497   1.018   5.509   4.852 -0.6302 -1.7594  0.5875
   45CHL1   C24 4498   1.152   5.455   4.672  0.3177  0.4247 -0.3104
   45CHL1  H24A 4499   1.244   5.518   4.671  0.9507 -0.4770  0.1214
   45CHL1  H24B 4500   1.173   5.353   4.635 -1.8330 -0.2827  0.2736
   45CHL1   C25 4501   1.052   5.521   4.576  1.0094 -0.8282  0.2617
   45CHL1   H25 4502   0.950   5.479   4.589  0.1407  1.4113  1.2045
   45CHL1   C26 4503   1.038   5.678   4.609  0.0500  0.0117  0.1419
   45CHL1  H26A 4504   1.005   5.691   4.715  2.7924  0.9923  0.9639
   45CHL1  H26B 4505   1.137   5.729   4.614 -0.0335  0.1001  1.0444
   45CHL1  H26C 4506   0.974   5.733   4.538  0.3681  0.1570 -0.0361
   45CHL1   C27 4507   1.091   5.493   4.431  0.0704 -0.5676 -0.4309
   45CHL1  H27A 4508   1.123   5.387   4.421  1.3287 -0.2424 -0.0826
   45CHL1  H27B 4509   1.012   5.507   4.354  0.4722  0.6923 -0.6361
   45CHL1  H27C 4510   1.172   5.559   4.393 -1.1870  1.3618  0.0806
   46CHL1    C3 4511   3.945   5.716   6.268 -0.2031 -0.0883  0.5191
   46CHL1    H3 4512   3.854   5.777   6.252 -0.3307 -0.4528 -0.1812
   46CHL1    O3 4513   3.946   5.679   6.405  0.0127  0.1818  0.3941
   46CHL1   H3' 4514   4.000   5.751   6.440 -0.6686  0.3336  1.1640
   46CHL1    C4 4515   3.947   5.583   6.184 -0.2261  0.5606 -0.3158
   46CHL1   H4A 4516   4.034   5.522   6.216 -1.6650 -0.9100  0.9266
   46CHL1   H4B 4517   3.854   5.525   6.202 -0.1561  0.8398  1.0505
   46CHL1    C5 4518   3.962   5.607   6.034 -0.1303 -0.5969 -0.1959
   46CHL1    C6 4519   3.880   5.537   5.950 -0.4432  0.0438  0.8972
   46CHL1    H6 4520   3.822   5.454   5.993 -2.0026  1.4205  1.5199
   46CHL1    C7 4521   3.882   5.534   5.803  0.2649  0.4296 -0.1904
   46CHL1   H7A 4522   3.873   5.431   5.761 -1.0364  1.3561 -2.3811
   46CHL1   H7B 4523   3.795   5.591   5.764 -0.0213  1.0907  1.3704
   46CHL1    C8 4524   4.015   5.608   5.759  0.4243  0.4252  0.3839
   46CHL1    H8 4525   4.096   5.532   5.761 -1.3387 -1.5817 -0.7961
   46CHL1   C14 4526   3.994   5.646   5.616  0.5834 -0.1075 -0.5545
   46CHL1   H14 4527   3.914   5.723   5.621 -0.0005 -0.7629  0.9285
   46CHL1   C15 4528   3.943   5.535   5.520 -0.6461  0.1213  0.1309
   46CHL1  H15A 4529   3.969   5.430   5.544  0.1089 -0.3670 -2.4933
   46CHL1  H15B 4530   3.832   5.535   5.528 -0.7427 -2.6329 -0.3168
   46CHL1   C16 4531   3.995   5.583   5.384  0.0961 -0.3116  0.1370
   46CHL1  H16A 4532   4.073   5.518   5.339 -0.4258 -0.5370 -0.4526
   46CHL1  H16B 4533   3.911   5.602   5.314  1.0945 -1.1019 -1.3271
   46CHL1   C17 4534   4.061   5.727   5.402 -0.6828  1.1135 -0.1784
   46CHL1   H17 4535   3.980   5.802   5.399 -2.2075 -0.4812 -1.2417
   46CHL1   C13 4536   4.115   5.713   5.544 -0.3555  0.1289  0.5937
   46CHL1   C18 4537   4.239   5.628   5.549  0.2825 -0.7375  0.0327
   46CHL1  H18A 4538   4.278   5.611   5.651 -0.9087  1.5884  0.9479
   46CHL1  H18B 4539   4.228   5.525   5.507 -1.1669 -1.0320  1.0430
   46CHL1  H18C 4540   4.320   5.677   5.492 -0.3798  1.0608  0.5938
   46CHL1   C12 4541   4.143   5.845   5.621 -0.5281 -0.4354  0.2223
   46CHL1  H12A 4542   4.230   5.903   5.582  0.6793 -1.1389  1.7420
   46CHL1  H12B 4543   4.052   5.909   5.617 -0.3402 -0.1894 -0.1669
   46CHL1   C11 4544   4.164   5.826   5.772  0.8212  0.1558  0.8399
   46CHL1  H11A 4545   4.262   5.776   5.786  0.4316 -0.3779  1.7291
   46CHL1  H11B 4546   4.163   5.921   5.830  0.8933  0.0724  0.9793
   46CHL1    C9 4547   4.055   5.736   5.840 -0.1064  0.4999  0.0300
   46CHL1    H9 4548   3.963   5.799   5.840 -0.3213  0.1953 -0.4220
   46CHL1   C10 4549   4.069   5.706   5.995  0.2281 -0.3459 -0.3138
   46CHL1   C19 4550   4.211   5.648   6.005  0.2298 -0.4016  0.0728
   46CHL1  H19A 4551   4.226   5.591   6.100  0.0941  0.5373  0.6710
   46CHL1  H19B 4552   4.230   5.577   5.922  0.3941  0.2218 -0.4261
   46CHL1  H19C 4553   4.286   5.731   6.004 -0.1617 -0.0477 -1.2383
   46CHL1    C1 4554   4.069   5.842   6.078 -0.0020  0.2415  0.2547
   46CHL1   H1A 4555   4.163   5.895   6.050  0.2950  0.3860  1.4775
   46CHL1   H1B 4556   3.982   5.904   6.047 -1.6435 -1.9886  0.1835
   46CHL1    C2 4557   4.067   5.806   6.230  0.0265  0.7482  0.0549
   46CHL1   H2A 4558   4.049   5.903   6.282  0.3634  0.4534  0.7255
   46CHL1   H2B 4559   4.160   5.750   6.249 -0.6956 -0.8804 -1.0109
   46CHL1   C20 4560   4.152   5.755   5.286  0.1411  0.0138  0.1755
   46CHL1   H20 4561   4.242   5.690   5.277 -1.9589 -2.7752 -2.4721
   46CHL1   C21 4562   4.209   5.894   5.319 -0.3045 -0.3712  0.4482
   46CHL1  H21A 4563   4.127   5.958   5.361 -0.2335  1.4469 -1.9391
   46CHL1  H21B 4564   4.246   5.957   5.236  0.1912 -2.4206 -0.9495
   46CHL1  H21C 4565   4.300   5.880   5.381  0.1690  0.6524  0.0152
   46CHL1   C22 4566   4.094   5.757   5.136  0.2734 -0.4011  0.7504
   46CHL1  H22A 4567   4.033   5.672   5.099 -1.1825  0.8088  0.2058
   46CHL1  H22B 4568   4.028   5.847   5.127  1.3341  0.3214 -0.1940
   46CHL1   C23 4569   4.208   5.775   5.026  0.1777  0.0241  0.5578
   46CHL1  H23A 4570   4.161   5.769   4.925  0.3473 -0.1327  0.4889
   46CHL1  H23B 4571   4.241   5.880   5.043 -0.8713  0.7829 -1.7390
   46CHL1   C24 4572   4.324   5.672   5.040  1.1522  0.2164 -0.4971
   46CHL1  H24A 4573   4.404   5.698   4.967  1.2078 -1.1525 -0.9446
   46CHL1  H24B 4574   4.375   5.683   5.138 -0.6481  1.4411  0.3617
   46CHL1   C25 4575   4.283   5.528   5.015 -0.4169  0.3198  0.6881
   46CHL1   H25 4576   4.191   5.504   5.073 -1.7801  1.9521 -0.6844
   46CHL1   C26 4577   4.237   5.500   4.877 -0.6471  0.5508 -0.0683
   46CHL1  H26A 4578   4.136   5.541   4.854 -1.2017  0.1990  1.5603
   46CHL1  H26B 4579   4.302   5.543   4.798 -0.4994  0.8681  0.2193
   46CHL1  H26C 4580   4.230   5.393   4.850 -0.0190  0.8578 -1.5664
   46CHL1   C27 4581   4.381   5.419   5.054 -0.2185 -0.4613  0.4591
   46CHL1  H27A 4582   4.341   5.317   5.038 -0.1272 -0.5235  0.6298
   46CHL1  H27B 4583   4.472   5.434   4.991 -0.8308  1.2629 -0.0889
   46CHL1  H27C 4584   4.410   5.440   5.159 -1.0945  0.7869  0.4814
   47CHL1    C3 4585   3.663   6.872   6.270 -1.3120 -0.5466 -0.0964
   47CHL1    H3 4586   3.593   6.786   6.264 -0.1306 -1.5677  0.3166
   47CHL1    O3 4587   3.671   6.918   6.408  0.6283 -0.3365  0.5353
   47CHL1   H3' 4588   3.758   6.950   6.430  0.2643  0.2400  1.1438
   47CHL1    C4 4589   3.798   6.823   6.230  0.0862 -0.4125  1.0296
   47CHL1   H4A 4590   3.878   6.898   6.244  1.4951 -1.4423 -0.9588
   47CHL1   H4B 4591   3.828   6.729   6.280  0.9854 -1.3034 -1.0597
   47CHL1    C5 4592   3.801   6.780   6.085 -0.1979  0.1875  0.5590
   47CHL1    C6 4593   3.845   6.658   6.047  0.4214  0.2011  0.1261
   47CHL1    H6 4594   3.881   6.581   6.118  0.1168  1.3848  1.6159
   47CHL1    C7 4595   3.844   6.610   5.905  1.5112  0.0685  0.3223
   47CHL1   H7A 4596   3.937   6.555   5.882  0.0071 -3.0485  1.0732
   47CHL1   H7B 4597   3.762   6.534   5.900  0.9477  0.5636  1.4576
   47CHL1    C8 4598   3.813   6.720   5.800 -0.5077 -0.4988 -0.3422
   47CHL1    H8 4599   3.910   6.771   5.786  0.1480 -1.4748  0.5249
   47CHL1   C14 4600   3.763   6.669   5.665 -0.7714  0.3928 -0.5486
   47CHL1   H14 4601   3.669   6.615   5.688 -0.3751 -0.1748 -0.2502
   47CHL1   C15 4602   3.855   6.562   5.606  0.1438 -0.3963  0.0312
   47CHL1  H15A 4603   3.958   6.599   5.622 -0.1058 -0.4721  2.1017
   47CHL1  H15B 4604   3.850   6.463   5.656  0.9027  0.0611  1.0486
   47CHL1   C16 4605   3.813   6.551   5.458  0.9591  0.1054  0.0197
   47CHL1  H16A 4606   3.905   6.555   5.396  0.5377  1.1832 -0.5499
   47CHL1  H16B 4607   3.755   6.459   5.434  0.3985  0.5389 -0.3110
   47CHL1   C17 4608   3.727   6.678   5.432  0.3469  0.2587  0.6013
   47CHL1   H17 4609   3.625   6.635   5.431 -0.0719  1.2084 -0.6021
   47CHL1   C13 4610   3.759   6.773   5.557 -0.5105 -0.3549  0.2788
   47CHL1   C18 4611   3.893   6.844   5.535 -1.0629  0.0254 -0.3956
   47CHL1  H18A 4612   3.914   6.899   5.629  0.1684  1.2712 -1.3478
   47CHL1  H18B 4613   3.974   6.771   5.515  1.2523  2.5809 -1.0008
   47CHL1  H18C 4614   3.898   6.912   5.446 -0.5469 -1.6987 -1.7373
   47CHL1   C12 4615   3.638   6.860   5.602  0.3445 -0.0878  0.4523
   47CHL1  H12A 4616   3.626   6.947   5.536  0.5605  1.2178  2.0623
   47CHL1  H12B 4617   3.540   6.808   5.612  0.9520 -1.1297  1.2418
   47CHL1   C11 4618   3.668   6.921   5.740 -0.1409 -0.1743 -0.3640
   47CHL1  H11A 4619   3.744   7.001   5.724  0.6329 -1.0903 -1.4880
   47CHL1  H11B 4620   3.570   6.954   5.781 -0.3423 -2.1924  0.9094
   47CHL1    C9 4621   3.713   6.820   5.854 -0.2956 -0.2733 -0.8308
   47CHL1    H9 4622   3.626   6.754   5.874  0.1260 -0.7347 -0.4750
   47CHL1   C10 4623   3.740   6.881   5.992 -0.5052 -0.4080 -0.9523
   47CHL1   C19 4624   3.834   7.004   5.971 -0.7753  0.8212  0.1254
   47CHL1  H19A 4625   3.798   7.090   5.911  2.1904  0.9627 -1.6443
   47CHL1  H19B 4626   3.864   7.041   6.072 -0.1900  4.0918 -1.1270
   47CHL1  H19C 4627   3.931   6.976   5.926 -0.7467 -2.3892  1.8639
   47CHL1    C1 4628   3.605   6.934   6.038 -0.3507  0.4501  0.0868
   47CHL1   H1A 4629   3.573   7.015   5.968  1.1865 -1.0609 -2.5570
   47CHL1   H1B 4630   3.528   6.855   6.024  0.6691 -0.4053 -0.9364
   47CHL1    C2 4631   3.609   6.983   6.178  1.2653  0.0524  0.4626
   47CHL1   H2A 4632   3.509   7.020   6.210  0.1029 -0.9788 -1.7662
   47CHL1   H2B 4633   3.678   7.068   6.191 -0.2125  1.3097  0.3093
   47CHL1   C20 4634   3.749   6.736   5.290 -0.1730 -0.1641 -0.4121
   47CHL1   H20 4635   3.856   6.762   5.282 -0.0925  0.5598  1.9796
   47CHL1   C21 4636   3.667   6.864   5.270 -0.2496  0.2135 -0.7055
   47CHL1  H21A 4637   3.719   6.952   5.314 -1.5870  1.0987 -0.8276
   47CHL1  H21B 4638   3.565   6.855   5.312 -0.0818  1.1417 -0.0735
   47CHL1  H21C 4639   3.682   6.905   5.168  1.2439 -0.2253 -0.6872
   47CHL1   C22 4640   3.710   6.633   5.188  0.4389 -0.6260  0.5790
   47CHL1  H22A 4641   3.785   6.553   5.201  2.9713  1.4903 -0.1366
   47CHL1  H22B 4642   3.608   6.597   5.215  1.2128 -3.0654  0.4743
   47CHL1   C23 4643   3.722   6.656   5.027 -0.3798  0.2034 -0.2368
   47CHL1  H23A 4644   3.695   6.561   4.977 -0.2448  0.1259 -0.1654
   47CHL1  H23B 4645   3.642   6.728   5.002 -0.6039  0.0692  0.0806
   47CHL1   C24 4646   3.850   6.712   4.968  0.1639  0.5375  0.2348
   47CHL1  H24A 4647   3.898   6.777   5.045 -0.8444  1.2972  0.2499
   47CHL1  H24B 4648   3.924   6.629   4.973 -1.2025 -0.6631  2.3427
   47CHL1   C25 4649   3.847   6.792   4.828 -0.3736  0.3217 -0.7188
   47CHL1   H25 4650   3.801   6.888   4.860 -1.9811 -0.9850  1.1338
   47CHL1   C26 4651   3.984   6.834   4.771 -0.2003 -0.1186  0.4984
   47CHL1  H26A 4652   3.978   6.909   4.689 -0.9909  0.4889  1.0959
   47CHL1  H26B 4653   4.050   6.883   4.845  1.0456 -0.3537 -0.4371
   47CHL1  H26C 4654   4.039   6.742   4.742 -0.4239 -1.6732  4.3283
   47CHL1   C27 4655   3.763   6.723   4.723  0.2552 -0.2441 -0.1274
   47CHL1  H27A 4656   3.812   6.630   4.687 -0.6858 -0.4537 -0.9002
   47CHL1  H27B 4657   3.663   6.693   4.760 -0.3934  0.8137 -0.9270
   47CHL1  H27C 4658   3.748   6.798   4.642 -1.1025 -1.0465 -0.6346
   48CHL1    C3 4659   6.149   1.343   6.199  0.2914  0.2888  0.4474
   48CHL1    H3 4660   6.202   1.441   6.192 -1.5357  1.3635  0.9730
   48CHL1    O3 4661   6.126   1.314   6.334 -0.2642 -0.0114 -0.2331
   48CHL1   H3' 4662   6.211   1.269   6.345 -1.1733 -2.2174 -1.4937
   48CHL1    C4 4663   6.014   1.344   6.129  0.3291  0.4384 -0.0063
   48CHL1   H4A 4664   5.954   1.253   6.153 -1.1419  1.8424  1.9754
   48CHL1   H4B 4665   5.951   1.422   6.176 -1.3840 -1.0531  0.3031
   48CHL1    C5 4666   6.016   1.369   5.981 -0.6309 -0.6870  0.3443
   48CHL1    C6 4667   5.945   1.467   5.923  0.3321 -0.0197 -0.7637
   48CHL1    H6 4668   5.866   1.524   5.976 -1.6445 -1.0271 -2.4737
   48CHL1    C7 4669   5.929   1.469   5.776  0.3998  0.4865  0.6814
   48CHL1   H7A 4670   5.820   1.479   5.756  0.0097  0.1730  2.5036
   48CHL1   H7B 4671   5.981   1.563   5.747 -0.8956  0.5828 -1.6052
   48CHL1    C8 4672   5.997   1.355   5.697  0.5062 -0.0013 -0.5628
   48CHL1    H8 4673   5.922   1.274   5.688  0.4400  0.0317 -0.3120
   48CHL1   C14 4674   6.022   1.397   5.556 -0.7187 -0.2066 -0.4640
   48CHL1   H14 4675   6.100   1.475   5.566  0.5969 -1.7159  1.8130
   48CHL1   C15 4676   5.908   1.453   5.467 -0.2816  0.5650  0.2059
   48CHL1  H15A 4677   5.810   1.404   5.483 -1.0341  0.6214 -3.3156
   48CHL1  H15B 4678   5.893   1.561   5.488 -0.0739  1.0258 -1.7503
   48CHL1   C16 4679   5.955   1.436   5.323 -0.2612 -0.1085 -0.0496
   48CHL1  H16A 4680   5.882   1.372   5.268 -0.0538 -0.2793 -0.1298
   48CHL1  H16B 4681   5.962   1.531   5.265  1.6504  1.0471  1.9507
   48CHL1   C17 4682   6.092   1.358   5.326  0.6503  0.6420  0.2317
   48CHL1   H17 4683   6.171   1.435   5.338  1.6809 -0.4900  0.9938
   48CHL1   C13 4684   6.084   1.287   5.465  0.0955  0.4440 -0.2783
   48CHL1   C18 4685   5.993   1.165   5.455  0.0434  0.2741 -0.3187
   48CHL1  H18A 4686   5.908   1.196   5.390 -0.7118 -1.0244  0.0013
   48CHL1  H18B 4687   6.054   1.086   5.406  0.2177  0.3557 -0.2321
   48CHL1  H18C 4688   5.958   1.124   5.552 -1.4940  0.1088 -0.9135
   48CHL1   C12 4689   6.218   1.232   5.525  0.9156 -0.2000 -0.0125
   48CHL1  H12A 4690   6.258   1.144   5.471  2.4616  0.1486  0.5267
   48CHL1  H12B 4691   6.291   1.313   5.504  0.4246  0.0994 -0.5748
   48CHL1   C11 4692   6.197   1.202   5.676  0.1359 -0.2148  0.5535
   48CHL1  H11A 4693   6.127   1.116   5.683 -0.4951  0.2507  0.1157
   48CHL1  H11B 4694   6.293   1.170   5.720 -0.2356 -0.4587  1.1935
   48CHL1    C9 4695   6.125   1.314   5.761 -0.1677  1.1367 -0.5605
   48CHL1    H9 4696   6.200   1.395   5.757  0.6704  0.3494 -1.1017
   48CHL1   C10 4697   6.112   1.268   5.907 -0.7228  0.4868 -0.3582
   48CHL1   C19 4698   6.052   1.126   5.917 -0.2951 -1.2964  0.1650
   48CHL1  H19A 4699   5.963   1.132   5.852 -0.2028 -1.5335  0.0159
   48CHL1  H19B 4700   6.122   1.048   5.879  1.2340 -0.4264  1.0602
   48CHL1  H19C 4701   6.024   1.097   6.021 -1.7997 -2.5277 -0.5383
   48CHL1    C1 4702   6.250   1.264   5.985 -0.1099  0.2095 -0.3892
   48CHL1   H1A 4703   6.317   1.183   5.948  1.1326  0.5616  0.9929
   48CHL1   H1B 4704   6.317   1.351   5.970  1.5183 -1.0866 -0.9969
   48CHL1    C2 4705   6.237   1.234   6.138  0.1083 -0.1021  0.2118
   48CHL1   H2A 4706   6.339   1.240   6.183 -0.6428 -2.0784  2.3897
   48CHL1   H2B 4707   6.199   1.131   6.156  1.2263 -0.5074  0.3387
   48CHL1   C20 4708   6.113   1.280   5.190 -0.4475 -0.5350  0.4265
   48CHL1   H20 4709   6.024   1.213   5.184 -0.6182 -0.2903  0.2050
   48CHL1   C21 4710   6.240   1.202   5.176 -0.3120 -0.2598 -0.4658
   48CHL1  H21A 4711   6.251   1.142   5.082 -0.2326 -1.6163  0.3754
   48CHL1  H21B 4712   6.327   1.270   5.187 -0.7635  0.5001 -1.4404
   48CHL1  H21C 4713   6.254   1.118   5.248  0.3886  0.0716 -0.2047
   48CHL1   C22 4714   6.111   1.381   5.069  0.2106 -0.3368 -0.1329
   48CHL1  H22A 4715   6.011   1.428   5.064 -0.1060 -1.0696 -0.9631
   48CHL1  H22B 4716   6.202   1.445   5.082  0.2730 -0.1164 -1.4798
   48CHL1   C23 4717   6.141   1.316   4.930 -0.5319  0.3959  0.0087
   48CHL1  H23A 4718   6.251   1.301   4.924 -0.7828 -1.1016 -1.6389
   48CHL1  H23B 4719   6.092   1.218   4.917  1.7046 -0.8286  0.3229
   48CHL1   C24 4720   6.106   1.409   4.815 -0.1146 -0.4173  0.2950
   48CHL1  H24A 4721   6.123   1.359   4.718 -4.4783 -1.5216 -0.1515
   48CHL1  H24B 4722   5.996   1.426   4.817 -0.4487 -2.3309  2.3264
   48CHL1   C25 4723   6.162   1.558   4.826 -0.5587 -0.1297 -0.6406
   48CHL1   H25 4724   6.135   1.601   4.925 -3.6067  0.9040 -1.8229
   48CHL1   C26 4725   6.312   1.565   4.804  0.5140  0.0567  0.2639
   48CHL1  H26A 4726   6.345   1.671   4.796  1.6740 -0.4371 -4.0532
   48CHL1  H26B 4727   6.351   1.522   4.898  0.6004 -1.1917 -0.3233
   48CHL1  H26C 4728   6.347   1.503   4.719 -0.7491  2.3044 -2.0422
   48CHL1   C27 4729   6.100   1.647   4.714 -0.6471  0.3650 -0.4802
   48CHL1  H27A 4730   5.998   1.669   4.753  0.0863 -0.8709  2.3585
   48CHL1  H27B 4731   6.148   1.747   4.715 -0.1274  0.3963  5.3195
   48CHL1  H27C 4732   6.105   1.599   4.614  3.4642 -1.9625  0.6327
   49CHL1    C3 4733   5.012   1.304   2.755 -0.1776 -0.2643  0.4824
   49CHL1    H3 4734   4.959   1.401   2.757 -1.3128 -0.8577  0.3682
   49CHL1    O3 4735   5.009   1.243   2.624 -0.0823 -0.4590  0.4021
   49CHL1   H3' 4736   5.074   1.288   2.570 -0.4597 -2.3699 -1.7945
   49CHL1    C4 4737   5.155   1.329   2.809  0.1236  0.6145  0.2868
   49CHL1   H4A 4738   5.218   1.241   2.782 -0.6082 -0.1652  1.0898
   49CHL1   H4B 4739   5.201   1.409   2.747  2.1742  0.1433  1.1146
   49CHL1    C5 4740   5.163   1.369   2.955 -0.3947  0.1589 -0.5186
   49CHL1    C6 4741   5.239   1.476   3.000  0.3983  0.4737  0.3439
   49CHL1    H6 4742   5.286   1.538   2.922  0.2665 -0.7154 -0.7173
   49CHL1    C7 4743   5.264   1.500   3.149 -0.1661 -0.0800  0.5650
   49CHL1   H7A 4744   5.368   1.532   3.173  0.1071 -0.5559  0.0283
   49CHL1   H7B 4745   5.211   1.593   3.180  1.0881  1.6043 -2.0125
   49CHL1    C8 4746   5.219   1.388   3.244  0.4316 -0.4381  0.3110
   49CHL1    H8 4747   5.303   1.316   3.237  0.1640 -1.1990  3.5206
   49CHL1   C14 4748   5.200   1.430   3.392  0.4050 -0.4475  0.1230
   49CHL1   H14 4749   5.112   1.497   3.389 -0.7990 -1.9959 -1.4865
   49CHL1   C15 4750   5.294   1.524   3.458 -0.7164  0.2791  0.4851
   49CHL1  H15A 4751   5.395   1.479   3.448 -0.9089  0.2170 -1.5568
   49CHL1  H15B 4752   5.281   1.630   3.425 -0.5701  0.3935  0.7913
   49CHL1   C16 4753   5.263   1.514   3.608  0.0321  0.1478  0.2067
   49CHL1  H16A 4754   5.351   1.483   3.668  0.0972  0.7636  0.4442
   49CHL1  H16B 4755   5.213   1.606   3.647 -0.8257  0.3105 -1.1778
   49CHL1   C17 4756   5.151   1.400   3.615 -0.4249 -0.0338 -0.3183
   49CHL1   H17 4757   5.059   1.459   3.596  0.9747  1.4328 -3.2053
   49CHL1   C13 4758   5.163   1.322   3.485 -0.2114 -0.0891  0.2555
   49CHL1   C18 4759   5.280   1.224   3.493  0.3392  0.3839  0.2996
   49CHL1  H18A 4760   5.262   1.149   3.573 -1.4665 -0.2350 -0.6219
   49CHL1  H18B 4761   5.312   1.176   3.398  0.7508 -1.0554  1.1263
   49CHL1  H18C 4762   5.372   1.271   3.534  1.1528 -1.1389  0.2994
   49CHL1   C12 4763   5.034   1.252   3.440 -0.3022 -0.2091  0.3822
   49CHL1  H12A 4764   5.012   1.165   3.505 -1.1312  0.9927  1.7842
   49CHL1  H12B 4765   4.955   1.331   3.438  1.0847  1.2211 -0.2556
   49CHL1   C11 4766   5.059   1.201   3.295  0.4571 -0.1105  0.4336
   49CHL1  H11A 4767   5.144   1.130   3.302  1.7735  1.5874  4.3137
   49CHL1  H11B 4768   4.972   1.140   3.261 -0.0330  0.8707 -0.1177
   49CHL1    C9 4769   5.097   1.311   3.198  0.5278 -0.0083  0.2640
   49CHL1    H9 4770   5.012   1.381   3.212  2.4787  2.3110  1.0865
   49CHL1   C10 4771   5.092   1.270   3.044 -0.3359  0.6321  0.6063
   49CHL1   C19 4772   5.168   1.137   3.045 -0.0099  0.3577  0.2418
   49CHL1  H19A 4773   5.184   1.100   2.942 -0.8270  1.9872 -0.5156
   49CHL1  H19B 4774   5.268   1.146   3.091  2.3019 -0.7486 -4.0342
   49CHL1  H19C 4775   5.103   1.061   3.092 -1.6758 -0.7295 -3.4297
   49CHL1    C1 4776   4.947   1.246   2.996 -0.4326 -0.4381  0.4715
   49CHL1   H1A 4777   4.891   1.185   3.070  1.0048  0.2293  2.1805
   49CHL1   H1B 4778   4.888   1.340   2.996 -0.8215 -0.6165  2.8784
   49CHL1    C2 4779   4.938   1.203   2.846 -0.5766 -0.5605 -0.5691
   49CHL1   H2A 4780   4.830   1.188   2.823 -0.9729  1.4529 -0.2072
   49CHL1   H2B 4781   4.983   1.103   2.827  0.0321 -0.4544  0.2912
   49CHL1   C20 4782   5.151   1.328   3.748  0.3635 -0.7400 -0.1019
   49CHL1   H20 4783   5.240   1.264   3.761 -1.7375 -3.5395  1.6363
   49CHL1   C21 4784   5.032   1.228   3.754  0.3289 -0.0901  0.3455
   49CHL1  H21A 4785   5.059   1.131   3.708 -2.8098 -0.9097  0.0161
   49CHL1  H21B 4786   4.950   1.281   3.701  0.3122 -1.5849 -1.2009
   49CHL1  H21C 4787   5.012   1.207   3.862 -1.8458  1.7041  0.3760
   49CHL1   C22 4788   5.144   1.428   3.865 -0.6776  0.2520 -1.3085
   49CHL1  H22A 4789   5.147   1.372   3.961 -1.2232 -1.5284 -2.2763
   49CHL1  H22B 4790   5.231   1.497   3.871 -1.2991  1.1044 -1.7627
   49CHL1   C23 4791   5.020   1.514   3.881 -0.1850 -0.2004  0.0198
   49CHL1  H23A 4792   5.006   1.581   3.794 -0.9823 -1.8111 -1.1560
   49CHL1  H23B 4793   4.927   1.457   3.903 -0.4375 -0.2535 -1.0979
   49CHL1   C24 4794   5.030   1.604   4.009  0.2138 -0.0188 -0.4919
   49CHL1  H24A 4795   5.026   1.539   4.098  1.6272  1.7088  0.9139
   49CHL1  H24B 4796   5.122   1.665   4.017 -1.9338  3.4066  0.5602
   49CHL1   C25 4797   4.921   1.712   4.010 -0.0186 -0.1468 -0.4801
   49CHL1   H25 4798   4.903   1.753   3.908  0.0465  2.2961  0.4341
   49CHL1   C26 4799   4.787   1.647   4.056  0.0943 -0.8528 -0.5287
   49CHL1  H26A 4800   4.757   1.580   3.972 -0.4694 -0.2485 -0.8192
   49CHL1  H26B 4801   4.791   1.602   4.157 -0.1973 -2.1453 -1.0596
   49CHL1  H26C 4802   4.708   1.725   4.063  1.2664  0.2873  0.2070
   49CHL1   C27 4803   4.955   1.832   4.102 -0.3385  0.5537 -0.5371
   49CHL1  H27A 4804   5.043   1.879   4.054 -1.8602  1.5687 -2.5297
   49CHL1  H27B 4805   4.878   1.913   4.111  1.1676  1.9982 -0.1909
   49CHL1  H27C 4806   4.983   1.810   4.207  0.0327  5.1529  0.5800
   50CHL1    C3 4807   5.885   4.233   2.572 -0.2690  0.5697  0.2012
   50CHL1    H3 4808   5.856   4.340   2.579 -1.6510  0.3311 -1.2199
   50CHL1    O3 4809   5.900   4.199   2.435 -0.2864 -0.0077  0.1355
   50CHL1   H3' 4810   5.956   4.122   2.433  0.2030  0.3474 -0.2367
   50CHL1    C4 4811   6.020   4.228   2.638  1.2136  0.2189 -0.5586
   50CHL1   H4A 4812   6.067   4.129   2.620 -2.3404 -1.8641  0.4249
   50CHL1   H4B 4813   6.074   4.310   2.588 -0.7163  0.9520 -1.5605
   50CHL1    C5 4814   5.989   4.242   2.789 -0.8797  0.2966  0.0818
   50CHL1    C6 4815   6.050   4.338   2.863 -0.0872  0.0632 -0.6471
   50CHL1    H6 4816   6.116   4.413   2.817  0.5776 -0.9099 -1.2957
   50CHL1    C7 4817   6.039   4.335   3.016 -0.4147  0.2879  0.7282
   50CHL1   H7A 4818   6.139   4.359   3.056  0.0081 -0.1092 -0.0597
   50CHL1   H7B 4819   5.964   4.412   3.044 -0.1061  0.6880  0.4717
   50CHL1    C8 4820   5.995   4.209   3.087 -0.2095 -0.2179  0.5600
   50CHL1    H8 4821   6.076   4.135   3.102 -0.1483  0.0636  1.6468
   50CHL1   C14 4822   5.934   4.240   3.232  0.3196  1.0745  0.7746
   50CHL1   H14 4823   5.849   4.306   3.205 -0.3097 -0.5426 -1.5255
   50CHL1   C15 4824   6.019   4.308   3.328  0.0586 -0.1664 -1.1582
   50CHL1  H15A 4825   6.129   4.300   3.316 -0.1182 -0.5600 -2.7713
   50CHL1  H15B 4826   6.010   4.415   3.299 -2.9198 -0.7115 -2.6400
   50CHL1   C16 4827   5.964   4.271   3.465 -0.0110  0.0422  0.2297
   50CHL1  H16A 4828   6.040   4.209   3.517  0.5007  0.0402 -0.4950
   50CHL1  H16B 4829   5.941   4.358   3.530  0.7422 -1.1460  2.1556
   50CHL1   C17 4830   5.841   4.173   3.437  0.5783 -0.1463 -0.1273
   50CHL1   H17 4831   5.752   4.239   3.427  0.7065 -0.1846 -1.7858
   50CHL1   C13 4832   5.877   4.112   3.296  0.3270 -0.2755  0.2288
   50CHL1   C18 4833   5.997   4.010   3.314 -0.0523 -0.2563 -0.9726
   50CHL1  H18A 4834   5.950   3.921   3.361  1.4450 -0.6102 -0.0618
   50CHL1  H18B 4835   6.041   3.974   3.218  1.1340 -0.2679 -0.4423
   50CHL1  H18C 4836   6.074   4.058   3.378 -0.5722  0.9011 -1.1909
   50CHL1   C12 4837   5.763   4.053   3.215 -0.5819  0.5303 -0.0346
   50CHL1  H12A 4838   5.726   3.961   3.265  0.9580  0.3166  0.7451
   50CHL1  H12B 4839   5.684   4.131   3.215 -1.9628 -0.8112  0.7486
   50CHL1   C11 4840   5.811   4.024   3.075 -0.0415 -0.4076  0.1029
   50CHL1  H11A 4841   5.883   3.940   3.072 -0.3059 -0.6296 -0.1493
   50CHL1  H11B 4842   5.717   4.000   3.020 -0.5432  1.8721 -0.1286
   50CHL1    C9 4843   5.879   4.146   3.008  0.0763 -0.2312 -0.3883
   50CHL1    H9 4844   5.805   4.229   3.017 -0.6826 -0.8085 -1.1693
   50CHL1   C10 4845   5.903   4.134   2.857 -0.1049 -0.0732 -0.6461
   50CHL1   C19 4846   5.965   3.994   2.848  0.2607  0.2081  0.2550
   50CHL1  H19A 4847   5.993   3.959   2.746  0.2693  0.6446  0.1074
   50CHL1  H19B 4848   6.053   3.993   2.915  0.2616  1.3472  0.2904
   50CHL1  H19C 4849   5.895   3.913   2.877 -1.3163  1.3265 -0.2589
   50CHL1    C1 4850   5.772   4.137   2.775  1.5619 -0.9581 -0.5103
   50CHL1   H1A 4851   5.700   4.059   2.809 -1.2033  1.7181  0.2545
   50CHL1   H1B 4852   5.716   4.230   2.798 -0.2730 -1.9804 -0.6445
   50CHL1    C2 4853   5.782   4.132   2.627 -0.9180 -0.0413  0.3893
   50CHL1   H2A 4854   5.680   4.148   2.587 -0.4866  0.2958 -0.6076
   50CHL1   H2B 4855   5.822   4.032   2.602 -0.7247 -0.6817  2.9218
   50CHL1   C20 4856   5.812   4.082   3.557  0.4660 -0.7667  0.1247
   50CHL1   H20 4857   5.899   4.015   3.571  0.2155 -1.2535 -0.5817
   50CHL1   C21 4858   5.687   3.989   3.532 -0.2467  0.9504 -0.1859
   50CHL1  H21A 4859   5.726   3.901   3.476 -0.8889 -1.1518  2.4436
   50CHL1  H21B 4860   5.603   4.026   3.469 -0.6029 -2.1978 -1.8119
   50CHL1  H21C 4861   5.645   3.958   3.630  0.3753  0.2198 -0.1348
   50CHL1   C22 4862   5.789   4.165   3.690  0.2062 -0.0333  0.6749
   50CHL1  H22A 4863   5.851   4.257   3.690 -2.2646  1.7803 -1.4537
   50CHL1  H22B 4864   5.687   4.208   3.696  0.8106  1.4193  1.0532
   50CHL1   C23 4865   5.827   4.072   3.813  0.0974 -0.3142 -0.1691
   50CHL1  H23A 4866   5.765   3.980   3.812  0.1526 -0.3735 -2.5355
   50CHL1  H23B 4867   5.932   4.038   3.799  0.3285  0.5131 -0.5192
   50CHL1   C24 4868   5.788   4.147   3.947  0.0369  0.1802  0.0763
   50CHL1  H24A 4869   5.837   4.247   3.950 -0.5627  0.5092 -0.7991
   50CHL1  H24B 4870   5.679   4.167   3.943  0.3333  1.6866 -1.0458
   50CHL1   C25 4871   5.828   4.065   4.075  0.7167 -0.2564 -0.1982
   50CHL1   H25 4872   5.807   3.959   4.049  0.1336 -0.1294 -0.2423
   50CHL1   C26 4873   5.976   4.075   4.108 -0.1463 -0.3517 -0.3484
   50CHL1  H26A 4874   6.000   4.007   4.193  0.6149  0.1932 -0.1204
   50CHL1  H26B 4875   6.048   4.071   4.024  0.3525  2.7724 -0.1987
   50CHL1  H26C 4876   6.002   4.176   4.145  0.5367 -0.6615  0.0249
   50CHL1   C27 4877   5.739   4.108   4.197  0.2378 -0.2103  0.7897
   50CHL1  H27A 4878   5.766   4.214   4.218 -1.7061  0.5975 -0.4348
   50CHL1  H27B 4879   5.630   4.101   4.177  0.0937 -1.4525  1.9344
   50CHL1  H27C 4880   5.758   4.046   4.287 -0.1481 -0.0172  1.0065
   51CHL1    C3 4881   3.890   5.442   2.627 -0.1301 -0.4690  0.1873
   51CHL1    H3 4882   3.968   5.364   2.617  0.9268  0.4047  1.3818
   51CHL1    O3 4883   3.865   5.498   2.498  0.2360  0.1579 -0.3853
   51CHL1   H3' 4884   3.950   5.534   2.473  1.2728 -1.0361  1.2389
   51CHL1    C4 4885   3.761   5.393   2.681 -0.5714 -0.1416 -0.1535
   51CHL1   H4A 4886   3.686   5.475   2.679 -0.1252  0.3034  0.7104
   51CHL1   H4B 4887   3.722   5.315   2.612  0.2747 -1.5001  0.8275
   51CHL1    C5 4888   3.780   5.347   2.825 -0.2495 -0.2068 -0.4483
   51CHL1    C6 4889   3.764   5.226   2.871  0.9009 -0.1568 -0.8022
   51CHL1    H6 4890   3.737   5.145   2.802  1.8703 -1.1438 -0.0655
   51CHL1    C7 4891   3.777   5.191   3.019 -0.0177 -0.4835  0.4069
   51CHL1   H7A 4892   3.692   5.125   3.044 -0.2448 -0.1355  0.5614
   51CHL1   H7B 4893   3.874   5.138   3.034  0.2733 -0.8428 -2.2638
   51CHL1    C8 4894   3.777   5.314   3.121 -0.5954  0.7459 -0.3677
   51CHL1    H8 4895   3.672   5.350   3.128  0.2876  4.2604 -2.5644
   51CHL1   C14 4896   3.839   5.276   3.256 -0.2710  0.2767  0.5236
   51CHL1   H14 4897   3.947   5.253   3.252  0.6192  3.6878  1.9194
   51CHL1   C15 4898   3.789   5.146   3.330  0.3937  0.0673 -0.0796
   51CHL1  H15A 4899   3.679   5.131   3.319  0.0158  0.4348  2.5965
   51CHL1  H15B 4900   3.838   5.054   3.292  0.6845 -0.3492  1.2721
   51CHL1   C16 4901   3.834   5.172   3.473  0.1888  0.6945 -0.5893
   51CHL1  H16A 4902   3.743   5.180   3.537  0.3711 -0.6802 -0.1140
   51CHL1  H16B 4903   3.901   5.095   3.518 -0.1360  0.0753 -1.1478
   51CHL1   C17 4904   3.900   5.312   3.482 -0.1190 -0.2961  0.3089
   51CHL1   H17 4905   4.007   5.293   3.460  0.3458 -0.1014  2.1673
   51CHL1   C13 4906   3.840   5.391   3.360 -0.7926 -0.1499 -0.0458
   51CHL1   C18 4907   3.692   5.432   3.397 -0.3357  0.0401  0.9463
   51CHL1  H18A 4908   3.631   5.490   3.324 -0.4400  1.0062  1.7729
   51CHL1  H18B 4909   3.633   5.348   3.439  0.6284  0.7170  3.8996
   51CHL1  H18C 4910   3.700   5.498   3.486  1.6145  0.4021  0.5461
   51CHL1   C12 4911   3.929   5.500   3.298  0.4357  0.5537  0.5981
   51CHL1  H12A 4912   3.934   5.596   3.354 -0.4054  1.4680 -0.8436
   51CHL1  H12B 4913   4.033   5.464   3.282 -0.2854 -1.7257  0.7056
   51CHL1   C11 4914   3.872   5.544   3.164 -0.1238  0.3319  1.3293
   51CHL1  H11A 4915   3.768   5.576   3.186  0.3055  2.0997  0.9982
   51CHL1  H11B 4916   3.911   5.635   3.113 -0.5084  0.1476  0.7030
   51CHL1    C9 4917   3.863   5.427   3.068  0.0581 -0.4712 -0.1017
   51CHL1    H9 4918   3.967   5.388   3.065  0.0070 -0.9437  2.3450
   51CHL1   C10 4919   3.829   5.466   2.921 -0.3809 -0.0340  0.4941
   51CHL1   C19 4920   3.711   5.573   2.916  0.5957  0.3151  0.1494
   51CHL1  H19A 4921   3.627   5.534   2.977  2.0909 -1.4829  1.1800
   51CHL1  H19B 4922   3.737   5.668   2.967  0.1561  0.5163  0.0019
   51CHL1  H19C 4923   3.681   5.612   2.816  0.9681  0.7868  0.2191
   51CHL1    C1 4924   3.954   5.530   2.866 -0.7858 -0.1217  0.8195
   51CHL1   H1A 4925   3.974   5.625   2.922  1.0290 -0.7553  1.3145
   51CHL1   H1B 4926   4.040   5.465   2.893  0.7789  2.1923  1.7764
   51CHL1    C2 4927   3.944   5.561   2.717 -0.1213  0.3066  0.2283
   51CHL1   H2A 4928   4.040   5.598   2.675  0.0213  1.8425  1.8170
   51CHL1   H2B 4929   3.876   5.648   2.707 -1.0122 -0.5677 -2.3173
   51CHL1   C20 4930   3.894   5.368   3.617  0.7947 -0.0772  0.1068
   51CHL1   H20 4931   3.794   5.395   3.658  1.3458 -0.6008  1.8718
   51CHL1   C21 4932   3.976   5.499   3.612 -0.3347 -0.1212 -0.0092
   51CHL1  H21A 4933   4.012   5.535   3.710  1.5128  1.5284 -1.2070
   51CHL1  H21B 4934   3.910   5.576   3.568  0.5482  0.2712 -0.6806
   51CHL1  H21C 4935   4.065   5.486   3.546  0.7695 -0.8246  1.5654
   51CHL1   C22 4936   3.945   5.266   3.732 -0.2376 -0.5681  0.0375
   51CHL1  H22A 4937   3.885   5.172   3.729 -2.5190  0.7142  2.1878
   51CHL1  H22B 4938   4.055   5.256   3.716 -0.1255  0.5819  0.0063
   51CHL1   C23 4939   3.916   5.317   3.877 -0.8037 -0.1355  0.0903
   51CHL1  H23A 4940   3.941   5.425   3.888  0.5936 -0.6969  4.1354
   51CHL1  H23B 4941   3.809   5.316   3.905 -0.2488 -1.4774  2.4682
   51CHL1   C24 4942   4.006   5.253   3.983  0.3534  0.2284 -0.0866
   51CHL1  H24A 4943   3.990   5.144   3.973 -0.3052  0.3741 -0.6575
   51CHL1  H24B 4944   4.114   5.280   3.973  0.5389 -0.2523  0.5355
   51CHL1   C25 4945   3.975   5.303   4.135 -0.5202  0.0953  0.3747
   51CHL1   H25 4946   3.991   5.413   4.137 -2.9494  0.5634  3.6464
   51CHL1   C26 4947   3.837   5.258   4.173  0.3872  0.2608 -0.1045
   51CHL1  H26A 4948   3.767   5.270   4.088 -2.3398  1.1367  2.1406
   51CHL1  H26B 4949   3.845   5.148   4.191 -1.8847  0.0723 -0.0133
   51CHL1  H26C 4950   3.787   5.306   4.259  1.1018 -0.8531  0.9816
   51CHL1   C27 4951   4.079   5.242   4.222 -0.2794 -0.5060 -0.1703
   51CHL1  H27A 4952   4.043   5.205   4.321  0.0760  0.4774  0.3428
   51CHL1  H27B 4953   4.111   5.145   4.178  1.2773 -0.8404  1.5642
   51CHL1  H27C 4954   4.165   5.311   4.234 -1.0068  0.1661  1.6102
   52CHL1    C3 4955   3.876   0.319   2.848 -0.0591 -0.5108  0.2050
   52CHL1    H3 4956   3.786   0.256   2.865  0.0737 -0.9109 -0.5258
   52CHL1    O3 4957   3.889   0.343   2.708  0.1177  0.7321  0.2154
   52CHL1   H3' 4958   3.894   0.253   2.674 -0.5826  0.5902  0.4794
   52CHL1    C4 4959   3.850   0.457   2.922  0.0105 -0.2662  0.8750
   52CHL1   H4A 4960   3.927   0.519   2.873 -0.4402 -0.1038  0.3620
   52CHL1   H4B 4961   3.751   0.486   2.880  0.4750 -1.6230 -1.3262
   52CHL1    C5 4962   3.858   0.444   3.068  0.2306 -0.1431 -0.3479
   52CHL1    C6 4963   3.759   0.495   3.147 -0.5904 -0.8443 -0.1643
   52CHL1    H6 4964   3.672   0.545   3.103 -0.0856  1.2341  1.0576
   52CHL1    C7 4965   3.757   0.494   3.298 -0.0415  0.1097 -0.0465
   52CHL1   H7A 4966   3.730   0.597   3.329 -1.6116 -0.3998  0.3472
   52CHL1   H7B 4967   3.689   0.420   3.345  1.0266 -0.4301  0.6929
   52CHL1    C8 4968   3.900   0.463   3.363 -0.7664 -0.4056  0.9093
   52CHL1    H8 4969   3.963   0.555   3.354 -0.3482 -0.2918  3.8868
   52CHL1   C14 4970   3.888   0.434   3.508 -0.4792 -1.1196 -0.2106
   52CHL1   H14 4971   3.828   0.340   3.506  0.2197 -1.5655 -1.8255
   52CHL1   C15 4972   3.837   0.537   3.597  0.6802 -0.4983 -0.0972
   52CHL1  H15A 4973   3.893   0.630   3.578  0.7445 -0.7134 -1.0140
   52CHL1  H15B 4974   3.729   0.560   3.584  1.3094  3.2982  0.3097
   52CHL1   C16 4975   3.867   0.496   3.741  0.2909 -0.3221  0.6396
   52CHL1  H16A 4976   3.899   0.591   3.790  2.0046  0.8842 -2.5383
   52CHL1  H16B 4977   3.777   0.454   3.792  0.8472 -1.1160  0.9832
   52CHL1   C17 4978   3.981   0.392   3.724  0.3406 -0.3699  0.3527
   52CHL1   H17 4979   3.933   0.292   3.723 -0.9105  0.2178  0.0874
   52CHL1   C13 4980   4.025   0.404   3.570 -0.0066 -0.5017 -0.0373
   52CHL1   C18 4981   4.136   0.517   3.547 -0.7778 -0.6738 -0.5467
   52CHL1  H18A 4982   4.137   0.551   3.442 -1.4404 -0.0672 -0.3637
   52CHL1  H18B 4983   4.105   0.603   3.610 -1.9121 -0.1368 -1.7982
   52CHL1  H18C 4984   4.230   0.468   3.582 -1.0385  0.0269  1.2271
   52CHL1   C12 4985   4.074   0.276   3.505  0.5627 -0.6469  0.1625
   52CHL1  H12A 4986   4.168   0.243   3.554 -0.4636 -2.8938  0.7431
   52CHL1  H12B 4987   4.006   0.194   3.537  0.5487 -1.5373 -2.0170
   52CHL1   C11 4988   4.089   0.286   3.348  0.2420  0.0828  0.0229
   52CHL1  H11A 4989   4.177   0.353   3.337 -0.9967  1.6855 -0.4993
   52CHL1  H11B 4990   4.105   0.188   3.299 -0.3382  0.6020 -1.2336
   52CHL1    C9 4991   3.959   0.344   3.281 -0.2473  0.1747 -0.5662
   52CHL1    H9 4992   3.882   0.264   3.290  0.1125  0.0259  2.2666
   52CHL1   C10 4993   3.982   0.371   3.131 -0.5750 -0.1774  0.2526
   52CHL1   C19 4994   4.099   0.472   3.113  0.0415  0.0840 -0.1548
   52CHL1  H19A 4995   4.111   0.507   3.008 -0.0398  1.3141  0.2340
   52CHL1  H19B 4996   4.067   0.569   3.158 -1.1640  0.2052 -1.2108
   52CHL1  H19C 4997   4.197   0.444   3.157  1.3098  1.2680 -2.0759
   52CHL1    C1 4998   4.009   0.237   3.052  0.2903 -0.0659 -0.3991
   52CHL1   H1A 4999   4.107   0.199   3.087  0.1823  1.1012  1.3205
   52CHL1   H1B 5000   3.933   0.161   3.077 -0.6941  0.6385 -1.1556
   52CHL1    C2 5001   4.003   0.249   2.900  0.1639  0.2549 -0.1026
   52CHL1   H2A 5002   4.020   0.152   2.850 -1.9575 -0.4125  0.3662
   52CHL1   H2B 5003   4.086   0.308   2.855 -1.1729  0.6500 -2.1620
   52CHL1   C20 5004   4.096   0.396   3.823 -0.6200  0.9471 -0.6370
   52CHL1   H20 5005   4.188   0.352   3.779 -1.1371 -0.9216  0.0771
   52CHL1   C21 5006   4.063   0.293   3.935  0.1520  0.5679 -0.0829
   52CHL1  H21A 5007   4.061   0.190   3.894  2.8581  1.0582 -1.7490
   52CHL1  H21B 5008   3.970   0.322   3.988  1.4163  1.7312  1.6075
   52CHL1  H21C 5009   4.143   0.289   4.012  0.5424  0.8540 -0.4623
   52CHL1   C22 5010   4.132   0.528   3.896 -0.1136 -0.0677 -0.8128
   52CHL1  H22A 5011   4.123   0.609   3.820 -0.4423 -2.1571 -3.1466
   52CHL1  H22B 5012   4.064   0.547   3.981  1.4460 -2.2264  1.0558
   52CHL1   C23 5013   4.273   0.524   3.956  0.2977 -0.3730  0.8800
   52CHL1  H23A 5014   4.266   0.442   4.030 -0.1019 -2.6142 -1.4908
   52CHL1  H23B 5015   4.339   0.491   3.873  1.1152  0.2012  1.2881
   52CHL1   C24 5016   4.325   0.657   4.001 -0.6774 -0.0056  0.2001
   52CHL1  H24A 5017   4.433   0.650   4.025 -0.7679  0.5991  0.8217
   52CHL1  H24B 5018   4.324   0.731   3.917 -0.3266 -1.2329 -0.9174
   52CHL1   C25 5019   4.249   0.725   4.124  0.3950  0.5342  0.1178
   52CHL1   H25 5020   4.145   0.740   4.088  0.5500 -1.1384 -1.1673
   52CHL1   C26 5021   4.245   0.637   4.250  0.2893  0.0574 -0.2706
   52CHL1  H26A 5022   4.224   0.529   4.241  1.2208 -0.2457  0.9043
   52CHL1  H26B 5023   4.349   0.647   4.288 -0.0542  1.0312  0.4613
   52CHL1  H26C 5024   4.185   0.684   4.331 -0.3168 -2.0157  0.5459
   52CHL1   C27 5025   4.311   0.866   4.161  0.4905  0.9190  0.2507
   52CHL1  H27A 5026   4.255   0.908   4.248  1.7081  0.3954  1.3031
   52CHL1  H27B 5027   4.413   0.840   4.195  0.5517  0.2949 -0.4065
   52CHL1  H27C 5028   4.305   0.939   4.077  0.7350  1.3200  0.5776
   53CHL1    C3 5029   3.386   0.122   2.860 -0.6349 -0.3497  0.3002
   53CHL1    H3 5030   3.415   0.229   2.852  1.2960 -0.7280  1.5720
   53CHL1    O3 5031   3.368   0.064   2.732 -0.1235  0.4951  0.7808
   53CHL1   H3' 5032   3.326  -0.021   2.748 -0.1122  0.5584  1.1648
   53CHL1    C4 5033   3.495   0.035   2.927 -0.3461  0.0229 -0.0713
   53CHL1   H4A 5034   3.481  -0.074   2.908  0.5404  0.2837 -2.6420
   53CHL1   H4B 5035   3.588   0.054   2.869  0.5728 -2.0199  0.6220
   53CHL1    C5 5036   3.515   0.073   3.070  0.4067  0.3733 -0.9213
   53CHL1    C6 5037   3.631   0.104   3.124 -0.6564  0.5185 -0.2137
   53CHL1    H6 5038   3.723   0.111   3.065 -0.4123  1.9253  0.2932
   53CHL1    C7 5039   3.661   0.109   3.270  0.6325  0.6845  0.3190
   53CHL1   H7A 5040   3.755   0.055   3.294 -1.1436 -3.1594 -0.4805
   53CHL1   H7B 5041   3.655   0.217   3.294 -0.5552  0.8484 -0.5992
   53CHL1    C8 5042   3.541   0.054   3.366 -0.7548 -1.2569  0.6882
   53CHL1    H8 5043   3.537  -0.057   3.366 -1.0790 -1.2460  0.6562
   53CHL1   C14 5044   3.567   0.102   3.509 -0.2645 -0.4709 -0.5172
   53CHL1   H14 5045   3.560   0.213   3.510 -3.0405 -0.5430  1.0672
   53CHL1   C15 5046   3.696   0.070   3.585 -1.0540 -0.5761 -1.0497
   53CHL1  H15A 5047   3.733  -0.034   3.567  0.0977 -0.7534  1.8696
   53CHL1  H15B 5048   3.776   0.143   3.562 -0.3353 -0.8046  0.6241
   53CHL1   C16 5049   3.661   0.094   3.729 -0.0661  0.0637 -1.0974
   53CHL1  H16A 5050   3.696   0.008   3.791 -0.8611  1.5002  1.4734
   53CHL1  H16B 5051   3.718   0.181   3.768  0.5925 -0.0483 -1.7794
   53CHL1   C17 5052   3.510   0.118   3.736 -0.6402  0.3841  0.3522
   53CHL1   H17 5053   3.486   0.227   3.731 -1.6549  0.2476  1.6248
   53CHL1   C13 5054   3.455   0.064   3.606  0.4334  0.2321  0.2347
   53CHL1   C18 5055   3.447  -0.094   3.615  0.2629 -0.3611  0.3309
   53CHL1  H18A 5056   3.546  -0.133   3.647  0.5488 -0.5195 -0.7266
   53CHL1  H18B 5057   3.361  -0.123   3.678 -1.3299 -2.0843 -2.4617
   53CHL1  H18C 5058   3.428  -0.142   3.517  0.4915 -0.8788  0.5360
   53CHL1   C12 5059   3.313   0.114   3.553  0.4094 -0.7571  0.9595
   53CHL1  H12A 5060   3.235   0.067   3.617 -0.5663  0.0796  0.4291
   53CHL1  H12B 5061   3.304   0.223   3.570 -0.9811 -0.4453 -1.2476
   53CHL1   C11 5062   3.285   0.077   3.403  0.5130  0.4289  0.1631
   53CHL1  H11A 5063   3.265  -0.032   3.403 -4.3229  1.1301  0.5487
   53CHL1  H11B 5064   3.194   0.135   3.377 -0.4320 -1.1189 -0.1211
   53CHL1    C9 5065   3.402   0.107   3.308  0.1925  0.5153 -0.1583
   53CHL1    H9 5066   3.420   0.216   3.312 -0.8672  0.6804  0.5562
   53CHL1   C10 5067   3.387   0.060   3.156 -0.0083  0.2955 -0.0291
   53CHL1   C19 5068   3.340  -0.088   3.156  0.4906 -0.7869  0.4915
   53CHL1  H19A 5069   3.246  -0.109   3.213  0.3098 -1.0165  0.1127
   53CHL1  H19B 5070   3.325  -0.126   3.053  2.4156 -1.3363  0.3782
   53CHL1  H19C 5071   3.408  -0.160   3.207 -1.6840 -2.6211  1.0181
   53CHL1    C1 5072   3.272   0.142   3.085  0.0794 -0.2441 -0.2214
   53CHL1   H1A 5073   3.179   0.109   3.135  0.8836  0.3861  1.8274
   53CHL1   H1B 5074   3.290   0.249   3.108 -0.7698  0.6852 -3.4237
   53CHL1    C2 5075   3.259   0.113   2.941  0.0596  0.1696 -0.4038
   53CHL1   H2A 5076   3.174   0.167   2.895  0.6917  0.3385 -1.4110
   53CHL1   H2B 5077   3.218   0.009   2.936 -1.6058  0.8391 -2.0208
   53CHL1   C20 5078   3.448   0.072   3.873 -0.0201  0.8680  0.5948
   53CHL1   H20 5079   3.453  -0.039   3.872  3.5400  0.9103  1.6993
   53CHL1   C21 5080   3.292   0.101   3.879  0.2438 -0.1443 -0.2973
   53CHL1  H21A 5081   3.261   0.080   3.984 -0.6479  1.3782 -0.2319
   53CHL1  H21B 5082   3.241   0.027   3.815 -0.7795 -0.2629  0.6235
   53CHL1  H21C 5083   3.259   0.203   3.853 -0.7412  0.2589  2.1915
   53CHL1   C22 5084   3.527   0.122   3.997  0.6479  0.5734 -0.4495
   53CHL1  H22A 5085   3.478   0.080   4.088  0.3736 -0.8145 -1.2040
   53CHL1  H22B 5086   3.625   0.069   4.009 -0.9283 -1.9993  2.7839
   53CHL1   C23 5087   3.521   0.268   4.020  0.8073 -1.1050 -0.0553
   53CHL1  H23A 5088   3.551   0.327   3.930 -2.2755  3.6413  1.6657
   53CHL1  H23B 5089   3.419   0.299   4.049  1.1905  0.2363 -0.0923
   53CHL1   C24 5090   3.621   0.312   4.134 -0.3758  0.2267 -0.0059
   53CHL1  H24A 5091   3.580   0.279   4.231  1.3844  0.4522  0.8533
   53CHL1  H24B 5092   3.718   0.260   4.115 -0.6376 -0.2084 -0.1819
   53CHL1   C25 5093   3.653   0.468   4.142  0.3411  0.1240  0.1221
   53CHL1   H25 5094   3.688   0.502   4.042 -1.4533  0.3433 -0.4718
   53CHL1   C26 5095   3.524   0.553   4.178 -0.9471 -0.0711 -0.2003
   53CHL1  H26A 5096   3.499   0.526   4.282  1.6838 -2.4213 -0.0510
   53CHL1  H26B 5097   3.532   0.663   4.167 -0.3714  0.1663  2.0931
   53CHL1  H26C 5098   3.438   0.519   4.117 -1.4606  0.8609 -0.0142
   53CHL1   C27 5099   3.764   0.501   4.243  0.5386  0.9702 -0.0373
   53CHL1  H27A 5100   3.854   0.436   4.229 -1.7487 -2.9947  2.0118
   53CHL1  H27B 5101   3.779   0.611   4.243 -0.3319  1.0954  0.8399
   53CHL1  H27C 5102   3.723   0.464   4.339 -0.2783  3.6766  0.7608
   54CHL1    C3 5103   4.563   0.812   2.932  0.4116 -0.2655 -0.7477
   54CHL1    H3 5104   4.644   0.745   2.968  0.1578 -0.6650 -0.9190
   54CHL1    O3 5105   4.550   0.769   2.797  0.3446  0.1521 -0.5231
   54CHL1   H3' 5106   4.518   0.679   2.806 -0.8061  0.7223  1.8166
   54CHL1    C4 5107   4.434   0.795   3.008 -0.0161 -0.0443 -1.0516
   54CHL1   H4A 5108   4.353   0.861   2.968 -1.5386  1.3172  3.6837
   54CHL1   H4B 5109   4.396   0.691   3.003 -2.0564  0.6572 -1.2108
   54CHL1    C5 5110   4.449   0.834   3.152  0.7051 -0.1760  0.1980
   54CHL1    C6 5111   4.421   0.747   3.253 -0.3505  0.7869 -0.3973
   54CHL1    H6 5112   4.382   0.644   3.242 -1.1444  0.9948  0.3575
   54CHL1    C7 5113   4.429   0.776   3.395  0.2022  0.2143  0.3999
   54CHL1   H7A 5114   4.337   0.740   3.446  1.3414 -1.3205  1.4381
   54CHL1   H7B 5115   4.516   0.719   3.433  0.4029  0.1540 -0.1347
   54CHL1    C8 5116   4.445   0.925   3.419  0.5458  0.4004 -0.2069
   54CHL1    H8 5117   4.348   0.977   3.405 -0.0229 -1.0867 -2.3559
   54CHL1   C14 5118   4.488   0.947   3.564 -1.1275 -0.3704 -0.2321
   54CHL1   H14 5119   4.588   0.900   3.573 -1.1903 -0.5063 -0.2398
   54CHL1   C15 5120   4.405   0.888   3.675  0.3990 -0.6878  0.3970
   54CHL1  H15A 5121   4.299   0.919   3.669  0.7723  0.8049  1.1036
   54CHL1  H15B 5122   4.417   0.777   3.683 -0.2523 -0.9268 -1.4671
   54CHL1   C16 5123   4.455   0.953   3.804  0.0340  0.0497  0.3877
   54CHL1  H16A 5124   4.368   0.986   3.864  0.2295 -1.0365  1.2800
   54CHL1  H16B 5125   4.506   0.881   3.871 -1.4687  0.5531  2.1543
   54CHL1   C17 5126   4.544   1.080   3.760  0.2837 -0.2542 -0.9580
   54CHL1   H17 5127   4.648   1.044   3.774  0.7737  1.0259 -1.1380
   54CHL1   C13 5128   4.506   1.094   3.611  0.0542  0.0341  0.0173
   54CHL1   C18 5129   4.377   1.172   3.613  0.0286  0.3056  0.6370
   54CHL1  H18A 5130   4.328   1.170   3.514  0.6321 -0.3160  0.3442
   54CHL1  H18B 5131   4.301   1.132   3.684 -0.6339 -0.0915 -0.2787
   54CHL1  H18C 5132   4.391   1.280   3.634 -2.5834  0.7988  0.1595
   54CHL1   C12 5133   4.610   1.162   3.519 -0.4321 -0.3919 -0.1248
   54CHL1  H12A 5134   4.615   1.269   3.550  0.1468 -0.4936  0.1428
   54CHL1  H12B 5135   4.713   1.124   3.534  0.4582  0.0407 -4.0031
   54CHL1   C11 5136   4.569   1.142   3.373 -0.3276 -0.2342 -0.3541
   54CHL1  H11A 5137   4.467   1.186   3.363  0.1352  1.0508  0.3255
   54CHL1  H11B 5138   4.641   1.195   3.308 -0.8455 -2.0122 -2.4718
   54CHL1    C9 5139   4.547   0.996   3.324  0.2234 -0.2944 -0.1815
   54CHL1    H9 5140   4.641   0.942   3.348 -1.2856 -1.7633  3.0874
   54CHL1   C10 5141   4.506   0.978   3.177 -0.1108 -0.3360  0.0801
   54CHL1   C19 5142   4.399   1.083   3.135 -0.0182 -0.3414  0.3049
   54CHL1  H19A 5143   4.342   1.071   3.040  0.1695 -0.2013  0.1714
   54CHL1  H19B 5144   4.331   1.113   3.217 -0.8744  1.1942 -0.8886
   54CHL1  H19C 5145   4.457   1.178   3.129  0.2278 -0.5292 -0.4496
   54CHL1    C1 5146   4.631   0.991   3.079  0.9920 -0.2827 -0.1945
   54CHL1   H1A 5147   4.679   1.090   3.095 -0.5675  0.4596  0.0523
   54CHL1   H1B 5148   4.705   0.920   3.123 -1.1007 -0.8747  2.7226
   54CHL1    C2 5149   4.609   0.958   2.930  0.2234  0.2330  0.3449
   54CHL1   H2A 5150   4.706   0.963   2.876 -0.0602 -2.7048 -0.6448
   54CHL1   H2B 5151   4.535   1.032   2.894  0.4464  1.2894  1.9225
   54CHL1   C20 5152   4.523   1.187   3.866 -0.1884 -0.1682  0.5366
   54CHL1   H20 5153   4.422   1.233   3.866  1.0690  2.8313  1.0514
   54CHL1   C21 5154   4.618   1.305   3.829  0.0573 -0.0902 -0.3573
   54CHL1  H21A 5155   4.602   1.375   3.914  0.8489  0.4589 -0.6417
   54CHL1  H21B 5156   4.579   1.353   3.736 -1.1949  1.8318  1.0867
   54CHL1  H21C 5157   4.720   1.263   3.814  0.1281 -0.8368  1.9043
   54CHL1   C22 5158   4.546   1.161   4.018  0.1192  0.0315 -0.0794
   54CHL1  H22A 5159   4.531   1.258   4.070  1.8112  0.1977  0.1498
   54CHL1  H22B 5160   4.471   1.089   4.057  1.0655  0.5580  2.9423
   54CHL1   C23 5161   4.681   1.109   4.057 -0.0876  0.4275 -0.2098
   54CHL1  H23A 5162   4.692   1.009   4.010  1.5319  0.5941 -0.2379
   54CHL1  H23B 5163   4.765   1.174   4.024  0.4022 -0.5008 -0.8382
   54CHL1   C24 5164   4.690   1.079   4.207 -0.0059  0.7948 -0.2594
   54CHL1  H24A 5165   4.599   1.016   4.221 -0.7504  1.2171 -2.7422
   54CHL1  H24B 5166   4.776   1.015   4.238 -0.7720  0.9066  2.4065
   54CHL1   C25 5167   4.681   1.201   4.307  0.9497  0.1416 -0.2740
   54CHL1   H25 5168   4.600   1.266   4.268 -0.7469 -0.6126  1.7899
   54CHL1   C26 5169   4.650   1.142   4.443  0.5297 -0.1588 -0.2789
   54CHL1  H26A 5170   4.722   1.060   4.463  1.8810  1.3348  1.4143
   54CHL1  H26B 5171   4.665   1.223   4.518  0.5064 -1.2547  0.9245
   54CHL1  H26C 5172   4.544   1.111   4.453  0.7552 -0.3311  2.1968
   54CHL1   C27 5173   4.813   1.285   4.307 -0.0621  0.1950  0.1186
   54CHL1  H27A 5174   4.886   1.246   4.381 -0.6709 -0.6712  0.2756
   54CHL1  H27B 5175   4.853   1.276   4.204  0.9619 -4.6520  0.7355
   54CHL1  H27C 5176   4.789   1.390   4.335 -0.6585  0.7813 -2.3225
   55CHL1    C3 5177   0.365   2.823   2.657  0.5966 -1.4139 -0.1656
   55CHL1    H3 5178   0.339   2.930   2.668  1.6891 -1.1724  0.2175
   55CHL1    O3 5179   0.340   2.787   2.521  0.3880 -0.2661 -0.6554
   55CHL1   H3' 5180   0.251   2.752   2.526  1.0272 -1.8447  0.6050
   55CHL1    C4 5181   0.507   2.799   2.700  0.5727  0.3639  0.2427
   55CHL1   H4A 5182   0.538   2.695   2.681  0.3776  0.1373  1.0979
   55CHL1   H4B 5183   0.571   2.852   2.627 -0.2848  1.0366 -0.0524
   55CHL1    C5 5184   0.533   2.858   2.837  0.3175  0.7333 -0.1666
   55CHL1    C6 5185   0.625   2.949   2.863  0.0703  0.6658  1.2641
   55CHL1    H6 5186   0.690   2.986   2.783 -0.3654 -0.5666  0.2981
   55CHL1    C7 5187   0.658   2.993   2.999  0.1891 -0.3329 -0.3664
   55CHL1   H7A 5188   0.767   2.995   3.017 -0.2353 -0.6536  2.9665
   55CHL1   H7B 5189   0.631   3.100   3.005 -3.9573 -1.1795 -0.8065
   55CHL1    C8 5190   0.593   2.907   3.115  0.5938  0.3997  0.6138
   55CHL1    H8 5191   0.662   2.821   3.124 -0.6661 -0.8932 -1.2612
   55CHL1   C14 5192   0.591   2.989   3.242 -0.3490  0.4922 -0.3082
   55CHL1   H14 5193   0.530   3.079   3.221  0.0669  0.8799  0.1093
   55CHL1   C15 5194   0.726   3.026   3.297  0.4786  0.2837 -0.2396
   55CHL1  H15A 5195   0.790   2.935   3.302 -0.8507 -0.6673 -0.0559
   55CHL1  H15B 5196   0.782   3.108   3.246  0.8701 -0.9052 -1.8144
   55CHL1   C16 5197   0.691   3.049   3.452 -0.7584 -0.8567 -0.6679
   55CHL1  H16A 5198   0.762   2.996   3.519 -0.9599 -1.7101 -1.1223
   55CHL1  H16B 5199   0.701   3.155   3.485 -0.6562 -0.8502 -0.7200
   55CHL1   C17 5200   0.547   3.008   3.478 -0.6684  0.1457  0.2256
   55CHL1   H17 5201   0.488   3.099   3.453 -1.5204 -0.4477  0.0159
   55CHL1   C13 5202   0.531   2.910   3.356  0.5100 -0.6791  0.8246
   55CHL1   C18 5203   0.583   2.772   3.397 -0.3456  0.6626 -0.1645
   55CHL1  H18A 5204   0.516   2.731   3.475  0.5736 -0.0437  0.2805
   55CHL1  H18B 5205   0.585   2.705   3.308  1.0886  0.4762 -0.0275
   55CHL1  H18C 5206   0.682   2.783   3.446 -1.3242  1.2998  1.7666
   55CHL1   C12 5207   0.376   2.894   3.312 -0.0714  0.3007 -0.1501
   55CHL1  H12A 5208   0.325   2.840   3.395  3.0959 -1.6934  0.6838
   55CHL1  H12B 5209   0.340   2.998   3.301  1.7616  0.8665 -1.2379
   55CHL1   C11 5210   0.367   2.807   3.189 -0.4671  0.5173 -0.1961
   55CHL1  H11A 5211   0.386   2.702   3.220 -2.0846  0.7557  1.8221
   55CHL1  H11B 5212   0.262   2.810   3.153 -0.4045  1.5529 -0.3262
   55CHL1    C9 5213   0.452   2.863   3.079 -0.2753  0.1815  0.6779
   55CHL1    H9 5214   0.393   2.953   3.051 -0.9128 -0.1605  0.9140
   55CHL1   C10 5215   0.442   2.793   2.940  0.1768 -0.4763 -0.8657
   55CHL1   C19 5216   0.478   2.644   2.971 -0.8277 -0.1701  0.7758
   55CHL1  H19A 5217   0.585   2.640   3.000 -0.5622  0.7782  0.0084
   55CHL1  H19B 5218   0.410   2.593   3.042  0.0611 -2.5971 -0.0385
   55CHL1  H19C 5219   0.480   2.588   2.875 -1.3316 -1.5924  1.5743
   55CHL1    C1 5220   0.292   2.807   2.892  0.0068  1.0269 -0.5019
   55CHL1   H1A 5221   0.226   2.748   2.959  0.3815  0.9452 -0.2014
   55CHL1   H1B 5222   0.260   2.913   2.883  2.5764  1.8928 -0.0809
   55CHL1    C2 5223   0.260   2.748   2.750 -0.6563 -0.0111  0.9248
   55CHL1   H2A 5224   0.157   2.766   2.713 -1.0323 -1.5057  1.1667
   55CHL1   H2B 5225   0.265   2.638   2.732 -1.4258  0.3123 -1.7756
   55CHL1   C20 5226   0.517   2.969   3.632  0.5706 -0.1602  0.5218
   55CHL1   H20 5227   0.571   2.874   3.652 -0.8848 -1.1287 -0.0072
   55CHL1   C21 5228   0.367   2.935   3.650 -0.8873 -0.3456  0.3947
   55CHL1  H21A 5229   0.344   2.931   3.759  2.1919  0.0966  1.1581
   55CHL1  H21B 5230   0.337   2.838   3.605 -0.0252 -0.0216 -0.8915
   55CHL1  H21C 5231   0.311   3.006   3.585 -0.4967 -1.8621 -1.6749
   55CHL1   C22 5232   0.576   3.069   3.740  0.6761  0.7411  0.2486
   55CHL1  H22A 5233   0.687   3.076   3.735  0.9511 -0.6268  2.8425
   55CHL1  H22B 5234   0.535   3.168   3.712  1.3178  0.1964 -3.0898
   55CHL1   C23 5235   0.540   3.032   3.886 -0.4710 -0.1597  0.2832
   55CHL1  H23A 5236   0.429   3.042   3.897 -0.7640  0.7406 -2.4912
   55CHL1  H23B 5237   0.572   2.929   3.908 -2.0738 -0.9106 -0.6796
   55CHL1   C24 5238   0.606   3.120   4.003  0.7097 -0.1409 -0.0337
   55CHL1  H24A 5239   0.714   3.100   4.015  0.3090 -1.5018  1.8429
   55CHL1  H24B 5240   0.589   3.227   3.977 -0.8383  0.1412  1.9074
   55CHL1   C25 5241   0.522   3.133   4.137 -0.3037  0.0107 -0.3378
   55CHL1   H25 5242   0.435   3.199   4.115  0.4149  1.0550 -0.1235
   55CHL1   C26 5243   0.475   2.997   4.189 -0.0222  0.4570  0.2670
   55CHL1  H26A 5244   0.559   2.924   4.194  0.4301  1.0238  1.1609
   55CHL1  H26B 5245   0.442   3.015   4.294 -1.2608 -0.8761  0.1345
   55CHL1  H26C 5246   0.399   2.952   4.121  1.9044 -2.7760  0.0712
   55CHL1   C27 5247   0.614   3.194   4.241  0.5434  0.2108 -0.1627
   55CHL1  H27A 5248   0.685   3.271   4.202  1.5209  0.6645  2.2816
   55CHL1  H27B 5249   0.546   3.245   4.312 -0.6693  1.4445 -2.1100
   55CHL1  H27C 5250   0.668   3.114   4.296 -2.6291 -0.9355  1.5146
   56CHL1    C3 5251   1.167   5.959   3.609 -0.1756 -0.9644 -0.2067
   56CHL1    H3 5252   1.239   5.878   3.637 -1.5200 -2.2200 -0.2623
   56CHL1    O3 5253   1.163   5.949   3.465  0.5736  0.0845  0.2444
   56CHL1   H3' 5254   1.136   5.858   3.450  2.7181 -0.9005  1.8495
   56CHL1    C4 5255   1.032   5.932   3.677 -0.2921  0.4920  0.5311
   56CHL1   H4A 5256   0.955   6.000   3.635 -1.6438 -0.4926  1.3665
   56CHL1   H4B 5257   1.009   5.828   3.647  1.3582  0.3133 -0.2134
   56CHL1    C5 5258   1.038   5.960   3.823 -0.4622  0.3059  0.0844
   56CHL1    C6 5259   1.004   5.865   3.908 -0.0058 -0.5125  0.2063
   56CHL1    H6 5260   0.972   5.767   3.869  1.9277 -1.3150  0.5207
   56CHL1    C7 5261   1.016   5.873   4.054 -0.3936 -0.4166  0.7210
   56CHL1   H7A 5262   0.933   5.822   4.107 -1.0012  1.3853  1.6074
   56CHL1   H7B 5263   1.112   5.831   4.090  0.9479  0.1966 -1.9054
   56CHL1    C8 5264   1.008   6.021   4.101 -0.1585  0.3825  0.8792
   56CHL1    H8 5265   0.910   6.064   4.070 -1.1009 -1.0823  1.6981
   56CHL1   C14 5266   1.022   6.032   4.254 -0.7916 -0.5315  0.0802
   56CHL1   H14 5267   1.122   5.992   4.283 -0.4122  0.7001  0.5341
   56CHL1   C15 5268   0.920   5.961   4.342  0.3563 -0.3505 -0.0607
   56CHL1  H15A 5269   0.821   5.991   4.302  0.0477  0.8176  1.4805
   56CHL1  H15B 5270   0.915   5.850   4.351  1.4291 -0.5497 -1.5699
   56CHL1   C16 5271   0.930   6.041   4.477 -0.6770 -0.2619  0.3318
   56CHL1  H16A 5272   0.829   6.083   4.499 -0.3337 -0.7413  3.2230
   56CHL1  H16B 5273   0.961   5.977   4.562  1.2838  0.5073  0.2430
   56CHL1   C17 5274   1.035   6.154   4.455 -0.6155  0.0140 -0.1141
   56CHL1   H17 5275   1.132   6.121   4.500 -0.2414  2.2874  0.9180
   56CHL1   C13 5276   1.037   6.181   4.308 -0.0304  0.3301  0.7331
   56CHL1   C18 5277   0.912   6.261   4.275  0.1923 -0.6925  0.1931
   56CHL1  H18A 5278   0.890   6.259   4.166  1.2557 -1.7940 -0.0217
   56CHL1  H18B 5279   0.818   6.223   4.321 -0.8297  0.6855 -0.6911
   56CHL1  H18C 5280   0.922   6.366   4.307  0.1868 -0.8218  0.6327
   56CHL1   C12 5281   1.166   6.230   4.239 -0.2013 -0.6458 -0.1019
   56CHL1  H12A 5282   1.191   6.332   4.275 -1.8254  0.8116 -2.7775
   56CHL1  H12B 5283   1.246   6.158   4.264 -1.6109 -2.0719  0.5078
   56CHL1   C11 5284   1.148   6.244   4.093  0.2814  0.7199  0.4539
   56CHL1  H11A 5285   1.067   6.316   4.069  0.9697  1.2610 -0.2906
   56CHL1  H11B 5286   1.244   6.288   4.057  1.0286  0.3258  1.8951
   56CHL1    C9 5287   1.114   6.105   4.024 -0.1686  0.4308  0.6102
   56CHL1    H9 5288   1.206   6.046   4.045 -0.1064  0.1624 -0.3972
   56CHL1   C10 5289   1.091   6.097   3.870 -1.3800 -0.6083 -0.2790
   56CHL1   C19 5290   0.988   6.208   3.836  0.0425  0.8044 -0.0070
   56CHL1  H19A 5291   0.891   6.192   3.888 -0.9985  1.1384 -1.7750
   56CHL1  H19B 5292   1.017   6.312   3.864 -2.6230  1.8831 -0.9457
   56CHL1  H19C 5293   0.983   6.206   3.725 -0.6522  0.4579  0.0255
   56CHL1    C1 5294   1.227   6.120   3.799  0.6203  0.6606 -0.1766
   56CHL1   H1A 5295   1.254   6.227   3.812  2.5457  0.2424 -0.3836
   56CHL1   H1B 5296   1.304   6.053   3.841  0.3153  0.4955  0.1148
   56CHL1    C2 5297   1.223   6.096   3.645  0.3178 -1.3185  0.4956
   56CHL1   H2A 5298   1.326   6.114   3.609  0.6648 -0.9421  1.6316
   56CHL1   H2B 5299   1.167   6.181   3.600 -0.4814 -0.2404  3.3176
   56CHL1   C20 5300   0.998   6.272   4.547 -0.3899 -0.0434 -0.0815
   56CHL1   H20 5301   0.898   6.314   4.522  0.8345  0.7690 -4.4506
   56CHL1   C21 5302   1.102   6.386   4.523 -0.3885  0.2434 -0.5917
   56CHL1  H21A 5303   1.093   6.456   4.609 -1.2941 -3.9491  3.0955
   56CHL1  H21B 5304   1.076   6.446   4.433  0.3724  0.2593 -0.8064
   56CHL1  H21C 5305   1.205   6.346   4.508 -0.2997  0.4978 -0.6585
   56CHL1   C22 5306   0.996   6.226   4.697  0.8969  0.4014 -0.7076
   56CHL1  H22A 5307   0.929   6.140   4.720  1.0745  0.6070  0.6225
   56CHL1  H22B 5308   1.095   6.186   4.726 -0.6947 -3.8259 -0.3714
   56CHL1   C23 5309   0.951   6.342   4.789 -0.1648  0.2385 -0.4161
   56CHL1  H23A 5310   1.014   6.433   4.782  0.2960 -0.0707 -0.3683
   56CHL1  H23B 5311   0.844   6.362   4.768 -0.1682  2.0898  1.1272
   56CHL1   C24 5312   0.969   6.310   4.939 -0.6215  0.3359  0.0211
   56CHL1  H24A 5313   0.956   6.399   5.004 -0.0601 -0.5048  1.3191
   56CHL1  H24B 5314   0.891   6.237   4.970 -1.1826  0.8420 -0.1780
   56CHL1   C25 5315   1.111   6.258   4.981 -0.1661 -0.5037 -0.1310
   56CHL1   H25 5316   1.138   6.166   4.925  1.7805 -0.3660  0.5003
   56CHL1   C26 5317   1.229   6.348   4.951 -0.2489 -0.3121 -0.8941
   56CHL1  H26A 5318   1.236   6.371   4.842  0.3821 -1.1240 -1.0301
   56CHL1  H26B 5319   1.212   6.444   5.004 -1.2883 -1.4916  0.9912
   56CHL1  H26C 5320   1.328   6.319   4.993  0.1352  3.3275  1.1987
   56CHL1   C27 5321   1.124   6.210   5.130  0.7262  1.1312 -0.3270
   56CHL1  H27A 5322   1.231   6.205   5.160  0.5736 -1.7707  0.0455
   56CHL1  H27B 5323   1.065   6.270   5.202 -0.6380 -1.1257  0.5749
   56CHL1  H27C 5324   1.092   6.103   5.131  0.2346  1.2760  1.1586
   57CHL1    C3 5325   0.801   3.704   2.723  0.6504  0.2892  0.0353
   57CHL1    H3 5326   0.690   3.694   2.722  0.7467 -0.9919 -0.9154
   57CHL1    O3 5327   0.864   3.710   2.595 -0.4183  0.0757  0.4061
   57CHL1   H3' 5328   0.956   3.720   2.621 -0.1510  0.1786 -0.5109
   57CHL1    C4 5329   0.859   3.804   2.818  0.1111  0.0439  0.0295
   57CHL1   H4A 5330   0.968   3.806   2.799  0.1750 -1.9973 -0.0696
   57CHL1   H4B 5331   0.823   3.903   2.784  0.0753  0.4677  1.2323
   57CHL1    C5 5332   0.841   3.785   2.972  0.5137  0.5760  0.1388
   57CHL1    C6 5333   0.807   3.891   3.050  0.0919  0.5459  0.2083
   57CHL1    H6 5334   0.795   3.993   3.012  0.8856  0.4314 -0.3680
   57CHL1    C7 5335   0.786   3.872   3.201 -0.1811  1.2527  0.0398
   57CHL1   H7A 5336   0.839   3.942   3.269  2.0904 -1.8764  1.7651
   57CHL1   H7B 5337   0.676   3.883   3.214 -0.6860 -1.3047 -1.3695
   57CHL1    C8 5338   0.809   3.728   3.254 -0.6757 -0.0369 -0.3806
   57CHL1    H8 5339   0.919   3.721   3.266 -0.9142 -0.5823  1.9615
   57CHL1   C14 5340   0.742   3.706   3.386  0.5691 -0.4256  0.3895
   57CHL1   H14 5341   0.633   3.698   3.367  0.6207 -2.1910  0.6973
   57CHL1   C15 5342   0.766   3.815   3.499  0.4309  0.6807 -0.2004
   57CHL1  H15A 5343   0.873   3.843   3.515  1.0450 -1.3953 -0.3423
   57CHL1  H15B 5344   0.709   3.907   3.475 -1.4556 -0.5077 -0.4581
   57CHL1   C16 5345   0.699   3.744   3.630  0.1336  0.0301  0.2216
   57CHL1  H16A 5346   0.762   3.744   3.721 -1.9330 -0.6764  1.7534
   57CHL1  H16B 5347   0.595   3.774   3.657 -0.7815 -1.7799 -0.9994
   57CHL1   C17 5348   0.684   3.595   3.582 -0.2872  0.0637  0.2916
   57CHL1   H17 5349   0.577   3.589   3.552 -0.0722  0.0177 -0.4793
   57CHL1   C13 5350   0.760   3.568   3.451 -0.3084 -0.0209 -0.7762
   57CHL1   C18 5351   0.907   3.552   3.486 -0.0794 -0.0179  0.0675
   57CHL1  H18A 5352   0.977   3.591   3.408  0.7844 -1.8032 -0.0932
   57CHL1  H18B 5353   0.935   3.619   3.570  0.8901  1.1856 -1.1622
   57CHL1  H18C 5354   0.927   3.443   3.494  1.0100  0.2046  0.5094
   57CHL1   C12 5355   0.706   3.471   3.349  0.2823  0.3383  0.6326
   57CHL1  H12A 5356   0.721   3.365   3.380 -1.2731  0.0261  0.4104
   57CHL1  H12B 5357   0.597   3.483   3.331 -0.0789 -0.8768  1.7848
   57CHL1   C11 5358   0.781   3.480   3.218  0.3227 -0.3730  0.2446
   57CHL1  H11A 5359   0.886   3.447   3.234  0.5798  0.4019  0.1966
   57CHL1  H11B 5360   0.735   3.401   3.154 -0.2884  0.4525 -0.3438
   57CHL1    C9 5361   0.773   3.618   3.150 -0.0703 -0.4084 -0.4685
   57CHL1    H9 5362   0.670   3.651   3.125  0.5248  3.0830  0.9707
   57CHL1   C10 5363   0.855   3.639   3.020 -0.3631  0.3532 -0.1189
   57CHL1   C19 5364   1.006   3.606   3.042 -0.1524  0.5204 -0.3706
   57CHL1  H19A 5365   1.060   3.668   3.117  1.2805 -1.3269  0.2171
   57CHL1  H19B 5366   1.022   3.500   3.071  2.9186  1.3374  1.4049
   57CHL1  H19C 5367   1.059   3.626   2.947 -0.4945  0.0541 -0.6660
   57CHL1    C1 5368   0.792   3.542   2.915  0.3250 -0.2823  0.2443
   57CHL1   H1A 5369   0.821   3.436   2.931  0.6382 -0.3013 -0.3898
   57CHL1   H1B 5370   0.682   3.556   2.916 -0.0247 -1.9559 -2.4586
   57CHL1    C2 5371   0.841   3.560   2.771 -0.4688  0.4677  0.6665
   57CHL1   H2A 5372   0.792   3.484   2.706  3.3100 -1.0447 -0.7472
   57CHL1   H2B 5373   0.951   3.542   2.763 -0.7506 -1.5461  0.7244
   57CHL1   C20 5374   0.690   3.476   3.689 -0.1934 -0.3641  0.4942
   57CHL1   H20 5375   0.706   3.379   3.636  0.1436 -0.7421  1.2707
   57CHL1   C21 5376   0.540   3.458   3.743  0.0948 -0.7479  0.2716
   57CHL1  H21A 5377   0.469   3.433   3.662  1.2758  2.4421 -1.9262
   57CHL1  H21B 5378   0.514   3.548   3.802  2.2016  0.0860  0.0160
   57CHL1  H21C 5379   0.538   3.374   3.816  0.5480 -1.2142 -0.2446
   57CHL1   C22 5380   0.795   3.498   3.802 -0.2315 -1.0222  0.6237
   57CHL1  H22A 5381   0.872   3.576   3.784 -0.1261 -0.6947  2.2870
   57CHL1  H22B 5382   0.733   3.529   3.890  0.5898 -1.5270  1.3976
   57CHL1   C23 5383   0.880   3.373   3.843 -0.7716 -0.0597  0.7980
   57CHL1  H23A 5384   0.939   3.406   3.931 -1.3553  0.0679  1.1499
   57CHL1  H23B 5385   0.798   3.313   3.888  0.6163 -1.9214  0.9598
   57CHL1   C24 5386   0.963   3.298   3.735 -0.4510  0.1546 -0.2575
   57CHL1  H24A 5387   0.896   3.253   3.659 -0.3619 -0.8202  0.2240
   57CHL1  H24B 5388   1.029   3.377   3.694 -1.5857  0.9551 -0.5797
   57CHL1   C25 5389   1.056   3.179   3.792  0.6466 -0.0662 -0.4630
   57CHL1   H25 5390   1.115   3.226   3.874  0.5330  0.3336 -0.6064
   57CHL1   C26 5391   0.980   3.063   3.846  0.7612 -0.0788  0.2430
   57CHL1  H26A 5392   0.928   3.097   3.938 -2.9333  0.4857 -1.8368
   57CHL1  H26B 5393   0.904   3.017   3.779  3.1760 -0.6493 -2.3051
   57CHL1  H26C 5394   1.053   2.988   3.883  1.0873 -0.3055 -0.8039
   57CHL1   C27 5395   1.162   3.133   3.694 -0.1174  0.0981  0.0789
   57CHL1  H27A 5396   1.243   3.074   3.742  0.9386  0.8746 -0.6941
   57CHL1  H27B 5397   1.123   3.073   3.609  0.8223 -0.9170  0.3320
   57CHL1  H27C 5398   1.218   3.224   3.662  3.1601 -2.5230 -2.4004
   58CHL1    C3 5399   6.264   2.872   2.843 -0.9289  0.1868 -0.1845
   58CHL1    H3 5400   6.155   2.881   2.828 -1.2573 -0.3949  1.5863
   58CHL1    O3 5401   6.339   2.868   2.720  0.0290 -0.0116  0.2599
   58CHL1   H3' 5402   6.328   2.958   2.688 -1.5096  0.1935  1.2550
   58CHL1    C4 5403   6.313   2.994   2.916 -0.3925  0.3692  0.9089
   58CHL1   H4A 5404   6.422   2.974   2.925 -0.0763 -1.6093 -4.0543
   58CHL1   H4B 5405   6.294   3.080   2.847  2.0209 -0.4304 -0.9035
   58CHL1    C5 5406   6.252   3.012   3.049 -0.3057 -0.9876 -0.1089
   58CHL1    C6 5407   6.194   3.127   3.078 -0.1175 -0.3742 -0.4260
   58CHL1    H6 5408   6.198   3.205   3.000  3.5083  0.8415  0.7478
   58CHL1    C7 5409   6.132   3.162   3.207 -0.2847 -0.6010 -0.3057
   58CHL1   H7A 5410   6.147   3.268   3.237  2.2038 -0.9071 -0.2868
   58CHL1   H7B 5411   6.023   3.145   3.198 -0.2370 -0.0663 -2.4259
   58CHL1    C8 5412   6.183   3.066   3.323  0.1610 -0.1701  0.4066
   58CHL1    H8 5413   6.284   3.105   3.347  0.3465 -1.3615  1.7071
   58CHL1   C14 5414   6.104   3.079   3.453 -0.6939  0.6763 -0.2082
   58CHL1   H14 5415   6.007   3.034   3.420 -0.8131  0.6396  0.1765
   58CHL1   C15 5416   6.069   3.221   3.503  0.3388  0.5219  0.0059
   58CHL1  H15A 5417   6.161   3.284   3.500  1.0486 -0.4034  1.3833
   58CHL1  H15B 5418   5.990   3.280   3.451 -1.5497  0.9380  3.0878
   58CHL1   C16 5419   6.027   3.192   3.651  0.4129 -0.1208 -0.4375
   58CHL1  H16A 5420   6.072   3.265   3.720  1.8754 -2.9725  1.8508
   58CHL1  H16B 5421   5.916   3.187   3.656  0.4347 -2.1618 -0.9209
   58CHL1   C17 5422   6.072   3.045   3.689  0.9305 -0.1197  0.4510
   58CHL1   H17 5423   5.984   2.977   3.692  0.3344  0.5937 -0.4893
   58CHL1   C13 5424   6.163   2.997   3.569 -0.4046 -0.4701  0.4234
   58CHL1   C18 5425   6.307   3.053   3.591 -0.3261 -0.7374 -0.3132
   58CHL1  H18A 5426   6.356   3.007   3.680  0.6924  2.1085  0.7065
   58CHL1  H18B 5427   6.378   3.037   3.507  0.8384  0.8263  0.3214
   58CHL1  H18C 5428   6.306   3.161   3.619  1.1984 -1.1809  1.6990
   58CHL1   C12 5429   6.159   2.847   3.535  0.9686 -0.3745  0.4913
   58CHL1  H12A 5430   6.200   2.774   3.608  2.4625 -0.3798 -0.3178
   58CHL1  H12B 5431   6.059   2.811   3.506  1.1937 -1.0492  0.5376
   58CHL1   C11 5432   6.239   2.823   3.403 -0.1379 -0.9635  0.5017
   58CHL1  H11A 5433   6.346   2.827   3.431  0.4786 -2.9575 -1.3216
   58CHL1  H11B 5434   6.234   2.717   3.372  1.3503 -1.1789  0.9328
   58CHL1    C9 5435   6.199   2.921   3.288  1.1044  0.7585  0.3762
   58CHL1    H9 5436   6.095   2.889   3.266  2.0006 -1.0433 -1.5984
   58CHL1   C10 5437   6.274   2.902   3.150 -0.5533  0.0146 -0.4912
   58CHL1   C19 5438   6.422   2.914   3.198  0.1396 -0.3010  0.2821
   58CHL1  H19A 5439   6.464   2.822   3.246 -0.3540 -1.4114 -1.3199
   58CHL1  H19B 5440   6.493   2.931   3.114  3.1315  1.8779  3.0198
   58CHL1  H19C 5441   6.427   3.002   3.265 -1.6511  0.4503 -0.5328
   58CHL1    C1 5442   6.243   2.770   3.071  0.1108  0.3164  0.1814
   58CHL1   H1A 5443   6.276   2.691   3.142 -1.5635  0.2085  0.8684
   58CHL1   H1B 5444   6.134   2.750   3.077  0.4253 -1.3769  0.8683
   58CHL1    C2 5445   6.294   2.745   2.931  0.0881 -1.1218  1.2776
   58CHL1   H2A 5446   6.245   2.660   2.879  0.5093  0.0690 -1.2077
   58CHL1   H2B 5447   6.405   2.733   2.927  0.5197  2.2829 -0.2165
   58CHL1   C20 5448   6.127   3.021   3.820  0.2149  0.7372 -0.2156
   58CHL1   H20 5449   6.218   3.084   3.821  0.4977  0.4124 -2.2072
   58CHL1   C21 5450   6.157   2.870   3.849  0.0055 -0.2358  0.1092
   58CHL1  H21A 5451   6.161   2.844   3.957  3.8752 -3.5019 -0.6124
   58CHL1  H21B 5452   6.254   2.837   3.808  1.1854  3.3035 -0.3488
   58CHL1  H21C 5453   6.074   2.817   3.799 -0.5283  2.0968 -1.6646
   58CHL1   C22 5454   6.031   3.073   3.932 -0.4035 -0.1478  0.9572
   58CHL1  H22A 5455   5.995   3.173   3.899  0.2449 -0.8280 -2.1238
   58CHL1  H22B 5456   5.943   3.005   3.927 -0.6354  0.2156 -0.3322
   58CHL1   C23 5457   6.102   3.089   4.070  0.9185 -0.1648  0.0848
   58CHL1  H23A 5458   6.122   2.990   4.117 -1.7055 -0.8365 -0.0598
   58CHL1  H23B 5459   6.196   3.149   4.065  1.6657 -1.3826 -1.4516
   58CHL1   C24 5460   6.002   3.159   4.165 -0.5131  0.0529 -0.3813
   58CHL1  H24A 5461   6.056   3.201   4.253 -1.2832 -1.0728  0.6713
   58CHL1  H24B 5462   5.962   3.245   4.107 -0.7414  0.0733 -0.1939
   58CHL1   C25 5463   5.885   3.075   4.222  0.6025  0.7691  0.0617
   58CHL1   H25 5464   5.848   3.006   4.144 -0.5407 -0.3315  1.5113
   58CHL1   C26 5465   5.930   2.980   4.340 -0.1509  0.6781  0.0519
   58CHL1  H26A 5466   5.966   3.038   4.428 -0.7250  1.4853 -0.2389
   58CHL1  H26B 5467   5.850   2.907   4.365  0.6169 -0.7515 -1.4654
   58CHL1  H26C 5468   6.016   2.918   4.306 -1.1590 -0.0716 -1.2149
   58CHL1   C27 5469   5.757   3.154   4.256  0.2653 -0.9171  0.3173
   58CHL1  H27A 5470   5.718   3.188   4.158  0.0948 -2.0728 -0.0342
   58CHL1  H27B 5471   5.679   3.091   4.305 -0.9061  0.1810 -0.0643
   58CHL1  H27C 5472   5.783   3.241   4.320 -1.1411 -0.5580  0.4493
   59CHL1    C3 5473   5.624   2.808   2.993 -0.0182  0.1019 -0.4549
   59CHL1    H3 5474   5.591   2.703   2.985 -2.5289  0.6758  1.3913
   59CHL1    O3 5475   5.650   2.863   2.867  0.0346  0.1109  0.0025
   59CHL1   H3' 5476   5.616   2.952   2.858  0.5536  0.4823  1.4661
   59CHL1    C4 5477   5.524   2.896   3.062  0.3243  0.4701 -0.7941
   59CHL1   H4A 5478   5.561   3.001   3.053  1.5099 -0.0063 -1.7641
   59CHL1   H4B 5479   5.428   2.894   3.006  0.2039  0.4967 -0.5889
   59CHL1    C5 5480   5.492   2.872   3.207 -0.0225  0.0069  0.1088
   59CHL1    C6 5481   5.372   2.859   3.265 -0.5120 -0.3809 -0.8415
   59CHL1    H6 5482   5.276   2.856   3.212 -0.5947  0.4784 -0.7550
   59CHL1    C7 5483   5.348   2.840   3.410 -0.3265 -0.1317 -0.7296
   59CHL1   H7A 5484   5.265   2.910   3.433  0.0931  0.9185 -2.1889
   59CHL1   H7B 5485   5.311   2.736   3.419  2.9038 -1.6246 -2.5813
   59CHL1    C8 5486   5.475   2.861   3.510 -0.3947  0.1836 -0.0291
   59CHL1    H8 5487   5.476   2.972   3.521  0.2289  0.1578  0.2230
   59CHL1   C14 5488   5.458   2.798   3.646 -0.2714 -0.1686 -0.2144
   59CHL1   H14 5489   5.468   2.689   3.632 -2.6952 -0.6222  1.0287
   59CHL1   C15 5490   5.324   2.820   3.716  0.1154 -0.0970  0.0599
   59CHL1  H15A 5491   5.289   2.922   3.687  1.8732 -0.3540 -3.4882
   59CHL1  H15B 5492   5.246   2.749   3.682 -0.4848  0.8775 -0.6619
   59CHL1   C16 5493   5.354   2.794   3.866 -0.3425  0.6785 -0.6066
   59CHL1  H16A 5494   5.326   2.888   3.919 -0.1649  1.4416 -1.8152
   59CHL1  H16B 5495   5.288   2.713   3.902 -0.2748  0.4030 -1.1033
   59CHL1   C17 5496   5.507   2.766   3.869  0.8514 -0.1860  0.1260
   59CHL1   H17 5497   5.511   2.656   3.860 -0.8067 -0.1783 -1.0491
   59CHL1   C13 5498   5.569   2.834   3.743 -0.2396  0.6006 -0.7468
   59CHL1   C18 5499   5.592   2.987   3.770  0.4533 -0.3168 -0.1649
   59CHL1  H18A 5500   5.638   3.039   3.684  0.2555 -1.5748 -1.0671
   59CHL1  H18B 5501   5.499   3.038   3.804  0.3019 -0.2280 -0.7058
   59CHL1  H18C 5502   5.663   3.014   3.851  0.1318 -0.0343  0.0256
   59CHL1   C12 5503   5.692   2.763   3.681 -0.3963  0.1878 -0.8280
   59CHL1  H12A 5504   5.787   2.773   3.738 -0.0284  0.6608 -1.5107
   59CHL1  H12B 5505   5.678   2.653   3.684 -0.3425  0.2112  1.0098
   59CHL1   C11 5506   5.728   2.809   3.537  1.1030  0.3563 -0.6516
   59CHL1  H11A 5507   5.774   2.910   3.532  1.7814  0.0401 -0.9207
   59CHL1  H11B 5508   5.794   2.738   3.483 -0.1885 -2.4244  1.1842
   59CHL1    C9 5509   5.604   2.805   3.444  0.7496  0.0401  0.2709
   59CHL1    H9 5510   5.583   2.696   3.438  0.8747  0.0641 -0.6633
   59CHL1   C10 5511   5.619   2.857   3.297 -0.2190  0.0283  0.9042
   59CHL1   C19 5512   5.672   2.997   3.314  0.1248  0.2047 -0.3543
   59CHL1  H19A 5513   5.668   3.063   3.224 -2.1933  0.0391 -0.4242
   59CHL1  H19B 5514   5.634   3.057   3.399  0.2043  1.4538 -1.1681
   59CHL1  H19C 5515   5.779   2.982   3.342 -0.1210 -0.0491  0.4547
   59CHL1    C1 5516   5.729   2.771   3.225 -0.6187 -0.1353 -0.1454
   59CHL1   H1A 5517   5.821   2.773   3.286 -0.8382 -0.3643  0.1971
   59CHL1   H1B 5518   5.698   2.665   3.213  1.6400 -0.6426 -2.4479
   59CHL1    C2 5519   5.758   2.814   3.081  0.2726  0.1588  0.0108
   59CHL1   H2A 5520   5.846   2.766   3.034  0.9771  1.4000  0.0366
   59CHL1   H2B 5521   5.791   2.920   3.088  1.1380 -0.1473  0.7461
   59CHL1   C20 5522   5.561   2.807   4.011  0.5603  0.0814 -0.4438
   59CHL1   H20 5523   5.552   2.918   4.015  2.2709  0.2109  0.4212
   59CHL1   C21 5524   5.717   2.790   4.016  0.2023  0.2098  0.6104
   59CHL1  H21A 5525   5.772   2.848   3.938  2.1457 -1.8329  0.3584
   59CHL1  H21B 5526   5.750   2.687   3.991  1.7181  0.4336  1.5432
   59CHL1  H21C 5527   5.759   2.809   4.117 -0.2749  0.4605  0.7612
   59CHL1   C22 5528   5.503   2.733   4.136  0.0251  0.0606  0.4326
   59CHL1  H22A 5529   5.480   2.632   4.096  2.0819  0.3000 -1.5765
   59CHL1  H22B 5530   5.582   2.715   4.211  0.4809  0.1679 -0.0163
   59CHL1   C23 5531   5.378   2.795   4.198 -0.2847 -0.8886  0.3723
   59CHL1  H23A 5532   5.401   2.902   4.216  2.4033 -1.3432  0.0614
   59CHL1  H23B 5533   5.287   2.787   4.135  0.1203 -1.5903 -0.1426
   59CHL1   C24 5534   5.345   2.738   4.338 -0.4887  0.3906  0.2284
   59CHL1  H24A 5535   5.243   2.768   4.373 -1.5590  1.3642 -3.3060
   59CHL1  H24B 5536   5.345   2.629   4.318  0.0361  0.9274 -3.1651
   59CHL1   C25 5537   5.447   2.779   4.450  0.4224 -1.1167 -0.0279
   59CHL1   H25 5538   5.551   2.776   4.411  1.5569  0.6881  2.6116
   59CHL1   C26 5539   5.434   2.924   4.488  0.7416  0.0576  0.7129
   59CHL1  H26A 5540   5.328   2.949   4.508  0.1989  1.2572 -3.0040
   59CHL1  H26B 5541   5.512   2.955   4.560  0.3188 -0.4660  1.4128
   59CHL1  H26C 5542   5.455   2.979   4.394  0.6367 -1.9658 -0.5647
   59CHL1   C27 5543   5.428   2.699   4.576  0.3962 -0.6228  0.0233
   59CHL1  H27A 5544   5.511   2.721   4.646  0.6939 -3.3979  0.6536
   59CHL1  H27B 5545   5.340   2.737   4.633  1.3615 -0.9766  1.8225
   59CHL1  H27C 5546   5.420   2.590   4.555  1.1859 -0.5975 -0.4286
   60CHL1    C3 5547   5.586   0.760   3.334  0.1186 -0.1557  1.2089
   60CHL1    H3 5548   5.647   0.853   3.331 -1.2672  0.7597  0.4384
   60CHL1    O3 5549   5.602   0.699   3.205 -0.8184 -0.6500  0.3046
   60CHL1   H3' 5550   5.562   0.756   3.138  2.4995 -0.0922 -1.4172
   60CHL1    C4 5551   5.630   0.666   3.446  0.0645 -1.0220 -0.0777
   60CHL1   H4A 5552   5.586   0.567   3.423 -1.7454 -0.2658 -0.0634
   60CHL1   H4B 5553   5.739   0.646   3.440  0.1312 -0.8348  0.4362
   60CHL1    C5 5554   5.591   0.710   3.585 -0.1215  0.4393  0.4434
   60CHL1    C6 5555   5.681   0.701   3.684 -0.8213  0.6715  0.1520
   60CHL1    H6 5556   5.777   0.656   3.655 -0.2207  3.0268 -1.8989
   60CHL1    C7 5557   5.660   0.733   3.832 -0.4690 -0.2265 -0.1456
   60CHL1   H7A 5558   5.686   0.645   3.893  1.1249 -1.3136 -2.2752
   60CHL1   H7B 5559   5.730   0.815   3.860  0.4323 -0.4254 -1.7160
   60CHL1    C8 5560   5.506   0.756   3.859  0.8363  0.2960 -0.3772
   60CHL1    H8 5561   5.457   0.657   3.874  0.2976  0.1869 -2.5264
   60CHL1   C14 5562   5.495   0.834   3.989 -0.2265 -0.4212 -0.6266
   60CHL1   H14 5563   5.533   0.937   3.970 -3.7079  1.0720 -0.2208
   60CHL1   C15 5564   5.567   0.787   4.117 -0.1742  0.4928 -0.2572
   60CHL1  H15A 5565   5.556   0.680   4.144  1.4341  0.4858  0.4901
   60CHL1  H15B 5566   5.673   0.821   4.119  0.4764 -1.3801  2.8487
   60CHL1   C16 5567   5.490   0.848   4.238  0.1708  0.1572 -0.0077
   60CHL1  H16A 5568   5.430   0.773   4.294  1.2267  0.0593  1.0069
   60CHL1  H16B 5569   5.555   0.903   4.309  1.0376 -0.6813 -0.1317
   60CHL1   C17 5570   5.380   0.934   4.169  0.2641  0.3739  1.1811
   60CHL1   H17 5571   5.427   1.027   4.130 -1.7065  0.6520 -0.7514
   60CHL1   C13 5572   5.349   0.867   4.031 -0.1530  0.4446  0.1707
   60CHL1   C18 5573   5.258   0.741   4.050 -0.3408 -0.1177  0.5085
   60CHL1  H18A 5574   5.295   0.684   4.139 -1.4770  0.3731  1.3251
   60CHL1  H18B 5575   5.154   0.776   4.067 -1.0854 -0.9511 -1.9205
   60CHL1  H18C 5576   5.263   0.674   3.961  1.8757  0.6671 -0.0158
   60CHL1   C12 5577   5.284   0.954   3.916  0.0703  0.4114 -0.5417
   60CHL1  H12A 5578   5.175   0.959   3.932 -0.0210 -1.8157 -0.0300
   60CHL1  H12B 5579   5.328   1.056   3.911  0.4390  0.3014  0.2338
   60CHL1   C11 5580   5.299   0.875   3.782  0.2972  0.0659 -0.6875
   60CHL1  H11A 5581   5.222   0.795   3.786 -0.1434  0.4893 -0.7279
   60CHL1  H11B 5582   5.255   0.941   3.705  0.9790  1.7247  0.2906
   60CHL1    C9 5583   5.438   0.828   3.741  0.6374 -0.2587 -0.5583
   60CHL1    H9 5584   5.495   0.922   3.725  0.4789 -0.0206  0.2471
   60CHL1   C10 5585   5.446   0.754   3.607  0.6296  0.4552  0.9089
   60CHL1   C19 5586   5.357   0.623   3.608 -0.7616  0.5620 -0.1045
   60CHL1  H19A 5587   5.253   0.658   3.625  0.2554  2.9321  1.8444
   60CHL1  H19B 5588   5.365   0.572   3.510 -0.6480 -1.4395  0.8858
   60CHL1  H19C 5589   5.390   0.546   3.681  2.3755  1.6592 -0.2277
   60CHL1    C1 5590   5.402   0.845   3.487 -0.0331 -0.3602 -0.5433
   60CHL1   H1A 5591   5.291   0.856   3.493  0.0305  0.5312 -0.9247
   60CHL1   H1B 5592   5.454   0.942   3.502 -0.5039 -0.3695  1.4509
   60CHL1    C2 5593   5.438   0.794   3.345 -0.1852 -0.8186  0.1317
   60CHL1   H2A 5594   5.414   0.871   3.268  0.1887 -0.3768  0.4562
   60CHL1   H2B 5595   5.386   0.698   3.320  1.1569 -1.7401  0.7700
   60CHL1   C20 5596   5.256   0.978   4.247  0.4692 -0.5016 -0.0251
   60CHL1   H20 5597   5.178   0.900   4.234  2.2105 -2.0985 -1.6092
   60CHL1   C21 5598   5.209   1.115   4.198  0.5572  0.0943  0.7804
   60CHL1  H21A 5599   5.111   1.139   4.245  0.4362 -1.4630  1.3957
   60CHL1  H21B 5600   5.190   1.115   4.089 -0.0735 -2.3449  0.8279
   60CHL1  H21C 5601   5.284   1.194   4.222 -1.9275  2.8069  0.2113
   60CHL1   C22 5602   5.285   0.991   4.398  0.5324 -0.0985  0.3087
   60CHL1  H22A 5603   5.358   0.915   4.432  0.4374  0.6417  2.2628
   60CHL1  H22B 5604   5.330   1.092   4.402 -1.9212  1.1560 -0.9639
   60CHL1   C23 5605   5.164   0.980   4.482 -0.3534 -0.0739 -0.1829
   60CHL1  H23A 5606   5.107   1.074   4.464 -1.9402 -1.2452 -1.6292
   60CHL1  H23B 5607   5.098   0.897   4.449  0.4352 -1.0801  0.6695
   60CHL1   C24 5608   5.186   0.964   4.639  0.2776 -0.1355  0.4107
   60CHL1  H24A 5609   5.200   0.858   4.669 -0.0136 -0.0024  1.0456
   60CHL1  H24B 5610   5.280   1.021   4.652  0.2521 -0.1126  0.4968
   60CHL1   C25 5611   5.065   1.016   4.723 -0.3579 -0.1165  0.5012
   60CHL1   H25 5612   5.057   1.126   4.705 -2.4523 -0.3955 -0.4992
   60CHL1   C26 5613   4.938   0.954   4.671 -0.3047 -0.1809  0.8705
   60CHL1  H26A 5614   4.855   1.014   4.714  0.4291 -0.0185  2.1308
   60CHL1  H26B 5615   4.928   0.949   4.561 -0.0566  1.2816  0.7630
   60CHL1  H26C 5616   4.934   0.847   4.703  0.8661 -0.3329  0.5459
   60CHL1   C27 5617   5.081   0.983   4.872  0.2313 -0.5500 -0.5084
   60CHL1  H27A 5618   5.171   1.024   4.921 -0.8629  0.4174  0.7723
   60CHL1  H27B 5619   4.994   1.028   4.925 -1.4321 -2.2244 -1.6503
   60CHL1  H27C 5620   5.073   0.874   4.892 -2.3430 -0.2495  0.5968
   61CHL1    C3 5621   2.035   3.698   2.732 -0.4459  0.1121  0.1735
   61CHL1    H3 5622   2.109   3.649   2.800 -0.1627  0.3758  0.0585
   61CHL1    O3 5623   2.076   3.668   2.597  0.2270  0.4641 -0.2677
   61CHL1   H3' 5624   2.036   3.745   2.554 -0.1056  0.1156 -0.5855
   61CHL1    C4 5625   1.903   3.631   2.757  0.4252  0.3104  0.0527
   61CHL1   H4A 5626   1.828   3.684   2.694 -0.8053 -2.2935 -0.8022
   61CHL1   H4B 5627   1.901   3.527   2.718  0.1608  0.3574 -0.0627
   61CHL1    C5 5628   1.864   3.648   2.904  0.3400  0.0735  0.2156
   61CHL1    C6 5629   1.837   3.545   2.982 -0.0490 -0.4357 -0.4075
   61CHL1    H6 5630   1.852   3.449   2.931  0.5809 -0.1935 -0.6903
   61CHL1    C7 5631   1.801   3.560   3.126 -0.0691 -0.0519 -0.1916
   61CHL1   H7A 5632   1.729   3.483   3.162 -0.0531  0.6307  1.3801
   61CHL1   H7B 5633   1.897   3.538   3.176  0.1452 -0.6910 -0.8742
   61CHL1    C8 5634   1.758   3.703   3.164  0.0167  0.4105 -0.6758
   61CHL1    H8 5635   1.656   3.720   3.124 -0.5655  1.6113  1.2088
   61CHL1   C14 5636   1.753   3.715   3.315 -0.2839  0.7257  0.6077
   61CHL1   H14 5637   1.861   3.714   3.343 -0.2112 -0.1793  0.3236
   61CHL1   C15 5638   1.675   3.619   3.399  0.5383 -0.5937 -0.0599
   61CHL1  H15A 5639   1.576   3.594   3.354  0.5663 -0.9368  0.0667
   61CHL1  H15B 5640   1.713   3.516   3.387  2.1697  0.0275 -0.5573
   61CHL1   C16 5641   1.681   3.681   3.539 -0.3855 -0.2733 -0.8801
   61CHL1  H16A 5642   1.574   3.655   3.555 -0.4495 -0.5687 -1.7338
   61CHL1  H16B 5643   1.751   3.632   3.610 -2.6644 -2.8634 -0.2276
   61CHL1   C17 5644   1.709   3.832   3.520 -0.2082 -0.0166 -0.2823
   61CHL1   H17 5645   1.815   3.851   3.548 -0.7042  1.8017  0.5647
   61CHL1   C13 5646   1.708   3.851   3.367 -0.4749  0.2775 -0.3177
   61CHL1   C18 5647   1.571   3.885   3.314  1.1785 -0.3522  0.2187
   61CHL1  H18A 5648   1.554   3.878   3.205  1.1189 -0.1081  0.2134
   61CHL1  H18B 5649   1.495   3.817   3.359 -0.0398 -0.8079 -2.3255
   61CHL1  H18C 5650   1.535   3.989   3.331 -1.7674 -0.9450 -1.6018
   61CHL1   C12 5651   1.814   3.950   3.309 -0.2115 -0.0007 -0.6021
   61CHL1  H12A 5652   1.784   4.051   3.345 -1.2009 -1.0159  1.6025
   61CHL1  H12B 5653   1.909   3.927   3.361 -0.9567 -1.5745  0.1138
   61CHL1   C11 5654   1.835   3.950   3.160  0.2710 -0.2461 -0.5703
   61CHL1  H11A 5655   1.743   3.996   3.118 -0.4251 -0.8564  0.2642
   61CHL1  H11B 5656   1.923   4.011   3.130  1.5199 -0.8131  1.7526
   61CHL1    C9 5657   1.854   3.803   3.102 -0.1217  0.0425  0.0359
   61CHL1    H9 5658   1.952   3.770   3.143 -0.6036 -0.1755  1.0642
   61CHL1   C10 5659   1.864   3.793   2.956 -0.1469 -0.2415 -0.6494
   61CHL1   C19 5660   1.741   3.864   2.903 -0.1071  0.0564 -0.6954
   61CHL1  H19A 5661   1.640   3.826   2.933 -0.0813 -0.7933 -1.6458
   61CHL1  H19B 5662   1.748   3.974   2.910 -2.9448  0.2625  0.3163
   61CHL1  H19C 5663   1.737   3.858   2.793  0.2732 -0.6289 -0.6782
   61CHL1    C1 5664   1.996   3.867   2.909 -0.3727 -0.3111  0.3414
   61CHL1   H1A 5665   1.985   3.974   2.939 -1.0864  0.0593 -1.1356
   61CHL1   H1B 5666   2.090   3.825   2.951  0.8489  0.7975 -1.1399
   61CHL1    C2 5667   2.020   3.845   2.761  0.1876 -0.2200 -0.1977
   61CHL1   H2A 5668   2.116   3.895   2.737  0.2474 -0.6367 -0.8729
   61CHL1   H2B 5669   1.944   3.896   2.699  0.1820  1.4415  1.1057
   61CHL1   C20 5670   1.624   3.923   3.616 -0.0290 -0.9272  0.7271
   61CHL1   H20 5671   1.517   3.914   3.588 -0.8172  0.9154  2.8580
   61CHL1   C21 5672   1.653   4.074   3.597  0.1605  0.2249  0.3556
   61CHL1  H21A 5673   1.591   4.126   3.673 -0.7493  0.5578 -0.5992
   61CHL1  H21B 5674   1.629   4.108   3.494  1.3087  0.3037  0.0944
   61CHL1  H21C 5675   1.761   4.098   3.614  0.3401 -0.5150  0.2980
   61CHL1   C22 5676   1.644   3.884   3.760  0.2377  0.2841  0.0215
   61CHL1  H22A 5677   1.643   3.773   3.766 -0.2603  0.2468 -0.6822
   61CHL1  H22B 5678   1.748   3.913   3.783  0.3389  0.1466 -0.2621
   61CHL1   C23 5679   1.534   3.935   3.856  0.0607  0.2231  1.1070
   61CHL1  H23A 5680   1.511   4.044   3.853  1.2561  0.4680 -0.3626
   61CHL1  H23B 5681   1.433   3.901   3.823 -1.0234  2.8631  1.4262
   61CHL1   C24 5682   1.553   3.897   4.003  0.4178 -0.2389 -0.5145
   61CHL1  H24A 5683   1.458   3.920   4.056  0.1636 -1.4725 -0.4082
   61CHL1  H24B 5684   1.556   3.787   4.017  1.2062  0.0807  2.7492
   61CHL1   C25 5685   1.675   3.965   4.067 -1.0678  0.6161 -0.6645
   61CHL1   H25 5686   1.761   3.921   4.012 -2.1138 -1.3184 -0.8546
   61CHL1   C26 5687   1.671   4.119   4.050  0.2734  0.1255  0.9782
   61CHL1  H26A 5688   1.675   4.154   3.945 -0.8881 -0.6953  0.6476
   61CHL1  H26B 5689   1.571   4.146   4.088 -1.1291  0.1549 -2.3939
   61CHL1  H26C 5690   1.741   4.173   4.118  1.5104  1.4724 -1.2501
   61CHL1   C27 5691   1.697   3.924   4.217  0.3209  0.3113  0.7793
   61CHL1  H27A 5692   1.705   3.814   4.230 -1.4052 -0.2589 -2.2046
   61CHL1  H27B 5693   1.785   3.975   4.262  1.7122  0.2336 -1.6651
   61CHL1  H27C 5694   1.605   3.956   4.271 -1.3531  0.1632 -1.8173
   62CHL1    C3 5695   2.369   5.023   3.264  0.0797 -0.1737  0.9619
   62CHL1    H3 5696   2.311   4.928   3.269  1.9059 -1.4210  0.0028
   62CHL1    O3 5697   2.326   5.078   3.137  0.1696  0.2997 -0.4440
   62CHL1   H3' 5698   2.356   5.169   3.133 -1.2189  0.7297 -3.0987
   62CHL1    C4 5699   2.320   5.121   3.375 -0.2320  0.0545 -0.5466
   62CHL1   H4A 5700   2.349   5.227   3.360 -0.9905  0.6084  1.6031
   62CHL1   H4B 5701   2.209   5.124   3.369 -0.1997 -0.3514 -1.6976
   62CHL1    C5 5702   2.358   5.064   3.509 -0.0925 -0.1855 -1.0811
   62CHL1    C6 5703   2.263   5.033   3.600  0.3301  0.7298  0.0500
   62CHL1    H6 5704   2.158   5.050   3.572  0.2422 -0.4462 -0.3784
   62CHL1    C7 5705   2.294   4.961   3.727  0.4263  0.1066  0.0802
   62CHL1   H7A 5706   2.238   5.010   3.810 -1.8304 -0.7751 -0.8524
   62CHL1   H7B 5707   2.254   4.857   3.724 -0.5962  0.4477  1.2597
   62CHL1    C8 5708   2.442   4.959   3.774 -0.8700 -0.3631  0.2635
   62CHL1    H8 5709   2.470   5.059   3.812 -2.5374 -0.2871  1.4030
   62CHL1   C14 5710   2.475   4.851   3.879  1.1985 -0.5338  0.1445
   62CHL1   H14 5711   2.456   4.750   3.837 -2.1908 -0.4743  1.2186
   62CHL1   C15 5712   2.388   4.843   4.006 -0.2779  0.4319 -0.9078
   62CHL1  H15A 5713   2.351   4.942   4.041  2.1452  0.2698  2.5738
   62CHL1  H15B 5714   2.295   4.787   3.984 -0.2252 -0.3372  0.6460
   62CHL1   C16 5715   2.470   4.785   4.118 -0.0244 -0.2182  0.4651
   62CHL1  H16A 5716   2.483   4.853   4.205  2.7246 -0.4546  0.3412
   62CHL1  H16B 5717   2.417   4.701   4.168 -1.0789  0.9394  1.3241
   62CHL1   C17 5718   2.600   4.739   4.050 -0.8287  0.2105  0.8083
   62CHL1   H17 5719   2.574   4.643   4.001 -1.9013  1.1282 -0.5573
   62CHL1   C13 5720   2.616   4.839   3.923  0.1196  0.3760  0.6524
   62CHL1   C18 5721   2.676   4.976   3.976  0.0965  0.1542  0.3421
   62CHL1  H18A 5722   2.768   4.942   4.028  0.4992 -1.8554 -1.5367
   62CHL1  H18B 5723   2.695   5.038   3.886 -2.0590 -0.9164 -0.9278
   62CHL1  H18C 5724   2.603   5.022   4.047 -1.7185 -1.5740 -0.3127
   62CHL1   C12 5725   2.702   4.789   3.803 -0.4381 -0.2507  0.4277
   62CHL1  H12A 5726   2.810   4.784   3.831 -0.4860 -1.0415  0.5017
   62CHL1  H12B 5727   2.670   4.691   3.763  0.2882 -0.1260 -0.4944
   62CHL1   C11 5728   2.680   4.887   3.685  0.2668 -1.3286  0.0392
   62CHL1  H11A 5729   2.734   4.981   3.709  0.3366 -1.0277 -1.2285
   62CHL1  H11B 5730   2.724   4.842   3.593  0.0804 -1.3583 -0.0367
   62CHL1    C9 5731   2.533   4.916   3.649  0.0618 -0.1292  0.2987
   62CHL1    H9 5732   2.494   4.815   3.623 -1.0771  0.4164 -0.1891
   62CHL1   C10 5733   2.510   5.015   3.528 -0.1002 -0.0821  0.0424
   62CHL1   C19 5734   2.588   5.142   3.553  0.1360 -0.1296 -0.8473
   62CHL1  H19A 5735   2.592   5.210   3.465  2.6729  1.4057  0.3270
   62CHL1  H19B 5736   2.558   5.195   3.646  1.7270  0.0956 -0.4408
   62CHL1  H19C 5737   2.697   5.119   3.556  0.4887  1.4525 -0.3830
   62CHL1    C1 5738   2.554   4.934   3.408 -0.1076 -0.0381  0.3002
   62CHL1   H1A 5739   2.665   4.920   3.409  0.3064  2.6523  0.6655
   62CHL1   H1B 5740   2.498   4.838   3.418  0.6961 -0.5630 -0.0753
   62CHL1    C2 5741   2.516   4.984   3.270 -0.5670  0.2784 -0.1525
   62CHL1   H2A 5742   2.539   4.899   3.203  0.9733  0.2084  0.4249
   62CHL1   H2B 5743   2.590   5.064   3.246  0.1980 -0.9877 -2.2458
   62CHL1   C20 5744   2.715   4.713   4.140 -0.5873  0.0304  0.1068
   62CHL1   H20 5745   2.809   4.736   4.086 -0.5567 -0.0479  0.1268
   62CHL1   C21 5746   2.720   4.564   4.173  0.6663 -0.3427  0.5239
   62CHL1  H21A 5747   2.816   4.551   4.227  2.1244  2.4758 -1.1770
   62CHL1  H21B 5748   2.744   4.507   4.081  1.9440  1.5284 -0.3703
   62CHL1  H21C 5749   2.635   4.519   4.228 -0.5372 -0.8880 -1.6563
   62CHL1   C22 5750   2.714   4.798   4.269 -0.7271 -0.2768  0.9239
   62CHL1  H22A 5751   2.692   4.905   4.245 -0.4216 -0.4578 -0.2011
   62CHL1  H22B 5752   2.636   4.759   4.338 -0.7279 -3.4311 -0.7133
   62CHL1   C23 5753   2.852   4.801   4.339 -1.2063  0.0062  0.4486
   62CHL1  H23A 5754   2.898   4.701   4.357 -0.8282  0.3069  1.1745
   62CHL1  H23B 5755   2.923   4.859   4.275  0.0240 -1.4784  0.3817
   62CHL1   C24 5756   2.845   4.875   4.470  0.3310  0.3505  0.2834
   62CHL1  H24A 5757   2.819   4.981   4.449  3.2855  1.2927  0.8553
   62CHL1  H24B 5758   2.771   4.816   4.528  2.3039 -3.6737 -0.9302
   62CHL1   C25 5759   2.981   4.885   4.553 -0.0682  1.1371  0.4613
   62CHL1   H25 5760   3.023   4.785   4.576  0.5808  1.0806 -0.8960
   62CHL1   C26 5761   3.086   4.950   4.468  0.3319  0.6063 -0.3220
   62CHL1  H26A 5762   3.052   5.053   4.443 -2.8813 -0.8744 -2.9149
   62CHL1  H26B 5763   3.186   4.945   4.515 -0.6433 -1.0391  1.7508
   62CHL1  H26C 5764   3.098   4.896   4.371  0.7450 -2.3893  1.2789
   62CHL1   C27 5765   2.977   4.951   4.691  0.2591  0.5622  0.1017
   62CHL1  H27A 5766   3.067   4.931   4.754 -0.5016 -1.6271  0.5789
   62CHL1  H27B 5767   2.949   5.059   4.688 -0.5470  0.3564  0.0442
   62CHL1  H27C 5768   2.897   4.912   4.757  1.3962  0.7726  1.6660
   63CHL1    C3 5769   5.460   6.832   3.036 -0.6394  0.7435  0.1184
   63CHL1    H3 5770   5.501   6.925   3.081  0.7953 -0.8981  2.4395
   63CHL1    O3 5771   5.452   6.850   2.897 -0.5524 -0.2277  0.5648
   63CHL1   H3' 5772   5.539   6.861   2.857 -0.8721  0.3822  0.0139
   63CHL1    C4 5773   5.537   6.701   3.077  0.0498 -0.0417 -0.3493
   63CHL1   H4A 5774   5.495   6.611   3.027 -1.1695 -0.2672  1.0063
   63CHL1   H4B 5775   5.641   6.701   3.037 -0.0365 -0.9438 -0.5932
   63CHL1    C5 5776   5.531   6.681   3.230  0.2520  0.1835 -0.8497
   63CHL1    C6 5777   5.646   6.661   3.302  0.1414 -0.4668  0.2004
   63CHL1    H6 5778   5.742   6.654   3.249 -0.1016 -0.2263 -0.2698
   63CHL1    C7 5779   5.650   6.629   3.451 -0.2685  0.8479 -0.0275
   63CHL1   H7A 5780   5.701   6.530   3.450 -0.1397  0.9150 -0.4567
   63CHL1   H7B 5781   5.714   6.710   3.491  2.1948 -0.9857  0.0297
   63CHL1    C8 5782   5.507   6.618   3.516 -0.0897 -0.3549  0.3255
   63CHL1    H8 5783   5.469   6.514   3.504 -0.6448 -0.0913 -0.2790
   63CHL1   C14 5784   5.515   6.652   3.663  0.3674 -0.5083 -0.5699
   63CHL1   H14 5785   5.558   6.755   3.672  0.9820 -0.4776 -3.0768
   63CHL1   C15 5786   5.616   6.566   3.744 -0.2427 -0.1895 -0.5212
   63CHL1  H15A 5787   5.603   6.457   3.727  0.5861 -0.2558 -0.7493
   63CHL1  H15B 5788   5.725   6.581   3.730 -0.3623  0.5037 -0.7206
   63CHL1   C16 5789   5.573   6.607   3.889 -0.0049  0.1865  0.3345
   63CHL1  H16A 5790   5.571   6.515   3.951 -1.6070  0.4133  0.6835
   63CHL1  H16B 5791   5.650   6.672   3.935 -1.6905  0.9616  2.2544
   63CHL1   C17 5792   5.443   6.696   3.889 -0.3005  0.4606  0.2187
   63CHL1   H17 5793   5.470   6.804   3.895  0.7748  0.2427 -0.4012
   63CHL1   C13 5794   5.385   6.655   3.744 -0.0137  0.2088 -0.7487
   63CHL1   C18 5795   5.321   6.510   3.756 -0.2321 -0.1452  0.0378
   63CHL1  H18A 5796   5.215   6.530   3.782 -0.7285 -3.0335  0.5451
   63CHL1  H18B 5797   5.314   6.459   3.658  1.0926 -1.2798  0.5007
   63CHL1  H18C 5798   5.360   6.440   3.833 -0.0614  1.5490  1.5602
   63CHL1   C12 5799   5.287   6.748   3.669 -0.2136  0.0306 -0.4739
   63CHL1  H12A 5800   5.194   6.756   3.730  0.9683  1.0275  1.2621
   63CHL1  H12B 5801   5.338   6.846   3.664 -0.2212  0.1552  1.4618
   63CHL1   C11 5802   5.269   6.709   3.521 -0.1078  1.1490 -0.3088
   63CHL1  H11A 5803   5.226   6.606   3.529  0.1599  1.1638  2.9751
   63CHL1  H11B 5804   5.184   6.770   3.484 -2.1199 -2.0365 -1.3716
   63CHL1    C9 5805   5.402   6.704   3.451 -1.4532  0.2594  0.5524
   63CHL1    H9 5806   5.438   6.806   3.477  0.5812 -0.5079  0.9245
   63CHL1   C10 5807   5.392   6.688   3.296 -0.3249 -0.0100 -0.4578
   63CHL1   C19 5808   5.321   6.558   3.264  0.0529  0.9764 -0.3186
   63CHL1  H19A 5809   5.214   6.561   3.295  0.7535  1.3132  2.3851
   63CHL1  H19B 5810   5.322   6.535   3.156 -0.3071 -0.0771 -0.1110
   63CHL1  H19C 5811   5.366   6.474   3.322  0.1371  0.6176 -0.8965
   63CHL1    C1 5812   5.310   6.815   3.245 -0.3870 -0.5247  0.5327
   63CHL1   H1A 5813   5.203   6.810   3.272 -0.7842 -0.1774 -0.8939
   63CHL1   H1B 5814   5.359   6.908   3.282  1.6242 -0.9740 -0.8330
   63CHL1    C2 5815   5.306   6.825   3.090  0.0704 -0.0095 -0.1772
   63CHL1   H2A 5816   5.260   6.922   3.062  0.1397 -0.4724 -2.0169
   63CHL1   H2B 5817   5.257   6.739   3.039  0.3433 -0.2938  0.0376
   63CHL1   C20 5818   5.355   6.667   4.013  0.1323  0.1331  0.6167
   63CHL1   H20 5819   5.323   6.561   4.005 -0.6935  0.5083 -2.7122
   63CHL1   C21 5820   5.228   6.756   4.019 -0.3897 -0.0249 -0.4222
   63CHL1  H21A 5821   5.163   6.731   3.932 -0.8152 -0.9997  0.1633
   63CHL1  H21B 5822   5.243   6.866   4.019 -0.3570 -0.0122  0.9866
   63CHL1  H21C 5823   5.168   6.740   4.111 -1.2382  3.6145 -0.1837
   63CHL1   C22 5824   5.432   6.681   4.146 -0.1653 -0.6667 -0.7446
   63CHL1  H22A 5825   5.361   6.660   4.229  1.1057  0.0065  0.5541
   63CHL1  H22B 5826   5.515   6.608   4.161  0.5581  0.2282 -0.2616
   63CHL1   C23 5827   5.508   6.809   4.185  0.6858 -0.4941  0.9176
   63CHL1  H23A 5828   5.605   6.829   4.135  1.4529 -2.7046  1.4580
   63CHL1  H23B 5829   5.443   6.898   4.167  2.1467  0.2937 -0.7724
   63CHL1   C24 5830   5.537   6.813   4.330  0.1730 -0.7266  0.5206
   63CHL1  H24A 5831   5.447   6.791   4.391  0.5571 -2.1504  0.6183
   63CHL1  H24B 5832   5.614   6.737   4.359  1.0701 -0.2312 -0.5118
   63CHL1   C25 5833   5.572   6.952   4.382 -0.1467  0.4538  0.1251
   63CHL1   H25 5834   5.629   7.001   4.300  1.6567 -1.9691 -0.1559
   63CHL1   C26 5835   5.447   7.026   4.426 -0.5103  0.5652 -0.6500
   63CHL1  H26A 5836   5.407   6.974   4.516 -1.4745  2.3448  0.0148
   63CHL1  H26B 5837   5.460   7.135   4.446  0.3446  0.3818 -0.1745
   63CHL1  H26C 5838   5.372   7.007   4.346 -1.6484 -1.7632  0.8643
   63CHL1   C27 5839   5.677   6.947   4.495  0.0646  0.3658  0.1751
   63CHL1  H27A 5840   5.651   6.900   4.592  1.4252  0.9297  0.8416
   63CHL1  H27B 5841   5.765   6.893   4.454  0.5704  2.1332 -1.2023
   63CHL1  H27C 5842   5.703   7.051   4.526 -0.4413  1.1917 -1.9974
   64CHL1    C3 5843   3.253   0.667   2.992  0.6365 -0.0018 -0.0148
   64CHL1    H3 5844   3.298   0.755   3.044 -1.3973  1.0232  0.0925
   64CHL1    O3 5845   3.273   0.661   2.852  0.3620  0.2833 -0.0233
   64CHL1   H3' 5846   3.242   0.747   2.823  0.5529  0.6134  0.7235
   64CHL1    C4 5847   3.306   0.547   3.058  0.1910  0.6285 -0.6674
   64CHL1   H4A 5848   3.247   0.456   3.033  1.0326  0.1178 -0.8181
   64CHL1   H4B 5849   3.410   0.526   3.024 -0.1720  1.2745 -2.2442
   64CHL1    C5 5850   3.301   0.539   3.207  0.5226  0.3100 -0.4076
   64CHL1    C6 5851   3.406   0.512   3.296  0.8436  0.0839 -0.2655
   64CHL1    H6 5852   3.509   0.494   3.262  1.4652  3.5652 -0.6092
   64CHL1    C7 5853   3.395   0.512   3.447  0.0520  0.6226  0.0733
   64CHL1   H7A 5854   3.435   0.415   3.485 -1.6700  0.4515  1.5647
   64CHL1   H7B 5855   3.449   0.601   3.483 -0.5643 -0.0689  2.8932
   64CHL1    C8 5856   3.246   0.526   3.490  0.0317 -0.3925  0.4574
   64CHL1    H8 5857   3.206   0.423   3.485  2.0253 -1.1831 -0.0365
   64CHL1   C14 5858   3.251   0.578   3.635 -0.7998 -0.3703 -0.4291
   64CHL1   H14 5859   3.297   0.679   3.632  1.4249 -1.0094  4.0763
   64CHL1   C15 5860   3.334   0.496   3.741  0.3875 -0.6846 -0.0551
   64CHL1  H15A 5861   3.311   0.387   3.737 -1.6748 -0.3372  1.0235
   64CHL1  H15B 5862   3.445   0.493   3.735  0.4172 -1.0061  0.5356
   64CHL1   C16 5863   3.287   0.549   3.881  0.4010 -0.7428  0.3673
   64CHL1  H16A 5864   3.269   0.461   3.947 -0.1588 -0.0458  1.1555
   64CHL1  H16B 5865   3.365   0.610   3.930  1.3217 -1.3847 -0.2412
   64CHL1   C17 5866   3.168   0.638   3.846  0.0104 -0.3974  0.6355
   64CHL1   H17 5867   3.213   0.738   3.829 -0.1981 -0.4219 -0.1374
   64CHL1   C13 5868   3.125   0.596   3.702  0.3736 -0.3185 -0.1198
   64CHL1   C18 5869   3.047   0.466   3.715  0.5246 -0.7110 -0.2195
   64CHL1  H18A 5870   2.944   0.490   3.748  1.5805  1.4370  1.7855
   64CHL1  H18B 5871   3.032   0.417   3.616  0.6480 -1.1674 -0.0141
   64CHL1  H18C 5872   3.086   0.388   3.784  0.4435 -0.7985 -0.2728
   64CHL1   C12 5873   3.044   0.695   3.617  0.1268 -0.1878 -0.3776
   64CHL1  H12A 5874   2.944   0.709   3.662  0.4779 -0.9126  0.6698
   64CHL1  H12B 5875   3.103   0.789   3.616  1.2929 -0.8904  0.2480
   64CHL1   C11 5876   3.025   0.652   3.472  0.0070 -0.0099 -0.3137
   64CHL1  H11A 5877   2.955   0.566   3.466  1.2751 -1.2907  1.9428
   64CHL1  H11B 5878   2.973   0.733   3.417  0.1287 -0.1511 -0.6411
   64CHL1    C9 5879   3.158   0.619   3.405 -0.5667  0.1853  0.2421
   64CHL1    H9 5880   3.208   0.718   3.409  0.4094 -0.3351  1.5490
   64CHL1   C10 5881   3.157   0.574   3.260 -0.0468 -0.1949 -0.2612
   64CHL1   C19 5882   3.064   0.445   3.246  0.2259 -0.3314  0.6085
   64CHL1  H19A 5883   2.962   0.453   3.290 -1.0615  0.9929 -2.3536
   64CHL1  H19B 5884   3.045   0.412   3.142 -2.3815 -0.3480  1.0270
   64CHL1  H19C 5885   3.124   0.363   3.289 -0.4478  0.1369  2.5550
   64CHL1    C1 5886   3.078   0.684   3.179 -0.1450 -0.3717 -0.5176
   64CHL1   H1A 5887   2.971   0.691   3.210  0.3733  1.2448  1.0789
   64CHL1   H1B 5888   3.118   0.788   3.187 -0.5834 -0.1478 -1.1167
   64CHL1    C2 5889   3.094   0.666   3.024 -0.9257 -0.2806  0.1146
   64CHL1   H2A 5890   3.063   0.762   2.977 -0.3917  1.0373  2.3478
   64CHL1   H2B 5891   3.049   0.575   2.979 -0.2208 -0.6180  0.0791
   64CHL1   C20 5892   3.068   0.648   3.955 -0.5900 -0.4394  0.6981
   64CHL1   H20 5893   3.003   0.558   3.958  0.4001 -1.1971  0.0577
   64CHL1   C21 5894   2.984   0.778   3.936 -0.4574  0.6123  0.3717
   64CHL1  H21A 5895   3.041   0.863   3.979 -0.5676  0.2574  1.2551
   64CHL1  H21B 5896   2.897   0.772   4.005 -1.3334 -1.6472 -0.8416
   64CHL1  H21C 5897   2.961   0.806   3.831  0.3425 -1.7870 -0.5142
   64CHL1   C22 5898   3.136   0.641   4.090 -0.2419 -0.2857 -0.4398
   64CHL1  H22A 5899   3.181   0.545   4.122  2.3030  1.4894  1.8004
   64CHL1  H22B 5900   3.217   0.715   4.106 -0.2370 -0.3923  0.0326
   64CHL1   C23 5901   3.047   0.657   4.208 -0.4007  0.5798 -0.4057
   64CHL1  H23A 5902   3.024   0.766   4.215 -1.6051  0.3729 -0.8492
   64CHL1  H23B 5903   2.953   0.599   4.208  0.2158 -0.4344 -0.5480
   64CHL1   C24 5904   3.110   0.601   4.343 -0.1369 -0.6114 -0.1439
   64CHL1  H24A 5905   3.120   0.491   4.331  0.9165 -0.4956 -0.4428
   64CHL1  H24B 5906   3.212   0.645   4.352  0.4830 -1.9908  0.0082
   64CHL1   C25 5907   3.031   0.626   4.472  0.1468  0.5901 -0.2835
   64CHL1   H25 5908   2.935   0.576   4.446  0.4403 -0.3796  0.4815
   64CHL1   C26 5909   3.099   0.559   4.592  0.3214  0.2645 -0.6749
   64CHL1  H26A 5910   3.063   0.454   4.596 -1.9502  1.0460  1.5801
   64CHL1  H26B 5911   3.210   0.560   4.586  0.5602 -2.2247  1.5397
   64CHL1  H26C 5912   3.051   0.616   4.674 -1.6230  0.2077 -1.7212
   64CHL1   C27 5913   2.995   0.778   4.488 -1.2065 -0.2671  0.8184
   64CHL1  H27A 5914   3.079   0.850   4.501 -0.2816 -1.2439  0.4020
   64CHL1  H27B 5915   2.928   0.818   4.409  0.5095  1.6278  0.2343
   64CHL1  H27C 5916   2.938   0.779   4.583 -0.1886 -0.1196  1.4445
   65CHL1    C3 5917   3.413   3.807   2.600  0.9676 -0.4496  0.0139
   65CHL1    H3 5918   3.386   3.703   2.629  0.1179 -1.0279 -2.5857
   65CHL1    O3 5919   3.493   3.806   2.477 -0.1458 -0.4715 -0.4364
   65CHL1   H3' 5920   3.495   3.898   2.452  1.2158 -0.5609 -0.7024
   65CHL1    C4 5921   3.279   3.883   2.569 -0.4768 -0.1254  0.0851
   65CHL1   H4A 5922   3.297   3.989   2.543  0.2616 -0.6147 -1.5158
   65CHL1   H4B 5923   3.226   3.835   2.484 -0.7414  3.5105 -2.0081
   65CHL1    C5 5924   3.192   3.887   2.690  0.9796  0.0187  0.8766
   65CHL1    C6 5925   3.068   3.830   2.691  0.1690  1.1332  0.0319
   65CHL1    H6 5926   3.027   3.790   2.597 -0.8368  1.0446  0.4900
   65CHL1    C7 5927   2.975   3.828   2.813 -0.2555 -0.2746 -0.0502
   65CHL1   H7A 5928   2.867   3.845   2.792 -0.1308  2.4449  1.0217
   65CHL1   H7B 5929   2.978   3.729   2.863 -1.1180 -0.1746  0.2189
   65CHL1    C8 5930   3.017   3.934   2.916  0.0902  0.1910  0.2304
   65CHL1    H8 5931   2.996   4.032   2.869 -1.5976 -0.4980 -0.5252
   65CHL1   C14 5932   2.944   3.913   3.052 -0.1468 -0.0671  0.3254
   65CHL1   H14 5933   2.990   3.819   3.090  1.1612  0.5592  0.3392
   65CHL1   C15 5934   2.799   3.870   3.050  0.1677 -0.3270  0.0573
   65CHL1  H15A 5935   2.741   3.934   2.980  0.4881 -0.4225 -0.2970
   65CHL1  H15B 5936   2.779   3.762   3.037  0.6804 -0.3098 -1.0113
   65CHL1   C16 5937   2.755   3.904   3.191  1.0577 -0.2356 -0.7068
   65CHL1  H16A 5938   2.672   3.977   3.187  0.8098 -0.5586 -1.5773
   65CHL1  H16B 5939   2.723   3.807   3.236 -0.0741 -0.1416 -1.2929
   65CHL1   C17 5940   2.875   3.966   3.270  0.2176 -0.0253 -0.0949
   65CHL1   H17 5941   2.928   3.892   3.334  1.6892  2.0737  1.2508
   65CHL1   C13 5942   2.968   4.017   3.157  0.3335  0.0375 -0.9148
   65CHL1   C18 5943   2.921   4.158   3.111 -0.5548 -0.4640 -0.2199
   65CHL1  H18A 5944   2.888   4.228   3.191 -1.2789  1.5929 -2.2045
   65CHL1  H18B 5945   2.992   4.207   3.041 -0.2349  1.3042  1.2836
   65CHL1  H18C 5946   2.820   4.155   3.064 -0.7857 -1.9677  0.3174
   65CHL1   C12 5947   3.117   4.016   3.185 -0.3522 -0.7463  0.3770
   65CHL1  H12A 5948   3.150   4.088   3.262 -0.5163 -1.8524  1.5133
   65CHL1  H12B 5949   3.161   3.925   3.229  2.7311  0.3689 -0.1409
   65CHL1   C11 5950   3.204   4.037   3.052  0.5926  0.3398 -0.0521
   65CHL1  H11A 5951   3.187   4.143   3.024 -1.6131  0.5790  1.9656
   65CHL1  H11B 5952   3.311   4.014   3.074 -0.5274 -5.3541  0.9363
   65CHL1    C9 5953   3.166   3.933   2.939  0.3104 -0.2610 -0.3107
   65CHL1    H9 5954   3.195   3.831   2.970  0.7316 -0.4833 -1.3941
   65CHL1   C10 5955   3.256   3.958   2.816  0.1420  0.7466  0.0689
   65CHL1   C19 5956   3.277   4.105   2.791  0.9440 -0.0646  0.3855
   65CHL1  H19A 5957   3.341   4.106   2.700 -1.7849 -0.8203 -1.6906
   65CHL1  H19B 5958   3.187   4.165   2.766  2.1335  1.1244 -1.3239
   65CHL1  H19C 5959   3.323   4.158   2.876  1.2563  1.0248 -0.4328
   65CHL1    C1 5960   3.397   3.896   2.836  0.2521  0.6096  0.9396
   65CHL1   H1A 5961   3.443   3.967   2.908 -1.9174  1.9197  1.1304
   65CHL1   H1B 5962   3.380   3.797   2.883  0.4032  0.5133  0.7934
   65CHL1    C2 5963   3.483   3.883   2.711  0.0479 -0.8768 -0.4108
   65CHL1   H2A 5964   3.578   3.830   2.735 -0.3159 -1.4519 -0.2250
   65CHL1   H2B 5965   3.512   3.985   2.677 -0.0630 -0.5975  0.3088
   65CHL1   C20 5966   2.829   4.058   3.388 -0.0277  0.2309 -0.5730
   65CHL1   H20 5967   2.789   4.153   3.346  0.9621  0.0416 -2.0092
   65CHL1   C21 5968   2.951   4.092   3.474 -0.2191  0.0249  0.7591
   65CHL1  H21A 5969   3.012   4.166   3.419  0.8585 -0.6246  1.0432
   65CHL1  H21B 5970   3.010   4.001   3.496  0.2479 -0.0777 -0.8413
   65CHL1  H21C 5971   2.923   4.132   3.574  0.3326 -1.5544  1.5708
   65CHL1   C22 5972   2.731   3.983   3.474 -0.2280 -0.3952  0.1180
   65CHL1  H22A 5973   2.745   3.873   3.470 -1.4065 -0.5439 -0.5213
   65CHL1  H22B 5974   2.760   4.018   3.575  2.4098  0.5650 -0.8983
   65CHL1   C23 5975   2.579   4.023   3.470 -0.0283  0.0373  0.1471
   65CHL1  H23A 5976   2.571   4.134   3.478  0.2091  0.2166 -1.6119
   65CHL1  H23B 5977   2.543   3.999   3.367  0.3437  0.8285 -0.1776
   65CHL1   C24 5978   2.483   3.968   3.575  0.1974  0.0961 -0.3756
   65CHL1  H24A 5979   2.526   3.994   3.674  0.6225 -0.3873 -0.4293
   65CHL1  H24B 5980   2.382   4.015   3.573 -0.3720 -1.0612 -0.0987
   65CHL1   C25 5981   2.458   3.815   3.568  0.0016 -0.7338  0.0781
   65CHL1   H25 5982   2.557   3.766   3.577  0.4924 -0.1005 -1.5569
   65CHL1   C26 5983   2.365   3.784   3.681 -0.7011  0.6185  0.1452
   65CHL1  H26A 5984   2.329   3.679   3.683 -1.4492  0.8632  1.9301
   65CHL1  H26B 5985   2.397   3.805   3.786 -2.0408  0.1778  0.6770
   65CHL1  H26C 5986   2.268   3.839   3.673 -2.0367 -1.7364 -0.6285
   65CHL1   C27 5987   2.407   3.778   3.430  0.2187 -0.0220  0.3124
   65CHL1  H27A 5988   2.309   3.830   3.423 -0.2799 -0.7921  1.3651
   65CHL1  H27B 5989   2.466   3.809   3.341  0.8441 -1.0931  0.3315
   65CHL1  H27C 5990   2.391   3.668   3.427 -1.9658  0.2653 -0.3303
   66CHL1    C3 5991   0.786   0.813   2.878  0.1570  0.7071 -0.3413
   66CHL1    H3 5992   0.713   0.738   2.914  0.6471  0.6775  0.6277
   66CHL1    O3 5993   0.815   0.778   2.741 -0.0933 -0.0042 -0.7667
   66CHL1   H3' 5994   0.892   0.832   2.726 -0.2916  0.3664 -0.4684
   66CHL1    C4 5995   0.718   0.953   2.883 -0.1324 -0.3960  0.5335
   66CHL1   H4A 5996   0.793   1.021   2.839  0.0366 -0.0902  1.2826
   66CHL1   H4B 5997   0.628   0.946   2.819 -1.9470 -2.8065  3.0824
   66CHL1    C5 5998   0.687   0.997   3.024 -0.2701  0.1577  0.1433
   66CHL1    C6 5999   0.564   1.040   3.062  0.2855  0.9125  0.5833
   66CHL1    H6 6000   0.487   1.028   2.984  0.9579 -0.4122  0.0868
   66CHL1    C7 6001   0.534   1.102   3.200 -0.0129 -0.1258  0.2808
   66CHL1   H7A 6002   0.472   1.193   3.188  0.1411 -0.1767 -1.0562
   66CHL1   H7B 6003   0.468   1.032   3.257 -2.8158  2.6334  0.6927
   66CHL1    C8 6004   0.660   1.129   3.286  0.5491  0.3113  0.9756
   66CHL1    H8 6005   0.688   1.229   3.246 -1.5486  0.9464  0.9694
   66CHL1   C14 6006   0.624   1.139   3.433  0.3489 -0.1828 -0.3657
   66CHL1   H14 6007   0.569   1.044   3.453 -1.6246  0.3564 -2.8325
   66CHL1   C15 6008   0.528   1.254   3.469  0.0732  0.4940  0.2178
   66CHL1  H15A 6009   0.567   1.352   3.437  1.2718  0.0692  0.3363
   66CHL1  H15B 6010   0.428   1.248   3.420  0.6872  1.6666 -1.2463
   66CHL1   C16 6011   0.526   1.245   3.616  0.1938 -0.5231 -1.0251
   66CHL1  H16A 6012   0.530   1.349   3.656  0.6075 -0.7073 -0.5757
   66CHL1  H16B 6013   0.429   1.202   3.648  0.3587 -0.2651 -0.1364
   66CHL1   C17 6014   0.649   1.165   3.668 -0.2826  0.5752  0.3926
   66CHL1   H17 6015   0.612   1.062   3.688 -1.8199  0.3579 -2.8934
   66CHL1   C13 6016   0.736   1.152   3.537 -0.3535 -0.9708 -0.2618
   66CHL1   C18 6017   0.820   1.288   3.516  0.8972  0.4703  0.4456
   66CHL1  H18A 6018   0.912   1.284   3.578  0.8962 -0.8067  0.3946
   66CHL1  H18B 6019   0.843   1.297   3.408 -0.9773  0.0547 -0.0265
   66CHL1  H18C 6020   0.765   1.377   3.551 -1.8783  0.0486 -2.3955
   66CHL1   C12 6021   0.832   1.031   3.526 -0.0212  0.1761  0.0861
   66CHL1  H12A 6022   0.916   1.045   3.597 -0.9086  2.0334  0.8186
   66CHL1  H12B 6023   0.784   0.936   3.559 -0.2080  0.3494  0.3125
   66CHL1   C11 6024   0.875   1.016   3.382 -0.0462 -0.0845  0.0531
   66CHL1  H11A 6025   0.948   1.094   3.351 -0.1090  0.3580  0.9875
   66CHL1  H11B 6026   0.933   0.921   3.381  0.6799  0.3579 -0.4619
   66CHL1    C9 6027   0.763   1.009   3.273 -0.0371 -0.2005 -0.5046
   66CHL1    H9 6028   0.701   0.921   3.301  0.9463 -0.1509  2.1099
   66CHL1   C10 6029   0.811   0.988   3.127 -0.0098 -0.4327  0.8494
   66CHL1   C19 6030   0.911   1.103   3.093 -0.0512 -0.7153  0.4695
   66CHL1  H19A 6031   0.876   1.205   3.120 -0.6581 -0.6081 -0.6750
   66CHL1  H19B 6032   1.012   1.101   3.141  0.5298  1.3922 -0.5427
   66CHL1  H19C 6033   0.927   1.111   2.983 -0.1946  1.6823  0.5620
   66CHL1    C1 6034   0.886   0.852   3.100  1.1233 -0.0537 -0.3386
   66CHL1   H1A 6035   0.988   0.858   3.145  1.2370  0.7563 -0.6836
   66CHL1   H1B 6036   0.837   0.767   3.151 -0.4727  0.6494 -0.6384
   66CHL1    C2 6037   0.910   0.816   2.960  0.8879 -0.0688 -0.1519
   66CHL1   H2A 6038   0.966   0.721   2.948 -1.5554 -2.2731  3.6238
   66CHL1   H2B 6039   0.990   0.889   2.932  1.7930 -0.4998  1.1901
   66CHL1   C20 6040   0.707   1.233   3.788 -0.0009  0.8563 -0.1321
   66CHL1   H20 6041   0.722   1.341   3.769  1.1404  1.0451  1.5943
   66CHL1   C21 6042   0.847   1.173   3.831  0.2260  0.6325 -0.2641
   66CHL1  H21A 6043   0.930   1.214   3.771  1.6414  0.6898  1.6504
   66CHL1  H21B 6044   0.842   1.062   3.841 -2.0253  0.6492 -0.7067
   66CHL1  H21C 6045   0.874   1.219   3.928 -2.8948  3.9650 -0.7562
   66CHL1   C22 6046   0.612   1.232   3.914  0.0744  0.4970  0.4933
   66CHL1  H22A 6047   0.510   1.256   3.876 -0.1394  1.0233  1.3452
   66CHL1  H22B 6048   0.618   1.128   3.954 -2.4642  0.7449  1.7759
   66CHL1   C23 6049   0.640   1.340   4.018 -0.1963 -0.2124 -0.2787
   66CHL1  H23A 6050   0.741   1.324   4.059  0.5318  0.7846 -1.6206
   66CHL1  H23B 6051   0.637   1.440   3.970  1.0688  0.7245  1.5224
   66CHL1   C24 6052   0.536   1.337   4.138 -0.1828  0.4297  0.1074
   66CHL1  H24A 6053   0.436   1.355   4.094  0.1809  2.0602 -0.1225
   66CHL1  H24B 6054   0.554   1.231   4.167 -0.8010  0.4266  0.5085
   66CHL1   C25 6055   0.573   1.433   4.253  0.3219 -0.6681 -0.7222
   66CHL1   H25 6056   0.671   1.400   4.294  1.0643  1.7557 -0.3811
   66CHL1   C26 6057   0.608   1.582   4.218  0.4548  0.3310  0.5488
   66CHL1  H26A 6058   0.511   1.625   4.186  0.5313 -0.8816 -1.4744
   66CHL1  H26B 6059   0.644   1.644   4.303 -1.8097  1.1956  0.9559
   66CHL1  H26C 6060   0.688   1.582   4.140 -2.4955  3.1808 -2.8348
   66CHL1   C27 6061   0.472   1.421   4.368 -0.3076 -0.3217  0.0970
   66CHL1  H27A 6062   0.516   1.454   4.465  1.1902 -2.8647  0.3604
   66CHL1  H27B 6063   0.437   1.316   4.381 -0.3788 -0.5227 -1.5386
   66CHL1  H27C 6064   0.382   1.485   4.355 -0.1942  0.5638  2.9733
   67CHL1    C3 6065   5.579   2.326   2.687 -0.4141  0.1599  0.0442
   67CHL1    H3 6066   5.623   2.424   2.715  0.8413 -0.2822 -0.3006
   67CHL1    O3 6067   5.621   2.294   2.548 -0.2388 -0.8775  0.3486
   67CHL1   H3' 6068   5.706   2.251   2.556  0.7035  0.9966  1.1183
   67CHL1    C4 6069   5.634   2.223   2.788  0.1177 -0.7105 -0.7592
   67CHL1   H4A 6070   5.619   2.120   2.750  2.4514 -1.2884 -0.2967
   67CHL1   H4B 6071   5.743   2.230   2.769 -0.1005  2.0770 -1.4195
   67CHL1    C5 6072   5.583   2.234   2.934  0.3654  0.9740  0.6379
   67CHL1    C6 6073   5.672   2.223   3.032 -0.0936  0.6168  0.1635
   67CHL1    H6 6074   5.771   2.179   3.011  0.0201  0.9229  0.0533
   67CHL1    C7 6075   5.637   2.251   3.179  0.0949 -0.4238  0.4710
   67CHL1   H7A 6076   5.678   2.171   3.244  0.8322 -1.1581 -0.8468
   67CHL1   H7B 6077   5.678   2.353   3.194 -1.1831  0.5024 -1.7112
   67CHL1    C8 6078   5.492   2.262   3.215  0.1138 -0.4546 -0.3158
   67CHL1    H8 6079   5.453   2.161   3.237 -0.9811  0.3849  1.9014
   67CHL1   C14 6080   5.478   2.346   3.343  0.4365 -0.0160  0.8894
   67CHL1   H14 6081   5.507   2.450   3.315  1.7238 -0.8044 -0.9060
   67CHL1   C15 6082   5.570   2.305   3.460  0.7324 -0.1469  0.2763
   67CHL1  H15A 6083   5.581   2.194   3.469 -0.2668 -0.5932 -2.7382
   67CHL1  H15B 6084   5.669   2.353   3.447  1.0264 -0.4231  1.4365
   67CHL1   C16 6085   5.493   2.362   3.589  0.3777  0.1850 -0.1620
   67CHL1  H16A 6086   5.472   2.278   3.660 -0.5913  0.0350 -0.6108
   67CHL1  H16B 6087   5.545   2.452   3.628 -0.9523  1.8718 -2.1007
   67CHL1   C17 6088   5.352   2.412   3.536 -0.0397  0.9327 -0.1580
   67CHL1   H17 6089   5.348   2.522   3.528  0.0491  0.8947 -0.7636
   67CHL1   C13 6090   5.341   2.346   3.391  0.0121 -0.1036  0.4753
   67CHL1   C18 6091   5.278   2.207   3.401 -0.0935 -0.0486  0.0207
   67CHL1  H18A 6092   5.176   2.217   3.444  0.1082  3.5235  0.0149
   67CHL1  H18B 6093   5.260   2.162   3.301 -1.0673  2.7328 -1.1855
   67CHL1  H18C 6094   5.342   2.134   3.455 -0.9069 -1.5304 -0.9573
   67CHL1   C12 6095   5.257   2.416   3.278 -0.1759  0.4955 -0.5693
   67CHL1  H12A 6096   5.152   2.421   3.313  0.7636  2.0752  2.2890
   67CHL1  H12B 6097   5.302   2.516   3.259 -0.9826  0.9926  0.0750
   67CHL1   C11 6098   5.267   2.348   3.141 -0.1246  0.0672 -0.8433
   67CHL1  H11A 6099   5.220   2.247   3.143 -0.5044  0.2359  1.7204
   67CHL1  H11B 6100   5.215   2.407   3.062  1.4448  1.3277 -0.9827
   67CHL1    C9 6101   5.413   2.334   3.100 -0.1970  0.3906  0.2389
   67CHL1    H9 6102   5.467   2.430   3.100  1.1826 -0.3176 -2.1089
   67CHL1   C10 6103   5.438   2.285   2.955  0.1663  0.9380 -0.5781
   67CHL1   C19 6104   5.357   2.155   2.934  0.1319 -0.4474 -0.3835
   67CHL1  H19A 6105   5.389   2.088   2.851  0.0549 -1.8786  0.7075
   67CHL1  H19B 6106   5.376   2.094   3.025 -1.8952  1.6293  1.5603
   67CHL1  H19C 6107   5.247   2.159   2.921  0.2232  1.8275 -0.8218
   67CHL1    C1 6108   5.387   2.384   2.848  0.5102  0.1782  0.3064
   67CHL1   H1A 6109   5.276   2.382   2.846  0.5049 -0.8294 -2.3669
   67CHL1   H1B 6110   5.428   2.481   2.882  0.6967 -0.4129  1.8658
   67CHL1    C2 6111   5.423   2.343   2.703 -0.0073  0.1689  0.1748
   67CHL1   H2A 6112   5.384   2.422   2.634 -3.5498 -0.9779  0.6712
   67CHL1   H2B 6113   5.371   2.251   2.669 -0.6821  0.7734 -0.4653
   67CHL1   C20 6114   5.243   2.378   3.645 -1.0799  0.3258  0.3116
   67CHL1   H20 6115   5.236   2.268   3.636  0.3293 -0.0340  2.6814
   67CHL1   C21 6116   5.114   2.450   3.607 -0.2684 -0.4157 -0.8809
   67CHL1  H21A 6117   5.030   2.430   3.676 -0.2988  2.7063  0.1779
   67CHL1  H21B 6118   5.079   2.414   3.508  0.1658  0.7587 -1.4827
   67CHL1  H21C 6119   5.126   2.560   3.595 -2.9502  0.0706  0.2229
   67CHL1   C22 6120   5.277   2.403   3.798 -0.4942  0.2586 -0.9856
   67CHL1  H22A 6121   5.386   2.387   3.805 -0.7715 -0.9233  2.6355
   67CHL1  H22B 6122   5.241   2.504   3.828  0.5674  0.4855 -0.4306
   67CHL1   C23 6123   5.214   2.302   3.894  0.4384  0.1724 -0.2992
   67CHL1  H23A 6124   5.103   2.305   3.900  0.4459 -0.3728  0.2185
   67CHL1  H23B 6125   5.245   2.201   3.860  1.2823  0.3040  0.0492
   67CHL1   C24 6126   5.266   2.306   4.040 -0.3242 -0.8851 -0.0950
   67CHL1  H24A 6127   5.374   2.325   4.055 -0.9544  1.7180  1.9454
   67CHL1  H24B 6128   5.244   2.408   4.080 -0.5520 -1.4853  1.3425
   67CHL1   C25 6129   5.213   2.212   4.146 -0.2001 -0.4278 -0.4957
   67CHL1   H25 6130   5.279   2.123   4.136 -0.7349 -1.3098  2.6948
   67CHL1   C26 6131   5.240   2.272   4.284  0.1044 -0.0881  0.1624
   67CHL1  H26A 6132   5.349   2.276   4.299  0.0460 -0.8425  0.8471
   67CHL1  H26B 6133   5.187   2.369   4.297  1.3853  0.4083  1.9571
   67CHL1  H26C 6134   5.215   2.206   4.369  2.2768  2.5010  3.0264
   67CHL1   C27 6135   5.069   2.176   4.136 -0.3454  0.0338 -0.5969
   67CHL1  H27A 6136   5.000   2.260   4.158 -0.2274 -0.1729  0.6889
   67CHL1  H27B 6137   5.046   2.127   4.039  0.0367 -0.9852 -0.1898
   67CHL1  H27C 6138   5.044   2.095   4.209  4.3820  0.0516  1.3940
   68CHL1    C3 6139   3.778   2.360   2.835 -0.0402 -0.2724  0.3463
   68CHL1    H3 6140   3.671   2.357   2.862  0.5471 -3.7399  2.9610
   68CHL1    O3 6141   3.805   2.311   2.706  0.7481  0.0032  0.1381
   68CHL1   H3' 6142   3.734   2.346   2.651  0.1846 -1.2982 -0.0041
   68CHL1    C4 6143   3.825   2.508   2.863  0.4030  0.3287 -0.2276
   68CHL1   H4A 6144   3.925   2.509   2.815  1.2197 -2.8184  1.1907
   68CHL1   H4B 6145   3.757   2.577   2.807  0.2786  0.5678  0.2132
   68CHL1    C5 6146   3.837   2.546   3.014  0.8954 -0.4331 -0.1210
   68CHL1    C6 6147   3.769   2.653   3.058  0.4759  0.2512  0.2055
   68CHL1    H6 6148   3.734   2.726   2.984  2.5136 -1.1442 -2.3098
   68CHL1    C7 6149   3.754   2.688   3.200  0.4410  0.3230  0.0089
   68CHL1   H7A 6150   3.772   2.797   3.216 -0.1875  0.4899 -0.3471
   68CHL1   H7B 6151   3.646   2.672   3.221  0.0442  0.6010 -1.6189
   68CHL1    C8 6152   3.843   2.604   3.293  0.4896 -0.3294  0.0908
   68CHL1    H8 6153   3.945   2.649   3.285  0.2824 -0.1247 -2.1391
   68CHL1   C14 6154   3.808   2.627   3.433  0.2457  0.2284 -0.5680
   68CHL1   H14 6155   3.705   2.586   3.439  0.7881 -1.0206  1.0500
   68CHL1   C15 6156   3.795   2.770   3.483  0.3516  0.1899 -0.7701
   68CHL1  H15A 6157   3.889   2.819   3.450  0.0019  2.0146  0.7957
   68CHL1  H15B 6158   3.712   2.823   3.432  0.6266  2.9267  1.4225
   68CHL1   C16 6159   3.784   2.757   3.633 -0.3487  1.1852  0.4278
   68CHL1  H16A 6160   3.864   2.812   3.686  0.8421 -0.9092  0.9311
   68CHL1  H16B 6161   3.685   2.800   3.660 -0.5129  1.1185 -0.0566
   68CHL1   C17 6162   3.821   2.606   3.669 -0.3673 -0.2651  0.3813
   68CHL1   H17 6163   3.725   2.549   3.673 -0.7640  0.4353  1.1761
   68CHL1   C13 6164   3.888   2.555   3.541 -0.4662 -0.7850 -0.5427
   68CHL1   C18 6165   4.037   2.597   3.548  0.5930  0.3050 -0.1116
   68CHL1  H18A 6166   4.047   2.704   3.576  2.6669 -0.1375  0.9783
   68CHL1  H18B 6167   4.096   2.545   3.626 -0.5916  1.3032  1.5250
   68CHL1  H18C 6168   4.096   2.596   3.454  0.4403 -1.8386 -0.2192
   68CHL1   C12 6169   3.875   2.408   3.508 -0.1072 -0.6420  0.6395
   68CHL1  H12A 6170   3.922   2.334   3.576 -2.5796 -1.8385  1.1556
   68CHL1  H12B 6171   3.768   2.379   3.512 -0.2575  0.0515  3.3600
   68CHL1   C11 6172   3.927   2.376   3.365  0.3717 -0.1238  0.4727
   68CHL1  H11A 6173   4.035   2.401   3.357 -0.0045  1.1476 -1.0237
   68CHL1  H11B 6174   3.900   2.268   3.358  0.6779 -0.3073  1.8804
   68CHL1    C9 6175   3.848   2.457   3.258  0.1209  0.4129  0.0028
   68CHL1    H9 6176   3.742   2.428   3.271  0.4716 -0.3874  1.2985
   68CHL1   C10 6177   3.885   2.432   3.109 -0.2780  0.2743 -0.2619
   68CHL1   C19 6178   4.039   2.437   3.090 -0.4047 -0.2922 -0.0808
   68CHL1  H19A 6179   4.070   2.429   2.983  1.2230  1.4591  0.1989
   68CHL1  H19B 6180   4.096   2.529   3.114  0.4796 -0.2800 -1.9684
   68CHL1  H19C 6181   4.070   2.349   3.150  3.1459  1.0992  0.4249
   68CHL1    C1 6182   3.830   2.297   3.069 -0.1280 -0.0713 -0.7161
   68CHL1   H1A 6183   3.879   2.217   3.128  0.0806  1.6052  1.4933
   68CHL1   H1B 6184   3.721   2.293   3.091  0.2912  1.0866  1.8822
   68CHL1    C2 6185   3.848   2.263   2.924 -0.2672  1.0617 -0.8381
   68CHL1   H2A 6186   3.793   2.171   2.892 -0.3047  0.7513  0.0843
   68CHL1   H2B 6187   3.956   2.248   2.904  0.2558 -0.0047  2.1998
   68CHL1   C20 6188   3.884   2.596   3.809 -0.9539  0.5549  0.5005
   68CHL1   H20 6189   3.980   2.652   3.815  0.0824 -1.0799 -0.1198
   68CHL1   C21 6190   3.907   2.447   3.840  0.1074  0.4080 -0.2331
   68CHL1  H21A 6191   3.982   2.430   3.920  0.3150  0.1439 -0.4828
   68CHL1  H21B 6192   3.946   2.382   3.759  0.6384 -1.5000  1.4659
   68CHL1  H21C 6193   3.808   2.399   3.859  0.6771 -0.8743 -0.3952
   68CHL1   C22 6194   3.798   2.655   3.925 -0.2409  0.1587 -0.4723
   68CHL1  H22A 6195   3.773   2.759   3.896  1.5321  0.4306 -1.1371
   68CHL1  H22B 6196   3.711   2.597   3.961 -0.3189 -0.5937 -1.7787
   68CHL1   C23 6197   3.893   2.671   4.049  0.6917  0.1356  0.6887
   68CHL1  H23A 6198   3.938   2.571   4.065 -2.2994 -2.1542 -3.3909
   68CHL1  H23B 6199   3.968   2.753   4.040 -0.9234  1.7486  1.1480
   68CHL1   C24 6200   3.804   2.692   4.178  0.0180  0.6029  0.2901
   68CHL1  H24A 6201   3.765   2.796   4.172 -0.3884  0.3919 -1.1166
   68CHL1  H24B 6202   3.713   2.628   4.180 -0.4517  1.2699  1.7437
   68CHL1   C25 6203   3.881   2.696   4.313 -0.3231  0.0551  0.4330
   68CHL1   H25 6204   3.986   2.721   4.284 -0.1444 -0.0269  1.0079
   68CHL1   C26 6205   3.835   2.808   4.410 -0.6887 -0.0052 -0.0448
   68CHL1  H26A 6206   3.896   2.803   4.503 -2.0269 -0.8596  0.8137
   68CHL1  H26B 6207   3.845   2.911   4.368  0.5373 -0.4288 -0.8528
   68CHL1  H26C 6208   3.730   2.791   4.443 -1.4076 -0.5392 -2.4186
   68CHL1   C27 6209   3.890   2.554   4.368 -0.4176 -0.6340  0.2973
   68CHL1  H27A 6210   3.927   2.488   4.287 -0.1075 -1.0736  0.7889
   68CHL1  H27B 6211   3.953   2.555   4.460  1.8256 -2.4705 -1.0861
   68CHL1  H27C 6212   3.788   2.513   4.383 -0.1296 -2.0490 -1.3256
   69CHL1    C3 6213   6.620   0.171   3.267 -0.1158  0.4873  0.3283
   69CHL1    H3 6214   6.701   0.095   3.267 -2.1180 -1.7824 -0.7254
   69CHL1    O3 6215   6.595   0.192   3.128 -0.3953 -0.4555 -0.7683
   69CHL1   H3' 6216   6.514   0.243   3.124  0.0049  0.4156  0.9913
   69CHL1    C4 6217   6.491   0.110   3.317  0.3594  0.2021  0.0402
   69CHL1   H4A 6218   6.413   0.187   3.295  0.2353 -0.0527 -0.4318
   69CHL1   H4B 6219   6.461   0.016   3.265  0.1985 -0.0773  0.6374
   69CHL1    C5 6220   6.504   0.080   3.464 -0.3158  0.2799 -0.3966
   69CHL1    C6 6221   6.482  -0.046   3.511 -0.9486  0.2129  0.3997
   69CHL1    H6 6222   6.470  -0.120   3.430  1.6849 -0.0313  0.1599
   69CHL1    C7 6223   6.492  -0.097   3.652 -0.0071 -0.0292  0.7277
   69CHL1   H7A 6224   6.406  -0.161   3.681 -1.0956  0.8266 -0.4676
   69CHL1   H7B 6225   6.589  -0.149   3.666  0.0881 -0.1977 -0.4685
   69CHL1    C8 6226   6.491   0.023   3.749 -0.1634 -0.1939  0.8758
   69CHL1    H8 6227   6.390   0.069   3.747  1.3213  3.4051 -1.4685
   69CHL1   C14 6228   6.538  -0.021   3.889  0.2864  0.3086 -0.0593
   69CHL1   H14 6229   6.644  -0.051   3.874  0.2858 -1.1130  2.1708
   69CHL1   C15 6230   6.465  -0.136   3.945  1.0467  0.2615 -0.5664
   69CHL1  H15A 6231   6.354  -0.125   3.940  0.9768  1.8971  2.3266
   69CHL1  H15B 6232   6.493  -0.241   3.920 -1.6534 -0.7095  0.1385
   69CHL1   C16 6233   6.504  -0.124   4.095 -1.1819  0.2610  0.5507
   69CHL1  H16A 6234   6.416  -0.123   4.162 -2.3519 -0.7130 -0.8862
   69CHL1  H16B 6235   6.570  -0.210   4.118 -0.5813  1.2904  2.9126
   69CHL1   C17 6236   6.593   0.011   4.114 -0.3870 -0.1306  0.0104
   69CHL1   H17 6237   6.700  -0.014   4.100 -0.7635 -2.2444  0.5462
   69CHL1   C13 6238   6.547   0.094   3.997  0.1333  0.9460  0.2356
   69CHL1   C18 6239   6.412   0.158   4.020  0.0259 -0.4680 -0.3652
   69CHL1  H18A 6240   6.384   0.211   3.927 -0.9656 -0.7804 -0.2601
   69CHL1  H18B 6241   6.333   0.083   4.047 -0.5482  0.7589  1.6062
   69CHL1  H18C 6242   6.428   0.233   4.101  0.9587 -0.4751 -0.5412
   69CHL1   C12 6243   6.649   0.189   3.940 -0.3587  0.1679 -0.0511
   69CHL1  H12A 6244   6.670   0.272   4.010 -0.5814  1.0480 -1.0154
   69CHL1  H12B 6245   6.742   0.138   3.906 -1.3341 -2.0600  0.4193
   69CHL1   C11 6246   6.602   0.251   3.806  0.5405 -0.3859  0.4494
   69CHL1  H11A 6247   6.525   0.329   3.824  2.2295  1.1208  1.5622
   69CHL1  H11B 6248   6.683   0.315   3.765  1.6177 -1.9770 -0.0323
   69CHL1    C9 6249   6.583   0.138   3.699  0.1744 -0.4218  0.3399
   69CHL1    H9 6250   6.682   0.088   3.689 -0.3220 -1.4396  0.4045
   69CHL1   C10 6251   6.544   0.193   3.562 -0.3621  0.0250 -0.3206
   69CHL1   C19 6252   6.426   0.288   3.574  0.5600  0.0698  0.4479
   69CHL1  H19A 6253   6.455   0.381   3.627  2.0080  0.8308 -1.5575
   69CHL1  H19B 6254   6.397   0.332   3.477 -1.5366 -3.0805 -0.5105
   69CHL1  H19C 6255   6.340   0.238   3.623 -0.6501  0.4965 -1.1726
   69CHL1    C1 6256   6.664   0.278   3.497 -0.0124  0.4443  0.0389
   69CHL1   H1A 6257   6.670   0.378   3.545  2.4685  0.6475 -0.5729
   69CHL1   H1B 6258   6.752   0.214   3.517 -1.3242 -1.0756  1.2901
   69CHL1    C2 6259   6.660   0.299   3.336  0.1646 -0.0953  0.2885
   69CHL1   H2A 6260   6.756   0.343   3.299 -0.8987  1.1017 -1.1878
   69CHL1   H2B 6261   6.575   0.368   3.320  0.0426 -0.3223 -0.0459
   69CHL1   C20 6262   6.589   0.073   4.251 -0.4901  0.7861 -0.0177
   69CHL1   H20 6263   6.484   0.109   4.261 -0.2870  0.9243  2.1548
   69CHL1   C21 6264   6.678   0.193   4.271  0.0709  0.2119 -0.5510
   69CHL1  H21A 6265   6.777   0.163   4.233 -0.9752 -2.6605 -1.1980
   69CHL1  H21B 6266   6.685   0.217   4.380 -1.8304  2.2068 -0.8049
   69CHL1  H21C 6267   6.636   0.280   4.215  0.0558  0.1343 -0.6594
   69CHL1   C22 6268   6.619  -0.031   4.357 -0.3103  0.8114 -1.2052
   69CHL1  H22A 6269   6.611   0.026   4.452 -0.0571  2.7250 -2.2877
   69CHL1  H22B 6270   6.540  -0.107   4.376  0.2289  0.6756  0.6776
   69CHL1   C23 6271   6.763  -0.094   4.357  0.3695 -0.1868  0.1758
   69CHL1  H23A 6272   6.833  -0.051   4.282  1.7668 -3.4963 -0.6003
   69CHL1  H23B 6273   6.809  -0.067   4.454 -1.5087  0.2127  1.0134
   69CHL1   C24 6274   6.749  -0.245   4.362  0.3048  0.6515 -0.2870
   69CHL1  H24A 6275   6.678  -0.260   4.446  2.0350 -0.8647  0.9895
   69CHL1  H24B 6276   6.694  -0.282   4.272 -0.0574  1.5801 -0.4583
   69CHL1   C25 6277   6.873  -0.325   4.406 -0.0200 -0.0953  0.3807
   69CHL1   H25 6278   6.958  -0.325   4.334  0.4799 -2.5555  0.8946
   69CHL1   C26 6279   6.938  -0.281   4.543 -0.1701 -0.2369  0.4875
   69CHL1  H26A 6280   6.868  -0.300   4.626 -0.7166  2.1700  0.6459
   69CHL1  H26B 6281   7.024  -0.348   4.568  0.1322 -0.3190 -0.6867
   69CHL1  H26C 6282   6.973  -0.175   4.542  1.7579 -0.8221 -0.8491
   69CHL1   C27 6283   6.829  -0.470   4.426  0.2816 -0.0210  0.6131
   69CHL1  H27A 6284   6.762  -0.497   4.341 -3.1106 -0.3781  3.1641
   69CHL1  H27B 6285   6.919  -0.533   4.418 -2.2478 -3.7760 -1.4311
   69CHL1  H27C 6286   6.770  -0.480   4.520 -2.0474  0.2857 -0.7437
   70CHL1    C3 6287   3.961   5.015   2.482  0.7535 -0.1140  0.5909
   70CHL1    H3 6288   3.884   5.093   2.502 -1.0659 -1.8046  0.4861
   70CHL1    O3 6289   3.952   4.987   2.342  0.2138 -0.1158  0.0826
   70CHL1   H3' 6290   4.036   4.944   2.326  0.7082  0.4838  0.9374
   70CHL1    C4 6291   4.096   5.074   2.512 -0.4953  0.6287  0.9748
   70CHL1   H4A 6292   4.172   5.012   2.460  0.3358  1.3862  1.2532
   70CHL1   H4B 6293   4.106   5.170   2.457  0.9055  0.6991  1.2939
   70CHL1    C5 6294   4.121   5.090   2.659 -0.2711 -0.4540  0.3742
   70CHL1    C6 6295   4.163   5.207   2.715 -0.4453  0.6728 -0.7417
   70CHL1    H6 6296   4.186   5.298   2.658  0.6209  0.9451  0.1052
   70CHL1    C7 6297   4.212   5.213   2.862  0.4816  0.1751 -0.1204
   70CHL1   H7A 6298   4.310   5.264   2.874  1.2527 -1.5167  1.3831
   70CHL1   H7B 6299   4.137   5.267   2.925 -0.4457 -1.8242  0.5696
   70CHL1    C8 6300   4.234   5.081   2.936 -0.4682 -0.1604 -0.2905
   70CHL1    H8 6301   4.333   5.041   2.909 -0.0440  1.5319 -1.4376
   70CHL1   C14 6302   4.216   5.106   3.088  0.3279  0.2849  0.4828
   70CHL1   H14 6303   4.111   5.139   3.101  0.6013  1.1822  0.4173
   70CHL1   C15 6304   4.304   5.200   3.162  0.1310 -0.3619  0.5857
   70CHL1  H15A 6305   4.411   5.174   3.147  0.4974  1.5943 -0.3983
   70CHL1  H15B 6306   4.292   5.306   3.133 -0.4350 -0.2734  1.1244
   70CHL1   C16 6307   4.270   5.176   3.312  0.4044 -0.2711 -0.8408
   70CHL1  H16A 6308   4.366   5.190   3.366  0.8521 -0.1882 -1.6374
   70CHL1  H16B 6309   4.198   5.250   3.353 -0.9730 -1.3030 -1.3618
   70CHL1   C17 6310   4.199   5.037   3.321  0.2868 -0.4333  0.0937
   70CHL1   H17 6311   4.092   5.066   3.329  0.0547 -1.2201 -0.0600
   70CHL1   C13 6312   4.215   4.979   3.178  0.0766  0.6690  0.3242
   70CHL1   C18 6313   4.355   4.910   3.177  0.3593  0.0557  0.1203
   70CHL1  H18A 6314   4.367   4.862   3.078 -0.4910  0.3304 -0.1240
   70CHL1  H18B 6315   4.435   4.982   3.204 -1.2273  2.1587 -0.5186
   70CHL1  H18C 6316   4.351   4.828   3.252  0.1403 -0.2566 -0.2282
   70CHL1   C12 6317   4.101   4.890   3.137  0.1726  0.7705 -0.4017
   70CHL1  H12A 6318   4.100   4.790   3.186  1.0429  1.5461  1.2965
   70CHL1  H12B 6319   4.006   4.943   3.159 -0.8954 -1.5881  1.1318
   70CHL1   C11 6320   4.100   4.863   2.986 -0.4713  0.2828 -0.0847
   70CHL1  H11A 6321   4.179   4.789   2.962  1.6584  2.2627  0.4539
   70CHL1  H11B 6322   3.997   4.828   2.966 -0.5860 -2.2523  4.0117
   70CHL1    C9 6323   4.120   4.989   2.896  0.7585  0.2603 -0.1799
   70CHL1    H9 6324   4.031   5.055   2.906 -0.0811 -0.9724  0.9106
   70CHL1   C10 6325   4.102   4.958   2.743  0.8642 -0.3051 -0.1022
   70CHL1   C19 6326   4.206   4.857   2.691 -0.6915  0.3414 -0.1144
   70CHL1  H19A 6327   4.306   4.892   2.722 -1.1358  0.7824  0.8578
   70CHL1  H19B 6328   4.199   4.762   2.749  0.1341 -0.0101 -0.5638
   70CHL1  H19C 6329   4.197   4.829   2.583 -3.8395  0.3715  0.0498
   70CHL1    C1 6330   3.967   4.901   2.718 -0.2432  0.2274  0.7651
   70CHL1   H1A 6331   3.964   4.799   2.762 -0.3095  0.7586  2.0165
   70CHL1   H1B 6332   3.888   4.950   2.779 -3.9106 -2.0247 -1.6996
   70CHL1    C2 6333   3.931   4.887   2.566 -0.4989 -0.8680 -0.2366
   70CHL1   H2A 6334   3.824   4.866   2.544 -0.2135 -0.5604 -2.0726
   70CHL1   H2B 6335   3.983   4.795   2.534  0.8765 -0.5018  0.8690
   70CHL1   C20 6336   4.227   4.957   3.448 -0.7049  0.1583  0.3621
   70CHL1   H20 6337   4.334   4.926   3.440 -0.9454 -0.7194  0.3972
   70CHL1   C21 6338   4.140   4.837   3.459  0.2291  0.8930  0.4662
   70CHL1  H21A 6339   4.032   4.863   3.454 -0.2149 -0.8532  0.0482
   70CHL1  H21B 6340   4.149   4.778   3.553  0.7031 -0.2243 -0.2473
   70CHL1  H21C 6341   4.168   4.764   3.380 -2.3262 -1.3439  1.4847
   70CHL1   C22 6342   4.221   5.042   3.583 -0.3708  0.7651  0.6361
   70CHL1  H22A 6343   4.308   5.111   3.584  0.7395 -0.5068  3.9318
   70CHL1  H22B 6344   4.125   5.097   3.597 -0.2739  0.7502  1.3580
   70CHL1   C23 6345   4.233   4.949   3.706  0.1148  0.3700  0.2276
   70CHL1  H23A 6346   4.136   4.904   3.735 -0.8899  1.1560 -1.7395
   70CHL1  H23B 6347   4.304   4.869   3.675 -1.7505 -1.8029  1.2613
   70CHL1   C24 6348   4.298   5.014   3.830  0.2259  0.0904 -0.3167
   70CHL1  H24A 6349   4.402   5.042   3.805 -0.9139  2.8277 -2.5683
   70CHL1  H24B 6350   4.250   5.114   3.838 -1.3636 -0.6966  0.4973
   70CHL1   C25 6351   4.282   4.948   3.968 -0.2940 -0.4429  0.4931
   70CHL1   H25 6352   4.171   4.939   3.977 -1.0437  4.7257 -0.5601
   70CHL1   C26 6353   4.360   4.815   3.972 -0.0249  0.1123 -0.0106
   70CHL1  H26A 6354   4.465   4.834   3.943  0.1581 -0.9697 -0.1313
   70CHL1  H26B 6355   4.355   4.773   4.076 -0.1124 -0.3139 -0.1830
   70CHL1  H26C 6356   4.312   4.740   3.906  1.6795  0.5122 -1.7857
   70CHL1   C27 6357   4.342   5.028   4.085 -0.0209  0.1050 -0.1197
   70CHL1  H27A 6358   4.321   4.980   4.183  1.2873 -1.4999 -0.5762
   70CHL1  H27B 6359   4.453   5.036   4.087  0.0493 -0.7446 -0.1533
   70CHL1  H27C 6360   4.303   5.131   4.091 -1.6332 -0.3935 -1.2271
   71CHL1    C3 6361   2.249   2.249   3.030  0.3337 -1.1003 -0.3614
   71CHL1    H3 6362   2.152   2.205   3.062 -0.2429  0.0286 -0.5058
   71CHL1    O3 6363   2.259   2.272   2.892 -0.0648  0.3393  0.2724
   71CHL1   H3' 6364   2.352   2.293   2.884 -0.1156  0.9904  1.1520
   71CHL1    C4 6365   2.267   2.382   3.099  0.6564 -0.6789 -0.1736
   71CHL1   H4A 6366   2.362   2.432   3.072  1.4140 -1.7937  0.3822
   71CHL1   H4B 6367   2.184   2.443   3.057 -1.0087 -2.4471  0.3971
   71CHL1    C5 6368   2.253   2.357   3.253  0.2334  0.2283  0.2583
   71CHL1    C6 6369   2.166   2.424   3.332  0.3522 -0.5970 -0.5303
   71CHL1    H6 6370   2.089   2.488   3.287 -0.9319 -1.6908  0.0404
   71CHL1    C7 6371   2.162   2.421   3.483  0.1018  0.2223  0.1547
   71CHL1   H7A 6372   2.148   2.522   3.528 -2.0599 -0.5659  1.3840
   71CHL1   H7B 6373   2.080   2.354   3.517  0.5957 -1.3233 -1.5694
   71CHL1    C8 6374   2.285   2.350   3.545  0.3851 -0.1878  0.4171
   71CHL1    H8 6375   2.358   2.433   3.533  0.3826  0.1270  2.2395
   71CHL1   C14 6376   2.261   2.317   3.689 -0.2292  0.2029 -0.1284
   71CHL1   H14 6377   2.172   2.254   3.710 -1.8249  2.5811  0.7468
   71CHL1   C15 6378   2.224   2.431   3.788 -0.6549 -0.3668  0.2215
   71CHL1  H15A 6379   2.278   2.520   3.751 -1.0759  0.8292  2.3361
   71CHL1  H15B 6380   2.115   2.451   3.776 -0.5155  0.1291 -0.2462
   71CHL1   C16 6381   2.276   2.382   3.917 -0.1164  0.5628 -0.5509
   71CHL1  H16A 6382   2.352   2.451   3.958 -0.1835 -0.6444  1.7515
   71CHL1  H16B 6383   2.195   2.384   3.994  0.4605 -2.1187  0.2240
   71CHL1   C17 6384   2.338   2.241   3.897  0.5456  0.4773 -0.5561
   71CHL1   H17 6385   2.253   2.170   3.908 -0.3584  1.7629  1.3197
   71CHL1   C13 6386   2.380   2.243   3.751  0.0760 -0.2039  0.9631
   71CHL1   C18 6387   2.508   2.324   3.741 -0.7094 -0.8251 -0.2279
   71CHL1  H18A 6388   2.594   2.254   3.748 -0.1725 -0.6945 -3.7597
   71CHL1  H18B 6389   2.520   2.368   3.640  1.5139  0.1106  0.3941
   71CHL1  H18C 6390   2.523   2.413   3.805  1.7655  0.6282 -2.6310
   71CHL1   C12 6391   2.394   2.108   3.678  0.9621  0.2524  0.9179
   71CHL1  H12A 6392   2.479   2.047   3.715 -1.0497 -3.0160  0.5568
   71CHL1  H12B 6393   2.298   2.051   3.680 -1.3678  3.7966 -0.6099
   71CHL1   C11 6394   2.417   2.126   3.528 -0.3498 -0.0832  0.1156
   71CHL1  H11A 6395   2.524   2.155   3.519 -0.0585 -1.3586 -0.8179
   71CHL1  H11B 6396   2.408   2.026   3.481 -0.5319  0.0961 -0.2311
   71CHL1    C9 6397   2.321   2.226   3.463 -0.4608  0.0726  1.1859
   71CHL1    H9 6398   2.222   2.176   3.464 -0.9456  1.0073  0.8663
   71CHL1   C10 6399   2.355   2.260   3.316 -0.3945 -0.1717 -0.0251
   71CHL1   C19 6400   2.498   2.326   3.324  0.3144  0.1023  0.8005
   71CHL1  H19A 6401   2.575   2.248   3.340  1.4545  0.8237 -0.7973
   71CHL1  H19B 6402   2.523   2.380   3.229 -1.6152  0.7696  0.6323
   71CHL1  H19C 6403   2.509   2.407   3.400 -1.3219  3.3744 -2.1386
   71CHL1    C1 6404   2.355   2.128   3.233 -0.0539 -0.1341  0.3825
   71CHL1   H1A 6405   2.435   2.062   3.273 -0.1349 -0.3305  0.2241
   71CHL1   H1B 6406   2.259   2.074   3.250 -0.4688 -0.4237 -2.4334
   71CHL1    C2 6407   2.360   2.158   3.083 -0.0417 -0.2919  0.8362
   71CHL1   H2A 6408   2.346   2.057   3.039 -3.9772  0.0097  1.0403
   71CHL1   H2B 6409   2.459   2.200   3.055 -0.0498  0.9920  2.5585
   71CHL1   C20 6410   2.429   2.198   4.008 -0.7250 -0.1331 -0.2689
   71CHL1   H20 6411   2.527   2.245   3.987  0.9507 -2.2173  2.2232
   71CHL1   C21 6412   2.444   2.039   4.004  0.3841 -0.3798 -0.2495
   71CHL1  H21A 6413   2.505   1.998   4.087  0.2721  0.4187  0.2405
   71CHL1  H21B 6414   2.503   2.013   3.913 -1.0530 -2.9004 -0.5166
   71CHL1  H21C 6415   2.344   1.994   4.015  0.0961  0.8664  3.7952
   71CHL1   C22 6416   2.371   2.248   4.149  0.0929  0.4573  0.1165
   71CHL1  H22A 6417   2.373   2.359   4.149 -1.4059  0.5039  0.1187
   71CHL1  H22B 6418   2.272   2.198   4.159  0.9121 -1.3889 -0.4990
   71CHL1   C23 6419   2.454   2.190   4.270  0.0164 -0.0615  0.5469
   71CHL1  H23A 6420   2.433   2.081   4.277  0.7821 -0.1866  1.0002
   71CHL1  H23B 6421   2.561   2.204   4.245 -0.6168  1.3925 -1.6826
   71CHL1   C24 6422   2.420   2.248   4.410 -0.6909  0.1501  0.2269
   71CHL1  H24A 6423   2.312   2.271   4.401 -0.9727 -1.2350 -0.2508
   71CHL1  H24B 6424   2.449   2.180   4.493 -0.4930  0.5881  0.5176
   71CHL1   C25 6425   2.493   2.381   4.440 -0.7137 -0.8360 -0.0776
   71CHL1   H25 6426   2.460   2.452   4.361  1.5867  0.4292  0.0076
   71CHL1   C26 6427   2.444   2.438   4.575  0.9437 -0.0114  0.3329
   71CHL1  H26A 6428   2.337   2.420   4.600  0.7881  0.6210  0.1435
   71CHL1  H26B 6429   2.493   2.397   4.666 -0.2564 -0.6423  0.7214
   71CHL1  H26C 6430   2.452   2.549   4.576 -0.8520  0.1620 -0.5958
   71CHL1   C27 6431   2.644   2.381   4.458 -0.3939  0.0481  0.2323
   71CHL1  H27A 6432   2.673   2.307   4.535  0.8772 -0.1685 -0.4340
   71CHL1  H27B 6433   2.688   2.341   4.364 -0.9250 -1.9526  0.7895
   71CHL1  H27C 6434   2.675   2.487   4.465 -0.5023  0.4740 -3.6309
   72CHL1    C3 6435   0.178   0.709   2.948  0.0668  0.6936 -0.6684
   72CHL1    H3 6436   0.265   0.665   3.002 -0.4212  2.4574  1.7094
   72CHL1    O3 6437   0.181   0.662   2.816 -0.0030  0.3118 -0.1896
   72CHL1   H3' 6438   0.117   0.591   2.807  0.4233 -0.0518 -0.3388
   72CHL1    C4 6439   0.051   0.655   3.034 -0.5703 -0.4276 -0.2360
   72CHL1   H4A 6440  -0.039   0.689   2.977  0.9566  0.3941 -2.3067
   72CHL1   H4B 6441   0.060   0.545   3.020 -0.8032 -0.1436 -3.6492
   72CHL1    C5 6442   0.055   0.709   3.176 -1.0242 -0.5978 -0.1215
   72CHL1    C6 6443   0.041   0.615   3.275  0.1254 -0.4669 -0.3935
   72CHL1    H6 6444   0.008   0.515   3.243 -0.2944 -0.6952  0.7310
   72CHL1    C7 6445   0.065   0.645   3.422  0.3385 -0.3604 -0.0274
   72CHL1   H7A 6446  -0.008   0.600   3.493  0.9872  0.9124  1.4928
   72CHL1   H7B 6447   0.166   0.608   3.449  0.6425 -0.2464 -0.9758
   72CHL1    C8 6448   0.058   0.798   3.447  0.3102  0.0076  0.0103
   72CHL1    H8 6449  -0.047   0.831   3.438 -0.3132 -1.6691  0.8344
   72CHL1   C14 6450   0.104   0.836   3.590 -0.1562 -0.2559 -0.5014
   72CHL1   H14 6451   0.211   0.805   3.593  0.0370  0.2845 -1.4236
   72CHL1   C15 6452   0.039   0.760   3.706 -0.5983 -0.1599 -0.1185
   72CHL1  H15A 6453  -0.071   0.753   3.693 -0.6815 -1.9686  1.2126
   72CHL1  H15B 6454   0.077   0.656   3.719 -2.6625 -0.6391  3.0506
   72CHL1   C16 6455   0.080   0.839   3.831  0.3273 -0.6603 -0.2257
   72CHL1  H16A 6456  -0.007   0.858   3.898  1.9582  2.7630  1.1013
   72CHL1  H16B 6457   0.163   0.784   3.879  0.7910 -0.6768 -1.0377
   72CHL1   C17 6458   0.130   0.975   3.783  0.0500 -0.4239 -0.8726
   72CHL1   H17 6459   0.241   0.972   3.788  0.1089  1.4889 -0.5170
   72CHL1   C13 6460   0.097   0.984   3.631  0.4985  0.4847  0.1580
   72CHL1   C18 6461  -0.049   1.037   3.613  0.8525 -0.2272 -0.7853
   72CHL1  H18A 6462  -0.069   1.142   3.645  2.1513 -0.3701  0.6210
   72CHL1  H18B 6463  -0.077   1.044   3.506  0.4847 -1.4882 -0.7889
   72CHL1  H18C 6464  -0.130   0.979   3.662  0.9284 -0.0148 -0.4025
   72CHL1   C12 6465   0.195   1.054   3.541  0.5169 -0.2385  0.8108
   72CHL1  H12A 6466   0.180   1.163   3.555 -3.2451 -0.6520  1.0737
   72CHL1  H12B 6467   0.301   1.027   3.561  1.0515  0.0789 -1.3171
   72CHL1   C11 6468   0.170   1.024   3.388  0.3073  0.0890 -0.2648
   72CHL1  H11A 6469   0.085   1.089   3.359  0.7301  0.2547 -1.1910
   72CHL1  H11B 6470   0.257   1.058   3.327  0.1747 -1.6258 -1.4740
   72CHL1    C9 6471   0.146   0.877   3.344  0.1750 -0.7206  0.6954
   72CHL1    H9 6472   0.245   0.826   3.348  0.1193 -1.2965 -2.5684
   72CHL1   C10 6473   0.096   0.859   3.201 -0.6377  1.0414  0.0531
   72CHL1   C19 6474  -0.033   0.940   3.182  0.1322  0.1804  0.1653
   72CHL1  H19A 6475  -0.117   0.906   3.247  0.9361  1.2901  1.8658
   72CHL1  H19B 6476  -0.027   1.049   3.200  1.4131  0.0611  0.6012
   72CHL1  H19C 6477  -0.069   0.922   3.079  2.2410 -1.5076 -0.3502
   72CHL1    C1 6478   0.202   0.910   3.096 -0.3203  0.1450 -1.0852
   72CHL1   H1A 6479   0.215   1.020   3.093 -0.8940  0.4775  2.7897
   72CHL1   H1B 6480   0.300   0.875   3.136 -1.4003 -1.0823  0.6646
   72CHL1    C2 6481   0.189   0.862   2.951  0.1799 -0.1730  0.0538
   72CHL1   H2A 6482   0.287   0.884   2.905  0.5251 -0.2568  0.7337
   72CHL1   H2B 6483   0.107   0.907   2.891  0.5627 -0.1929 -0.4858
   72CHL1   C20 6484   0.080   1.085   3.881 -0.1625  0.1740 -0.2408
   72CHL1   H20 6485  -0.031   1.088   3.878 -0.2451 -1.6745 -0.1511
   72CHL1   C21 6486   0.129   1.222   3.840  0.9452  0.2810 -0.7668
   72CHL1  H21A 6487   0.090   1.306   3.902 -2.0909 -1.7197  0.2857
   72CHL1  H21B 6488   0.100   1.238   3.734  0.0829 -0.3614 -0.6373
   72CHL1  H21C 6489   0.239   1.214   3.853  0.6867 -0.9515  1.1546
   72CHL1   C22 6490   0.114   1.052   4.028 -0.6496 -0.3788  0.1984
   72CHL1  H22A 6491   0.077   0.951   4.057  0.7053 -1.9765 -3.1125
   72CHL1  H22B 6492   0.225   1.048   4.038 -0.2290  1.7047 -2.6549
   72CHL1   C23 6493   0.059   1.147   4.141  0.1328 -0.1968 -0.6676
   72CHL1  H23A 6494   0.106   1.126   4.239 -2.0913  2.5628  1.1610
   72CHL1  H23B 6495   0.080   1.253   4.114  0.0520 -0.1353 -0.4874
   72CHL1   C24 6496  -0.090   1.125   4.172  0.2622  0.0654 -0.1099
   72CHL1  H24A 6497  -0.152   1.119   4.080 -1.3390  0.6641  0.8980
   72CHL1  H24B 6498  -0.110   1.027   4.219 -0.1171 -0.8637 -2.1142
   72CHL1   C25 6499  -0.144   1.246   4.265 -0.2657  0.6071  0.4926
   72CHL1   H25 6500  -0.071   1.258   4.349 -0.2105 -1.3818  0.7989
   72CHL1   C26 6501  -0.165   1.376   4.195 -0.1921 -0.0755  0.7110
   72CHL1  H26A 6502  -0.213   1.361   4.096  1.3033 -1.3157  0.1148
   72CHL1  H26B 6503  -0.219   1.456   4.249 -1.0966  0.8271 -1.4359
   72CHL1  H26C 6504  -0.063   1.415   4.171 -0.5855  1.6838  1.7568
   72CHL1   C27 6505  -0.283   1.214   4.319  0.3026 -0.7740 -0.5319
   72CHL1  H27A 6506  -0.350   1.199   4.232 -0.7497  0.3645  0.0450
   72CHL1  H27B 6507  -0.281   1.118   4.374 -1.0094 -0.8016 -0.5020
   72CHL1  H27C 6508  -0.321   1.295   4.385 -0.1649 -1.2869 -0.1680
   73CHL1    C3 6509   4.035   2.745   2.650  0.5197 -0.5423  0.2992
   73CHL1    H3 6510   3.938   2.709   2.691 -0.5621  3.3945  1.6138
   73CHL1    O3 6511   4.053   2.697   2.520  0.3541 -0.0351 -0.4682
   73CHL1   H3' 6512   4.127   2.752   2.493  0.6133  0.0435  0.3952
   73CHL1    C4 6513   4.012   2.898   2.662  0.1954 -0.8595  0.3952
   73CHL1   H4A 6514   4.105   2.934   2.613 -0.0842 -0.0857  0.4209
   73CHL1   H4B 6515   3.929   2.932   2.597  0.9343  0.6448  0.1891
   73CHL1    C5 6516   3.999   2.947   2.803  0.1742 -0.0642  0.1998
   73CHL1    C6 6517   3.897   3.031   2.836 -0.4899  0.6086 -0.9709
   73CHL1    H6 6518   3.816   3.058   2.766 -0.8234 -2.0593 -1.6996
   73CHL1    C7 6519   3.891   3.098   2.973  0.4406  0.0142 -0.3919
   73CHL1   H7A 6520   3.883   3.207   2.952 -0.4701  0.1650  0.6563
   73CHL1   H7B 6521   3.803   3.059   3.029  0.9538 -0.5498  0.0282
   73CHL1    C8 6522   4.016   3.079   3.058  0.1195  0.1843  0.1994
   73CHL1    H8 6523   4.099   3.147   3.031  1.6556 -1.5747  0.3143
   73CHL1   C14 6524   3.980   3.101   3.208  1.1158 -0.2196  0.2069
   73CHL1   H14 6525   3.906   3.023   3.238  0.1725  1.8669  4.0462
   73CHL1   C15 6526   3.905   3.237   3.247  0.3085 -0.0890 -0.2339
   73CHL1  H15A 6527   3.946   3.326   3.196  0.3208 -0.7145 -1.3324
   73CHL1  H15B 6528   3.798   3.228   3.219  0.5411  1.4734 -1.7943
   73CHL1   C16 6529   3.941   3.256   3.395 -0.6471  0.0033 -0.9556
   73CHL1  H16A 6530   3.989   3.354   3.415 -0.4379 -0.3063  0.0784
   73CHL1  H16B 6531   3.839   3.246   3.438 -1.2932  4.1935 -1.0250
   73CHL1   C17 6532   4.032   3.140   3.446 -0.2297 -0.0047  0.5932
   73CHL1   H17 6533   3.962   3.059   3.478 -1.9502  0.7133 -1.1938
   73CHL1   C13 6534   4.093   3.088   3.306 -0.0021 -0.6763  0.0118
   73CHL1   C18 6535   4.208   3.179   3.274 -0.0469 -0.1938 -0.4776
   73CHL1  H18A 6536   4.184   3.287   3.278  2.8419  0.6049 -1.8872
   73CHL1  H18B 6537   4.284   3.162   3.353 -1.9193 -2.3792  1.0119
   73CHL1  H18C 6538   4.259   3.171   3.175 -0.0559  1.2873 -0.6181
   73CHL1   C12 6539   4.141   2.943   3.300 -0.6133 -0.8608  0.0859
   73CHL1  H12A 6540   4.231   2.923   3.361 -0.4626 -2.5338 -0.6280
   73CHL1  H12B 6541   4.066   2.867   3.333 -2.3791  0.9012  0.3358
   73CHL1   C11 6542   4.171   2.897   3.156  0.3923  0.0494 -0.5092
   73CHL1  H11A 6543   4.274   2.936   3.138  2.0085 -3.1574  0.7963
   73CHL1  H11B 6544   4.191   2.788   3.149  0.7081  0.0291  0.4831
   73CHL1    C9 6545   4.069   2.937   3.045 -0.4366  0.0455 -0.3060
   73CHL1    H9 6546   3.981   2.871   3.058  0.2149 -0.4336  2.2557
   73CHL1   C10 6547   4.118   2.905   2.901  0.1931  0.1819  0.0453
   73CHL1   C19 6548   4.241   2.990   2.879 -0.6138 -0.0041 -0.0361
   73CHL1  H19A 6549   4.317   2.994   2.960  1.1908  0.8800 -1.7141
   73CHL1  H19B 6550   4.286   2.954   2.784  0.3461  0.1623  0.3429
   73CHL1  H19C 6551   4.205   3.094   2.862  1.5433  0.5362 -1.5959
   73CHL1    C1 6552   4.142   2.755   2.888  0.2956  0.3552  0.4084
   73CHL1   H1A 6553   4.239   2.731   2.936  0.3469  0.0782  0.1665
   73CHL1   H1B 6554   4.060   2.700   2.939  1.1394  0.3651  1.8374
   73CHL1    C2 6555   4.152   2.696   2.741  0.1154  1.1806 -0.4636
   73CHL1   H2A 6556   4.160   2.586   2.749 -1.6886  1.1175  1.0674
   73CHL1   H2B 6557   4.249   2.724   2.694  2.1692 -0.6389  2.3918
   73CHL1   C20 6558   4.124   3.175   3.561 -0.1087  0.7694 -0.8489
   73CHL1   H20 6559   4.194   3.255   3.530  1.3603  0.8739  2.3806
   73CHL1   C21 6560   4.207   3.067   3.614  0.2092  0.7320 -0.5247
   73CHL1  H21A 6561   4.146   2.978   3.638 -1.6485  1.9357 -0.5530
   73CHL1  H21B 6562   4.252   3.091   3.713  0.7474  1.1565 -0.8621
   73CHL1  H21C 6563   4.298   3.055   3.551  3.1364 -0.5171  3.4901
   73CHL1   C22 6564   4.045   3.234   3.676  0.4597 -0.8890 -1.1764
   73CHL1  H22A 6565   4.113   3.261   3.759 -0.3977 -1.7400 -0.1685
   73CHL1  H22B 6566   3.979   3.319   3.649  1.3617  0.9884  2.0107
   73CHL1   C23 6567   3.948   3.126   3.739  0.5993 -0.5229 -0.4611
   73CHL1  H23A 6568   3.858   3.123   3.672  1.7598 -0.5282 -2.0780
   73CHL1  H23B 6569   3.990   3.024   3.750 -0.9231 -1.1467 -0.0953
   73CHL1   C24 6570   3.888   3.170   3.881 -0.1628 -0.4525 -0.2990
   73CHL1  H24A 6571   3.974   3.202   3.943  1.5382 -1.7584 -1.8449
   73CHL1  H24B 6572   3.828   3.264   3.876 -0.1551 -0.3573  1.1761
   73CHL1   C25 6573   3.805   3.070   3.952  0.3529  0.5367  0.2800
   73CHL1   H25 6574   3.859   2.974   3.963  1.9531  1.3985  0.3133
   73CHL1   C26 6575   3.777   3.121   4.094 -0.5558  0.2539  0.7308
   73CHL1  H26A 6576   3.699   3.064   4.148 -1.4219  0.4844 -0.2493
   73CHL1  H26B 6577   3.875   3.124   4.147 -0.6709  0.5114  0.9348
   73CHL1  H26C 6578   3.744   3.228   4.096  0.5359  0.6258 -0.0801
   73CHL1   C27 6579   3.669   3.035   3.887  0.4775 -0.3001  0.7916
   73CHL1  H27A 6580   3.631   2.953   3.952  1.2665 -0.7407  0.7183
   73CHL1  H27B 6581   3.604   3.124   3.874  0.2782 -0.5763 -0.2314
   73CHL1  H27C 6582   3.687   2.997   3.784  1.3485  2.3094 -0.0968
   74CHL1    C3 6583   1.594   1.251   3.329 -0.1620  0.0697 -0.6265
   74CHL1    H3 6584   1.550   1.154   3.362  2.8494 -0.8529  1.0597
   74CHL1    O3 6585   1.543   1.292   3.205 -0.0877  0.4755  0.6849
   74CHL1   H3' 6586   1.591   1.366   3.168 -0.4750  0.1950 -0.4282
   74CHL1    C4 6587   1.576   1.363   3.431 -0.0389  0.0304 -0.2692
   74CHL1   H4A 6588   1.612   1.460   3.392  0.4363  0.4878  1.2420
   74CHL1   H4B 6589   1.466   1.374   3.436 -0.1928 -1.0533 -0.9140
   74CHL1    C5 6590   1.650   1.334   3.561  0.9624 -0.6781 -0.2289
   74CHL1    C6 6591   1.587   1.328   3.675 -0.2553  0.0017 -0.0370
   74CHL1    H6 6592   1.478   1.344   3.681 -0.4552 -1.4246  0.7658
   74CHL1    C7 6593   1.655   1.304   3.811  0.2972 -0.2941 -0.4520
   74CHL1   H7A 6594   1.617   1.380   3.883  1.8834 -0.1590  0.2854
   74CHL1   H7B 6595   1.621   1.207   3.852 -0.7834  0.6749  1.0738
   74CHL1    C8 6596   1.806   1.309   3.795  0.6042  0.0669 -0.0457
   74CHL1    H8 6597   1.832   1.417   3.791 -0.1892  0.2647 -0.0047
   74CHL1   C14 6598   1.867   1.257   3.920 -0.7454  0.4698 -0.9156
   74CHL1   H14 6599   1.825   1.155   3.936 -1.4313  0.0508 -4.5339
   74CHL1   C15 6600   1.835   1.311   4.066 -0.3486 -0.4443 -0.2123
   74CHL1  H15A 6601   1.855   1.420   4.076  1.3103 -0.7690  0.4340
   74CHL1  H15B 6602   1.734   1.291   4.108 -0.4175  1.6230  0.7253
   74CHL1   C16 6603   1.937   1.240   4.154  0.1307 -0.6438 -0.1777
   74CHL1  H16A 6604   1.974   1.320   4.222 -0.8123  0.9443 -1.4609
   74CHL1  H16B 6605   1.882   1.160   4.208  0.4296  0.3831  1.7159
   74CHL1   C17 6606   2.047   1.186   4.068  0.4654 -0.7156 -0.4226
   74CHL1   H17 6607   2.032   1.077   4.056 -2.7977 -0.5568  1.1153
   74CHL1   C13 6608   2.016   1.232   3.922 -0.2625 -0.4548  0.0300
   74CHL1   C18 6609   2.085   1.367   3.900  0.0557 -0.0028  0.6705
   74CHL1  H18A 6610   2.050   1.415   3.807 -1.7464  0.8302  1.7295
   74CHL1  H18B 6611   2.084   1.434   3.989  0.3851  1.6578 -0.5224
   74CHL1  H18C 6612   2.191   1.354   3.868  0.0549  2.1590 -0.3776
   74CHL1   C12 6613   2.047   1.136   3.812 -0.3502  0.0101  0.6012
   74CHL1  H12A 6614   2.154   1.106   3.817 -0.3916  0.0521  2.7569
   74CHL1  H12B 6615   1.988   1.044   3.833 -2.0009  0.6018 -1.1430
   74CHL1   C11 6616   2.005   1.192   3.677 -0.7455 -0.1819  0.0794
   74CHL1  H11A 6617   2.066   1.278   3.642 -0.8700 -0.3825 -0.6568
   74CHL1  H11B 6618   2.011   1.123   3.590  2.8889  0.8076 -0.6296
   74CHL1    C9 6619   1.855   1.231   3.675 -0.9301 -0.1665  0.3711
   74CHL1    H9 6620   1.807   1.133   3.692 -2.0036 -0.0520 -1.6661
   74CHL1   C10 6621   1.802   1.294   3.545 -0.1566 -0.0050  0.7718
   74CHL1   C19 6622   1.891   1.406   3.496  0.0403  0.0977  0.1043
   74CHL1  H19A 6623   1.893   1.489   3.570  0.7570  1.4171 -1.3191
   74CHL1  H19B 6624   1.994   1.368   3.477 -0.3270 -1.1064  0.4606
   74CHL1  H19C 6625   1.845   1.449   3.404 -1.9714  0.3586  1.1688
   74CHL1    C1 6626   1.805   1.182   3.434  0.6738  0.3411 -0.6190
   74CHL1   H1A 6627   1.912   1.176   3.405  0.7876  1.1542 -0.4144
   74CHL1   H1B 6628   1.766   1.089   3.481 -0.7181  0.8801 -0.6523
   74CHL1    C2 6629   1.737   1.213   3.302  0.0320 -0.4244 -0.3602
   74CHL1   H2A 6630   1.751   1.114   3.253  2.8094 -0.4981  0.4245
   74CHL1   H2B 6631   1.784   1.301   3.252  0.2625  0.6992  1.7235
   74CHL1   C20 6632   2.181   1.208   4.133 -0.6643  0.4914 -0.1594
   74CHL1   H20 6633   2.203   1.316   4.148  2.3812 -0.3459  2.8068
   74CHL1   C21 6634   2.292   1.144   4.036  0.3682  0.0746 -0.3484
   74CHL1  H21A 6635   2.299   1.213   3.949 -0.5009  0.3536 -0.2069
   74CHL1  H21B 6636   2.278   1.035   4.017  0.6889 -0.1951  0.8943
   74CHL1  H21C 6637   2.394   1.141   4.080  0.7769  0.6520 -1.2217
   74CHL1   C22 6638   2.199   1.143   4.276 -0.0580  0.0744 -0.1541
   74CHL1  H22A 6639   2.101   1.149   4.328  0.0060  3.0621 -0.2097
   74CHL1  H22B 6640   2.220   1.034   4.267  0.6048  0.0527  1.3301
   74CHL1   C23 6641   2.320   1.198   4.347 -0.4595 -0.5618 -0.0952
   74CHL1  H23A 6642   2.409   1.162   4.291 -1.1364 -0.5408 -1.2231
   74CHL1  H23B 6643   2.310   1.308   4.340  1.1604 -0.4048 -0.2970
   74CHL1   C24 6644   2.329   1.166   4.495 -0.3397  0.7578  0.5332
   74CHL1  H24A 6645   2.241   1.205   4.551 -2.7047 -1.2929 -1.4717
   74CHL1  H24B 6646   2.324   1.056   4.512  0.2435  0.5376 -0.6517
   74CHL1   C25 6647   2.469   1.221   4.552 -0.2455 -0.1132 -0.0107
   74CHL1   H25 6648   2.554   1.184   4.492 -0.0512 -0.9055  0.7351
   74CHL1   C26 6649   2.474   1.377   4.547 -0.6080 -0.1085 -0.0029
   74CHL1  H26A 6650   2.565   1.407   4.603 -0.1312  0.0286 -0.8386
   74CHL1  H26B 6651   2.489   1.417   4.445 -2.5976  1.3983  0.2261
   74CHL1  H26C 6652   2.390   1.428   4.598 -0.7566 -0.1491 -0.2074
   74CHL1   C27 6653   2.494   1.169   4.690  0.7598 -0.4937  0.7623
   74CHL1  H27A 6654   2.475   1.060   4.692  0.5911 -0.4691  0.4928
   74CHL1  H27B 6655   2.599   1.193   4.716  1.0515 -1.2664  0.3200
   74CHL1  H27C 6656   2.420   1.199   4.767 -0.6744 -1.7717 -0.0529
   75CHL1    C3 6657   3.513   0.980   2.692  0.2824  0.1957 -0.1551
   75CHL1    H3 6658   3.426   0.911   2.684  0.5155 -0.2499  0.9427
   75CHL1    O3 6659   3.559   1.011   2.564 -0.3975  0.7495  0.3396
   75CHL1   H3' 6660   3.625   0.944   2.547 -1.6678 -0.9066  1.6275
   75CHL1    C4 6661   3.466   1.111   2.758 -0.6217 -1.2043 -0.1982
   75CHL1   H4A 6662   3.545   1.188   2.743 -1.0746 -0.4083  1.2480
   75CHL1   H4B 6663   3.377   1.140   2.698  0.0911  0.9961 -0.2798
   75CHL1    C5 6664   3.440   1.104   2.906 -0.6320  0.4813 -0.2353
   75CHL1    C6 6665   3.325   1.143   2.957  0.5023 -0.1263  0.2450
   75CHL1    H6 6666   3.254   1.188   2.886 -1.3913 -0.6402  1.7464
   75CHL1    C7 6667   3.297   1.132   3.100  0.3500 -0.0394 -0.1820
   75CHL1   H7A 6668   3.239   1.216   3.145 -1.4766 -2.2522  1.8602
   75CHL1   H7B 6669   3.236   1.040   3.108 -0.9272  0.7879 -0.1092
   75CHL1    C8 6670   3.423   1.103   3.189  0.2813  0.0238  0.3033
   75CHL1    H8 6671   3.477   1.199   3.202  0.6256  0.1494 -1.7570
   75CHL1   C14 6672   3.380   1.062   3.331  0.2823 -0.2843  0.7662
   75CHL1   H14 6673   3.327   0.966   3.312  1.5408 -0.7545 -0.5550
   75CHL1   C15 6674   3.286   1.152   3.408  0.1267  0.3448 -0.5749
   75CHL1  H15A 6675   3.332   1.253   3.416  0.3373  0.1870  0.2813
   75CHL1  H15B 6676   3.182   1.157   3.370 -0.0463 -1.4475 -0.4393
   75CHL1   C16 6677   3.279   1.089   3.543 -0.0142  0.3840 -0.3693
   75CHL1  H16A 6678   3.288   1.166   3.623  2.2505 -0.3555  0.1590
   75CHL1  H16B 6679   3.185   1.036   3.570  0.7051 -1.1166 -0.7009
   75CHL1   C17 6680   3.414   0.996   3.561  0.0386 -0.1242  1.2686
   75CHL1   H17 6681   3.364   0.897   3.550 -0.5384  0.1468  1.4579
   75CHL1   C13 6682   3.490   1.015   3.424 -0.9263  0.5633  0.4381
   75CHL1   C18 6683   3.585   1.129   3.457 -0.0912 -0.0076  0.5596
   75CHL1  H18A 6684   3.617   1.175   3.361 -2.2971  1.0689  0.2939
   75CHL1  H18B 6685   3.539   1.213   3.513 -0.3689  0.3031 -0.1290
   75CHL1  H18C 6686   3.674   1.082   3.505  0.0110 -1.7424 -1.2029
   75CHL1   C12 6687   3.566   0.892   3.361  0.5163 -0.7889 -0.5432
   75CHL1  H12A 6688   3.648   0.857   3.427  1.4405  1.9081 -0.1629
   75CHL1  H12B 6689   3.502   0.801   3.351 -3.0831  1.5219 -0.4567
   75CHL1   C11 6690   3.621   0.924   3.219  0.3716 -0.2048 -0.0409
   75CHL1  H11A 6691   3.706   0.994   3.231 -1.7339  2.6239 -0.6541
   75CHL1  H11B 6692   3.657   0.826   3.181  1.3306 -0.3628  1.2046
   75CHL1    C9 6693   3.509   0.991   3.128  0.3150 -0.1346 -1.0971
   75CHL1    H9 6694   3.439   0.908   3.107  0.5822 -0.7206  0.2204
   75CHL1   C10 6695   3.559   1.027   2.988 -0.2516 -0.0847  0.0079
   75CHL1   C19 6696   3.686   1.123   2.990 -0.1002 -0.1789  0.4011
   75CHL1  H19A 6697   3.698   1.186   2.899  1.2869  1.1278  1.4465
   75CHL1  H19B 6698   3.668   1.199   3.069 -2.2024 -0.1254 -0.0611
   75CHL1  H19C 6699   3.780   1.072   3.018  0.2991  1.2973  1.8910
   75CHL1    C1 6700   3.593   0.890   2.917 -0.8248 -0.1714  1.1341
   75CHL1   H1A 6701   3.683   0.843   2.963  2.0895  0.6890 -3.0920
   75CHL1   H1B 6702   3.503   0.828   2.932 -1.3266  0.6149  1.4288
   75CHL1    C2 6703   3.627   0.908   2.767  0.4086  0.1195 -0.3241
   75CHL1   H2A 6704   3.642   0.808   2.721 -1.5795 -0.6538  0.5847
   75CHL1   H2B 6705   3.717   0.972   2.757  0.3980  0.3382  0.8316
   75CHL1   C20 6706   3.472   1.009   3.694  0.1767 -0.4940 -0.2333
   75CHL1   H20 6707   3.511   1.112   3.707 -0.9609 -0.3189  2.4912
   75CHL1   C21 6708   3.590   0.909   3.706  0.2851  0.6333 -0.2984
   75CHL1  H21A 6709   3.611   0.885   3.812  0.8377  0.6547 -0.4001
   75CHL1  H21B 6710   3.680   0.954   3.659  0.1760  1.1722 -0.0003
   75CHL1  H21C 6711   3.552   0.822   3.648 -1.6060  2.4450 -1.9316
   75CHL1   C22 6712   3.365   0.991   3.806 -0.5213 -0.5586  0.3141
   75CHL1  H22A 6713   3.311   1.088   3.820 -3.0728 -2.0854  1.8346
   75CHL1  H22B 6714   3.290   0.916   3.773  2.6343 -2.9535 -2.0884
   75CHL1   C23 6715   3.417   0.956   3.953  0.8276 -0.2155 -0.3407
   75CHL1  H23A 6716   3.414   0.845   3.959 -0.7012 -0.1822 -0.1668
   75CHL1  H23B 6717   3.522   0.988   3.966  0.0562  1.9313  1.1543
   75CHL1   C24 6718   3.327   1.009   4.066  0.5225 -0.1104 -0.1674
   75CHL1  H24A 6719   3.338   1.119   4.077 -0.8418  0.0893 -0.5772
   75CHL1  H24B 6720   3.220   0.986   4.045  0.5110 -0.0704 -0.1513
   75CHL1   C25 6721   3.369   0.937   4.197  0.1743  0.3231  0.1825
   75CHL1   H25 6722   3.368   0.828   4.178 -1.2617  0.4394 -0.5589
   75CHL1   C26 6723   3.511   0.976   4.234  0.0192 -0.9992  0.0756
   75CHL1  H26A 6724   3.523   1.086   4.248  0.9125 -0.7332 -2.3535
   75CHL1  H26B 6725   3.541   0.937   4.334  0.4693  0.1988  0.4338
   75CHL1  H26C 6726   3.593   0.960   4.161 -0.5597 -1.4363 -0.4861
   75CHL1   C27 6727   3.264   0.953   4.303  0.4479 -0.2931 -0.0920
   75CHL1  H27A 6728   3.303   0.934   4.405  1.6657 -0.3681 -0.5599
   75CHL1  H27B 6729   3.235   1.061   4.300 -2.6907 -0.9709  1.3502
   75CHL1  H27C 6730   3.171   0.897   4.278  0.6478 -0.0171 -1.4879
   76CHL1    C3 6731   6.434   1.665   2.724 -0.7512 -0.0387  0.8269
   76CHL1    H3 6732   6.365   1.751   2.733  1.5412  1.6812  4.9922
   76CHL1    O3 6733   6.415   1.609   2.600 -0.0803  0.4248  0.0485
   76CHL1   H3' 6734   6.488   1.638   2.545  2.2693  0.8348  3.0629
   76CHL1    C4 6735   6.578   1.719   2.726  0.2542  0.4389  0.2821
   76CHL1   H4A 6736   6.648   1.633   2.712  0.2939  0.6848 -1.2163
   76CHL1   H4B 6737   6.590   1.781   2.635  0.0534 -1.4709 -1.1143
   76CHL1    C5 6738   6.612   1.793   2.859  0.4758 -0.5091  0.1021
   76CHL1    C6 6739   6.647   1.928   2.853  0.2871 -0.5294 -1.2714
   76CHL1    H6 6740   6.651   1.979   2.755  0.0947  1.3158 -0.3595
   76CHL1    C7 6741   6.681   2.007   2.978 -0.0115 -0.5274  0.2076
   76CHL1   H7A 6742   6.772   2.071   2.976 -0.9369  1.0722  3.3178
   76CHL1   H7B 6743   6.598   2.076   3.004  1.2301  0.9127  0.4812
   76CHL1    C8 6744   6.705   1.911   3.094  0.3390  0.2803 -0.2012
   76CHL1    H8 6745   6.805   1.864   3.086  0.1051 -0.1024 -0.9760
   76CHL1   C14 6746   6.708   1.998   3.216  0.3941 -0.0349  0.5332
   76CHL1   H14 6747   6.615   2.058   3.225  0.6733  0.7017 -1.1087
   76CHL1   C15 6748   6.825   2.101   3.216 -0.1262  0.1714 -0.6592
   76CHL1  H15A 6749   6.922   2.053   3.191 -0.1722 -0.3136  0.0411
   76CHL1  H15B 6750   6.799   2.182   3.145  1.7640 -0.0292 -1.6471
   76CHL1   C16 6751   6.832   2.143   3.369 -0.6733 -0.2729 -0.6279
   76CHL1  H16A 6752   6.938   2.146   3.401 -0.9936  3.2716  0.4338
   76CHL1  H16B 6753   6.795   2.245   3.390 -0.9403 -0.2241 -1.2804
   76CHL1   C17 6754   6.746   2.039   3.453 -0.2908 -0.3228  0.2601
   76CHL1   H17 6755   6.652   2.095   3.472 -0.0438  0.2416 -0.1444
   76CHL1   C13 6756   6.721   1.923   3.347  0.8045 -0.6136  0.3721
   76CHL1   C18 6757   6.843   1.834   3.345 -0.7796 -0.4722  0.3058
   76CHL1  H18A 6758   6.934   1.896   3.354 -0.4673 -1.1815  2.9919
   76CHL1  H18B 6759   6.856   1.772   3.437 -0.3365 -1.9033 -0.6916
   76CHL1  H18C 6760   6.840   1.758   3.264  0.5029 -0.0646 -0.1376
   76CHL1   C12 6761   6.587   1.841   3.366 -0.3200  0.3652  0.3650
   76CHL1  H12A 6762   6.585   1.791   3.465  0.4043 -1.9184 -0.7155
   76CHL1  H12B 6763   6.499   1.906   3.346 -0.3156  0.8510  1.7806
   76CHL1   C11 6764   6.576   1.735   3.248 -0.2399 -0.3514  0.3660
   76CHL1  H11A 6765   6.656   1.658   3.257  0.6446  0.5166  0.1142
   76CHL1  H11B 6766   6.475   1.689   3.240 -2.0669  2.7710  3.1843
   76CHL1    C9 6767   6.588   1.809   3.107 -0.3417  0.8714 -0.2406
   76CHL1    H9 6768   6.498   1.871   3.092 -0.9381  0.3798  1.1417
   76CHL1   C10 6769   6.588   1.709   2.984 -0.9145  0.2114 -0.2707
   76CHL1   C19 6770   6.699   1.602   2.986 -0.0098 -0.5554 -0.4465
   76CHL1  H19A 6771   6.723   1.555   3.084 -0.1859 -3.1154 -1.5558
   76CHL1  H19B 6772   6.670   1.516   2.923 -0.2446 -2.5294  2.1955
   76CHL1  H19C 6773   6.795   1.649   2.956 -0.5793  2.7528  2.2983
   76CHL1    C1 6774   6.441   1.641   2.980 -0.6925  0.0715 -1.3759
   76CHL1   H1A 6775   6.440   1.564   3.060  0.1652  0.5954 -0.8425
   76CHL1   H1B 6776   6.366   1.716   3.012 -2.3215 -2.5503  1.5887
   76CHL1    C2 6777   6.409   1.568   2.849  0.5656  0.0132  0.2199
   76CHL1   H2A 6778   6.302   1.541   2.837  0.2409  1.2611  0.1649
   76CHL1   H2B 6779   6.485   1.488   2.842  4.6450  3.2631  2.7640
   76CHL1   C20 6780   6.811   2.005   3.586  0.2006  0.9544 -0.6180
   76CHL1   H20 6781   6.917   1.976   3.567  0.3994  0.8994  0.4899
   76CHL1   C21 6782   6.722   1.903   3.662 -0.4455  0.3541 -0.3842
   76CHL1  H21A 6783   6.716   1.810   3.601 -0.2748 -0.6871  1.1424
   76CHL1  H21B 6784   6.624   1.940   3.696  0.9567  2.2279  1.9076
   76CHL1  H21C 6785   6.774   1.861   3.751  1.1357  2.5760 -0.1780
   76CHL1   C22 6786   6.812   2.135   3.671  0.4590  0.5197 -0.6284
   76CHL1  H22A 6787   6.864   2.220   3.623 -0.6309  1.8227  0.4118
   76CHL1  H22B 6788   6.705   2.167   3.673 -0.2971 -1.7377  1.2127
   76CHL1   C23 6789   6.883   2.117   3.805 -0.5476 -0.2348 -0.5320
   76CHL1  H23A 6790   6.817   2.067   3.879  1.0776 -1.5319  0.0854
   76CHL1  H23B 6791   6.976   2.060   3.786 -0.4893 -0.0033 -0.9715
   76CHL1   C24 6792   6.914   2.252   3.868 -0.0992 -0.4254  0.1980
   76CHL1  H24A 6793   6.996   2.290   3.803  0.6733 -2.7704 -0.3165
   76CHL1  H24B 6794   6.830   2.325   3.873  0.6921  0.4196  1.5702
   76CHL1   C25 6795   6.965   2.233   4.018 -0.5489  0.0109  0.4852
   76CHL1   H25 6796   6.889   2.167   4.065 -0.7075 -0.4549 -0.4008
   76CHL1   C26 6797   7.101   2.162   4.020  0.8976  0.1441  0.2816
   76CHL1  H26A 6798   7.094   2.068   3.962  0.2020 -0.1831  0.8812
   76CHL1  H26B 6799   7.171   2.224   3.960 -0.2547  1.2195  0.0024
   76CHL1  H26C 6800   7.138   2.141   4.122  0.4025 -3.3652 -0.1519
   76CHL1   C27 6801   6.961   2.367   4.091 -0.1417 -0.0275 -0.6497
   76CHL1  H27A 6802   6.855   2.399   4.080 -0.0343  0.4972 -0.2134
   76CHL1  H27B 6803   7.004   2.352   4.192  0.8949 -1.2786 -1.2385
   76CHL1  H27C 6804   7.026   2.442   4.040 -2.9968  0.7642 -3.4322
   77SOPE     N 6805   4.806   5.745   6.700  0.3851 -0.3314 -0.5620
   77SOPE   HN1 6806   4.735   5.718   6.770 -1.8793  0.2103 -2.5168
   77SOPE   HN2 6807   4.757   5.822   6.650 -0.5317  2.0555  3.5194
   77SOPE   HN3 6808   4.801   5.671   6.628 -1.2964  0.9636 -1.8573
   77SOPE   C12 6809   4.938   5.785   6.762 -0.1014  0.7258  0.0842
   77SOPE  H12A 6810   4.930   5.792   6.872  1.2954  1.2359  0.1707
   77SOPE  H12B 6811   4.964   5.882   6.716 -0.6818  1.0227  0.3687
   77SOPE   C11 6812   5.044   5.686   6.720 -0.2250  0.2942  0.1352
   77SOPE  H11A 6813   5.137   5.723   6.767 -0.9489  2.0175  0.2987
   77SOPE  H11B 6814   5.039   5.685   6.609  1.5150 -1.8189  0.0160
   77SOPE     P 6815   5.134   5.454   6.802 -0.2047 -0.1256 -0.4127
   77SOPE   O13 6816   5.088   5.315   6.844  0.1957 -0.3397 -0.4279
   77SOPE   O14 6817   5.224   5.525   6.894  0.1503  0.1630 -0.5393
   77SOPE   O12 6818   5.011   5.546   6.758 -0.9151 -0.1150 -0.6839
   77SOPE   O11 6819   5.222   5.441   6.670 -0.0619  0.5508  0.3715
   77SOPE    C1 6820   5.152   5.418   6.550  1.0092 -0.2659 -0.1422
   77SOPE    HA 6821   5.140   5.514   6.495  0.7337 -0.6099 -0.7028
   77SOPE    HB 6822   5.050   5.378   6.568  0.5914  1.1071  0.7322
   77SOPE    C2 6823   5.218   5.318   6.446  0.2454  0.0926  0.4482
   77SOPE    HS 6824   5.227   5.219   6.494  0.5130  0.1745  0.5707
   77SOPE   O21 6825   5.341   5.370   6.399  0.5977  0.0471 -0.9528
   77SOPE   C21 6826   5.450   5.280   6.419 -0.4553 -0.9635  0.5627
   77SOPE   O22 6827   5.445   5.177   6.481 -0.5082 -0.3749 -0.2994
   77SOPE   C22 6828   5.578   5.338   6.355  0.1782 -0.0258 -0.5485
   77SOPE   H2R 6829   5.658   5.317   6.430 -0.7958 -0.9426  0.2691
   77SOPE   H2S 6830   5.557   5.444   6.330 -0.2889  0.0839  0.2615
   77SOPE    C3 6831   5.119   5.293   6.325 -0.4603  0.6261 -0.6466
   77SOPE    HX 6832   5.101   5.392   6.279 -2.5330  0.0291 -1.2369
   77SOPE    HY 6833   5.022   5.269   6.375 -0.6096  1.5147 -0.4932
   77SOPE   O31 6834   5.162   5.194   6.232 -0.4761 -0.1271  0.5085
   77SOPE   C31 6835   5.170   5.068   6.260  0.0289  0.0916 -0.1597
   77SOPE   O32 6836   5.143   5.020   6.371  0.2045  0.2365 -0.1889
   77SOPE   C32 6837   5.225   4.994   6.137  0.2334  0.0603 -0.6454
   77SOPE   H2X 6838   5.335   5.014   6.132  0.6741 -2.1251 -0.8957
   77SOPE   H2Y 6839   5.175   5.043   6.051  1.0337 -0.0698 -1.2031
   77SOPE   C23 6840   5.623   5.262   6.233 -0.0466 -0.0127 -0.4526
   77SOPE   H3R 6841   5.608   5.152   6.244  0.5945 -0.2310 -1.5814
   77SOPE   H3S 6842   5.731   5.286   6.225 -0.1565 -0.0244 -2.5487
   77SOPE   C24 6843   5.565   5.319   6.104 -0.3698  0.4770 -0.1773
   77SOPE   H4R 6844   5.456   5.296   6.109 -0.7858  2.5265  1.8029
   77SOPE   H4S 6845   5.567   5.429   6.090 -1.4290  0.3115 -2.0187
   77SOPE   C25 6846   5.617   5.261   5.972  0.0673 -0.3049 -0.0940
   77SOPE   H5R 6847   5.717   5.301   5.947 -0.8162  1.7329 -0.5905
   77SOPE   H5S 6848   5.624   5.151   5.983  1.4417 -0.3967 -1.5207
   77SOPE   C26 6849   5.519   5.288   5.854 -0.2486 -0.2509  0.2257
   77SOPE   H6R 6850   5.415   5.267   5.888 -1.3458 -1.3795 -3.4343
   77SOPE   H6S 6851   5.526   5.392   5.818  1.5719 -0.6025 -0.5583
   77SOPE   C27 6852   5.533   5.194   5.737 -0.4088 -0.6779 -0.0380
   77SOPE   H7R 6853   5.484   5.097   5.762 -0.4508 -1.5612 -3.1550
   77SOPE   H7S 6854   5.472   5.232   5.653 -1.6063  1.4651  1.6782
   77SOPE   C28 6855   5.683   5.181   5.694 -0.5215 -0.1760 -0.0783
   77SOPE   H8R 6856   5.748   5.122   5.762  0.6619  0.4514 -0.6322
   77SOPE   H8S 6857   5.691   5.111   5.608  0.5138 -1.1365  0.7718
   77SOPE   C29 6858   5.757   5.310   5.671  0.6523  0.2526 -0.1521
   77SOPE   H91 6859   5.788   5.357   5.765  1.4450 -2.1705  0.8582
   77SOPE  C210 6860   5.787   5.361   5.551  0.3137  0.2973 -0.3424
   77SOPE  H101 6861   5.831   5.462   5.549  0.1364  0.4883  2.2386
   77SOPE  C211 6862   5.739   5.305   5.421 -0.1969  0.4066  0.5499
   77SOPE  H11R 6863   5.656   5.233   5.439  0.1611 -0.0200  0.5117
   77SOPE  H11S 6864   5.819   5.243   5.374 -0.1154 -1.1535  2.6349
   77SOPE  C212 6865   5.680   5.415   5.327 -0.0640  0.3071 -0.3983
   77SOPE  H12R 6866   5.595   5.467   5.377 -0.8079 -0.9087 -0.3399
   77SOPE  H12S 6867   5.638   5.351   5.246 -0.9647  0.8708 -0.3946
   77SOPE  C213 6868   5.772   5.517   5.270 -0.7514 -0.1762 -0.2526
   77SOPE  H13R 6869   5.826   5.560   5.358  0.9583  0.4354 -1.5404
   77SOPE  H13S 6870   5.723   5.608   5.229 -0.2198  0.2305 -0.0122
   77SOPE  C214 6871   5.888   5.467   5.178  0.2811 -0.5562  0.0930
   77SOPE  H14R 6872   5.829   5.435   5.089 -3.1716 -1.3253  2.4532
   77SOPE  H14S 6873   5.942   5.386   5.231  0.7478  0.2972  0.9406
   77SOPE  C215 6874   5.989   5.576   5.132 -0.1110 -0.0379 -0.1222
   77SOPE  H15R 6875   6.047   5.616   5.218  1.5032  1.1387 -1.6794
   77SOPE  H15S 6876   5.929   5.660   5.091 -0.6513 -0.8486 -1.0313
   77SOPE  C216 6877   6.089   5.518   5.033  0.8241 -0.5812  0.3411
   77SOPE  H16R 6878   6.022   5.499   4.947  0.5264  1.0855  0.1742
   77SOPE  H16S 6879   6.129   5.421   5.070  0.8652  0.0114  1.9461
   77SOPE  C217 6880   6.188   5.621   4.983  0.0094 -0.9146 -0.4933
   77SOPE  H17R 6881   6.149   5.723   5.004  1.5732  0.1926 -2.6036
   77SOPE  H17S 6882   6.216   5.617   4.876  3.3097  2.6234  0.0237
   77SOPE  C218 6883   6.328   5.606   5.049 -0.4301 -0.7053  0.5262
   77SOPE  H18R 6884   6.401   5.685   5.022  2.0997 -3.0975 -0.0028
   77SOPE  H18S 6885   6.379   5.509   5.031  2.4922  0.6657  0.8712
   77SOPE  H18T 6886   6.318   5.616   5.159  1.3580  1.5608  0.5538
   77SOPE   C33 6887   5.189   4.844   6.130 -0.2965  0.2068  0.2229
   77SOPE   H3X 6888   5.078   4.829   6.132 -0.5242  1.7390  2.5007
   77SOPE   H3Y 6889   5.219   4.790   6.222  2.2419 -0.1750 -0.7658
   77SOPE   C34 6890   5.256   4.777   6.014 -0.2927 -0.5318  0.1207
   77SOPE   H4X 6891   5.220   4.672   6.003  0.8966 -0.8709 -0.7292
   77SOPE   H4Y 6892   5.365   4.778   6.034  0.0764 -3.6252 -1.1672
   77SOPE   C35 6893   5.236   4.853   5.877  0.2704  0.0563 -0.0284
   77SOPE   H5X 6894   5.268   4.960   5.877 -0.2223  0.2027 -0.1211
   77SOPE   H5Y 6895   5.126   4.855   5.867  0.2338 -0.3992  0.2493
   77SOPE   C36 6896   5.305   4.784   5.762 -0.4193  0.6825  0.3225
   77SOPE   H6X 6897   5.282   4.676   5.776  0.2335  0.7657  2.4809
   77SOPE   H6Y 6898   5.411   4.808   5.783 -0.1713 -0.5355  0.5421
   77SOPE   C37 6899   5.259   4.854   5.632 -0.3362 -0.2560  0.3884
   77SOPE   H7X 6900   5.201   4.945   5.658 -3.4206 -2.0929  0.4909
   77SOPE   H7Y 6901   5.195   4.785   5.573 -1.7443  0.5324  0.9244
   77SOPE   C38 6902   5.383   4.886   5.538 -0.9215  0.2013  0.2203
   77SOPE   H8X 6903   5.423   4.787   5.508  1.1460  1.0809 -0.1394
   77SOPE   H8Y 6904   5.465   4.935   5.594  0.5658 -1.9390  0.0388
   77SOPE   C39 6905   5.336   4.973   5.419  0.1661 -0.2521 -0.4261
   77SOPE   H9X 6906   5.427   5.010   5.367 -1.4125 -1.0707 -4.0666
   77SOPE   H9Y 6907   5.290   5.069   5.451  2.9131  1.2999 -0.7542
   77SOPE  C310 6908   5.246   4.902   5.319 -0.4531  0.5391  0.4428
   77SOPE  H10X 6909   5.147   4.876   5.361 -0.1598 -1.3547  0.0717
   77SOPE  H10Y 6910   5.304   4.812   5.287 -0.0449  0.7518  0.5764
   77SOPE  C311 6911   5.209   4.984   5.187 -0.1069  0.1917 -0.0312
   77SOPE  H11X 6912   5.286   5.060   5.160 -0.1281 -0.6410 -2.6733
   77SOPE  H11Y 6913   5.121   5.047   5.209 -1.3672 -0.1326 -3.6149
   77SOPE  C312 6914   5.170   4.902   5.054  0.6156  0.0522 -0.5662
   77SOPE  H12X 6915   5.089   4.834   5.085  1.2015 -0.6455 -0.5276
   77SOPE  H12Y 6916   5.263   4.841   5.041 -1.2982 -2.9055 -1.2934
   77SOPE  C313 6917   5.131   4.978   4.927  0.1764  0.2891 -0.5977
   77SOPE  H13X 6918   5.222   5.034   4.897  0.4160  1.2558  1.7063
   77SOPE  H13Y 6919   5.048   5.044   4.960  1.1268  2.2355 -1.9085
   77SOPE  C314 6920   5.084   4.880   4.823  0.4880 -0.4268 -0.4165
   77SOPE  H14X 6921   4.992   4.829   4.856  2.4637 -2.8295  1.7480
   77SOPE  H14Y 6922   5.155   4.795   4.817 -0.8382 -1.7783  1.7475
   77SOPE  C315 6923   5.057   4.956   4.689 -0.1591 -0.1616 -0.2971
   77SOPE  H15X 6924   5.015   4.880   4.620 -2.2338  0.5481  0.1264
   77SOPE  H15Y 6925   5.145   5.009   4.646  0.8059 -1.0485  0.5045
   77SOPE  C316 6926   4.940   5.058   4.697 -0.4301  0.4410 -0.3292
   77SOPE  H16X 6927   4.891   5.027   4.792  0.8723 -2.4912 -0.4827
   77SOPE  H16Y 6928   4.872   5.056   4.610  0.7528  1.8365 -1.3303
   77SOPE  C317 6929   4.972   5.202   4.712  0.0643 -0.1098  0.8048
   77SOPE  H17X 6930   5.017   5.237   4.617 -0.7889 -2.1003 -0.4009
   77SOPE  H17Y 6931   5.055   5.212   4.785  0.7502 -2.1971  0.4130
   77SOPE  C318 6932   4.850   5.288   4.749  0.0148  0.1902 -0.0291
   77SOPE  H18X 6933   4.883   5.393   4.766  0.3602  0.1289 -0.2882
   77SOPE  H18Y 6934   4.804   5.243   4.840 -2.0809 -0.0853 -1.1763
   77SOPE  H18Z 6935   4.774   5.293   4.669 -1.2036  2.4112  1.1797
   78SOPE     N 6936   4.470   4.962   6.602 -0.2883 -0.2681 -0.2582
   78SOPE   HN1 6937   4.516   4.889   6.659 -1.7057  0.5468  2.0685
   78SOPE   HN2 6938   4.482   4.931   6.503  3.0646 -2.5859  0.7163
   78SOPE   HN3 6939   4.509   5.057   6.611  0.0794 -0.3429 -0.9601
   78SOPE   C12 6940   4.321   4.944   6.631  0.5121  0.1047 -0.5698
   78SOPE  H12A 6941   4.265   5.015   6.567  1.3938 -0.0248 -1.5055
   78SOPE  H12B 6942   4.298   4.972   6.736  1.5694 -0.7202 -0.0959
   78SOPE   C11 6943   4.274   4.796   6.599 -0.0785 -0.1060  0.4368
   78SOPE  H11A 6944   4.310   4.773   6.496 -0.4298 -1.1167  0.5262
   78SOPE  H11B 6945   4.163   4.798   6.609  0.0078  0.0534  1.4378
   78SOPE     P 6946   4.278   4.563   6.694  0.2298 -0.1536  0.1495
   78SOPE   O13 6947   4.133   4.573   6.722  0.1913  0.2478 -0.1778
   78SOPE   O14 6948   4.361   4.473   6.777 -0.3898 -0.0052 -0.5016
   78SOPE   O12 6949   4.339   4.708   6.698  0.2722 -0.1270  0.5190
   78SOPE   O11 6950   4.304   4.532   6.545  0.0999  0.7123  0.6308
   78SOPE    C1 6951   4.435   4.484   6.503 -0.8791  0.5802  0.2272
   78SOPE    HA 6952   4.489   4.425   6.581  1.3805 -0.4133 -1.9562
   78SOPE    HB 6953   4.490   4.573   6.468 -1.8914  0.0789 -3.0080
   78SOPE    C2 6954   4.434   4.406   6.371  0.4790 -0.1095 -0.3137
   78SOPE    HS 6955   4.534   4.414   6.324  0.2163  0.1903 -0.8316
   78SOPE   O21 6956   4.332   4.459   6.284 -0.5310 -0.0454 -0.1554
   78SOPE   C21 6957   4.330   4.586   6.232  0.2592  0.6134 -1.1315
   78SOPE   O22 6958   4.424   4.665   6.235  0.2999  0.0840  0.7121
   78SOPE   C22 6959   4.199   4.619   6.177  0.9138  0.3337 -0.0222
   78SOPE   H2R 6960   4.189   4.721   6.134  2.1569 -0.4787 -2.4131
   78SOPE   H2S 6961   4.129   4.605   6.263 -0.1730  1.7956 -0.6116
   78SOPE    C3 6962   4.396   4.259   6.395 -0.4609 -0.5231 -0.2145
   78SOPE    HX 6963   4.296   4.264   6.444 -0.3723  2.3718 -0.1853
   78SOPE    HY 6964   4.463   4.216   6.472  2.1125  1.2614 -1.3377
   78SOPE   O31 6965   4.395   4.190   6.266  0.6151  0.1535 -0.2934
   78SOPE   C31 6966   4.274   4.174   6.208 -0.3898 -0.3485  0.5086
   78SOPE   O32 6967   4.167   4.189   6.268 -0.0233 -0.3881  0.3705
   78SOPE   C32 6968   4.296   4.150   6.058  0.4333 -0.1461 -0.4943
   78SOPE   H2X 6969   4.367   4.066   6.046 -0.4275 -0.7196 -1.9601
   78SOPE   H2Y 6970   4.333   4.243   6.009  3.6196 -0.8231  0.4017
   78SOPE   C23 6971   4.173   4.523   6.057 -0.1594 -0.5096  0.2941
   78SOPE   H3R 6972   4.160   4.424   6.106 -0.0740 -0.8840 -0.4189
   78SOPE   H3S 6973   4.256   4.517   5.983  1.3938  2.8641  1.5603
   78SOPE   C24 6974   4.043   4.548   5.982 -0.2504 -0.6823 -0.3126
   78SOPE   H4R 6975   3.957   4.568   6.050 -0.2562  2.1876 -1.0584
   78SOPE   H4S 6976   4.062   4.639   5.921 -1.1517 -0.2942 -0.0432
   78SOPE   C25 6977   3.986   4.429   5.905 -0.5230 -0.6045 -0.6871
   78SOPE   H5R 6978   4.065   4.373   5.850 -1.1899 -0.1560 -2.1416
   78SOPE   H5S 6979   3.949   4.355   5.980  3.2921 -2.3137 -0.2462
   78SOPE   C26 6980   3.879   4.457   5.798 -0.5348 -0.4602 -0.0660
   78SOPE   H6R 6981   3.868   4.356   5.753  0.7869 -0.3121 -0.7790
   78SOPE   H6S 6982   3.782   4.495   5.835 -1.8905 -0.8533 -2.9495
   78SOPE   C27 6983   3.935   4.549   5.691 -0.1081  0.3260  0.5195
   78SOPE   H7R 6984   3.939   4.650   5.735  1.2936  0.1902  0.7709
   78SOPE   H7S 6985   4.042   4.530   5.668 -0.2485 -0.8047  0.7081
   78SOPE   C28 6986   3.858   4.542   5.551  0.4392 -0.0397  0.2682
   78SOPE   H8R 6987   3.827   4.436   5.540 -0.5547  0.2516  0.1088
   78SOPE   H8S 6988   3.760   4.595   5.559 -0.0458 -0.7944 -0.5567
   78SOPE   C29 6989   3.943   4.588   5.439  0.6947  0.0181 -0.4410
   78SOPE   H91 6990   4.024   4.519   5.412  0.1090 -0.4405 -1.0567
   78SOPE  C210 6991   3.918   4.691   5.350 -0.1569  0.0608  0.2472
   78SOPE  H101 6992   3.996   4.717   5.277  1.3916 -1.1603  1.3915
   78SOPE  C211 6993   3.789   4.779   5.343  0.6000  0.2423 -0.3529
   78SOPE  H11R 6994   3.818   4.883   5.318 -0.3384  0.7141  0.4393
   78SOPE  H11S 6995   3.732   4.777   5.438  1.6183  0.1320  0.2664
   78SOPE  C212 6996   3.697   4.725   5.230  0.2729  0.1116 -0.0039
   78SOPE  H12R 6997   3.671   4.618   5.239  0.9692 -0.1316 -0.7814
   78SOPE  H12S 6998   3.758   4.738   5.139  2.1290  2.0047  1.4127
   78SOPE  C213 6999   3.571   4.810   5.218  0.3028 -0.3353 -0.9877
   78SOPE  H13R 7000   3.585   4.917   5.193 -2.4943  0.0707 -1.0740
   78SOPE  H13S 7001   3.544   4.817   5.325  0.8254  1.8337 -0.9490
   78SOPE  C214 7002   3.463   4.753   5.135  0.5911  0.4238  0.4086
   78SOPE  H14R 7003   3.363   4.792   5.164  0.8068  1.3308 -0.0410
   78SOPE  H14S 7004   3.457   4.646   5.163 -1.4563  0.1792 -0.7759
   78SOPE  C215 7005   3.486   4.767   4.986  0.7208 -0.2328 -0.9539
   78SOPE  H15R 7006   3.553   4.687   4.947  0.0755 -2.2099  1.6978
   78SOPE  H15S 7007   3.541   4.863   4.971  2.4353 -1.3715 -2.4453
   78SOPE  C216 7008   3.352   4.760   4.908 -0.2831  0.3673 -0.2324
   78SOPE  H16R 7009   3.386   4.790   4.807  1.5515  1.2636  0.5982
   78SOPE  H16S 7010   3.275   4.832   4.943 -0.7358 -0.5524  0.7437
   78SOPE  C217 7011   3.293   4.617   4.895  0.1477 -0.3625 -0.0600
   78SOPE  H17R 7012   3.252   4.583   4.993  0.5635 -0.5908  0.0383
   78SOPE  H17S 7013   3.377   4.547   4.880  0.9409  0.5241  0.1497
   78SOPE  C218 7014   3.185   4.597   4.785  0.0248 -0.1012 -0.0815
   78SOPE  H18R 7015   3.211   4.665   4.702  1.8477  1.7979  1.9114
   78SOPE  H18S 7016   3.084   4.632   4.815 -0.8256 -3.5807  1.6466
   78SOPE  H18T 7017   3.170   4.492   4.754 -2.7257  0.4072 -0.7258
   78SOPE   C33 7018   4.171   4.094   5.985 -0.8377 -0.0673  0.5704
   78SOPE   H3X 7019   4.095   4.175   5.987  1.0229  1.7611  1.2344
   78SOPE   H3Y 7020   4.135   4.008   6.044 -0.9130  0.5258  1.4123
   78SOPE   C34 7021   4.195   4.043   5.836 -0.1576 -0.1791 -0.0120
   78SOPE   H4X 7022   4.275   3.966   5.840  1.1773  1.2070  0.9097
   78SOPE   H4Y 7023   4.245   4.127   5.783  0.7250 -0.5512  0.2146
   78SOPE   C35 7024   4.074   3.990   5.756  0.3500  0.1784 -0.4848
   78SOPE   H5X 7025   3.986   4.049   5.791  0.0488  0.7736 -2.1369
   78SOPE   H5Y 7026   4.053   3.884   5.780  0.9819 -0.5219 -2.7748
   78SOPE   C36 7027   4.099   4.012   5.609 -0.6284  0.0029  0.4189
   78SOPE   H6X 7028   4.195   3.960   5.589 -1.0660 -1.9513  2.8714
   78SOPE   H6Y 7029   4.111   4.120   5.586  2.1975 -0.6625 -1.9352
   78SOPE   C37 7030   3.987   3.963   5.516 -0.0942 -0.2313 -0.4111
   78SOPE   H7X 7031   3.886   3.988   5.556  0.9166  1.6394  1.2226
   78SOPE   H7Y 7032   3.997   3.854   5.500  0.2574 -0.8881  3.2428
   78SOPE   C38 7033   3.998   4.036   5.384  0.0386  0.2376 -1.1969
   78SOPE   H8X 7034   4.100   4.022   5.343  0.8788 -2.8391  1.4935
   78SOPE   H8Y 7035   3.985   4.147   5.383  1.9178  0.5079 -2.7920
   78SOPE   C39 7036   3.903   3.974   5.281 -0.2322 -0.0087 -0.0749
   78SOPE   H9X 7037   3.800   3.957   5.320 -0.6995  0.4056 -1.1092
   78SOPE   H9Y 7038   3.940   3.872   5.257 -1.6809 -0.7302  0.6422
   78SOPE  C310 7039   3.889   4.047   5.152 -0.3564  0.2062  0.1222
   78SOPE  H10X 7040   3.814   3.991   5.093 -0.8110 -0.5417  1.3897
   78SOPE  H10Y 7041   3.987   4.044   5.100 -0.4214 -0.2808  0.0294
   78SOPE  C311 7042   3.841   4.186   5.146 -0.1156  0.0044 -0.7821
   78SOPE  H11X 7043   3.919   4.251   5.190 -0.1753 -0.4093 -0.0317
   78SOPE  H11Y 7044   3.743   4.195   5.198  0.5686 -0.3789  0.6440
   78SOPE  C312 7045   3.804   4.223   5.001  0.9882 -0.6213  0.5084
   78SOPE  H12X 7046   3.715   4.164   4.970  1.4572 -1.4157  0.6408
   78SOPE  H12Y 7047   3.881   4.195   4.926 -0.9506 -1.1203 -1.3986
   78SOPE  C313 7048   3.769   4.378   5.002 -0.5438  0.1458  0.7684
   78SOPE  H13X 7049   3.848   4.432   5.058  1.6086  1.0560 -2.8273
   78SOPE  H13Y 7050   3.667   4.396   5.042 -1.3079 -0.6253 -0.7375
   78SOPE  C314 7051   3.781   4.436   4.855  0.0779  0.3711 -0.5920
   78SOPE  H14X 7052   3.877   4.398   4.815 -0.2223 -0.8816 -0.1797
   78SOPE  H14Y 7053   3.783   4.547   4.857  1.7103  0.3374  0.5734
   78SOPE  C315 7054   3.658   4.391   4.769 -0.0971  0.4911  0.0837
   78SOPE  H15X 7055   3.563   4.431   4.811 -0.4726  0.1690 -0.4460
   78SOPE  H15Y 7056   3.653   4.281   4.787  2.3004  0.6097  2.1316
   78SOPE  C316 7057   3.669   4.425   4.623  0.0103 -0.1450  0.2930
   78SOPE  H16X 7058   3.769   4.413   4.575 -0.1868  2.1289 -0.8262
   78SOPE  H16Y 7059   3.648   4.533   4.610 -0.2712 -0.1609  0.6272
   78SOPE  C317 7060   3.568   4.343   4.534  0.2101  0.1817 -0.0310
   78SOPE  H17X 7061   3.600   4.237   4.543  2.9306  0.8832 -0.4384
   78SOPE  H17Y 7062   3.594   4.378   4.431  1.7349  1.0471  0.6108
   78SOPE  C318 7063   3.418   4.355   4.557 -0.3974  0.1235 -0.5067
   78SOPE  H18X 7064   3.395   4.314   4.659  4.1928  1.7102  1.4033
   78SOPE  H18Y 7065   3.357   4.298   4.484 -0.8806 -0.5318  0.3712
   78SOPE  H18Z 7066   3.385   4.461   4.556  0.6257  0.4870  1.0333
   79SOPE     N 7067   6.071   2.908   6.680 -0.1536  0.1067  0.2396
   79SOPE   HN1 7068   5.996   2.887   6.748 -0.4611  2.5279  0.7445
   79SOPE   HN2 7069   6.159   2.858   6.703  0.0090 -0.3991 -1.3678
   79SOPE   HN3 7070   6.105   3.007   6.681 -3.1495  1.2483  1.9480
   79SOPE   C12 7071   6.034   2.853   6.547 -0.0452 -0.0297  0.1357
   79SOPE  H12A 7072   5.959   2.913   6.491 -1.2305 -0.7663  0.8911
   79SOPE  H12B 7073   6.002   2.747   6.551 -1.1999  0.3414  1.1895
   79SOPE   C11 7074   6.160   2.856   6.458  0.0805 -0.1036 -0.6346
   79SOPE  H11A 7075   6.179   2.965   6.446  2.2534 -0.5080 -1.3329
   79SOPE  H11B 7076   6.141   2.808   6.360  0.1157 -0.9834 -0.2162
   79SOPE     P 7077   6.336   2.667   6.493 -0.1327 -0.5477 -0.1803
   79SOPE   O13 7078   6.245   2.557   6.518  0.0188  0.1280  0.1577
   79SOPE   O14 7079   6.472   2.656   6.555 -0.0070  0.4403  0.3400
   79SOPE   O12 7080   6.263   2.795   6.537 -0.1708 -0.5759 -0.3673
   79SOPE   O11 7081   6.340   2.695   6.344 -1.3531 -0.8274  0.8315
   79SOPE    C1 7082   6.407   2.599   6.258 -0.0780  0.1724 -0.7541
   79SOPE    HA 7083   6.432   2.506   6.314 -0.0727  0.4488 -0.2839
   79SOPE    HB 7084   6.508   2.632   6.223  0.0054  0.4793 -0.2417
   79SOPE    C2 7085   6.318   2.555   6.137  0.3278  0.6883 -0.1169
   79SOPE    HS 7086   6.360   2.470   6.078  1.5145 -0.0863  1.7678
   79SOPE   O21 7087   6.289   2.667   6.045 -0.0339  0.8519 -0.3608
   79SOPE   C21 7088   6.383   2.700   5.961  0.3470  0.6226 -0.2775
   79SOPE   O22 7089   6.498   2.664   5.957 -0.8527  0.1299 -0.1596
   79SOPE   C22 7090   6.324   2.799   5.867 -0.3273 -0.1177  0.4289
   79SOPE   H2R 7091   6.377   2.896   5.872  0.4757 -0.3514 -2.0965
   79SOPE   H2S 7092   6.219   2.825   5.894  0.4354  2.5620  1.1538
   79SOPE    C3 7093   6.166   2.508   6.178  0.3070  0.2081  1.0229
   79SOPE    HX 7094   6.108   2.598   6.207 -0.8981 -0.7121  1.4893
   79SOPE    HY 7095   6.177   2.440   6.264  2.8486 -0.7020  0.0887
   79SOPE   O31 7096   6.101   2.436   6.072  0.3105 -0.1695  0.5987
   79SOPE   C31 7097   5.967   2.444   6.091 -0.3883 -0.4957  0.7263
   79SOPE   O32 7098   5.906   2.510   6.167  0.5352  0.4171 -0.2414
   79SOPE   C32 7099   5.896   2.359   5.988  0.3212  0.6743  0.1979
   79SOPE   H2X 7100   5.942   2.258   5.975 -1.9105 -0.3527 -0.1898
   79SOPE   H2Y 7101   5.898   2.413   5.891 -0.3880  0.6287  0.1514
   79SOPE   C23 7102   6.330   2.753   5.717  0.3772  0.5115  0.1615
   79SOPE   H3R 7103   6.431   2.710   5.704  0.0249  0.5710 -4.7211
   79SOPE   H3S 7104   6.315   2.832   5.640 -0.2285 -1.0855 -1.4352
   79SOPE   C24 7105   6.228   2.637   5.693 -0.4707  0.3700  0.4259
   79SOPE   H4R 7106   6.250   2.622   5.585 -0.2000  0.9907  0.3927
   79SOPE   H4S 7107   6.257   2.546   5.749 -1.7301 -1.1425 -1.2563
   79SOPE   C25 7108   6.084   2.674   5.721  0.3142 -0.0173  0.0434
   79SOPE   H5R 7109   6.068   2.690   5.830  2.7206  0.4822  0.3898
   79SOPE   H5S 7110   6.062   2.771   5.670  1.6795  0.4381  0.2595
   79SOPE   C26 7111   5.987   2.568   5.681  0.0797  0.1451  0.6616
   79SOPE   H6R 7112   6.008   2.468   5.724 -1.1276 -0.5577 -0.3086
   79SOPE   H6S 7113   5.890   2.587   5.731 -0.1691  2.0725 -0.4184
   79SOPE   C27 7114   5.960   2.559   5.528 -0.8860 -0.0919  0.3255
   79SOPE   H7R 7115   5.946   2.666   5.502  0.1971  0.2220  0.9944
   79SOPE   H7S 7116   6.049   2.523   5.472 -1.4066  0.3742 -0.8210
   79SOPE   C28 7117   5.832   2.477   5.495 -0.5181 -0.6262 -0.7048
   79SOPE   H8R 7118   5.763   2.495   5.581  1.2571  0.8377  0.5186
   79SOPE   H8S 7119   5.786   2.515   5.402  0.3414 -2.5278 -1.9636
   79SOPE   C29 7120   5.879   2.333   5.485 -0.0901  0.1157  0.4715
   79SOPE   H91 7121   5.922   2.292   5.578  3.3710  0.8270 -0.6710
   79SOPE  C210 7122   5.890   2.242   5.383 -0.7222 -1.1575  0.1574
   79SOPE  H101 7123   5.948   2.151   5.406  2.4200  1.4121  3.5186
   79SOPE  C211 7124   5.857   2.265   5.243 -0.3811 -0.5974  0.6857
   79SOPE  H11R 7125   5.778   2.343   5.234  0.0354 -0.4020 -1.9975
   79SOPE  H11S 7126   5.826   2.170   5.196 -2.2726  0.5417 -0.5354
   79SOPE  C212 7127   5.979   2.319   5.161  0.1355 -0.1027  0.0182
   79SOPE  H12R 7128   6.057   2.240   5.167  0.5985  0.4220  1.2695
   79SOPE  H12S 7129   6.013   2.414   5.208  0.9836 -0.4325  0.0944
   79SOPE  C213 7130   5.938   2.366   5.015 -0.4089 -0.0705 -0.0463
   79SOPE  H13R 7131   5.882   2.462   5.014  0.3564  0.3792 -0.5752
   79SOPE  H13S 7132   5.862   2.296   4.975 -1.0643  1.0751 -0.8502
   79SOPE  C214 7133   6.069   2.377   4.933 -0.8939  0.5297 -0.1957
   79SOPE  H14R 7134   6.133   2.287   4.948 -1.1298  0.6700  1.9036
   79SOPE  H14S 7135   6.123   2.465   4.972  0.0791 -0.4728  0.7790
   79SOPE  C215 7136   6.053   2.396   4.785  0.4773  0.6931  0.1628
   79SOPE  H15R 7137   5.957   2.450   4.768 -2.0291 -2.3596  3.1517
   79SOPE  H15S 7138   6.044   2.303   4.724 -0.4852  0.3455  0.7935
   79SOPE  C216 7139   6.179   2.465   4.710 -0.0303  0.5006 -0.0434
   79SOPE  H16R 7140   6.266   2.398   4.727 -0.8565 -0.9983 -1.4357
   79SOPE  H16S 7141   6.198   2.561   4.763  0.4661  1.1558 -1.3686
   79SOPE  C217 7142   6.152   2.490   4.563  0.0720  0.3265 -0.2041
   79SOPE  H17R 7143   6.252   2.512   4.519  0.1001 -1.5916 -1.2284
   79SOPE  H17S 7144   6.085   2.576   4.543 -0.3121 -0.3591 -2.0539
   79SOPE  C218 7145   6.102   2.374   4.493 -0.1437 -0.3857  0.0781
   79SOPE  H18R 7146   5.997   2.358   4.524  0.2730 -2.1036  0.7421
   79SOPE  H18S 7147   6.158   2.282   4.521 -1.1277 -0.7794  0.8032
   79SOPE  H18T 7148   6.101   2.384   4.382  0.4952 -2.2558 -0.1298
   79SOPE   C33 7149   5.745   2.336   6.020  0.1701 -0.6277 -0.1223
   79SOPE   H3X 7150   5.691   2.433   6.020  0.5733 -0.3714 -1.8938
   79SOPE   H3Y 7151   5.735   2.288   6.120 -2.0304  2.7826  1.4899
   79SOPE   C34 7152   5.673   2.240   5.929  0.6230  0.4577 -0.6001
   79SOPE   H4X 7153   5.579   2.209   5.979  1.6618 -0.1813  1.0433
   79SOPE   H4Y 7154   5.734   2.147   5.926  0.7571  0.5630 -1.6291
   79SOPE   C35 7155   5.643   2.293   5.786 -0.2028  0.2801  0.5391
   79SOPE   H5X 7156   5.727   2.333   5.726 -1.2848  0.9535 -0.5753
   79SOPE   H5Y 7157   5.571   2.377   5.785  0.5276  0.9994 -2.7184
   79SOPE   C36 7158   5.571   2.186   5.700  0.1964  0.9936  0.0501
   79SOPE   H6X 7159   5.484   2.165   5.765  0.2419  4.1269  1.2847
   79SOPE   H6Y 7160   5.624   2.088   5.697  1.0839  1.4819 -1.9389
   79SOPE   C37 7161   5.533   2.224   5.554 -0.5146  0.0202  0.5191
   79SOPE   H7X 7162   5.622   2.267   5.503 -0.2200 -0.5182  0.5694
   79SOPE   H7Y 7163   5.452   2.300   5.549  0.2331  0.7914 -0.4074
   79SOPE   C38 7164   5.460   2.109   5.484 -0.1478  0.1723  0.1934
   79SOPE   H8X 7165   5.358   2.104   5.527 -1.4770 -0.5537 -2.7995
   79SOPE   H8Y 7166   5.512   2.011   5.489 -1.2923 -0.6286 -2.2548
   79SOPE   C39 7167   5.413   2.145   5.335  0.2019  0.4715  0.3382
   79SOPE   H9X 7168   5.352   2.238   5.337  0.4802  0.6985 -0.7964
   79SOPE   H9Y 7169   5.338   2.070   5.303  0.5293  1.0508 -1.9824
   79SOPE  C310 7170   5.529   2.160   5.235 -0.1767 -0.0098 -0.6042
   79SOPE  H10X 7171   5.581   2.061   5.233  0.0986  0.0631  1.3613
   79SOPE  H10Y 7172   5.599   2.237   5.273 -2.4945  0.9320  2.1206
   79SOPE  C311 7173   5.487   2.197   5.094 -0.1122  0.3670 -0.1198
   79SOPE  H11X 7174   5.406   2.273   5.093 -0.4106  0.0805 -2.5912
   79SOPE  H11Y 7175   5.443   2.100   5.062  1.1125 -0.6597  1.1190
   79SOPE  C312 7176   5.592   2.224   4.984 -0.2559  0.2170  0.6305
   79SOPE  H12X 7177   5.660   2.137   4.993  0.4246  0.4010 -1.9325
   79SOPE  H12Y 7178   5.641   2.321   5.005  0.2045  0.2258 -0.4425
   79SOPE  C313 7179   5.532   2.233   4.847  0.1318 -0.2531  0.6344
   79SOPE  H13X 7180   5.459   2.317   4.839 -0.1477 -0.5849 -0.3784
   79SOPE  H13Y 7181   5.483   2.138   4.816  1.5448 -0.3542 -1.4707
   79SOPE  C314 7182   5.647   2.273   4.748 -0.0333  0.3563 -0.0575
   79SOPE  H14X 7183   5.733   2.203   4.756 -0.1439  0.3786  1.8023
   79SOPE  H14Y 7184   5.685   2.372   4.781 -0.6504  0.9293 -1.0187
   79SOPE  C315 7185   5.614   2.283   4.596  0.4941  0.4401 -0.3415
   79SOPE  H15X 7186   5.509   2.319   4.587  1.3844  3.4526  0.3535
   79SOPE  H15Y 7187   5.608   2.179   4.558 -3.1242 -0.7615  2.8604
   79SOPE  C316 7188   5.705   2.376   4.518  0.6503 -0.3553  0.0274
   79SOPE  H16X 7189   5.805   2.328   4.505  1.0664  0.4161  0.2730
   79SOPE  H16Y 7190   5.730   2.473   4.566 -0.7256  0.8464 -1.5877
   79SOPE  C317 7191   5.662   2.417   4.369  0.5657  0.1990  0.2859
   79SOPE  H17X 7192   5.744   2.477   4.322  2.9351 -2.2211  1.0812
   79SOPE  H17Y 7193   5.568   2.476   4.377 -0.0287 -0.3233 -2.1912
   79SOPE  C318 7194   5.630   2.295   4.283  0.1013 -0.5511 -1.2792
   79SOPE  H18X 7195   5.593   2.342   4.189  0.4256  0.9410 -0.6919
   79SOPE  H18Y 7196   5.550   2.224   4.314  0.3087  0.5063  2.0025
   79SOPE  H18Z 7197   5.722   2.233   4.277 -1.4640 -3.3571  1.2147
   80SOPE     N 7198   3.419   5.121   6.701  0.6969  0.4603 -0.0123
   80SOPE   HN1 7199   3.317   5.135   6.711 -0.0997 -3.1094 -1.6359
   80SOPE   HN2 7200   3.441   5.023   6.728 -0.3196  0.2652  0.1339
   80SOPE   HN3 7201   3.474   5.182   6.765  0.4113 -0.0957  0.7942
   80SOPE   C12 7202   3.478   5.119   6.564  0.7359 -0.6480  0.0997
   80SOPE  H12A 7203   3.580   5.156   6.585 -0.1581  0.5545  2.8465
   80SOPE  H12B 7204   3.425   5.197   6.505  1.0842  3.5012  4.6351
   80SOPE   C11 7205   3.461   4.983   6.492 -0.2157  0.4322 -0.3116
   80SOPE  H11A 7206   3.532   4.980   6.407  0.7171  2.8072  0.2980
   80SOPE  H11B 7207   3.355   4.969   6.464  0.0378 -1.9189 -0.3388
   80SOPE     P 7208   3.562   4.747   6.530 -0.0404 -0.7584  0.0554
   80SOPE   O13 7209   3.522   4.644   6.623  0.3560  0.1510 -0.3148
   80SOPE   O14 7210   3.704   4.773   6.494  0.0846 -0.2659 -0.5894
   80SOPE   O12 7211   3.494   4.882   6.589 -0.4131  0.1426 -0.3108
   80SOPE   O11 7212   3.477   4.724   6.399  0.4307 -0.3986 -0.1942
   80SOPE    C1 7213   3.350   4.659   6.400 -0.2118 -0.6407 -0.0339
   80SOPE    HA 7214   3.269   4.718   6.447  0.5902  0.2823  0.2189
   80SOPE    HB 7215   3.352   4.564   6.458 -3.0265 -0.4194  0.5789
   80SOPE    C2 7216   3.293   4.647   6.251 -0.0392 -0.0934 -0.2011
   80SOPE    HS 7217   3.197   4.591   6.260  0.2410 -0.8662 -1.7375
   80SOPE   O21 7218   3.394   4.590   6.167  0.1989  0.3206 -0.0025
   80SOPE   C21 7219   3.364   4.549   6.040 -0.6481  0.2774 -0.9028
   80SOPE   O22 7220   3.255   4.538   5.992  0.4396 -0.5588 -0.8862
   80SOPE   C22 7221   3.487   4.503   5.955  0.1512 -0.8817  0.4006
   80SOPE   H2R 7222   3.545   4.433   6.019  1.3808 -0.7186 -0.4869
   80SOPE   H2S 7223   3.549   4.592   5.931  0.7724 -0.7651  2.2434
   80SOPE    C3 7224   3.252   4.784   6.203 -0.5788  0.3990  0.1422
   80SOPE    HX 7225   3.337   4.851   6.228 -1.3673  0.8850  1.6371
   80SOPE    HY 7226   3.169   4.816   6.269  0.7600  2.2837  0.9901
   80SOPE   O31 7227   3.226   4.789   6.058  0.3643  0.5856 -0.2812
   80SOPE   C31 7228   3.235   4.918   6.009 -0.1523  0.2436 -0.3844
   80SOPE   O32 7229   3.251   5.023   6.064 -0.1868  0.9736 -0.6845
   80SOPE   C32 7230   3.208   4.908   5.859  0.0084 -0.3435  0.1875
   80SOPE   H2X 7231   3.111   4.856   5.844 -0.3431 -0.3096  2.1172
   80SOPE   H2Y 7232   3.279   4.835   5.814  2.1690  1.4769  0.4856
   80SOPE   C23 7233   3.450   4.424   5.828 -0.2241 -1.2003  0.0703
   80SOPE   H3R 7234   3.363   4.355   5.841 -0.5043 -1.0367 -0.8631
   80SOPE   H3S 7235   3.534   4.363   5.787 -1.7833 -2.0505 -2.0687
   80SOPE   C24 7236   3.398   4.521   5.717  0.2514  0.6493  0.1798
   80SOPE   H4R 7237   3.315   4.581   5.759 -1.9647 -1.8128 -0.3826
   80SOPE   H4S 7238   3.477   4.584   5.670 -1.0408  1.1073 -1.4476
   80SOPE   C25 7239   3.320   4.451   5.608  0.2652 -0.2630 -0.6220
   80SOPE   H5R 7240   3.333   4.340   5.612  1.5328 -0.1113  0.0672
   80SOPE   H5S 7241   3.213   4.476   5.623  1.0083  3.6966 -0.8730
   80SOPE   C26 7242   3.358   4.494   5.467 -1.3528 -0.2640 -0.5028
   80SOPE   H6R 7243   3.468   4.490   5.480 -1.3155  1.1640 -0.3034
   80SOPE   H6S 7244   3.342   4.424   5.382  2.0470 -0.9157 -0.7745
   80SOPE   C27 7245   3.304   4.635   5.447 -0.1927  0.4570 -0.6413
   80SOPE   H7R 7246   3.296   4.688   5.544 -0.7421 -1.1935  0.2626
   80SOPE   H7S 7247   3.374   4.689   5.380  2.3592 -0.3213  1.2751
   80SOPE   C28 7248   3.158   4.633   5.397  0.0660  0.0348 -0.5039
   80SOPE   H8R 7249   3.128   4.545   5.337 -1.6962 -0.0229  0.3963
   80SOPE   H8S 7250   3.103   4.621   5.493 -0.3930 -0.0223 -0.7693
   80SOPE   C29 7251   3.111   4.763   5.345  0.0523  0.6014  1.2205
   80SOPE   H91 7252   3.132   4.848   5.411  4.2290  0.2341  0.6040
   80SOPE  C210 7253   3.047   4.784   5.232  0.1350 -0.1418  0.0503
   80SOPE  H101 7254   3.015   4.882   5.195  1.7459  1.5878  2.8705
   80SOPE  C211 7255   2.999   4.680   5.135  0.2403 -0.1463  0.0807
   80SOPE  H11R 7256   3.039   4.576   5.141  0.7692  0.0296 -0.2591
   80SOPE  H11S 7257   3.049   4.713   5.041 -0.4082 -1.4630 -0.7511
   80SOPE  C212 7258   2.846   4.672   5.117 -0.4523 -0.4425  0.2457
   80SOPE  H12R 7259   2.818   4.779   5.124 -0.8741 -0.5710  0.5803
   80SOPE  H12S 7260   2.791   4.618   5.197 -0.6198  2.0136  1.9201
   80SOPE  C213 7261   2.808   4.627   4.981 -0.0625  0.0187  0.0649
   80SOPE  H13R 7262   2.822   4.517   4.976 -1.3208 -0.2011  0.8973
   80SOPE  H13S 7263   2.875   4.661   4.899  0.4056 -1.0136  0.0115
   80SOPE  C214 7264   2.671   4.670   4.936  0.4370 -0.1480  0.7012
   80SOPE  H14R 7265   2.661   4.779   4.917  0.1206  0.1138  2.2221
   80SOPE  H14S 7266   2.597   4.653   5.017 -0.5449  0.6351 -0.0070
   80SOPE  C215 7267   2.614   4.590   4.818 -0.6141  0.2271  0.0836
   80SOPE  H15R 7268   2.624   4.483   4.845 -0.3289  0.0804 -0.5838
   80SOPE  H15S 7269   2.688   4.604   4.736 -0.9088 -1.3009 -0.4691
   80SOPE  C216 7270   2.477   4.629   4.777 -0.6203 -0.5763 -0.2868
   80SOPE  H16R 7271   2.471   4.740   4.769  0.1539 -0.2434  2.5295
   80SOPE  H16S 7272   2.413   4.600   4.863 -0.6183  1.0990  0.3256
   80SOPE  C217 7273   2.427   4.570   4.638  0.1974  0.2359  0.2410
   80SOPE  H17R 7274   2.322   4.604   4.635  0.8888  2.5418  0.2381
   80SOPE  H17S 7275   2.425   4.458   4.638  1.1040  0.1554 -2.3095
   80SOPE  C218 7276   2.513   4.626   4.524 -0.8821 -0.2544  0.6360
   80SOPE  H18R 7277   2.524   4.734   4.544 -2.2113 -0.2470  1.4718
   80SOPE  H18S 7278   2.473   4.609   4.422  0.2999 -1.0770  0.2849
   80SOPE  H18T 7279   2.617   4.586   4.526 -0.7249  0.1036 -0.0287
   80SOPE   C33 7280   3.202   5.035   5.782 -0.6465  0.3070 -0.0144
   80SOPE   H3X 7281   3.301   5.081   5.764  0.3219 -1.8892 -0.5490
   80SOPE   H3Y 7282   3.139   5.113   5.829 -1.5530 -0.4230  0.0171
   80SOPE   C34 7283   3.141   5.007   5.638 -0.5319  0.3668 -0.3187
   80SOPE   H4X 7284   3.059   4.934   5.658 -0.6778  0.9747  1.5012
   80SOPE   H4Y 7285   3.221   4.975   5.568 -2.6085 -1.0044 -2.1900
   80SOPE   C35 7286   3.079   5.133   5.582  0.6296  0.7360  0.8064
   80SOPE   H5X 7287   3.162   5.205   5.563 -1.1278  2.3648 -1.1606
   80SOPE   H5Y 7288   2.991   5.180   5.630 -1.4659  0.7424 -2.7323
   80SOPE   C36 7289   3.029   5.110   5.440 -0.5372  0.5025 -0.5374
   80SOPE   H6X 7290   2.935   5.052   5.447  0.2267 -0.8038 -0.7700
   80SOPE   H6Y 7291   3.098   5.043   5.384 -0.2774  0.1317  0.2156
   80SOPE   C37 7292   3.015   5.246   5.361  0.3146  0.3999 -0.0577
   80SOPE   H7X 7293   3.116   5.290   5.348  0.8100 -0.7365 -0.2046
   80SOPE   H7Y 7294   2.960   5.319   5.424 -0.1812  0.0523 -0.0778
   80SOPE   C38 7295   2.943   5.236   5.226  0.1853 -0.5144 -0.4804
   80SOPE   H8X 7296   2.991   5.154   5.169 -1.8337 -3.3165  1.5581
   80SOPE   H8Y 7297   2.936   5.329   5.166 -0.8388 -0.8121 -0.8483
   80SOPE   C39 7298   2.796   5.197   5.239 -0.4839 -0.4045 -1.1549
   80SOPE   H9X 7299   2.739   5.291   5.254 -0.4867 -0.5696 -0.0296
   80SOPE   H9Y 7300   2.779   5.126   5.323 -2.4751  0.2839 -0.9164
   80SOPE  C310 7301   2.747   5.120   5.116 -0.0501  0.2209  0.2070
   80SOPE  H10X 7302   2.637   5.110   5.117 -0.0557  0.1139  1.7483
   80SOPE  H10Y 7303   2.775   5.012   5.113 -2.3315 -0.4298  0.5991
   80SOPE  C311 7304   2.781   5.195   4.981 -0.7253  0.0930 -0.4031
   80SOPE  H11X 7305   2.735   5.132   4.902 -4.7137  2.0797  0.0626
   80SOPE  H11Y 7306   2.891   5.200   4.971 -0.7101  3.3836  0.3155
   80SOPE  C312 7307   2.719   5.334   4.957  0.6231  1.1346 -0.4262
   80SOPE  H12X 7308   2.781   5.403   5.019  0.2918  0.7184  0.3728
   80SOPE  H12Y 7309   2.617   5.334   5.001  1.3601  1.5547  1.3947
   80SOPE  C313 7310   2.718   5.371   4.811  0.3264  0.7271 -0.4425
   80SOPE  H13X 7311   2.676   5.470   4.786  0.9180  0.8200 -1.1019
   80SOPE  H13Y 7312   2.649   5.305   4.755  0.9077  1.0764 -1.5883
   80SOPE  C314 7313   2.849   5.351   4.734 -1.0544  0.2240 -0.6899
   80SOPE  H14X 7314   2.868   5.242   4.723  1.0748  0.4468  0.1309
   80SOPE  H14Y 7315   2.934   5.393   4.792  0.6600  2.2426 -4.3378
   80SOPE  C315 7316   2.855   5.401   4.590  0.7897 -0.1167 -0.2019
   80SOPE  H15X 7317   2.946   5.365   4.538  1.2864  0.0537  0.5299
   80SOPE  H15Y 7318   2.846   5.512   4.592  0.3718 -0.1488 -0.2126
   80SOPE  C316 7319   2.740   5.357   4.497  0.1956 -0.3354 -0.5946
   80SOPE  H16X 7320   2.651   5.407   4.542 -0.9544 -4.3804  2.1630
   80SOPE  H16Y 7321   2.712   5.250   4.505  0.2212 -0.2242  1.2436
   80SOPE  C317 7322   2.745   5.392   4.343 -0.0783 -0.1245 -0.3989
   80SOPE  H17X 7323   2.815   5.313   4.312 -0.7890 -1.4264  1.1720
   80SOPE  H17Y 7324   2.801   5.488   4.340 -3.7189  2.3032  1.1453
   80SOPE  C318 7325   2.628   5.392   4.248 -0.5015 -0.4039  0.2281
   80SOPE  H18X 7326   2.671   5.424   4.151  2.1896  0.3716  1.5613
   80SOPE  H18Y 7327   2.552   5.462   4.287  0.6648  1.1342 -0.1596
   80SOPE  H18Z 7328   2.590   5.289   4.229 -1.2288  0.1818 -1.6853
   81SOPE     N 7329   6.157   0.518   6.758  0.4060  0.5097 -0.2053
   81SOPE   HN1 7330   6.060   0.499   6.725  0.7811  1.8676 -2.2907
   81SOPE   HN2 7331   6.152   0.618   6.733 -1.0306  0.7308  0.7990
   81SOPE   HN3 7332   6.222   0.466   6.696 -0.6953 -1.3882  0.1276
   81SOPE   C12 7333   6.191   0.507   6.901 -0.5834 -0.3157  0.3151
   81SOPE  H12A 7334   6.292   0.462   6.911 -0.8168 -1.1929 -1.0468
   81SOPE  H12B 7335   6.128   0.436   6.958  0.5339  0.8430  3.1993
   81SOPE   C11 7336   6.189   0.649   6.964 -0.0673  0.3687 -0.1443
   81SOPE  H11A 7337   6.254   0.731   6.928  0.2614 -0.4175 -1.3652
   81SOPE  H11B 7338   6.221   0.631   7.069  2.2983  4.2212 -0.0227
   81SOPE     P 7339   5.951   0.697   7.055  0.1270 -0.6275 -0.6658
   81SOPE   O13 7340   6.003   0.770   7.168 -0.1013  0.1555 -0.0696
   81SOPE   O14 7341   5.920   0.553   7.078  0.0008 -0.0632  0.6331
   81SOPE   O12 7342   6.057   0.704   6.945  0.1561 -0.1466  0.0107
   81SOPE   O11 7343   5.825   0.769   6.998 -0.1896 -0.3351 -0.1424
   81SOPE    C1 7344   5.833   0.834   6.872 -0.6411  0.3527 -0.2420
   81SOPE    HA 7345   5.936   0.868   6.851 -0.4593  2.3651  3.1563
   81SOPE    HB 7346   5.764   0.917   6.898 -0.5216  0.2723  0.3468
   81SOPE    C2 7347   5.773   0.737   6.761  0.7418  0.5168  0.2347
   81SOPE    HS 7348   5.824   0.640   6.776 -2.1082 -1.1728 -0.2811
   81SOPE   O21 7349   5.786   0.796   6.630 -0.2338  0.3411  0.2865
   81SOPE   C21 7350   5.908   0.806   6.591  0.3835 -0.0683  0.0447
   81SOPE   O22 7351   6.009   0.764   6.646 -0.1002 -0.1555  0.6360
   81SOPE   C22 7352   5.902   0.882   6.457  0.5404  0.0391 -0.0778
   81SOPE   H2R 7353   5.988   0.952   6.463 -1.1464  2.1115  2.4800
   81SOPE   H2S 7354   5.815   0.950   6.442 -0.2595 -0.8015  0.6431
   81SOPE    C3 7355   5.623   0.717   6.795 -0.2461 -0.2274  0.4001
   81SOPE    HX 7356   5.572   0.815   6.780  0.5843  0.1726  0.0776
   81SOPE    HY 7357   5.624   0.695   6.903  0.8104  1.7400  0.8417
   81SOPE   O31 7358   5.558   0.619   6.702  0.1158 -0.4027 -0.6136
   81SOPE   C31 7359   5.567   0.489   6.737  0.3066  0.0506  0.1740
   81SOPE   O32 7360   5.630   0.444   6.830 -0.3214  0.3663 -0.3779
   81SOPE   C32 7361   5.502   0.409   6.629 -0.1302 -0.3507 -0.5688
   81SOPE   H2X 7362   5.398   0.447   6.616 -0.4821  0.4560  3.3890
   81SOPE   H2Y 7363   5.491   0.308   6.673 -0.7300 -0.4788 -0.9958
   81SOPE   C23 7364   5.923   0.782   6.342  0.4556 -0.8761  0.1129
   81SOPE   H3R 7365   5.844   0.704   6.351  0.4784 -0.9142 -0.0172
   81SOPE   H3S 7366   6.017   0.723   6.351  0.6013 -0.6707 -0.0541
   81SOPE   C24 7367   5.898   0.846   6.202 -0.0997 -0.3478  0.1611
   81SOPE   H4R 7368   5.878   0.954   6.212 -1.2932 -0.5431  0.1007
   81SOPE   H4S 7369   5.994   0.839   6.146  0.3522  0.6938  0.7741
   81SOPE   C25 7370   5.776   0.780   6.133 -0.0209  0.2640  0.1179
   81SOPE   H5R 7371   5.783   0.669   6.138 -0.7946  0.1157 -1.5175
   81SOPE   H5S 7372   5.691   0.811   6.197  0.0083  0.5658  0.0103
   81SOPE   C26 7373   5.763   0.819   5.984  0.2867  0.5965  0.2335
   81SOPE   H6R 7374   5.666   0.780   5.948  0.3204  1.7966 -1.2779
   81SOPE   H6S 7375   5.782   0.927   5.963  2.9105 -0.1715 -2.0075
   81SOPE   C27 7376   5.856   0.738   5.901 -0.8063  0.0664  0.9038
   81SOPE   H7R 7377   5.966   0.751   5.916 -0.3609 -1.1396 -0.9354
   81SOPE   H7S 7378   5.837   0.628   5.896 -0.5973  0.0873 -1.2891
   81SOPE   C28 7379   5.857   0.788   5.747  0.2401  0.1542 -0.7572
   81SOPE   H8R 7380   5.890   0.894   5.741  0.6715  0.1944  1.4416
   81SOPE   H8S 7381   5.943   0.730   5.706  1.1428  0.6357  0.4179
   81SOPE   C29 7382   5.736   0.745   5.663  0.6447 -1.1121 -0.0339
   81SOPE   H91 7383   5.641   0.748   5.719  0.0976  2.5782 -0.8721
   81SOPE  C210 7384   5.735   0.738   5.528  0.5385 -0.2421  0.3050
   81SOPE  H101 7385   5.643   0.716   5.473  0.5501  1.7239 -0.5990
   81SOPE  C211 7386   5.849   0.755   5.435  0.7469  0.4772 -0.0250
   81SOPE  H11R 7387   5.875   0.656   5.391 -1.2051  0.1323 -0.4743
   81SOPE  H11S 7388   5.939   0.802   5.481 -0.9517  2.5626  1.3677
   81SOPE  C212 7389   5.803   0.843   5.314 -0.0357 -0.3546 -0.0252
   81SOPE  H12R 7390   5.795   0.949   5.347  0.8023 -0.3757  0.2817
   81SOPE  H12S 7391   5.704   0.806   5.279  0.7327 -1.7565 -0.7837
   81SOPE  C213 7392   5.899   0.826   5.199 -0.0387 -0.6515 -0.4947
   81SOPE  H13R 7393   5.913   0.717   5.178  0.2272 -0.5383 -0.9261
   81SOPE  H13S 7394   5.998   0.864   5.233  0.4582 -3.7194  1.9783
   81SOPE  C214 7395   5.853   0.909   5.071 -0.0769 -0.0858 -0.0753
   81SOPE  H14R 7396   5.864   1.017   5.096 -1.7564  0.3992 -1.2873
   81SOPE  H14S 7397   5.746   0.892   5.047 -0.3056  1.7890 -0.5594
   81SOPE  C215 7398   5.949   0.891   4.947 -0.3934 -0.4581 -0.2897
   81SOPE  H15R 7399   5.965   0.785   4.914  0.6418 -0.7493  1.0678
   81SOPE  H15S 7400   6.050   0.921   4.982 -0.1085  1.2631 -2.4102
   81SOPE  C216 7401   5.913   0.984   4.833  0.2772  0.1805  0.4898
   81SOPE  H16R 7402   5.936   1.087   4.869  2.6218 -0.5537  1.2681
   81SOPE  H16S 7403   5.803   0.978   4.820  0.5860 -1.3042 -2.0706
   81SOPE  C217 7404   5.989   0.962   4.701 -0.0659  0.9329 -0.1095
   81SOPE  H17R 7405   5.977   0.859   4.660  0.4377  0.5794  0.6121
   81SOPE  H17S 7406   6.097   0.984   4.718  0.0829 -0.7527  1.4997
   81SOPE  C218 7407   5.939   1.065   4.598 -0.1907  0.3192  0.1290
   81SOPE  H18R 7408   5.949   1.170   4.634  2.8688 -0.9044  3.5054
   81SOPE  H18S 7409   5.831   1.047   4.577  0.2490  1.1947 -3.5039
   81SOPE  H18T 7410   5.978   1.042   4.497 -1.6161 -0.5709 -0.2424
   81SOPE   C33 7411   5.591   0.395   6.502 -0.0760  0.7547  0.9568
   81SOPE   H3X 7412   5.660   0.311   6.523 -2.1138 -0.4950  3.0627
   81SOPE   H3Y 7413   5.647   0.488   6.477 -0.0321  0.0917 -1.7659
   81SOPE   C34 7414   5.507   0.349   6.383 -0.0221 -0.8468 -0.6425
   81SOPE   H4X 7415   5.407   0.396   6.371  0.4267  0.0814 -0.8572
   81SOPE   H4Y 7416   5.478   0.245   6.410  1.4149 -0.9842  0.5164
   81SOPE   C35 7417   5.569   0.335   6.246 -0.1601  0.6098  0.2251
   81SOPE   H5X 7418   5.622   0.240   6.223  1.2828  0.9470  1.9300
   81SOPE   H5Y 7419   5.636   0.423   6.238  0.6465  0.4115  3.3841
   81SOPE   C36 7420   5.465   0.366   6.132 -0.0989 -0.0714  0.1318
   81SOPE   H6X 7421   5.409   0.457   6.162  0.8930  0.6744 -0.2221
   81SOPE   H6Y 7422   5.387   0.288   6.122 -1.5002  1.1502  1.1449
   81SOPE   C37 7423   5.527   0.396   5.994  0.4979  0.7474  0.0371
   81SOPE   H7X 7424   5.604   0.319   5.974  0.3781 -0.0240  2.3194
   81SOPE   H7Y 7425   5.579   0.494   5.992 -0.2311  1.1521 -1.7327
   81SOPE   C38 7426   5.424   0.405   5.876  0.2306  0.1156  0.2713
   81SOPE   H8X 7427   5.347   0.479   5.907  0.0427  0.7764 -1.6692
   81SOPE   H8Y 7428   5.368   0.311   5.859 -1.0671  0.6425  1.4442
   81SOPE   C39 7429   5.486   0.430   5.737  1.1864 -0.2449 -0.3963
   81SOPE   H9X 7430   5.564   0.357   5.708 -0.0512 -1.0447 -1.8504
   81SOPE   H9Y 7431   5.528   0.534   5.737 -0.4019  0.4459  1.2003
   81SOPE  C310 7432   5.377   0.433   5.628  0.9160  0.5796  0.2063
   81SOPE  H10X 7433   5.294   0.489   5.676 -0.6374 -2.7041  1.6599
   81SOPE  H10Y 7434   5.335   0.331   5.611  0.1471  0.5270  2.1275
   81SOPE  C311 7435   5.425   0.494   5.494 -0.2257  0.0364 -0.3658
   81SOPE  H11X 7436   5.438   0.604   5.505  3.1802 -0.3163  0.2581
   81SOPE  H11Y 7437   5.337   0.494   5.427 -0.3293 -0.8016 -0.2471
   81SOPE  C312 7438   5.550   0.430   5.437 -0.0488 -0.4038 -0.2721
   81SOPE  H12X 7439   5.530   0.321   5.433 -3.0601 -0.0483  1.5474
   81SOPE  H12Y 7440   5.631   0.457   5.509  0.3064 -0.3269 -0.7014
   81SOPE  C313 7441   5.575   0.477   5.289 -0.2599  0.5931  0.2146
   81SOPE  H13X 7442   5.566   0.588   5.282  1.8221  0.7067 -2.3105
   81SOPE  H13Y 7443   5.497   0.436   5.222  0.4629  0.0697 -0.3218
   81SOPE  C314 7444   5.714   0.435   5.232  0.7736  0.1727 -0.3287
   81SOPE  H14X 7445   5.727   0.326   5.251 -0.9252  0.4131  2.9063
   81SOPE  H14Y 7446   5.794   0.475   5.298 -0.6946 -0.0265  1.6834
   81SOPE  C315 7447   5.737   0.479   5.085 -0.0541 -0.3115  1.5962
   81SOPE  H15X 7448   5.724   0.589   5.075  2.9618 -0.0229 -0.8631
   81SOPE  H15Y 7449   5.663   0.427   5.021  0.8405  0.9707 -0.5809
   81SOPE  C316 7450   5.875   0.435   5.024  0.1262 -1.5032  0.1697
   81SOPE  H16X 7451   5.885   0.328   5.050  2.1927 -0.9581  2.0407
   81SOPE  H16Y 7452   5.955   0.490   5.078 -1.0490 -0.2565  0.6918
   81SOPE  C317 7453   5.885   0.467   4.869 -0.0176  0.5144  0.4328
   81SOPE  H17X 7454   5.993   0.476   4.846  0.3573  0.2071  1.9340
   81SOPE  H17Y 7455   5.831   0.563   4.852  0.9097  1.2633  1.5263
   81SOPE  C318 7456   5.821   0.364   4.783 -0.1618  0.0823 -0.0835
   81SOPE  H18X 7457   5.858   0.259   4.778 -1.0070 -0.1670 -1.6855
   81SOPE  H18Y 7458   5.824   0.398   4.678 -0.1784  0.1909 -0.0482
   81SOPE  H18Z 7459   5.719   0.351   4.824  0.5156 -1.5404  1.2215
   82SOPE     N 7460   1.623   5.325   6.923 -0.0131  0.2261  0.3843
   82SOPE   HN1 7461   1.647   5.375   7.011 -0.7589  0.6182  0.3715
   82SOPE   HN2 7462   1.583   5.231   6.945  0.6786 -0.0881  0.3226
   82SOPE   HN3 7463   1.707   5.315   6.863  0.2122 -0.4179  0.7991
   82SOPE   C12 7464   1.528   5.391   6.832  0.0207  0.1966 -0.2975
   82SOPE  H12A 7465   1.428   5.385   6.880  0.5345 -0.3705  0.7275
   82SOPE  H12B 7466   1.511   5.336   6.737 -0.9440 -0.9831  0.5393
   82SOPE   C11 7467   1.562   5.532   6.787  0.1502  0.1770  0.8489
   82SOPE  H11A 7468   1.470   5.582   6.751  0.7687  0.7331  0.0163
   82SOPE  H11B 7469   1.625   5.542   6.696 -2.7399 -0.2128 -1.3495
   82SOPE     P 7470   1.662   5.754   6.905 -0.0708  0.2875  0.0381
   82SOPE   O13 7471   1.745   5.767   7.027 -0.1679  0.3232  0.3613
   82SOPE   O14 7472   1.554   5.853   6.880 -0.6792  0.4436  0.0366
   82SOPE   O12 7473   1.606   5.606   6.901 -0.5765  0.1334  0.3050
   82SOPE   O11 7474   1.759   5.755   6.781 -0.0841 -0.1333 -0.2093
   82SOPE    C1 7475   1.803   5.870   6.712  0.0351 -1.0375  0.0208
   82SOPE    HA 7476   1.908   5.868   6.676 -0.0755  0.4454 -0.4357
   82SOPE    HB 7477   1.799   5.957   6.780 -1.6448  0.1959 -1.5543
   82SOPE    C2 7478   1.708   5.908   6.594  0.3439  0.4570 -0.0263
   82SOPE    HS 7479   1.602   5.906   6.628 -0.0899  0.6050 -1.3441
   82SOPE   O21 7480   1.729   5.811   6.492 -0.7123  0.2360 -0.7853
   82SOPE   C21 7481   1.621   5.782   6.420  0.0249  0.3953  0.4155
   82SOPE   O22 7482   1.508   5.832   6.426  0.0591 -0.1824  0.5303
   82SOPE   C22 7483   1.660   5.667   6.330  1.0244  0.5264  0.4737
   82SOPE   H2R 7484   1.624   5.574   6.378 -0.3539  0.5695 -0.4268
   82SOPE   H2S 7485   1.770   5.662   6.315  0.8135  1.4704 -1.8293
   82SOPE    C3 7486   1.741   6.052   6.543  0.0886  0.2577  0.8078
   82SOPE    HX 7487   1.850   6.067   6.523 -0.1246  3.4076  1.4228
   82SOPE    HY 7488   1.732   6.119   6.631  0.4416 -0.7593  1.6376
   82SOPE   O31 7489   1.672   6.089   6.421  0.5710  0.2683 -0.3187
   82SOPE   C31 7490   1.550   6.149   6.432  0.1369  0.3960 -0.5870
   82SOPE   O32 7491   1.493   6.166   6.535  0.3129  0.4207  0.0548
   82SOPE   C32 7492   1.523   6.230   6.307  0.8130  0.1260  0.1305
   82SOPE   H2X 7493   1.623   6.262   6.268  0.6810  0.7946  0.3246
   82SOPE   H2Y 7494   1.479   6.326   6.341 -0.1592 -0.1446 -0.3478
   82SOPE   C23 7495   1.603   5.660   6.185  0.0930 -0.3757 -0.0693
   82SOPE   H3R 7496   1.494   5.681   6.184  0.0042 -0.7616 -1.6191
   82SOPE   H3S 7497   1.627   5.560   6.143  0.4943 -0.7442  0.9995
   82SOPE   C24 7498   1.681   5.764   6.090  0.1972  0.7897  0.1857
   82SOPE   H4R 7499   1.678   5.862   6.143  1.3138  0.0709  1.6474
   82SOPE   H4S 7500   1.784   5.726   6.074  0.0333  1.4424 -2.9474
   82SOPE   C25 7501   1.629   5.758   5.943  0.2281  0.4789  0.2282
   82SOPE   H5R 7502   1.645   5.854   5.891  0.1452 -0.2591 -1.2126
   82SOPE   H5S 7503   1.690   5.684   5.887 -0.9903 -0.6547  0.3320
   82SOPE   C26 7504   1.486   5.717   5.921  0.5649  0.5100  0.6136
   82SOPE   H6R 7505   1.469   5.618   5.968  0.9612  0.5581  0.8693
   82SOPE   H6S 7506   1.419   5.786   5.977 -0.3643  0.2631 -0.1664
   82SOPE   C27 7507   1.452   5.719   5.770 -0.6069  0.6490  0.2434
   82SOPE   H7R 7508   1.508   5.641   5.715 -1.6256  1.1038 -1.5377
   82SOPE   H7S 7509   1.344   5.692   5.765 -0.2268 -0.8366 -0.3040
   82SOPE   C28 7510   1.474   5.853   5.693  0.9312  0.1897  0.1270
   82SOPE   H8R 7511   1.580   5.886   5.702  1.4146 -1.6314  1.8366
   82SOPE   H8S 7512   1.451   5.832   5.587  2.9479 -1.0815 -0.1106
   82SOPE   C29 7513   1.377   5.953   5.757  1.0580 -0.3706  0.0046
   82SOPE   H91 7514   1.382   5.980   5.864  0.2555 -2.0417  0.5046
   82SOPE  C210 7515   1.289   6.029   5.694 -0.2090  0.1086 -0.6607
   82SOPE  H101 7516   1.236   6.106   5.751 -1.8464 -2.1014  0.9761
   82SOPE  C211 7517   1.268   6.033   5.546  0.3418  0.1729 -0.4158
   82SOPE  H11R 7518   1.348   5.975   5.494  1.2266  0.6268  0.4121
   82SOPE  H11S 7519   1.274   6.134   5.501  1.5764 -0.1769 -1.0980
   82SOPE  C212 7520   1.123   5.989   5.509  0.3132 -0.5939 -0.2727
   82SOPE  H12R 7521   1.105   6.033   5.408  1.1097  0.8130  0.1560
   82SOPE  H12S 7522   1.051   6.044   5.573  0.5377 -0.9052  0.2493
   82SOPE  C213 7523   1.100   5.839   5.512  0.0765  0.5972  0.6119
   82SOPE  H13R 7524   1.127   5.795   5.610  1.2516 -1.3918 -0.5280
   82SOPE  H13S 7525   1.170   5.783   5.446  1.8427  0.6822  2.3131
   82SOPE  C214 7526   0.960   5.786   5.494 -0.3665 -0.2300  0.7818
   82SOPE  H14R 7527   0.896   5.813   5.581  0.7407 -0.4546  1.6922
   82SOPE  H14S 7528   0.965   5.676   5.487  1.6341 -0.1301  0.1425
   82SOPE  C215 7529   0.887   5.831   5.360  0.2814 -0.1707  0.6526
   82SOPE  H15R 7530   0.861   5.939   5.363  1.8473  0.2378  0.5866
   82SOPE  H15S 7531   0.794   5.771   5.349  0.4275 -0.4939  1.1197
   82SOPE  C216 7532   0.979   5.806   5.238 -0.3930 -0.8997 -0.0756
   82SOPE  H16R 7533   1.032   5.709   5.252  3.6278  1.2934  1.4527
   82SOPE  H16S 7534   1.053   5.889   5.245 -1.5590  0.3430 -1.8735
   82SOPE  C217 7535   0.907   5.817   5.102 -0.1223 -0.3127 -0.4172
   82SOPE  H17R 7536   0.899   5.925   5.081 -2.4472 -0.3766 -0.1493
   82SOPE  H17S 7537   0.810   5.762   5.099  0.0487 -0.6163 -2.6326
   82SOPE  C218 7538   0.993   5.779   4.990 -0.0501 -0.0316  0.0734
   82SOPE  H18R 7539   0.928   5.748   4.906  0.4022 -0.8938  0.0306
   82SOPE  H18S 7540   1.063   5.698   5.021 -0.5671 -1.3412 -1.9925
   82SOPE  H18T 7541   1.056   5.868   4.968  0.0158 -0.0438  0.2083
   82SOPE   C33 7542   1.439   6.149   6.207 -0.3578 -0.2444 -1.0335
   82SOPE   H3X 7543   1.361   6.095   6.264  0.0234 -0.8092 -1.0391
   82SOPE   H3Y 7544   1.499   6.073   6.153 -0.4442 -1.7708  0.9189
   82SOPE   C34 7545   1.351   6.231   6.115 -0.2791  0.1007  0.1234
   82SOPE   H4X 7546   1.299   6.318   6.160  0.7011  0.4244  0.6536
   82SOPE   H4Y 7547   1.275   6.169   6.063  0.9092 -0.4440 -1.0374
   82SOPE   C35 7548   1.443   6.301   6.008 -0.2801  0.1962 -0.9767
   82SOPE   H5X 7549   1.520   6.225   5.981  1.0805  0.7949  1.0608
   82SOPE   H5Y 7550   1.490   6.383   6.065  0.0484 -0.4966 -0.2442
   82SOPE   C36 7551   1.375   6.364   5.892 -0.1820  0.0653 -0.3384
   82SOPE   H6X 7552   1.338   6.467   5.910  2.0363  1.2991 -2.2114
   82SOPE   H6Y 7553   1.286   6.303   5.864  0.0808 -0.2711 -0.4465
   82SOPE   C37 7554   1.467   6.362   5.770 -0.2405 -0.5437  0.2179
   82SOPE   H7X 7555   1.500   6.257   5.756  0.5929 -0.7333  3.0153
   82SOPE   H7Y 7556   1.554   6.425   5.795 -1.9459  1.9437  0.2137
   82SOPE   C38 7557   1.406   6.408   5.635  0.4865  0.0433  0.3364
   82SOPE   H8X 7558   1.393   6.518   5.640  1.3636  0.4261 -2.9858
   82SOPE   H8Y 7559   1.307   6.358   5.630  0.1578  0.4725  1.9141
   82SOPE   C39 7560   1.487   6.372   5.514  0.1119  0.2865 -0.0429
   82SOPE   H9X 7561   1.507   6.263   5.517 -2.1520 -0.1981 -0.8179
   82SOPE   H9Y 7562   1.586   6.423   5.513 -0.5467  1.6054 -1.1604
   82SOPE  C310 7563   1.431   6.402   5.374 -0.2515 -0.1588 -0.1726
   82SOPE  H10X 7564   1.332   6.351   5.370 -1.0772  1.1142  2.1032
   82SOPE  H10Y 7565   1.492   6.361   5.291 -1.0055 -0.2304 -0.7045
   82SOPE  C311 7566   1.420   6.550   5.334  0.3861 -0.1569  1.2002
   82SOPE  H11X 7567   1.514   6.609   5.329  0.0352  0.3361 -2.6236
   82SOPE  H11Y 7568   1.360   6.615   5.402  1.0597  0.0033  1.6521
   82SOPE  C312 7569   1.351   6.574   5.197 -0.1068  0.2371 -0.6795
   82SOPE  H12X 7570   1.248   6.534   5.211 -0.1863  0.8019  0.4648
   82SOPE  H12Y 7571   1.395   6.516   5.114 -3.0255 -2.8845 -0.2847
   82SOPE  C313 7572   1.321   6.724   5.164  0.0079 -0.1932 -0.4459
   82SOPE  H13X 7573   1.419   6.772   5.142  0.6371 -0.5974  1.3049
   82SOPE  H13Y 7574   1.273   6.776   5.250 -0.3399 -0.0733 -0.7101
   82SOPE  C314 7575   1.234   6.749   5.047  0.1375  0.2526  0.8914
   82SOPE  H14X 7576   1.134   6.709   5.075 -0.5242  0.9974 -0.3524
   82SOPE  H14Y 7577   1.270   6.683   4.966  0.6621  1.1235  0.4055
   82SOPE  C315 7578   1.231   6.898   4.998 -0.6607  0.0680  0.1217
   82SOPE  H15X 7579   1.201   6.962   5.084 -2.1525 -1.0098  0.4507
   82SOPE  H15Y 7580   1.152   6.916   4.921 -3.2437  1.4646  2.8716
   82SOPE  C316 7581   1.366   6.955   4.955 -0.3269  0.2894 -0.1163
   82SOPE  H16X 7582   1.428   6.874   4.912  0.6378  1.2009 -0.4886
   82SOPE  H16Y 7583   1.406   6.996   5.051 -1.2124  0.7218  0.0817
   82SOPE  C317 7584   1.345   7.082   4.864  0.7249 -0.6775 -0.5762
   82SOPE  H17X 7585   1.275   7.155   4.910  0.9624 -0.3517 -0.7236
   82SOPE  H17Y 7586   1.288   7.054   4.773 -1.5276 -1.4443  1.0057
   82SOPE  C318 7587   1.470   7.162   4.817 -0.9952  0.6108  0.5246
   82SOPE  H18X 7588   1.440   7.227   4.732  1.6378  0.4142 -0.6583
   82SOPE  H18Y 7589   1.536   7.087   4.768  0.3942  0.8769  1.8974
   82SOPE  H18Z 7590   1.517   7.221   4.898 -0.3487  2.6990 -1.2574
   83SOPE     N 7591   3.506   1.156   2.324  0.1884  0.3037 -0.0922
   83SOPE   HN1 7592   3.435   1.090   2.362  1.8244 -1.8818 -0.5833
   83SOPE   HN2 7593   3.582   1.139   2.393 -0.6464 -1.1638  0.5016
   83SOPE   HN3 7594   3.464   1.250   2.328 -1.1378 -0.3263  2.5349
   83SOPE   C12 7595   3.555   1.130   2.189  0.5870  0.6293  0.2183
   83SOPE  H12A 7596   3.466   1.106   2.127  0.2044  2.2118  0.1190
   83SOPE  H12B 7597   3.621   1.041   2.201  0.4748  0.4325 -0.5572
   83SOPE   C11 7598   3.643   1.243   2.140 -0.2406  0.3695  0.1287
   83SOPE  H11A 7599   3.578   1.326   2.106 -0.9807 -0.3963 -0.3861
   83SOPE  H11B 7600   3.691   1.204   2.047  1.4131 -1.0264  1.5119
   83SOPE     P 7601   3.884   1.342   2.204 -0.2332  0.2751  0.2972
   83SOPE   O13 7602   3.877   1.419   2.078  0.3126  0.3123 -0.2383
   83SOPE   O14 7603   3.980   1.230   2.209  0.2602 -0.3369  0.2684
   83SOPE   O12 7604   3.730   1.292   2.246 -1.0687 -0.0327  0.2537
   83SOPE   O11 7605   3.934   1.444   2.315  0.1864 -0.3519 -0.0130
   83SOPE    C1 7606   3.845   1.525   2.384 -0.2931  0.2995 -0.2344
   83SOPE    HA 7607   3.751   1.549   2.329 -0.5988  3.8351  1.5582
   83SOPE    HB 7608   3.906   1.615   2.406  3.7018 -2.0469 -0.6910
   83SOPE    C2 7609   3.804   1.471   2.525  0.6900 -0.1120  0.6154
   83SOPE    HS 7610   3.826   1.543   2.607  0.7133  0.4752  0.1015
   83SOPE   O21 7611   3.860   1.349   2.559 -0.2487 -0.5908  0.3355
   83SOPE   C21 7612   3.981   1.357   2.599 -0.3098  0.0861 -1.0367
   83SOPE   O22 7613   4.057   1.455   2.611  0.1264  0.1222  0.0743
   83SOPE   C22 7614   4.031   1.215   2.647  0.7610 -0.7703 -0.2605
   83SOPE   H2R 7615   4.101   1.173   2.572  1.6638 -0.9830  0.6703
   83SOPE   H2S 7616   3.936   1.158   2.659  1.6770 -2.8864 -2.3881
   83SOPE    C3 7617   3.654   1.455   2.540  0.4314  1.0474  0.0638
   83SOPE    HX 7618   3.615   1.368   2.483 -1.7534  0.7849  1.8421
   83SOPE    HY 7619   3.611   1.548   2.497 -0.0573  0.3267 -1.0736
   83SOPE   O31 7620   3.625   1.429   2.677 -0.0205 -0.1582 -0.5380
   83SOPE   C31 7621   3.611   1.535   2.763  0.2044 -0.1318  0.3859
   83SOPE   O32 7622   3.623   1.652   2.729  1.0735  0.0502 -0.1096
   83SOPE   C32 7623   3.584   1.479   2.902 -0.4148  0.6131 -0.1204
   83SOPE   H2X 7624   3.673   1.423   2.939 -1.1586  0.7032  1.8965
   83SOPE   H2Y 7625   3.501   1.406   2.894 -0.0983 -0.5858  4.5787
   83SOPE   C23 7626   4.100   1.214   2.781 -0.3995 -0.5385 -0.5751
   83SOPE   H3R 7627   4.180   1.292   2.772  0.9130 -1.9634 -1.7615
   83SOPE   H3S 7628   4.144   1.113   2.791  0.1334 -0.3644 -1.1138
   83SOPE   C24 7629   4.016   1.250   2.908 -0.7453 -0.0928 -0.2791
   83SOPE   H4R 7630   3.981   1.354   2.898  0.7292  0.6218  1.3946
   83SOPE   H4S 7631   3.933   1.176   2.905  1.5204 -2.7834 -2.0678
   83SOPE   C25 7632   4.094   1.240   3.040  0.4270  0.4435  0.4101
   83SOPE   H5R 7633   4.129   1.135   3.047 -0.7959 -0.0333 -0.2299
   83SOPE   H5S 7634   4.183   1.305   3.051  2.2874 -2.1364  1.6006
   83SOPE   C26 7635   4.002   1.253   3.161  0.2099  0.1831 -0.4322
   83SOPE   H6R 7636   3.935   1.341   3.153  1.5209  1.4845  1.7454
   83SOPE   H6S 7637   3.941   1.161   3.173  0.6643 -0.0930 -0.1699
   83SOPE   C27 7638   4.072   1.298   3.287  0.8281  0.1438 -0.6954
   83SOPE   H7R 7639   4.145   1.220   3.318 -1.0161 -1.0521  0.8347
   83SOPE   H7S 7640   4.140   1.382   3.261  2.7446 -0.8616  0.7984
   83SOPE   C28 7641   3.971   1.328   3.403 -0.2922 -0.7559 -0.7675
   83SOPE   H8R 7642   3.908   1.416   3.379  0.4702 -0.0669 -0.2912
   83SOPE   H8S 7643   3.892   1.250   3.412  0.1552 -1.2056 -0.6787
   83SOPE   C29 7644   4.040   1.348   3.534  0.1171 -0.2609  0.5661
   83SOPE   H91 7645   4.147   1.327   3.545  0.5234  2.6854  4.8270
   83SOPE  C210 7646   3.979   1.396   3.643  0.2519  0.1308  0.3243
   83SOPE  H101 7647   4.027   1.386   3.742 -0.6904  2.2942  1.0630
   83SOPE  C211 7648   3.829   1.420   3.664 -0.3480 -0.3650 -1.0967
   83SOPE  H11R 7649   3.778   1.334   3.712 -0.2766  0.4098  0.4312
   83SOPE  H11S 7650   3.777   1.438   3.568 -1.1944  1.6425 -0.3202
   83SOPE  C212 7651   3.797   1.539   3.755  0.4347 -0.4728 -1.0106
   83SOPE  H12R 7652   3.689   1.533   3.783  1.1019  0.0029  2.0844
   83SOPE  H12S 7653   3.827   1.634   3.706 -2.4317  0.7418 -0.6479
   83SOPE  C213 7654   3.857   1.538   3.902 -0.2548  0.1119 -0.2188
   83SOPE  H13R 7655   3.961   1.575   3.908  0.3425 -0.9529 -2.6716
   83SOPE  H13S 7656   3.846   1.432   3.934 -1.2616  0.9016  2.2275
   83SOPE  C214 7657   3.774   1.620   3.997 -0.3315 -0.2493 -0.5698
   83SOPE  H14R 7658   3.665   1.605   3.979 -0.2980 -1.9575  0.4569
   83SOPE  H14S 7659   3.789   1.729   3.978 -2.0831  0.1944  0.3525
   83SOPE  C215 7660   3.824   1.592   4.143  0.5737 -0.2622  0.7732
   83SOPE  H15R 7661   3.923   1.641   4.162  1.5578 -1.8227 -0.1561
   83SOPE  H15S 7662   3.838   1.484   4.162  1.2796 -0.5932 -1.4145
   83SOPE  C216 7663   3.715   1.628   4.248 -0.0525 -0.1478  0.2509
   83SOPE  H16R 7664   3.622   1.584   4.206  1.4529 -2.3086 -1.0854
   83SOPE  H16S 7665   3.718   1.738   4.262 -0.4275 -0.0560 -0.3623
   83SOPE  C217 7666   3.742   1.568   4.379 -0.4737  0.7960 -0.7862
   83SOPE  H17R 7667   3.658   1.600   4.445 -1.4411 -2.2566 -0.3526
   83SOPE  H17S 7668   3.837   1.608   4.420  0.0700 -0.8027 -0.4140
   83SOPE  C218 7669   3.735   1.414   4.385  0.1804  0.2843  0.2463
   83SOPE  H18R 7670   3.804   1.354   4.322  0.1543  0.7692 -0.2454
   83SOPE  H18S 7671   3.632   1.379   4.367  0.6631 -1.2153  0.2157
   83SOPE  H18T 7672   3.762   1.383   4.489  2.1570  2.4995  0.4901
   83SOPE   C33 7673   3.547   1.587   3.010  0.1914  0.2678 -0.6983
   83SOPE   H3X 7674   3.448   1.635   2.993  0.2575  1.0983  1.0266
   83SOPE   H3Y 7675   3.620   1.671   3.014  1.8587 -1.1842  1.5077
   83SOPE   C34 7676   3.550   1.519   3.148  0.2512 -0.8922 -0.5896
   83SOPE   H4X 7677   3.643   1.462   3.166 -0.0588 -2.6184 -3.7024
   83SOPE   H4Y 7678   3.466   1.447   3.156 -1.5542  1.0888 -0.6419
   83SOPE   C35 7679   3.522   1.621   3.264  0.0770  0.3316  0.6617
   83SOPE   H5X 7680   3.417   1.655   3.259  0.1613  0.3680 -1.6570
   83SOPE   H5Y 7681   3.575   1.717   3.245 -0.4061  0.2834 -1.0050
   83SOPE   C36 7682   3.577   1.566   3.393  0.2450  0.0224  0.1990
   83SOPE   H6X 7683   3.686   1.546   3.391 -0.0962 -2.2332  0.6995
   83SOPE   H6Y 7684   3.526   1.468   3.408  1.2260 -0.4217  0.7570
   83SOPE   C37 7685   3.565   1.668   3.509 -0.3965 -0.3068  0.3693
   83SOPE   H7X 7686   3.612   1.765   3.483 -0.4540 -1.0425 -2.9768
   83SOPE   H7Y 7687   3.627   1.634   3.594  0.0849  2.4302  1.2136
   83SOPE   C38 7688   3.428   1.698   3.558  0.1950 -0.8501 -0.1300
   83SOPE   H8X 7689   3.381   1.614   3.613  0.2342  0.1219  1.4457
   83SOPE   H8Y 7690   3.360   1.725   3.474  0.8373  0.6390 -0.2008
   83SOPE   C39 7691   3.416   1.809   3.665  0.6841  0.1792  0.5851
   83SOPE   H9X 7692   3.327   1.874   3.656  0.5197 -0.0565  0.4898
   83SOPE   H9Y 7693   3.497   1.882   3.646 -0.1768  1.1415  0.5424
   83SOPE  C310 7694   3.419   1.754   3.811 -0.2817 -0.8536 -1.0937
   83SOPE  H10X 7695   3.503   1.681   3.805  0.9271  0.2119  1.2765
   83SOPE  H10Y 7696   3.323   1.701   3.828 -0.7526  0.4649  0.7320
   83SOPE  C311 7697   3.455   1.858   3.916  0.4938  0.0480  0.2764
   83SOPE  H11X 7698   3.382   1.938   3.894 -1.9382 -2.2430 -0.4596
   83SOPE  H11Y 7699   3.562   1.877   3.890  0.5142 -1.2187 -0.6690
   83SOPE  C312 7700   3.432   1.813   4.067 -0.1965  0.1913 -0.7879
   83SOPE  H12X 7701   3.494   1.721   4.074  0.7782  0.4284 -4.2219
   83SOPE  H12Y 7702   3.324   1.790   4.074  0.2169 -1.4933  0.7925
   83SOPE  C313 7703   3.476   1.920   4.172 -0.0090  0.2293 -0.4964
   83SOPE  H13X 7704   3.424   2.016   4.151 -0.9764 -0.2597 -0.4183
   83SOPE  H13Y 7705   3.584   1.928   4.148  0.7517  4.2555  3.0974
   83SOPE  C314 7706   3.447   1.889   4.315 -0.0879 -0.4669 -0.3794
   83SOPE  H14X 7707   3.505   1.962   4.376 -0.1203  0.9408 -1.9641
   83SOPE  H14Y 7708   3.472   1.788   4.353  1.0117  0.5738  1.8911
   83SOPE  C315 7709   3.302   1.909   4.366  0.9812 -0.5679 -0.4217
   83SOPE  H15X 7710   3.231   1.838   4.319  0.1256 -0.2114  0.2997
   83SOPE  H15Y 7711   3.272   2.007   4.323 -1.5162  0.3340  2.9385
   83SOPE  C316 7712   3.283   1.908   4.519  0.2281  0.3630  0.6924
   83SOPE  H16X 7713   3.322   2.001   4.565  1.2638  0.1974  0.1744
   83SOPE  H16Y 7714   3.344   1.824   4.560 -2.2358 -1.3181  1.1859
   83SOPE  C317 7715   3.136   1.869   4.552  0.3833  0.3323 -0.5236
   83SOPE  H17X 7716   3.116   1.769   4.508 -0.5993 -0.7514  2.1216
   83SOPE  H17Y 7717   3.072   1.950   4.510 -0.0129  0.5744  0.5120
   83SOPE  C318 7718   3.114   1.870   4.701  0.7614 -0.3631 -1.6145
   83SOPE  H18X 7719   3.169   1.782   4.740  0.7859  0.5049  0.4272
   83SOPE  H18Y 7720   3.008   1.868   4.731  1.1955  1.0959  0.1678
   83SOPE  H18Z 7721   3.164   1.959   4.746 -1.9722  0.5980 -0.3006
   84SOPE     N 7722   2.951   6.085   2.571 -0.5898  0.5093  1.1569
   84SOPE   HN1 7723   3.006   5.999   2.590 -0.9881  0.3676  1.6702
   84SOPE   HN2 7724   3.019   6.163   2.558  1.9772 -1.6460  0.4969
   84SOPE   HN3 7725   2.887   6.096   2.652 -0.1969 -0.8475  1.6917
   84SOPE   C12 7726   2.881   6.061   2.445 -0.2960 -0.1788  0.5863
   84SOPE  H12A 7727   2.961   6.061   2.368  1.8112 -2.0201  2.6208
   84SOPE  H12B 7728   2.811   6.146   2.429 -0.2741 -0.4754 -1.2292
   84SOPE   C11 7729   2.818   5.918   2.449 -0.0560  0.4191  0.4170
   84SOPE  H11A 7730   2.735   5.915   2.375  1.1667 -0.3613 -0.9751
   84SOPE  H11B 7731   2.773   5.903   2.550 -0.6820  0.2002  0.1089
   84SOPE     P 7732   2.883   5.671   2.413 -0.0541  0.5154  0.3372
   84SOPE   O13 7733   2.883   5.627   2.271 -0.1211 -0.5542  0.0540
   84SOPE   O14 7734   2.767   5.636   2.493 -0.0532 -0.5213  0.0221
   84SOPE   O12 7735   2.921   5.825   2.416  0.5341 -0.6075 -0.3340
   84SOPE   O11 7736   3.014   5.607   2.478  0.0024 -0.5601 -0.1818
   84SOPE    C1 7737   2.997   5.549   2.608  0.3674  0.4612  0.2091
   84SOPE    HA 7738   3.084   5.480   2.616 -0.2047 -0.2033  0.7475
   84SOPE    HB 7739   2.907   5.487   2.626  0.4499 -0.2970 -1.6770
   84SOPE    C2 7740   3.013   5.662   2.719  0.1458 -0.5330 -0.3301
   84SOPE    HS 7741   2.962   5.756   2.686  2.3503 -0.0309 -2.6469
   84SOPE   O21 7742   3.150   5.682   2.743 -0.5366  0.3733  0.2569
   84SOPE   C21 7743   3.189   5.809   2.731 -0.1811 -0.0949  0.6110
   84SOPE   O22 7744   3.118   5.902   2.700 -0.2011 -0.2204 -0.7287
   84SOPE   C22 7745   3.339   5.805   2.763 -0.2733  0.2441 -0.0605
   84SOPE   H2R 7746   3.388   5.772   2.669  0.8740  1.0631  0.2227
   84SOPE   H2S 7747   3.356   5.732   2.845 -0.6282  0.8853  0.5969
   84SOPE    C3 7748   2.943   5.631   2.853  0.5131  0.1595 -0.4921
   84SOPE    HX 7749   3.013   5.549   2.882  1.0967  0.7334 -0.2420
   84SOPE    HY 7750   2.842   5.591   2.835 -0.2798  0.8438  1.9590
   84SOPE   O31 7751   2.952   5.741   2.943 -0.0394 -0.3179 -0.2898
   84SOPE   C31 7752   2.853   5.827   2.926  0.0387 -0.1330  0.1803
   84SOPE   O32 7753   2.764   5.814   2.843 -0.4346 -0.8944 -0.1252
   84SOPE   C32 7754   2.894   5.951   3.006 -0.4691 -0.4444 -0.3208
   84SOPE   H2X 7755   2.947   6.014   2.932  1.0066  0.5675  1.5130
   84SOPE   H2Y 7756   2.968   5.933   3.087 -0.5331 -0.4470 -0.2626
   84SOPE   C23 7757   3.375   5.939   2.827 -0.1712 -0.7692  0.5956
   84SOPE   H3R 7758   3.333   6.026   2.771  0.1273  0.2620  1.9289
   84SOPE   H3S 7759   3.485   5.942   2.816 -0.2873  0.4385 -0.5934
   84SOPE   C24 7760   3.330   5.955   2.974  0.8239  0.1820 -0.3680
   84SOPE   H4R 7761   3.359   6.055   3.012 -1.2847  0.3797  0.8746
   84SOPE   H4S 7762   3.221   5.956   2.955  0.8340  2.2907 -0.5082
   84SOPE   C25 7763   3.380   5.849   3.074 -0.8420 -0.0975 -0.9627
   84SOPE   H5R 7764   3.326   5.756   3.045  1.6550 -1.2405 -2.2254
   84SOPE   H5S 7765   3.490   5.835   3.071 -0.6860 -0.0757  1.9305
   84SOPE   C26 7766   3.343   5.890   3.209  0.1846 -0.9871 -0.4535
   84SOPE   H6R 7767   3.386   5.990   3.234 -3.3226  0.8939 -1.3080
   84SOPE   H6S 7768   3.236   5.918   3.202  0.2950 -0.8025 -1.7710
   84SOPE   C27 7769   3.363   5.785   3.316 -0.9467  0.8004  0.3693
   84SOPE   H7R 7770   3.298   5.794   3.406  0.4884 -0.5301  1.5899
   84SOPE   H7S 7771   3.335   5.688   3.271 -0.4618  0.9792 -0.3371
   84SOPE   C28 7772   3.510   5.775   3.369 -0.5276  0.1947 -0.2213
   84SOPE   H8R 7773   3.525   5.680   3.425  0.0835  1.8651  2.7022
   84SOPE   H8S 7774   3.569   5.785   3.276  0.8549 -0.4678  0.5545
   84SOPE   C29 7775   3.553   5.895   3.447 -0.7137  0.0435 -0.4069
   84SOPE   H91 7776   3.484   5.978   3.425 -1.0600 -0.3196 -0.7315
   84SOPE  C210 7777   3.667   5.919   3.522  0.7067 -0.8949  0.1148
   84SOPE  H101 7778   3.675   6.017   3.571  1.2201 -1.1406  0.5387
   84SOPE  C211 7779   3.778   5.829   3.556 -0.4923  0.1057 -0.0971
   84SOPE  H11R 7780   3.872   5.864   3.508  1.8111 -1.0160  3.2398
   84SOPE  H11S 7781   3.757   5.728   3.515 -1.7414  0.6015 -0.7507
   84SOPE  C212 7782   3.820   5.829   3.708 -0.6103  0.3942  0.1553
   84SOPE  H12R 7783   3.836   5.931   3.749 -3.0279  0.8533  0.1030
   84SOPE  H12S 7784   3.920   5.782   3.716 -0.8676 -0.0593  0.7723
   84SOPE  C213 7785   3.716   5.743   3.783 -0.3805  0.0891  0.0806
   84SOPE  H13R 7786   3.706   5.648   3.726  0.6209 -1.1034  1.7603
   84SOPE  H13S 7787   3.611   5.776   3.795 -1.1402 -1.9234 -0.5036
   84SOPE  C214 7788   3.772   5.714   3.929  0.6080  0.0541  0.8298
   84SOPE  H14R 7789   3.777   5.814   3.977  2.3475  0.6506 -0.5174
   84SOPE  H14S 7790   3.877   5.679   3.932  1.2246  1.8321  2.3912
   84SOPE  C215 7791   3.688   5.620   4.023  0.6589  0.4967  0.3303
   84SOPE  H15R 7792   3.756   5.586   4.104  1.7641  2.2493  0.1932
   84SOPE  H15S 7793   3.653   5.541   3.953 -0.2081  1.2825 -0.1505
   84SOPE  C216 7794   3.562   5.689   4.091  0.4935 -0.3600  0.1135
   84SOPE  H16R 7795   3.485   5.610   4.103  0.8610 -0.9070 -1.0357
   84SOPE  H16S 7796   3.521   5.770   4.027 -0.5215 -1.5736 -0.8073
   84SOPE  C217 7797   3.605   5.747   4.232 -0.1641 -0.4973  0.0815
   84SOPE  H17R 7798   3.667   5.839   4.224  0.0507 -0.6288  0.2144
   84SOPE  H17S 7799   3.666   5.660   4.264 -0.5872 -1.6768 -2.1216
   84SOPE  C218 7800   3.479   5.771   4.317  0.0988 -0.4931  0.8727
   84SOPE  H18R 7801   3.439   5.680   4.366 -0.0098 -0.5942  0.5989
   84SOPE  H18S 7802   3.400   5.818   4.254  0.3720  0.5085  1.2543
   84SOPE  H18T 7803   3.499   5.841   4.401  1.0961  4.6349 -3.1126
   84SOPE   C33 7804   2.780   6.032   3.072 -0.6168 -0.1064  0.5545
   84SOPE   H3X 7805   2.722   6.075   2.988  0.5086  1.3185  0.4676
   84SOPE   H3Y 7806   2.827   6.119   3.122 -0.0118 -0.3254  0.3857
   84SOPE   C34 7807   2.687   5.962   3.170 -1.2253  0.2028 -0.6069
   84SOPE   H4X 7808   2.716   5.858   3.145 -1.2576  0.0093  0.1402
   84SOPE   H4Y 7809   2.582   5.969   3.136 -1.3163 -0.6408 -0.5198
   84SOPE   C35 7810   2.726   5.985   3.321 -0.4790  0.2111 -0.5979
   84SOPE   H5X 7811   2.702   6.089   3.350 -0.5213 -0.0594  0.3993
   84SOPE   H5Y 7812   2.831   5.956   3.347 -0.9257 -1.9838 -1.0130
   84SOPE   C36 7813   2.642   5.890   3.401  0.8620  0.2928 -0.6998
   84SOPE   H6X 7814   2.659   5.786   3.368 -0.4680 -1.2910  3.0380
   84SOPE   H6Y 7815   2.536   5.909   3.374  0.6725  0.8265  0.3782
   84SOPE   C37 7816   2.662   5.913   3.552 -0.3440 -0.1080 -0.1043
   84SOPE   H7X 7817   2.771   5.931   3.562 -0.2456  1.1214 -2.6932
   84SOPE   H7Y 7818   2.653   5.811   3.596  0.5517 -0.5426 -0.8969
   84SOPE   C38 7819   2.579   6.020   3.618 -0.5819 -0.8579  0.3591
   84SOPE   H8X 7820   2.473   5.990   3.623 -0.6441 -0.5758  0.8180
   84SOPE   H8Y 7821   2.598   6.114   3.562  2.2502 -2.8011 -2.3441
   84SOPE   C39 7822   2.615   6.035   3.767 -0.7784  0.2022 -0.1552
   84SOPE   H9X 7823   2.723   6.059   3.774 -0.7678  0.3920 -0.8545
   84SOPE   H9Y 7824   2.610   5.941   3.826  1.4416  0.5006  0.5951
   84SOPE  C310 7825   2.539   6.149   3.835 -0.0621 -0.6469  0.7005
   84SOPE  H10X 7826   2.432   6.137   3.806  0.3645 -0.3313 -1.1293
   84SOPE  H10Y 7827   2.576   6.245   3.792 -0.3289 -1.2447 -0.9303
   84SOPE  C311 7828   2.560   6.126   3.985  0.0561  0.0967  0.4735
   84SOPE  H11X 7829   2.667   6.110   4.008  0.1512 -1.6405 -0.9738
   84SOPE  H11Y 7830   2.507   6.034   4.016 -0.3753  0.4846  0.9104
   84SOPE  C312 7831   2.518   6.243   4.070 -0.2214 -0.6804 -0.3736
   84SOPE  H12X 7832   2.427   6.292   4.031 -0.9131  0.7458  2.6830
   84SOPE  H12Y 7833   2.597   6.322   4.069 -1.3233  0.5461  1.6165
   84SOPE  C313 7834   2.475   6.218   4.214 -0.4066  0.6219  0.0290
   84SOPE  H13X 7835   2.419   6.123   4.222  2.5168 -1.1010  1.5758
   84SOPE  H13Y 7836   2.401   6.290   4.254  0.6163  2.6912 -1.5670
   84SOPE  C314 7837   2.601   6.220   4.319  0.0960 -0.0962  0.0047
   84SOPE  H14X 7838   2.647   6.320   4.321 -0.6742  0.2648  1.7513
   84SOPE  H14Y 7839   2.678   6.144   4.294  0.6581  0.4425  0.0769
   84SOPE  C315 7840   2.538   6.208   4.455  0.4847  0.1950 -0.0616
   84SOPE  H15X 7841   2.489   6.109   4.460 -0.5366  0.7159  0.9099
   84SOPE  H15Y 7842   2.449   6.275   4.459  0.5851  0.3048  0.4717
   84SOPE  C316 7843   2.638   6.232   4.576 -0.1861  0.6283 -0.0269
   84SOPE  H16X 7844   2.675   6.337   4.570 -0.2854  0.8445  2.2838
   84SOPE  H16Y 7845   2.726   6.165   4.563 -0.5399  0.1074  0.2362
   84SOPE  C317 7846   2.568   6.197   4.708  0.3753  0.2180  0.4076
   84SOPE  H17X 7847   2.640   6.172   4.789 -1.1870  1.9276  2.4341
   84SOPE  H17Y 7848   2.517   6.099   4.694  1.1447 -0.0047 -0.9312
   84SOPE  C318 7849   2.475   6.297   4.768 -0.5562 -0.6910 -0.2155
   84SOPE  H18X 7850   2.417   6.248   4.849 -0.1990  0.0964  0.5404
   84SOPE  H18Y 7851   2.395   6.316   4.694 -1.1673  2.1259  1.0051
   84SOPE  H18Z 7852   2.534   6.388   4.793 -2.7563  1.2476 -1.6449
   85SOPE     N 7853   4.734   5.623   2.145 -0.5449  0.1393 -0.9437
   85SOPE   HN1 7854   4.759   5.530   2.184  3.9800  1.5349  0.0662
   85SOPE   HN2 7855   4.661   5.605   2.072 -0.5802 -0.1521 -0.8373
   85SOPE   HN3 7856   4.824   5.656   2.105 -0.3149  1.6210  0.6697
   85SOPE   C12 7857   4.687   5.725   2.248  0.2652 -0.1574 -0.4095
   85SOPE  H12A 7858   4.633   5.664   2.324 -0.7758  1.6797  0.3714
   85SOPE  H12B 7859   4.609   5.786   2.198  0.3424 -0.0957 -0.4555
   85SOPE   C11 7860   4.796   5.805   2.307  0.3041 -0.0843  0.5752
   85SOPE  H11A 7861   4.825   5.747   2.398  0.2241 -2.1329 -0.6455
   85SOPE  H11B 7862   4.772   5.910   2.333  0.2942 -0.8370  4.1958
   85SOPE     P 7863   5.018   5.917   2.236 -0.4177  0.2906  0.0846
   85SOPE   O13 7864   4.954   6.050   2.249 -0.2150  0.0338  0.5769
   85SOPE   O14 7865   5.121   5.895   2.130  0.8115  0.6692  0.2575
   85SOPE   O12 7866   4.905   5.811   2.213 -0.1568  0.1425  0.3763
   85SOPE   O11 7867   5.080   5.856   2.374 -0.2710 -0.0852  0.8715
   85SOPE    C1 7868   5.180   5.933   2.443 -0.7674 -0.2690 -1.1624
   85SOPE    HA 7869   5.152   6.040   2.445  0.7924  0.1674  1.2714
   85SOPE    HB 7870   5.278   5.942   2.391 -0.8048  0.4544 -1.1182
   85SOPE    C2 7871   5.207   5.900   2.593  0.4727  0.1962  0.0592
   85SOPE    HS 7872   5.282   5.972   2.630 -0.2165  0.8891  0.1274
   85SOPE   O21 7873   5.257   5.760   2.603  0.0581  0.2934 -0.0715
   85SOPE   C21 7874   5.380   5.738   2.550 -0.1344 -0.0035 -0.1291
   85SOPE   O22 7875   5.450   5.823   2.498  0.2261 -0.0669  0.3956
   85SOPE   C22 7876   5.423   5.590   2.571 -0.2731 -0.3672  0.1324
   85SOPE   H2R 7877   5.426   5.546   2.469  0.0738 -0.6172  0.2489
   85SOPE   H2S 7878   5.346   5.538   2.631 -2.2835  0.2795 -1.7234
   85SOPE    C3 7879   5.076   5.910   2.680 -0.5424 -0.4492  0.3058
   85SOPE    HX 7880   4.993   5.863   2.624 -1.3406  1.0277  0.1947
   85SOPE    HY 7881   5.038   6.015   2.677 -2.3904 -1.1059 -1.6221
   85SOPE   O31 7882   5.096   5.853   2.816 -0.3295  0.0340  0.0105
   85SOPE   C31 7883   5.163   5.937   2.889 -0.7552  0.4430  0.2071
   85SOPE   O32 7884   5.200   6.047   2.851  0.4756 -0.0592  0.1001
   85SOPE   C32 7885   5.190   5.889   3.028 -0.1051  0.4120 -0.2950
   85SOPE   H2X 7886   5.298   5.872   3.051  0.3611  2.8154 -0.4594
   85SOPE   H2Y 7887   5.138   5.793   3.047 -1.5541  0.9137 -1.5443
   85SOPE   C23 7888   5.567   5.581   2.620 -0.2375  0.1151 -0.2934
   85SOPE   H3R 7889   5.633   5.653   2.566  1.5880 -1.9302 -0.9575
   85SOPE   H3S 7890   5.600   5.477   2.599 -0.9705 -0.2490  0.3326
   85SOPE   C24 7891   5.580   5.615   2.769 -0.2588  0.2359 -0.2220
   85SOPE   H4R 7892   5.505   5.550   2.819 -0.7590  0.5859 -0.5129
   85SOPE   H4S 7893   5.676   5.585   2.816 -0.3370  1.2318  0.6017
   85SOPE   C25 7894   5.539   5.758   2.813 -0.0118 -0.3219  0.2525
   85SOPE   H5R 7895   5.588   5.825   2.739  1.2475  0.2442  1.5525
   85SOPE   H5S 7896   5.429   5.775   2.817 -0.0652  0.0741 -1.7494
   85SOPE   C26 7897   5.593   5.799   2.946 -0.4633  0.2568 -0.1908
   85SOPE   H6R 7898   5.703   5.808   2.942 -0.4181 -0.4676 -0.7438
   85SOPE   H6S 7899   5.548   5.899   2.966  0.3784  0.3176  1.5786
   85SOPE   C27 7900   5.555   5.713   3.063 -0.2655  0.6311 -0.4007
   85SOPE   H7R 7901   5.444   5.707   3.058 -0.1845  0.0623 -2.0974
   85SOPE   H7S 7902   5.596   5.610   3.058 -1.4822  0.1012  0.2089
   85SOPE   C28 7903   5.590   5.774   3.200 -0.7488  0.9638  0.2125
   85SOPE   H8R 7904   5.550   5.878   3.206  1.0636  1.6662  0.5324
   85SOPE   H8S 7905   5.534   5.711   3.273 -1.9635 -0.2298 -1.6357
   85SOPE   C29 7906   5.738   5.771   3.218 -0.0485 -0.3135 -0.2326
   85SOPE   H91 7907   5.791   5.829   3.141 -0.4426 -1.9598 -1.7812
   85SOPE  C210 7908   5.812   5.708   3.319  0.0064  0.2245  0.4146
   85SOPE  H101 7909   5.920   5.728   3.321 -0.0019  0.3234 -0.0238
   85SOPE  C211 7910   5.770   5.633   3.446 -0.1671  0.1335  0.0257
   85SOPE  H11R 7911   5.813   5.532   3.432 -1.5906 -0.4631 -0.2028
   85SOPE  H11S 7912   5.663   5.614   3.467  0.0857  0.7757  2.1249
   85SOPE  C212 7913   5.826   5.693   3.580  0.6861 -0.0114 -0.1356
   85SOPE  H12R 7914   5.787   5.797   3.576  0.6791 -0.0487 -1.2983
   85SOPE  H12S 7915   5.937   5.690   3.578  0.7297  1.0837 -0.2187
   85SOPE  C213 7916   5.762   5.617   3.692  0.2748  0.1249  0.1002
   85SOPE  H13R 7917   5.791   5.510   3.694 -3.3968 -1.0107  0.8476
   85SOPE  H13S 7918   5.652   5.621   3.677  0.3608 -1.4036 -1.2002
   85SOPE  C214 7919   5.786   5.671   3.831  0.7446  0.3939 -0.8958
   85SOPE  H14R 7920   5.761   5.779   3.824  2.1689  0.8528  0.4127
   85SOPE  H14S 7921   5.893   5.672   3.859  0.5513  1.2398 -0.1196
   85SOPE  C215 7922   5.702   5.608   3.942  0.0464 -0.4889 -0.4202
   85SOPE  H15R 7923   5.601   5.593   3.897  0.2860 -0.6206 -0.9246
   85SOPE  H15S 7924   5.705   5.666   4.036 -1.4578 -2.5961  1.0361
   85SOPE  C216 7925   5.757   5.467   3.974 -0.4676 -0.6641  0.1069
   85SOPE  H16R 7926   5.769   5.409   3.879  1.9756 -1.1069  0.6040
   85SOPE  H16S 7927   5.686   5.425   4.047 -0.4381  1.2948  1.3154
   85SOPE  C217 7928   5.891   5.479   4.054 -0.3306  0.1183  0.5361
   85SOPE  H17R 7929   5.867   5.544   4.141  1.2378  0.1128  0.9981
   85SOPE  H17S 7930   5.958   5.535   3.986 -1.6024 -0.1228 -0.9813
   85SOPE  C218 7931   5.952   5.351   4.103 -0.1748  0.2262  0.2223
   85SOPE  H18R 7932   5.910   5.311   4.198  0.5047 -0.4033  0.2669
   85SOPE  H18S 7933   6.061   5.372   4.106 -0.3377  1.1394  2.9525
   85SOPE  H18T 7934   5.936   5.271   4.027  2.3464  0.4040 -0.6125
   85SOPE   C33 7935   5.154   5.991   3.141  0.6512 -0.6844 -0.0786
   85SOPE   H3X 7936   5.045   6.014   3.140  0.9494  1.1841  1.8578
   85SOPE   H3Y 7937   5.206   6.086   3.116  0.5444 -0.8846 -1.0784
   85SOPE   C34 7938   5.186   5.956   3.287  0.2684 -1.0106  1.1607
   85SOPE   H4X 7939   5.290   5.920   3.296  0.2236 -1.4260  0.1407
   85SOPE   H4Y 7940   5.113   5.874   3.307 -1.2983  0.2287  0.7618
   85SOPE   C35 7941   5.167   6.073   3.381  0.3377  0.1372  0.3411
   85SOPE   H5X 7942   5.093   6.141   3.333 -0.9472 -1.1849  0.3641
   85SOPE   H5Y 7943   5.260   6.134   3.375 -0.4362  1.3049 -0.3418
   85SOPE   C36 7944   5.115   6.043   3.515  0.0581 -0.3422 -0.6878
   85SOPE   H6X 7945   5.185   5.994   3.585 -1.4480  0.1216  1.2176
   85SOPE   H6Y 7946   5.029   5.973   3.503 -1.4871  1.2174  0.7828
   85SOPE   C37 7947   5.051   6.174   3.577 -1.0352  0.6400  0.0095
   85SOPE   H7X 7948   4.965   6.188   3.508 -0.7114 -0.0743 -0.5587
   85SOPE   H7Y 7949   5.121   6.260   3.567 -0.4826  0.2651  0.6623
   85SOPE   C38 7950   4.988   6.157   3.711 -0.1917 -0.0472 -0.0910
   85SOPE   H8X 7951   4.932   6.061   3.706 -1.7491  0.8545 -0.5656
   85SOPE   H8Y 7952   4.905   6.230   3.723 -1.7233 -1.5328 -1.1603
   85SOPE   C39 7953   5.083   6.127   3.830 -0.2356  0.8932  0.4861
   85SOPE   H9X 7954   5.130   6.029   3.807 -0.6880  0.8020 -0.0424
   85SOPE   H9Y 7955   5.029   6.102   3.924 -0.1815  0.5481  0.4283
   85SOPE  C310 7956   5.187   6.229   3.870  0.7518 -0.2063 -0.1269
   85SOPE  H10X 7957   5.140   6.328   3.889  2.3776  0.9625 -1.7130
   85SOPE  H10Y 7958   5.261   6.254   3.790 -0.4199 -0.2891 -1.2647
   85SOPE  C311 7959   5.254   6.197   4.006 -0.3583  0.1964 -0.3503
   85SOPE  H11X 7960   5.346   6.257   4.017 -0.7438  0.7112  0.1045
   85SOPE  H11Y 7961   5.278   6.090   4.023 -0.5972  0.4144  1.5396
   85SOPE  C312 7962   5.149   6.226   4.122  0.5180 -0.4184  0.1811
   85SOPE  H12X 7963   5.073   6.145   4.119  0.9522 -0.9145  1.7503
   85SOPE  H12Y 7964   5.090   6.319   4.107 -0.0595 -0.7827  0.2133
   85SOPE  C313 7965   5.218   6.232   4.258 -0.4653  0.4535 -0.7259
   85SOPE  H13X 7966   5.288   6.319   4.260  0.4581 -0.2761  0.2697
   85SOPE  H13Y 7967   5.271   6.136   4.278  0.1923  1.0629  0.6099
   85SOPE  C314 7968   5.108   6.256   4.361  0.4393 -0.1449 -0.0750
   85SOPE  H14X 7969   5.027   6.179   4.354 -0.7767  1.1796 -1.0973
   85SOPE  H14Y 7970   5.063   6.357   4.348  0.0569 -0.4675 -1.5172
   85SOPE  C315 7971   5.162   6.248   4.506 -0.0404  0.2647 -0.2802
   85SOPE  H15X 7972   5.214   6.341   4.537 -0.6333  0.8550 -1.0184
   85SOPE  H15Y 7973   5.237   6.168   4.496 -0.6895 -0.3706 -0.1641
   85SOPE  C316 7974   5.053   6.227   4.613  0.5377  0.0056  0.5133
   85SOPE  H16X 7975   5.018   6.122   4.597  1.0333 -0.1404  0.3599
   85SOPE  H16Y 7976   4.965   6.291   4.594 -0.0075 -0.4854  1.3458
   85SOPE  C317 7977   5.105   6.243   4.755 -0.3297  0.1589 -0.0515
   85SOPE  H17X 7978   5.174   6.330   4.756  0.0766 -0.1489 -0.5734
   85SOPE  H17Y 7979   5.158   6.148   4.779 -0.0253  0.9087  2.5724
   85SOPE  C318 7980   5.001   6.255   4.864  0.7622  0.7711 -0.2976
   85SOPE  H18X 7981   4.955   6.353   4.844 -0.3809  0.8761  2.4350
   85SOPE  H18Y 7982   5.050   6.253   4.964  0.5385 -1.8285 -0.1654
   85SOPE  H18Z 7983   4.918   6.182   4.851  2.3782 -1.4369  1.0837
   86SOPE     N 7984   0.020   4.062   2.048  0.1055  0.0641  0.0913
   86SOPE   HN1 7985  -0.074   4.103   2.065 -0.3782 -1.1909  0.6392
   86SOPE   HN2 7986   0.083   4.099   2.122 -0.9657  2.8220 -0.2747
   86SOPE   HN3 7987   0.057   4.099   1.959  1.5922  0.8288  0.9853
   86SOPE   C12 7988   0.024   3.909   2.042  0.2667 -0.0521  0.7596
   86SOPE  H12A 7989   0.126   3.877   2.072 -0.0186 -0.3616  1.4248
   86SOPE  H12B 7990   0.016   3.880   1.934  1.6859 -2.5666  1.2472
   86SOPE   C11 7991  -0.079   3.843   2.130 -0.5822  0.1862 -0.5611
   86SOPE  H11A 7992  -0.091   3.910   2.217  0.7592  0.3072 -0.4377
   86SOPE  H11B 7993  -0.041   3.748   2.171  0.9317  1.0151  0.0464
   86SOPE     P 7994  -0.331   3.813   2.146  0.0551 -0.2520 -0.1159
   86SOPE   O13 7995  -0.443   3.752   2.068 -0.2552  0.1529  0.1832
   86SOPE   O14 7996  -0.354   3.955   2.191  0.4643  0.0416 -0.3793
   86SOPE   O12 7997  -0.201   3.821   2.059  0.6245 -0.0663  0.4317
   86SOPE   O11 7998  -0.289   3.727   2.270 -0.1802 -0.0026  0.0277
   86SOPE    C1 7999  -0.387   3.706   2.383 -0.1510  0.4584 -0.0918
   86SOPE    HA 8000  -0.374   3.602   2.419 -1.0184  0.4502  0.2083
   86SOPE    HB 8001  -0.490   3.719   2.343  1.2806  0.1158 -4.3892
   86SOPE    C2 8002  -0.376   3.800   2.500 -0.0553  0.0419 -0.6675
   86SOPE    HS 8003  -0.403   3.900   2.458  0.5934  1.0341  1.1502
   86SOPE   O21 8004  -0.241   3.811   2.536 -0.0091  0.0114  0.0708
   86SOPE   C21 8005  -0.200   3.930   2.580  0.8343 -0.6142 -0.0572
   86SOPE   O22 8006  -0.270   4.030   2.582  0.2040 -0.2072  0.0889
   86SOPE   C22 8007  -0.060   3.920   2.638 -0.2232 -0.0718  0.0314
   86SOPE   H2R 8008   0.003   3.857   2.572  0.2699 -1.6699  1.9489
   86SOPE   H2S 8009  -0.078   3.862   2.731  0.3613  0.2598  0.3578
   86SOPE    C3 8010  -0.463   3.761   2.626  0.3870 -0.1950 -0.0705
   86SOPE    HX 8011  -0.434   3.658   2.658 -0.2209 -0.4650 -0.3817
   86SOPE    HY 8012  -0.568   3.745   2.594  1.1649 -1.5634 -2.1362
   86SOPE   O31 8013  -0.461   3.857   2.735 -1.0562  0.0444  0.1116
   86SOPE   C31 8014  -0.519   3.965   2.706 -0.8667 -0.1702  0.2567
   86SOPE   O32 8015  -0.582   3.986   2.607 -0.0944 -0.2337  0.8942
   86SOPE   C32 8016  -0.513   4.048   2.830  0.4455 -0.3228 -0.4269
   86SOPE   H2X 8017  -0.445   3.994   2.899 -0.7297 -1.3434 -0.0280
   86SOPE   H2Y 8018  -0.616   4.041   2.871 -0.6516 -1.3174 -3.1831
   86SOPE   C23 8019   0.001   4.059   2.669 -0.7086 -0.0605 -0.1975
   86SOPE   H3R 8020  -0.043   4.129   2.594  2.3995  2.7159  0.3409
   86SOPE   H3S 8021   0.111   4.059   2.656 -0.2543  2.0682  2.7551
   86SOPE   C24 8022  -0.021   4.098   2.813  0.1174  0.9255  0.2634
   86SOPE   H4R 8023  -0.124   4.084   2.852  0.5331  0.1517  1.1212
   86SOPE   H4S 8024   0.034   4.031   2.882  0.5084 -1.0467 -1.8286
   86SOPE   C25 8025   0.016   4.246   2.821  0.5928  0.7947 -0.2145
   86SOPE   H5R 8026   0.127   4.251   2.817  0.5883  0.9562 -0.1246
   86SOPE   H5S 8027  -0.031   4.295   2.732  0.5321 -1.6423 -1.6202
   86SOPE   C26 8028  -0.035   4.308   2.952 -0.1078  0.0224 -0.0890
   86SOPE   H6R 8029  -0.146   4.316   2.947 -0.1185 -0.5616 -0.9077
   86SOPE   H6S 8030  -0.002   4.247   3.039  1.3187  0.1988 -0.4754
   86SOPE   C27 8031   0.031   4.447   2.974  0.0660  1.0777 -0.2574
   86SOPE   H7R 8032   0.139   4.431   2.950 -0.3937 -3.9959 -0.0662
   86SOPE   H7S 8033  -0.016   4.514   2.900  0.1409  1.5491  0.1191
   86SOPE   C28 8034   0.012   4.498   3.115  0.1727  0.1725 -0.2216
   86SOPE   H8R 8035  -0.083   4.555   3.123  1.0076  1.5769  0.0852
   86SOPE   H8S 8036  -0.016   4.411   3.178 -1.8914  0.0887 -1.1760
   86SOPE   C29 8037   0.131   4.575   3.175  0.9340 -1.0508  0.9368
   86SOPE   H91 8038   0.141   4.680   3.143 -1.1579 -0.7786  1.0939
   86SOPE  C210 8039   0.208   4.526   3.272 -0.2897 -0.3287 -0.2469
   86SOPE  H101 8040   0.290   4.594   3.301 -0.4801  0.7038 -1.9500
   86SOPE  C211 8041   0.197   4.387   3.325 -0.1923  0.0496 -0.1768
   86SOPE  H11R 8042   0.302   4.360   3.351  0.7015 -0.0789 -3.5154
   86SOPE  H11S 8043   0.165   4.312   3.250 -0.5126  0.8297 -0.8335
   86SOPE  C212 8044   0.121   4.399   3.458  0.1755  0.6379 -0.4021
   86SOPE  H12R 8045   0.116   4.299   3.506 -0.9249  0.8507 -0.0490
   86SOPE  H12S 8046   0.017   4.434   3.440 -0.0253  1.4996  1.9927
   86SOPE  C213 8047   0.173   4.492   3.564  0.0183 -0.2784  0.3867
   86SOPE  H13R 8048   0.154   4.599   3.540  0.2340 -0.9089 -3.0889
   86SOPE  H13S 8049   0.282   4.497   3.541 -0.3409 -0.4251 -1.5403
   86SOPE  C214 8050   0.138   4.446   3.707 -0.0024  0.3469 -0.5654
   86SOPE  H14R 8051   0.159   4.337   3.715 -1.9770 -0.2692 -2.7510
   86SOPE  H14S 8052   0.029   4.460   3.721  0.1132  0.7370 -0.0109
   86SOPE  C215 8053   0.221   4.516   3.817 -0.6029  0.4771  0.3667
   86SOPE  H15R 8054   0.194   4.623   3.825  0.5767  1.1756 -3.1892
   86SOPE  H15S 8055   0.330   4.516   3.794 -0.0088  0.3449  2.8754
   86SOPE  C216 8056   0.207   4.467   3.967 -0.0271  0.0907  0.7707
   86SOPE  H16R 8057   0.098   4.460   3.984  0.3376 -1.9561  2.8170
   86SOPE  H16S 8058   0.254   4.544   4.033  0.7103 -0.9324  1.4813
   86SOPE  C217 8059   0.256   4.324   3.984 -0.0410  0.1727  0.8177
   86SOPE  H17R 8060   0.366   4.326   3.968 -0.2543  0.7403 -0.7790
   86SOPE  H17S 8061   0.201   4.260   3.911  1.1121 -0.1586  0.2107
   86SOPE  C218 8062   0.242   4.270   4.125 -0.1478 -0.3777  0.4260
   86SOPE  H18R 8063   0.260   4.161   4.137  1.9641 -0.0714  0.3198
   86SOPE  H18S 8064   0.140   4.286   4.167 -0.8233  1.1440 -1.6862
   86SOPE  H18T 8065   0.309   4.318   4.199  3.1344 -1.7135 -1.4501
   86SOPE   C33 8066  -0.468   4.193   2.813 -0.4010 -0.1925  0.8386
   86SOPE   H3X 8067  -0.535   4.245   2.741  1.3957 -0.6144 -1.2353
   86SOPE   H3Y 8068  -0.359   4.199   2.790  0.2080 -2.8796  2.5405
   86SOPE   C34 8069  -0.491   4.262   2.948  0.0189 -0.5076 -0.0004
   86SOPE   H4X 8070  -0.599   4.248   2.969  0.1120  0.7865  1.5063
   86SOPE   H4Y 8071  -0.470   4.371   2.942 -2.2187  0.0117  0.7287
   86SOPE   C35 8072  -0.412   4.201   3.065 -0.0680 -0.3161 -0.3787
   86SOPE   H5X 8073  -0.317   4.174   3.012 -1.1518  1.9022 -3.8256
   86SOPE   H5Y 8074  -0.453   4.102   3.094  1.1472 -0.5009  0.7949
   86SOPE   C36 8075  -0.385   4.296   3.180  0.0050 -0.0620  0.4671
   86SOPE   H6X 8076  -0.353   4.390   3.131  2.5001 -1.0301  0.0262
   86SOPE   H6Y 8077  -0.294   4.257   3.230  0.3942  0.8410  0.4827
   86SOPE   C37 8078  -0.501   4.317   3.289 -0.4106  0.2759  0.5052
   86SOPE   H7X 8079  -0.536   4.218   3.327 -1.4053  0.2679 -0.3916
   86SOPE   H7Y 8080  -0.577   4.367   3.225 -0.0259  0.3652  0.1183
   86SOPE   C38 8081  -0.468   4.412   3.401 -0.7626  0.9364  0.4325
   86SOPE   H8X 8082  -0.445   4.516   3.369  2.5718  0.4416  0.8611
   86SOPE   H8Y 8083  -0.372   4.376   3.443 -0.7214 -1.3414 -1.4147
   86SOPE   C39 8084  -0.572   4.398   3.516  0.0253  0.3409  0.3691
   86SOPE   H9X 8085  -0.572   4.288   3.533  0.1905  0.6372  2.6447
   86SOPE   H9Y 8086  -0.679   4.427   3.503 -0.9047 -2.0749  1.9354
   86SOPE  C310 8087  -0.528   4.477   3.641 -0.0323 -0.0587 -0.2898
   86SOPE  H10X 8088  -0.528   4.585   3.613 -0.1109  0.3919  1.3463
   86SOPE  H10Y 8089  -0.430   4.436   3.671 -0.7551  0.0448  2.4839
   86SOPE  C311 8090  -0.626   4.459   3.763  0.1394 -0.4739 -0.6684
   86SOPE  H11X 8091  -0.647   4.351   3.777 -0.1059 -0.0981  2.7975
   86SOPE  H11Y 8092  -0.718   4.511   3.729  1.0294  1.7279  0.0927
   86SOPE  C312 8093  -0.569   4.515   3.895 -0.4792  0.3461 -0.3011
   86SOPE  H12X 8094  -0.506   4.600   3.863 -0.4767  0.0804 -1.0278
   86SOPE  H12Y 8095  -0.506   4.439   3.945 -2.4797 -2.5032 -1.8015
   86SOPE  C313 8096  -0.666   4.568   3.998  0.5534  0.4927  0.1757
   86SOPE  H13X 8097  -0.748   4.637   3.969  0.5041  0.5551  0.4637
   86SOPE  H13Y 8098  -0.608   4.614   4.080 -0.3239  1.1840  0.4173
   86SOPE  C314 8099  -0.744   4.452   4.078  0.1676  0.2667  0.1629
   86SOPE  H14X 8100  -0.675   4.396   4.144  1.4920  2.4634  0.7367
   86SOPE  H14Y 8101  -0.789   4.383   4.003  0.2596 -0.3533  0.6746
   86SOPE  C315 8102  -0.858   4.501   4.168  0.2519 -0.5967  0.1808
   86SOPE  H15X 8103  -0.919   4.416   4.205  0.3992 -0.6415  0.3223
   86SOPE  H15Y 8104  -0.929   4.565   4.111  0.7941 -2.0269 -2.2183
   86SOPE  C316 8105  -0.813   4.581   4.291  0.4627 -0.1770 -0.3824
   86SOPE  H16X 8106  -0.746   4.664   4.258  0.9939 -0.6251 -0.4474
   86SOPE  H16Y 8107  -0.759   4.506   4.353 -0.9280 -0.2726  0.7724
   86SOPE  C317 8108  -0.935   4.641   4.367 -0.4126 -0.4148 -0.1053
   86SOPE  H17X 8109  -1.021   4.578   4.339 -0.2264 -1.7452  2.0942
   86SOPE  H17Y 8110  -0.947   4.746   4.330  0.5672 -0.9988 -2.2655
   86SOPE  C318 8111  -0.898   4.643   4.513  0.3258 -0.5479 -0.2209
   86SOPE  H18X 8112  -0.822   4.719   4.539 -0.8529 -0.6682  4.6641
   86SOPE  H18Y 8113  -0.851   4.549   4.550  1.8112 -0.2894 -1.3673
   86SOPE  H18Z 8114  -0.982   4.678   4.577 -0.0456  0.2378 -1.1136
   87SOPE     N 8115   1.588   2.647   2.345  0.1713  0.1870 -0.3611
   87SOPE   HN1 8116   1.624   2.559   2.303  0.4715 -0.3083  0.8708
   87SOPE   HN2 8117   1.618   2.648   2.445  1.0503  2.4963 -0.5840
   87SOPE   HN3 8118   1.485   2.652   2.347  0.2032  3.6030  1.7951
   87SOPE   C12 8119   1.657   2.761   2.277  0.7173 -0.6289  0.4389
   87SOPE  H12A 8120   1.674   2.836   2.358  0.4925 -1.1112  0.9436
   87SOPE  H12B 8121   1.590   2.797   2.196  2.5950 -2.0096 -1.8410
   87SOPE   C11 8122   1.789   2.717   2.213  0.5645  0.1488 -0.8363
   87SOPE  H11A 8123   1.847   2.799   2.165  3.2329 -1.4550 -0.5586
   87SOPE  H11B 8124   1.770   2.651   2.125 -1.4571  0.2519 -0.5327
   87SOPE     P 8125   2.006   2.596   2.248 -0.3321  0.4680  0.0572
   87SOPE   O13 8126   2.008   2.581   2.102 -0.6679  0.8266  0.7296
   87SOPE   O14 8127   2.066   2.481   2.325  0.1462  0.1875  0.2100
   87SOPE   O12 8128   1.871   2.651   2.306 -0.1278  0.3102 -0.5995
   87SOPE   O11 8129   2.106   2.719   2.273  0.1880  0.7987  0.1091
   87SOPE    C1 8130   2.116   2.771   2.405 -0.0549 -0.1020  0.5418
   87SOPE    HA 8131   2.158   2.694   2.472 -1.2428 -1.1146  0.1693
   87SOPE    HB 8132   2.012   2.781   2.443 -0.8617  0.8090 -1.6950
   87SOPE    C2 8133   2.189   2.901   2.415  0.5452  0.4890 -0.2499
   87SOPE    HS 8134   2.285   2.893   2.361  1.4597  1.0910  1.2092
   87SOPE   O21 8135   2.209   2.934   2.555 -0.7731 -0.5551  0.3966
   87SOPE   C21 8136   2.285   2.848   2.625 -0.3684  0.3008  0.1178
   87SOPE   O22 8137   2.368   2.774   2.573  0.3904  0.2721 -1.4183
   87SOPE   C22 8138   2.244   2.861   2.775 -0.3647 -0.3568 -0.0951
   87SOPE   H2R 8139   2.141   2.819   2.788 -0.8789  1.2370  1.2340
   87SOPE   H2S 8140   2.244   2.967   2.806 -0.5149  0.2287 -1.9660
   87SOPE    C3 8141   2.109   3.006   2.347 -0.1655 -0.3861  0.1135
   87SOPE    HX 8142   2.103   2.995   2.237 -1.0825  1.0722 -0.0126
   87SOPE    HY 8143   2.180   3.090   2.362  0.1712 -0.7330  0.4802
   87SOPE   O31 8144   1.982   3.023   2.420  0.2160  0.1251  0.0879
   87SOPE   C31 8145   1.896   3.098   2.351  0.2630  0.3456 -0.5153
   87SOPE   O32 8146   1.915   3.135   2.238  0.6631 -0.5345 -0.1453
   87SOPE   C32 8147   1.774   3.136   2.429 -0.2804  0.4542 -0.7849
   87SOPE   H2X 8148   1.809   3.205   2.508 -0.5961  0.6008 -0.7691
   87SOPE   H2Y 8149   1.745   3.045   2.485  0.6257  1.3622  1.2408
   87SOPE   C23 8150   2.344   2.791   2.869 -0.4227  0.0283  0.4163
   87SOPE   H3R 8151   2.438   2.851   2.874 -0.5903  0.2223  1.7642
   87SOPE   H3S 8152   2.377   2.691   2.835 -2.2494  0.0614 -1.6844
   87SOPE   C24 8153   2.288   2.774   3.010 -0.2418 -0.1249  0.0446
   87SOPE   H4R 8154   2.196   2.713   3.018 -1.4605  1.6036 -0.4451
   87SOPE   H4S 8155   2.361   2.716   3.071  0.4432 -1.6290 -2.0865
   87SOPE   C25 8156   2.267   2.900   3.100 -0.3594  0.4878 -0.4200
   87SOPE   H5R 8157   2.357   2.965   3.100 -1.3121  1.8497 -0.9590
   87SOPE   H5S 8158   2.174   2.955   3.074 -0.0990  0.3138 -1.8021
   87SOPE   C26 8159   2.242   2.861   3.251 -0.1110  0.6330 -0.3629
   87SOPE   H6R 8160   2.157   2.791   3.236 -0.8052  1.6941 -1.5881
   87SOPE   H6S 8161   2.324   2.799   3.294 -0.1027  0.5463 -0.5004
   87SOPE   C27 8162   2.190   2.978   3.334  0.3871  0.1972  0.1778
   87SOPE   H7R 8163   2.271   3.053   3.342  1.4586 -0.7423 -1.3728
   87SOPE   H7S 8164   2.110   3.035   3.283 -1.2749 -1.3989  0.8587
   87SOPE   C28 8165   2.142   2.932   3.472 -0.8611  0.3372 -0.3068
   87SOPE   H8R 8166   2.059   2.859   3.457 -0.1309 -0.6303  0.2356
   87SOPE   H8S 8167   2.229   2.872   3.506 -3.0923 -3.1184 -0.1186
   87SOPE   C29 8168   2.113   3.050   3.554  0.4590 -0.8630 -0.7160
   87SOPE   H91 8169   2.085   3.137   3.492 -0.9561 -0.0851  0.9046
   87SOPE  C210 8170   2.133   3.072   3.684  0.2480  0.0490  0.3055
   87SOPE  H101 8171   2.115   3.170   3.732 -1.0674  0.1594 -0.3669
   87SOPE  C211 8172   2.168   2.962   3.783 -0.7234 -0.7360  0.2681
   87SOPE  H11R 8173   2.254   2.993   3.847 -0.2242  0.4187 -0.9013
   87SOPE  H11S 8174   2.207   2.870   3.736  0.0657  1.1594 -3.1371
   87SOPE  C212 8175   2.054   2.929   3.874 -0.0295  0.0667 -0.1061
   87SOPE  H12R 8176   1.984   2.866   3.815  1.6261 -0.0967 -1.9984
   87SOPE  H12S 8177   2.004   3.024   3.905  0.2020 -0.8600  3.5205
   87SOPE  C213 8178   2.105   2.854   3.996 -0.2784  0.3804  0.1467
   87SOPE  H13R 8179   2.167   2.924   4.056  0.9610 -0.5323 -0.0284
   87SOPE  H13S 8180   2.180   2.776   3.972  0.1563  1.4016 -2.1278
   87SOPE  C214 8181   1.988   2.794   4.077 -0.0494 -0.7015  0.6767
   87SOPE  H14R 8182   1.919   2.735   4.012 -1.5534 -1.8854  3.1957
   87SOPE  H14S 8183   1.922   2.874   4.118 -0.0272 -0.2716 -0.1146
   87SOPE  C215 8184   2.016   2.682   4.180 -0.7146 -0.5487  0.1549
   87SOPE  H15R 8185   2.077   2.605   4.128 -0.0507  0.1921 -0.1888
   87SOPE  H15S 8186   1.935   2.627   4.233 -0.3348 -1.9399 -0.6524
   87SOPE  C216 8187   2.113   2.732   4.291 -0.1990 -0.1069 -0.4460
   87SOPE  H16R 8188   2.049   2.799   4.352 -0.1658  2.3214 -2.9126
   87SOPE  H16S 8189   2.191   2.800   4.252  1.0630 -0.1687  1.7864
   87SOPE  C217 8190   2.176   2.626   4.373 -0.6281  0.2906 -0.8297
   87SOPE  H17R 8191   2.236   2.674   4.453 -0.9217  0.1320 -0.5101
   87SOPE  H17S 8192   2.251   2.581   4.305 -0.2537  1.1992 -1.0275
   87SOPE  C218 8193   2.087   2.519   4.438 -0.1114  0.1359  0.2231
   87SOPE  H18R 8194   1.993   2.562   4.479 -0.2854  0.9552 -1.0043
   87SOPE  H18S 8195   2.142   2.464   4.518  0.4505  0.3257 -0.0268
   87SOPE  H18T 8196   2.065   2.433   4.371  0.9840 -1.1107  1.3854
   87SOPE   C33 8197   1.654   3.194   2.344 -0.2028 -0.4156 -0.4697
   87SOPE   H3X 8198   1.605   3.119   2.279 -1.0674 -2.1299  2.0112
   87SOPE   H3Y 8199   1.683   3.280   2.280 -0.6634  1.8583  2.2047
   87SOPE   C34 8200   1.538   3.246   2.424 -0.1980 -0.3792 -0.0998
   87SOPE   H4X 8201   1.447   3.240   2.361 -0.9702  0.1759  0.9401
   87SOPE   H4Y 8202   1.554   3.352   2.455 -1.5149 -0.0150 -0.6315
   87SOPE   C35 8203   1.505   3.177   2.555  0.0910  1.2043  0.0210
   87SOPE   H5X 8204   1.424   3.240   2.598 -0.3591  0.6548 -0.0146
   87SOPE   H5Y 8205   1.586   3.185   2.631 -1.4052  3.3911  1.5325
   87SOPE   C36 8206   1.453   3.031   2.534  0.2715  0.5284 -0.8096
   87SOPE   H6X 8207   1.530   2.967   2.485  0.1056  0.9911 -1.6826
   87SOPE   H6Y 8208   1.370   3.024   2.460 -1.2627  0.4022  0.8471
   87SOPE   C37 8209   1.401   2.968   2.668  0.0893  0.2012 -0.0238
   87SOPE   H7X 8210   1.313   3.026   2.704 -0.0039 -1.0385  1.9007
   87SOPE   H7Y 8211   1.480   2.971   2.746  0.2259 -1.2508 -0.0886
   87SOPE   C38 8212   1.357   2.825   2.653  0.1688  0.2287 -0.2787
   87SOPE   H8X 8213   1.447   2.773   2.613 -1.8383 -1.2046 -3.3129
   87SOPE   H8Y 8214   1.267   2.818   2.589 -0.7458 -1.0147  1.0936
   87SOPE   C39 8215   1.314   2.772   2.793  0.4262  0.2681 -0.1129
   87SOPE   H9X 8216   1.255   2.680   2.773  0.2113  0.3225  0.2663
   87SOPE   H9Y 8217   1.259   2.858   2.837  0.2376  0.1636 -0.1448
   87SOPE  C310 8218   1.434   2.741   2.884  0.5089  1.3627  0.2040
   87SOPE  H10X 8219   1.498   2.832   2.892 -0.9254  2.6040 -1.7006
   87SOPE  H10Y 8220   1.499   2.658   2.847 -0.5144  0.2723  0.7701
   87SOPE  C311 8221   1.386   2.701   3.030  0.3788 -0.1921  0.6435
   87SOPE  H11X 8222   1.280   2.731   3.039  0.6125  0.3042  1.8376
   87SOPE  H11Y 8223   1.455   2.744   3.105  0.2575  0.3561  0.4476
   87SOPE  C312 8224   1.376   2.548   3.048  0.1956  0.1836 -0.7039
   87SOPE  H12X 8225   1.463   2.500   2.998  0.6428 -0.0323  0.2617
   87SOPE  H12Y 8226   1.283   2.500   3.011 -1.9095  0.0446  4.0388
   87SOPE  C313 8227   1.383   2.510   3.195 -0.0228 -0.1360 -0.1278
   87SOPE  H13X 8228   1.302   2.554   3.256  0.0159 -0.1666 -0.0548
   87SOPE  H13Y 8229   1.476   2.555   3.235  1.1189 -0.4523 -2.2844
   87SOPE  C314 8230   1.396   2.354   3.213  0.5602 -0.1007 -0.5793
   87SOPE  H14X 8231   1.485   2.308   3.166  1.3277 -1.0573  1.6780
   87SOPE  H14Y 8232   1.307   2.303   3.171  2.0081 -3.6015  0.2227
   87SOPE  C315 8233   1.427   2.314   3.360  0.0816 -0.7351  0.2596
   87SOPE  H15X 8234   1.525   2.357   3.391  1.8448 -0.9175 -4.2811
   87SOPE  H15Y 8235   1.422   2.203   3.361  0.2060 -0.7639 -0.9335
   87SOPE  C316 8236   1.329   2.371   3.463 -0.2517 -0.2908  0.8970
   87SOPE  H16X 8237   1.222   2.363   3.436 -0.1327  2.4241 -0.7838
   87SOPE  H16Y 8238   1.348   2.479   3.482 -0.5952 -0.1659  0.5531
   87SOPE  C317 8239   1.340   2.299   3.594  0.9612 -0.0432  0.0056
   87SOPE  H17X 8240   1.323   2.191   3.572  0.1535  0.2399 -0.8574
   87SOPE  H17Y 8241   1.251   2.333   3.651  0.9729 -2.6140  1.7316
   87SOPE  C318 8242   1.473   2.326   3.666  0.5162 -0.1234  0.8003
   87SOPE  H18X 8243   1.472   2.290   3.771  2.3975 -1.1304  0.5055
   87SOPE  H18Y 8244   1.475   2.436   3.681  1.2014 -0.1106  0.6261
   87SOPE  H18Z 8245   1.562   2.293   3.608  0.1397 -1.3058  0.8574
   88SOPE     N 8246   4.151   3.796   2.192  0.1766 -0.3667  0.2754
   88SOPE   HN1 8247   4.127   3.716   2.253 -4.5773  0.6791  0.1708
   88SOPE   HN2 8248   4.252   3.805   2.171  0.3641 -2.4924  0.0503
   88SOPE   HN3 8249   4.108   3.878   2.240  0.9437  0.5159 -0.5193
   88SOPE   C12 8250   4.076   3.775   2.058 -0.0089 -0.0971  0.4425
   88SOPE  H12A 8251   4.149   3.774   1.974  0.0864 -1.5810  0.5200
   88SOPE  H12B 8252   4.001   3.857   2.048 -1.7066 -1.6914 -0.5342
   88SOPE   C11 8253   3.996   3.641   2.072  0.0054  0.7974 -0.6255
   88SOPE  H11A 8254   3.918   3.634   1.993 -0.2396 -2.0132 -0.2575
   88SOPE  H11B 8255   3.937   3.641   2.167  0.2052 -0.1362 -0.4869
   88SOPE     P 8256   4.028   3.376   2.024  0.2826  0.1534 -0.2103
   88SOPE   O13 8257   4.144   3.308   1.968  0.5409 -0.5241 -0.7947
   88SOPE   O14 8258   3.908   3.372   1.940 -0.2289  0.1982  0.3717
   88SOPE   O12 8259   4.072   3.523   2.064  0.5471  0.2336 -0.1494
   88SOPE   O11 8260   3.999   3.296   2.157 -0.3870  0.5638 -0.0587
   88SOPE    C1 8261   3.992   3.346   2.287  0.5026 -0.0299 -0.6921
   88SOPE    HA 8262   3.961   3.452   2.287  0.2455 -0.0986  0.1958
   88SOPE    HB 8263   4.098   3.345   2.321  0.7537  0.0022 -1.4623
   88SOPE    C2 8264   3.919   3.254   2.384 -0.3279  0.7589  0.0622
   88SOPE    HS 8265   3.937   3.153   2.339 -0.4869  1.5958 -2.0034
   88SOPE   O21 8266   3.786   3.293   2.404 -0.4194 -0.3597  0.4901
   88SOPE   C21 8267   3.702   3.196   2.446  0.4454  1.0542 -0.6600
   88SOPE   O22 8268   3.732   3.081   2.461  0.2339  0.5170  0.8854
   88SOPE   C22 8269   3.561   3.257   2.467  0.4528 -0.0417  0.1696
   88SOPE   H2R 8270   3.513   3.283   2.370  0.8860  0.8092  0.1802
   88SOPE   H2S 8271   3.574   3.355   2.519 -0.2439  0.2128 -0.1250
   88SOPE    C3 8272   3.985   3.255   2.517 -0.4693 -0.0242  0.3054
   88SOPE    HX 8273   4.095   3.239   2.516 -0.4759 -1.0214  3.6731
   88SOPE    HY 8274   3.948   3.165   2.571  0.9114 -1.5063 -1.1019
   88SOPE   O31 8275   3.979   3.386   2.569  0.0647  0.1878 -0.5261
   88SOPE   C31 8276   3.882   3.413   2.661 -0.1915  0.6490  0.3665
   88SOPE   O32 8277   3.795   3.330   2.684 -0.2414  0.0740 -0.0717
   88SOPE   C32 8278   3.884   3.552   2.720 -0.0424 -0.5500 -0.6109
   88SOPE   H2X 8279   3.870   3.621   2.633  0.3534  0.5720  0.1877
   88SOPE   H2Y 8280   3.988   3.566   2.757  0.5934 -3.0099 -1.2969
   88SOPE   C23 8281   3.474   3.157   2.547 -0.5065  0.4743  0.3148
   88SOPE   H3R 8282   3.497   3.058   2.501 -2.2021  0.1739  0.0624
   88SOPE   H3S 8283   3.365   3.164   2.527 -0.7460 -2.0655  0.3876
   88SOPE   C24 8284   3.510   3.147   2.696  0.5835  0.0752 -0.5489
   88SOPE   H4R 8285   3.618   3.155   2.718  0.2913  1.4376  0.5113
   88SOPE   H4S 8286   3.454   3.228   2.746  0.4226 -2.8374  4.6444
   88SOPE   C25 8287   3.473   3.004   2.744 -0.4517 -0.0813 -0.4056
   88SOPE   H5R 8288   3.363   2.994   2.757 -0.2232  0.0741  2.1347
   88SOPE   H5S 8289   3.500   2.921   2.676 -1.6320 -1.0155  0.2196
   88SOPE   C26 8290   3.524   2.973   2.883  0.4698  0.7583 -0.1308
   88SOPE   H6R 8291   3.472   2.884   2.925  1.5143 -0.0792 -0.5361
   88SOPE   H6S 8292   3.631   2.941   2.886  0.7569  1.5326 -1.5016
   88SOPE   C27 8293   3.499   3.084   2.985 -0.3884 -0.5187 -0.5189
   88SOPE   H7R 8294   3.569   3.166   2.961 -1.7483  0.8438 -0.0334
   88SOPE   H7S 8295   3.398   3.118   2.952 -0.1240  0.1845 -0.6251
   88SOPE   C28 8296   3.493   3.054   3.134 -0.6477  0.0420 -0.1453
   88SOPE   H8R 8297   3.416   2.980   3.163  0.4719 -0.1175  2.7909
   88SOPE   H8S 8298   3.593   3.011   3.158 -0.5247  0.7458  0.6567
   88SOPE   C29 8299   3.471   3.186   3.209  0.0634 -1.0053 -0.3165
   88SOPE   H91 8300   3.415   3.267   3.159  0.7176  0.2844  0.9737
   88SOPE  C210 8301   3.503   3.215   3.333  0.6568  1.1561 -0.7541
   88SOPE  H101 8302   3.470   3.311   3.374  2.1919  0.3204  2.9243
   88SOPE  C211 8303   3.575   3.126   3.434 -0.1756 -0.1803 -0.5014
   88SOPE  H11R 8304   3.654   3.188   3.483  0.2800 -1.0535 -0.1073
   88SOPE  H11S 8305   3.624   3.042   3.381 -1.2622  0.0644 -1.9462
   88SOPE  C212 8306   3.490   3.082   3.557 -0.4224  0.4916  0.1197
   88SOPE  H12R 8307   3.534   2.994   3.608  1.2503  1.2796  0.1219
   88SOPE  H12S 8308   3.389   3.061   3.518 -1.8214  1.7415  2.8048
   88SOPE  C213 8309   3.465   3.193   3.656  0.4225 -0.6108 -0.6157
   88SOPE  H13R 8310   3.409   3.280   3.616  1.2719 -0.8816 -2.5189
   88SOPE  H13S 8311   3.555   3.238   3.704  0.4195  0.6362 -1.7109
   88SOPE  C214 8312   3.354   3.163   3.758 -0.4649  0.7708 -0.3984
   88SOPE  H14R 8313   3.382   3.061   3.792 -0.8319  0.2384 -1.6397
   88SOPE  H14S 8314   3.254   3.142   3.714  0.4066 -4.9692 -0.3719
   88SOPE  C215 8315   3.347   3.253   3.881 -0.0626  0.3822  0.4080
   88SOPE  H15R 8316   3.448   3.273   3.923 -0.6273  0.5350  1.7587
   88SOPE  H15S 8317   3.281   3.214   3.961 -0.1179  3.0253  1.7881
   88SOPE  C216 8318   3.296   3.397   3.843  0.8222  0.2095 -0.7512
   88SOPE  H16R 8319   3.194   3.387   3.799  1.1711 -0.9441 -1.3556
   88SOPE  H16S 8320   3.364   3.440   3.767 -0.4963  1.8438 -1.0601
   88SOPE  C217 8321   3.283   3.490   3.968 -0.8650 -1.0302 -0.0427
   88SOPE  H17R 8322   3.306   3.591   3.928  1.8751 -1.7802 -0.5546
   88SOPE  H17S 8323   3.359   3.463   4.044 -0.0191  0.1386 -0.4507
   88SOPE  C218 8324   3.143   3.479   4.028 -0.2626  0.1239 -0.9871
   88SOPE  H18R 8325   3.118   3.376   4.061  1.9679  0.1394  1.1139
   88SOPE  H18S 8326   3.064   3.515   3.960 -0.0755  0.9878 -0.7639
   88SOPE  H18T 8327   3.121   3.548   4.112 -0.2218  0.6956 -1.4390
   88SOPE   C33 8328   3.772   3.588   2.828 -0.2383  0.3097 -0.2196
   88SOPE   H3X 8329   3.683   3.556   2.770  0.9219 -0.1507 -1.8282
   88SOPE   H3Y 8330   3.754   3.697   2.838 -1.6868  0.1302 -0.6148
   88SOPE   C34 8331   3.776   3.511   2.964  0.2438 -0.9954  0.3077
   88SOPE   H4X 8332   3.847   3.563   3.032  0.3783 -1.3404  0.4342
   88SOPE   H4Y 8333   3.810   3.406   2.958  0.4560 -0.9627  0.8264
   88SOPE   C35 8334   3.647   3.500   3.042 -0.2570 -0.4865  0.1192
   88SOPE   H5X 8335   3.677   3.476   3.146  1.9195  1.6972  0.0962
   88SOPE   H5Y 8336   3.583   3.419   3.000 -0.6328 -0.4033  0.5223
   88SOPE   C36 8337   3.563   3.629   3.048  0.3572  0.4731  0.2580
   88SOPE   H6X 8338   3.534   3.656   2.944  0.1417 -2.0905 -0.4122
   88SOPE   H6Y 8339   3.631   3.712   3.077 -0.0745  1.3528 -1.1736
   88SOPE   C37 8340   3.449   3.623   3.155 -0.4640 -0.1605 -0.0592
   88SOPE   H7X 8341   3.421   3.729   3.175 -2.9302 -0.9243  0.9488
   88SOPE   H7Y 8342   3.486   3.576   3.248 -0.4720  0.0211  0.0362
   88SOPE   C38 8343   3.329   3.546   3.097  0.0955  0.8161 -0.2570
   88SOPE   H8X 8344   3.347   3.437   3.087  0.0464  0.8015 -0.1893
   88SOPE   H8Y 8345   3.306   3.582   2.995 -1.2695 -0.1813 -0.3342
   88SOPE   C39 8346   3.193   3.546   3.175 -0.2285 -0.3233  0.7133
   88SOPE   H9X 8347   3.120   3.467   3.147  1.8492 -1.5410 -1.6991
   88SOPE   H9Y 8348   3.145   3.642   3.145  0.7607  0.2330  0.9066
   88SOPE  C310 8349   3.221   3.555   3.326 -0.3497 -0.1181 -0.7950
   88SOPE  H10X 8350   3.305   3.622   3.355 -1.0754  0.5935 -0.2741
   88SOPE  H10Y 8351   3.245   3.454   3.364 -1.5766  0.1263  0.7299
   88SOPE  C311 8352   3.089   3.599   3.390  0.3707  0.0842 -0.0669
   88SOPE  H11X 8353   3.006   3.551   3.334 -0.5606  2.7454 -1.1385
   88SOPE  H11Y 8354   3.074   3.706   3.364 -1.3532  0.4537  2.1643
   88SOPE  C312 8355   3.073   3.569   3.539 -0.3425  0.1345 -0.0136
   88SOPE  H12X 8356   3.127   3.644   3.602  0.7411  0.2251 -1.0236
   88SOPE  H12Y 8357   3.118   3.469   3.553  0.5106  0.4864 -0.1889
   88SOPE  C313 8358   2.929   3.581   3.589  0.2396 -0.1069  0.3937
   88SOPE  H13X 8359   2.867   3.499   3.546  0.1749  0.0675  0.1544
   88SOPE  H13Y 8360   2.892   3.680   3.557 -0.1024  0.5834  2.7673
   88SOPE  C314 8361   2.918   3.582   3.742  0.2187  0.3388 -0.3091
   88SOPE  H14X 8362   2.996   3.641   3.793  0.9520 -1.4424  0.7265
   88SOPE  H14Y 8363   2.933   3.478   3.777 -0.8618  0.7948  1.6367
   88SOPE  C315 8364   2.781   3.628   3.797 -1.0014  0.3641  0.0846
   88SOPE  H15X 8365   2.701   3.554   3.774  0.0474 -1.2401  1.3769
   88SOPE  H15Y 8366   2.764   3.726   3.748 -1.0291  0.0591 -0.5354
   88SOPE  C316 8367   2.777   3.632   3.942 -0.1909 -0.0361  0.2125
   88SOPE  H16X 8368   2.687   3.691   3.967  0.5431  1.5562 -0.7553
   88SOPE  H16Y 8369   2.857   3.682   4.002 -0.1628 -1.5893  1.5260
   88SOPE  C317 8370   2.773   3.490   4.001 -0.2863  0.4613 -0.0604
   88SOPE  H17X 8371   2.868   3.437   3.977 -0.8015  1.0128 -4.2040
   88SOPE  H17Y 8372   2.687   3.432   3.962 -0.8441  1.1701  0.0985
   88SOPE  C318 8373   2.763   3.486   4.151 -0.3890 -0.8339 -0.1273
   88SOPE  H18X 8374   2.861   3.524   4.188 -1.3203  0.1560  1.4199
   88SOPE  H18Y 8375   2.747   3.384   4.190 -2.2503 -0.1118  1.1400
   88SOPE  H18Z 8376   2.681   3.553   4.185 -0.4323 -0.7187 -0.4479
   89SAPC     N 8377   5.718   4.421   6.909 -0.0712 -0.0590  0.2558
   89SAPC   C12 8378   5.572   4.450   6.956  0.1247  0.0357 -0.8502
   89SAPC  H12A 8379   5.523   4.482   6.866  1.0000  0.5689 -1.1466
   89SAPC  H12B 8380   5.565   4.535   7.023  1.4416 -1.9065  1.9741
   89SAPC   C13 8381   5.757   4.520   6.802  0.4997  0.6843  0.0897
   89SAPC  H13A 8382   5.688   4.495   6.722 -0.4264 -0.9751  1.3348
   89SAPC  H13B 8383   5.758   4.624   6.829  0.2006  0.4679  0.9498
   89SAPC  H13C 8384   5.860   4.498   6.780  0.4115 -1.0880  1.2724
   89SAPC   C14 8385   5.821   4.431   7.011 -0.5217  0.2898  0.6023
   89SAPC  H14A 8386   5.833   4.532   7.048  1.0224  0.9727 -1.5617
   89SAPC  H14B 8387   5.786   4.371   7.093  3.4733 -1.8917  0.9548
   89SAPC  H14C 8388   5.917   4.396   6.975 -0.9971  1.6242 -2.2263
   89SAPC   C15 8389   5.729   4.288   6.843 -0.5184 -0.1487 -0.4281
   89SAPC  H15A 8390   5.822   4.272   6.790  0.8607  2.0414  1.1649
   89SAPC  H15B 8391   5.705   4.206   6.909 -0.5232  0.0519 -0.1791
   89SAPC  H15C 8392   5.645   4.285   6.775 -1.1268  0.5536  0.2791
   89SAPC   C11 8393   5.486   4.335   7.009 -0.4057 -0.6211 -1.2007
   89SAPC  H11A 8394   5.394   4.374   7.056 -0.6591 -1.8577 -0.6293
   89SAPC  H11B 8395   5.545   4.307   7.099  2.5195  1.0626 -2.4607
   89SAPC     P 8396   5.353   4.235   6.819 -0.0789 -0.0617  0.1480
   89SAPC   O13 8397   5.222   4.226   6.884  0.0720 -0.1794 -0.0794
   89SAPC   O14 8398   5.373   4.367   6.747 -0.6907 -0.3700 -1.2831
   89SAPC   O12 8399   5.475   4.223   6.918  0.1832  0.4226 -0.0829
   89SAPC   O11 8400   5.371   4.113   6.716 -0.2604  0.7016  0.1015
   89SAPC    C1 8401   5.398   3.974   6.760 -0.8459 -0.2523  1.4101
   89SAPC    HA 8402   5.365   3.960   6.865  0.2852 -0.3395  1.7621
   89SAPC    HB 8403   5.348   3.898   6.696 -2.0971  1.7840 -0.1611
   89SAPC    C2 8404   5.551   3.946   6.736 -0.2143 -0.2111  0.4539
   89SAPC    HS 8405   5.607   4.012   6.806  0.4888 -1.6517  1.2845
   89SAPC   O21 8406   5.590   3.979   6.595  0.9140 -0.0299 -0.3198
   89SAPC   C21 8407   5.719   4.029   6.570  0.2041 -0.4335  0.0853
   89SAPC   O22 8408   5.796   4.059   6.658  0.3272  0.0299 -0.2385
   89SAPC   C22 8409   5.755   4.052   6.420  0.3502 -0.0387  0.1307
   89SAPC   H2R 8410   5.734   3.952   6.377 -0.3951  0.6233 -1.0957
   89SAPC   H2S 8411   5.686   4.127   6.377  0.3319 -1.0251 -1.6849
   89SAPC    C3 8412   5.596   3.800   6.763  0.4093  0.2428 -0.4001
   89SAPC    HX 8413   5.580   3.777   6.870  0.5032  2.7156  0.2009
   89SAPC    HY 8414   5.706   3.791   6.744  1.0847 -0.4398  3.1443
   89SAPC   O31 8415   5.516   3.713   6.675 -1.0733 -0.5582  0.1906
   89SAPC   C31 8416   5.569   3.685   6.555  0.6124 -0.5468  0.3623
   89SAPC   O32 8417   5.682   3.708   6.523 -0.6937  0.2390  0.5729
   89SAPC   C32 8418   5.464   3.610   6.477 -0.0891  0.6093 -0.4468
   89SAPC   H2X 8419   5.420   3.524   6.533  2.0005 -0.2412  0.0027
   89SAPC   H2Y 8420   5.517   3.572   6.388 -0.5121  2.0109 -1.3232
   89SAPC   C23 8421   5.901   4.101   6.389  0.6442 -0.4839  0.0185
   89SAPC   H3R 8422   5.978   4.025   6.412 -0.1176 -1.8507 -1.6897
   89SAPC   H3S 8423   5.931   4.187   6.453  0.5243 -0.9111  0.6566
   89SAPC   C24 8424   5.918   4.154   6.247 -0.4079 -0.2351 -0.4771
   89SAPC   H4R 8425   5.870   4.254   6.244  2.5150  1.2831 -0.3263
   89SAPC   H4S 8426   5.871   4.083   6.176 -1.6398  0.3673 -0.2859
   89SAPC   C25 8427   6.070   4.177   6.221 -0.2419  0.1857 -0.7183
   89SAPC   H5R 8428   6.142   4.114   6.276  0.5379  1.0645 -0.7207
   89SAPC   C26 8429   6.114   4.264   6.132  0.1214 -0.4859 -0.1749
   89SAPC   H6R 8430   6.221   4.281   6.114 -0.0029  0.0241 -0.4612
   89SAPC   C27 8431   6.020   4.359   6.058 -0.0468  0.2659 -0.7035
   89SAPC   H7R 8432   5.942   4.411   6.117  0.0284  1.1364 -1.3589
   89SAPC   H7S 8433   5.976   4.290   5.982 -1.3541  0.1031  0.1659
   89SAPC   C28 8434   6.091   4.470   5.989  0.2844 -0.0007  0.0017
   89SAPC   H8R 8435   6.100   4.561   6.050 -1.9094 -0.8986  1.8346
   89SAPC   C29 8436   6.126   4.464   5.853 -0.0796  0.0444 -0.1277
   89SAPC   H9R 8437   6.172   4.547   5.799 -0.5489  0.4943  0.1584
   89SAPC  C210 8438   6.124   4.340   5.770  0.3820  0.3052 -0.3131
   89SAPC  H10R 8439   6.070   4.356   5.674  0.6187 -0.0391 -0.5037
   89SAPC  H10S 8440   6.069   4.255   5.816  0.6718  0.9015  1.1951
   89SAPC  C211 8441   6.268   4.296   5.738  0.2829  0.2640 -0.1038
   89SAPC  H11R 8442   6.325   4.256   5.824 -0.9353 -0.6054  0.3261
   89SAPC  C212 8443   6.323   4.286   5.616  0.1397 -1.0535 -0.1248
   89SAPC  H12R 8444   6.429   4.259   5.600  0.4583  0.4042 -0.5786
   89SAPC  C213 8445   6.259   4.318   5.482  0.2873 -0.7113  0.6978
   89SAPC  H13R 8446   6.149   4.328   5.495  0.2426 -1.8105  1.3135
   89SAPC  H13S 8447   6.255   4.228   5.416  0.4238  0.0067 -0.3091
   89SAPC  C214 8448   6.317   4.441   5.413  0.3572  0.2446  0.0154
   89SAPC  H14R 8449   6.354   4.526   5.472 -0.5229  1.5343 -1.2148
   89SAPC  C215 8450   6.304   4.459   5.276  0.1226 -0.0435  0.5527
   89SAPC  H15R 8451   6.328   4.560   5.239 -1.7127  0.2933  0.1792
   89SAPC  C216 8452   6.236   4.364   5.176 -0.8316 -0.5128 -0.0990
   89SAPC  H16R 8453   6.206   4.409   5.078  2.1223 -0.5297 -1.1202
   89SAPC  H16S 8454   6.152   4.307   5.220  0.1325 -2.2436 -0.4085
   89SAPC  C217 8455   6.346   4.263   5.145  0.4642  0.5730  0.1699
   89SAPC  H17R 8456   6.370   4.210   5.239  1.2883  0.5691 -0.0308
   89SAPC  H17S 8457   6.428   4.327   5.104 -0.1015  1.2008 -0.0013
   89SAPC  C218 8458   6.302   4.178   5.025  0.6147 -0.1133 -0.1961
   89SAPC  H18R 8459   6.272   4.240   4.938  2.8851 -0.0768 -1.0206
   89SAPC  H18S 8460   6.205   4.125   5.037 -0.5353  1.1925 -2.7909
   89SAPC  C219 8461   6.419   4.088   4.974  0.0951  0.2571 -0.0729
   89SAPC  H19R 8462   6.439   4.004   5.043  0.1438 -2.7438 -3.4413
   89SAPC  H19S 8463   6.514   4.145   4.965  0.6754 -0.6706  0.0992
   89SAPC  C220 8464   6.375   4.043   4.830 -0.5292  0.1218  0.3948
   89SAPC  H20R 8465   6.439   3.965   4.784  0.6909  2.0713 -1.3528
   89SAPC  H20S 8466   6.360   4.131   4.764 -0.0849  0.0934  0.2590
   89SAPC  H20T 8467   6.273   3.998   4.836 -0.6839  0.5034  0.7204
   89SAPC   C33 8468   5.351   3.709   6.433 -0.1841 -0.3358 -0.1617
   89SAPC   H3X 8469   5.300   3.750   6.523  1.9974  0.3893  0.8080
   89SAPC   H3Y 8470   5.282   3.663   6.359 -0.2514 -0.7735  0.1640
   89SAPC   C34 8471   5.406   3.827   6.356  0.1606  0.1894  0.2568
   89SAPC   H4X 8472   5.471   3.884   6.426  1.2711 -0.8764  0.1277
   89SAPC   H4Y 8473   5.315   3.884   6.329 -1.2995 -2.0896  0.1354
   89SAPC   C35 8474   5.475   3.774   6.231  0.5199  0.1491 -0.2990
   89SAPC   H5X 8475   5.420   3.690   6.183  2.3925 -1.1928 -0.1792
   89SAPC   H5Y 8476   5.572   3.728   6.256 -0.5370 -2.1545 -0.1566
   89SAPC   C36 8477   5.492   3.878   6.118  0.0227  0.2002 -0.1497
   89SAPC   H6X 8478   5.572   3.954   6.129 -0.1709  0.5224 -0.9417
   89SAPC   H6Y 8479   5.397   3.935   6.124  0.0624  0.2630 -0.1155
   89SAPC   C37 8480   5.503   3.827   5.981 -0.8233 -0.2453 -0.3184
   89SAPC   H7X 8481   5.422   3.753   5.963  0.0778 -1.9816  2.2799
   89SAPC   H7Y 8482   5.584   3.753   5.971 -2.7878 -2.4251 -1.0775
   89SAPC   C38 8483   5.516   3.941   5.878  0.4536 -0.0656 -0.2975
   89SAPC   H8X 8484   5.583   4.024   5.907 -0.2296 -0.1754  1.7440
   89SAPC   H8Y 8485   5.416   3.989   5.870 -0.6852 -2.3215 -0.5881
   89SAPC   C39 8486   5.543   3.895   5.736 -0.1262  0.2183 -0.0244
   89SAPC   H9X 8487   5.487   3.799   5.724  0.2088  0.0577 -0.3388
   89SAPC   H9Y 8488   5.650   3.865   5.726 -0.4606 -0.6386 -1.2852
   89SAPC  C310 8489   5.513   3.993   5.620  0.4395 -0.3108 -0.3512
   89SAPC  H10X 8490   5.570   4.085   5.646  0.6403 -0.7294  0.7231
   89SAPC  H10Y 8491   5.405   4.019   5.624  0.4944 -0.0102 -0.7090
   89SAPC  C311 8492   5.542   3.927   5.484  0.6255  0.0053 -0.1746
   89SAPC  H11X 8493   5.495   3.827   5.471 -0.2910  0.1991  1.4542
   89SAPC  H11Y 8494   5.651   3.906   5.472  0.2047 -1.1273 -2.4374
   89SAPC  C312 8495   5.492   4.023   5.374  0.4668  0.2942  0.1601
   89SAPC  H12X 8496   5.560   4.111   5.376  1.6945 -0.5297 -1.8438
   89SAPC  H12Y 8497   5.386   4.046   5.396  0.5480  0.3461  0.4980
   89SAPC  C313 8498   5.503   3.967   5.228 -0.3960  0.1160  0.8075
   89SAPC  H13X 8499   5.460   3.865   5.233 -2.2275  0.7311 -0.8551
   89SAPC  H13Y 8500   5.608   3.954   5.196 -0.5998 -0.8227  0.4741
   89SAPC  C314 8501   5.416   4.048   5.126  0.3042 -0.6071  0.1996
   89SAPC  H14X 8502   5.475   4.139   5.100 -0.4019  0.0098  0.6942
   89SAPC  H14Y 8503   5.327   4.090   5.178  1.0428  2.4095 -0.7592
   89SAPC  C315 8504   5.379   3.964   5.001  0.0102 -0.7024 -0.1636
   89SAPC  H15X 8505   5.332   3.865   5.020  0.2941 -1.0178 -1.0374
   89SAPC  H15Y 8506   5.477   3.946   4.951  0.7060  1.2457  0.4143
   89SAPC  C316 8507   5.288   4.044   4.904 -0.1808 -0.0440  0.1206
   89SAPC  H16X 8508   5.329   4.141   4.871  0.3101 -0.2651  0.0673
   89SAPC  H16Y 8509   5.190   4.076   4.944 -0.0917 -1.0795  1.2333
   89SAPC  C317 8510   5.264   3.973   4.775  0.6109  0.2333 -0.9263
   89SAPC  H17X 8511   5.218   4.037   4.697 -0.6603  0.3130 -0.1422
   89SAPC  H17Y 8512   5.184   3.898   4.788 -0.0595  0.7998 -1.7179
   89SAPC  C318 8513   5.383   3.913   4.702 -0.0305 -0.1907 -0.1380
   89SAPC  H18X 8514   5.404   3.812   4.743 -0.6903 -0.2665  0.0217
   89SAPC  H18Y 8515   5.472   3.979   4.704  0.0674 -0.2106 -1.8888
   89SAPC  H18Z 8516   5.354   3.906   4.595 -1.2699 -1.4478  0.2585
   90SAPC     N 8517   1.000   6.767   7.122 -0.7610  0.1097  0.3129
   90SAPC   C12 8518   1.080   6.730   7.006  0.0556 -0.0096  0.4250
   90SAPC  H12A 8519   1.044   6.769   6.912  1.7392 -0.5603 -0.4869
   90SAPC  H12B 8520   1.082   6.624   6.989  1.1661  0.0314  0.2195
   90SAPC   C13 8521   0.870   6.699   7.101  0.0341  0.5909  0.5426
   90SAPC  H13A 8522   0.808   6.720   7.187  2.7795  0.3878  2.7125
   90SAPC  H13B 8523   0.805   6.729   7.020 -1.4845  1.5793  2.0429
   90SAPC  H13C 8524   0.877   6.591   7.096 -1.1185  0.5047  0.4603
   90SAPC   C14 8525   1.061   6.715   7.249  0.0738 -0.1637 -0.5289
   90SAPC  H14A 8526   1.020   6.617   7.263 -0.6712  0.2156 -0.0079
   90SAPC  H14B 8527   1.167   6.703   7.234  0.1618  1.9164 -2.1364
   90SAPC  H14C 8528   1.031   6.780   7.330 -1.6665  0.5729 -1.6834
   90SAPC   C15 8529   0.980   6.914   7.139 -0.1329  0.4528  0.3344
   90SAPC  H15A 8530   1.079   6.956   7.148  1.0932 -1.4101 -2.8626
   90SAPC  H15B 8531   0.946   6.951   7.043 -0.6996 -0.6558  0.0866
   90SAPC  H15C 8532   0.900   6.942   7.206 -1.5381  0.1663 -1.1704
   90SAPC   C11 8533   1.228   6.768   7.017  0.0520  0.4738 -0.2165
   90SAPC  H11A 8534   1.242   6.873   7.053 -0.7060  0.0867  1.2562
   90SAPC  H11B 8535   1.259   6.760   6.910  1.7315 -0.7731  0.3222
   90SAPC     P 8536   1.454   6.708   7.132 -0.0818  0.1931  0.0996
   90SAPC   O13 8537   1.470   6.850   7.172 -0.5718  0.1336  0.4658
   90SAPC   O14 8538   1.491   6.609   7.234  0.5684  0.9796  0.1753
   90SAPC   O12 8539   1.301   6.687   7.101 -0.2487 -0.1855  0.0993
   90SAPC   O11 8540   1.532   6.676   7.001  0.2193  0.1011 -0.5796
   90SAPC    C1 8541   1.543   6.536   6.967 -0.6172 -0.2369 -0.3275
   90SAPC    HA 8542   1.613   6.493   7.042  1.2618  2.3848 -0.4169
   90SAPC    HB 8543   1.445   6.485   6.980 -0.9099  0.2907 -0.4501
   90SAPC    C2 8544   1.583   6.517   6.819 -0.0514  0.3690 -0.3077
   90SAPC    HS 8545   1.615   6.411   6.814  1.7180  0.8493  0.1248
   90SAPC   O21 8546   1.697   6.612   6.795  0.4514 -0.4804 -0.7875
   90SAPC   C21 8547   1.813   6.567   6.818 -0.1656 -0.5686 -0.0762
   90SAPC   O22 8548   1.845   6.450   6.835  0.2137 -0.1031  0.1135
   90SAPC   C22 8549   1.910   6.684   6.817  0.6407  1.4805 -0.4981
   90SAPC   H2R 8550   1.891   6.751   6.903 -1.1312  0.1413  0.2183
   90SAPC   H2S 8551   2.010   6.642   6.840  0.4439  2.6874  3.0799
   90SAPC    C3 8552   1.473   6.550   6.716 -1.0163  0.4210  0.5870
   90SAPC    HX 8553   1.419   6.644   6.737 -1.1987 -0.2803  3.6129
   90SAPC    HY 8554   1.410   6.461   6.737  2.1428 -2.6237 -1.5718
   90SAPC   O31 8555   1.504   6.542   6.572  0.4531 -0.2456 -0.2204
   90SAPC   C31 8556   1.507   6.650   6.496  1.5267  0.0979  0.3410
   90SAPC   O32 8557   1.501   6.765   6.540 -0.4102  0.1484 -0.1834
   90SAPC   C32 8558   1.527   6.612   6.341 -0.4866  0.4658  0.3662
   90SAPC   H2X 8559   1.430   6.598   6.289 -0.3684  2.3093 -0.4406
   90SAPC   H2Y 8560   1.571   6.511   6.355 -0.9241  0.2058 -0.1283
   90SAPC   C23 8561   1.917   6.774   6.688  1.0259  0.3487 -0.2715
   90SAPC   H3R 8562   2.008   6.836   6.700  0.1950  1.3706  1.0272
   90SAPC   H3S 8563   1.829   6.842   6.683 -1.2896 -2.3761  1.0437
   90SAPC   C24 8564   1.921   6.704   6.548 -0.4134 -0.0803 -0.4280
   90SAPC   H4R 8565   1.916   6.795   6.485  1.2578  1.8281  1.9871
   90SAPC   H4S 8566   1.831   6.639   6.539 -0.5140 -0.3960  2.1423
   90SAPC   C25 8567   2.052   6.622   6.535 -0.2664  0.1449  0.1976
   90SAPC   H5R 8568   2.050   6.527   6.590 -0.2151  0.2239  0.3332
   90SAPC   C26 8569   2.161   6.649   6.459  1.3314 -0.0517  0.0001
   90SAPC   H6R 8570   2.255   6.594   6.474  1.2061 -0.6614 -1.2412
   90SAPC   C27 8571   2.169   6.754   6.358 -0.3284 -0.3232 -0.1372
   90SAPC   H7R 8572   2.149   6.855   6.399  1.7129 -0.1934  0.6122
   90SAPC   H7S 8573   2.077   6.744   6.295  1.0107  0.9931 -2.4188
   90SAPC   C28 8574   2.299   6.764   6.276 -0.6354  0.1607  0.5679
   90SAPC   H8R 8575   2.381   6.818   6.326  0.3860 -0.8138 -0.0236
   90SAPC   C29 8576   2.324   6.714   6.155 -0.2328 -0.1580  0.2840
   90SAPC   H9R 8577   2.426   6.729   6.116 -0.5674 -1.2836 -1.1079
   90SAPC  C210 8578   2.233   6.635   6.061 -0.0865  0.1324 -0.4438
   90SAPC  H10R 8579   2.208   6.694   5.970 -1.3788  0.0006 -0.1869
   90SAPC  H10S 8580   2.137   6.614   6.112  0.2980  1.0889  0.7213
   90SAPC  C211 8581   2.293   6.507   6.008  0.0194 -0.4855 -0.3085
   90SAPC  H11R 8582   2.359   6.469   6.088 -1.4004 -0.2721  1.0209
   90SAPC  C212 8583   2.275   6.449   5.889  0.1397 -0.3429 -0.0636
   90SAPC  H12R 8584   2.318   6.351   5.864 -0.8990 -1.4911  2.3250
   90SAPC  C213 8585   2.179   6.492   5.775 -0.1085 -0.3273  0.3060
   90SAPC  H13R 8586   2.157   6.600   5.775  0.8275 -0.1267 -0.4204
   90SAPC  H13S 8587   2.084   6.434   5.785 -0.9302  0.8618 -0.3792
   90SAPC  C214 8588   2.240   6.456   5.638 -0.3786 -0.0388 -0.4541
   90SAPC  H14R 8589   2.350   6.449   5.632 -0.2935  1.7146 -2.0112
   90SAPC  C215 8590   2.171   6.422   5.528 -0.2448  1.0809 -0.4370
   90SAPC  H15R 8591   2.219   6.376   5.440 -0.0378 -0.5582  0.5024
   90SAPC  C216 8592   2.021   6.404   5.527  0.5543  1.0971  0.7179
   90SAPC  H16R 8593   1.971   6.406   5.625 -0.4014 -0.3135  0.2922
   90SAPC  H16S 8594   1.999   6.305   5.481 -0.0427  1.6136 -0.1584
   90SAPC  C217 8595   1.946   6.492   5.433 -0.3466  0.0349 -0.1271
   90SAPC  H17R 8596   1.985   6.596   5.429 -0.2454 -0.0172 -3.4444
   90SAPC  H17S 8597   1.838   6.493   5.459 -0.2214  1.7965  0.4736
   90SAPC  C218 8598   1.958   6.435   5.285  0.5558 -0.1484 -0.8235
   90SAPC  H18R 8599   1.929   6.329   5.275  0.0477 -0.1658  0.6484
   90SAPC  H18S 8600   2.068   6.445   5.273  0.6683  1.8157  1.1865
   90SAPC  C219 8601   1.894   6.525   5.175  0.0606 -0.2711  0.7200
   90SAPC  H19R 8602   1.932   6.495   5.076  0.4566  1.4304  0.3248
   90SAPC  H19S 8603   1.927   6.630   5.187 -0.5906 -0.1572  1.6780
   90SAPC  C220 8604   1.745   6.507   5.182 -0.1407 -0.1788 -0.7869
   90SAPC  H20R 8605   1.704   6.539   5.280 -1.4266 -1.5907 -0.8405
   90SAPC  H20S 8606   1.714   6.406   5.149 -1.6518  0.3970 -1.2064
   90SAPC  H20T 8607   1.692   6.569   5.106 -0.5124  0.4666 -0.0192
   90SAPC   C33 8608   1.636   6.695   6.264  0.3590 -0.4447 -1.3516
   90SAPC   H3X 8609   1.727   6.689   6.327 -0.7014  1.2516  0.4794
   90SAPC   H3Y 8610   1.610   6.804   6.259  0.5076 -0.3873 -0.9378
   90SAPC   C34 8611   1.659   6.642   6.128 -0.0988  0.1465  0.1096
   90SAPC   H4X 8612   1.574   6.663   6.059  0.5755 -2.9754 -1.8782
   90SAPC   H4Y 8613   1.665   6.532   6.138  0.9213  0.2780  1.2009
   90SAPC   C35 8614   1.800   6.689   6.079  0.3813 -0.3884 -0.8386
   90SAPC   H5X 8615   1.869   6.702   6.165 -1.1064 -1.1279  0.5158
   90SAPC   H5Y 8616   1.780   6.788   6.033 -1.0860 -0.3069 -0.0967
   90SAPC   C36 8617   1.869   6.596   5.977 -0.6390  0.4252  0.3078
   90SAPC   H6X 8618   1.867   6.492   6.017  0.6991 -0.0611 -0.8074
   90SAPC   H6Y 8619   1.975   6.626   5.963 -0.4574  0.3452  1.4015
   90SAPC   C37 8620   1.783   6.582   5.845  0.2631 -0.2059 -0.1539
   90SAPC   H7X 8621   1.679   6.575   5.883  0.6049 -0.6606  0.7353
   90SAPC   H7Y 8622   1.826   6.499   5.785 -1.0583  0.8914 -2.7785
   90SAPC   C38 8623   1.803   6.710   5.768 -0.4146 -0.8679 -0.1376
   90SAPC   H8X 8624   1.910   6.724   5.742  0.2107  1.4562  3.0843
   90SAPC   H8Y 8625   1.783   6.799   5.830  0.9457  0.3874 -1.4177
   90SAPC   C39 8626   1.709   6.728   5.652  1.0206 -0.0118  0.0641
   90SAPC   H9X 8627   1.607   6.709   5.693  1.3800  0.2723  1.1226
   90SAPC   H9Y 8628   1.731   6.645   5.581 -2.4279 -1.5277  0.5386
   90SAPC  C310 8629   1.713   6.868   5.582 -0.4152 -0.8328 -0.2993
   90SAPC  H10X 8630   1.667   6.941   5.653  1.2523 -0.9209  0.9209
   90SAPC  H10Y 8631   1.652   6.857   5.490  1.9518 -1.7521 -1.8393
   90SAPC  C311 8632   1.853   6.923   5.551 -0.3228  0.0222  0.6404
   90SAPC  H11X 8633   1.936   6.873   5.496 -0.6023  4.1718 -4.4007
   90SAPC  H11Y 8634   1.884   6.952   5.653  1.3841  2.0275 -0.3761
   90SAPC  C312 8635   1.843   7.061   5.479  0.1282  0.4821 -0.4418
   90SAPC  H12X 8636   1.920   7.127   5.523  2.0261 -2.4394  0.9809
   90SAPC  H12Y 8637   1.742   7.107   5.488 -0.2307 -0.6963  2.7140
   90SAPC  C313 8638   1.898   7.056   5.330 -0.4737 -0.5941  0.0215
   90SAPC  H13X 8639   1.993   7.000   5.319 -0.0518 -0.3594  2.1315
   90SAPC  H13Y 8640   1.917   7.156   5.286  0.8676  0.7829  3.3691
   90SAPC  C314 8641   1.800   6.985   5.238  0.2421  0.3433  0.3991
   90SAPC  H14X 8642   1.698   7.026   5.254 -0.3804 -1.2109  0.6052
   90SAPC  H14Y 8643   1.790   6.878   5.267 -0.0291  0.5568  1.1071
   90SAPC  C315 8644   1.825   7.011   5.092 -0.6697  0.2669 -0.8822
   90SAPC  H15X 8645   1.929   6.978   5.070 -1.3210  0.4717 -5.0055
   90SAPC  H15Y 8646   1.796   7.116   5.073 -1.9824  0.0080 -0.4354
   90SAPC  C316 8647   1.737   6.936   4.993 -0.1186 -0.0438  0.0770
   90SAPC  H16X 8648   1.643   6.993   4.977  0.6264  1.8325  1.9515
   90SAPC  H16Y 8649   1.715   6.841   5.046  0.5375 -0.9848 -1.2825
   90SAPC  C317 8650   1.811   6.912   4.864 -0.3576  0.6165  0.6784
   90SAPC  H17X 8651   1.901   6.850   4.881 -1.9685 -2.0950 -0.1535
   90SAPC  H17Y 8652   1.844   7.007   4.817 -0.2540  0.6174  0.7527
   90SAPC  C318 8653   1.732   6.823   4.760 -0.2859  0.3677  0.1249
   90SAPC  H18X 8654   1.704   6.725   4.805 -2.0937  0.6061 -0.3975
   90SAPC  H18Y 8655   1.793   6.807   4.669 -0.1739  1.5811 -0.0301
   90SAPC  H18Z 8656   1.637   6.873   4.734 -0.0168  0.6324 -0.3644
   91SAPC     N 8657   0.493   6.506   6.908  0.0428  0.3739  0.2916
   91SAPC   C12 8658   0.457   6.647   6.887  0.1394  0.1328  0.2281
   91SAPC  H12A 8659   0.373   6.666   6.954 -0.5496  0.0668 -0.6014
   91SAPC  H12B 8660   0.426   6.658   6.785  0.3165 -0.1791  0.1401
   91SAPC   C13 8661   0.393   6.408   6.852  0.3006 -0.0499 -0.2319
   91SAPC  H13A 8662   0.415   6.304   6.869 -3.5376 -0.7540  1.5990
   91SAPC  H13B 8663   0.302   6.425   6.909  0.5026  0.6827 -0.1133
   91SAPC  H13C 8664   0.394   6.441   6.749  0.1285  1.6352  0.2630
   91SAPC   C14 8665   0.624   6.468   6.846  0.7405  0.5313  0.2827
   91SAPC  H14A 8666   0.706   6.528   6.882  1.1163  0.9922 -1.2811
   91SAPC  H14B 8667   0.654   6.365   6.863 -0.2440 -0.3156 -2.6324
   91SAPC  H14C 8668   0.630   6.475   6.739  1.8710  1.1898  0.3723
   91SAPC   C15 8669   0.497   6.482   7.057 -0.2565 -0.0610 -0.2911
   91SAPC  H15A 8670   0.573   6.536   7.112 -0.4565 -0.4068  0.3309
   91SAPC  H15B 8671   0.409   6.507   7.115  0.7037 -1.3177  1.8500
   91SAPC  H15C 8672   0.506   6.377   7.081 -0.0152 -0.1831 -0.9078
   91SAPC   C11 8673   0.566   6.757   6.914  1.3556 -0.0666  0.1601
   91SAPC  H11A 8674   0.608   6.749   7.017  0.0671  1.1883  0.8234
   91SAPC  H11B 8675   0.526   6.861   6.905  1.8299  0.0287 -0.9265
   91SAPC     P 8676   0.771   6.842   6.760 -0.0887  0.1242  0.0189
   91SAPC   O13 8677   0.742   6.964   6.832 -0.2034 -0.2331 -0.3905
   91SAPC   O14 8678   0.910   6.782   6.760 -0.3572 -0.0845 -0.2927
   91SAPC   O12 8679   0.678   6.735   6.836 -0.3842 -0.7136 -0.6328
   91SAPC   O11 8680   0.718   6.847   6.607  0.2374 -0.0997  0.1050
   91SAPC    C1 8681   0.687   6.719   6.555  0.6599  0.4120  0.9888
   91SAPC    HA 8682   0.733   6.632   6.607  0.6481  1.1854  2.3363
   91SAPC    HB 8683   0.576   6.711   6.555  0.4563  2.5054  2.0952
   91SAPC    C2 8684   0.727   6.718   6.405 -0.8696 -0.4081 -0.2356
   91SAPC    HS 8685   0.816   6.780   6.384 -1.1750 -0.3626 -1.5109
   91SAPC   O21 8686   0.616   6.755   6.331  0.1977 -0.0510 -0.0900
   91SAPC   C21 8687   0.603   6.880   6.295  1.0116  0.0986  0.6273
   91SAPC   O22 8688   0.688   6.968   6.304  0.3830  0.1547 -0.5560
   91SAPC   C22 8689   0.479   6.902   6.213 -0.0258  0.2231  0.6095
   91SAPC   H2R 8690   0.396   6.956   6.264 -0.9425 -0.0474 -0.5603
   91SAPC   H2S 8691   0.503   6.964   6.124  1.4360 -0.1078  0.7492
   91SAPC    C3 8692   0.764   6.572   6.363 -0.8651 -0.3285 -0.6532
   91SAPC    HX 8693   0.674   6.512   6.337 -0.1755 -0.8698 -1.8753
   91SAPC    HY 8694   0.810   6.522   6.450 -1.9810  0.5900  0.5032
   91SAPC   O31 8695   0.838   6.587   6.241  0.6243 -0.0276  0.5330
   91SAPC   C31 8696   0.942   6.505   6.220  0.0570 -0.1937  0.8146
   91SAPC   O32 8697   0.992   6.434   6.305 -0.0856 -0.2777 -0.0967
   91SAPC   C32 8698   0.967   6.502   6.074 -0.1578 -0.1217 -0.4277
   91SAPC   H2X 8699   0.883   6.452   6.020 -1.0634  2.4547 -1.5321
   91SAPC   H2Y 8700   1.057   6.437   6.063 -0.1514 -0.7043  2.1751
   91SAPC   C23 8701   0.417   6.774   6.155 -0.2209  0.0196  0.1273
   91SAPC   H3R 8702   0.380   6.700   6.228  0.3169 -1.5459 -1.1297
   91SAPC   H3S 8703   0.498   6.729   6.093 -1.5914 -0.8276 -1.0941
   91SAPC   C24 8704   0.304   6.797   6.059  0.0869 -0.0323 -0.0828
   91SAPC   H4R 8705   0.245   6.706   6.037 -1.0479  0.3271  1.3701
   91SAPC   H4S 8706   0.348   6.836   5.964  1.4309  1.2434  1.0121
   91SAPC   C25 8707   0.199   6.898   6.111 -0.3207  0.2920  1.2400
   91SAPC   H5R 8708   0.121   6.854   6.175 -1.3055 -0.8112 -0.6410
   91SAPC   C26 8709   0.189   7.027   6.075 -0.6373 -0.7692 -0.0300
   91SAPC   H6R 8710   0.115   7.102   6.107  0.2317 -0.8756  2.4829
   91SAPC   C27 8711   0.275   7.110   5.981  0.5661  0.9949  0.4858
   91SAPC   H7R 8712   0.378   7.070   5.997  0.1169  0.2567  1.5991
   91SAPC   H7S 8713   0.275   7.218   6.007 -1.6941  1.2931 -0.5551
   91SAPC   C28 8714   0.248   7.088   5.834 -0.6464  0.7240 -1.1784
   91SAPC   H8R 8715   0.224   6.982   5.812 -0.0976  0.0488  1.1892
   91SAPC   C29 8716   0.254   7.181   5.737  0.1021 -0.0015 -0.1803
   91SAPC   H9R 8717   0.214   7.143   5.642 -1.1020 -1.1612  0.7422
   91SAPC  C210 8718   0.276   7.334   5.744  0.0408 -0.0412  0.3659
   91SAPC  H10R 8719   0.382   7.350   5.772 -0.3479  1.9263  0.8081
   91SAPC  H10S 8720   0.216   7.374   5.828  0.0167  0.4265  0.1282
   91SAPC  C211 8721   0.263   7.396   5.609  0.0984  0.0948  0.2381
   91SAPC  H11R 8722   0.162   7.423   5.576  0.0163 -0.7050 -0.1996
   91SAPC  C212 8723   0.355   7.408   5.512 -0.1709  0.9589 -0.4559
   91SAPC  H12R 8724   0.333   7.446   5.411  0.1363 -2.0826 -1.7749
   91SAPC  C213 8725   0.496   7.358   5.524  0.2102 -0.2059 -0.4712
   91SAPC  H13R 8726   0.518   7.319   5.626  0.3044 -2.3236 -1.2440
   91SAPC  H13S 8727   0.572   7.438   5.507 -0.0829  0.7131  2.1456
   91SAPC  C214 8728   0.525   7.238   5.429 -0.8550 -0.4049 -0.5046
   91SAPC  H14R 8729   0.509   7.142   5.481 -2.9795  0.0183 -0.2924
   91SAPC  C215 8730   0.576   7.237   5.306 -0.3881  0.2857 -0.1668
   91SAPC  H15R 8731   0.601   7.139   5.263 -0.1185  0.1704  0.2404
   91SAPC  C216 8732   0.615   7.354   5.214  0.9198  0.3098 -0.2022
   91SAPC  H16R 8733   0.581   7.455   5.245 -3.5432 -0.8660 -0.5531
   91SAPC  H16S 8734   0.579   7.336   5.110  1.4676 -1.7785 -0.0655
   91SAPC  C217 8735   0.766   7.354   5.192  0.1910  0.2505  0.1625
   91SAPC  H17R 8736   0.820   7.309   5.278  2.1850 -0.6763 -1.4791
   91SAPC  H17S 8737   0.797   7.456   5.161 -0.3003  0.3340 -0.0703
   91SAPC  C218 8738   0.802   7.267   5.068  0.0960 -0.3546  0.6080
   91SAPC  H18R 8739   0.751   7.305   4.977 -0.6724 -0.2877  1.0577
   91SAPC  H18S 8740   0.772   7.161   5.082 -0.4442 -0.7892 -2.9546
   91SAPC  C219 8741   0.954   7.269   5.037  0.3383  0.4229 -0.1346
   91SAPC  H19R 8742   0.992   7.369   5.008 -0.4960  0.6400 -0.5079
   91SAPC  H19S 8743   0.958   7.212   4.942 -2.9312  0.4384 -0.3936
   91SAPC  C220 8744   1.045   7.202   5.142 -0.0255  0.2130 -0.4038
   91SAPC  H20R 8745   1.009   7.105   5.182 -0.2519  0.1362 -0.7915
   91SAPC  H20S 8746   1.059   7.277   5.223 -1.0444  1.7676 -1.5927
   91SAPC  H20T 8747   1.144   7.190   5.094 -0.5406 -0.5795 -1.3050
   91SAPC   C33 8748   0.983   6.642   6.014 -0.5014  0.3696  0.1780
   91SAPC   H3X 8749   1.032   6.709   6.087  0.7318 -0.0201 -0.2675
   91SAPC   H3Y 8750   0.885   6.691   5.994 -0.8756 -0.8539 -1.2022
   91SAPC   C34 8751   1.068   6.630   5.881  0.2533  0.5892  0.1362
   91SAPC   H4X 8752   1.159   6.568   5.896  2.3222  3.9066  2.5415
   91SAPC   H4Y 8753   1.098   6.732   5.851 -1.9628  1.1752 -0.2510
   91SAPC   C35 8754   1.004   6.553   5.766  0.9212  0.2566 -0.0151
   91SAPC   H5X 8755   0.896   6.580   5.755  0.4334 -0.2383  2.8519
   91SAPC   H5Y 8756   1.019   6.444   5.781  0.5997  0.1371 -0.5360
   91SAPC   C36 8757   1.063   6.602   5.631  0.4409 -0.7120 -0.3586
   91SAPC   H6X 8758   1.168   6.566   5.619  0.3591 -1.6518  1.4295
   91SAPC   H6Y 8759   1.062   6.713   5.626  0.2112 -0.5605  2.0001
   91SAPC   C37 8760   0.974   6.569   5.505  0.4990  0.3328  1.0434
   91SAPC   H7X 8761   1.029   6.594   5.412 -2.0887 -0.7679 -0.9008
   91SAPC   H7Y 8762   0.882   6.631   5.507  0.8790  0.9105  0.7057
   91SAPC   C38 8763   0.934   6.418   5.490 -0.1889 -0.3099  0.1136
   91SAPC   H8X 8764   0.858   6.392   5.566 -1.3007 -0.7620 -1.1066
   91SAPC   H8Y 8765   1.032   6.366   5.504  0.8302  0.8515 -2.1409
   91SAPC   C39 8766   0.878   6.387   5.354  0.8963 -0.2628  0.0871
   91SAPC   H9X 8767   0.905   6.284   5.319  2.1243 -0.3427  1.1712
   91SAPC   H9Y 8768   0.934   6.455   5.286 -0.0256  1.3447  0.9024
   91SAPC  C310 8769   0.729   6.401   5.326  0.4700  0.0121 -0.0506
   91SAPC  H10X 8770   0.687   6.494   5.370 -1.7187 -0.9600  0.0134
   91SAPC  H10Y 8771   0.687   6.308   5.371  1.8507 -1.2499 -1.2328
   91SAPC  C311 8772   0.690   6.409   5.184  0.0239  0.2020  0.2187
   91SAPC  H11X 8773   0.682   6.309   5.136 -1.1849 -0.7126  2.1900
   91SAPC  H11Y 8774   0.771   6.465   5.133 -0.0526  0.9186  0.8790
   91SAPC  C312 8775   0.552   6.485   5.170  0.1255 -0.0611 -0.1962
   91SAPC  H12X 8776   0.546   6.586   5.216 -2.6280 -0.8664  1.4336
   91SAPC  H12Y 8777   0.480   6.411   5.210  0.6533  0.4839  1.8897
   91SAPC  C313 8778   0.508   6.516   5.019 -0.8863 -0.4129  0.0365
   91SAPC  H13X 8779   0.484   6.425   4.960  2.6524 -1.0976 -0.5819
   91SAPC  H13Y 8780   0.602   6.546   4.968 -0.6657 -1.1820 -0.0329
   91SAPC  C314 8781   0.410   6.633   5.003 -0.2401 -0.2786 -0.5521
   91SAPC  H14X 8782   0.457   6.726   5.042 -1.4161 -0.5246  1.5976
   91SAPC  H14Y 8783   0.317   6.611   5.059 -0.3118 -1.4527 -1.1097
   91SAPC  C315 8784   0.368   6.662   4.859  0.3974 -0.7271 -0.4986
   91SAPC  H15X 8785   0.316   6.575   4.814  1.3062 -2.2778  1.2812
   91SAPC  H15Y 8786   0.458   6.673   4.794 -0.0436 -0.5099 -1.0800
   91SAPC  C316 8787   0.269   6.777   4.834 -0.3249  0.1080  0.8081
   91SAPC  H16X 8788   0.178   6.754   4.893 -0.8903 -1.3364 -0.5497
   91SAPC  H16Y 8789   0.231   6.772   4.730 -1.5005 -4.2841  1.2703
   91SAPC  C317 8790   0.319   6.928   4.864 -0.2521 -0.0499  0.2007
   91SAPC  H17X 8791   0.321   6.935   4.975  0.7317  2.7477  0.0868
   91SAPC  H17Y 8792   0.242   7.004   4.838  0.0790 -0.1752 -1.2272
   91SAPC  C318 8793   0.455   6.957   4.810  0.0524  0.2553 -0.4780
   91SAPC  H18X 8794   0.510   6.861   4.801 -2.8953 -1.4670 -1.7591
   91SAPC  H18Y 8795   0.498   7.029   4.882  0.1301 -1.8870  1.7426
   91SAPC  H18Z 8796   0.457   6.999   4.707 -2.9616 -1.5400 -1.4049
   92SAPC     N 8797   6.569   6.819   6.775  0.2733  0.2575 -0.4086
   92SAPC   C12 8798   6.427   6.886   6.757 -1.1995 -0.0690 -0.2482
   92SAPC  H12A 8799   6.348   6.816   6.780  0.1500 -1.3351  0.7708
   92SAPC  H12B 8800   6.435   6.900   6.650  0.3304  0.3556 -0.1066
   92SAPC   C13 8801   6.571   6.702   6.689  0.2823  0.5460 -0.3837
   92SAPC  H13A 8802   6.492   6.633   6.715  1.5456 -0.6983  0.2675
   92SAPC  H13B 8803   6.552   6.724   6.584  0.3525 -0.3141 -0.5826
   92SAPC  H13C 8804   6.662   6.645   6.697 -1.2361 -1.6791  2.5409
   92SAPC   C14 8805   6.678   6.907   6.721  0.0266  0.2189  0.0089
   92SAPC  H14A 8806   6.661   6.945   6.622  1.2745  0.6650 -0.0500
   92SAPC  H14B 8807   6.690   6.992   6.786 -3.9169  0.8813  0.1218
   92SAPC  H14C 8808   6.770   6.851   6.713 -0.7871 -1.3320  0.8952
   92SAPC   C15 8809   6.591   6.779   6.915  0.1924  0.0852 -0.5118
   92SAPC  H15A 8810   6.581   6.858   6.989  2.3659 -2.3342  2.6489
   92SAPC  H15B 8811   6.529   6.693   6.933 -0.9758  0.0089 -4.2040
   92SAPC  H15C 8812   6.694   6.748   6.929  0.6470  1.2454 -1.1357
   92SAPC   C11 8813   6.391   7.024   6.818  0.3933 -0.2097 -0.0316
   92SAPC  H11A 8814   6.389   7.006   6.928  1.0722 -1.5759 -0.2189
   92SAPC  H11B 8815   6.289   7.051   6.782  0.1140  0.9775  1.5545
   92SAPC     P 8816   6.473   7.197   6.645 -0.2820 -0.2532  0.1809
   92SAPC   O13 8817   6.373   7.300   6.655  0.3678 -0.5590  0.0500
   92SAPC   O14 8818   6.610   7.249   6.618 -0.0556  0.0702  0.0840
   92SAPC   O12 8819   6.484   7.124   6.781  0.7293  0.5953  0.1082
   92SAPC   O11 8820   6.431   7.086   6.541  0.2893 -0.6505 -0.7758
   92SAPC    C1 8821   6.294   7.059   6.504 -0.1284 -0.6626 -0.3122
   92SAPC    HA 8822   6.273   6.950   6.508 -1.9102 -0.3183  2.1897
   92SAPC    HB 8823   6.220   7.096   6.579 -1.3574  0.3526 -1.9555
   92SAPC    C2 8824   6.262   7.113   6.369  0.0938 -0.2941  0.4135
   92SAPC    HS 8825   6.162   7.071   6.344 -0.1732  0.9504 -0.7107
   92SAPC   O21 8826   6.361   7.084   6.265 -0.1289  0.1770 -0.5824
   92SAPC   C21 8827   6.384   6.958   6.228 -0.8834  0.5215  0.2538
   92SAPC   O22 8828   6.340   6.857   6.281  0.0873 -0.3509 -0.4740
   92SAPC   C22 8829   6.458   6.953   6.092  0.5496 -0.5118 -0.1971
   92SAPC   H2R 8830   6.379   6.958   6.015  0.7242 -0.0186 -0.3461
   92SAPC   H2S 8831   6.519   7.046   6.089  1.1556 -0.8965 -0.1472
   92SAPC    C3 8832   6.243   7.266   6.371 -0.3795 -0.7774  0.4746
   92SAPC    HX 8833   6.348   7.299   6.356  0.0540 -2.5642 -0.8082
   92SAPC    HY 8834   6.196   7.297   6.466 -0.8094  3.3591 -0.9214
   92SAPC   O31 8835   6.161   7.310   6.256 -0.7686 -0.0024 -0.3208
   92SAPC   C31 8836   6.029   7.317   6.267  0.4352 -0.6143 -0.3382
   92SAPC   O32 8837   5.958   7.274   6.356  0.2976 -0.0754 -0.2349
   92SAPC   C32 8838   5.975   7.381   6.142  0.3384  0.2445  0.3663
   92SAPC   H2X 8839   6.009   7.486   6.127 -1.1248  0.5585 -1.0062
   92SAPC   H2Y 8840   5.864   7.383   6.148  0.1615 -1.8224 -1.3183
   92SAPC   C23 8841   6.539   6.823   6.063 -0.2377  0.3713 -0.2900
   92SAPC   H3R 8842   6.557   6.821   5.954 -0.9096 -0.7110 -0.3958
   92SAPC   H3S 8843   6.470   6.739   6.086  1.5046 -0.7036  1.3167
   92SAPC   C24 8844   6.681   6.802   6.120  0.0043  0.4163  0.4281
   92SAPC   H4R 8845   6.747   6.872   6.064  0.0959 -0.5149 -0.6602
   92SAPC   H4S 8846   6.703   6.703   6.074 -0.1241  0.9134 -0.7202
   92SAPC   C25 8847   6.702   6.802   6.265  0.2599 -0.2783  0.0677
   92SAPC   H5R 8848   6.673   6.711   6.319  0.0681  0.4034  1.1508
   92SAPC   C26 8849   6.754   6.899   6.336 -0.0347 -0.0441  0.5872
   92SAPC   H6R 8850   6.771   6.882   6.444 -0.4134 -2.2593  0.3403
   92SAPC   C27 8851   6.794   7.040   6.284  0.0308  0.3157  0.6463
   92SAPC   H7R 8852   6.835   7.037   6.181 -2.0244  1.0952 -0.2286
   92SAPC   H7S 8853   6.877   7.067   6.354  0.2672 -0.3423  0.6257
   92SAPC   C28 8854   6.684   7.140   6.293 -0.3370 -0.2537 -0.5276
   92SAPC   H8R 8855   6.599   7.109   6.356  0.3742  1.8083  1.6357
   92SAPC   C29 8856   6.670   7.250   6.222 -0.2450 -0.5106 -0.2104
   92SAPC   H9R 8857   6.580   7.303   6.256 -1.0546 -2.7415  1.3738
   92SAPC  C210 8858   6.757   7.314   6.114  0.1473 -0.4027 -0.0043
   92SAPC  H10R 8859   6.804   7.238   6.048  0.4833  0.6504 -1.0153
   92SAPC  H10S 8860   6.839   7.367   6.168 -1.3436  1.0970  0.8636
   92SAPC  C211 8861   6.689   7.416   6.024 -0.2563 -0.2206 -0.2195
   92SAPC  H11R 8862   6.699   7.523   6.049  1.0797 -0.3317 -0.2515
   92SAPC  C212 8863   6.639   7.388   5.903  0.2121 -0.5238  0.0938
   92SAPC  H12R 8864   6.598   7.470   5.842  0.4928  0.1434  0.7754
   92SAPC  C213 8865   6.635   7.254   5.838  0.0962 -0.1604 -0.2176
   92SAPC  H13R 8866   6.528   7.227   5.831 -0.7156  2.9783 -1.3583
   92SAPC  H13S 8867   6.693   7.178   5.895  0.0162 -1.2300 -1.5280
   92SAPC  C214 8868   6.726   7.243   5.722  0.2114 -0.5115  0.5961
   92SAPC  H14R 8869   6.832   7.240   5.753  0.9884  0.0661 -1.7815
   92SAPC  C215 8870   6.692   7.250   5.593 -0.0386 -0.0934 -0.0033
   92SAPC  H15R 8871   6.771   7.243   5.517  1.1076 -1.0079  1.2388
   92SAPC  C216 8872   6.543   7.251   5.539 -0.1614 -0.1306  0.8271
   92SAPC  H16R 8873   6.477   7.275   5.625 -3.9181 -1.4913 -1.4402
   92SAPC  H16S 8874   6.518   7.148   5.506  1.8887 -0.4734  0.1908
   92SAPC  C217 8875   6.521   7.360   5.433  0.5983  0.3220  0.1161
   92SAPC  H17R 8876   6.535   7.459   5.482  2.1098  0.7343 -1.0698
   92SAPC  H17S 8877   6.418   7.351   5.393  1.1490 -0.7439 -1.1491
   92SAPC  C218 8878   6.611   7.369   5.314 -0.1341 -0.4321  0.3494
   92SAPC  H18R 8879   6.710   7.381   5.363 -0.7816 -0.0838  1.6118
   92SAPC  H18S 8880   6.592   7.471   5.275 -2.5806 -1.2457 -0.7864
   92SAPC  C219 8881   6.592   7.267   5.208 -0.4010  0.2152  0.3735
   92SAPC  H19R 8882   6.482   7.249   5.202 -0.1052 -2.4657  1.3765
   92SAPC  H19S 8883   6.640   7.174   5.247  4.4573  1.9013 -0.9767
   92SAPC  C220 8884   6.651   7.292   5.073  0.0532  0.5624  0.5020
   92SAPC  H20R 8885   6.762   7.298   5.065 -0.0735  1.0925 -1.7475
   92SAPC  H20S 8886   6.619   7.396   5.049  0.5362  0.2964 -1.4559
   92SAPC  H20T 8887   6.605   7.220   5.001 -0.6993  1.7075 -0.2157
   92SAPC   C33 8888   6.005   7.309   6.011 -0.1789  0.0348 -0.3075
   92SAPC   H3X 8889   5.924   7.322   5.937  0.9264  0.5108 -1.4772
   92SAPC   H3Y 8890   5.999   7.201   6.036  0.7609  0.0937  0.2335
   92SAPC   C34 8891   6.145   7.335   5.944  0.6012 -0.1281 -0.5242
   92SAPC   H4X 8892   6.239   7.306   5.996  0.7192 -1.4416 -1.3977
   92SAPC   H4Y 8893   6.146   7.444   5.926 -1.9205  0.2450  1.1576
   92SAPC   C35 8894   6.164   7.256   5.813  0.6478 -0.6225 -0.0134
   92SAPC   H5X 8895   6.182   7.149   5.839 -3.2346 -1.6881 -1.0502
   92SAPC   H5Y 8896   6.252   7.286   5.753 -0.2978  1.4632 -0.4548
   92SAPC   C36 8897   6.049   7.275   5.710 -0.4099 -0.5196 -0.0880
   92SAPC   H6X 8898   6.055   7.383   5.684 -0.7668 -0.4169  0.2494
   92SAPC   H6Y 8899   5.953   7.247   5.758 -0.3150 -0.5832  0.0642
   92SAPC   C37 8900   6.081   7.193   5.593  0.6220  0.5869  0.6004
   92SAPC   H7X 8901   6.067   7.085   5.617  1.4558 -0.2819 -2.3653
   92SAPC   H7Y 8902   6.187   7.184   5.561  0.7004 -3.0988  1.4955
   92SAPC   C38 8903   5.995   7.227   5.466  0.1178  0.5850 -0.2156
   92SAPC   H8X 8904   6.002   7.337   5.454 -1.3607  1.1918  3.1880
   92SAPC   H8Y 8905   5.892   7.191   5.488 -0.1167  0.4129 -1.5312
   92SAPC   C39 8906   6.043   7.156   5.341 -0.3886 -0.0138 -0.1165
   92SAPC   H9X 8907   5.958   7.154   5.270 -1.1850 -0.3496  0.8222
   92SAPC   H9Y 8908   6.073   7.049   5.348 -1.5076 -0.3440 -0.2637
   92SAPC  C310 8909   6.160   7.227   5.266 -0.3578 -0.6260 -0.3670
   92SAPC  H10X 8910   6.253   7.240   5.325  0.4046 -1.1275 -1.4282
   92SAPC  H10Y 8911   6.122   7.329   5.241 -1.5535 -0.6773  1.1024
   92SAPC  C311 8912   6.197   7.165   5.139 -0.8170  0.0310  0.5651
   92SAPC  H11X 8913   6.259   7.241   5.086 -0.4242 -0.7987 -0.2025
   92SAPC  H11Y 8914   6.108   7.140   5.078 -0.1690  0.2334 -0.4911
   92SAPC  C312 8915   6.278   7.030   5.153 -0.5129 -0.9019  0.5057
   92SAPC  H12X 8916   6.200   6.956   5.182 -0.5592 -1.5234 -1.0750
   92SAPC  H12Y 8917   6.362   7.037   5.225 -1.7568 -1.1982  2.0254
   92SAPC  C313 8918   6.339   6.996   5.018  0.6247 -0.1853  0.0292
   92SAPC  H13X 8919   6.381   6.893   5.020  1.0020 -0.0281  0.2400
   92SAPC  H13Y 8920   6.427   7.056   4.987 -0.2560  1.0661 -0.1442
   92SAPC  C314 8921   6.237   6.993   4.898 -0.3667  0.5551 -0.0159
   92SAPC  H14X 8922   6.216   7.096   4.863  1.0279 -0.0206 -2.8462
   92SAPC  H14Y 8923   6.143   6.941   4.924 -0.4812 -0.2480 -1.8721
   92SAPC  C315 8924   6.294   6.914   4.778  0.0074 -0.0770  0.1391
   92SAPC  H15X 8925   6.297   6.805   4.801 -2.1933  0.1993  2.1074
   92SAPC  H15Y 8926   6.395   6.952   4.754  0.4689 -0.8278  0.8459
   92SAPC  C316 8927   6.198   6.933   4.661 -0.2815  0.2633  0.5871
   92SAPC  H16X 8928   6.192   7.040   4.632  2.5762  0.0414 -1.3062
   92SAPC  H16Y 8929   6.095   6.903   4.687  0.3283 -2.5995  0.1021
   92SAPC  C317 8930   6.238   6.850   4.541 -0.3084  0.8609  0.2574
   92SAPC  H17X 8931   6.182   6.754   4.538 -0.8336  1.1138  1.5247
   92SAPC  H17Y 8932   6.349   6.838   4.545 -0.0810  2.0791 -1.2886
   92SAPC  C318 8933   6.208   6.909   4.403 -0.4083 -0.6086 -0.5341
   92SAPC  H18X 8934   6.270   6.997   4.376  0.6222 -1.5137 -1.2249
   92SAPC  H18Y 8935   6.100   6.933   4.401 -0.0486  1.1024 -0.8545
   92SAPC  H18Z 8936   6.235   6.830   4.329 -0.5834 -1.1777  0.0058
   93SAPC     N 8937   2.348   1.216   6.904 -0.4966 -0.7503  0.4639
   93SAPC   C12 8938   2.352   1.294   6.773  0.7061 -0.0371  0.5255
   93SAPC  H12A 8939   2.331   1.223   6.694  1.3526  0.8548 -0.4883
   93SAPC  H12B 8940   2.454   1.325   6.757  1.1750 -2.5402 -2.2902
   93SAPC   C13 8941   2.380   1.307   7.027 -0.2470  0.0001  0.2777
   93SAPC  H13A 8942   2.299   1.376   7.040 -1.2362 -1.0976  0.1268
   93SAPC  H13B 8943   2.390   1.242   7.113 -1.5490 -0.2436  0.2641
   93SAPC  H13C 8944   2.474   1.359   7.016 -0.2616  0.0396  0.3463
   93SAPC   C14 8945   2.216   1.152   6.921  1.2672  0.6261 -0.4039
   93SAPC  H14A 8946   2.192   1.120   7.021 -3.3352 -0.5485 -1.6346
   93SAPC  H14B 8947   2.135   1.219   6.894  0.7672  0.3463  0.3464
   93SAPC  H14C 8948   2.202   1.068   6.854 -0.8862 -0.8506  1.7113
   93SAPC   C15 8949   2.450   1.109   6.894 -0.4987  0.5857  0.1710
   93SAPC  H15A 8950   2.452   1.029   6.967  0.3797 -0.6135 -1.1062
   93SAPC  H15B 8951   2.445   1.064   6.795  0.9841  0.1976  0.2522
   93SAPC  H15C 8952   2.545   1.156   6.913 -0.8401  1.3747 -0.0478
   93SAPC   C11 8953   2.250   1.414   6.759  0.0770  0.4893  0.1164
   93SAPC  H11A 8954   2.251   1.446   6.653  1.4770 -0.5055 -0.1985
   93SAPC  H11B 8955   2.276   1.499   6.826  0.0802 -1.3227  2.5690
   93SAPC     P 8956   1.988   1.445   6.744  0.0204 -0.1251  0.1232
   93SAPC   O13 8957   1.876   1.414   6.833 -0.4406 -0.3211  0.3533
   93SAPC   O14 8958   2.015   1.582   6.704 -0.0727 -0.4383 -0.0936
   93SAPC   O12 8959   2.118   1.381   6.805  0.3673  1.2960  0.1341
   93SAPC   O11 8960   1.975   1.362   6.616 -0.2657 -0.4305 -0.7367
   93SAPC    C1 8961   1.989   1.219   6.624 -0.1134 -0.8819 -0.7794
   93SAPC    HA 8962   2.092   1.198   6.657  0.6105  0.4704 -2.0220
   93SAPC    HB 8963   1.911   1.184   6.695 -0.7913  1.6121 -0.1779
   93SAPC    C2 8964   1.956   1.159   6.488  0.5600  0.7269  0.4177
   93SAPC    HS 8965   1.963   1.050   6.504  1.7374  0.4785 -1.4399
   93SAPC   O21 8966   2.048   1.190   6.389 -0.5225 -0.0347 -0.3134
   93SAPC   C21 8967   2.163   1.127   6.391  0.3331 -0.0505 -0.7047
   93SAPC   O22 8968   2.200   1.054   6.489 -0.0366 -0.4121  0.4524
   93SAPC   C22 8969   2.245   1.163   6.266 -0.8733 -0.6663 -0.4865
   93SAPC   H2R 8970   2.177   1.214   6.195 -1.7081  2.1553  2.0859
   93SAPC   H2S 8971   2.316   1.244   6.297  1.0577 -0.8989 -3.8289
   93SAPC    C3 8972   1.814   1.203   6.434  0.2467  0.3527 -0.3589
   93SAPC    HX 8973   1.814   1.314   6.432  2.5008  0.4071 -0.6538
   93SAPC    HY 8974   1.747   1.168   6.515  3.4906  0.4519  2.6370
   93SAPC   O31 8975   1.781   1.153   6.301 -0.1717 -0.6620 -0.2717
   93SAPC   C31 8976   1.650   1.174   6.270 -0.6091 -0.0545  0.5799
   93SAPC   O32 8977   1.569   1.213   6.348  0.3599  0.7457 -0.1114
   93SAPC   C32 8978   1.630   1.120   6.125  0.3134 -0.7269 -0.0186
   93SAPC   H2X 8979   1.540   1.171   6.084  0.4429 -0.1912  0.3449
   93SAPC   H2Y 8980   1.611   1.011   6.133 -2.1428 -0.2616  2.1986
   93SAPC   C23 8981   2.339   1.048   6.212  0.5921 -0.3665 -0.6115
   93SAPC   H3R 8982   2.275   0.958   6.204 -2.0958  1.4569 -1.1950
   93SAPC   H3S 8983   2.421   1.027   6.283  1.6532  1.7450 -1.1202
   93SAPC   C24 8984   2.389   1.071   6.069 -0.2835  0.0378 -0.1969
   93SAPC   H4R 8985   2.299   1.086   6.005 -0.2103  3.1894  0.2666
   93SAPC   H4S 8986   2.445   0.980   6.038 -0.8374 -0.5350  0.4728
   93SAPC   C25 8987   2.477   1.195   6.062 -0.1839  0.0535  0.1027
   93SAPC   H5R 8988   2.568   1.188   6.123  0.0363  0.4861 -0.1763
   93SAPC   C26 8989   2.447   1.308   6.002  0.1174  0.0506 -0.8870
   93SAPC   H6R 8990   2.524   1.386   5.992  0.3679  0.1867  1.5563
   93SAPC   C27 8991   2.315   1.338   5.934 -0.7717 -0.4232  0.1064
   93SAPC   H7R 8992   2.237   1.314   6.010 -1.3941  1.2147  0.0157
   93SAPC   H7S 8993   2.309   1.289   5.834 -2.0910 -1.6806  0.7507
   93SAPC   C28 8994   2.320   1.486   5.909  0.2355 -0.5425  0.4169
   93SAPC   H8R 8995   2.285   1.543   5.996 -0.3099 -0.6530  0.2743
   93SAPC   C29 8996   2.347   1.547   5.787  0.0480 -0.0203  0.2865
   93SAPC   H9R 8997   2.357   1.656   5.785 -2.2608  0.2255 -1.1572
   93SAPC  C210 8998   2.372   1.472   5.660 -0.2576  0.1666  0.0466
   93SAPC  H10R 8999   2.278   1.417   5.637  1.3058 -3.0858  0.8344
   93SAPC  H10S 9000   2.438   1.384   5.680 -2.7797 -2.1942 -1.2773
   93SAPC  C211 9001   2.433   1.538   5.537 -0.1665 -0.2718 -0.3472
   93SAPC  H11R 9002   2.533   1.503   5.507  1.0191 -0.9438  3.7252
   93SAPC  C212 9003   2.375   1.628   5.459  0.0430 -0.5361  0.6861
   93SAPC  H12R 9004   2.437   1.674   5.379 -1.0437  1.6363  1.0141
   93SAPC  C213 9005   2.233   1.676   5.476 -0.6720 -0.1910  0.5837
   93SAPC  H13R 9006   2.235   1.787   5.472  0.2890 -0.2071 -2.9058
   93SAPC  H13S 9007   2.195   1.658   5.579  1.7372  0.2425  1.6116
   93SAPC  C214 9008   2.146   1.601   5.381  0.5854 -0.7752  1.0325
   93SAPC  H14R 9009   2.116   1.503   5.420 -1.3967 -0.0127  1.5615
   93SAPC  C215 9010   2.110   1.640   5.255 -0.5333  0.4660  0.0974
   93SAPC  H15R 9011   2.030   1.582   5.206 -1.1666  2.1966 -1.0138
   93SAPC  C216 9012   2.141   1.772   5.196 -0.4047  0.7305 -0.0519
   93SAPC  H16R 9013   2.140   1.853   5.273 -1.3097  0.7343 -0.0536
   93SAPC  H16S 9014   2.064   1.806   5.124 -0.5934  0.9508  0.2518
   93SAPC  C217 9015   2.277   1.782   5.124 -0.6214 -0.1725 -0.2063
   93SAPC  H17R 9016   2.351   1.755   5.203 -0.9571  0.5190  0.3498
   93SAPC  H17S 9017   2.298   1.888   5.098  1.8431 -0.9451 -1.6902
   93SAPC  C218 9018   2.286   1.690   5.000  0.3464  0.0853  0.2186
   93SAPC  H18R 9019   2.205   1.711   4.927  1.5508  4.5386 -0.1553
   93SAPC  H18S 9020   2.269   1.586   5.036 -1.0748 -0.3176 -1.5209
   93SAPC  C219 9021   2.418   1.724   4.933  1.1631  0.0666 -0.1524
   93SAPC  H19R 9022   2.482   1.682   5.013  1.5962  0.7564 -0.1335
   93SAPC  H19S 9023   2.423   1.834   4.923 -0.3609  0.1714 -0.0064
   93SAPC  C220 9024   2.445   1.650   4.800 -0.1786  0.4906 -0.4274
   93SAPC  H20R 9025   2.444   1.539   4.811 -0.3560  0.4194 -1.1628
   93SAPC  H20S 9026   2.546   1.672   4.761 -1.1157  0.3793 -3.1085
   93SAPC  H20T 9027   2.371   1.665   4.719 -1.4411 -0.2835  0.5207
   93SAPC   C33 9028   1.735   1.157   6.019 -0.3867  0.1450  0.2093
   93SAPC   H3X 9029   1.824   1.092   6.031  0.5688  0.8730 -2.2981
   93SAPC   H3Y 9030   1.754   1.265   6.036 -1.0051  0.1120  1.1389
   93SAPC   C34 9031   1.674   1.142   5.879 -0.8683  0.0078  0.8846
   93SAPC   H4X 9032   1.752   1.159   5.801 -1.4865 -2.0423 -0.2714
   93SAPC   H4Y 9033   1.591   1.214   5.868 -0.8319 -0.2967 -2.7536
   93SAPC   C35 9034   1.623   1.004   5.843 -0.1715  0.3458 -0.1755
   93SAPC   H5X 9035   1.647   0.932   5.924 -0.7788 -0.6753 -0.8784
   93SAPC   H5Y 9036   1.691   0.967   5.763 -2.0889 -2.2337 -0.7110
   93SAPC   C36 9037   1.475   0.998   5.808 -0.5337 -0.8202  0.2043
   93SAPC   H6X 9038   1.434   1.061   5.889 -0.7550  0.0173 -0.5548
   93SAPC   H6Y 9039   1.440   0.896   5.834  0.5119 -0.6269  2.6646
   93SAPC   C37 9040   1.437   1.039   5.665 -0.1925  0.1516 -0.3194
   93SAPC   H7X 9041   1.478   1.140   5.642  0.6227  0.6236  2.6731
   93SAPC   H7Y 9042   1.326   1.045   5.656 -0.2824  0.3647  0.7514
   93SAPC   C38 9043   1.495   0.937   5.563  0.6333 -0.1255  0.1770
   93SAPC   H8X 9044   1.431   0.846   5.571  1.0688 -0.3941  0.7310
   93SAPC   H8Y 9045   1.598   0.906   5.588  0.3450 -0.2878  1.2309
   93SAPC   C39 9046   1.489   0.994   5.419  0.0337 -0.8931 -0.4403
   93SAPC   H9X 9047   1.575   1.064   5.409 -0.7349  0.4106  1.5457
   93SAPC   H9Y 9048   1.392   1.046   5.405  1.1281  0.8876 -1.8277
   93SAPC  C310 9049   1.493   0.873   5.321 -0.3781  0.1025  0.4521
   93SAPC  H10X 9050   1.395   0.821   5.324 -1.1957  1.5065 -0.7928
   93SAPC  H10Y 9051   1.579   0.804   5.332 -1.5555 -1.8535 -1.7185
   93SAPC  C311 9052   1.503   0.924   5.181 -0.0729  0.0293 -0.2896
   93SAPC  H11X 9053   1.589   0.995   5.174 -0.1145  0.2994  1.4844
   93SAPC  H11Y 9054   1.410   0.978   5.154  0.8897  1.5345 -0.7394
   93SAPC  C312 9055   1.522   0.816   5.073  0.1690  0.0571 -0.6580
   93SAPC  H12X 9056   1.430   0.757   5.058  1.2920 -1.2971 -2.8720
   93SAPC  H12Y 9057   1.598   0.746   5.115  1.0991 -0.5055 -3.0765
   93SAPC  C313 9058   1.587   0.874   4.938  0.1357 -0.6937 -0.1932
   93SAPC  H13X 9059   1.689   0.895   4.976  0.2713 -0.7772 -0.5072
   93SAPC  H13Y 9060   1.536   0.963   4.895  0.2993 -1.9844 -3.3914
   93SAPC  C314 9061   1.602   0.764   4.830  0.1639 -0.1433  0.4600
   93SAPC  H14X 9062   1.660   0.674   4.860 -0.8993 -1.1967 -0.5269
   93SAPC  H14Y 9063   1.671   0.816   4.760 -1.9396  3.1734  0.5843
   93SAPC  C315 9064   1.470   0.714   4.761 -0.0118 -1.0185 -0.3455
   93SAPC  H15X 9065   1.415   0.805   4.730  0.1783 -1.5788 -2.4754
   93SAPC  H15Y 9066   1.417   0.655   4.839 -1.3234 -0.1150 -0.5364
   93SAPC  C316 9067   1.489   0.634   4.633  0.0571  0.2445 -0.1024
   93SAPC  H16X 9068   1.395   0.606   4.581 -0.1014 -0.2664  0.4618
   93SAPC  H16Y 9069   1.541   0.541   4.664 -1.0161 -0.6056 -0.7810
   93SAPC  C317 9070   1.597   0.695   4.536 -0.2002  0.7734 -0.4693
   93SAPC  H17X 9071   1.696   0.681   4.584 -1.1887 -1.5158  1.0424
   93SAPC  H17Y 9072   1.583   0.804   4.515 -0.0763  0.8602 -0.1060
   93SAPC  C318 9073   1.606   0.617   4.406  0.6307  0.2699  0.8348
   93SAPC  H18X 9074   1.628   0.510   4.420 -0.2727 -0.1667 -0.7773
   93SAPC  H18Y 9075   1.681   0.663   4.338 -0.6598  2.3904  0.7551
   93SAPC  H18Z 9076   1.507   0.630   4.357  0.7769  0.2063  0.5187
   94SAPC     N 9077   6.128   1.182   6.972  0.0613 -0.1909 -0.0915
   94SAPC   C12 9078   6.146   1.277   6.853 -0.1887  0.6694  0.0946
   94SAPC  H12A 9079   6.249   1.309   6.861 -0.1371  0.4127  0.5210
   94SAPC  H12B 9080   6.093   1.371   6.862  0.0317  1.5220 -4.7695
   94SAPC   C13 9081   6.225   1.068   6.957  0.0375  0.2072 -0.3056
   94SAPC  H13A 9082   6.211   0.991   7.031 -3.5400  1.5486  0.6334
   94SAPC  H13B 9083   6.208   1.032   6.857 -0.6323  1.8550 -0.8296
   94SAPC  H13C 9084   6.325   1.105   6.976 -0.5772  1.1836  1.2115
   94SAPC   C14 9085   6.170   1.266   7.095 -0.4404 -0.0867  0.9680
   94SAPC  H14A 9086   6.275   1.289   7.092  0.0557 -1.9534  2.0243
   94SAPC  H14B 9087   6.113   1.358   7.091  0.1227  0.2564 -2.9474
   94SAPC  H14C 9088   6.157   1.215   7.190 -1.9068 -0.1810  0.7419
   94SAPC   C15 9089   5.994   1.122   6.990  0.4387 -0.2422 -0.3319
   94SAPC  H15A 9090   5.963   1.059   6.908 -0.2127 -1.0672  0.5349
   94SAPC  H15B 9091   5.987   1.057   7.076  1.4927  0.9088  0.6684
   94SAPC  H15C 9092   5.920   1.201   6.993  2.5719  1.9966 -1.9078
   94SAPC   C11 9093   6.119   1.220   6.711 -0.5158  0.1020 -0.9716
   94SAPC  H11A 9094   6.118   1.305   6.639  0.6093  1.9338  1.0392
   94SAPC  H11B 9095   6.020   1.171   6.711 -0.1566 -0.6569 -1.9022
   94SAPC     P 9096   6.368   1.194   6.645  0.4537 -0.3688  0.3089
   94SAPC   O13 9097   6.365   1.336   6.669 -0.6610  0.0735 -0.5959
   94SAPC   O14 9098   6.472   1.117   6.713 -0.4092  0.1102 -0.4158
   94SAPC   O12 9099   6.223   1.126   6.679  0.2852 -0.0116 -0.2397
   94SAPC   O11 9100   6.391   1.183   6.489 -0.0669 -0.0121 -0.0666
   94SAPC    C1 9101   6.401   1.051   6.441  1.1373  0.0511 -0.0006
   94SAPC    HA 9102   6.349   0.974   6.502  1.3408 -0.8121 -0.8808
   94SAPC    HB 9103   6.343   1.046   6.346  0.6146 -0.7735  0.3475
   94SAPC    C2 9104   6.550   1.004   6.421  0.3823 -0.1914  0.5645
   94SAPC    HS 9105   6.601   1.040   6.512 -3.0843 -0.9578  3.0336
   94SAPC   O21 9106   6.603   1.069   6.308  0.2575 -0.3051 -0.0433
   94SAPC   C21 9107   6.730   1.066   6.290 -0.0774 -0.1614  0.5943
   94SAPC   O22 9108   6.818   1.017   6.362  0.2288  0.0634  0.5821
   94SAPC   C22 9109   6.762   1.145   6.159 -0.5935  0.3130  0.2895
   94SAPC   H2R 9110   6.806   1.238   6.199  0.4998  0.3766 -0.9803
   94SAPC   H2S 9111   6.840   1.086   6.106  3.0235  2.3518  2.9416
   94SAPC    C3 9112   6.553   0.849   6.411  0.3816  0.3508  0.0250
   94SAPC    HX 9113   6.511   0.825   6.511  1.4691  0.9329  0.6421
   94SAPC    HY 9114   6.657   0.808   6.411  0.2638  0.0424  0.2654
   94SAPC   O31 9115   6.479   0.797   6.295 -0.1019 -0.2271  0.0601
   94SAPC   C31 9116   6.385   0.709   6.316  0.2268 -0.5739  0.0508
   94SAPC   O32 9117   6.362   0.663   6.427 -0.1256  0.7145 -0.1368
   94SAPC   C32 9118   6.314   0.678   6.185  0.1358  0.4482 -0.4135
   94SAPC   H2X 9119   6.216   0.632   6.210  1.1082 -1.5112 -0.0232
   94SAPC   H2Y 9120   6.375   0.601   6.135  0.2263  0.3761 -0.1952
   94SAPC   C23 9121   6.635   1.178   6.069 -0.3438 -0.1499  0.8070
   94SAPC   H3R 9122   6.563   1.234   6.133  0.3261  0.2763  1.2022
   94SAPC   H3S 9123   6.590   1.083   6.033  0.2156 -0.3414  0.6057
   94SAPC   C24 9124   6.670   1.274   5.955 -1.2280 -0.4613  0.3054
   94SAPC   H4R 9125   6.724   1.360   6.001 -0.7485  0.4142 -1.7686
   94SAPC   H4S 9126   6.576   1.306   5.906  0.3286  0.6393 -2.1887
   94SAPC   C25 9127   6.759   1.206   5.855 -0.0301  0.5385  0.1287
   94SAPC   H5R 9128   6.862   1.186   5.887 -0.0456  1.0559  0.5103
   94SAPC   C26 9129   6.718   1.162   5.734 -0.2686 -0.2076  0.6279
   94SAPC   H6R 9130   6.791   1.105   5.675  1.0481  0.8275  1.1838
   94SAPC   C27 9131   6.587   1.175   5.673 -0.3380  0.2122  0.4193
   94SAPC   H7R 9132   6.583   1.268   5.612 -2.7086 -0.3193 -0.3277
   94SAPC   H7S 9133   6.500   1.181   5.740 -1.7480  1.7078 -1.4399
   94SAPC   C28 9134   6.568   1.056   5.580  0.0240  0.4754  0.5409
   94SAPC   H8R 9135   6.537   0.964   5.632  2.0555  0.0235  1.0411
   94SAPC   C29 9136   6.577   1.063   5.448  0.0943  0.5573 -0.0116
   94SAPC   H9R 9137   6.559   0.974   5.385  2.2445  1.1355 -1.5474
   94SAPC  C210 9138   6.608   1.180   5.357  0.5409 -0.3917  0.4164
   94SAPC  H10R 9139   6.649   1.269   5.408 -0.1723 -0.8615  1.8987
   94SAPC  H10S 9140   6.509   1.211   5.318  0.8048  1.5701  1.2064
   94SAPC  C211 9141   6.692   1.144   5.242  0.3121  0.4276  1.1642
   94SAPC  H11R 9142   6.649   1.069   5.174  0.2189 -0.2144  1.9188
   94SAPC  C212 9143   6.823   1.189   5.223  0.8267  0.4529  0.2024
   94SAPC  H12R 9144   6.874   1.153   5.132  1.0676  0.6984  0.2382
   94SAPC  C213 9145   6.910   1.286   5.303  0.0111 -0.2408 -0.4169
   94SAPC  H13R 9146   6.852   1.381   5.299  1.8952  0.9502 -0.5420
   94SAPC  H13S 9147   7.006   1.306   5.251  0.3768 -2.9070 -0.9564
   94SAPC  C214 9148   6.932   1.263   5.451 -0.1234  0.1518  0.8125
   94SAPC  H14R 9149   6.860   1.302   5.525  1.3100 -0.8950  2.8772
   94SAPC  C215 9150   7.032   1.195   5.506  0.0941  0.6640 -0.2133
   94SAPC  H15R 9151   7.037   1.178   5.615  0.3035 -3.0152 -0.6765
   94SAPC  C216 9152   7.137   1.117   5.423 -0.8213  0.2510 -0.2487
   94SAPC  H16R 9153   7.152   1.181   5.334  1.1344  0.4956  0.2118
   94SAPC  H16S 9154   7.088   1.024   5.388 -0.3646  0.1945 -0.7468
   94SAPC  C217 9155   7.259   1.073   5.498  0.0628  0.0538  0.3499
   94SAPC  H17R 9156   7.236   1.025   5.595 -0.8555  0.2083  0.2154
   94SAPC  H17S 9157   7.323   1.159   5.526  0.7344 -0.3584  0.0925
   94SAPC  C218 9158   7.344   0.963   5.425  0.2905 -0.4354 -0.2582
   94SAPC  H18R 9159   7.390   1.004   5.332  1.7346 -2.7303 -0.6479
   94SAPC  H18S 9160   7.278   0.879   5.394 -1.2187  0.5869  0.0643
   94SAPC  C219 9161   7.463   0.899   5.509  0.0702  0.2179 -0.2041
   94SAPC  H19R 9162   7.527   0.984   5.542  0.0440  0.5893 -1.0846
   94SAPC  H19S 9163   7.519   0.846   5.430 -0.2208 -0.7807  0.2395
   94SAPC  C220 9164   7.418   0.819   5.627  0.7074 -0.4226  0.1400
   94SAPC  H20R 9165   7.326   0.764   5.600 -0.2016  0.8809  0.5353
   94SAPC  H20S 9166   7.390   0.892   5.707  2.0083  1.9023 -1.4060
   94SAPC  H20T 9167   7.503   0.754   5.659 -0.6825 -0.2606  4.9349
   94SAPC   C33 9168   6.286   0.798   6.095 -0.7134  0.2006  0.4244
   94SAPC   H3X 9169   6.246   0.880   6.158 -0.2956 -0.9538  2.2768
   94SAPC   H3Y 9170   6.204   0.753   6.035 -1.6610 -1.2119  2.6526
   94SAPC   C34 9171   6.396   0.840   5.994  0.5514 -0.5369  0.3024
   94SAPC   H4X 9172   6.492   0.840   6.050  1.5654  0.8536 -1.3554
   94SAPC   H4Y 9173   6.383   0.944   5.958 -0.4308 -1.1494 -1.2339
   94SAPC   C35 9174   6.402   0.755   5.864 -0.3080 -0.0928  0.6536
   94SAPC   H5X 9175   6.375   0.649   5.887  1.2308 -0.5360  0.5358
   94SAPC   H5Y 9176   6.500   0.768   5.812 -0.3380  1.2969  0.9121
   94SAPC   C36 9177   6.303   0.810   5.757 -0.6176  0.8066 -0.0387
   94SAPC   H6X 9178   6.301   0.920   5.742 -1.0575  0.7767 -0.2041
   94SAPC   H6Y 9179   6.199   0.779   5.782 -0.6259 -0.4252 -1.4762
   94SAPC   C37 9180   6.335   0.747   5.620 -0.0067  0.1361  0.1130
   94SAPC   H7X 9181   6.335   0.636   5.616  0.6549  0.1061  0.7125
   94SAPC   H7Y 9182   6.428   0.784   5.571  1.4091  0.5187  2.8906
   94SAPC   C38 9183   6.221   0.786   5.516 -0.4589 -0.6331 -0.1947
   94SAPC   H8X 9184   6.224   0.896   5.512  2.9357 -0.6077  0.3041
   94SAPC   H8Y 9185   6.130   0.747   5.567  0.2549 -0.9633  0.8731
   94SAPC   C39 9186   6.235   0.703   5.384 -0.6799  0.1081  0.4366
   94SAPC   H9X 9187   6.142   0.710   5.323 -1.3822  1.4590  1.5738
   94SAPC   H9Y 9188   6.252   0.595   5.398  2.2102  0.2472 -1.2388
   94SAPC  C310 9189   6.342   0.750   5.284 -0.1971  0.3743 -0.0154
   94SAPC  H10X 9190   6.439   0.741   5.338 -0.9402  1.1236  1.5121
   94SAPC  H10Y 9191   6.336   0.858   5.261 -1.3460  0.2945 -0.1091
   94SAPC  C311 9192   6.346   0.664   5.158  0.0395 -0.1479  0.0806
   94SAPC  H11X 9193   6.348   0.555   5.181  1.2032  0.1504  1.5519
   94SAPC  H11Y 9194   6.447   0.683   5.116  0.2980 -2.0194 -0.2094
   94SAPC  C312 9195   6.226   0.695   5.068 -0.1502 -1.2292  0.3119
   94SAPC  H12X 9196   6.200   0.802   5.083  1.2962 -0.8627  0.2870
   94SAPC  H12Y 9197   6.141   0.630   5.099 -1.5250 -0.4265 -1.5542
   94SAPC  C313 9198   6.252   0.677   4.921  0.1936  0.4022 -0.7125
   94SAPC  H13X 9199   6.322   0.759   4.896  0.4399  0.3966 -0.0693
   94SAPC  H13Y 9200   6.162   0.688   4.857  0.6454  0.9440 -1.2640
   94SAPC  C314 9201   6.304   0.539   4.889 -1.2993  0.0556 -0.3755
   94SAPC  H14X 9202   6.218   0.473   4.915 -0.6102  0.0891  2.2950
   94SAPC  H14Y 9203   6.383   0.509   4.961 -2.3500  0.4199  0.9867
   94SAPC  C315 9204   6.335   0.531   4.744  0.2578  0.1114 -0.3868
   94SAPC  H15X 9205   6.422   0.594   4.718 -1.7795  1.9048 -3.6160
   94SAPC  H15Y 9206   6.250   0.578   4.689 -0.1610  1.3745  1.2417
   94SAPC  C316 9207   6.361   0.388   4.704 -0.4008  0.3410  0.5224
   94SAPC  H16X 9208   6.265   0.337   4.684  0.4045 -0.9749 -0.1570
   94SAPC  H16Y 9209   6.414   0.341   4.790 -0.8053  2.8047  2.2282
   94SAPC  C317 9210   6.431   0.376   4.565  0.2014 -0.0485 -0.2610
   94SAPC  H17X 9211   6.422   0.270   4.532 -2.8053  0.0530 -0.0869
   94SAPC  H17Y 9212   6.533   0.418   4.559 -0.1930  0.7421 -2.8828
   94SAPC  C318 9213   6.351   0.451   4.453  0.1043  0.4949 -0.1678
   94SAPC  H18X 9214   6.356   0.562   4.450  1.0864  0.4394 -1.2769
   94SAPC  H18Y 9215   6.244   0.425   4.463 -0.1380  1.8918  1.5508
   94SAPC  H18Z 9216   6.390   0.425   4.353  0.3030 -1.4800  0.3871
   95SAPC     N 9217   6.520   5.040   2.466  0.3952 -0.0284  0.8215
   95SAPC   C12 9218   6.490   5.071   2.609 -0.0288  0.6732  0.3368
   95SAPC  H12A 9219   6.473   5.174   2.635 -0.6356  0.3219  1.3771
   95SAPC  H12B 9220   6.579   5.060   2.670  0.6196  3.7591  0.1094
   95SAPC   C13 9221   6.400   5.060   2.383 -0.0362  0.4903 -0.1255
   95SAPC  H13A 9222   6.367   5.163   2.384 -1.7238 -0.0227  0.3508
   95SAPC  H13B 9223   6.405   5.036   2.277  2.2957  1.7082 -0.3456
   95SAPC  H13C 9224   6.323   4.995   2.423  0.2827  1.3699  2.0048
   95SAPC   C14 9225   6.631   5.129   2.409  0.4445 -0.6420 -0.7177
   95SAPC  H14A 9226   6.592   5.228   2.391  2.7264  0.3278 -0.6546
   95SAPC  H14B 9227   6.718   5.147   2.470  0.6681  0.6723 -1.4038
   95SAPC  H14C 9228   6.667   5.092   2.315  0.7268  2.4776 -1.9479
   95SAPC   C15 9229   6.571   4.905   2.443  0.1969  0.2091 -0.3653
   95SAPC  H15A 9230   6.654   4.899   2.511 -1.9333  2.3463  2.6996
   95SAPC  H15B 9231   6.495   4.832   2.470 -0.8878  1.7562  0.9156
   95SAPC  H15C 9232   6.589   4.882   2.339 -1.2896 -1.7397 -0.2639
   95SAPC   C11 9233   6.366   4.996   2.673 -0.2857 -0.2213 -0.1280
   95SAPC  H11A 9234   6.370   5.009   2.783 -0.2645 -1.5845  0.0519
   95SAPC  H11B 9235   6.378   4.886   2.657  0.2246 -0.1374 -0.3454
   95SAPC     P 9236   6.166   5.159   2.686  0.2086 -0.0064  0.0829
   95SAPC   O13 9237   6.267   5.263   2.689 -0.2484 -0.6779 -0.0500
   95SAPC   O14 9238   6.035   5.188   2.623  0.3578 -0.6656  0.1329
   95SAPC   O12 9239   6.240   5.032   2.618 -0.4464 -0.4114 -0.4106
   95SAPC   O11 9240   6.142   5.098   2.835  0.5168 -0.3850 -0.1808
   95SAPC    C1 9241   6.068   4.980   2.858  0.0163 -0.7135  0.3889
   95SAPC    HA 9242   6.045   4.921   2.767 -1.2038 -1.2108  0.9884
   95SAPC    HB 9243   6.136   4.915   2.917 -1.1252 -1.7922  0.5748
   95SAPC    C2 9244   5.945   5.006   2.938 -0.1717 -0.2171  0.5917
   95SAPC    HS 9245   5.862   5.048   2.877 -1.8645 -1.3831  1.9759
   95SAPC   O21 9246   5.975   5.088   3.047 -0.5512 -0.3611 -1.0383
   95SAPC   C21 9247   5.961   5.220   3.016  0.0071 -0.5912  0.4345
   95SAPC   O22 9248   5.898   5.259   2.921  0.0010 -0.1745 -0.6863
   95SAPC   C22 9249   6.026   5.301   3.133  0.3380 -0.3471  0.4938
   95SAPC   H2R 9250   5.958   5.290   3.220 -1.5304 -2.3602 -1.1127
   95SAPC   H2S 9251   6.122   5.250   3.158  0.5277 -0.7614 -0.9817
   95SAPC    C3 9252   5.885   4.869   2.982  0.4019  0.2008 -1.0041
   95SAPC    HX 9253   5.972   4.806   3.013  0.4106 -1.2819 -3.6958
   95SAPC    HY 9254   5.835   4.828   2.892  0.2611  0.0620 -0.8626
   95SAPC   O31 9255   5.787   4.894   3.085  0.4998 -0.6858 -0.3204
   95SAPC   C31 9256   5.754   4.797   3.169 -0.1360  0.5690  0.0650
   95SAPC   O32 9257   5.798   4.684   3.170 -0.1134 -0.6665  0.4743
   95SAPC   C32 9258   5.652   4.847   3.272 -0.1473 -0.2932  0.1667
   95SAPC   H2X 9259   5.587   4.923   3.224  0.6722 -0.8886 -1.9965
   95SAPC   H2Y 9260   5.711   4.909   3.343  0.6970 -0.1662 -0.6314
   95SAPC   C23 9261   6.051   5.455   3.102  0.5664  0.9288 -0.0705
   95SAPC   H3R 9262   5.954   5.505   3.082 -0.4878 -0.5682  1.1075
   95SAPC   H3S 9263   6.101   5.456   3.003 -0.8495 -1.4868 -0.8753
   95SAPC   C24 9264   6.129   5.528   3.211 -0.2627  0.1436 -0.1251
   95SAPC   H4R 9265   6.073   5.518   3.306  0.1303 -1.4669 -0.0236
   95SAPC   H4S 9266   6.144   5.635   3.186  0.1839 -0.0277 -0.6241
   95SAPC   C25 9267   6.252   5.441   3.245 -0.1241  0.8579 -0.4710
   95SAPC   H5R 9268   6.277   5.365   3.170  0.4426  0.8597 -0.2891
   95SAPC   C26 9269   6.333   5.460   3.348  1.2851 -0.9749 -0.5115
   95SAPC   H6R 9270   6.418   5.392   3.369  2.3349  0.9933  2.1248
   95SAPC   C27 9271   6.324   5.579   3.446 -0.4323  0.4740  0.1354
   95SAPC   H7R 9272   6.300   5.538   3.546  0.2230  0.3843  0.2548
   95SAPC   H7S 9273   6.240   5.650   3.428 -0.9627 -0.6540 -2.2066
   95SAPC   C28 9274   6.460   5.650   3.447  0.1726  0.0592  0.2856
   95SAPC   H8R 9275   6.494   5.686   3.349 -0.5887  0.5686  0.1995
   95SAPC   C29 9276   6.548   5.666   3.547  0.4859 -0.0023  0.5351
   95SAPC   H9R 9277   6.642   5.721   3.530  1.0344 -0.7680  1.0622
   95SAPC  C210 9278   6.536   5.625   3.687  0.2156  0.2351 -0.0801
   95SAPC  H10R 9279   6.633   5.626   3.741 -0.8063 -1.2319  1.8876
   95SAPC  H10S 9280   6.494   5.523   3.683 -0.2773  0.4680 -1.6535
   95SAPC  C211 9281   6.453   5.714   3.778 -0.3392  0.2322  0.4713
   95SAPC  H11R 9282   6.411   5.807   3.737 -2.0561 -0.0435  1.5095
   95SAPC  C212 9283   6.413   5.678   3.900  0.2684  0.4154 -0.6231
   95SAPC  H12R 9284   6.368   5.760   3.958 -0.2074 -0.8473  0.8552
   95SAPC  C213 9285   6.439   5.543   3.964  0.1024 -0.3976 -0.1778
   95SAPC  H13R 9286   6.459   5.557   4.073 -0.2390 -0.0431 -0.1576
   95SAPC  H13S 9287   6.530   5.499   3.919 -0.7563 -2.0739 -0.3448
   95SAPC  C214 9288   6.324   5.451   3.943  0.1957  0.2547 -0.3178
   95SAPC  H14R 9289   6.241   5.502   3.892 -0.4779 -0.4629  0.0276
   95SAPC  C215 9290   6.310   5.317   3.971 -0.2845 -0.4039  0.0877
   95SAPC  H15R 9291   6.218   5.270   3.935 -0.6927  0.5156 -0.0844
   95SAPC  C216 9292   6.413   5.223   4.033  0.8807 -0.1926  0.1418
   95SAPC  H16R 9293   6.519   5.251   4.019  0.4972  1.6782  0.6649
   95SAPC  H16S 9294   6.406   5.120   3.992 -0.0752 -1.1336  2.4716
   95SAPC  C217 9295   6.387   5.212   4.187 -0.2220  0.9716  0.0620
   95SAPC  H17R 9296   6.282   5.190   4.216  1.1000 -2.4549  2.9529
   95SAPC  H17S 9297   6.428   5.304   4.233  0.7223  1.5093 -1.7366
   95SAPC  C218 9298   6.470   5.091   4.231 -0.7826 -0.2979 -0.6460
   95SAPC  H18R 9299   6.572   5.130   4.211 -0.7169 -1.0800 -1.9456
   95SAPC  H18S 9300   6.447   5.000   4.172 -1.6147 -1.7174  1.7382
   95SAPC  C219 9301   6.477   5.061   4.384  0.0362  0.5316 -0.5453
   95SAPC  H19R 9302   6.503   5.152   4.443 -0.1902 -0.3996  1.0496
   95SAPC  H19S 9303   6.559   4.990   4.405  0.0554  0.3793 -1.1242
   95SAPC  C220 9304   6.348   5.000   4.423  1.3102 -0.9040 -0.1948
   95SAPC  H20R 9305   6.347   4.973   4.531 -2.5117 -0.1527  0.1000
   95SAPC  H20S 9306   6.338   4.900   4.375 -1.4615 -0.6637 -0.2679
   95SAPC  H20T 9307   6.256   5.059   4.406  1.1727 -0.8758  0.6095
   95SAPC   C33 9308   5.594   4.730   3.350  0.2504 -1.4599  0.4293
   95SAPC   H3X 9309   5.664   4.645   3.363  1.7889 -0.0491  1.8014
   95SAPC   H3Y 9310   5.500   4.693   3.302 -0.0974  0.3533 -0.3590
   95SAPC   C34 9311   5.558   4.785   3.480 -0.8130  0.3989 -0.4323
   95SAPC   H4X 9312   5.524   4.888   3.457 -0.2571  0.2262 -2.1670
   95SAPC   H4Y 9313   5.641   4.798   3.553 -0.6795 -3.4999  0.3113
   95SAPC   C35 9314   5.453   4.718   3.560  0.2301  0.4455  0.7182
   95SAPC   H5X 9315   5.471   4.609   3.576 -0.9871 -0.1644 -1.5817
   95SAPC   H5Y 9316   5.365   4.721   3.492  0.0981  1.2577  0.9139
   95SAPC   C36 9317   5.415   4.797   3.683 -0.1111 -0.5533 -0.3290
   95SAPC   H6X 9318   5.382   4.899   3.657 -1.7946 -0.4976  1.7628
   95SAPC   H6Y 9319   5.505   4.810   3.747 -1.0903  0.6436  0.8589
   95SAPC   C37 9320   5.315   4.723   3.765 -0.6375  0.5905 -0.0070
   95SAPC   H7X 9321   5.350   4.620   3.787 -1.3429 -0.1370 -1.9924
   95SAPC   H7Y 9322   5.225   4.711   3.701 -0.2365  0.4034 -0.5421
   95SAPC   C38 9323   5.278   4.796   3.894 -0.1690 -0.6447  0.1512
   95SAPC   H8X 9324   5.247   4.898   3.863  2.0185 -0.5896 -2.2129
   95SAPC   H8Y 9325   5.364   4.820   3.961  0.5375 -0.7416 -0.6946
   95SAPC   C39 9326   5.167   4.734   3.974 -0.2251  0.1277 -0.3128
   95SAPC   H9X 9327   5.203   4.632   3.999  0.0271 -0.0466 -1.3648
   95SAPC   H9Y 9328   5.078   4.730   3.909 -2.5541  1.7408  2.5261
   95SAPC  C310 9329   5.146   4.795   4.115 -0.2420 -0.6989  0.3744
   95SAPC  H10X 9330   5.108   4.897   4.091  2.7586 -0.0983 -2.5287
   95SAPC  H10Y 9331   5.245   4.804   4.164  0.3335 -0.6664 -0.7724
   95SAPC  C311 9332   5.050   4.714   4.203 -0.2436  0.1051  0.0278
   95SAPC  H11X 9333   5.077   4.608   4.181 -0.3533 -0.2082  1.3359
   95SAPC  H11Y 9334   4.947   4.729   4.164 -0.1304 -0.9194 -0.7119
   95SAPC  C312 9335   5.046   4.744   4.357 -0.3249 -0.7038 -0.1801
   95SAPC  H12X 9336   4.989   4.833   4.391  0.2281 -0.5630  0.3834
   95SAPC  H12Y 9337   5.152   4.754   4.388  0.4103 -2.3143 -1.9912
   95SAPC  C313 9338   4.989   4.629   4.438  0.4013 -0.3210  0.2254
   95SAPC  H13X 9339   5.066   4.563   4.483  1.0089  0.2923  0.0924
   95SAPC  H13Y 9340   4.931   4.572   4.362 -2.4133  1.4722  0.8795
   95SAPC  C314 9341   4.885   4.661   4.542  0.1135 -0.7103 -0.8030
   95SAPC  H14X 9342   4.824   4.749   4.513  0.5264  0.2118  0.9617
   95SAPC  H14Y 9343   4.937   4.683   4.638  0.3121 -1.1234 -0.8119
   95SAPC  C315 9344   4.775   4.559   4.573  0.4412  0.0020  0.0207
   95SAPC  H15X 9345   4.730   4.592   4.669  2.2270 -1.4585  1.4294
   95SAPC  H15Y 9346   4.816   4.460   4.600 -2.0794 -0.3833  2.9463
   95SAPC  C316 9347   4.672   4.553   4.455 -0.0694  0.4116 -0.6667
   95SAPC  H16X 9348   4.735   4.523   4.369  0.3526  1.5317 -0.7657
   95SAPC  H16Y 9349   4.637   4.656   4.434 -1.3236  0.1099 -0.1108
   95SAPC  C317 9350   4.540   4.476   4.489  1.1003 -0.4879  0.3956
   95SAPC  H17X 9351   4.507   4.519   4.586  1.7831  1.5557 -0.2304
   95SAPC  H17Y 9352   4.575   4.371   4.504 -0.1567 -0.9244  0.3352
   95SAPC  C318 9353   4.426   4.501   4.389  0.4608  0.1741  0.1114
   95SAPC  H18X 9354   4.395   4.605   4.414 -0.9836  0.0324 -0.9614
   95SAPC  H18Y 9355   4.344   4.427   4.389  2.7901 -2.6517 -1.3709
   95SAPC  H18Z 9356   4.465   4.513   4.285  2.4885  1.2376  0.9367
   96SAPC     N 9357   6.518   6.495   2.857 -0.0554  0.5541  0.2324
   96SAPC   C12 9358   6.461   6.407   2.966  0.2156 -0.2974 -0.2265
   96SAPC  H12A 9359   6.362   6.439   2.995  0.6076 -0.3448  1.2281
   96SAPC  H12B 9360   6.526   6.413   3.052 -0.1969  0.4516  0.0428
   96SAPC   C13 9361   6.418   6.502   2.747 -0.2800  0.2274 -0.1396
   96SAPC  H13A 9362   6.463   6.562   2.669  0.9250  1.2142  1.2530
   96SAPC  H13B 9363   6.399   6.404   2.708  1.2311  1.3676 -4.2034
   96SAPC  H13C 9364   6.327   6.544   2.786 -0.3356 -0.9896  1.1048
   96SAPC   C14 9365   6.563   6.624   2.916 -0.0576  0.2399 -0.0044
   96SAPC  H14A 9366   6.637   6.608   2.994 -1.0427  0.4085  0.9898
   96SAPC  H14B 9367   6.601   6.686   2.836 -0.4548  0.1380 -0.2733
   96SAPC  H14C 9368   6.478   6.680   2.952 -1.8532 -1.8552 -0.7738
   96SAPC   C15 9369   6.639   6.422   2.805  0.2353 -0.2542  0.2511
   96SAPC  H15A 9370   6.625   6.322   2.767  0.1410 -0.4478  0.7934
   96SAPC  H15B 9371   6.682   6.488   2.731 -2.2186 -0.3072 -1.3374
   96SAPC  H15C 9372   6.724   6.408   2.870  0.4661 -3.2602 -0.5644
   96SAPC   C11 9373   6.430   6.255   2.946  0.2969 -0.1647  0.9456
   96SAPC  H11A 9374   6.376   6.227   3.039 -1.0356  0.7265  0.4658
   96SAPC  H11B 9375   6.526   6.199   2.934  1.6279  1.6732  2.3998
   96SAPC     P 9376   6.200   6.233   2.818  0.4211 -0.5681 -0.5522
   96SAPC   O13 9377   6.149   6.367   2.817  0.8477 -0.5157 -0.6381
   96SAPC   O14 9378   6.149   6.150   2.709  0.1558 -0.3537 -0.0164
   96SAPC   O12 9379   6.354   6.232   2.820 -0.1061 -0.2600 -0.2905
   96SAPC   O11 9380   6.156   6.160   2.951  0.2425 -0.6959  0.0338
   96SAPC    C1 9381   6.182   6.026   2.986 -1.1201  0.5766 -0.3503
   96SAPC    HA 9382   6.160   5.951   2.907  0.9840  0.0907 -0.5215
   96SAPC    HB 9383   6.292   6.014   2.999 -1.0564  0.1897 -1.1797
   96SAPC    C2 9384   6.125   5.980   3.124  0.2551  0.0143 -0.7148
   96SAPC    HS 9385   6.102   5.872   3.118  0.2919  0.0407 -1.4249
   96SAPC   O21 9386   6.015   6.059   3.182  1.0310  0.2287 -0.6200
   96SAPC   C21 9387   5.907   6.077   3.113  0.3161  0.3156 -0.0783
   96SAPC   O22 9388   5.884   6.032   3.006  0.1118 -0.0320  0.2111
   96SAPC   C22 9389   5.810   6.162   3.208 -0.0244 -0.2673  0.8763
   96SAPC   H2R 9390   5.774   6.095   3.289 -0.2246  0.7811  1.6838
   96SAPC   H2S 9391   5.863   6.249   3.253  1.3704 -1.0038  0.7023
   96SAPC    C3 9392   6.237   5.985   3.230  0.6991  0.1100  0.3017
   96SAPC    HX 9393   6.253   6.095   3.229 -1.1462  0.4183 -1.4342
   96SAPC    HY 9394   6.322   5.926   3.186 -0.1568 -1.4884  0.7055
   96SAPC   O31 9395   6.190   5.924   3.355 -0.7807 -0.3934 -0.3691
   96SAPC   C31 9396   6.223   5.992   3.466 -0.7099 -0.3907 -0.3753
   96SAPC   O32 9397   6.278   6.101   3.461 -0.5031  0.0787 -0.1961
   96SAPC   C32 9398   6.142   5.927   3.579  0.4220 -0.3202  0.1258
   96SAPC   H2X 9399   6.183   5.824   3.588  2.1963  0.2894 -0.6117
   96SAPC   H2Y 9400   6.033   5.927   3.556 -0.3086 -0.4064  3.1283
   96SAPC   C23 9401   5.676   6.208   3.142 -0.2882  0.3010  0.2695
   96SAPC   H3R 9402   5.639   6.131   3.071  3.2067 -2.1025  0.7917
   96SAPC   H3S 9403   5.692   6.294   3.074  1.8910 -0.8939 -0.8629
   96SAPC   C24 9404   5.579   6.238   3.258 -0.0687 -0.8170 -0.4579
   96SAPC   H4R 9405   5.493   6.299   3.222 -0.9985 -1.3940  0.7078
   96SAPC   H4S 9406   5.635   6.309   3.323  0.0949  0.2098 -1.6774
   96SAPC   C25 9407   5.521   6.128   3.343 -0.7469 -0.5663 -0.3871
   96SAPC   H5R 9408   5.475   6.051   3.280 -0.3525 -1.3187  0.2201
   96SAPC   C26 9409   5.524   6.120   3.479  0.4332  0.4284 -1.2142
   96SAPC   H6R 9410   5.475   6.031   3.520  1.4207  0.0905 -0.7290
   96SAPC   C27 9411   5.589   6.212   3.580  0.2852  0.1818  0.0520
   96SAPC   H7R 9412   5.531   6.219   3.674  1.8735  1.7576  0.9706
   96SAPC   H7S 9413   5.575   6.319   3.553  0.8821  0.2858  0.1502
   96SAPC   C28 9414   5.734   6.178   3.599  0.4498  0.0301 -0.3457
   96SAPC   H8R 9415   5.797   6.204   3.513  0.4158  1.7849  0.1000
   96SAPC   C29 9416   5.797   6.134   3.710  0.5896  0.2951 -0.1447
   96SAPC   H9R 9417   5.895   6.086   3.693 -0.0393 -0.8031 -0.8017
   96SAPC  C210 9418   5.717   6.105   3.837 -0.1182  0.3578  0.1356
   96SAPC  H10R 9419   5.771   6.026   3.893 -0.5059  0.6759  0.9696
   96SAPC  H10S 9420   5.619   6.067   3.801  0.5751  0.9362 -2.6709
   96SAPC  C211 9421   5.697   6.226   3.929 -0.2816 -0.3588 -0.2769
   96SAPC  H11R 9422   5.726   6.322   3.884 -0.0273  0.7136  2.0216
   96SAPC  C212 9423   5.653   6.207   4.054 -0.1994  0.0388  0.6425
   96SAPC  H12R 9424   5.666   6.294   4.121  2.4186  0.6093 -0.4599
   96SAPC  C213 9425   5.610   6.075   4.122 -0.6329 -0.3211 -0.1906
   96SAPC  H13R 9426   5.574   5.999   4.049 -0.2887 -1.1840  0.5240
   96SAPC  H13S 9427   5.530   6.099   4.194 -1.9101 -2.0418 -0.9584
   96SAPC  C214 9428   5.729   6.014   4.190 -0.4238  0.1554 -0.0737
   96SAPC  H14R 9429   5.798   5.984   4.110 -1.1191  0.2992 -0.7435
   96SAPC  C215 9430   5.766   6.009   4.321 -0.1614 -0.0649  0.1456
   96SAPC  H15R 9431   5.866   5.971   4.347  0.2852  1.8499  1.4519
   96SAPC  C216 9432   5.684   6.059   4.440 -1.2623  0.9216 -0.0448
   96SAPC  H16R 9433   5.583   6.096   4.412 -1.7652  0.1148  0.6724
   96SAPC  H16S 9434   5.723   6.147   4.495  0.4208 -1.3480  2.6553
   96SAPC  C217 9435   5.659   5.948   4.536  0.2640  0.0261  0.7703
   96SAPC  H17R 9436   5.636   5.854   4.481  0.5456  0.7602 -0.6585
   96SAPC  H17S 9437   5.576   5.974   4.605 -0.8581 -0.7172 -0.2470
   96SAPC  C218 9438   5.782   5.933   4.627 -0.1170 -0.0593 -0.1515
   96SAPC  H18R 9439   5.771   6.010   4.706 -1.5263 -1.3953  1.0197
   96SAPC  H18S 9440   5.878   5.960   4.578  1.5902 -0.3437  2.7854
   96SAPC  C219 9441   5.818   5.794   4.696 -0.1116  0.3536 -0.0383
   96SAPC  H19R 9442   5.748   5.771   4.779  0.1351  3.8762  1.3463
   96SAPC  H19S 9443   5.919   5.807   4.740 -0.0671 -0.3961  0.0899
   96SAPC  C220 9444   5.829   5.681   4.595  0.2928 -0.3950 -0.4874
   96SAPC  H20R 9445   5.892   5.597   4.631 -1.1379 -1.4003 -0.2213
   96SAPC  H20S 9446   5.871   5.710   4.496  0.1745 -2.2133 -1.1066
   96SAPC  H20T 9447   5.722   5.649   4.601  0.7121 -1.5788  2.8623
   96SAPC   C33 9448   6.149   5.991   3.722 -0.0061 -0.1061 -0.3067
   96SAPC   H3X 9449   6.107   6.093   3.716 -0.1036 -0.1397 -0.1970
   96SAPC   H3Y 9450   6.255   6.006   3.753 -0.4259  1.1498  0.5921
   96SAPC   C34 9451   6.084   5.891   3.824  1.1586 -0.4258  0.3799
   96SAPC   H4X 9452   6.121   5.787   3.808 -0.5631 -1.2794  1.6636
   96SAPC   H4Y 9453   5.975   5.896   3.802  0.8636 -2.7807  1.0651
   96SAPC   C35 9454   6.089   5.940   3.969 -0.1887 -0.5691  0.0480
   96SAPC   H5X 9455   6.024   6.028   3.989 -0.8882 -1.4983  2.2103
   96SAPC   H5Y 9456   6.197   5.964   3.981  0.0284 -0.9167 -1.1105
   96SAPC   C36 9457   6.054   5.825   4.074  0.1318 -0.5668 -0.7496
   96SAPC   H6X 9458   6.106   5.733   4.040  1.5675 -0.5281  1.1483
   96SAPC   H6Y 9459   5.945   5.806   4.065 -0.3105 -0.3800  2.7852
   96SAPC   C37 9460   6.086   5.860   4.219  0.0678  0.2042 -0.2438
   96SAPC   H7X 9461   6.031   5.952   4.249 -0.4891 -0.1882 -0.0621
   96SAPC   H7Y 9462   6.196   5.871   4.235  0.1238 -0.3924 -0.1957
   96SAPC   C38 9463   6.040   5.752   4.310  0.0947  0.3899  0.2605
   96SAPC   H8X 9464   5.938   5.715   4.286 -0.0840  0.3371  1.0694
   96SAPC   H8Y 9465   6.023   5.803   4.407  0.9177  0.5543  0.3203
   96SAPC   C39 9466   6.140   5.637   4.325 -0.2891 -0.2016 -1.2176
   96SAPC   H9X 9467   6.239   5.677   4.357 -0.9275 -0.4423  1.3037
   96SAPC   H9Y 9468   6.155   5.581   4.231  0.6136 -1.1778 -0.5187
   96SAPC  C310 9469   6.096   5.529   4.431 -0.3915  0.2160 -0.6335
   96SAPC  H10X 9470   5.991   5.501   4.407 -0.5985  1.0945 -0.7853
   96SAPC  H10Y 9471   6.089   5.577   4.531  1.7638 -0.5967 -0.0519
   96SAPC  C311 9472   6.204   5.416   4.437  0.0418 -0.1547 -0.2722
   96SAPC  H11X 9473   6.304   5.464   4.439  0.9893 -2.0050  2.4165
   96SAPC  H11Y 9474   6.188   5.373   4.336  1.4354  0.5756 -0.8319
   96SAPC  C312 9475   6.187   5.323   4.552  0.3721  0.4477 -0.3633
   96SAPC  H12X 9476   6.206   5.375   4.648 -2.6799  1.1920 -0.0735
   96SAPC  H12Y 9477   6.260   5.240   4.536 -1.3573 -1.2958  0.4299
   96SAPC  C313 9478   6.048   5.268   4.566  0.4376  0.4338  0.0821
   96SAPC  H13X 9479   6.035   5.213   4.470  0.3694 -0.4624  0.5915
   96SAPC  H13Y 9480   5.976   5.352   4.569  0.7682  0.7030  0.5002
   96SAPC  C314 9481   6.033   5.168   4.686 -0.8956 -0.7936 -0.0021
   96SAPC  H14X 9482   6.047   5.228   4.779  0.2395  0.5545 -1.0008
   96SAPC  H14Y 9483   6.111   5.089   4.687 -0.2588 -0.2267 -1.6176
   96SAPC  C315 9484   5.890   5.112   4.698 -0.1471  0.0464  0.7264
   96SAPC  H15X 9485   5.828   5.204   4.699 -1.4787 -0.8074 -0.1400
   96SAPC  H15Y 9486   5.873   5.060   4.794 -2.3725 -2.1229 -0.7428
   96SAPC  C316 9487   5.847   5.020   4.577 -0.4132  0.6964 -0.2154
   96SAPC  H16X 9488   5.935   4.956   4.557  0.1306  0.4389  2.6950
   96SAPC  H16Y 9489   5.830   5.078   4.483 -0.8761 -0.3539 -0.8029
   96SAPC  C317 9490   5.729   4.931   4.623 -0.2764  0.3790  0.1648
   96SAPC  H17X 9491   5.653   4.993   4.676  1.7319  2.8243  0.3610
   96SAPC  H17Y 9492   5.775   4.860   4.696  1.3556  0.1974 -0.9837
   96SAPC  C318 9493   5.654   4.846   4.513 -0.6035 -0.1368 -0.1422
   96SAPC  H18X 9494   5.576   4.782   4.560 -1.3482 -0.7461 -2.0816
   96SAPC  H18Y 9495   5.732   4.782   4.466  1.4036  1.9443  0.2157
   96SAPC  H18Z 9496   5.608   4.918   4.442 -2.9454  0.1705  1.5758
   97SAPC     N 9497   4.661   5.031   2.052  0.8026 -0.5277 -0.1398
   97SAPC   C12 9498   4.583   4.942   2.143 -0.0184  0.7839  0.3841
   97SAPC  H12A 9499   4.515   4.883   2.083 -0.1147  0.2124  1.0340
   97SAPC  H12B 9500   4.520   5.002   2.207 -0.8211 -0.5117  0.8566
   97SAPC   C13 9501   4.766   5.102   2.130 -0.1647 -0.3004  0.0387
   97SAPC  H13A 9502   4.819   5.181   2.078  2.8451 -1.0441  1.7149
   97SAPC  H13B 9503   4.720   5.158   2.211 -0.5966  1.9581 -1.6662
   97SAPC  H13C 9504   4.852   5.048   2.166  0.1065 -0.5570 -0.9615
   97SAPC   C14 9505   4.717   4.965   1.933 -0.1439 -0.9430 -0.1634
   97SAPC  H14A 9506   4.784   4.886   1.963  0.5386 -0.5041 -0.5236
   97SAPC  H14B 9507   4.629   4.922   1.888 -1.0464 -0.4129  1.0228
   97SAPC  H14C 9508   4.774   5.038   1.877  2.4661 -2.1233  0.7733
   97SAPC   C15 9509   4.569   5.137   1.995 -0.7925 -0.0941  0.5981
   97SAPC  H15A 9510   4.473   5.095   1.969 -0.9299 -0.0942  1.0807
   97SAPC  H15B 9511   4.553   5.214   2.069  0.8837  0.3438  0.5572
   97SAPC  H15C 9512   4.608   5.192   1.911 -0.8270  0.0994  0.7078
   97SAPC   C11 9513   4.674   4.841   2.223 -0.1929  0.2240 -0.5232
   97SAPC  H11A 9514   4.613   4.779   2.293  0.3347 -1.4808 -1.5138
   97SAPC  H11B 9515   4.745   4.903   2.282  1.3220 -0.8361 -1.1624
   97SAPC     P 9516   4.879   4.716   2.146 -0.5221 -0.0331  0.0035
   97SAPC   O13 9517   4.900   4.599   2.063 -0.4963 -0.1148 -0.3289
   97SAPC   O14 9518   4.970   4.828   2.116 -0.4647 -0.6047 -0.2626
   97SAPC   O12 9519   4.733   4.748   2.136 -0.4054  0.5857  0.0341
   97SAPC   O11 9520   4.909   4.691   2.307  0.0362 -0.0129  0.6867
   97SAPC    C1 9521   4.817   4.592   2.366  0.0232  0.1507  0.6926
   97SAPC    HA 9522   4.723   4.643   2.394  0.3269  1.1936 -0.1074
   97SAPC    HB 9523   4.790   4.509   2.298 -0.5273  0.2746  0.7561
   97SAPC    C2 9524   4.870   4.527   2.491 -0.2973 -0.1555 -0.3046
   97SAPC    HS 9525   4.798   4.443   2.498  0.6515 -1.0149 -0.6169
   97SAPC   O21 9526   4.885   4.621   2.594 -0.3052  0.7349  1.2480
   97SAPC   C21 9527   4.818   4.591   2.704 -0.0215 -0.6106  0.2558
   97SAPC   O22 9528   4.724   4.516   2.709  0.7187  0.6034  0.5291
   97SAPC   C22 9529   4.876   4.668   2.820  0.0003 -0.0073 -0.3271
   97SAPC   H2R 9530   4.987   4.668   2.816  0.0041  1.8026 -1.1879
   97SAPC   H2S 9531   4.842   4.773   2.810 -0.7311 -0.4128 -3.0366
   97SAPC    C3 9532   5.015   4.462   2.460  0.1781  0.2321 -0.2631
   97SAPC    HX 9533   5.095   4.539   2.460 -0.5886  1.0521  0.2063
   97SAPC    HY 9534   5.013   4.402   2.367  2.0727 -1.6359  0.8110
   97SAPC   O31 9535   5.047   4.374   2.570  0.1106  0.8278  0.1300
   97SAPC   C31 9536   4.989   4.250   2.568  0.7139  0.7693 -0.3399
   97SAPC   O32 9537   4.904   4.218   2.483  0.5922  0.0780 -0.2082
   97SAPC   C32 9538   5.060   4.159   2.672 -0.0851  0.4965 -0.3684
   97SAPC   H2X 9539   5.069   4.210   2.770 -1.7595  2.0124 -0.9307
   97SAPC   H2Y 9540   5.159   4.128   2.632 -1.2189 -3.6247 -0.3384
   97SAPC   C23 9541   4.828   4.609   2.956  0.1089  0.2962 -0.2145
   97SAPC   H3R 9542   4.717   4.608   2.951  0.1176 -2.0029 -4.0282
   97SAPC   H3S 9543   4.850   4.662   3.051 -1.5874 -0.7647  0.8304
   97SAPC   C24 9544   4.874   4.466   2.987 -0.9476 -0.1676 -0.6876
   97SAPC   H4R 9545   4.856   4.415   2.890 -0.3722  0.3903 -1.0957
   97SAPC   H4S 9546   4.808   4.431   3.069  0.4263  0.5652  0.7810
   97SAPC   C25 9547   5.022   4.467   3.019 -0.8135  0.4889  0.2272
   97SAPC   H5R 9548   5.082   4.474   2.927  0.0773 -0.5866  0.6987
   97SAPC   C26 9549   5.079   4.471   3.137 -0.3267  0.8423  0.1278
   97SAPC   H6R 9550   5.187   4.487   3.141 -0.1286 -0.4983  0.7812
   97SAPC   C27 9551   5.007   4.464   3.270  0.5342  0.1159  0.5663
   97SAPC   H7R 9552   5.039   4.375   3.328  0.1849 -0.9904 -0.8840
   97SAPC   H7S 9553   4.898   4.450   3.254  0.6474 -0.9958  0.7200
   97SAPC   C28 9554   5.025   4.591   3.350  0.3714 -0.4464  0.6607
   97SAPC   H8R 9555   5.006   4.682   3.291  0.6081 -0.7855  0.0530
   97SAPC   C29 9556   5.053   4.595   3.484  0.6678  0.3496 -1.1729
   97SAPC   H9R 9557   5.062   4.695   3.530  0.9496 -1.0931  2.2158
   97SAPC  C210 9558   5.073   4.478   3.580  0.1140  0.4388 -0.0428
   97SAPC  H10R 9559   5.182   4.468   3.599  0.1190  1.8989  0.8670
   97SAPC  H10S 9560   5.043   4.378   3.544  2.4352 -0.9833  1.6665
   97SAPC  C211 9561   5.027   4.504   3.717  0.1007 -0.4807 -1.0863
   97SAPC  H11R 9562   5.102   4.510   3.797 -1.1510 -1.0766  0.1858
   97SAPC  C212 9563   4.898   4.528   3.760  0.0585  0.5340  0.5722
   97SAPC  H12R 9564   4.881   4.544   3.867  1.1478 -1.5634  1.1188
   97SAPC  C213 9565   4.790   4.538   3.660 -0.1319  0.1466  0.0437
   97SAPC  H13R 9566   4.802   4.468   3.575  0.5771  0.0141  0.2518
   97SAPC  H13S 9567   4.796   4.635   3.606 -3.1752  0.5633  0.2618
   97SAPC  C214 9568   4.652   4.549   3.710 -0.1970 -0.3669 -0.6288
   97SAPC  H14R 9569   4.648   4.607   3.804  2.0807  2.4752 -2.0971
   97SAPC  C215 9570   4.539   4.516   3.648 -0.6668  0.0706  0.7400
   97SAPC  H15R 9571   4.445   4.538   3.701 -0.5317 -0.1730  1.0801
   97SAPC  C216 9572   4.530   4.441   3.520 -0.2905 -0.0983  0.4089
   97SAPC  H16R 9573   4.452   4.362   3.530  1.7810 -2.1204  1.7041
   97SAPC  H16S 9574   4.620   4.376   3.514 -0.3109 -0.0559 -0.5348
   97SAPC  C217 9575   4.521   4.520   3.390  0.0899  0.7993  0.2287
   97SAPC  H17R 9576   4.617   4.573   3.374  0.7067 -0.2126  0.4742
   97SAPC  H17S 9577   4.439   4.593   3.401  1.4066  2.0994  2.0955
   97SAPC  C218 9578   4.504   4.426   3.271 -0.3075  0.0557 -0.3996
   97SAPC  H18R 9579   4.418   4.358   3.290 -0.6948  0.4870 -0.6134
   97SAPC  H18S 9580   4.599   4.369   3.263  0.7203  1.6549  0.0759
   97SAPC  C219 9581   4.476   4.489   3.129 -0.6446  0.3104 -0.4784
   97SAPC  H19R 9582   4.541   4.579   3.130 -0.5536  0.2471 -0.7207
   97SAPC  H19S 9583   4.374   4.533   3.134  1.1046  4.8353  1.1844
   97SAPC  C220 9584   4.511   4.389   3.022  0.3024 -0.0720  0.2957
   97SAPC  H20R 9585   4.475   4.290   3.055  2.9123 -1.0686  0.4002
   97SAPC  H20S 9586   4.622   4.380   3.025  0.1876 -3.5543 -1.2695
   97SAPC  H20T 9587   4.481   4.413   2.918  1.1137  2.6147  0.5961
   97SAPC   C33 9588   4.988   4.023   2.703 -0.4786 -0.1405  0.5798
   97SAPC   H3X 9589   5.069   3.949   2.724 -2.1237 -2.1535  0.1293
   97SAPC   H3Y 9590   4.937   3.978   2.615 -2.2397  1.1344  0.9160
   97SAPC   C34 9591   4.900   4.018   2.832  0.0153  1.0045 -0.6682
   97SAPC   H4X 9592   4.855   3.916   2.826  1.6053 -0.0241  2.6548
   97SAPC   H4Y 9593   4.823   4.098   2.838  0.4761  1.4447 -0.5772
   97SAPC   C35 9594   4.987   4.019   2.959 -0.2036 -1.0496  0.6129
   97SAPC   H5X 9595   5.062   4.100   2.953  0.5867 -1.8180 -0.4423
   97SAPC   H5Y 9596   5.039   3.920   2.966 -4.1471 -3.2903  1.3385
   97SAPC   C36 9597   4.905   4.048   3.088  0.0512  0.2520  0.6391
   97SAPC   H6X 9598   4.818   3.980   3.091 -0.0686 -0.1204 -3.9894
   97SAPC   H6Y 9599   4.865   4.152   3.080  0.3805  0.2641 -1.2778
   97SAPC   C37 9600   4.994   4.031   3.210  0.0494 -0.1241 -0.3018
   97SAPC   H7X 9601   5.084   4.097   3.203  0.1664 -0.1040  0.9782
   97SAPC   H7Y 9602   5.035   3.927   3.208  1.4949  0.3746  1.0181
   97SAPC   C38 9603   4.922   4.069   3.342 -0.0938 -0.2817  0.3649
   97SAPC   H8X 9604   4.814   4.044   3.336 -0.4610  0.5686  2.5115
   97SAPC   H8Y 9605   4.926   4.180   3.344 -0.9827 -0.2124 -0.6205
   97SAPC   C39 9606   5.000   4.015   3.461  0.8656  0.3147 -0.0591
   97SAPC   H9X 9607   5.098   4.067   3.461  2.4738 -2.4571 -1.7988
   97SAPC   H9Y 9608   5.026   3.907   3.463  0.8486  0.2507 -1.8334
   97SAPC  C310 9609   4.931   4.043   3.599  0.2155  0.0225  0.0085
   97SAPC  H10X 9610   4.824   4.014   3.588  0.5138 -1.1555  0.1298
   97SAPC  H10Y 9611   4.949   4.148   3.631 -0.6730  0.0472  0.4803
   97SAPC  C311 9612   4.999   3.949   3.709 -0.1522  0.5353 -0.0010
   97SAPC  H11X 9613   5.107   3.968   3.691 -0.2872  0.0075 -1.4994
   97SAPC  H11Y 9614   4.978   3.843   3.681 -1.4237  0.4333  1.2136
   97SAPC  C312 9615   4.959   3.967   3.850 -0.3380  0.0058 -0.0754
   97SAPC  H12X 9616   4.853   3.939   3.872 -0.3665 -0.4126 -0.7165
   97SAPC  H12Y 9617   4.963   4.076   3.869  0.5826 -0.0873  0.3394
   97SAPC  C313 9618   5.051   3.886   3.945  0.5116 -0.3651 -0.2820
   97SAPC  H13X 9619   5.152   3.931   3.931  0.4315  0.0079  0.2934
   97SAPC  H13Y 9620   5.047   3.777   3.925 -0.1218 -0.0223 -2.2988
   97SAPC  C314 9621   5.005   3.912   4.095 -0.5695  0.0865  0.4338
   97SAPC  H14X 9622   4.897   3.885   4.101 -0.5368 -0.5740 -1.3940
   97SAPC  H14Y 9623   5.006   4.022   4.111  0.1938 -0.0809  1.6211
   97SAPC  C315 9624   5.094   3.840   4.199  0.1125  0.3332 -0.0865
   97SAPC  H15X 9625   5.189   3.895   4.209  0.3571 -0.1086  0.0382
   97SAPC  H15Y 9626   5.112   3.732   4.180 -1.0428  0.3351 -1.3113
   97SAPC  C316 9627   5.019   3.851   4.339  0.1957 -0.4297  0.7902
   97SAPC  H16X 9628   4.916   3.810   4.337  0.0104  0.0520 -0.9658
   97SAPC  H16Y 9629   5.024   3.960   4.359  2.6448 -0.6355  1.5538
   97SAPC  C317 9630   5.099   3.785   4.452  0.0453  0.5831  0.5079
   97SAPC  H17X 9631   5.192   3.845   4.461  0.6584 -0.1951 -0.3214
   97SAPC  H17Y 9632   5.120   3.684   4.410 -0.3092  0.9947 -0.6993
   97SAPC  C318 9633   5.024   3.777   4.581  0.0394  0.4775  0.0297
   97SAPC  H18X 9634   4.919   3.748   4.559 -0.8372  3.6550 -0.4865
   97SAPC  H18Y 9635   5.011   3.877   4.629  2.0331  1.2943 -1.0137
   97SAPC  H18Z 9636   5.066   3.705   4.655 -0.7109 -1.2079 -1.1234
   98SAPC     N 9637   1.471   6.190   2.920  0.6957 -0.5731 -0.0906
   98SAPC   C12 9638   1.522   6.053   2.926 -0.2334 -0.6676  0.1983
   98SAPC  H12A 9639   1.473   6.004   3.009 -1.8031  0.7201  0.1551
   98SAPC  H12B 9640   1.630   6.051   2.932 -0.2688 -1.6449  0.7323
   98SAPC   C13 9641   1.498   6.270   3.039 -0.0353 -0.2118 -1.2489
   98SAPC  H13A 9642   1.454   6.369   3.036 -1.6120 -0.5719  2.7946
   98SAPC  H13B 9643   1.459   6.232   3.133  1.7892  1.0631  0.1054
   98SAPC  H13C 9644   1.604   6.266   3.058 -0.1444 -1.3440 -0.7994
   98SAPC   C14 9645   1.528   6.262   2.802 -0.0193  0.1811  0.3337
   98SAPC  H14A 9646   1.508   6.192   2.722 -2.3446  0.7954  0.2927
   98SAPC  H14B 9647   1.481   6.357   2.781 -2.3637 -0.8276  0.7056
   98SAPC  H14C 9648   1.631   6.288   2.820 -0.2601  0.6255  1.1160
   98SAPC   C15 9649   1.327   6.176   2.895 -0.0624  0.3648 -0.2481
   98SAPC  H15A 9650   1.282   6.271   2.870  0.8354  1.2008  1.1769
   98SAPC  H15B 9651   1.315   6.110   2.810 -2.7791 -1.0207  1.1072
   98SAPC  H15C 9652   1.272   6.123   2.971  0.2191  2.8161  1.7980
   98SAPC   C11 9653   1.489   5.960   2.808  0.2767  0.3136  0.8690
   98SAPC  H11A 9654   1.381   5.945   2.784  0.9528  0.3584 -2.7650
   98SAPC  H11B 9655   1.539   5.866   2.841 -0.2270  0.2618  1.5145
   98SAPC     P 9656   1.693   5.973   2.645  0.0987  0.0458 -0.0947
   98SAPC   O13 9657   1.699   5.852   2.555 -0.0578  0.5386  0.0418
   98SAPC   O14 9658   1.756   6.097   2.604 -0.5677 -0.5593  0.2064
   98SAPC   O12 9659   1.540   5.993   2.680 -0.6139  0.0884 -0.3482
   98SAPC   O11 9660   1.750   5.926   2.785 -0.2470  0.1572 -0.7097
   98SAPC    C1 9661   1.881   5.977   2.835 -0.4392 -0.6523  0.7105
   98SAPC    HA 9662   1.958   5.985   2.755  1.1844  0.0481  2.2735
   98SAPC    HB 9663   1.859   6.080   2.871 -0.2957 -0.8080  1.2462
   98SAPC    C2 9664   1.950   5.891   2.942  0.0858 -0.3038 -0.3395
   98SAPC    HS 9665   2.057   5.917   2.955 -0.1624 -0.5509  3.0154
   98SAPC   O21 9666   1.944   5.751   2.901  0.0775  0.1555  0.1155
   98SAPC   C21 9667   2.045   5.674   2.938  0.5414  0.9211  0.2044
   98SAPC   O22 9668   2.140   5.715   3.000 -0.1110  0.3828 -0.3699
   98SAPC   C22 9669   2.012   5.531   2.895  0.1078  0.9934  0.3259
   98SAPC   H2R 9670   1.972   5.525   2.792 -1.4251  0.2050  0.9319
   98SAPC   H2S 9671   2.105   5.471   2.907 -0.3685  0.3459  0.8584
   98SAPC    C3 9672   1.881   5.916   3.081 -0.1102  0.2242 -0.4047
   98SAPC    HX 9673   1.774   5.888   3.071  0.5468 -2.0420 -1.8235
   98SAPC    HY 9674   1.872   6.023   3.108  3.2656 -0.0331  2.2969
   98SAPC   O31 9675   1.941   5.836   3.189  0.9149  0.2798  0.3928
   98SAPC   C31 9676   2.061   5.889   3.228 -0.2272  0.0386  0.2099
   98SAPC   O32 9677   2.096   5.998   3.194 -0.4262 -0.2324  0.1717
   98SAPC   C32 9678   2.122   5.791   3.319 -0.4989 -0.6184  0.4540
   98SAPC   H2X 9679   2.134   5.692   3.270 -2.2925 -0.5694 -0.1534
   98SAPC   H2Y 9680   2.057   5.770   3.407 -2.3203  0.7833 -0.5007
   98SAPC   C23 9681   1.908   5.461   2.985 -0.5121  0.3395 -0.6603
   98SAPC   H3R 9682   1.911   5.354   2.956  0.7413  0.0888  0.3317
   98SAPC   H3S 9683   1.806   5.504   2.971 -0.6624  1.9159  3.7353
   98SAPC   C24 9684   1.927   5.493   3.138  0.0568  0.4463  0.0795
   98SAPC   H4R 9685   1.841   5.453   3.196  0.6691 -1.1842 -0.0796
   98SAPC   H4S 9686   1.929   5.603   3.151  0.1465  0.3629  0.8292
   98SAPC   C25 9687   2.053   5.431   3.191 -0.1559  0.5531  0.3415
   98SAPC   H5R 9688   2.138   5.427   3.120  0.8681  2.1350  1.4184
   98SAPC   C26 9689   2.085   5.398   3.318 -0.6977 -0.1688  0.2024
   98SAPC   H6R 9690   2.185   5.358   3.340 -1.6178 -2.1672  0.9300
   98SAPC   C27 9691   1.975   5.398   3.418  0.1349 -0.5421  0.1508
   98SAPC   H7R 9692   1.885   5.341   3.385 -2.1949  3.0929 -0.2928
   98SAPC   H7S 9693   1.937   5.502   3.423 -1.0605 -0.9653  0.2265
   98SAPC   C28 9694   2.026   5.353   3.550 -0.9426 -0.5343  0.1807
   98SAPC   H8R 9695   2.094   5.268   3.563 -0.4620 -0.5718 -2.1345
   98SAPC   C29 9696   1.972   5.397   3.663 -1.1987  0.0714  0.7904
   98SAPC   H9R 9697   2.011   5.354   3.756  1.2343  1.6168  0.5543
   98SAPC  C210 9698   1.863   5.499   3.695  0.4202  0.3105  0.8387
   98SAPC  H10R 9699   1.790   5.438   3.753  1.3561  1.7101  3.6996
   98SAPC  H10S 9700   1.804   5.524   3.604  0.7919 -1.3065  0.1237
   98SAPC  C211 9701   1.893   5.612   3.791 -0.0509  0.5879 -0.4669
   98SAPC  H11R 9702   1.985   5.672   3.782  0.4545  0.1816  1.4466
   98SAPC  C212 9703   1.809   5.667   3.885  0.5484  0.3374  0.2853
   98SAPC  H12R 9704   1.852   5.752   3.941  0.2948  1.8953 -1.7587
   98SAPC  C213 9705   1.670   5.624   3.916 -0.8609 -0.1486 -0.2560
   98SAPC  H13R 9706   1.669   5.616   4.027  0.2596  0.2616 -0.1981
   98SAPC  H13S 9707   1.665   5.522   3.874  1.4444  0.5532 -2.5161
   98SAPC  C214 9708   1.556   5.716   3.871  0.4532 -0.9402  0.2612
   98SAPC  H14R 9709   1.574   5.799   3.801  1.3458 -0.2308  1.2924
   98SAPC  C215 9710   1.429   5.706   3.908 -0.5178 -0.2833 -0.1573
   98SAPC  H15R 9711   1.354   5.770   3.859  0.2524  0.5675 -0.2603
   98SAPC  C216 9712   1.378   5.600   3.996  0.8059  0.2459 -0.4189
   98SAPC  H16R 9713   1.423   5.502   3.970 -1.2614 -0.4170 -1.7214
   98SAPC  H16S 9714   1.269   5.585   3.988  0.8044  0.4819 -0.8570
   98SAPC  C217 9715   1.406   5.612   4.151 -0.1918 -0.0085  0.5458
   98SAPC  H17R 9716   1.515   5.616   4.170  0.2511  0.7617 -1.8479
   98SAPC  H17S 9717   1.377   5.515   4.196 -1.8376  0.3035  0.2210
   98SAPC  C218 9718   1.340   5.735   4.222 -0.1174 -0.2957  0.2100
   98SAPC  H18R 9719   1.230   5.714   4.224  0.1256 -1.8152 -0.5763
   98SAPC  H18S 9720   1.360   5.823   4.158 -1.4051 -0.8371 -1.0077
   98SAPC  C219 9721   1.391   5.750   4.367 -0.2249  0.5086  0.0361
   98SAPC  H19R 9722   1.498   5.778   4.363 -0.4775  1.6522  0.6778
   98SAPC  H19S 9723   1.385   5.653   4.420  2.1904  0.5879  0.5795
   98SAPC  C220 9724   1.310   5.854   4.442 -0.4878 -0.1941  0.0000
   98SAPC  H20R 9725   1.199   5.845   4.443 -0.4825 -1.4091 -2.2965
   98SAPC  H20S 9726   1.328   5.956   4.402 -2.2743  0.8827  1.7697
   98SAPC  H20T 9727   1.346   5.851   4.547  1.8182 -1.9161 -0.7510
   98SAPC   C33 9728   2.255   5.840   3.384  0.0925  0.2443  0.3876
   98SAPC   H3X 9729   2.236   5.927   3.450  0.4158 -0.0263  0.8455
   98SAPC   H3Y 9730   2.316   5.876   3.298 -3.5721 -1.1774 -3.1365
   98SAPC   C34 9731   2.325   5.722   3.458  0.7943 -0.4480 -0.0866
   98SAPC   H4X 9732   2.428   5.753   3.485  1.4327 -1.6701 -0.9982
   98SAPC   H4Y 9733   2.318   5.641   3.382 -4.2062 -0.4238 -0.0385
   98SAPC   C35 9734   2.253   5.683   3.587 -0.2516 -0.0452  0.0613
   98SAPC   H5X 9735   2.147   5.655   3.571  0.0969 -1.6394  0.3493
   98SAPC   H5Y 9736   2.274   5.768   3.656  1.0144  0.0749 -0.4392
   98SAPC   C36 9737   2.315   5.563   3.651 -0.6985 -0.5332 -0.4283
   98SAPC   H6X 9738   2.280   5.468   3.605  0.0319 -0.8791 -0.2815
   98SAPC   H6Y 9739   2.279   5.565   3.756  1.4063  0.7024  0.3213
   98SAPC   C37 9740   2.473   5.575   3.661 -0.4072  0.6104  0.7370
   98SAPC   H7X 9741   2.495   5.674   3.706 -0.2872  0.3295  1.3185
   98SAPC   H7Y 9742   2.516   5.569   3.559  0.1574 -0.0224  0.9945
   98SAPC   C38 9743   2.540   5.467   3.753  0.6847  0.5148 -0.0422
   98SAPC   H8X 9744   2.502   5.371   3.712 -2.4297  1.7227 -0.2790
   98SAPC   H8Y 9745   2.500   5.466   3.857  2.9211  2.4114  0.9198
   98SAPC   C39 9746   2.687   5.473   3.741  0.1315 -0.6437 -0.1124
   98SAPC   H9X 9747   2.723   5.561   3.798 -2.2297 -0.5532  1.3921
   98SAPC   H9Y 9748   2.729   5.473   3.639  3.5384 -1.1455  1.1456
   98SAPC  C310 9749   2.759   5.353   3.802 -0.8981  0.4547 -0.0935
   98SAPC  H10X 9750   2.758   5.265   3.734 -0.9248  0.9871 -0.8007
   98SAPC  H10Y 9751   2.706   5.309   3.889 -0.1074  0.3778  0.3630
   98SAPC  C311 9752   2.902   5.372   3.855 -0.4152 -0.2621 -0.7936
   98SAPC  H11X 9753   2.900   5.464   3.917 -2.6071 -1.9440  1.8536
   98SAPC  H11Y 9754   2.976   5.387   3.774 -0.4821 -0.6248 -0.9226
   98SAPC  C312 9755   2.949   5.262   3.954  0.0319  0.1117 -0.1542
   98SAPC  H12X 9756   2.951   5.169   3.894 -3.9990 -0.2807  0.0300
   98SAPC  H12Y 9757   2.874   5.242   4.034 -0.3033 -0.7168 -0.6647
   98SAPC  C313 9758   3.092   5.292   4.006  0.2030 -0.8652 -0.3509
   98SAPC  H13X 9759   3.093   5.392   4.055 -2.8630 -1.2816  0.7388
   98SAPC  H13Y 9760   3.169   5.294   3.926 -0.2332 -0.2199 -0.7660
   98SAPC  C314 9761   3.143   5.195   4.114  0.7080 -0.1641 -0.3346
   98SAPC  H14X 9762   3.145   5.100   4.056 -3.1048  0.8909 -2.5586
   98SAPC  H14Y 9763   3.080   5.187   4.205 -0.7737  3.3350 -0.8621
   98SAPC  C315 9764   3.286   5.230   4.165  0.6363  0.6514 -0.2620
   98SAPC  H15X 9765   3.292   5.318   4.231  0.5006 -0.1544  0.8578
   98SAPC  H15Y 9766   3.363   5.239   4.085 -0.4392 -1.5048 -1.6263
   98SAPC  C316 9767   3.351   5.114   4.251 -0.2242  0.3598 -0.4604
   98SAPC  H16X 9768   3.347   5.020   4.193 -1.0348  0.5237 -0.6739
   98SAPC  H16Y 9769   3.295   5.111   4.347 -1.8867  0.4117 -1.3922
   98SAPC  C317 9770   3.497   5.133   4.284 -0.3380  0.0186  1.0597
   98SAPC  H17X 9771   3.522   5.240   4.302  1.1928 -0.4728  2.1208
   98SAPC  H17Y 9772   3.556   5.104   4.194 -1.5062  2.4799 -0.6007
   98SAPC  C318 9773   3.539   5.053   4.403 -0.6712  0.3491  0.1124
   98SAPC  H18X 9774   3.642   5.088   4.422 -0.8000  0.8909 -0.1759
   98SAPC  H18Y 9775   3.543   4.943   4.390 -2.6282 -0.0034  1.7962
   98SAPC  H18Z 9776   3.469   5.068   4.489 -1.1948 -0.5491 -0.1368
   99SAPC     N 9777   4.997   1.295   2.152  0.2868  0.1069  0.8359
   99SAPC   C12 9778   5.121   1.209   2.149 -0.0920  0.5135 -0.0011
   99SAPC  H12A 9779   5.152   1.178   2.050 -0.3291  1.4578 -0.3819
   99SAPC  H12B 9780   5.103   1.109   2.186 -0.2966  0.0932 -1.1778
   99SAPC   C13 9781   4.875   1.242   2.087 -0.7921 -0.5413  0.7743
   99SAPC  H13A 9782   4.800   1.318   2.072  0.1606  0.6204  1.7016
   99SAPC  H13B 9783   4.908   1.194   1.996  2.3366  0.1108  1.4551
   99SAPC  H13C 9784   4.817   1.171   2.144 -1.2722 -0.8220 -0.0426
   99SAPC   C14 9785   4.954   1.318   2.295  0.1476 -0.4785  0.0992
   99SAPC  H14A 9786   4.878   1.394   2.298 -0.8583 -1.4695  1.1571
   99SAPC  H14B 9787   4.900   1.229   2.327  0.3808 -1.0090 -0.9531
   99SAPC  H14C 9788   5.025   1.354   2.368  0.2255  0.6249 -0.5013
   99SAPC   C15 9789   5.025   1.426   2.097  0.4161 -0.2877 -0.0207
   99SAPC  H15A 9790   5.120   1.459   2.136 -1.2405  1.8166  2.6000
   99SAPC  H15B 9791   5.029   1.419   1.989  1.7568  0.4856 -0.0368
   99SAPC  H15C 9792   4.956   1.505   2.127  0.3257  0.4990 -2.1050
   99SAPC   C11 9793   5.246   1.273   2.209  0.9099  1.0238 -0.0073
   99SAPC  H11A 9794   5.314   1.192   2.241 -0.3774 -0.2327 -0.3498
   99SAPC  H11B 9795   5.218   1.329   2.301  0.0863  3.9516 -1.9192
   99SAPC     P 9796   5.457   1.394   2.126 -0.2289 -0.0283 -0.1811
   99SAPC   O13 9797   5.531   1.269   2.107 -0.3525 -0.2635 -0.1160
   99SAPC   O14 9798   5.489   1.505   2.030  0.2364  0.5982 -0.4233
   99SAPC   O12 9799   5.305   1.367   2.120  0.1845  0.0029  0.2520
   99SAPC   O11 9800   5.493   1.443   2.267  0.2635 -0.5408 -0.6185
   99SAPC    C1 9801   5.416   1.533   2.351  0.0004 -0.0683 -0.0414
   99SAPC    HA 9802   5.448   1.637   2.330  1.0268  0.1845  2.5543
   99SAPC    HB 9803   5.309   1.522   2.322  0.5000 -1.7623 -1.4617
   99SAPC    C2 9804   5.444   1.501   2.501 -0.1373 -0.4303 -0.0970
   99SAPC    HS 9805   5.376   1.561   2.565 -0.6962 -1.5274  0.3528
   99SAPC   O21 9806   5.581   1.544   2.536 -0.2477  0.5924 -0.1957
   99SAPC   C21 9807   5.596   1.671   2.555  0.3020  0.2451  0.1126
   99SAPC   O22 9808   5.508   1.755   2.558  0.0915  0.6507 -0.3560
   99SAPC   C22 9809   5.741   1.699   2.596 -0.1327  0.5399  0.5420
   99SAPC   H2R 9810   5.804   1.610   2.616  0.8641  0.9057 -0.8696
   99SAPC   H2S 9811   5.787   1.755   2.512 -0.5222  1.1729  0.7432
   99SAPC    C3 9812   5.426   1.352   2.544 -0.0991 -0.0217  0.1699
   99SAPC    HX 9813   5.504   1.294   2.491 -0.7093 -0.1070 -0.6531
   99SAPC    HY 9814   5.324   1.315   2.521 -2.0650  3.4648  2.4045
   99SAPC   O31 9815   5.435   1.336   2.686  0.0945 -0.0743 -0.1375
   99SAPC   C31 9816   5.530   1.261   2.735  0.4798  0.4320 -1.0413
   99SAPC   O32 9817   5.618   1.211   2.668 -0.0815 -0.0411 -0.4971
   99SAPC   C32 9818   5.515   1.250   2.888  0.0888 -0.7680  0.7663
   99SAPC   H2X 9819   5.411   1.216   2.907 -0.1558  0.2622  1.3440
   99SAPC   H2Y 9820   5.523   1.354   2.926 -0.5550  0.5093 -2.2880
   99SAPC   C23 9821   5.748   1.799   2.717 -0.4557 -0.3460  0.7045
   99SAPC   H3R 9822   5.683   1.884   2.687  0.7444  0.2134 -0.3533
   99SAPC   H3S 9823   5.850   1.838   2.732 -1.3134  1.3556  2.5489
   99SAPC   C24 9824   5.715   1.723   2.850  0.3115 -0.5940 -0.1622
   99SAPC   H4R 9825   5.779   1.756   2.933 -2.2316  0.4982  1.4981
   99SAPC   H4S 9826   5.741   1.617   2.829  0.7711 -0.6639  0.7197
   99SAPC   C25 9827   5.572   1.724   2.893 -0.0238  0.0802  0.7796
   99SAPC   H5R 9828   5.501   1.701   2.812 -0.2300  3.5363 -0.1659
   99SAPC   C26 9829   5.524   1.748   3.013  0.1414  0.1081 -0.4889
   99SAPC   H6R 9830   5.416   1.742   3.032  0.5950 -1.5302  2.3458
   99SAPC   C27 9831   5.615   1.787   3.134  0.4453  0.0944 -0.5044
   99SAPC   H7R 9832   5.711   1.838   3.109  1.0891 -0.0612  1.4870
   99SAPC   H7S 9833   5.651   1.692   3.177 -0.5458 -0.0070  0.1375
   99SAPC   C28 9834   5.548   1.880   3.238  0.0710  0.9652 -0.1995
   99SAPC   H8R 9835   5.452   1.922   3.204 -0.7267 -1.0946 -0.6557
   99SAPC   C29 9836   5.577   1.883   3.368 -0.2378 -0.2872  0.2476
   99SAPC   H9R 9837   5.514   1.936   3.441 -0.2762  1.7599 -1.1810
   99SAPC  C210 9838   5.694   1.830   3.438  0.6618 -0.5856  0.3332
   99SAPC  H10R 9839   5.754   1.921   3.461 -0.0976  0.2661 -0.9586
   99SAPC  H10S 9840   5.767   1.770   3.380  0.0754  0.3263 -1.4085
   99SAPC  C211 9841   5.652   1.756   3.564 -0.2890 -0.1436 -0.1683
   99SAPC  H11R 9842   5.592   1.669   3.533  0.8441 -0.1470 -2.5806
   99SAPC  C212 9843   5.687   1.775   3.694 -0.9310 -0.2300  0.3914
   99SAPC  H12R 9844   5.649   1.704   3.769 -2.4937  0.6147  0.4366
   99SAPC  C213 9845   5.780   1.890   3.738  0.2623 -0.4053 -0.0905
   99SAPC  H13R 9846   5.752   1.974   3.670 -0.7466 -0.3081  0.4276
   99SAPC  H13S 9847   5.882   1.861   3.706  0.6921  2.7662 -1.9183
   99SAPC  C214 9848   5.765   1.954   3.875  0.1426 -1.3068  0.3717
   99SAPC  H14R 9849   5.848   1.925   3.942  1.8159 -0.3826 -1.1949
   99SAPC  C215 9850   5.663   2.027   3.920  0.5754 -0.4165  0.0506
   99SAPC  H15R 9851   5.663   2.056   4.026 -0.1591 -2.1475  0.5706
   99SAPC  C216 9852   5.539   2.060   3.838  0.1022 -0.4211 -0.1964
   99SAPC  H16R 9853   5.559   2.049   3.730  0.5623  0.6547 -0.2308
   99SAPC  H16S 9854   5.502   2.164   3.851  0.0649 -0.3541 -0.8145
   99SAPC  C217 9855   5.418   1.958   3.847 -0.1543 -0.0813 -0.9940
   99SAPC  H17R 9856   5.361   1.978   3.941 -0.9532  1.0966 -1.7040
   99SAPC  H17S 9857   5.455   1.854   3.853 -1.8541 -0.6561  0.6131
   99SAPC  C218 9858   5.327   1.961   3.722  0.1319 -0.3416 -0.5884
   99SAPC  H18R 9859   5.383   1.921   3.635 -0.9918 -1.3332 -0.8850
   99SAPC  H18S 9860   5.309   2.068   3.698 -0.4864 -0.2019  0.4230
   99SAPC  C219 9861   5.192   1.889   3.735  0.2063  0.2763  0.7638
   99SAPC  H19R 9862   5.128   1.934   3.814 -2.1419  1.7230 -1.7801
   99SAPC  H19S 9863   5.230   1.786   3.752 -1.5856 -0.5923 -0.2069
   99SAPC  C220 9864   5.114   1.881   3.602  0.1392  0.5165  0.0481
   99SAPC  H20R 9865   5.016   1.834   3.624  0.3812  0.3283  0.7531
   99SAPC  H20S 9866   5.162   1.827   3.517  0.7145  1.9619 -0.5771
   99SAPC  H20T 9867   5.096   1.981   3.557  0.4278 -0.2308 -1.8503
   99SAPC   C33 9868   5.613   1.154   2.949  0.7315  0.0947 -0.2687
   99SAPC   H3X 9869   5.719   1.161   2.916  1.1492 -1.5865  0.5718
   99SAPC   H3Y 9870   5.589   1.059   2.896  0.1737  0.4764 -0.7040
   99SAPC   C34 9871   5.622   1.136   3.102 -0.4925 -0.7526  0.0876
   99SAPC   H4X 9872   5.712   1.078   3.132  0.2168  0.2669 -0.0233
   99SAPC   H4Y 9873   5.535   1.075   3.136 -0.2056 -1.0625  0.2702
   99SAPC   C35 9874   5.628   1.272   3.174 -0.5087 -0.1708  0.0739
   99SAPC   H5X 9875   5.548   1.333   3.126  0.3645 -0.2061 -1.4845
   99SAPC   H5Y 9876   5.718   1.330   3.145 -0.9780  0.9389  0.7861
   99SAPC   C36 9877   5.614   1.256   3.329  0.4410 -0.1792 -0.3021
   99SAPC   H6X 9878   5.529   1.186   3.342  0.1443  0.4600  1.4035
   99SAPC   H6Y 9879   5.583   1.348   3.383 -0.2197 -0.3668 -0.3608
   99SAPC   C37 9880   5.733   1.197   3.407  0.2877  0.2157  0.6248
   99SAPC   H7X 9881   5.807   1.279   3.398  0.1718  0.1466 -1.6730
   99SAPC   H7Y 9882   5.780   1.113   3.351  1.2801  1.0777  0.1411
   99SAPC   C38 9883   5.691   1.170   3.553 -0.5827  0.1674 -0.3921
   99SAPC   H8X 9884   5.762   1.102   3.605  2.0668  0.4993 -3.3023
   99SAPC   H8Y 9885   5.590   1.125   3.545 -0.2536 -0.3180 -2.3420
   99SAPC   C39 9886   5.687   1.302   3.634  0.1720  0.3524 -0.3322
   99SAPC   H9X 9887   5.633   1.384   3.581  2.1664  1.9353 -0.0330
   99SAPC   H9Y 9888   5.794   1.331   3.635  0.6757 -1.4179  0.4093
   99SAPC  C310 9889   5.623   1.280   3.772 -0.6192  0.2767 -0.4248
   99SAPC  H10X 9890   5.691   1.219   3.835 -3.7194 -0.7011  2.2566
   99SAPC  H10Y 9891   5.523   1.233   3.767 -1.1451  1.0891  1.4804
   99SAPC  C311 9892   5.611   1.419   3.842 -0.3132 -0.8185  0.0984
   99SAPC  H11X 9893   5.553   1.480   3.770  2.3276 -0.2794 -1.7141
   99SAPC  H11Y 9894   5.701   1.482   3.858 -2.1554  2.4517 -1.4853
   99SAPC  C312 9895   5.536   1.422   3.979  0.4515 -0.1929  0.0356
   99SAPC  H12X 9896   5.596   1.363   4.052  0.3794  1.6932  1.7065
   99SAPC  H12Y 9897   5.429   1.398   3.959  0.8426 -0.6267 -1.7785
   99SAPC  C313 9898   5.538   1.565   4.027 -0.9593  0.2516  0.6396
   99SAPC  H13X 9899   5.504   1.622   3.938 -0.9231 -0.0085  0.4572
   99SAPC  H13Y 9900   5.645   1.587   4.044 -0.1260 -3.4926  1.1336
   99SAPC  C314 9901   5.459   1.604   4.149  0.0641 -0.3949  0.5704
   99SAPC  H14X 9902   5.511   1.554   4.234 -0.5283 -1.8176  0.1224
   99SAPC  H14Y 9903   5.350   1.586   4.135  0.1071 -0.0605 -0.2390
   99SAPC  C315 9904   5.468   1.753   4.181 -0.3506 -0.4745 -0.2585
   99SAPC  H15X 9905   5.405   1.814   4.113  1.0974  1.0640 -0.2657
   99SAPC  H15Y 9906   5.567   1.794   4.152 -0.1357 -1.0223 -0.3190
   99SAPC  C316 9907   5.443   1.788   4.330 -0.9138 -0.2844 -0.0506
   99SAPC  H16X 9908   5.522   1.741   4.392 -0.9827  0.3923  0.5621
   99SAPC  H16Y 9909   5.349   1.748   4.375 -1.7029  1.7126  0.1732
   99SAPC  C317 9910   5.468   1.937   4.346 -0.0707  0.0494  0.6182
   99SAPC  H17X 9911   5.400   2.007   4.291  0.8991 -0.1497 -0.8980
   99SAPC  H17Y 9912   5.569   1.961   4.306 -0.2174 -4.0801 -2.9662
   99SAPC  C318 9913   5.448   1.979   4.492  0.1930  0.3671 -0.0003
   99SAPC  H18X 9914   5.517   1.926   4.563  0.2071 -0.5198 -0.6649
   99SAPC  H18Y 9915   5.346   1.948   4.524  0.5275 -2.6145 -1.4466
   99SAPC  H18Z 9916   5.453   2.089   4.509  2.8727  0.3399 -0.1548
  100SAPC     N 9917   4.148   1.707   2.198  0.3447 -0.4918  0.2051
  100SAPC   C12 9918   4.205   1.635   2.322 -0.2362  0.2092  0.2772
  100SAPC  H12A 9919   4.289   1.574   2.291 -1.2393 -1.2520  0.3208
  100SAPC  H12B 9920   4.133   1.570   2.369  0.2300  0.0091  0.7293
  100SAPC   C13 9921   4.038   1.799   2.242  0.1764 -0.0367 -0.4378
  100SAPC  H13A 9922   4.012   1.862   2.159 -0.4203  0.7750  0.3529
  100SAPC  H13B 9923   3.954   1.740   2.275  0.2499 -1.0915 -2.0378
  100SAPC  H13C 9924   4.078   1.870   2.312  0.3276 -2.4257  2.0842
  100SAPC   C14 9925   4.251   1.798   2.137  0.1430  0.3053  0.2457
  100SAPC  H14A 9926   4.212   1.863   2.060 -0.6247 -0.2619  0.1443
  100SAPC  H14B 9927   4.280   1.875   2.208 -0.7225  1.0297 -0.1610
  100SAPC  H14C 9928   4.337   1.752   2.091  0.3721  0.1209  0.8502
  100SAPC   C15 9929   4.104   1.619   2.088 -0.6601  0.5905  0.4639
  100SAPC  H15A 9930   4.071   1.684   2.008 -2.5529 -0.4324  0.3657
  100SAPC  H15B 9931   4.182   1.554   2.053 -0.7791  0.8851 -0.3735
  100SAPC  H15C 9932   4.019   1.556   2.111 -1.2901  0.8362 -1.1189
  100SAPC   C11 9933   4.261   1.717   2.442 -0.4470  0.1079 -0.2076
  100SAPC  H11A 9934   4.282   1.643   2.523 -1.1126  0.5095  0.3480
  100SAPC  H11B 9935   4.191   1.791   2.488 -1.8421 -1.1968 -0.1521
  100SAPC     P 9936   4.515   1.706   2.400 -0.0659  0.0733 -0.0172
  100SAPC   O13 9937   4.489   1.567   2.351  0.1518 -0.0838 -0.3066
  100SAPC   O14 9938   4.609   1.787   2.321  0.4046  0.0996  0.3017
  100SAPC   O12 9939   4.381   1.787   2.412 -0.2566 -0.1342  0.0314
  100SAPC   O11 9940   4.582   1.698   2.546 -0.1398  0.0983  0.0659
  100SAPC    C1 9941   4.562   1.809   2.637 -0.1431 -0.3084 -0.2997
  100SAPC    HA 9942   4.461   1.855   2.643  0.2905  0.5264  1.1359
  100SAPC    HB 9943   4.570   1.768   2.740 -1.8415  0.5375  0.2044
  100SAPC    C2 9944   4.651   1.933   2.629 -0.0000 -0.0369  0.0891
  100SAPC    HS 9945   4.600   1.991   2.549  0.7750  1.9267  0.9320
  100SAPC   O21 9946   4.782   1.900   2.578 -0.1015 -0.0493 -0.2563
  100SAPC   C21 9947   4.832   2.000   2.509 -0.9209 -0.2999  0.2039
  100SAPC   O22 9948   4.796   2.116   2.497  0.3500 -0.8333 -0.3488
  100SAPC   C22 9949   4.957   1.936   2.438  0.3212 -0.9522 -0.5486
  100SAPC   H2R 9950   4.987   1.846   2.496 -1.5063 -0.8290  0.6768
  100SAPC   H2S 9951   4.925   1.918   2.333 -0.5737  2.3464 -0.9757
  100SAPC    C3 9952   4.655   2.027   2.763  0.0732  0.2074  0.6441
  100SAPC    HX 9953   4.715   2.119   2.746  0.7415 -0.1746  0.8717
  100SAPC    HY 9954   4.708   1.973   2.844  1.7462 -0.9720 -1.1470
  100SAPC   O31 9955   4.528   2.068   2.817 -0.2065 -0.2158 -0.6620
  100SAPC   C31 9956   4.462   2.152   2.744  0.6900 -0.1417  0.2709
  100SAPC   O32 9957   4.514   2.218   2.653 -0.0784 -0.0627  0.2130
  100SAPC   C32 9958   4.318   2.177   2.806 -0.5107 -0.9156  0.0010
  100SAPC   H2X 9959   4.269   2.077   2.811 -1.3817 -0.4694  0.5398
  100SAPC   H2Y 9960   4.266   2.234   2.726  1.2059 -0.1996 -0.6481
  100SAPC   C23 9961   5.073   2.036   2.444 -0.6721  0.0997  0.2077
  100SAPC   H3R 9962   5.039   2.137   2.415 -1.3291 -0.1341  0.1510
  100SAPC   H3S 9963   5.138   2.008   2.358 -1.1082 -2.0562  0.5207
  100SAPC   C24 9964   5.146   2.045   2.586 -0.5174 -0.4172  1.0364
  100SAPC   H4R 9965   5.072   2.074   2.664 -1.3022 -0.4034  0.2921
  100SAPC   H4S 9966   5.217   2.131   2.589  0.6458 -1.3204  0.4394
  100SAPC   C25 9967   5.222   1.913   2.605  0.1772  0.2129  0.3200
  100SAPC   H5R 9968   5.288   1.899   2.518 -1.3456  1.4762 -1.1198
  100SAPC   C26 9969   5.221   1.827   2.712  0.5232 -0.1054 -0.0212
  100SAPC   H6R 9970   5.280   1.735   2.712 -2.1243 -1.9695 -1.8540
  100SAPC   C27 9971   5.148   1.848   2.840 -0.6621 -0.3621  0.4001
  100SAPC   H7R 9972   5.111   1.953   2.845  0.2312  0.0580 -1.1091
  100SAPC   H7S 9973   5.226   1.848   2.919 -0.7459  0.9897  0.5117
  100SAPC   C28 9974   5.039   1.758   2.871 -0.0211  0.0345 -0.4761
  100SAPC   H8R 9975   5.002   1.695   2.788 -2.3493  0.7660 -0.0905
  100SAPC   C29 9976   4.981   1.739   2.991 -0.1875 -0.2091 -0.6118
  100SAPC   H9R 9977   4.900   1.664   2.992 -0.4868  0.0966  0.6362
  100SAPC  C210 9978   5.011   1.811   3.124  0.4789 -0.9147  0.3170
  100SAPC  H10R 9979   5.066   1.905   3.104 -1.5380  1.0076  3.0567
  100SAPC  H10S 9980   5.072   1.738   3.182 -1.4227 -2.1476  0.8946
  100SAPC  C211 9981   4.904   1.875   3.201 -0.2323 -0.0049 -0.0285
  100SAPC  H11R 9982   4.901   1.985   3.198  0.1897  0.0065 -0.0453
  100SAPC  C212 9983   4.803   1.816   3.270 -0.3825  0.4874  0.3393
  100SAPC  H12R 9984   4.736   1.880   3.328  0.6389 -0.1025  2.2394
  100SAPC  C213 9985   4.773   1.666   3.279 -0.2891 -0.0909  0.3741
  100SAPC  H13R 9986   4.833   1.610   3.204 -0.8727 -0.6586  0.3225
  100SAPC  H13S 9987   4.665   1.644   3.265 -0.8253  2.1516  0.5778
  100SAPC  C214 9988   4.805   1.601   3.411 -0.4332  0.3370 -0.6702
  100SAPC  H14R 9989   4.892   1.535   3.417 -0.7401  0.0225  0.7364
  100SAPC  C215 9990   4.717   1.586   3.513 -0.1661  0.4996 -0.4634
  100SAPC  H15R 9991   4.755   1.531   3.601 -0.9794 -0.5879 -0.7687
  100SAPC  C216 9992   4.586   1.658   3.550 -0.6558  0.2557 -0.1531
  100SAPC  H16R 9993   4.494   1.603   3.521 -0.5824 -0.2848  0.6064
  100SAPC  H16S 9994   4.587   1.757   3.499  2.3070  0.1051 -0.5352
  100SAPC  C217 9995   4.589   1.682   3.701  0.9956 -0.1249 -0.0530
  100SAPC  H17R 9996   4.692   1.706   3.737  1.8954 -2.2498 -1.0161
  100SAPC  H17S 9997   4.565   1.587   3.754 -1.2441 -1.3672 -3.0209
  100SAPC  C218 9998   4.474   1.785   3.736  0.6575  1.2321  0.2050
  100SAPC  H18R 9999   4.480   1.873   3.668 -0.8514  0.5536 -0.8538
  100SAPC  H18S10000   4.481   1.822   3.840  0.8217  0.4369  0.4821
  100SAPC  C21910001   4.321   1.736   3.730  0.3116  0.1450  0.0970
  100SAPC  H19R10002   4.294   1.707   3.626  1.4480  1.1926 -0.5133
  100SAPC  H19S10003   4.256   1.817   3.770 -0.5938 -0.9355  0.9251
  100SAPC  C22010004   4.305   1.622   3.829 -0.0818 -0.3282  0.3094
  100SAPC  H20R10005   4.201   1.582   3.834 -0.0282 -0.3841  1.1584
  100SAPC  H20S10006   4.306   1.649   3.937 -2.5327  0.7900  0.1062
  100SAPC  H20T10007   4.378   1.539   3.815 -1.0885 -1.1089 -0.4997
  100SAPC   C3310008   4.323   2.247   2.942  1.0140  0.1070 -0.4801
  100SAPC   H3X10009   4.377   2.186   3.018 -2.0350  0.4656  2.1893
  100SAPC   H3Y10010   4.221   2.276   2.976  1.0066 -0.2056 -0.2259
  100SAPC   C3410011   4.402   2.378   2.944 -0.0404 -0.1980 -0.0253
  100SAPC   H4X10012   4.350   2.451   2.878  1.8924  1.8265  0.5504
  100SAPC   H4Y10013   4.500   2.363   2.893 -0.6066 -0.4097 -1.0868
  100SAPC   C3510014   4.409   2.456   3.078 -0.4446 -0.6083  0.4263
  100SAPC   H5X10015   4.455   2.382   3.148 -0.3817  0.8261  1.9691
  100SAPC   H5Y10016   4.310   2.488   3.117 -0.2279  0.1545  0.3566
  100SAPC   C3610017   4.490   2.580   3.084 -0.1174 -1.0525 -0.1942
  100SAPC   H6X10018   4.433   2.664   3.039  1.2499 -0.0336 -0.0780
  100SAPC   H6Y10019   4.581   2.567   3.021 -0.4604  2.9908 -1.8314
  100SAPC   C3710020   4.534   2.610   3.227 -0.0093  0.1665 -0.0369
  100SAPC   H7X10021   4.601   2.697   3.217 -0.8145  0.7071 -0.8587
  100SAPC   H7Y10022   4.596   2.528   3.270  1.5632  0.9308 -0.7551
  100SAPC   C3810023   4.423   2.648   3.332 -0.4176  0.0950  0.4430
  100SAPC   H8X10024   4.371   2.554   3.358  1.5315 -0.9804  0.6849
  100SAPC   H8Y10025   4.355   2.720   3.282 -1.7030 -0.6167  1.1504
  100SAPC   C3910026   4.475   2.696   3.474 -0.5684 -0.6634  0.1983
  100SAPC   H9X10027   4.536   2.786   3.447  2.2576 -2.0015  1.7135
  100SAPC   H9Y10028   4.530   2.610   3.516 -0.3133 -0.8839 -0.5784
  100SAPC  C31010029   4.367   2.723   3.577 -0.7205 -0.7243 -0.0527
  100SAPC  H10X10030   4.327   2.627   3.616  0.9216 -1.1341  0.6850
  100SAPC  H10Y10031   4.290   2.788   3.530  0.2598 -0.7256 -1.7427
  100SAPC  C31110032   4.421   2.790   3.705  0.0417 -0.1861  0.2692
  100SAPC  H11X10033   4.449   2.897   3.693  1.1757 -0.0687  3.0599
  100SAPC  H11Y10034   4.519   2.749   3.737  0.4442  0.5447 -0.0277
  100SAPC  C31210035   4.322   2.792   3.823  0.3289  0.0796  0.1746
  100SAPC  H12X10036   4.294   2.689   3.853  0.5568 -1.2951 -3.6455
  100SAPC  H12Y10037   4.225   2.824   3.779 -1.0513 -1.9895  1.5452
  100SAPC  C31310038   4.360   2.887   3.936 -0.4272 -0.0859  0.2893
  100SAPC  H13X10039   4.373   2.987   3.889 -0.9678 -0.6320 -1.0597
  100SAPC  H13Y10040   4.455   2.860   3.987  0.2058 -1.1016 -1.3767
  100SAPC  C31410041   4.257   2.902   4.042  0.4396 -0.6573 -0.4705
  100SAPC  H14X10042   4.161   2.944   4.005  0.1795 -0.1223  0.7626
  100SAPC  H14Y10043   4.280   2.983   4.114  0.6000 -0.0520 -1.1873
  100SAPC  C31510044   4.223   2.781   4.128  0.8672  0.6799  1.0679
  100SAPC  H15X10045   4.185   2.700   4.062  1.3671 -1.0771  2.8390
  100SAPC  H15Y10046   4.156   2.805   4.213 -0.5682 -1.0155  0.4838
  100SAPC  C31610047   4.348   2.699   4.178  0.7166 -0.4642 -0.7328
  100SAPC  H16X10048   4.403   2.759   4.253 -1.0737  0.3351  0.0029
  100SAPC  H16Y10049   4.406   2.675   4.086  0.9836  1.2488 -1.0365
  100SAPC  C31710050   4.300   2.575   4.242 -0.0416 -0.0486 -0.4051
  100SAPC  H17X10051   4.205   2.583   4.300  0.1438  0.1547 -0.1285
  100SAPC  H17Y10052   4.382   2.533   4.304  0.0069 -1.1021 -1.1579
  100SAPC  C31810053   4.269   2.460   4.141  0.2273  0.1242  0.2773
  100SAPC  H18X10054   4.204   2.494   4.057  0.8040  1.7155  0.4266
  100SAPC  H18Y10055   4.234   2.365   4.186  0.2582 -0.7353 -1.4020
  100SAPC  H18Z10056   4.369   2.435   4.098  0.8255  0.6649  1.3140
  101OSM      N10057   5.913   3.414   6.850  0.2613  0.0438  0.0834
  101OSM    C1510058   5.800   3.440   6.938  0.5118 -0.2052 -0.3823
  101OSM   H15A10059   5.770   3.347   6.984  1.1743  0.4597  1.5051
  101OSM   H15B10060   5.716   3.490   6.893 -0.2667 -0.1583  1.0728
  101OSM   H15C10061   5.841   3.500   7.018  0.1813 -1.6531  0.9102
  101OSM    C1410062   5.973   3.548   6.826 -0.4494  0.0232  0.2295
  101OSM   H14A10063   5.899   3.625   6.809 -0.0293  0.0999 -1.4310
  101OSM   H14B10064   6.036   3.544   6.738  0.6621  1.3692  0.9195
  101OSM   H14C10065   6.038   3.584   6.904 -1.2702  2.1844 -0.0079
  101OSM    C1310066   6.007   3.320   6.925  0.4040 -0.3535  0.0253
  101OSM   H13A10067   5.961   3.229   6.959 -1.8111  0.9136  0.6020
  101OSM   H13B10068   6.043   3.372   7.013 -1.4666 -1.5158  1.5592
  101OSM   H13C10069   6.092   3.286   6.868 -1.7293 -0.8330 -3.1372
  101OSM    C1210070   5.869   3.348   6.719 -0.0563 -0.3183  0.1156
  101OSM   H12A10071   5.830   3.250   6.741  0.1001 -0.1642  1.1238
  101OSM   H12B10072   5.949   3.325   6.651  1.2696 -0.7953  1.7767
  101OSM    C1110073   5.763   3.422   6.637  0.6669  0.0466  0.1337
  101OSM   H11A10074   5.759   3.383   6.533 -2.0070  1.5469 -0.4028
  101OSM   H11B10075   5.786   3.531   6.641  0.9651 -0.0405  3.1471
  101OSM      P10076   5.566   3.242   6.700 -0.1504  0.1499  0.7873
  101OSM    O1310077   5.642   3.155   6.794 -0.4942  0.1674  0.6658
  101OSM    O1410078   5.416   3.240   6.706  0.1377 -0.3429 -0.5559
  101OSM    O1110079   5.610   3.197   6.554 -0.2304  0.7669 -0.1461
  101OSM    O1210080   5.638   3.384   6.703 -0.3173 -0.1805 -0.2945
  101OSM    C1S10081   5.539   3.237   6.435 -0.0808 -0.2241 -0.5069
  101OSM    H1S10082   5.558   3.345   6.415  0.0170 -0.0172  0.6525
  101OSM    H1T10083   5.430   3.218   6.436  0.2233 -2.1281  0.1997
  101OSM     NF10084   5.554   3.225   6.189  0.2232 -0.3402 -0.4704
  101OSM    HNF10085   5.483   3.186   6.132 -0.7400 -0.1260  0.5401
  101OSM    C2S10086   5.595   3.157   6.314 -0.0050 -0.5402  0.3053
  101OSM    H2S10087   5.705   3.162   6.325  0.2267 -2.2327 -0.7662
  101OSM    C3S10088   5.545   3.010   6.322 -1.3785 -0.4285 -0.4347
  101OSM    H3S10089   5.437   3.012   6.349 -1.4168  0.3903 -0.6209
  101OSM     O310090   5.594   2.941   6.432  0.1722  1.4626 -0.0580
  101OSM    HO310091   5.613   3.009   6.497 -0.9994  0.1184  1.7712
  101OSM    C4S10092   5.563   2.931   6.195 -0.1521  0.7783  0.3848
  101OSM    H4S10093   5.479   2.940   6.125 -0.4251  1.5435  0.8022
  101OSM    C5S10094   5.669   2.849   6.162  0.3219 -0.7886  0.0369
  101OSM    H5S10095   5.751   2.850   6.234 -1.1277 -0.2576  1.7575
  101OSM    C6S10096   5.683   2.764   6.040 -0.5257  0.1815 -0.2238
  101OSM    H6S10097   5.672   2.659   6.073 -1.3582  0.9346  2.1685
  101OSM    H6T10098   5.787   2.761   6.000 -0.2840 -0.7872  0.4445
  101OSM    C7S10099   5.580   2.795   5.928  0.1898  0.0483 -0.5738
  101OSM    H7S10100   5.588   2.904   5.908  0.5453  0.6627  2.5091
  101OSM    H7T10101   5.476   2.776   5.963  0.4115 -2.0434 -0.8756
  101OSM    C8S10102   5.616   2.719   5.801  0.0405  0.1378 -0.0014
  101OSM    H8S10103   5.630   2.610   5.813  0.1307  0.1891  0.3826
  101OSM    H8T10104   5.708   2.775   5.773 -1.5839  2.3602 -1.1566
  101OSM    C9S10105   5.510   2.739   5.688 -0.8778 -0.1768 -0.3676
  101OSM    H9S10106   5.497   2.848   5.667 -1.9031 -0.0875  0.5906
  101OSM    H9T10107   5.412   2.705   5.728 -1.8228  0.6303 -1.8825
  101OSM   C10S10108   5.540   2.654   5.563  0.6827  0.0652  0.2158
  101OSM   H10S10109   5.536   2.546   5.586 -0.6072  0.6819  3.4692
  101OSM   H10T10110   5.643   2.679   5.530  0.1709  0.1521 -1.4308
  101OSM   C11S10111   5.448   2.688   5.441 -0.0657 -0.0073  0.1602
  101OSM   H11S10112   5.469   2.796   5.426  1.9674 -0.3863  0.0052
  101OSM   H11T10113   5.341   2.659   5.449  0.5985 -2.2886  1.8692
  101OSM   C12S10114   5.493   2.619   5.318  0.2794 -0.4030 -0.5800
  101OSM   H12S10115   5.521   2.514   5.344 -1.5146 -0.4110  1.6384
  101OSM   H12T10116   5.592   2.662   5.294  0.2879 -0.2195 -0.2233
  101OSM   C13S10117   5.402   2.633   5.200 -0.0316 -0.5955  0.1650
  101OSM   H13S10118   5.357   2.734   5.188 -0.2026 -0.5023  1.5308
  101OSM   H13T10119   5.316   2.564   5.205 -1.0562  0.7322  2.7065
  101OSM   C14S10120   5.480   2.602   5.064  0.2600 -0.6234 -0.1229
  101OSM   H14S10121   5.409   2.612   4.979  0.1967 -0.4690 -0.0524
  101OSM   H14T10122   5.517   2.498   5.058 -0.4155 -0.8572 -0.3683
  101OSM   C15S10123   5.593   2.710   5.034  0.1369  1.0765 -0.5056
  101OSM   H15S10124   5.674   2.707   5.110 -0.7554 -0.4014  0.4376
  101OSM   H15T10125   5.538   2.806   5.023 -2.1914 -0.4228 -3.3880
  101OSM   C16S10126   5.654   2.675   4.899 -0.6812 -0.3259  0.1968
  101OSM   H16S10127   5.582   2.670   4.814  0.9350 -1.0183 -1.2013
  101OSM   H16T10128   5.698   2.573   4.896  0.5999  0.1013  2.2754
  101OSM   C17S10129   5.748   2.777   4.850  0.0262 -0.4294  0.3556
  101OSM   H17S10130   5.819   2.816   4.926 -1.2518  1.9282  0.4091
  101OSM   H17T10131   5.688   2.865   4.820  0.1358 -1.3632 -3.0254
  101OSM   C18S10132   5.819   2.737   4.714 -0.4542  0.6335 -0.3051
  101OSM   H18S10133   5.732   2.722   4.646 -2.6758 -1.4659  2.7030
  101OSM   H18T10134   5.878   2.643   4.722  0.7622  1.4767  1.2128
  101OSM   H18U10135   5.881   2.817   4.670 -1.5962  0.9451 -1.3911
  101OSM    C1F10136   5.611   3.341   6.151  0.2217  0.6319  0.3745
  101OSM     OF10137   5.703   3.391   6.214  0.1563 -0.0098  0.0034
  101OSM    C2F10138   5.550   3.414   6.038  0.4086  0.5458  0.1819
  101OSM    H2F10139   5.557   3.522   6.066  0.7144  0.3844  0.7340
  101OSM    H2G10140   5.444   3.388   6.022 -0.1901  2.3686  0.9704
  101OSM    C3F10141   5.635   3.391   5.914  0.0469  0.1897  0.4523
  101OSM    H3F10142   5.629   3.284   5.885  1.2466  0.0239  0.7782
  101OSM    H3G10143   5.741   3.408   5.942  0.0517  0.3420  0.3417
  101OSM    C4F10144   5.609   3.495   5.798  0.4810 -0.2064 -0.5057
  101OSM    H4F10145   5.614   3.600   5.835 -0.9434 -1.4968  4.0499
  101OSM    H4G10146   5.506   3.489   5.757  0.7709  2.3249 -1.7680
  101OSM    C5F10147   5.704   3.479   5.683 -0.4030 -0.3522 -0.4322
  101OSM    H5F10148   5.724   3.370   5.684  1.1540 -0.1197  2.2809
  101OSM    H5G10149   5.799   3.533   5.699 -1.0954  0.7718  0.0156
  101OSM    C6F10150   5.648   3.523   5.542 -0.4603 -0.1464  1.0437
  101OSM    H6F10151   5.647   3.634   5.534 -1.1545 -0.0785  1.8117
  101OSM    H6G10152   5.546   3.479   5.537  0.6116 -2.8310  1.2627
  101OSM    C7F10153   5.729   3.472   5.418  0.4061  0.0946 -0.1808
  101OSM    H7F10154   5.721   3.362   5.424 -0.7103  0.0537 -1.7545
  101OSM    H7G10155   5.836   3.500   5.418  0.5486  0.0685 -3.7493
  101OSM    C8F10156   5.657   3.497   5.283 -0.0426  0.7447 -0.2101
  101OSM    H8F10157   5.547   3.493   5.296 -0.1984 -1.1753 -1.7108
  101OSM    H8G10158   5.703   3.424   5.212 -1.8493  2.0576 -2.8678
  101OSM    C9F10159   5.683   3.635   5.251 -0.2889 -0.4458  0.4562
  101OSM    H9F10160   5.690   3.712   5.330  1.0100  0.1393 -0.2036
  101OSM   C10F10161   5.705   3.674   5.125 -1.1559  0.4292  0.1743
  101OSM   H10F10162   5.725   3.780   5.104  0.1884 -0.1409 -1.6902
  101OSM   C11F10163   5.708   3.580   5.000 -0.4071 -0.1468  0.2608
  101OSM   H11F10164   5.631   3.500   4.991  1.1021 -1.5616 -0.4036
  101OSM   H11G10165   5.799   3.518   4.991 -0.4455 -0.0157 -1.6155
  101OSM   C12F10166   5.708   3.678   4.878 -0.3691 -0.1947 -0.9577
  101OSM   H12F10167   5.603   3.712   4.867 -1.5165 -2.9427  0.3749
  101OSM   H12G10168   5.710   3.600   4.798 -0.5522 -0.4202 -0.7445
  101OSM   C13F10169   5.843   3.758   4.865  0.3774  0.2464  0.1496
  101OSM   H13F10170   5.922   3.684   4.838  0.6326 -0.4672  2.6415
  101OSM   H13G10171   5.873   3.810   4.958  1.3161 -0.0390  0.0145
  101OSM   C14F10172   5.833   3.874   4.772 -0.3146  0.6153 -0.1288
  101OSM   H14F10173   5.739   3.928   4.798 -0.2494  0.2457  0.9174
  101OSM   H14G10174   5.813   3.837   4.669 -0.4473 -3.5454  1.2359
  101OSM   C15F10175   5.958   3.967   4.774  0.3947 -0.1194 -0.0437
  101OSM   H15F10176   6.037   3.904   4.727  1.3118 -0.0143  1.3037
  101OSM   H15G10177   5.986   3.988   4.879  0.7493 -1.2899  0.1119
  101OSM   C16F10178   5.944   4.100   4.711 -0.8102  0.3404 -0.4829
  101OSM   H16F10179   6.045   4.146   4.699 -1.2272  1.1670 -0.9164
  101OSM   H16G10180   5.886   4.162   4.782 -1.4771 -0.3343 -0.4256
  101OSM   C17F10181   5.879   4.099   4.571 -0.0489  0.8644  0.3846
  101OSM   H17F10182   5.786   4.039   4.575  0.8576 -0.8253 -1.5361
  101OSM   H17G10183   5.940   4.056   4.488  0.7320 -0.5908  1.6468
  101OSM   C18F10184   5.839   4.243   4.548 -0.0761 -0.0215 -0.1836
  101OSM   H18F10185   5.763   4.269   4.624 -0.1676  1.1196 -0.6400
  101OSM   H18G10186   5.787   4.255   4.450 -1.1298 -3.0162 -0.0871
  101OSM   H18H10187   5.927   4.312   4.547 -0.6334  0.7259 -1.8530
  102OSM      N10188   6.428   3.630   6.683 -0.0442 -0.6259  0.3778
  102OSM    C1510189   6.565   3.651   6.630 -0.0412  0.2215  0.2399
  102OSM   H15A10190   6.634   3.651   6.713  1.5229 -3.4113 -0.8503
  102OSM   H15B10191   6.567   3.747   6.581 -1.0246 -0.0656 -0.4007
  102OSM   H15C10192   6.595   3.577   6.557 -0.1172  1.6747 -1.3161
  102OSM    C1410193   6.405   3.738   6.785 -0.1599 -0.0529  0.3568
  102OSM   H14A10194   6.389   3.834   6.739 -0.7353 -0.2805  0.0785
  102OSM   H14B10195   6.493   3.735   6.848  0.6192 -0.6651 -0.7310
  102OSM   H14C10196   6.321   3.715   6.849 -0.6088 -0.6896 -0.4426
  102OSM    C1310197   6.334   3.640   6.570 -0.3573 -0.7584 -0.5751
  102OSM   H13A10198   6.325   3.743   6.539 -0.2655 -0.2618  0.9620
  102OSM   H13B10199   6.234   3.606   6.590 -0.0223 -0.3276  2.1569
  102OSM   H13C10200   6.361   3.587   6.479 -0.6314 -0.0164 -1.1025
  102OSM    C1210201   6.431   3.496   6.748  0.9141 -0.9794  0.1135
  102OSM   H12A10202   6.501   3.494   6.830  1.2748 -0.0353 -0.1567
  102OSM   H12B10203   6.475   3.431   6.673  2.4921  2.4002 -2.1797
  102OSM    C1110204   6.303   3.426   6.804  0.6539  0.9053  0.3252
  102OSM   H11A10205   6.249   3.500   6.867  1.2703 -0.3709  2.4124
  102OSM   H11B10206   6.324   3.333   6.859 -0.4492 -0.0441 -0.7875
  102OSM      P10207   6.237   3.255   6.617 -0.2960 -0.1846  0.3288
  102OSM    O1310208   6.381   3.221   6.605  0.9137  0.6197  0.0407
  102OSM    O1410209   6.144   3.154   6.676  1.1930 -0.0282  0.0973
  102OSM    O1110210   6.188   3.277   6.466 -0.3892 -0.7556  0.2783
  102OSM    O1210211   6.220   3.391   6.689  0.8650  0.6029 -0.6084
  102OSM    C1S10212   6.072   3.348   6.426  0.3248  0.1231  0.5972
  102OSM    H1S10213   6.055   3.449   6.469 -0.6293 -0.4437  1.6172
  102OSM    H1T10214   5.983   3.288   6.455 -0.0831  0.6934  0.5314
  102OSM     NF10215   5.961   3.458   6.228 -0.1673  0.2138  0.1237
  102OSM    HNF10216   5.868   3.427   6.208 -1.2479  1.5446  2.5849
  102OSM    C2S10217   6.061   3.359   6.268  0.0668 -0.0714 -0.1174
  102OSM    H2S10218   6.162   3.399   6.246  0.5654 -1.1793  0.1146
  102OSM    C3S10219   6.046   3.223   6.209 -0.7057 -0.1718  0.4702
  102OSM    H3S10220   5.955   3.184   6.259 -1.1747 -0.3271 -0.4831
  102OSM     O310221   6.152   3.133   6.233 -0.6739 -0.4622 -0.9146
  102OSM    HO310222   6.206   3.181   6.296 -0.6152 -1.7179  0.0046
  102OSM    C4S10223   6.044   3.224   6.063 -0.7167 -0.0349 -0.6475
  102OSM    H4S10224   6.101   3.302   6.011  0.3521 -1.1111 -1.1288
  102OSM    C5S10225   5.965   3.144   5.985  0.1699 -0.4061  0.5804
  102OSM    H5S10226   5.893   3.082   6.040 -2.5989  1.9864 -0.1295
  102OSM    C6S10227   5.945   3.173   5.841  0.7535 -0.2966  0.8435
  102OSM    H6S10228   6.037   3.207   5.790 -0.4140 -1.6127 -2.3544
  102OSM    H6T10229   5.871   3.255   5.834  0.0856 -0.8532  1.2483
  102OSM    C7S10230   5.884   3.056   5.759  0.2024  0.5725 -1.1545
  102OSM    H7S10231   5.798   3.008   5.808 -0.0704  0.1463 -2.0310
  102OSM    H7T10232   5.967   2.982   5.761  0.4582  0.8460  1.0792
  102OSM    C8S10233   5.839   3.092   5.617 -0.6111 -0.3600  0.1788
  102OSM    H8S10234   5.911   3.162   5.571 -0.0405  0.9222  2.8507
  102OSM    H8T10235   5.749   3.156   5.631  1.1930  2.4661 -0.3154
  102OSM    C9S10236   5.813   2.985   5.512  0.3581  0.1222 -0.0739
  102OSM    H9S10237   5.738   2.911   5.547  0.4396 -0.5063 -1.1620
  102OSM    H9T10238   5.902   2.931   5.471  2.0679  0.5808  2.7753
  102OSM   C10S10239   5.737   3.037   5.392  0.1412 -0.0457  0.2651
  102OSM   H10S10240   5.658   3.114   5.407  1.2178  1.0449  0.5993
  102OSM   H10T10241   5.697   2.946   5.344 -2.0688  0.4177  1.1134
  102OSM   C11S10242   5.834   3.089   5.277  0.0982  0.6036 -0.0353
  102OSM   H11S10243   5.908   3.007   5.268  0.5128  0.7790  1.5748
  102OSM   H11T10244   5.894   3.173   5.318  0.6085  0.6075 -0.7684
  102OSM   C12S10245   5.762   3.116   5.148  0.3600 -0.7960  0.4146
  102OSM   H12S10246   5.684   3.193   5.163  0.9376  0.1387 -1.2158
  102OSM   H12T10247   5.720   3.024   5.102  1.5001 -0.5004 -1.2968
  102OSM   C13S10248   5.844   3.161   5.033 -0.3723  0.3801 -0.9187
  102OSM   H13S10249   5.899   3.071   4.998 -0.3558  0.1292 -0.2714
  102OSM   H13T10250   5.920   3.237   5.062 -1.7500  1.3165  0.3728
  102OSM   C14S10251   5.756   3.204   4.914  0.5873 -0.0392  0.0216
  102OSM   H14S10252   5.682   3.281   4.945  2.3104  1.2566  1.0787
  102OSM   H14T10253   5.705   3.109   4.888 -0.0246 -0.3955  2.3060
  102OSM   C15S10254   5.846   3.242   4.793  0.9571  0.7577 -0.9812
  102OSM   H15S10255   5.937   3.179   4.804  1.6335  1.6909 -1.0080
  102OSM   H15T10256   5.872   3.351   4.795  0.6010  0.8366  0.5075
  102OSM   C16S10257   5.779   3.209   4.656  0.3796 -0.0380  0.4031
  102OSM   H16S10258   5.750   3.102   4.663 -1.9893  0.4799 -0.4855
  102OSM   H16T10259   5.845   3.225   4.568 -0.0064 -2.2604 -0.3385
  102OSM   C17S10260   5.642   3.281   4.630 -0.4380 -0.6834  0.0163
  102OSM   H17S10261   5.620   3.269   4.522 -0.1777  0.1470 -0.1422
  102OSM   H17T10262   5.661   3.390   4.646  0.6337 -0.5603 -1.7553
  102OSM   C18S10263   5.523   3.220   4.705  0.0733 -0.0595 -0.0262
  102OSM   H18S10264   5.436   3.247   4.642  1.2653  0.4894 -1.4990
  102OSM   H18T10265   5.512   3.268   4.805  2.1169  0.8183 -0.1683
  102OSM   H18U10266   5.537   3.110   4.716 -0.5346 -0.0547  0.8745
  102OSM    C1F10267   5.978   3.591   6.250 -0.4472  0.7937 -0.2613
  102OSM     OF10268   6.080   3.625   6.299 -0.2476 -1.0830 -0.4987
  102OSM    C2F10269   5.867   3.689   6.221  1.1484 -0.2254 -0.1632
  102OSM    H2F10270   5.852   3.745   6.315 -0.4106 -1.1308  0.1656
  102OSM    H2G10271   5.779   3.632   6.183  1.4216 -1.2767  0.7199
  102OSM    C3F10272   5.899   3.803   6.122 -0.0817 -0.7350  0.7060
  102OSM    H3F10273   5.989   3.857   6.159 -0.3663  0.0705  0.2531
  102OSM    H3G10274   5.813   3.873   6.124  0.9213  0.5321  0.5382
  102OSM    C4F10275   5.922   3.761   5.975  0.1480  0.6998 -0.2725
  102OSM    H4F10276   5.837   3.710   5.926  1.6982 -0.1852 -2.2344
  102OSM    H4G10277   5.994   3.676   5.978 -0.4817  0.1934  1.8322
  102OSM    C5F10278   5.966   3.875   5.877  0.1585  0.9435 -0.3437
  102OSM    H5F10279   6.043   3.944   5.920 -0.7567  0.1198  2.8837
  102OSM    H5G10280   5.887   3.949   5.850 -0.3067  0.4038 -0.4637
  102OSM    C6F10281   6.033   3.813   5.754  0.7329  0.3239 -0.2701
  102OSM    H6F10282   5.964   3.754   5.688  1.3508 -2.1515  1.1580
  102OSM    H6G10283   6.114   3.746   5.788  0.8287  1.1206  1.1136
  102OSM    C7F10284   6.088   3.933   5.665  0.0876  0.0867 -0.0308
  102OSM    H7F10285   6.168   3.990   5.716  0.2210 -1.9957  2.3011
  102OSM    H7G10286   6.009   4.007   5.640 -0.1899 -0.5726 -1.1974
  102OSM    C8F10287   6.157   3.871   5.540  0.1340  0.1935 -0.4528
  102OSM    H8F10288   6.239   3.811   5.587 -1.6871 -0.5817  1.9172
  102OSM    H8G10289   6.199   3.952   5.477  0.5422  0.2930 -0.0631
  102OSM    C9F10290   6.067   3.780   5.459 -0.1826  0.0774  0.2446
  102OSM    H9F10291   6.045   3.682   5.505  0.4351  0.2966  1.0303
  102OSM   C10F10292   6.019   3.819   5.335 -0.4526  0.3025 -0.4888
  102OSM   H10F10293   5.970   3.743   5.272  1.8214 -0.8111 -1.0438
  102OSM   C11F10294   6.038   3.951   5.269  0.1733 -0.1917 -0.2207
  102OSM   H11F10295   6.112   3.949   5.186  0.5590  2.2356 -0.0192
  102OSM   H11G10296   6.068   4.024   5.347 -2.1796 -1.7779  2.3502
  102OSM   C12F10297   5.918   4.015   5.212  0.1649 -0.0708  0.0397
  102OSM   H12F10298   5.831   4.010   5.281 -0.9790  1.2320 -1.2337
  102OSM   H12G10299   5.884   3.960   5.122  1.0378  2.0762 -1.6922
  102OSM   C13F10300   5.917   4.164   5.169 -0.1640 -0.0123 -0.3701
  102OSM   H13F10301   6.009   4.180   5.109  0.4749 -0.5591  0.4301
  102OSM   H13G10302   5.927   4.234   5.255 -0.1679  1.2537 -1.3730
  102OSM   C14F10303   5.789   4.200   5.095  0.2487 -0.1272 -0.3381
  102OSM   H14F10304   5.704   4.217   5.165  1.4672  0.6571  1.0245
  102OSM   H14G10305   5.761   4.120   5.023  1.6541 -0.5556 -0.4323
  102OSM   C15F10306   5.793   4.329   5.018  0.6815 -0.4449 -0.2432
  102OSM   H15F10307   5.841   4.308   4.920 -2.0292 -0.1922 -1.7106
  102OSM   H15G10308   5.855   4.401   5.076  0.6789 -0.9807  0.4357
  102OSM   C16F10309   5.655   4.381   4.982  0.4951 -0.1071 -0.0777
  102OSM   H16F10310   5.585   4.399   5.067  0.7542  1.8370 -0.2264
  102OSM   H16G10311   5.613   4.304   4.914 -1.2075 -0.0848  0.8711
  102OSM   C17F10312   5.664   4.522   4.912  0.1004 -0.5451  0.0333
  102OSM   H17F10313   5.719   4.510   4.816  1.4283 -0.4171  0.7460
  102OSM   H17G10314   5.726   4.587   4.977 -1.3250  1.1945 -0.2682
  102OSM   C18F10315   5.524   4.585   4.882  0.1630 -0.3875 -0.0109
  102OSM   H18F10316   5.483   4.533   4.792 -0.8241 -1.8858  1.2467
  102OSM   H18G10317   5.546   4.691   4.857  2.1774 -0.6967  0.3055
  102OSM   H18H10318   5.451   4.577   4.965  0.2625  0.7283  0.1906
  103OSM      N10319   5.267   2.919   6.709 -0.3957  0.0600  0.1019
  103OSM    C1510320   5.252   2.768   6.693 -0.0003 -0.1140 -0.7325
  103OSM   H15A10321   5.156   2.743   6.652  0.1970  2.1164 -2.7514
  103OSM   H15B10322   5.273   2.719   6.787  0.0158 -0.9152 -1.1448
  103OSM   H15C10323   5.332   2.730   6.631  1.2469  0.6141  0.3644
  103OSM    C1410324   5.146   2.974   6.772 -0.0753  0.2097 -0.3125
  103OSM   H14A10325   5.133   2.945   6.875 -1.5103  1.8515  0.0297
  103OSM   H14B10326   5.051   2.945   6.728  0.4259 -3.1971  0.6041
  103OSM   H14C10327   5.154   3.081   6.778 -0.4904  0.1702  1.1769
  103OSM    C1310328   5.388   2.941   6.799  0.3803 -0.1274 -0.3962
  103OSM   H13A10329   5.370   2.903   6.899  0.9043  0.2704 -0.1434
  103OSM   H13B10330   5.393   3.048   6.810 -2.1992 -0.0072  0.4394
  103OSM   H13C10331   5.473   2.891   6.757  0.3078  0.0537 -0.7551
  103OSM    C1210332   5.289   2.995   6.575  0.4637  0.3465  0.3885
  103OSM   H12A10333   5.375   2.956   6.523  1.4126  3.9152 -1.0229
  103OSM   H12B10334   5.303   3.100   6.596 -0.7827  0.9335 -1.4327
  103OSM    C1110335   5.175   2.997   6.474 -0.1767 -1.1131  0.0978
  103OSM   H11A10336   5.167   2.897   6.428  0.7450 -1.0891 -0.1406
  103OSM   H11B10337   5.210   3.058   6.387 -0.5647  0.2598  0.8661
  103OSM      P10338   4.919   3.023   6.500 -0.0741  0.0405  0.2086
  103OSM    O1310339   4.902   2.876   6.514 -0.1910 -0.0512  0.4455
  103OSM    O1410340   4.826   3.107   6.581 -0.1904 -0.5379  0.0858
  103OSM    O1110341   4.912   3.060   6.348 -0.3582 -0.3931 -0.2520
  103OSM    O1210342   5.065   3.061   6.534 -0.0490  0.4542 -0.2162
  103OSM    C1S10343   4.959   3.188   6.305 -0.3764  0.2468  0.2045
  103OSM    H1S10344   5.068   3.194   6.288 -0.4858  0.8901 -0.3279
  103OSM    H1T10345   4.929   3.277   6.363 -2.6971  0.0563 -0.5579
  103OSM     NF10346   4.942   3.358   6.130  0.4646 -0.2808  0.5579
  103OSM    HNF10347   4.862   3.417   6.140 -0.2234 -0.8896 -1.0478
  103OSM    C2S10348   4.909   3.224   6.159 -0.1510  0.1219 -0.5186
  103OSM    H2S10349   4.971   3.155   6.098  1.8743 -0.3363  1.8840
  103OSM    C3S10350   4.768   3.179   6.123  0.9769 -0.9980  0.2136
  103OSM    H3S10351   4.707   3.236   6.196 -0.3424 -0.2898 -1.3795
  103OSM     O310352   4.733   3.045   6.159  1.0689  0.5326 -0.2633
  103OSM    HO310353   4.804   3.023   6.218  0.8218 -2.1000 -0.8464
  103OSM    C4S10354   4.723   3.222   5.990 -0.0336  0.5057 -0.1122
  103OSM    H4S10355   4.706   3.331   5.981  0.7617  0.6558  0.1334
  103OSM    C5S10356   4.712   3.143   5.877  0.3421 -0.3026 -0.6924
  103OSM    H5S10357   4.729   3.035   5.883  0.8957 -0.1622  0.6414
  103OSM    C6S10358   4.683   3.201   5.737  0.2788 -0.5912 -0.3594
  103OSM    H6S10359   4.754   3.151   5.667  1.4996  1.8263 -0.9621
  103OSM    H6T10360   4.713   3.306   5.716 -0.3190 -0.2894  0.2734
  103OSM    C7S10361   4.545   3.191   5.689  0.1989  0.5888  0.0096
  103OSM    H7S10362   4.517   3.237   5.592 -2.0503 -2.0735 -0.7319
  103OSM    H7T10363   4.475   3.248   5.754 -2.3058  0.3240 -2.2740
  103OSM    C8S10364   4.497   3.046   5.679  0.1253 -0.5565 -0.4818
  103OSM    H8S10365   4.389   3.046   5.653  0.4810 -0.6154 -2.0024
  103OSM    H8T10366   4.504   2.993   5.777 -2.3550  0.1693  0.1529
  103OSM    C9S10367   4.562   2.964   5.575  0.1209  0.3065 -1.1298
  103OSM    H9S10368   4.521   2.861   5.575 -1.5027  0.8705  1.1396
  103OSM    H9T10369   4.672   2.957   5.593 -0.4138  0.6006  3.4010
  103OSM   C10S10370   4.535   3.013   5.430 -0.4314 -0.1504 -0.3353
  103OSM   H10S10371   4.578   3.116   5.425 -3.0400  1.2779  2.8676
  103OSM   H10T10372   4.426   3.025   5.411 -0.7628 -2.9899 -0.6376
  103OSM   C11S10373   4.601   2.920   5.327 -0.6857 -0.1348  0.4144
  103OSM   H11S10374   4.548   2.822   5.332 -1.7505  0.4007  0.0124
  103OSM   H11T10375   4.705   2.904   5.362 -0.6328  0.3574  0.4884
  103OSM   C12S10376   4.608   2.975   5.180 -0.3690 -0.9122 -0.2410
  103OSM   H12S10377   4.701   2.944   5.127 -0.7156 -1.9016 -0.2956
  103OSM   H12T10378   4.586   3.081   5.203 -1.8153 -1.1452 -0.4382
  103OSM   C13S10379   4.497   2.919   5.092 -0.0786  0.3207 -0.1109
  103OSM   H13S10380   4.398   2.944   5.136 -0.6263  1.9425 -2.1396
  103OSM   H13T10381   4.505   2.808   5.089 -0.3864  0.2809  0.3740
  103OSM   C14S10382   4.481   2.983   4.951 -0.7322  0.4107 -0.7162
  103OSM   H14S10383   4.550   2.928   4.882 -0.5089  1.4502 -1.3439
  103OSM   H14T10384   4.501   3.092   4.958  0.9114  0.0059  3.5698
  103OSM   C15S10385   4.339   2.955   4.885 -0.3640 -0.3076 -0.4367
  103OSM   H15S10386   4.266   3.007   4.951  0.0715  0.0374 -0.2155
  103OSM   H15T10387   4.320   2.846   4.896 -0.9258 -0.2297 -0.6311
  103OSM   C16S10388   4.322   3.002   4.734 -1.1062  0.0062 -0.0293
  103OSM   H16S10389   4.413   2.973   4.678 -0.0508  0.7624  1.2298
  103OSM   H16T10390   4.314   3.112   4.751 -0.7061  0.0035  0.1944
  103OSM   C17S10391   4.195   2.954   4.653  0.4433 -0.5946 -0.0394
  103OSM   H17S10392   4.107   3.010   4.693  0.9332  0.4206 -0.3550
  103OSM   H17T10393   4.167   2.847   4.665  1.1789 -0.9854 -1.6127
  103OSM   C18S10394   4.208   2.981   4.502  0.2916  0.2303 -0.3475
  103OSM   H18S10395   4.292   2.921   4.459  1.5637  0.4628  1.7007
  103OSM   H18T10396   4.239   3.085   4.478  0.3554 -0.2843 -2.7465
  103OSM   H18U10397   4.120   2.961   4.437 -0.0179  0.5295 -0.0206
  103OSM    C1F10398   5.067   3.403   6.120 -0.1768  0.1820  0.0854
  103OSM     OF10399   5.154   3.325   6.079 -0.6252  0.0786  0.2708
  103OSM    C2F10400   5.093   3.547   6.145  0.5072  0.5813 -0.4250
  103OSM    H2F10401   5.147   3.548   6.241 -0.1874  1.0626 -0.0259
  103OSM    H2G10402   5.001   3.610   6.141  0.4820  0.6167  0.4854
  103OSM    C3F10403   5.173   3.617   6.039  0.3310  0.2331 -0.0652
  103OSM    H3F10404   5.258   3.549   6.014 -0.8902 -3.2210  3.9793
  103OSM    H3G10405   5.213   3.713   6.079 -0.5210  0.5068  0.1537
  103OSM    C4F10406   5.104   3.645   5.904 -0.0535  0.2652  0.1878
  103OSM    H4F10407   5.028   3.726   5.905  0.1460  0.4536  1.1890
  103OSM    H4G10408   5.049   3.552   5.878  0.8481  0.1043 -1.2329
  103OSM    C5F10409   5.206   3.669   5.794  0.5152 -0.1262 -0.3198
  103OSM    H5F10410   5.275   3.582   5.786 -0.1515 -0.6486 -0.4974
  103OSM    H5G10411   5.269   3.757   5.819  0.3725 -0.1430  0.1024
  103OSM    C6F10412   5.139   3.702   5.659  0.5695  0.8285 -0.1382
  103OSM    H6F10413   5.085   3.799   5.667  1.2001  1.0450  2.4747
  103OSM    H6G10414   5.064   3.627   5.626  0.2154  1.4995 -0.9073
  103OSM    C7F10415   5.242   3.733   5.554  0.1709  0.0400  0.0017
  103OSM    H7F10416   5.324   3.659   5.568 -0.2732 -0.5403 -0.3752
  103OSM    H7G10417   5.271   3.840   5.562  1.8751 -0.3048 -0.9162
  103OSM    C8F10418   5.177   3.720   5.415 -0.1132 -0.0664  0.8400
  103OSM    H8F10419   5.249   3.775   5.351 -2.4203  1.7277 -0.3858
  103OSM    H8G10420   5.085   3.781   5.400  0.0981  0.1713  0.4920
  103OSM    C9F10421   5.141   3.588   5.363 -0.0456  0.3290 -0.1744
  103OSM    H9F10422   5.079   3.532   5.434  0.1606  0.8855  0.4686
  103OSM   C10F10423   5.167   3.532   5.243 -0.7213  0.6560  0.1630
  103OSM   H10F10424   5.147   3.427   5.216  2.8344  0.0400 -0.5805
  103OSM   C11F10425   5.262   3.601   5.149  0.4411  0.7119  0.4073
  103OSM   H11F10426   5.363   3.624   5.189  0.8187 -1.8276  1.1526
  103OSM   H11G10427   5.221   3.699   5.118  0.2741  0.3581 -0.5204
  103OSM   C12F10428   5.297   3.522   5.017 -0.1582 -0.2699 -0.5148
  103OSM   H12F10429   5.349   3.426   5.033 -0.4301 -0.1963  0.9942
  103OSM   H12G10430   5.373   3.587   4.967  1.2212 -1.4674 -0.0368
  103OSM   C13F10431   5.169   3.509   4.923 -0.2556  0.4575 -0.4749
  103OSM   H13F10432   5.115   3.599   4.888 -1.6302 -0.5967 -1.1797
  103OSM   H13G10433   5.094   3.462   4.991  0.5964  0.6790  0.6625
  103OSM   C14F10434   5.189   3.415   4.803 -0.1281 -0.1609 -0.3667
  103OSM   H14F10435   5.243   3.323   4.835  0.4101 -0.1056 -1.1034
  103OSM   H14G10436   5.245   3.477   4.731  1.1008 -1.0438 -0.2009
  103OSM   C15F10437   5.056   3.368   4.737 -0.1460 -0.1769 -0.8446
  103OSM   H15F10438   4.986   3.452   4.759 -2.0602 -1.5211 -1.4781
  103OSM   H15G10439   5.016   3.283   4.797 -0.2649  1.4666  1.5523
  103OSM   C16F10440   5.079   3.327   4.595  0.1871  0.7666  0.7168
  103OSM   H16F10441   5.109   3.220   4.599 -2.6969 -0.1372  0.1757
  103OSM   H16G10442   5.167   3.380   4.552 -0.2804  1.7221  0.9201
  103OSM   C17F10443   4.955   3.329   4.503  0.0403  0.6999  0.0579
  103OSM   H17F10444   4.906   3.429   4.499  1.3861  1.3543 -1.5852
  103OSM   H17G10445   4.895   3.245   4.541  0.3913  0.4326  0.0286
  103OSM   C18F10446   4.995   3.296   4.355 -1.0534  0.3211 -0.3156
  103OSM   H18F10447   4.912   3.242   4.305  0.0308 -1.7614  0.0388
  103OSM   H18G10448   5.070   3.214   4.347  0.1739  1.4887 -1.1866
  103OSM   H18H10449   5.036   3.377   4.290  0.0658 -0.3679 -0.4971
  104OSM      N10450   5.395   4.769   7.163 -0.0590  0.2937 -0.1539
  104OSM    C1510451   5.316   4.831   7.273 -0.5456  0.3892  1.0388
  104OSM   H15A10452   5.234   4.892   7.239 -0.4242  0.2389  0.4634
  104OSM   H15B10453   5.378   4.894   7.335  1.2528  1.4470 -1.6842
  104OSM   H15C10454   5.278   4.755   7.340  0.9972 -1.8786 -0.4982
  104OSM    C1410455   5.499   4.688   7.231  0.1221  0.1391  0.2920
  104OSM   H14A10456   5.560   4.632   7.161  0.8718 -0.4118  1.3533
  104OSM   H14B10457   5.469   4.626   7.315  0.6489  0.7469  0.9386
  104OSM   H14C10458   5.561   4.766   7.273  2.7880 -1.6361 -0.1038
  104OSM    C1310459   5.313   4.676   7.081  1.3884 -0.3964 -0.1374
  104OSM   H13A10460   5.268   4.599   7.142 -3.5893  2.9007  1.0332
  104OSM   H13B10461   5.356   4.633   6.992 -0.6019  0.3452 -1.5252
  104OSM   H13C10462   5.226   4.731   7.047  1.5204 -0.2380 -0.2184
  104OSM    C1210463   5.463   4.871   7.079 -0.3607  0.3246  0.3785
  104OSM   H12A10464   5.528   4.930   7.143  0.0271  2.0876 -1.5593
  104OSM   H12B10465   5.391   4.944   7.048 -1.8917 -1.3693 -0.1877
  104OSM    C1110466   5.554   4.839   6.955 -0.0058  0.3281  0.0986
  104OSM   H11A10467   5.582   4.938   6.913  3.1659  0.3524  1.8945
  104OSM   H11B10468   5.495   4.788   6.876 -3.1042  0.8595  1.9171
  104OSM      P10469   5.796   4.826   7.065  0.0902  0.3065  0.0893
  104OSM    O1310470   5.761   4.924   7.173 -0.7774  0.1035  0.5119
  104OSM    O1410471   5.884   4.715   7.103  0.0390  0.1296  0.3053
  104OSM    O1110472   5.869   4.904   6.952  0.4112 -0.4788  0.0447
  104OSM    O1210473   5.671   4.759   6.997 -0.0407  0.2610  0.0903
  104OSM    C1S10474   5.892   4.868   6.818 -0.0912 -0.2749 -0.7534
  104OSM    H1S10475   5.800   4.838   6.764  0.0640 -0.3041 -1.0037
  104OSM    H1T10476   5.959   4.782   6.801 -0.3472 -0.5040 -0.5958
  104OSM     NF10477   5.974   4.944   6.592  0.0980  0.1105  0.3431
  104OSM    HNF10478   6.065   4.909   6.568  0.0187 -1.8253  2.5739
  104OSM    C2S10479   5.962   4.988   6.731 -0.1358 -0.0030 -0.0757
  104OSM    H2S10480   5.895   5.077   6.732 -0.6558 -0.3683 -0.9974
  104OSM    C3S10481   6.103   5.023   6.792 -0.1517  0.0028  0.4855
  104OSM    H3S10482   6.167   4.932   6.789  0.4955  0.4044  1.4705
  104OSM     O310483   6.103   5.053   6.932  0.1100 -0.2745 -0.5862
  104OSM    HO310484   6.019   5.013   6.954 -0.9493  1.8668 -0.4915
  104OSM    C4S10485   6.185   5.128   6.706  0.1353  1.3738  0.3834
  104OSM    H4S10486   6.270   5.094   6.644 -0.3491 -1.5418  1.1540
  104OSM    C5S10487   6.154   5.257   6.699  1.6461 -0.2936 -0.0227
  104OSM    H5S10488   6.075   5.294   6.766  1.0627 -1.6032  0.0507
  104OSM    C6S10489   6.213   5.367   6.617 -0.1614 -0.4595  0.7310
  104OSM    H6S10490   6.276   5.426   6.687  1.9646 -1.9370  0.1423
  104OSM    H6T10491   6.132   5.434   6.580  1.2984  1.2376  0.4607
  104OSM    C7S10492   6.295   5.342   6.494 -0.0763 -0.0848 -0.1560
  104OSM    H7S10493   6.220   5.297   6.426 -1.9216 -0.0459  1.7470
  104OSM    H7T10494   6.376   5.269   6.515  0.2628  0.6544  1.2438
  104OSM    C8S10495   6.354   5.468   6.420 -0.0164 -0.1824  0.3249
  104OSM    H8S10496   6.417   5.522   6.494  0.2309  0.6682 -0.4976
  104OSM    H8T10497   6.271   5.534   6.388  0.4594 -0.3605 -1.3526
  104OSM    C9S10498   6.444   5.424   6.303  0.1782  0.0750 -0.7013
  104OSM    H9S10499   6.380   5.358   6.241  0.6346 -1.1067  0.0657
  104OSM    H9T10500   6.539   5.384   6.344 -0.3500  0.3601  0.8578
  104OSM   C10S10501   6.484   5.536   6.203  0.4631 -0.1679 -0.2298
  104OSM   H10S10502   6.558   5.603   6.251  0.0144 -0.3475  0.7449
  104OSM   H10T10503   6.391   5.595   6.190  0.2653 -0.2036  0.9575
  104OSM   C11S10504   6.514   5.478   6.065  0.3044 -0.3984 -0.2553
  104OSM   H11S10505   6.430   5.415   6.030 -0.7616  0.2585  1.0414
  104OSM   H11T10506   6.603   5.412   6.070  0.1846 -0.7253 -1.8644
  104OSM   C12S10507   6.528   5.595   5.967  0.1678 -0.8125  0.0107
  104OSM   H12S10508   6.626   5.641   5.992  1.0289 -1.7284 -1.4712
  104OSM   H12T10509   6.442   5.663   5.982  1.5323  0.8108  0.7533
  104OSM   C13S10510   6.527   5.548   5.822  0.1194  0.1585 -0.1003
  104OSM   H13S10511   6.456   5.464   5.808  1.3792 -1.0098  0.2815
  104OSM   H13T10512   6.630   5.509   5.809  0.2032  0.3764 -0.0869
  104OSM   C14S10513   6.495   5.650   5.716 -0.1437 -0.2954  0.3086
  104OSM   H14S10514   6.523   5.753   5.749  1.0726 -0.5884  0.2280
  104OSM   H14T10515   6.387   5.637   5.692 -0.0136  0.1562 -0.5718
  104OSM   C15S10516   6.561   5.626   5.583  0.0938  0.6119 -0.1922
  104OSM   H15S10517   6.535   5.530   5.533  0.7387  0.0041  0.6085
  104OSM   H15T10518   6.672   5.626   5.592  0.0378 -2.8491  1.9668
  104OSM   C16S10519   6.532   5.732   5.476  0.7633  0.5007  0.3743
  104OSM   H16S10520   6.518   5.829   5.527 -0.8715  1.5181 -1.8594
  104OSM   H16T10521   6.429   5.720   5.435  0.8263 -0.9145  0.5538
  104OSM   C17S10522   6.630   5.734   5.348  0.0717  0.2269 -0.6175
  104OSM   H17S10523   6.732   5.762   5.382  0.3518  0.3448 -1.5332
  104OSM   H17T10524   6.590   5.815   5.283  1.3786  1.7538  0.4153
  104OSM   C18S10525   6.624   5.599   5.278 -0.2263  0.1703 -0.7385
  104OSM   H18S10526   6.668   5.599   5.176  2.3843 -0.5546  0.2919
  104OSM   H18T10527   6.521   5.558   5.273  0.0334 -0.5868 -0.0346
  104OSM   H18U10528   6.672   5.525   5.346 -0.9404  1.0099  0.7419
  104OSM    C1F10529   5.871   4.929   6.513  0.1800 -0.1899  0.0596
  104OSM     OF10530   5.774   5.001   6.529  0.1194  0.0705 -0.3458
  104OSM    C2F10531   5.881   4.821   6.406  0.0460 -0.4433 -0.5207
  104OSM    H2F10532   5.855   4.723   6.452  0.1086  0.1884  0.8968
  104OSM    H2G10533   5.982   4.819   6.360 -0.9738 -1.2417 -2.8799
  104OSM    C3F10534   5.789   4.846   6.283  0.3238 -0.5666 -0.1810
  104OSM    H3F10535   5.817   4.944   6.240 -0.0532 -0.5151 -0.3129
  104OSM    H3G10536   5.689   4.855   6.330  0.1370  0.3462 -0.7376
  104OSM    C4F10537   5.788   4.735   6.174 -0.0094 -0.2315 -0.5859
  104OSM    H4F10538   5.752   4.645   6.228 -1.5870  0.1187 -0.9937
  104OSM    H4G10539   5.891   4.717   6.136  0.6959  0.2336  1.0127
  104OSM    C5F10540   5.697   4.769   6.050  0.2011 -0.0065 -0.1494
  104OSM    H5F10541   5.595   4.749   6.087  0.7602 -2.4638  0.1976
  104OSM    H5G10542   5.717   4.697   5.968 -0.3101  1.5063 -1.6618
  104OSM    C6F10543   5.712   4.913   5.993  0.4040  0.1822  0.1921
  104OSM    H6F10544   5.682   4.983   6.074  0.3576  1.0398 -0.5557
  104OSM    H6G10545   5.634   4.917   5.914 -0.3076 -1.7463  0.7184
  104OSM    C7F10546   5.853   4.948   5.946  0.0573 -0.5014 -0.3561
  104OSM    H7F10547   5.932   4.940   6.024  0.6849 -1.7327 -1.0844
  104OSM    H7G10548   5.853   5.052   5.905 -2.7209 -0.4565 -0.4072
  104OSM    C8F10549   5.903   4.857   5.829  0.2750  0.2167 -0.3701
  104OSM    H8F10550   5.832   4.861   5.744 -1.4971  1.4234  1.0858
  104OSM    H8G10551   5.906   4.752   5.865  1.6967  0.8634  1.5763
  104OSM    C9F10552   6.051   4.889   5.781 -0.3924 -0.0850  0.4111
  104OSM    H9F10553   6.131   4.863   5.851  1.3034 -0.1954 -1.4583
  104OSM   C10F10554   6.082   4.948   5.666 -0.1250  0.0460  0.1224
  104OSM   H10F10555   6.189   4.970   5.648 -0.6518  0.4141 -3.4157
  104OSM   C11F10556   5.996   4.994   5.549 -0.3038  0.7456  0.8610
  104OSM   H11F10557   6.053   5.053   5.473 -1.7464  1.1873  0.0817
  104OSM   H11G10558   5.911   5.054   5.586 -2.0360 -0.9223 -0.2251
  104OSM   C12F10559   5.947   4.866   5.468 -0.0266 -0.0651  0.2812
  104OSM   H12F10560   5.915   4.788   5.541  2.1518  0.0527  1.4203
  104OSM   H12G10561   6.025   4.830   5.398 -1.5524 -1.3118 -0.8527
  104OSM   C13F10562   5.824   4.900   5.373  0.1637  0.1731 -0.1397
  104OSM   H13F10563   5.849   4.996   5.322 -0.5907  1.5998  2.0021
  104OSM   H13G10564   5.741   4.929   5.441 -0.2934 -2.0659  0.3255
  104OSM   C14F10565   5.788   4.794   5.267  0.6354 -0.2668 -0.0497
  104OSM   H14F10566   5.804   4.691   5.306 -1.6261  0.2536  2.6135
  104OSM   H14G10567   5.851   4.795   5.176 -0.2118 -2.5920 -0.7502
  104OSM   C15F10568   5.634   4.801   5.230  0.5301  0.4801  0.4337
  104OSM   H15F10569   5.570   4.787   5.320 -0.7346 -0.8895 -0.6185
  104OSM   H15G10570   5.613   4.710   5.169 -0.9203  0.1137  1.4015
  104OSM   C16F10571   5.582   4.924   5.150 -0.0137  0.4210 -0.8977
  104OSM   H16F10572   5.599   5.019   5.205 -1.0391 -0.9371  1.9721
  104OSM   H16G10573   5.472   4.918   5.144 -0.0139 -0.1198 -0.4392
  104OSM   C17F10574   5.645   4.938   5.005 -0.2029 -0.5456 -0.7245
  104OSM   H17F10575   5.576   4.888   4.934 -1.9291  2.0531 -1.0435
  104OSM   H17G10576   5.746   4.894   5.019  0.2156  0.4983 -0.3258
  104OSM   C18F10577   5.650   5.095   4.977 -0.0912 -0.6232  0.1058
  104OSM   H18F10578   5.666   5.116   4.869 -1.9959  0.7327  0.0365
  104OSM   H18G10579   5.731   5.139   5.039  0.2468  1.4802 -1.7141
  104OSM   H18H10580   5.559   5.156   4.997 -0.6871 -1.5819  0.3806
  105OSM      N10581   0.984   4.447   6.862 -0.1214 -0.2563  0.4719
  105OSM    C1510582   0.976   4.302   6.885  1.0380  0.3268 -0.4018
  105OSM   H15A10583   1.011   4.284   6.985 -1.1615  0.2890  0.4157
  105OSM   H15B10584   1.048   4.251   6.823  1.4092 -1.2432  1.2387
  105OSM   H15C10585   0.878   4.257   6.878  1.7642 -1.6143  1.0824
  105OSM    C1410586   0.932   4.522   6.985 -0.0430 -0.4647  0.6820
  105OSM   H14A10587   0.832   4.497   7.017  0.4113 -2.0080  0.9853
  105OSM   H14B10588   0.934   4.629   6.971  0.1502 -0.2438  2.2250
  105OSM   H14C10589   1.001   4.503   7.066 -1.8873 -1.2520  2.1244
  105OSM    C1310590   1.127   4.479   6.845 -0.1657 -0.0467 -0.6314
  105OSM   H13A10591   1.166   4.425   6.761  0.6011 -0.9645  0.2918
  105OSM   H13B10592   1.197   4.462   6.925 -0.3896 -2.3955 -0.8653
  105OSM   H13C10593   1.129   4.583   6.814 -1.4204  0.1471 -0.1409
  105OSM    C1210594   0.910   4.484   6.738  0.2872 -0.0430  0.4431
  105OSM   H12A10595   0.958   4.435   6.655  0.1457  2.7527 -1.4517
  105OSM   H12B10596   0.924   4.591   6.729 -0.3754  0.3646  3.4237
  105OSM    C1110597   0.764   4.456   6.737 -0.0743 -0.5387  0.1309
  105OSM   H11A10598   0.749   4.351   6.770 -0.6002  0.0012  1.7098
  105OSM   H11B10599   0.743   4.461   6.628  0.6058 -3.2466 -0.1965
  105OSM      P10600   0.636   4.681   6.766  0.3127  0.6475 -0.3319
  105OSM    O1310601   0.531   4.728   6.855  0.4292 -0.1689  0.7546
  105OSM    O1410602   0.755   4.761   6.738 -0.0816  0.4212 -0.6070
  105OSM    O1110603   0.566   4.654   6.637  0.4732  0.2459  0.3905
  105OSM    O1210604   0.684   4.536   6.826 -0.5037 -0.2108 -0.4341
  105OSM    C1S10605   0.499   4.752   6.549 -0.4066 -0.5309  0.1359
  105OSM    H1S10606   0.507   4.854   6.592  0.4895 -0.8248  0.6939
  105OSM    H1T10607   0.389   4.746   6.556 -0.3993 -0.0651  0.7141
  105OSM     NF10608   0.464   4.834   6.319  0.3414  0.0287 -0.2878
  105OSM    HNF10609   0.396   4.793   6.259 -0.4190 -1.3697  1.4370
  105OSM    C2S10610   0.544   4.744   6.401 -0.3985  0.9577  0.3612
  105OSM    H2S10611   0.645   4.788   6.394  0.0739  0.1676  1.7380
  105OSM    C3S10612   0.528   4.608   6.351 -0.0865  0.3571 -0.1193
  105OSM    H3S10613   0.420   4.604   6.324  0.4280  0.0870 -2.3429
  105OSM     O310614   0.553   4.494   6.439  0.6962  0.1800 -0.0739
  105OSM    HO310615   0.571   4.529   6.527 -0.0229 -1.1767  0.6497
  105OSM    C4S10616   0.598   4.574   6.227 -0.1478  0.0120  0.3761
  105OSM    H4S10617   0.707   4.572   6.244 -0.2099 -1.1616  0.7490
  105OSM    C5S10618   0.551   4.547   6.107 -0.6358 -0.1503  0.2099
  105OSM    H5S10619   0.442   4.541   6.100 -0.4551 -1.8088 -2.3838
  105OSM    C6S10620   0.629   4.516   5.979 -0.2926  0.4861  0.2209
  105OSM    H6S10621   0.602   4.411   5.954  1.2346 -0.2105  1.2652
  105OSM    H6T10622   0.740   4.520   5.989 -0.0020 -2.4657 -0.7883
  105OSM    C7S10623   0.591   4.610   5.861 -0.3334  0.5939  0.1187
  105OSM    H7S10624   0.625   4.715   5.872 -1.6667  1.2903 -1.8067
  105OSM    H7T10625   0.480   4.615   5.856 -0.2549  1.9309 -3.4149
  105OSM    C8S10626   0.644   4.561   5.721 -0.0981 -0.4453 -0.1919
  105OSM    H8S10627   0.633   4.451   5.720  1.0999 -0.5768 -1.4276
  105OSM    H8T10628   0.750   4.592   5.725 -0.0536 -0.0056 -2.9163
  105OSM    C9S10629   0.580   4.637   5.604 -0.6320  0.1962 -0.2955
  105OSM    H9S10630   0.604   4.744   5.625 -0.2981  0.1157 -0.2572
  105OSM    H9T10631   0.471   4.618   5.595 -0.6406 -0.9848  1.6121
  105OSM   C10S10632   0.647   4.598   5.475  0.4982  1.3817 -0.4053
  105OSM   H10S10633   0.615   4.493   5.458 -1.4674  1.5335  1.7437
  105OSM   H10T10634   0.754   4.608   5.503  0.5647  0.1624 -0.1344
  105OSM   C11S10635   0.621   4.694   5.360  0.0460 -0.1949  0.5122
  105OSM   H11S10636   0.683   4.649   5.280 -0.3002 -1.3428  0.8703
  105OSM   H11T10637   0.662   4.793   5.388  4.9218 -2.4900  2.6975
  105OSM   C12S10638   0.480   4.693   5.307  0.4142  0.4033 -0.1233
  105OSM   H12S10639   0.415   4.674   5.395 -0.7090 -0.3015 -1.0815
  105OSM   H12T10640   0.466   4.605   5.240 -2.7860  1.1896 -0.6417
  105OSM   C13S10641   0.429   4.808   5.212 -0.3369  0.7549  0.6484
  105OSM   H13S10642   0.436   4.901   5.273 -0.5833 -0.0297  1.9197
  105OSM   H13T10643   0.324   4.783   5.186  0.5149  0.4070 -2.9894
  105OSM   C14S10644   0.510   4.835   5.084  0.0879 -0.1747 -0.3324
  105OSM   H14S10645   0.518   4.741   5.026 -0.3137 -2.2401  2.6911
  105OSM   H14T10646   0.612   4.869   5.110  0.3262 -0.4339 -0.9245
  105OSM   C15S10647   0.446   4.947   4.991  1.1231  0.0412 -0.1103
  105OSM   H15S10648   0.524   4.986   4.922  0.5296  1.3601 -0.0600
  105OSM   H15T10649   0.407   5.029   5.055  0.0725 -1.1107  0.7766
  105OSM   C16S10650   0.327   4.917   4.893 -0.2755  0.1479  0.4563
  105OSM   H16S10651   0.346   4.818   4.845 -4.7783 -0.5144 -0.3688
  105OSM   H16T10652   0.316   4.990   4.811  1.0141  0.2859  0.3798
  105OSM   C17S10653   0.192   4.912   4.963  0.1419 -0.2543  0.3262
  105OSM   H17S10654   0.176   4.999   5.031 -0.9413  0.3247 -0.6175
  105OSM   H17T10655   0.176   4.825   5.030 -0.5275  0.2881  0.8969
  105OSM   C18S10656   0.077   4.914   4.860  0.0612 -0.2562 -0.2620
  105OSM   H18S10657   0.090   4.996   4.786 -2.5510 -0.6536 -1.2587
  105OSM   H18T10658  -0.019   4.932   4.914 -0.9298 -1.1901 -1.6467
  105OSM   H18U10659   0.075   4.815   4.809  0.7951 -0.6328  0.4103
  105OSM    C1F10660   0.471   4.964   6.330  0.8006 -0.2808  0.1366
  105OSM     OF10661   0.534   5.026   6.417  0.2808  0.8616 -0.6607
  105OSM    C2F10662   0.377   5.035   6.238 -0.1061  0.5314  0.7201
  105OSM    H2F10663   0.369   5.143   6.263 -1.9890  0.9354 -1.2945
  105OSM    H2G10664   0.273   4.998   6.246 -0.5085  1.7327  1.2753
  105OSM    C3F10665   0.440   5.031   6.093 -0.3863  0.2084  0.1881
  105OSM    H3F10666   0.438   4.925   6.059 -0.1518  0.1119  0.4680
  105OSM    H3G10667   0.546   5.065   6.100  0.3608 -1.3215 -2.5583
  105OSM    C4F10668   0.364   5.104   5.990  0.2109  0.1797  0.3894
  105OSM    H4F10669   0.363   5.213   6.011 -0.5064  0.1940  0.2973
  105OSM    H4G10670   0.261   5.066   6.006 -0.3699  1.7807  0.6341
  105OSM    C5F10671   0.418   5.068   5.854  0.3501  0.5372  0.4674
  105OSM    H5F10672   0.405   4.958   5.849 -0.2067  0.5384  1.5849
  105OSM    H5G10673   0.526   5.096   5.855  0.9614 -1.6361  0.5099
  105OSM    C6F10674   0.343   5.134   5.742  0.6606  0.2966 -0.4667
  105OSM    H6F10675   0.380   5.239   5.743  0.4354  0.3753 -0.1809
  105OSM    H6G10676   0.236   5.136   5.771  0.7746  0.9161 -0.0640
  105OSM    C7F10677   0.382   5.071   5.607 -0.7049  0.4498 -0.3010
  105OSM    H7F10678   0.363   4.961   5.605  0.0210  0.2448  1.5134
  105OSM    H7G10679   0.490   5.086   5.588 -0.0919 -0.7843  1.8202
  105OSM    C8F10680   0.302   5.128   5.491 -0.8869 -0.2191 -0.3269
  105OSM    H8F10681   0.330   5.093   5.389 -3.1969  0.9169 -1.4268
  105OSM    H8G10682   0.334   5.234   5.496  2.9362 -1.2560  0.9816
  105OSM    C9F10683   0.152   5.119   5.514  0.6676  0.9800  0.2916
  105OSM    H9F10684   0.120   5.037   5.579  3.0844 -0.1635  0.1337
  105OSM   C10F10685   0.066   5.192   5.448  0.1026 -0.1926  0.7006
  105OSM   H10F10686  -0.040   5.184   5.475 -0.3285  2.2992 -0.0208
  105OSM   C11F10687   0.092   5.302   5.344  0.2599  0.4656  0.2210
  105OSM   H11F10688   0.197   5.332   5.324  0.5644 -0.9781 -0.5258
  105OSM   H11G10689   0.033   5.392   5.372 -1.7605  0.3681 -3.1325
  105OSM   C12F10690   0.033   5.259   5.201  0.4230  0.6148  0.3900
  105OSM   H12F10691   0.040   5.148   5.200  0.9202  0.6220 -1.8498
  105OSM   H12G10692   0.107   5.300   5.128  0.4644  1.1908  0.7421
  105OSM   C13F10693  -0.111   5.301   5.162  0.3639 -0.1616 -0.2412
  105OSM   H13F10694  -0.115   5.412   5.166  5.0417  0.1529  1.9670
  105OSM   H13G10695  -0.182   5.261   5.237  1.4814 -2.1781 -0.1846
  105OSM   C14F10696  -0.141   5.239   5.029  0.1104 -0.6488 -0.0882
  105OSM   H14F10697  -0.137   5.129   5.040 -0.4263 -0.4589  2.9117
  105OSM   H14G10698  -0.068   5.260   4.948 -0.9493 -2.3062 -1.5495
  105OSM   C15F10699  -0.277   5.303   4.978 -0.2732 -0.0539 -0.8664
  105OSM   H15F10700  -0.263   5.409   4.951 -0.2847  0.1343 -0.1468
  105OSM   H15G10701  -0.336   5.303   5.072 -1.1432  3.4265 -1.3056
  105OSM   C16F10702  -0.358   5.227   4.871 -0.2973  0.3755  0.5138
  105OSM   H16F10703  -0.317   5.262   4.774 -1.2125  0.0954  0.0068
  105OSM   H16G10704  -0.464   5.259   4.867  0.3152  2.4757 -0.3348
  105OSM   C17F10705  -0.359   5.075   4.879 -0.9392 -0.6366 -0.3553
  105OSM   H17F10706  -0.383   5.042   4.983 -0.0687 -1.0691 -0.2884
  105OSM   H17G10707  -0.258   5.035   4.856 -1.0022 -0.1108 -1.5956
  105OSM   C18F10708  -0.457   5.008   4.785 -0.6146  0.2806  0.2497
  105OSM   H18F10709  -0.562   5.040   4.804 -0.8945  1.3780 -2.6757
  105OSM   H18G10710  -0.455   4.899   4.806  0.3376  0.3076  0.3318
  105OSM   H18H10711  -0.430   5.021   4.678 -1.3072  1.4003  0.1879
  106OSM      N10712   4.483   2.897   6.453  0.1989 -0.5626  0.1120
  106OSM    C1510713   4.335   2.889   6.484  0.5271 -1.0123  0.3365
  106OSM   H15A10714   4.329   2.812   6.559  0.2726 -0.1401  1.2281
  106OSM   H15B10715   4.284   2.851   6.396  2.4544 -2.3912 -0.2556
  106OSM   H15C10716   4.307   2.986   6.522  1.4969 -0.3659 -0.5304
  106OSM    C1410717   4.488   2.957   6.319  0.5516 -0.1388 -0.6358
  106OSM   H14A10718   4.586   2.990   6.287  0.5109  0.2367 -0.3724
  106OSM   H14B10719   4.414   3.035   6.317 -0.3956 -1.0146 -2.2096
  106OSM   H14C10720   4.457   2.887   6.243  1.3830 -0.5295 -0.6313
  106OSM    C1310721   4.539   2.991   6.555  0.5266  0.6649  0.4532
  106OSM   H13A10722   4.486   3.084   6.539 -1.5592 -0.8303 -2.2885
  106OSM   H13B10723   4.641   3.014   6.532  1.0861 -0.3019  1.8131
  106OSM   H13C10724   4.529   2.957   6.657  2.7673 -0.4722  0.3481
  106OSM    C1210725   4.559   2.764   6.457 -0.0009  0.0385 -0.6474
  106OSM   H12A10726   4.663   2.792   6.464 -0.2283  1.0427 -1.0444
  106OSM   H12B10727   4.541   2.700   6.373 -0.5398  0.1462 -0.6189
  106OSM    C1110728   4.522   2.662   6.575 -0.6493 -0.1640  0.2951
  106OSM   H11A10729   4.545   2.704   6.675  0.7675 -1.8873  0.7358
  106OSM   H11B10730   4.582   2.568   6.569 -0.4396  0.0014 -0.2785
  106OSM      P10731   4.332   2.496   6.620 -0.1064 -0.4256 -0.4242
  106OSM    O1310732   4.389   2.476   6.756  0.4487  0.2247 -0.0259
  106OSM    O1410733   4.186   2.491   6.622  0.3485  0.0410  0.4528
  106OSM    O1110734   4.384   2.389   6.524 -0.0987 -0.3842  0.1240
  106OSM    O1210735   4.389   2.634   6.565  0.8398 -0.0452 -0.4291
  106OSM    C1S10736   4.365   2.383   6.385 -0.6232  0.2402  0.2448
  106OSM    H1S10737   4.351   2.487   6.350 -4.8785  0.6744  2.5226
  106OSM    H1T10738   4.280   2.320   6.350  0.2800 -0.3045 -1.0052
  106OSM     NF10739   4.480   2.371   6.169  0.1262 -0.7300 -0.1435
  106OSM    HNF10740   4.440   2.297   6.115 -2.3331 -0.5554  1.2878
  106OSM    C2S10741   4.497   2.342   6.307  0.5235 -0.3565 -0.8915
  106OSM    H2S10742   4.574   2.404   6.357  0.3284 -0.5913 -0.2847
  106OSM    C3S10743   4.529   2.199   6.338 -0.8488  0.7447 -0.2140
  106OSM    H3S10744   4.446   2.137   6.299 -2.8591  2.2085  1.5171
  106OSM     O310745   4.535   2.167   6.482  0.5765 -0.4909  0.5957
  106OSM    HO310746   4.501   2.246   6.524  0.8502 -0.2255  0.3192
  106OSM    C4S10747   4.657   2.159   6.257  1.0563 -0.2444  0.3254
  106OSM    H4S10748   4.632   2.113   6.161 -3.9317  3.4230 -0.5272
  106OSM    C5S10749   4.783   2.175   6.300 -0.5135 -0.2249 -0.2354
  106OSM    H5S10750   4.809   2.217   6.399 -3.1161  0.9751  0.0061
  106OSM    C6S10751   4.901   2.136   6.206  0.2609 -0.1340 -0.9102
  106OSM    H6S10752   4.949   2.051   6.259  2.8528  2.0166  0.4775
  106OSM    H6T10753   4.979   2.216   6.207 -0.0205  0.1505 -1.2173
  106OSM    C7S10754   4.877   2.094   6.054  0.0484 -0.8269 -0.8181
  106OSM    H7S10755   4.838   2.181   5.997 -1.5626 -1.1322 -0.2329
  106OSM    H7T10756   4.798   2.017   6.048  0.7190 -1.5802 -0.2326
  106OSM    C8S10757   4.996   2.042   5.973  0.0805 -0.2117 -0.2456
  106OSM    H8S10758   5.031   1.962   6.041  0.7381  0.3667  0.1061
  106OSM    H8T10759   5.071   2.123   5.976 -0.6241  0.5183 -1.3844
  106OSM    C9S10760   4.957   1.986   5.835 -0.6182  0.4895 -0.0155
  106OSM    H9S10761   4.878   2.053   5.794 -0.2999  1.5192  0.9842
  106OSM    H9T10762   4.919   1.882   5.829  2.3432 -0.6948  0.2971
  106OSM   C10S10763   5.074   1.972   5.737 -0.8250 -0.3266 -0.1950
  106OSM   H10S10764   5.133   1.886   5.774 -1.0631 -0.0930  0.7491
  106OSM   H10T10765   5.139   2.062   5.741  1.2939 -1.8199  2.4404
  106OSM   C11S10766   5.014   1.942   5.596 -0.7856 -0.0661 -0.0174
  106OSM   H11S10767   4.939   2.021   5.578 -0.5475  0.1675  0.0104
  106OSM   H11T10768   4.961   1.845   5.608 -0.9513  0.1039  0.7143
  106OSM   C12S10769   5.121   1.938   5.484  0.5563 -0.6213  0.6691
  106OSM   H12S10770   5.216   1.886   5.510  3.1205  2.7823 -0.9217
  106OSM   H12T10771   5.144   2.044   5.456 -0.8608 -0.1936  1.0582
  106OSM   C13S10772   5.059   1.864   5.361  0.8168 -0.0302  0.4093
  106OSM   H13S10773   4.965   1.917   5.337 -0.3633 -1.7153  1.1474
  106OSM   H13T10774   5.039   1.756   5.378  2.0711 -0.7842 -2.3064
  106OSM   C14S10775   5.155   1.866   5.239 -0.8266  0.5071 -0.2943
  106OSM   H14S10776   5.259   1.839   5.268 -0.8906  0.5568 -0.0202
  106OSM   H14T10777   5.161   1.966   5.193  2.9543  0.1740 -0.8385
  106OSM   C15S10778   5.121   1.766   5.124  0.3731  0.4731  1.0356
  106OSM   H15S10779   5.014   1.785   5.098  0.1328 -1.4633  0.4411
  106OSM   H15T10780   5.127   1.668   5.177  0.2633  0.2966  0.7209
  106OSM   C16S10781   5.216   1.770   5.003  0.4447 -0.3239 -0.6204
  106OSM   H16S10782   5.195   1.680   4.941  0.7606 -0.5431 -0.4108
  106OSM   H16T10783   5.320   1.769   5.042  0.8010 -1.6716 -1.5639
  106OSM   C17S10784   5.179   1.890   4.913 -0.4218 -0.7297 -0.8951
  106OSM   H17S10785   5.191   1.984   4.971 -0.9499 -1.3158  0.2121
  106OSM   H17T10786   5.080   1.887   4.861 -0.1827  1.6766 -1.6058
  106OSM   C18S10787   5.280   1.902   4.794 -0.8770 -0.0284  0.7009
  106OSM   H18S10788   5.272   1.997   4.736  1.4054 -1.0817 -1.5324
  106OSM   H18T10789   5.277   1.812   4.729 -0.7885  0.4043  0.0895
  106OSM   H18U10790   5.376   1.881   4.845 -2.1340 -0.0370  3.2630
  106OSM    C1F10791   4.475   2.500   6.123  0.4510 -0.2743 -0.9765
  106OSM     OF10792   4.488   2.598   6.198  0.3268  0.3283  0.0739
  106OSM    C2F10793   4.439   2.520   5.982  0.1365 -0.2999  0.3923
  106OSM    H2F10794   4.336   2.480   5.971  0.8012 -1.3576 -3.4517
  106OSM    H2G10795   4.504   2.458   5.916 -0.2421  0.3131 -0.5678
  106OSM    C3F10796   4.457   2.667   5.937 -0.0538  0.5814  0.6839
  106OSM    H3F10797   4.564   2.695   5.945  1.0366 -2.4400 -1.5154
  106OSM    H3G10798   4.393   2.738   5.993 -0.6380  0.0276  0.7254
  106OSM    C4F10799   4.405   2.683   5.796  0.8168  0.6176 -0.8201
  106OSM    H4F10800   4.437   2.781   5.753 -1.2918  2.7665  2.0836
  106OSM    H4G10801   4.295   2.681   5.780  0.8134  0.2854 -0.7460
  106OSM    C5F10802   4.447   2.578   5.691 -0.1723 -0.9316  0.1566
  106OSM    H5F10803   4.421   2.473   5.718 -2.0801 -0.0493  1.9670
  106OSM    H5G10804   4.558   2.588   5.681 -0.0030  0.5607  2.7517
  106OSM    C6F10805   4.387   2.608   5.556  0.0827 -0.1412 -0.0187
  106OSM    H6F10806   4.458   2.576   5.476  0.8652  0.3730  0.4501
  106OSM    H6G10807   4.391   2.718   5.541  1.1110 -0.2369 -0.5878
  106OSM    C7F10808   4.247   2.545   5.534 -0.5981 -0.1754 -0.3102
  106OSM    H7F10809   4.171   2.594   5.599  1.8330  1.0721  1.7801
  106OSM    H7G10810   4.252   2.439   5.569 -2.9695  0.2272  1.5841
  106OSM    C8F10811   4.204   2.518   5.385 -0.1788  0.2301 -0.7745
  106OSM    H8F10812   4.114   2.452   5.388 -0.2717  0.1602 -2.9667
  106OSM    H8G10813   4.287   2.451   5.353 -0.0910 -0.3699  0.6443
  106OSM    C9F10814   4.181   2.642   5.305 -0.6352  0.2370  0.4676
  106OSM    H9F10815   4.191   2.738   5.358  0.9392  0.5465 -0.3282
  106OSM   C10F10816   4.140   2.653   5.180 -0.0277  0.5311  0.1560
  106OSM   H10F10817   4.139   2.755   5.139  0.2433 -0.1138 -1.5424
  106OSM   C11F10818   4.130   2.538   5.084 -0.2780  0.3618 -0.5513
  106OSM   H11F10819   4.024   2.540   5.049 -0.6576 -0.0562  0.5459
  106OSM   H11G10820   4.154   2.444   5.138 -0.3398  1.1926  0.9594
  106OSM   C12F10821   4.230   2.564   4.968  0.5097 -0.2315  0.0643
  106OSM   H12F10822   4.219   2.669   4.933  1.0738 -0.3655 -0.5345
  106OSM   H12G10823   4.199   2.503   4.881 -1.6648  0.5858  0.1838
  106OSM   C13F10824   4.371   2.536   5.012  0.1862 -0.1086  1.1037
  106OSM   H13F10825   4.380   2.433   5.051 -2.2939 -0.8024  0.0044
  106OSM   H13G10826   4.383   2.603   5.100  1.6515  0.6881  0.3442
  106OSM   C14F10827   4.479   2.553   4.896 -0.2487 -0.4373  0.1969
  106OSM   H14F10828   4.581   2.555   4.939  0.7747 -0.1116 -2.0564
  106OSM   H14G10829   4.458   2.656   4.857  1.9129  0.3421  0.9692
  106OSM   C15F10830   4.470   2.459   4.780 -0.6271  0.3540  0.6021
  106OSM   H15F10831   4.365   2.450   4.744 -0.7021  0.1265  0.8664
  106OSM   H15G10832   4.492   2.358   4.820 -0.4393  0.6248  1.1932
  106OSM   C16F10833   4.566   2.498   4.664  0.6490 -0.3385 -0.1498
  106OSM   H16F10834   4.668   2.485   4.706  0.2964 -1.0715  0.5226
  106OSM   H16G10835   4.563   2.602   4.628  2.6176 -0.2843 -0.2693
  106OSM   C17F10836   4.568   2.401   4.544  0.0032  0.4169  0.1340
  106OSM   H17F10837   4.471   2.396   4.492  0.4944  0.4841 -0.8033
  106OSM   H17G10838   4.598   2.299   4.578 -0.7795  0.3527  0.6563
  106OSM   C18F10839   4.665   2.454   4.439 -0.0734  0.6249  0.0630
  106OSM   H18F10840   4.663   2.565   4.432 -0.9759  0.7625  1.8384
  106OSM   H18G10841   4.648   2.401   4.343  1.7868 -2.0007  1.0773
  106OSM   H18H10842   4.766   2.432   4.480 -0.7273  0.8267  1.8693
  107OSM      N10843   5.122   2.206   6.838  0.0484 -0.6035 -0.3333
  107OSM    C1510844   5.001   2.229   6.930 -0.5142 -0.6480  0.5482
  107OSM   H15A10845   4.915   2.181   6.884 -0.6583  0.9526 -0.9724
  107OSM   H15B10846   4.979   2.334   6.935  1.1988 -0.1661 -0.9307
  107OSM   H15C10847   5.022   2.191   7.029  1.6513  3.1017  1.7256
  107OSM    C1410848   5.124   2.311   6.729 -0.5218 -0.4983  0.4157
  107OSM   H14A10849   5.213   2.315   6.668 -0.6161  0.7042  0.3213
  107OSM   H14B10850   5.122   2.410   6.772 -0.6119 -1.1838  2.0535
  107OSM   H14C10851   5.039   2.313   6.663 -0.9754  1.9595  0.9652
  107OSM    C1310852   5.240   2.222   6.932 -0.7159  0.3847 -0.3068
  107OSM   H13A10853   5.241   2.145   7.009  1.0218  1.2268  0.5621
  107OSM   H13B10854   5.235   2.318   6.980 -0.5843  0.4115 -0.3479
  107OSM   H13C10855   5.333   2.221   6.878 -0.6070 -0.7159 -0.1237
  107OSM    C1210856   5.114   2.071   6.765 -0.2045 -1.2610 -0.1664
  107OSM   H12A10857   5.114   1.999   6.846  0.4332 -2.8690 -1.5246
  107OSM   H12B10858   5.203   2.062   6.705  1.1697  1.0119  1.4122
  107OSM    C1110859   4.998   2.027   6.672 -0.1441 -0.5083 -0.6778
  107OSM   H11A10860   5.017   1.924   6.636 -0.0526 -0.8972  0.4472
  107OSM   H11B10861   4.994   2.094   6.583  0.8361  0.1604 -0.2359
  107OSM      P10862   4.813   1.917   6.815 -0.4427  0.0244 -0.0642
  107OSM    O1310863   4.919   1.849   6.893 -0.0002 -0.1842  0.2515
  107OSM    O1410864   4.696   1.968   6.889 -0.0130  0.4597 -0.1752
  107OSM    O1110865   4.769   1.808   6.710 -0.7087  0.0371  0.7068
  107OSM    O1210866   4.867   2.040   6.730  0.3959  0.1448  0.0219
  107OSM    C1S10867   4.712   1.859   6.583 -0.8500 -0.0130 -0.0962
  107OSM    H1S10868   4.796   1.892   6.518  1.0665  0.9318  2.6958
  107OSM    H1T10869   4.643   1.946   6.590  1.5538  2.0466 -0.4349
  107OSM     NF10870   4.635   1.738   6.370  0.2197  0.9265  0.4371
  107OSM    HNF10871   4.545   1.757   6.332 -0.5255 -0.0912  1.6440
  107OSM    C2S10872   4.642   1.734   6.512  0.2639  0.0261 -0.3490
  107OSM    H2S10873   4.708   1.649   6.543  2.4329  1.4403 -0.8482
  107OSM    C3S10874   4.494   1.706   6.575  0.0788 -0.6324  0.5664
  107OSM    H3S10875   4.422   1.768   6.518 -0.8777 -1.0098  1.3476
  107OSM     O310876   4.468   1.745   6.707 -0.6822  0.3860  0.3233
  107OSM    HO310877   4.555   1.752   6.745 -0.4052 -2.5560  0.4678
  107OSM    C4S10878   4.470   1.554   6.546 -0.3359 -0.0680 -0.1314
  107OSM    H4S10879   4.420   1.540   6.448 -0.5243 -2.1394  0.2189
  107OSM    C5S10880   4.504   1.446   6.616 -0.6166 -0.1463 -0.0497
  107OSM    H5S10881   4.560   1.466   6.709  1.7475  2.0691 -1.8113
  107OSM    C6S10882   4.506   1.306   6.561 -0.0726 -0.1547 -0.1707
  107OSM    H6S10883   4.402   1.265   6.555 -0.7386  1.3836  0.3518
  107OSM    H6T10884   4.556   1.234   6.628  2.3086  1.6070  0.0651
  107OSM    C7S10885   4.587   1.298   6.435 -0.2272 -0.0553 -0.0035
  107OSM    H7S10886   4.694   1.325   6.450 -0.3305  2.1010 -2.4016
  107OSM    H7T10887   4.543   1.358   6.353  1.8884 -1.5599 -2.4013
  107OSM    C8S10888   4.602   1.152   6.378  0.2708  0.1613  0.1610
  107OSM    H8S10889   4.501   1.115   6.352  0.1025 -0.3696  1.5036
  107OSM    H8T10890   4.642   1.084   6.457  2.6131  1.7063  0.4201
  107OSM    C9S10891   4.692   1.140   6.255 -0.8045 -0.3690  0.4926
  107OSM    H9S10892   4.776   1.211   6.268  0.5460 -1.4435 -1.7109
  107OSM    H9T10893   4.635   1.184   6.170 -0.3883 -1.5524 -0.4187
  107OSM   C10S10894   4.737   0.996   6.226 -0.5927 -0.1549  0.3389
  107OSM   H10S10895   4.655   0.929   6.194 -0.9173  0.1388  0.5581
  107OSM   H10T10896   4.791   0.959   6.317 -0.0263  1.6294  0.7595
  107OSM   C11S10897   4.846   0.991   6.112  0.3119 -0.1158  0.0705
  107OSM   H11S10898   4.883   0.893   6.076  0.7089 -1.2108  3.1406
  107OSM   H11T10899   4.929   1.056   6.148 -1.0308  1.5019  0.3762
  107OSM   C12S10900   4.789   1.056   5.977  0.3383  0.9182 -0.2890
  107OSM   H12S10901   4.777   1.165   5.998 -0.5770  0.6254  0.8523
  107OSM   H12T10902   4.694   1.006   5.949  0.0416  1.8872 -1.0875
  107OSM   C13S10903   4.886   1.030   5.856  1.1250  0.3313  0.1251
  107OSM   H13S10904   4.877   0.920   5.852 -4.0253  0.5033 -0.5341
  107OSM   H13T10905   4.993   1.054   5.870  1.2630  0.2227 -0.6572
  107OSM   C14S10906   4.825   1.091   5.727 -0.0952  0.2516  0.6326
  107OSM   H14S10907   4.844   1.201   5.724  1.0747  0.1518  2.4505
  107OSM   H14T10908   4.716   1.075   5.726 -0.0226 -0.2249  0.1100
  107OSM   C15S10909   4.876   1.006   5.612 -0.1685 -0.3234  0.4178
  107OSM   H15S10910   4.833   0.904   5.618  0.6094 -0.6178  1.2527
  107OSM   H15T10911   4.986   1.006   5.629  0.0053  0.3133 -0.6288
  107OSM   C16S10912   4.849   1.071   5.470 -0.3034 -0.5573  0.0370
  107OSM   H16S10913   4.914   1.008   5.406  0.7645  0.2421  0.2887
  107OSM   H16T10914   4.905   1.168   5.474 -1.3748  0.0669  0.2312
  107OSM   C17S10915   4.705   1.097   5.432 -0.3315  0.1067  0.1713
  107OSM   H17S10916   4.658   1.136   5.525  0.8025  0.6660  0.5270
  107OSM   H17T10917   4.663   0.998   5.405 -1.4034  0.1150  1.6428
  107OSM   C18S10918   4.699   1.202   5.323 -0.6192  0.0571  0.7108
  107OSM   H18S10919   4.778   1.162   5.256 -3.9927 -1.0311 -3.0796
  107OSM   H18T10920   4.732   1.306   5.341 -0.9632  0.6424 -1.6532
  107OSM   H18U10921   4.610   1.202   5.256 -0.0354 -2.3485 -0.1914
  107OSM    C1F10922   4.745   1.727   6.297 -0.7819  0.4378 -0.0980
  107OSM     OF10923   4.855   1.737   6.339 -0.0008 -0.4847 -0.1007
  107OSM    C2F10924   4.721   1.699   6.154 -0.1332 -0.5877 -0.2206
  107OSM    H2F10925   4.689   1.791   6.103 -0.4000  0.1686  1.2462
  107OSM    H2G10926   4.642   1.622   6.138  0.4023 -1.0176 -0.8228
  107OSM    C3F10927   4.845   1.641   6.073  0.1612 -0.3907 -1.3360
  107OSM    H3F10928   4.868   1.537   6.105  2.5480 -0.1629 -2.1526
  107OSM    H3G10929   4.936   1.703   6.085  1.8164 -2.8883  0.0106
  107OSM    C4F10930   4.818   1.622   5.921  0.6534  0.0527  0.0027
  107OSM    H4F10931   4.912   1.607   5.864  0.2423 -0.1915 -0.6174
  107OSM    H4G10932   4.768   1.713   5.882 -3.6590 -2.0273  0.0812
  107OSM    C5F10933   4.738   1.492   5.896 -0.6114 -0.7036  0.1484
  107OSM    H5F10934   4.648   1.496   5.961 -0.1447  0.3657  0.7482
  107OSM    H5G10935   4.814   1.412   5.911 -1.9612 -2.7738 -2.9027
  107OSM    C6F10936   4.688   1.479   5.749 -0.9780  0.1543 -0.9818
  107OSM    H6F10937   4.740   1.406   5.683 -1.7253  0.3482 -1.8069
  107OSM    H6G10938   4.706   1.575   5.697 -0.0291 -0.6303 -2.1511
  107OSM    C7F10939   4.539   1.447   5.734  0.2709 -0.6994 -0.0512
  107OSM    H7F10940   4.496   1.471   5.635 -1.7059  1.4526  1.2086
  107OSM    H7G10941   4.488   1.513   5.807  0.6824 -0.1837 -0.2225
  107OSM    C8F10942   4.493   1.306   5.779 -0.3384 -0.4725 -0.2182
  107OSM    H8F10943   4.550   1.279   5.870  0.0195  3.5512  0.9448
  107OSM    H8G10944   4.524   1.227   5.707 -0.2191 -1.0633  0.4641
  107OSM    C9F10945   4.341   1.310   5.813  0.1447  0.2148  0.5090
  107OSM    H9F10946   4.308   1.393   5.877 -2.9558 -0.3489 -0.1988
  107OSM   C10F10947   4.245   1.237   5.751 -0.1260  0.4656  0.4163
  107OSM   H10F10948   4.141   1.255   5.783 -0.1314  1.8851 -0.2937
  107OSM   C11F10949   4.255   1.124   5.651  0.3963  0.6782 -0.1244
  107OSM   H11F10950   4.164   1.062   5.645 -0.0525  1.1655  1.4068
  107OSM   H11G10951   4.351   1.072   5.672 -0.7407 -1.6708 -0.4780
  107OSM   C12F10952   4.268   1.164   5.500 -0.1731 -0.3389  0.1235
  107OSM   H12F10953   4.352   1.237   5.500  0.3008 -0.8528 -1.3848
  107OSM   H12G10954   4.177   1.213   5.460  0.3404  1.4513  1.0260
  107OSM   C13F10955   4.313   1.062   5.400  0.2281  0.0942  0.3865
  107OSM   H13F10956   4.259   0.965   5.406  0.0945  0.1208 -0.3078
  107OSM   H13G10957   4.419   1.038   5.423  0.1612 -1.5685 -0.8143
  107OSM   C14F10958   4.295   1.118   5.255 -0.4823  0.6113  0.6722
  107OSM   H14F10959   4.326   1.225   5.249  1.3855  0.0340 -1.0242
  107OSM   H14G10960   4.186   1.113   5.236 -0.7985 -1.8207  2.6595
  107OSM   C15F10961   4.372   1.032   5.147  0.8515  0.9431 -0.3656
  107OSM   H15F10962   4.333   0.928   5.144 -0.7756  1.4350  1.5603
  107OSM   H15G10963   4.477   1.020   5.179  0.4027 -0.0127  0.8395
  107OSM   C16F10964   4.377   1.087   5.009 -0.2276  0.2156  0.6756
  107OSM   H16F10965   4.411   1.192   4.999 -0.1079 -0.0056 -1.6166
  107OSM   H16G10966   4.270   1.085   4.980 -0.1016  0.1282  0.2138
  107OSM   C17F10967   4.463   1.007   4.913  0.6594 -0.6071  0.7882
  107OSM   H17F10968   4.443   0.897   4.918 -0.0400 -0.8371 -3.4890
  107OSM   H17G10969   4.571   1.019   4.938  0.6022  0.1299  0.6871
  107OSM   C18F10970   4.420   1.054   4.764  1.2842  0.1287 -0.1457
  107OSM   H18F10971   4.435   0.968   4.695  0.2086 -0.1458 -0.0622
  107OSM   H18G10972   4.468   1.152   4.744  2.6572 -0.2193  1.2375
  107OSM   H18H10973   4.309   1.054   4.767  1.2743 -0.7807  0.0784
  108OSM      N10974   6.680   2.239   6.942  0.3414  0.3915  0.3524
  108OSM    C1510975   6.791   2.190   7.024  1.0387 -0.5626  0.3431
  108OSM   H15A10976   6.767   2.097   7.074  3.6669 -1.2162  0.5720
  108OSM   H15B10977   6.810   2.271   7.092 -0.3217 -1.1486  1.4693
  108OSM   H15C10978   6.876   2.165   6.962  0.9399  0.1920 -0.1052
  108OSM    C1410979   6.566   2.236   7.039 -0.0235  0.1370 -0.1495
  108OSM   H14A10980   6.532   2.136   7.057  0.8313 -0.2500 -0.6409
  108OSM   H14B10981   6.482   2.294   7.003  0.9208  1.6025 -0.0693
  108OSM   H14C10982   6.602   2.280   7.131  2.8687 -3.2906  0.5864
  108OSM    C1310983   6.703   2.377   6.901  0.3068 -0.3653  0.2410
  108OSM   H13A10984   6.782   2.383   6.827  0.9563  2.0543  1.0404
  108OSM   H13B10985   6.741   2.429   6.988 -1.8887  0.5559  0.6923
  108OSM   H13C10986   6.617   2.429   6.863  0.5052  0.2079  0.5642
  108OSM    C1210987   6.638   2.142   6.832  0.0131 -0.1744 -0.0384
  108OSM   H12A10988   6.558   2.182   6.771  0.8196 -3.1142 -3.3373
  108OSM   H12B10989   6.590   2.058   6.880  0.3965 -1.0380 -1.1276
  108OSM    C1110990   6.734   2.091   6.725  0.2981 -0.2993 -0.5277
  108OSM   H11A10991   6.793   2.178   6.689 -2.6202  2.0518 -0.0451
  108OSM   H11B10992   6.674   2.052   6.639 -0.7212  1.3454 -0.6002
  108OSM      P10993   6.768   1.842   6.806 -0.1423  0.0888  0.5753
  108OSM    O1310994   6.888   1.760   6.840 -0.3120  0.4215  0.4944
  108OSM    O1410995   6.653   1.837   6.906  0.1278 -0.3676  0.8644
  108OSM    O1110996   6.712   1.798   6.666 -0.6922 -0.0117  0.1061
  108OSM    O1210997   6.819   1.987   6.783 -0.3091 -0.3225  0.2443
  108OSM    C1S10998   6.801   1.781   6.551  0.1884 -0.1630 -0.4480
  108OSM    H1S10999   6.876   1.705   6.582 -0.1238  0.7949  3.1252
  108OSM    H1T11000   6.855   1.877   6.533 -1.5485  0.5545 -2.1581
  108OSM     NF11001   6.827   1.711   6.329  0.3467 -0.1177  0.2305
  108OSM    HNF11002   6.847   1.780   6.259 -0.5801 -0.1549 -0.0745
  108OSM    C2S11003   6.726   1.739   6.427 -0.7088  0.2659 -0.3439
  108OSM    H2S11004   6.669   1.644   6.428  0.6084 -0.5590 -1.2376
  108OSM    C3S11005   6.627   1.856   6.386  0.2683  0.0629  0.2459
  108OSM    H3S11006   6.683   1.951   6.372 -1.1883  1.5179  3.2589
  108OSM     O311007   6.532   1.894   6.488  0.2598 -0.0368  0.2819
  108OSM    HO311008   6.565   1.833   6.555 -0.5488  0.5876  1.2801
  108OSM    C4S11009   6.562   1.819   6.253  0.4558  0.0896  0.1909
  108OSM    H4S11010   6.612   1.870   6.169 -0.2845  0.8445  0.1962
  108OSM    C5S11011   6.454   1.740   6.237  0.1567  1.3550  0.5246
  108OSM    H5S11012   6.393   1.709   6.324 -0.4584  1.2323  0.0580
  108OSM    C6S11013   6.391   1.700   6.106  0.0658  0.1978  0.3321
  108OSM    H6S11014   6.331   1.785   6.066 -0.7168  0.2768  1.6158
  108OSM    H6T11015   6.330   1.608   6.121  1.1705 -0.5902  0.0528
  108OSM    C7S11016   6.506   1.658   6.007  0.2338  0.0180 -0.0280
  108OSM    H7S11017   6.551   1.560   6.033 -0.7301 -1.0965 -2.3154
  108OSM    H7T11018   6.593   1.725   5.989  0.1247 -0.4164 -2.5016
  108OSM    C8S11019   6.439   1.643   5.872  0.1437  0.5812  0.2493
  108OSM    H8S11020   6.396   1.744   5.854 -0.4489  0.7465  2.3336
  108OSM    H8T11021   6.358   1.568   5.877  0.6065 -0.0376 -1.0176
  108OSM    C9S11022   6.534   1.615   5.759  0.8834 -0.7874  0.0314
  108OSM    H9S11023   6.586   1.518   5.777 -0.5679 -1.3732  1.2734
  108OSM    H9T11024   6.607   1.698   5.750 -0.7290  0.6298 -0.5458
  108OSM   C10S11025   6.456   1.597   5.629  0.2217  0.3245 -0.2093
  108OSM   H10S11026   6.378   1.675   5.616  1.4198  1.7728  1.0728
  108OSM   H10T11027   6.402   1.499   5.622  0.3678  0.0799  1.5954
  108OSM   C11S11028   6.542   1.611   5.507  0.3492  0.4526  0.2124
  108OSM   H11S11029   6.635   1.555   5.532 -0.8187 -1.2466  0.9452
  108OSM   H11T11030   6.561   1.718   5.487 -0.4967  0.4915 -0.4324
  108OSM   C12S11031   6.473   1.548   5.387 -0.6863  0.5066 -0.2298
  108OSM   H12S11032   6.382   1.611   5.375 -1.9777 -0.7668  2.1384
  108OSM   H12T11033   6.454   1.440   5.408  2.7432 -0.2750 -0.5386
  108OSM   C13S11034   6.565   1.559   5.265 -0.2092  0.7545  0.0318
  108OSM   H13S11035   6.529   1.474   5.203 -0.7638 -0.6653  2.2051
  108OSM   H13T11036   6.669   1.534   5.295  0.4264  1.6531 -1.3039
  108OSM   C14S11037   6.552   1.690   5.180 -0.2377 -0.2209 -0.2134
  108OSM   H14S11038   6.610   1.763   5.241  2.2335 -1.1638 -1.2883
  108OSM   H14T11039   6.444   1.714   5.192 -0.7295 -2.5203  0.2678
  108OSM   C15S11040   6.596   1.673   5.038 -0.2387  0.1612 -0.0647
  108OSM   H15S11041   6.544   1.748   4.975  0.9644  1.4397  0.4359
  108OSM   H15T11042   6.589   1.575   4.986 -0.8082 -0.3530  0.9341
  108OSM   C16S11043   6.746   1.700   5.010  0.9055  0.2877 -0.5786
  108OSM   H16S11044   6.766   1.793   5.068 -0.3217 -0.2461  0.7327
  108OSM   H16T11045   6.754   1.714   4.900  1.9557  3.8068 -0.1885
  108OSM   C17S11046   6.839   1.593   5.062  0.0418  0.5075 -0.5277
  108OSM   H17S11047   6.829   1.570   5.170  0.6870 -2.3600 -0.9954
  108OSM   H17T11048   6.939   1.641   5.051  0.4511 -0.4522 -1.1670
  108OSM   C18S11049   6.817   1.459   4.991  0.5399  0.6861  0.0604
  108OSM   H18S11050   6.728   1.405   5.030  0.4817 -0.2446 -1.3038
  108OSM   H18T11051   6.904   1.395   5.016 -1.2330 -0.5547  3.8163
  108OSM   H18U11052   6.801   1.476   4.882  0.2259  0.6601  0.1028
  108OSM    C1F11053   6.890   1.599   6.315  0.2778 -0.7151  0.1070
  108OSM     OF11054   6.863   1.506   6.387 -0.0278  0.0236  0.5832
  108OSM    C2F11055   7.008   1.597   6.218  0.1657  0.2013  0.3617
  108OSM    H2F11056   7.103   1.600   6.276  0.4445  1.9605 -0.1092
  108OSM    H2G11057   7.003   1.691   6.158 -0.8179  0.3529  0.6667
  108OSM    C3F11058   7.011   1.477   6.120 -0.2680  0.2497 -0.1774
  108OSM    H3F11059   6.924   1.488   6.051  0.1434  0.5011 -0.6690
  108OSM    H3G11060   6.995   1.387   6.183 -0.7418  1.9786  2.3139
  108OSM    C4F11061   7.141   1.465   6.037  0.7532  0.4137  0.6058
  108OSM    H4F11062   7.234   1.457   6.099  1.3195 -1.2494 -0.4161
  108OSM    H4G11063   7.134   1.554   5.971 -2.9811  0.6505  1.1209
  108OSM    C5F11064   7.142   1.337   5.948  0.4095 -0.3103  1.1889
  108OSM    H5F11065   7.246   1.324   5.909  0.0064 -0.7225  0.2214
  108OSM    H5G11066   7.073   1.337   5.861  1.7942 -2.2154  0.0097
  108OSM    C6F11067   7.125   1.212   6.031  0.0523  0.1919  0.0107
  108OSM    H6F11068   7.021   1.196   6.068  0.8225 -0.6898  1.9223
  108OSM    H6G11069   7.186   1.210   6.124  0.1278 -2.2587 -0.0128
  108OSM    C7F11070   7.154   1.085   5.949 -0.4628 -0.2712  0.5866
  108OSM    H7F11071   7.253   1.096   5.899  0.3287  1.5964  2.3969
  108OSM    H7G11072   7.087   1.062   5.864  0.1565 -1.7991  0.4734
  108OSM    C8F11073   7.173   0.957   6.035  0.3184  0.2183  0.4688
  108OSM    H8F11074   7.086   0.952   6.104  1.3009  1.4506  1.8717
  108OSM    H8G11075   7.259   0.975   6.104 -0.2319  0.0885  1.1992
  108OSM    C9F11076   7.196   0.839   5.941 -0.6552 -0.4757  0.6554
  108OSM    H9F11077   7.304   0.828   5.926 -0.7789 -0.1216 -0.6832
  108OSM   C10F11078   7.106   0.767   5.872  0.3987 -0.7334  0.1924
  108OSM   H10F11079   7.136   0.681   5.811 -2.8058  0.0370 -2.8215
  108OSM   C11F11080   6.958   0.778   5.870 -0.6677  0.8203  0.0064
  108OSM   H11F11081   6.915   0.880   5.876 -1.5175  0.6043 -1.6340
  108OSM   H11G11082   6.924   0.727   5.963  3.3170 -0.4725  0.9379
  108OSM   C12F11083   6.891   0.710   5.747  0.3412 -0.4650 -0.4905
  108OSM   H12F11084   6.781   0.720   5.759  0.7190  0.6111  3.2624
  108OSM   H12G11085   6.906   0.600   5.752  0.0789 -0.5003 -0.4386
  108OSM   C13F11086   6.931   0.771   5.615 -0.2803  0.2861 -0.8888
  108OSM   H13F11087   7.041   0.759   5.609 -0.3543 -0.7445 -0.4131
  108OSM   H13G11088   6.910   0.880   5.621 -0.2099  0.3710 -2.0060
  108OSM   C14F11089   6.867   0.696   5.503 -0.2115  0.6307 -0.5190
  108OSM   H14F11090   6.766   0.655   5.524  0.1334  0.2398  0.4290
  108OSM   H14G11091   6.915   0.600   5.477 -1.7260 -0.3627  0.1866
  108OSM   C15F11092   6.859   0.781   5.381  0.0265 -0.4225  0.8121
  108OSM   H15F11093   6.816   0.879   5.408 -0.9782 -0.6968  0.2738
  108OSM   H15G11094   6.789   0.729   5.311  0.5169  0.5944 -0.4814
  108OSM   C16F11095   6.992   0.785   5.306  0.0563 -0.9846 -0.4473
  108OSM   H16F11096   7.033   0.682   5.295 -0.4374 -1.2842  0.4031
  108OSM   H16G11097   7.063   0.838   5.372 -0.5206  0.0049 -0.6096
  108OSM   C17F11098   6.991   0.846   5.163 -0.0167 -0.0006 -0.1401
  108OSM   H17F11099   7.101   0.863   5.153  0.4736 -1.5996  1.8849
  108OSM   H17G11100   6.945   0.947   5.155  0.3605  0.1293 -0.7568
  108OSM   C18F11101   6.944   0.746   5.061 -0.0503 -0.0605 -0.3887
  108OSM   H18F11102   6.999   0.735   4.964 -0.8998  0.8731 -0.9962
  108OSM   H18G11103   6.839   0.775   5.040 -0.9465 -1.6593  1.5433
  108OSM   H18H11104   6.944   0.646   5.109  0.1112 -0.1294 -0.5278
  109OSM      N11105   3.709   4.180   6.993  0.2282 -0.5661 -0.4780
  109OSM    C1511106   3.590   4.086   6.965 -0.2633 -0.0764 -0.2522
  109OSM   H15A11107   3.630   3.987   6.954  0.7815  0.2898  0.1339
  109OSM   H15B11108   3.542   4.099   6.869 -0.7989 -3.1063 -0.4953
  109OSM   H15C11109   3.516   4.085   7.044  0.6854  0.8273  0.6928
  109OSM    C1411110   3.658   4.324   6.996 -0.4337  0.5342 -0.1396
  109OSM   H14A11111   3.742   4.382   7.032 -0.3108 -1.0513  2.3287
  109OSM   H14B11112   3.579   4.331   7.069  0.8475 -2.0860  1.6379
  109OSM   H14C11113   3.622   4.348   6.897 -2.1389 -1.5565 -0.0913
  109OSM    C1311114   3.772   4.148   7.129  0.0308 -0.0245 -0.8719
  109OSM   H13A11115   3.862   4.205   7.145 -0.5476  0.3043  1.6961
  109OSM   H13B11116   3.790   4.041   7.126 -1.2275 -0.4068  2.0661
  109OSM   H13C11117   3.704   4.164   7.211 -1.3225 -1.3711 -1.6732
  109OSM    C1211118   3.816   4.176   6.892 -1.0454  0.1503 -0.3527
  109OSM   H12A11119   3.896   4.246   6.908  1.2771 -2.5625  0.7555
  109OSM   H12B11120   3.773   4.213   6.800  2.5230 -0.3148 -2.3682
  109OSM    C1111121   3.871   4.039   6.838 -0.2007 -0.1682 -0.3307
  109OSM   H11A11122   3.949   4.001   6.908 -0.0567 -1.7258 -1.2984
  109OSM   H11B11123   3.914   4.058   6.737 -1.0011 -0.7781 -0.7925
  109OSM      P11124   3.823   3.792   6.802  0.2251  0.0282 -0.5395
  109OSM    O1311125   3.901   3.742   6.921  0.0053 -0.4488  0.1672
  109OSM    O1411126   3.702   3.715   6.762 -0.1522 -0.1227  0.0632
  109OSM    O1111127   3.911   3.805   6.672 -0.0822 -0.3466  0.4714
  109OSM    O1211128   3.774   3.937   6.829 -0.1809  0.3164 -0.9374
  109OSM    C1S11129   3.870   3.769   6.542  0.1079 -0.3806 -0.4207
  109OSM    H1S11130   3.791   3.833   6.497  0.3137  0.1573 -0.0203
  109OSM    H1T11131   3.836   3.663   6.537  0.7060 -0.5578 -0.8780
  109OSM     NF11132   3.949   3.750   6.308  0.1556 -0.1786  0.3387
  109OSM    HNF11133   3.935   3.653   6.288  0.2271 -0.2158  0.4665
  109OSM    C2S11134   3.986   3.791   6.442  0.5441 -0.2409  0.2558
  109OSM    H2S11135   4.023   3.896   6.439  2.9015 -1.0496 -2.3383
  109OSM    C3S11136   4.102   3.701   6.483 -0.4100 -0.4351 -0.2655
  109OSM    H3S11137   4.084   3.597   6.450 -2.0785  0.0575 -0.9862
  109OSM     O311138   4.128   3.686   6.620  0.2205  0.9204 -0.2460
  109OSM    HO311139   4.057   3.738   6.658  2.1057  2.0333  1.9814
  109OSM    C4S11140   4.227   3.736   6.408 -0.7881  0.0309 -0.0755
  109OSM    H4S11141   4.258   3.655   6.339 -0.6375 -1.0728  1.2291
  109OSM    C5S11142   4.323   3.825   6.446  0.2759 -0.5345  1.0236
  109OSM    H5S11143   4.297   3.894   6.528  0.3937  3.7395 -2.1931
  109OSM    C6S11144   4.462   3.843   6.402  0.1380  0.7592  0.8017
  109OSM    H6S11145   4.524   3.770   6.458 -0.0049  1.4660  1.9096
  109OSM    H6T11146   4.498   3.940   6.443 -0.7824  0.9023  1.2917
  109OSM    C7S11147   4.474   3.828   6.249 -1.2056  0.4172 -0.0148
  109OSM    H7S11148   4.423   3.899   6.182  1.8523  0.8969 -2.0517
  109OSM    H7T11149   4.445   3.728   6.210  1.4591  1.0819 -4.3890
  109OSM    C8S11150   4.621   3.840   6.221 -0.4773  0.2014  0.6039
  109OSM    H8S11151   4.683   3.773   6.283  0.3473 -0.3402 -0.7688
  109OSM    H8T11152   4.666   3.939   6.243  1.8858 -1.1246  2.1189
  109OSM    C9S11153   4.645   3.817   6.066  0.5101 -0.1105  0.3679
  109OSM    H9S11154   4.613   3.712   6.054  0.4325 -0.0986  0.4685
  109OSM    H9T11155   4.756   3.818   6.063  0.5348 -0.7721  0.8635
  109OSM   C10S11156   4.570   3.912   5.963  0.8854 -0.0004 -0.0092
  109OSM   H10S11157   4.554   4.017   5.996 -0.3404 -0.6343  1.5183
  109OSM   H10T11158   4.467   3.871   5.956  0.3430  1.3907 -0.4762
  109OSM   C11S11159   4.645   3.907   5.835 -0.2147 -0.8391  0.6093
  109OSM   H11S11160   4.752   3.926   5.857  0.2338  0.1262 -2.0499
  109OSM   H11T11161   4.608   3.985   5.765  1.6646  0.2364  0.7419
  109OSM   C12S11162   4.637   3.773   5.761  0.2043 -0.4067  0.1551
  109OSM   H12S11163   4.531   3.742   5.751 -0.0314  0.1506  0.8865
  109OSM   H12T11164   4.684   3.697   5.827  3.7354  1.1588 -0.2851
  109OSM   C13S11165   4.710   3.772   5.624  0.2199  0.0251  0.3581
  109OSM   H13S11166   4.807   3.821   5.647  0.7818 -0.6209 -0.5677
  109OSM   H13T11167   4.660   3.843   5.555 -0.9389  0.4187  1.5492
  109OSM   C14S11168   4.711   3.634   5.560 -0.1245 -0.1886  0.2234
  109OSM   H14S11169   4.614   3.585   5.581  0.2593 -1.8268 -1.5246
  109OSM   H14T11170   4.801   3.584   5.603 -1.8578 -2.8248  1.0118
  109OSM   C15S11171   4.727   3.638   5.404  0.5764 -0.4533 -0.2660
  109OSM   H15S11172   4.818   3.694   5.375  0.7687 -0.1215  0.9447
  109OSM   H15T11173   4.644   3.691   5.352 -0.6071 -2.3816 -0.4577
  109OSM   C16S11174   4.716   3.508   5.323 -0.3895 -0.0753 -0.1866
  109OSM   H16S11175   4.614   3.464   5.327 -0.1468 -0.6604 -0.2679
  109OSM   H16T11176   4.784   3.428   5.359 -0.5977 -1.7959 -3.2661
  109OSM   C17S11177   4.773   3.525   5.185 -0.8649 -0.3273 -0.2459
  109OSM   H17S11178   4.866   3.585   5.194 -1.7436  1.0012  0.2064
  109OSM   H17T11179   4.710   3.585   5.116 -1.5781  1.3759  1.8183
  109OSM   C18S11180   4.777   3.387   5.119  0.4829  0.4581  0.0292
  109OSM   H18S11181   4.686   3.363   5.059 -0.7258  0.0043  1.9549
  109OSM   H18T11182   4.782   3.301   5.189 -1.1764 -0.1863 -0.5856
  109OSM   H18U11183   4.862   3.382   5.047  0.6608 -0.2104  0.2801
  109OSM    C1F11184   3.874   3.823   6.227 -0.1095 -0.6350  0.2163
  109OSM     OF11185   3.854   3.943   6.245 -0.0711  0.8291  0.4729
  109OSM    C2F11186   3.797   3.745   6.131  0.8092 -0.2961 -0.4305
  109OSM    H2F11187   3.689   3.735   6.154  1.1435  0.9247  1.9024
  109OSM    H2G11188   3.834   3.640   6.120 -1.4779 -1.4406  1.7557
  109OSM    C3F11189   3.813   3.798   5.987  0.0878 -0.1867  0.4602
  109OSM    H3F11190   3.921   3.810   5.969  0.1317 -1.0332  0.1103
  109OSM    H3G11191   3.772   3.900   5.969  1.4389  0.0207 -1.7917
  109OSM    C4F11192   3.759   3.691   5.889 -0.2024 -0.1446 -0.2677
  109OSM    H4F11193   3.648   3.686   5.880 -0.2059  2.3702 -3.6500
  109OSM    H4G11194   3.807   3.595   5.917  3.9602  2.3330  2.1170
  109OSM    C5F11195   3.825   3.714   5.751 -0.0376  0.2696  0.1335
  109OSM    H5F11196   3.936   3.711   5.748  0.2099  3.5156  1.9591
  109OSM    H5G11197   3.793   3.811   5.708  1.5335  1.6087  1.8076
  109OSM    C6F11198   3.778   3.605   5.649 -0.6651 -0.1792 -0.5078
  109OSM    H6F11199   3.667   3.609   5.644 -0.7290 -1.6746 -1.0037
  109OSM    H6G11200   3.814   3.509   5.693 -0.0477 -0.0416 -0.7047
  109OSM    C7F11201   3.839   3.631   5.509  0.4039 -0.2124 -0.0376
  109OSM    H7F11202   3.950   3.636   5.518  0.3545  2.3516 -0.1792
  109OSM    H7G11203   3.809   3.726   5.462  0.4000  0.2753  0.9360
  109OSM    C8F11204   3.793   3.523   5.418 -0.4357 -0.0003  0.5715
  109OSM    H8F11205   3.807   3.421   5.458  0.6193 -0.0001  0.2363
  109OSM    H8G11206   3.859   3.545   5.331 -0.0669  0.4873  0.9745
  109OSM    C9F11207   3.638   3.523   5.388 -0.1621  0.6023  0.1025
  109OSM    H9F11208   3.579   3.463   5.458  0.7837 -0.3463  0.1093
  109OSM   C10F11209   3.582   3.582   5.285  0.7585 -0.2998  0.2922
  109OSM   H10F11210   3.474   3.564   5.278  0.7533  0.2455 -1.6853
  109OSM   C11F11211   3.650   3.658   5.174  0.6904 -0.4117 -0.3391
  109OSM   H11F11212   3.757   3.679   5.193  0.6185  2.7376 -2.5566
  109OSM   H11G11213   3.613   3.759   5.146  0.5906 -0.6672 -1.1594
  109OSM   C12F11214   3.639   3.578   5.045 -0.5000  1.1465 -0.0356
  109OSM   H12F11215   3.541   3.534   5.021  0.1876 -1.4200  1.4555
  109OSM   H12G11216   3.707   3.492   5.066 -1.3584  0.3077 -0.6521
  109OSM   C13F11217   3.711   3.641   4.929  0.2946  0.1507  0.6457
  109OSM   H13F11218   3.815   3.670   4.957  0.6303 -1.2545  0.9459
  109OSM   H13G11219   3.649   3.732   4.912 -0.1113 -0.2851 -0.3006
  109OSM   C14F11220   3.708   3.563   4.791  1.0565  0.1360 -0.3066
  109OSM   H14F11221   3.606   3.527   4.764 -0.3342  0.9945  3.2461
  109OSM   H14G11222   3.769   3.473   4.814 -0.2730 -0.7753 -0.2046
  109OSM   C15F11223   3.777   3.643   4.684 -1.1555 -0.3881  0.2440
  109OSM   H15F11224   3.782   3.578   4.594 -1.5148  0.7705 -0.6227
  109OSM   H15G11225   3.881   3.671   4.712 -1.5003 -0.8588  2.1425
  109OSM   C16F11226   3.716   3.786   4.661  0.5431 -0.3600 -0.2497
  109OSM   H16F11227   3.725   3.849   4.752  1.3613  0.4633 -0.8720
  109OSM   H16G11228   3.611   3.764   4.629 -0.2826  2.7999 -0.0549
  109OSM   C17F11229   3.772   3.863   4.543 -0.5027  0.3721 -0.4794
  109OSM   H17F11230   3.878   3.888   4.562 -0.3574 -1.4883  1.4546
  109OSM   H17G11231   3.727   3.964   4.533  0.4576  0.6166 -3.1966
  109OSM   C18F11232   3.765   3.781   4.414  0.6100  0.4587 -0.3270
  109OSM   H18F11233   3.829   3.829   4.337  1.1531 -0.4065 -0.4256
  109OSM   H18G11234   3.662   3.772   4.372 -0.0847 -1.1907  1.5286
  109OSM   H18H11235   3.795   3.677   4.438  1.6801  0.6900 -0.6141
  110OSM      N11236   5.998   6.476   7.215 -0.0045 -0.4396 -0.5097
  110OSM    C1511237   5.997   6.620   7.265 -0.5321 -0.6162  0.0189
  110OSM   H15A11238   5.983   6.636   7.371 -0.8478  3.5880 -0.4795
  110OSM   H15B11239   5.925   6.684   7.215  0.3603  0.7924  0.4923
  110OSM   H15C11240   6.098   6.654   7.249 -0.9546  0.7094  0.0145
  110OSM    C1411241   6.107   6.403   7.293 -0.3744  0.3508  0.0971
  110OSM   H14A11242   6.086   6.383   7.397 -2.1686 -0.4366 -0.3652
  110OSM   H14B11243   6.189   6.472   7.306 -1.9951  1.9598  2.6471
  110OSM   H14C11244   6.131   6.314   7.237  0.2011  1.1276 -0.9217
  110OSM    C1311245   5.861   6.421   7.243  0.1415  0.1357  0.2008
  110OSM   H13A11246   5.792   6.458   7.168 -2.4498 -1.2090  1.7536
  110OSM   H13B11247   5.829   6.465   7.336 -0.6773  0.4864 -0.2397
  110OSM   H13C11248   5.848   6.313   7.248  0.7147  0.0683  0.2667
  110OSM    C1211249   6.032   6.474   7.065  0.7122 -0.3899 -0.2000
  110OSM   H12A11250   6.026   6.374   7.027 -1.3715 -0.6461  0.6567
  110OSM   H12B11251   6.130   6.517   7.051  0.4152 -0.1535 -1.8396
  110OSM    C1111252   5.937   6.552   6.960  0.3927  0.1239 -0.1080
  110OSM   H11A11253   5.830   6.550   6.990  0.4028 -0.2613 -0.0816
  110OSM   H11B11254   5.935   6.494   6.865  0.5568  0.1338 -0.1178
  110OSM      P11255   6.077   6.748   6.846  0.4091  0.2292 -0.2637
  110OSM    O1311256   6.052   6.889   6.822  0.8431  0.0325 -0.0960
  110OSM    O1411257   6.218   6.711   6.873  0.2787  0.5112  0.4675
  110OSM    O1111258   6.029   6.671   6.722  0.4221  0.1293 -0.3792
  110OSM    O1211259   5.979   6.689   6.949 -0.3446  0.2218  0.0330
  110OSM    C1S11260   6.044   6.716   6.584  0.5916 -0.5729  0.3470
  110OSM    H1S11261   6.148   6.708   6.547  0.3869 -0.3362 -0.2988
  110OSM    H1T11262   6.016   6.824   6.588  2.7244 -0.0122  2.7380
  110OSM     NF11263   6.007   6.644   6.349 -0.8488 -0.2006  0.1436
  110OSM    HNF11264   5.968   6.712   6.287 -0.7284 -0.1758  0.0954
  110OSM    C2S11265   5.954   6.642   6.488  0.3622 -0.4379 -0.0892
  110OSM    H2S11266   5.954   6.537   6.526 -2.1922 -0.5758 -0.2884
  110OSM    C3S11267   5.811   6.693   6.499  0.1344 -0.5476 -0.5915
  110OSM    H3S11268   5.792   6.792   6.453 -1.9701 -0.6890 -0.1206
  110OSM     O311269   5.760   6.690   6.633  0.5043  0.5406 -0.4649
  110OSM    HO311270   5.836   6.651   6.677  0.5499  0.5620 -0.5245
  110OSM    C4S11271   5.723   6.605   6.410 -0.4463 -0.2929  0.3767
  110OSM    H4S11272   5.672   6.657   6.327 -1.7176 -2.1820 -0.0727
  110OSM    C5S11273   5.701   6.474   6.414  0.6824  0.6651  0.2609
  110OSM    H5S11274   5.742   6.412   6.495 -0.0432  0.0735  0.1945
  110OSM    C6S11275   5.619   6.397   6.314 -0.2236  0.2700 -0.5567
  110OSM    H6S11276   5.634   6.287   6.308 -1.2601  0.1850 -2.1000
  110OSM    H6T11277   5.657   6.420   6.212  0.3715 -0.2793 -0.4666
  110OSM    C7S11278   5.469   6.417   6.322 -0.2166  0.4557  0.7589
  110OSM    H7S11279   5.448   6.522   6.293 -1.1490  0.0841  0.0648
  110OSM    H7T11280   5.442   6.403   6.429  2.2233  1.8182  1.6325
  110OSM    C8S11281   5.389   6.338   6.217 -0.0953 -0.7567  0.0456
  110OSM    H8S11282   5.281   6.335   6.238 -0.7574 -1.0925 -2.9243
  110OSM    H8T11283   5.437   6.238   6.217 -0.2528 -0.8425 -0.9439
  110OSM    C9S11284   5.421   6.383   6.069  0.0723  0.1584  0.1345
  110OSM    H9S11285   5.531   6.397   6.064  0.3363 -1.7930 -0.3502
  110OSM    H9T11286   5.371   6.481   6.053  1.3785  0.8205 -0.0259
  110OSM   C10S11287   5.387   6.273   5.959  0.0111 -0.2698 -0.8075
  110OSM   H10S11288   5.277   6.263   5.952 -0.4519  1.6610  1.9711
  110OSM   H10T11289   5.422   6.175   5.998  1.4768  0.9781  1.1897
  110OSM   C11S11290   5.440   6.320   5.821  0.4822 -0.6064 -0.7636
  110OSM   H11S11291   5.551   6.310   5.827  0.6027 -0.1183 -1.8954
  110OSM   H11T11292   5.424   6.430   5.817  0.9784 -0.4685  0.6607
  110OSM   C12S11293   5.385   6.251   5.695 -0.3568 -0.7218 -0.2491
  110OSM   H12S11294   5.274   6.246   5.692 -0.3681 -2.5623  1.2581
  110OSM   H12T11295   5.416   6.145   5.703  1.1978 -0.8472 -4.9268
  110OSM   C13S11296   5.415   6.336   5.565  0.4555  0.8842  0.9534
  110OSM   H13S11297   5.525   6.346   5.553  0.5114 -0.8277 -0.3580
  110OSM   H13T11298   5.378   6.439   5.585 -1.1521  0.3165  1.0316
  110OSM   C14S11299   5.358   6.281   5.436 -0.3467 -0.3205  0.1661
  110OSM   H14S11300   5.249   6.262   5.446 -0.1524 -0.6476  1.8467
  110OSM   H14T11301   5.411   6.187   5.411  0.0872 -0.1201  0.3329
  110OSM   C15S11302   5.387   6.382   5.321 -0.0720 -0.8770 -0.0933
  110OSM   H15S11303   5.498   6.390   5.313 -0.0291  0.3693  1.4055
  110OSM   H15T11304   5.351   6.481   5.354 -0.2419 -1.2659  0.9145
  110OSM   C16S11305   5.306   6.337   5.190 -0.3602  0.8989  0.5130
  110OSM   H16S11306   5.204   6.304   5.220  0.4307 -1.5135  0.7781
  110OSM   H16T11307   5.350   6.257   5.127 -1.2643 -0.2905  1.3317
  110OSM   C17S11308   5.284   6.464   5.102 -0.3230 -0.2328 -0.4895
  110OSM   H17S11309   5.273   6.551   5.171  0.9345 -0.6997  0.3546
  110OSM   H17T11310   5.195   6.463   5.036  0.2693 -1.0343 -1.3094
  110OSM   C18S11311   5.402   6.484   5.008  0.0284 -0.0121  0.3201
  110OSM   H18S11312   5.381   6.566   4.936 -0.6201  0.3447  0.9038
  110OSM   H18T11313   5.433   6.390   4.958 -0.3673  0.5186 -0.9514
  110OSM   H18U11314   5.490   6.510   5.071  0.0816 -2.4785  1.4054
  110OSM    C1F11315   6.115   6.567   6.321 -0.5665  0.4269  0.2316
  110OSM     OF11316   6.159   6.496   6.409 -0.4707 -0.2229  0.3337
  110OSM    C2F11317   6.186   6.584   6.193 -0.8017  0.2224  0.4022
  110OSM    H2F11318   6.294   6.570   6.214 -0.9786  0.5518  1.6535
  110OSM    H2G11319   6.172   6.688   6.155 -1.1595  1.1762  2.9027
  110OSM    C3F11320   6.140   6.483   6.083 -0.9219  0.1108  0.1343
  110OSM    H3F11321   6.037   6.502   6.047 -1.0770 -1.9126 -0.6064
  110OSM    H3G11322   6.152   6.387   6.137  0.6005 -0.3267 -0.9313
  110OSM    C4F11323   6.234   6.480   5.965  0.1720 -0.2234  0.4535
  110OSM    H4F11324   6.205   6.387   5.913 -2.4863 -0.3118  1.9001
  110OSM    H4G11325   6.342   6.462   5.983  0.6845  1.5912 -0.5668
  110OSM    C5F11326   6.217   6.596   5.870  0.7279  0.4902 -0.0870
  110OSM    H5F11327   6.254   6.685   5.925  0.5915 -0.1482  1.0762
  110OSM    H5G11328   6.111   6.625   5.856  0.7722  0.5046 -0.3994
  110OSM    C6F11329   6.293   6.581   5.732 -1.4509 -0.0563 -0.4118
  110OSM    H6F11330   6.240   6.515   5.661  1.1078 -1.0050 -1.5733
  110OSM    H6G11331   6.390   6.538   5.765 -0.4586  2.9059  0.9211
  110OSM    C7F11332   6.334   6.718   5.671 -0.3912 -0.0888 -0.4971
  110OSM    H7F11333   6.390   6.770   5.752  0.5582 -1.1436 -0.4450
  110OSM    H7G11334   6.246   6.773   5.632  1.5034  1.6864 -2.5162
  110OSM    C8F11335   6.430   6.706   5.549 -0.3867 -0.3061  0.3634
  110OSM    H8F11336   6.384   6.650   5.465  2.3762  0.5864 -1.9269
  110OSM    H8G11337   6.523   6.655   5.580  0.0935 -0.7977 -1.7252
  110OSM    C9F11338   6.471   6.853   5.511 -0.6376  0.3578 -0.2614
  110OSM    H9F11339   6.442   6.930   5.584  0.9287  3.3816 -2.5882
  110OSM   C10F11340   6.556   6.886   5.409  1.0056  0.0077  0.2548
  110OSM   H10F11341   6.559   6.991   5.376 -0.2328  0.0455  0.2141
  110OSM   C11F11342   6.609   6.787   5.310 -0.3021  0.0609  0.7054
  110OSM   H11F11343   6.531   6.715   5.277  0.9577 -0.8673 -0.3975
  110OSM   H11G11344   6.682   6.717   5.357 -1.0466 -1.4171 -0.2616
  110OSM   C12F11345   6.669   6.850   5.185  0.2438  0.1882 -0.4085
  110OSM   H12F11346   6.763   6.902   5.214 -0.2312  0.1965  1.1911
  110OSM   H12G11347   6.602   6.932   5.151 -2.0802 -0.6449  1.8298
  110OSM   C13F11348   6.688   6.748   5.070  0.5243 -0.8499 -0.1593
  110OSM   H13F11349   6.591   6.735   5.018  0.3898 -1.0243  0.1324
  110OSM   H13G11350   6.717   6.656   5.124  0.6242  0.6303  2.5131
  110OSM   C14F11351   6.808   6.780   4.977  0.0208  0.3707  0.2997
  110OSM   H14F11352   6.818   6.701   4.898  1.9061 -1.0403  1.8701
  110OSM   H14G11353   6.902   6.792   5.034  0.5733  0.5560 -0.6335
  110OSM   C15F11354   6.795   6.916   4.905 -0.4682 -0.6565  0.3726
  110OSM   H15F11355   6.891   6.937   4.854 -1.2177  1.5095 -0.2484
  110OSM   H15G11356   6.786   6.995   4.982  0.0204  0.6714 -0.8831
  110OSM   C16F11357   6.688   6.924   4.801  0.3673 -0.6482 -0.1414
  110OSM   H16F11358   6.592   6.894   4.850  0.2422  1.2528  0.8832
  110OSM   H16G11359   6.706   6.850   4.720  3.6977  1.8072 -1.8487
  110OSM   C17F11360   6.668   7.061   4.738 -0.2091 -0.1147  0.1854
  110OSM   H17F11361   6.624   7.132   4.812  2.5362  1.5163  0.3915
  110OSM   H17G11362   6.587   7.053   4.663  0.0104 -0.3969 -0.0231
  110OSM   C18F11363   6.791   7.129   4.678  0.0600 -0.4683 -0.3104
  110OSM   H18F11364   6.847   7.076   4.599 -0.3808  2.0465 -2.4526
  110OSM   H18G11365   6.851   7.167   4.764 -1.0284  1.7117 -0.4328
  110OSM   H18H11366   6.751   7.224   4.636  2.3654  0.5451 -0.3502
  111OSM      N11367   1.876   4.704   6.740  0.6172 -1.4821 -0.5112
  111OSM    C1511368   1.917   4.781   6.617 -0.7334  0.5188 -0.2089
  111OSM   H15A11369   1.912   4.722   6.527 -0.4891 -0.3385  0.3264
  111OSM   H15B11370   2.021   4.805   6.634  0.1715 -2.5691 -0.7832
  111OSM   H15C11371   1.857   4.871   6.615 -1.2027  0.2093 -1.8490
  111OSM    C1411372   1.730   4.676   6.718  0.0679  0.4660 -0.4397
  111OSM   H14A11373   1.700   4.594   6.780  1.3917  1.3105  1.4041
  111OSM   H14B11374   1.721   4.642   6.616 -2.7758 -0.3805  0.0087
  111OSM   H14C11375   1.666   4.761   6.735 -0.0679  0.2183  0.2953
  111OSM    C1311376   1.958   4.578   6.741 -0.5512 -0.1302 -0.6791
  111OSM   H13A11377   1.905   4.511   6.806  0.5767 -0.8401 -0.4746
  111OSM   H13B11378   2.061   4.587   6.773 -0.5538  1.7422 -1.0558
  111OSM   H13C11379   1.968   4.520   6.650 -2.8394 -0.8313 -0.5476
  111OSM    C1211380   1.897   4.793   6.860 -1.0645 -0.1886  0.7487
  111OSM   H12A11381   1.993   4.841   6.842  0.9521 -4.4778 -1.4197
  111OSM   H12B11382   1.893   4.727   6.945 -2.1161 -0.7441  0.2838
  111OSM    C1111383   1.794   4.907   6.886 -0.6170 -0.3710  0.2222
  111OSM   H11A11384   1.791   4.969   6.793 -0.4009 -1.1683 -0.3311
  111OSM   H11B11385   1.845   4.959   6.970  2.9640 -1.2675 -1.1948
  111OSM      P11386   1.543   4.920   6.907  0.4192 -0.0754  0.5839
  111OSM    O1311387   1.428   4.857   6.969 -0.7715 -0.2311 -0.4492
  111OSM    O1411388   1.567   5.060   6.938 -0.1954  0.1342  0.4507
  111OSM    O1111389   1.523   4.912   6.750 -0.9727  0.0930  0.5219
  111OSM    O1211390   1.675   4.841   6.943  0.0927  0.4142  0.3639
  111OSM    C1S11391   1.531   5.023   6.670 -1.1488  0.1576  0.1573
  111OSM    H1S11392   1.628   5.076   6.680 -0.9957 -0.2099  0.6235
  111OSM    H1T11393   1.446   5.091   6.693  0.6874  3.1522 -1.3066
  111OSM     NF11394   1.579   5.073   6.412 -0.0004 -0.2408  0.3753
  111OSM    HNF11395   1.516   5.120   6.351  1.7565  1.2188 -0.4004
  111OSM    C2S11396   1.523   4.985   6.514 -0.3939 -0.2410 -0.4367
  111OSM    H2S11397   1.590   4.896   6.510  0.1734  0.1018  0.9002
  111OSM    C3S11398   1.378   4.940   6.477  0.1941 -0.0045  0.0827
  111OSM    H3S11399   1.320   5.035   6.475  0.8173  0.3672 -0.3240
  111OSM     O311400   1.307   4.871   6.582  0.7164 -0.2565 -0.5286
  111OSM    HO311401   1.364   4.874   6.659  0.8830 -1.2267 -0.5961
  111OSM    C4S11402   1.372   4.873   6.346  0.7925  0.0580 -0.4247
  111OSM    H4S11403   1.356   4.941   6.262 -1.6357  0.8855  0.6251
  111OSM    C5S11404   1.387   4.742   6.318  0.0337 -0.5557  0.0880
  111OSM    H5S11405   1.397   4.675   6.405  0.2704  0.3748  0.7981
  111OSM    C6S11406   1.374   4.683   6.181 -0.0797  0.2575 -0.7679
  111OSM    H6S11407   1.282   4.622   6.178 -0.3440  0.6546 -0.7955
  111OSM    H6T11408   1.459   4.614   6.166 -1.0311 -0.8057 -1.4052
  111OSM    C7S11409   1.387   4.777   6.062  0.0370 -0.3562  0.2159
  111OSM    H7S11410   1.488   4.823   6.066  0.1351 -0.5573  0.0937
  111OSM    H7T11411   1.300   4.845   6.067  0.1973 -0.1657  0.4447
  111OSM    C8S11412   1.392   4.707   5.928  0.1280 -0.2923  0.4188
  111OSM    H8S11413   1.294   4.655   5.917 -0.2694 -0.0608  2.4282
  111OSM    H8T11414   1.476   4.636   5.918  0.9106  0.8161 -1.3553
  111OSM    C9S11415   1.394   4.804   5.809 -0.2950 -0.1601 -0.4166
  111OSM    H9S11416   1.486   4.867   5.804 -0.2373 -0.2921 -1.2629
  111OSM    H9T11417   1.304   4.869   5.811 -0.6516 -0.6125  2.3648
  111OSM   C10S11418   1.403   4.740   5.668  0.5465  0.5498 -0.4877
  111OSM   H10S11419   1.321   4.669   5.645 -0.8305  1.7266  0.6300
  111OSM   H10T11420   1.492   4.673   5.664  0.5198  0.5229 -0.6418
  111OSM   C11S11421   1.418   4.847   5.560  0.0872 -0.3424 -0.3676
  111OSM   H11S11422   1.504   4.913   5.585 -0.4421  1.1233 -2.2401
  111OSM   H11T11423   1.328   4.910   5.572  0.0132 -0.9784  3.6883
  111OSM   C12S11424   1.423   4.789   5.422 -0.3125 -0.8321  0.2010
  111OSM   H12S11425   1.339   4.718   5.405  0.3183 -1.4103 -0.6224
  111OSM   H12T11426   1.514   4.726   5.414 -1.0235 -2.2688  2.4449
  111OSM   C13S11427   1.438   4.905   5.320 -0.2032  0.1678  0.1962
  111OSM   H13S11428   1.545   4.932   5.303 -0.1895 -1.4338 -2.9162
  111OSM   H13T11429   1.382   4.996   5.351 -2.0977 -0.7837 -0.2905
  111OSM   C14S11430   1.376   4.872   5.185 -0.2984 -0.3883  0.7343
  111OSM   H14S11431   1.268   4.880   5.209 -0.7415 -1.5617 -0.7079
  111OSM   H14T11432   1.399   4.767   5.156 -0.2091 -0.2618  0.3336
  111OSM   C15S11433   1.402   4.983   5.084  0.0600  0.0003 -0.5430
  111OSM   H15S11434   1.510   5.012   5.083  0.7245 -2.1632  0.7335
  111OSM   H15T11435   1.342   5.068   5.122 -0.1308 -0.5401  0.3911
  111OSM   C16S11436   1.350   4.961   4.945  0.0313 -0.0820  0.6532
  111OSM   H16S11437   1.240   4.975   4.944 -0.0507 -0.5721  1.7139
  111OSM   H16T11438   1.382   4.864   4.902  1.0781  0.7079 -0.4254
  111OSM   C17S11439   1.396   5.065   4.834 -0.0073  0.2820 -0.2825
  111OSM   H17S11440   1.503   5.047   4.813 -0.2569 -1.0226 -0.4976
  111OSM   H17T11441   1.406   5.170   4.871  2.6048 -0.0531  0.1196
  111OSM   C18S11442   1.330   5.058   4.697 -0.0104 -0.2436  0.3349
  111OSM   H18S11443   1.353   5.148   4.638  0.3091  1.9031  3.4685
  111OSM   H18T11444   1.219   5.059   4.709 -0.2221  1.8111 -1.2142
  111OSM   H18U11445   1.369   4.970   4.642  1.6904 -1.0176  2.6380
  111OSM    C1F11446   1.714   5.099   6.408  0.8621  0.7900  0.4243
  111OSM     OF11447   1.801   5.048   6.475  0.2860  0.2156 -0.4000
  111OSM    C2F11448   1.751   5.212   6.313 -0.4870  0.1778  0.2820
  111OSM    H2F11449   1.679   5.295   6.326 -0.1672  0.4821  0.1253
  111OSM    H2G11450   1.739   5.180   6.207 -0.9466 -2.2690  1.0033
  111OSM    C3F11451   1.894   5.265   6.330 -0.1706 -0.2891  0.3592
  111OSM    H3F11452   1.968   5.183   6.317  0.1569  0.1506 -0.5943
  111OSM    H3G11453   1.906   5.306   6.433 -3.2322  0.8626  0.3506
  111OSM    C4F11454   1.911   5.379   6.233 -0.2873  0.3181 -0.2436
  111OSM    H4F11455   1.995   5.445   6.265 -0.4408  0.8291 -0.8699
  111OSM    H4G11456   1.822   5.444   6.222 -1.4652 -1.5153 -2.2384
  111OSM    C5F11457   1.931   5.324   6.091  0.4896  0.6796  0.3334
  111OSM    H5F11458   1.841   5.265   6.063  1.0018  0.5704 -1.1890
  111OSM    H5G11459   2.020   5.258   6.079 -0.2662  0.0200 -2.4688
  111OSM    C6F11460   1.964   5.430   5.987  0.6961  0.2067  0.6053
  111OSM    H6F11461   2.061   5.471   6.023  2.2796 -3.1390  0.5311
  111OSM    H6G11462   1.884   5.507   5.989 -0.1495 -0.4862 -2.0316
  111OSM    C7F11463   1.974   5.375   5.844  0.4817  0.4132  0.2191
  111OSM    H7F11464   1.881   5.320   5.814  1.4527 -0.7756 -0.7227
  111OSM    H7G11465   2.051   5.295   5.842 -0.8782 -0.9759 -1.6597
  111OSM    C8F11466   2.015   5.470   5.734  0.0106  0.2772 -0.4308
  111OSM    H8F11467   2.033   5.410   5.642 -2.5271  0.3378 -1.0344
  111OSM    H8G11468   2.109   5.522   5.761  0.9164 -1.5325  0.0363
  111OSM    C9F11469   1.909   5.578   5.707 -0.5152 -0.3987 -0.3997
  111OSM    H9F11470   1.865   5.627   5.795  0.0707 -0.2949 -0.1578
  111OSM   C10F11471   1.873   5.618   5.583  0.2028  0.0996 -0.6994
  111OSM   H10F11472   1.798   5.698   5.582 -3.4567 -2.9688  1.3490
  111OSM   C11F11473   1.921   5.576   5.448  0.3347  0.1964  0.3745
  111OSM   H11F11474   1.935   5.466   5.440 -0.3130  0.1056  0.4333
  111OSM   H11G11475   2.020   5.622   5.431 -0.0467  0.7454 -0.4546
  111OSM   C12F11476   1.843   5.641   5.338  0.2716  0.4672  0.0900
  111OSM   H12F11477   1.859   5.751   5.349  2.5161  0.2424 -0.3468
  111OSM   H12G11478   1.733   5.626   5.333  0.2536  0.8468 -0.9902
  111OSM   C13F11479   1.894   5.602   5.200 -0.0617  0.4332  0.9366
  111OSM   H13F11480   1.895   5.493   5.180  0.5756  0.1031  2.5962
  111OSM   H13G11481   2.002   5.625   5.187 -0.2946  0.3164 -1.7345
  111OSM   C14F11482   1.802   5.673   5.105  0.3779 -0.3574 -0.5973
  111OSM   H14F11483   1.788   5.782   5.122  0.7487 -0.0984 -1.8640
  111OSM   H14G11484   1.703   5.621   5.103  0.5119 -0.6114 -0.7595
  111OSM   C15F11485   1.851   5.655   4.962 -0.4356 -0.1133 -0.0815
  111OSM   H15F11486   1.858   5.546   4.942  1.1584 -0.2795  1.1483
  111OSM   H15G11487   1.944   5.714   4.944 -0.3042 -0.6618 -1.3282
  111OSM   C16F11488   1.753   5.706   4.857  0.5196  0.3793 -0.1076
  111OSM   H16F11489   1.759   5.817   4.851 -1.4901  0.5358  0.0002
  111OSM   H16G11490   1.646   5.690   4.881 -0.1783  0.0599 -3.0099
  111OSM   C17F11491   1.783   5.643   4.719 -0.2759 -0.1925 -0.0560
  111OSM   H17F11492   1.756   5.535   4.723 -1.5138  0.1361  1.1708
  111OSM   H17G11493   1.887   5.656   4.684 -0.9338  0.1518 -2.0177
  111OSM   C18F11494   1.713   5.703   4.596 -0.1905 -0.7258  0.0936
  111OSM   H18F11495   1.616   5.739   4.637  0.5074 -0.0470  1.2002
  111OSM   H18G11496   1.711   5.619   4.523 -0.4078 -0.4746 -0.1893
  111OSM   H18H11497   1.762   5.786   4.542 -1.4474 -0.2920 -0.4168
  112OSM      N11498   3.672   0.890   7.013  0.4543  0.0704  0.1289
  112OSM    C1511499   3.521   0.898   7.004 -0.8780  0.0379  0.0617
  112OSM   H15A11500   3.475   0.821   6.944  0.0155 -0.9391  0.6004
  112OSM   H15B11501   3.477   0.992   6.973 -0.1162  0.0674 -0.9709
  112OSM   H15C11502   3.478   0.877   7.101 -1.2487 -0.2253 -0.1583
  112OSM    C1411503   3.733   0.962   7.135 -0.8098  0.1506 -0.7028
  112OSM   H14A11504   3.836   0.983   7.107 -0.7042  0.8512  0.1474
  112OSM   H14B11505   3.720   0.900   7.222  1.2081 -1.3561 -1.3961
  112OSM   H14C11506   3.685   1.056   7.158 -1.5051 -0.5471  0.8101
  112OSM    C1311507   3.724   0.746   7.006 -0.0614 -0.1764 -0.4986
  112OSM   H13A11508   3.830   0.750   6.986 -0.2176  1.0138 -1.1541
  112OSM   H13B11509   3.689   0.697   6.916 -1.1807 -0.0389 -0.1561
  112OSM   H13C11510   3.713   0.678   7.090 -0.6883 -1.9337 -1.9387
  112OSM    C1211511   3.729   0.964   6.889  0.1096  0.1417  0.0828
  112OSM   H12A11512   3.836   0.959   6.897  0.2333  0.9818 -0.8750
  112OSM   H12B11513   3.701   1.068   6.893  0.0003  0.0963  0.5937
  112OSM    C1111514   3.691   0.906   6.754 -0.4569 -0.7006 -0.5113
  112OSM   H11A11515   3.582   0.889   6.743 -0.2809 -2.5449  0.2129
  112OSM   H11B11516   3.742   0.807   6.747  4.1101  1.1126  2.4636
  112OSM      P11517   3.843   0.986   6.555 -0.1091  0.1753 -0.0049
  112OSM    O1311518   3.835   1.088   6.455  0.2635 -0.7302 -0.0448
  112OSM    O1411519   3.968   0.973   6.627  0.4656  0.5324  0.2191
  112OSM    O1111520   3.812   0.844   6.493 -0.0754 -0.2802 -0.7402
  112OSM    O1211521   3.721   0.998   6.651  0.9694 -0.2857  0.4171
  112OSM    C1S11522   3.708   0.828   6.402  0.6076 -0.3897  0.2448
  112OSM    H1S11523   3.616   0.870   6.448  0.5460 -1.3253  1.0106
  112OSM    H1T11524   3.689   0.720   6.385  1.7708 -0.4500 -0.8326
  112OSM     NF11525   3.600   0.868   6.196  0.4042  0.5309 -0.0405
  112OSM    HNF11526   3.584   0.789   6.138  0.1829  0.8336 -0.3990
  112OSM    C2S11527   3.724   0.884   6.261  0.5130  1.3496 -0.3268
  112OSM    H2S11528   3.743   0.993   6.255 -1.5342  1.6765 -1.8464
  112OSM    C3S11529   3.846   0.807   6.201  0.1229 -0.5437  0.8991
  112OSM    H3S11530   3.833   0.697   6.203  1.8173 -0.8455 -1.1303
  112OSM     O311531   3.974   0.821   6.267  0.4550 -0.0665 -0.2169
  112OSM    HO311532   3.936   0.836   6.354 -0.6952 -2.5019 -0.2068
  112OSM    C4S11533   3.854   0.836   6.049  0.0049 -0.2034 -0.6313
  112OSM    H4S11534   3.768   0.809   5.986 -0.5282  0.2608 -0.1124
  112OSM    C5S11535   3.960   0.893   5.987 -0.6913 -0.0714  0.0428
  112OSM    H5S11536   4.046   0.916   6.052 -0.2383 -0.5229 -0.3876
  112OSM    C6S11537   3.992   0.911   5.835 -0.2423 -0.2978 -0.3018
  112OSM    H6S11538   4.083   0.851   5.813  0.0838  0.0642  0.0491
  112OSM    H6T11539   4.018   1.015   5.805 -0.8186 -0.3037 -0.8681
  112OSM    C7S11540   3.883   0.865   5.743 -0.0861 -0.1188 -0.8359
  112OSM    H7S11541   3.791   0.919   5.775  0.9525 -0.4296  3.2953
  112OSM    H7T11542   3.853   0.759   5.759  0.4829  0.1104  2.7113
  112OSM    C8S11543   3.910   0.883   5.596  0.3932  0.5477  0.3216
  112OSM    H8S11544   4.001   0.837   5.551  1.4625  2.8341  0.0313
  112OSM    H8T11545   3.924   0.993   5.591  0.7120  0.6005  2.0429
  112OSM    C9S11546   3.785   0.849   5.507 -0.2081  0.4137  0.5097
  112OSM    H9S11547   3.696   0.886   5.563 -0.3171  1.5822 -0.3919
  112OSM    H9T11548   3.776   0.740   5.492  0.9642  0.4870 -1.0188
  112OSM   C10S11549   3.791   0.898   5.361  0.6107  0.1615  0.1769
  112OSM   H10S11550   3.894   0.894   5.320  0.5526  1.0720 -0.0768
  112OSM   H10T11551   3.763   1.006   5.356 -1.1220 -0.1996  1.1874
  112OSM   C11S11552   3.690   0.811   5.281 -0.1655 -0.7719  0.8964
  112OSM   H11S11553   3.590   0.804   5.329 -0.6594 -2.5860 -0.2933
  112OSM   H11T11554   3.729   0.708   5.292  1.7969  0.1814  4.6778
  112OSM   C12S11555   3.685   0.855   5.129  0.2002 -0.1137  0.6189
  112OSM   H12S11556   3.675   0.965   5.119  0.7832  0.0205  1.3731
  112OSM   H12T11557   3.603   0.793   5.089  1.0199 -0.5624 -0.4168
  112OSM   C13S11558   3.810   0.818   5.050  0.3820 -0.2294 -0.5524
  112OSM   H13S11559   3.832   0.709   5.053  1.4961 -0.0145 -0.6410
  112OSM   H13T11560   3.894   0.876   5.091  0.5200 -1.7566  1.4586
  112OSM   C14S11561   3.784   0.846   4.902 -0.3222 -0.0772  0.7687
  112OSM   H14S11562   3.883   0.851   4.852  0.4040  1.0442  2.2328
  112OSM   H14T11563   3.741   0.947   4.882  0.7811  0.2258 -0.1969
  112OSM   C15S11564   3.701   0.736   4.830  0.2825 -0.4765  0.1995
  112OSM   H15S11565   3.615   0.698   4.889  0.5041 -0.5158  0.4958
  112OSM   H15T11566   3.762   0.644   4.820 -0.5948 -1.0193 -0.2809
  112OSM   C16S11567   3.653   0.775   4.689  0.3974  0.0029  0.1837
  112OSM   H16S11568   3.579   0.858   4.697 -1.0716 -1.3850  1.5779
  112OSM   H16T11569   3.599   0.689   4.645  1.3269  0.1922 -1.3990
  112OSM   C17S11570   3.775   0.815   4.601 -0.0643  0.0974  0.3174
  112OSM   H17S11571   3.819   0.903   4.653 -1.3541 -0.2683  2.1373
  112OSM   H17T11572   3.736   0.859   4.506  0.7736  0.2610  0.0433
  112OSM   C18S11573   3.878   0.705   4.573 -1.3572  0.1066  0.0777
  112OSM   H18S11574   3.845   0.639   4.491  1.4271  0.4171 -1.4245
  112OSM   H18T11575   3.885   0.638   4.662 -0.9036  1.6171  1.2267
  112OSM   H18U11576   3.975   0.746   4.538 -2.0140  0.4602 -1.3958
  112OSM    C1F11577   3.494   0.951   6.217 -0.7320 -0.4354  0.5378
  112OSM     OF11578   3.499   1.040   6.298 -0.9369 -0.1894  0.0845
  112OSM    C2F11579   3.376   0.926   6.137 -0.7758  0.0423 -0.1094
  112OSM    H2F11580   3.299   1.001   6.168  0.7319  0.2821  3.5826
  112OSM    H2G11581   3.350   0.821   6.160  1.9167 -0.7160 -0.2585
  112OSM    C3F11582   3.402   0.936   5.985 -0.2378 -0.1576 -0.5507
  112OSM    H3F11583   3.314   0.909   5.923  1.4122 -1.8221 -2.2973
  112OSM    H3G11584   3.479   0.861   5.957  0.9577 -0.0080  2.0246
  112OSM    C4F11585   3.453   1.070   5.931 -0.0944  0.8183 -0.4650
  112OSM    H4F11586   3.547   1.095   5.985 -0.9470 -0.7934  1.9422
  112OSM    H4G11587   3.390   1.155   5.965 -0.6153  0.5676 -0.7872
  112OSM    C5F11588   3.477   1.070   5.782  0.2775  0.2630  0.1324
  112OSM    H5F11589   3.528   0.976   5.752  0.0668  0.4868 -0.9720
  112OSM    H5G11590   3.538   1.160   5.758  0.3376  0.0962 -0.3365
  112OSM    C6F11591   3.352   1.065   5.693  0.2129 -0.2512 -0.4764
  112OSM    H6F11592   3.291   1.153   5.721  0.7624  0.2831 -0.9497
  112OSM    H6G11593   3.296   0.969   5.700 -1.1132  0.5821  1.1257
  112OSM    C7F11594   3.399   1.076   5.549  0.3071  0.2566 -0.2221
  112OSM    H7F11595   3.364   0.991   5.487 -0.7880 -0.8020  1.7333
  112OSM    H7G11596   3.510   1.075   5.540  0.3369 -0.9147  0.1068
  112OSM    C8F11597   3.347   1.198   5.482  0.3378 -0.2678 -0.0900
  112OSM    H8F11598   3.393   1.204   5.381  0.1423  2.3364 -0.1001
  112OSM    H8G11599   3.385   1.280   5.545 -2.6205  0.3973  0.9847
  112OSM    C9F11600   3.198   1.193   5.456 -0.0200  0.1803  0.3214
  112OSM    H9F11601   3.138   1.160   5.542 -3.6639  3.0203 -0.8774
  112OSM   C10F11602   3.131   1.230   5.343 -0.1295  0.4518  0.0366
  112OSM   H10F11603   3.024   1.212   5.325  0.1889 -1.3136 -0.3388
  112OSM   C11F11604   3.184   1.275   5.213 -0.0010  0.3229  0.6290
  112OSM   H11F11605   3.292   1.298   5.218  0.4025 -1.1967 -0.2653
  112OSM   H11G11606   3.131   1.363   5.171  1.9677  1.5727  0.6392
  112OSM   C12F11607   3.160   1.162   5.101  0.0419  0.0188 -0.1670
  112OSM   H12F11608   3.056   1.178   5.066  0.5645 -0.4454 -2.0993
  112OSM   H12G11609   3.181   1.059   5.138  2.6477 -0.2268 -1.9977
  112OSM   C13F11610   3.238   1.166   4.970  0.5942  0.2719 -0.0450
  112OSM   H13F11611   3.205   1.257   4.917  0.8051 -0.6505 -1.8104
  112OSM   H13G11612   3.206   1.091   4.894  0.7654  2.5350 -2.4538
  112OSM   C14F11613   3.389   1.166   4.991 -0.0542 -0.1800 -0.6148
  112OSM   H14F11614   3.411   1.075   5.052  1.1019  1.0727  0.9080
  112OSM   H14G11615   3.426   1.258   5.040  2.1713  0.3475 -3.0420
  112OSM   C15F11616   3.477   1.163   4.862 -0.0457 -0.0948  0.3630
  112OSM   H15F11617   3.441   1.097   4.780  0.5506 -0.4367  0.3689
  112OSM   H15G11618   3.574   1.115   4.887  0.3640  0.3181 -0.4020
  112OSM   C16F11619   3.511   1.310   4.812 -0.5503 -0.2991  0.1643
  112OSM   H16F11620   3.613   1.306   4.769 -0.0681 -0.0900  1.2705
  112OSM   H16G11621   3.523   1.380   4.897 -1.2660 -0.0089  0.0391
  112OSM   C17F11622   3.402   1.378   4.727  0.1182 -0.0497  0.4590
  112OSM   H17F11623   3.449   1.472   4.693 -0.7483  0.5434  0.8751
  112OSM   H17G11624   3.313   1.408   4.786  1.7138 -0.3566  3.1602
  112OSM   C18F11625   3.354   1.294   4.603 -0.4906 -0.6602  0.0392
  112OSM   H18F11626   3.287   1.209   4.629  0.0804 -0.9680  0.5165
  112OSM   H18G11627   3.439   1.243   4.553 -1.1439 -0.4563 -1.3320
  112OSM   H18H11628   3.307   1.361   4.527 -0.5902 -0.2191  0.4809
  113OSM      N11629   1.267   3.338   6.983  0.2199  0.1406 -0.0003
  113OSM    C1511630   1.195   3.227   6.912 -0.3164  0.2129 -0.5341
  113OSM   H15A11631   1.200   3.138   6.972  3.0391  0.5966 -0.0601
  113OSM   H15B11632   1.238   3.216   6.814  2.1205  0.2883  0.4671
  113OSM   H15C11633   1.090   3.253   6.903 -0.4387 -0.4478 -1.0607
  113OSM    C1411634   1.191   3.360   7.118 -0.5681 -0.0478 -0.0301
  113OSM   H14A11635   1.087   3.390   7.104 -0.5722  0.1071  0.3139
  113OSM   H14B11636   1.230   3.437   7.182  0.4238  0.9501 -1.7478
  113OSM   H14C11637   1.178   3.270   7.175 -0.3891 -0.0436  0.0162
  113OSM    C1311638   1.398   3.284   7.022  0.5557 -0.2163  0.1047
  113OSM   H13A11639   1.452   3.362   7.074  2.5173 -1.3767 -0.0571
  113OSM   H13B11640   1.455   3.264   6.932 -1.0941 -1.4632 -0.7123
  113OSM   H13C11641   1.386   3.189   7.073  1.9504 -1.1033 -1.1190
  113OSM    C1211642   1.291   3.469   6.909  0.6296 -0.8916  0.4524
  113OSM   H12A11643   1.335   3.542   6.976  1.0251 -1.5789  0.9538
  113OSM   H12B11644   1.196   3.509   6.875  0.2053 -1.9908  0.2978
  113OSM    C1111645   1.394   3.463   6.789  0.0006  0.1359 -0.0279
  113OSM   H11A11646   1.491   3.432   6.832  0.9917  1.3151 -1.3157
  113OSM   H11B11647   1.421   3.560   6.742  1.2544 -0.2255 -0.0925
  113OSM      P11648   1.270   3.407   6.565  0.4341 -0.0135  0.3365
  113OSM    O1311649   1.265   3.291   6.468  0.0071  0.0733 -0.3248
  113OSM    O1411650   1.142   3.474   6.596  0.0078  0.1050 -0.7069
  113OSM    O1111651   1.361   3.518   6.496 -0.5233 -0.4924 -0.2461
  113OSM    O1211652   1.345   3.369   6.695  0.1228  0.0849  0.1996
  113OSM    C1S11653   1.484   3.499   6.426 -0.2429  0.8419 -0.1171
  113OSM    H1S11654   1.516   3.393   6.426  0.1902  0.9211  2.4421
  113OSM    H1T11655   1.572   3.547   6.473 -0.2654 -0.1608  0.9794
  113OSM     NF11656   1.596   3.497   6.198 -0.2793  0.3528  0.2609
  113OSM    HNF11657   1.688   3.524   6.226  0.9615 -2.7191 -0.4083
  113OSM    C2S11658   1.474   3.539   6.275  0.9375 -0.4751 -0.0387
  113OSM    H2S11659   1.379   3.495   6.238  0.3458  1.4983 -1.0215
  113OSM    C3S11660   1.446   3.689   6.266  0.2762 -0.2626  0.3442
  113OSM    H3S11661   1.543   3.736   6.293  0.0782 -0.4269  1.3777
  113OSM     O311662   1.360   3.752   6.369  0.3302 -0.3635  0.1885
  113OSM    HO311663   1.349   3.696   6.446 -0.3053  0.7629  0.9510
  113OSM    C4S11664   1.404   3.740   6.126 -0.1721 -0.1039  0.1273
  113OSM    H4S11665   1.483   3.768   6.054 -0.6642  0.4392 -0.2082
  113OSM    C5S11666   1.281   3.723   6.076  0.0336 -0.3335  0.1389
  113OSM    H5S11667   1.201   3.685   6.141  1.6495 -2.7520  0.8675
  113OSM    C6S11668   1.239   3.776   5.940 -0.0183 -0.5622 -1.0612
  113OSM    H6S11669   1.171   3.864   5.952  1.7171  0.8706 -1.3552
  113OSM    H6T11670   1.185   3.692   5.891 -1.1491 -0.0725 -0.7022
  113OSM    C7S11671   1.349   3.806   5.837  0.4584 -0.1949  0.1082
  113OSM    H7S11672   1.415   3.718   5.827  1.1122  0.2517  0.3931
  113OSM    H7T11673   1.402   3.903   5.849 -0.1185  0.2203 -0.6013
  113OSM    C8S11674   1.284   3.824   5.696  1.2937 -0.2498  0.3138
  113OSM    H8S11675   1.201   3.898   5.686  0.4063 -1.0942  1.1622
  113OSM    H8T11676   1.248   3.726   5.658  1.7037 -0.3237  0.1198
  113OSM    C9S11677   1.368   3.873   5.583 -0.3462  0.0949 -0.0125
  113OSM    H9S11678   1.456   3.807   5.566  0.4027  0.7221  1.2057
  113OSM    H9T11679   1.402   3.975   5.612 -0.8385  0.6423 -1.2825
  113OSM   C10S11680   1.293   3.876   5.450  0.4546 -0.2544  0.7404
  113OSM   H10S11681   1.189   3.911   5.466  0.8571  1.5788 -0.3386
  113OSM   H10T11682   1.292   3.769   5.420  1.8296  0.0117 -0.3592
  113OSM   C11S11683   1.376   3.944   5.340  0.1045 -0.5557  0.2124
  113OSM   H11S11684   1.473   3.890   5.332 -0.2780 -1.0688 -1.2868
  113OSM   H11T11685   1.379   4.050   5.372 -2.0224  0.5574 -2.8721
  113OSM   C12S11686   1.312   3.949   5.200  0.3001  0.0661  0.5546
  113OSM   H12S11687   1.205   3.977   5.204  0.0761 -0.8455  1.3864
  113OSM   H12T11688   1.334   3.850   5.153  1.3759  1.1827 -1.4354
  113OSM   C13S11689   1.377   4.058   5.113  0.2129  0.3715  0.6010
  113OSM   H13S11690   1.487   4.049   5.121  0.3848  0.0373 -1.4530
  113OSM   H13T11691   1.357   4.160   5.153  3.0998  0.6935  1.4324
  113OSM   C14S11692   1.355   4.042   4.960  0.0868  0.0650  0.4872
  113OSM   H14S11693   1.251   4.077   4.946 -0.2390 -1.9111 -3.0803
  113OSM   H14T11694   1.350   3.936   4.927  1.2542  0.5711 -1.5056
  113OSM   C15S11695   1.456   4.122   4.869  0.0297  0.7106 -0.1897
  113OSM   H15S11696   1.558   4.101   4.908 -0.5786 -0.8266  0.6547
  113OSM   H15T11697   1.428   4.229   4.882 -2.4500  0.5993 -3.3695
  113OSM   C16S11698   1.458   4.076   4.724 -0.3707  0.5139 -0.3141
  113OSM   H16S11699   1.361   4.101   4.677 -0.7310 -1.2006 -0.5341
  113OSM   H16T11700   1.471   3.966   4.722  1.2492  0.6614  0.6235
  113OSM   C17S11701   1.573   4.132   4.638 -0.6822 -0.0410  0.0875
  113OSM   H17S11702   1.618   4.050   4.577  1.3213  0.6028  0.6141
  113OSM   H17T11703   1.663   4.166   4.694 -1.1065  0.9891  0.1543
  113OSM   C18S11704   1.531   4.248   4.547  0.4742 -0.2607  0.2964
  113OSM   H18S11705   1.617   4.294   4.494 -0.5399  0.2201 -0.9864
  113OSM   H18T11706   1.487   4.335   4.600 -1.7214  0.5530 -2.5637
  113OSM   H18U11707   1.463   4.222   4.463  0.8492  0.1191 -0.1266
  113OSM    C1F11708   1.601   3.367   6.165  0.3437  0.6459  0.2266
  113OSM     OF11709   1.500   3.303   6.154 -0.2383  0.1880 -0.0453
  113OSM    C2F11710   1.737   3.304   6.159  0.1608  0.4285 -0.2633
  113OSM    H2F11711   1.756   3.254   6.256 -0.4287  1.7189  0.5299
  113OSM    H2G11712   1.811   3.384   6.141 -0.2831  0.7713 -0.6053
  113OSM    C3F11713   1.735   3.197   6.047 -0.7327  0.4852 -0.0288
  113OSM    H3F11714   1.653   3.122   6.047  1.4927 -2.1638 -1.5908
  113OSM    H3G11715   1.829   3.137   6.049 -0.4042  0.9899  0.0130
  113OSM    C4F11716   1.728   3.243   5.899 -0.3082  0.1854  0.0270
  113OSM    H4F11717   1.808   3.316   5.873 -0.5220  0.5426  0.3533
  113OSM    H4G11718   1.632   3.298   5.895 -0.0218  0.7136  0.3405
  113OSM    C5F11719   1.733   3.124   5.800  1.5645 -0.2786  0.0513
  113OSM    H5F11720   1.640   3.067   5.822 -0.4289  2.2792 -1.0991
  113OSM    H5G11721   1.824   3.062   5.814  2.3356  0.5700 -0.9944
  113OSM    C6F11722   1.717   3.160   5.653  0.6497  0.4482  0.8359
  113OSM    H6F11723   1.792   3.239   5.629 -0.6830  0.9216 -2.1665
  113OSM    H6G11724   1.623   3.217   5.636  0.5417  0.1884  0.5566
  113OSM    C7F11725   1.741   3.045   5.551 -0.0045  0.3758 -0.0622
  113OSM    H7F11726   1.663   2.968   5.569 -0.6786  1.2223  0.7496
  113OSM    H7G11727   1.844   3.011   5.575  0.6293  0.1183 -2.8593
  113OSM    C8F11728   1.744   3.107   5.414 -0.1453 -0.0745 -0.2869
  113OSM    H8F11729   1.794   3.028   5.355 -0.2995 -1.8149  1.7814
  113OSM    H8G11730   1.809   3.197   5.407  1.1214 -0.8588  0.9441
  113OSM    C9F11731   1.601   3.122   5.362 -0.5212  0.4500 -0.1544
  113OSM    H9F11732   1.515   3.129   5.430  0.4378  0.1569  1.1101
  113OSM   C10F11733   1.561   3.093   5.239  0.2215 -0.0176  0.0578
  113OSM   H10F11734   1.455   3.108   5.215  0.3519 -0.4260 -0.8013
  113OSM   C11F11735   1.648   3.050   5.125  0.1199 -0.0094  0.2164
  113OSM   H11F11736   1.756   3.054   5.152 -0.2235 -0.8845  1.8410
  113OSM   H11G11737   1.637   3.118   5.038 -0.3093  0.1077  0.3625
  113OSM   C12F11738   1.614   2.898   5.080 -0.1533  0.0381 -0.2867
  113OSM   H12F11739   1.637   2.833   5.168  0.9847  0.9400  0.1069
  113OSM   H12G11740   1.683   2.866   4.998 -0.0683 -1.4705  0.3444
  113OSM   C13F11741   1.467   2.879   5.022 -1.1804 -0.0811 -0.5044
  113OSM   H13F11742   1.403   2.906   5.109 -0.3647  2.7118 -0.6710
  113OSM   H13G11743   1.453   2.770   5.008 -0.6119 -0.3028  0.5286
  113OSM   C14F11744   1.432   2.961   4.901  0.7046  0.2567  0.0461
  113OSM   H14F11745   1.456   3.068   4.916  0.6344  0.1231  1.1640
  113OSM   H14G11746   1.321   2.957   4.891  0.5560 -0.6360  1.6605
  113OSM   C15F11747   1.504   2.908   4.774  0.2879  0.1300  0.0670
  113OSM   H15F11748   1.465   2.805   4.764  0.7472 -0.3102  2.3628
  113OSM   H15G11749   1.612   2.902   4.799  0.3100  1.0759  0.2295
  113OSM   C16F11750   1.460   2.981   4.644  0.2086  0.2763  0.0818
  113OSM   H16F11751   1.483   3.089   4.659  0.9501 -0.0122  1.1459
  113OSM   H16G11752   1.352   2.961   4.630  0.5619  0.1348 -3.2241
  113OSM   C17F11753   1.535   2.942   4.509 -0.6026  0.0384 -0.5998
  113OSM   H17F11754   1.501   3.001   4.421 -4.0945 -0.6043  0.1551
  113OSM   H17G11755   1.497   2.838   4.497 -0.6105 -0.3756  2.2323
  113OSM   C18F11756   1.689   2.943   4.508 -0.1096 -0.7273 -0.3119
  113OSM   H18F11757   1.726   2.883   4.422  1.7672 -0.1552  0.0599
  113OSM   H18G11758   1.734   2.902   4.602  2.2929  1.4638 -0.3902
  113OSM   H18H11759   1.724   3.049   4.508  0.8204 -1.0210 -0.2346
  114OSM      N11760   1.925   0.569   6.982  0.6480 -0.5039 -0.0078
  114OSM    C1511761   1.928   0.417   6.977  0.4185 -0.6143 -0.9978
  114OSM   H15A11762   2.029   0.402   6.943  0.4367  0.9596 -1.6888
  114OSM   H15B11763   1.842   0.385   6.921 -0.0597 -0.2479 -0.4873
  114OSM   H15C11764   1.921   0.364   7.071  1.9521  0.9929  0.0873
  114OSM    C1411765   1.790   0.601   7.031  0.3971  0.0291  0.0965
  114OSM   H14A11766   1.754   0.549   7.119 -0.4815 -0.0337 -0.2895
  114OSM   H14B11767   1.717   0.571   6.958 -1.1114 -0.9603  1.9080
  114OSM   H14C11768   1.777   0.708   7.034  0.3657  0.0703 -1.1993
  114OSM    C1311769   2.031   0.610   7.073  0.0919  0.8012 -0.3493
  114OSM   H13A11770   2.017   0.556   7.165  0.4316  1.5764  0.1582
  114OSM   H13B11771   2.028   0.714   7.101 -0.4505  0.9057 -0.7705
  114OSM   H13C11772   2.127   0.574   7.040  0.1645  1.6097 -1.0527
  114OSM    C1211773   1.947   0.640   6.849  1.0364  0.1299  0.0497
  114OSM   H12A11774   2.048   0.615   6.819  0.5059 -1.7194 -0.2689
  114OSM   H12B11775   1.946   0.748   6.861 -0.2304 -0.0821  2.3248
  114OSM    C1111776   1.850   0.591   6.740  0.1718 -0.3861  0.6148
  114OSM   H11A11777   1.848   0.480   6.741  0.0022 -0.3933  0.1253
  114OSM   H11B11778   1.893   0.616   6.640 -0.2258  0.0518  0.5443
  114OSM      P11779   1.710   0.807   6.723  0.3727  0.1920  0.5232
  114OSM    O1311780   1.569   0.855   6.751  0.2243 -1.2169 -0.0040
  114OSM    O1411781   1.818   0.887   6.793 -0.2189 -0.1815  0.3369
  114OSM    O1111782   1.740   0.801   6.570 -0.4531  0.0582 -0.6329
  114OSM    O1211783   1.725   0.651   6.754  0.3209 -0.9420  0.4299
  114OSM    C1S11784   1.691   0.694   6.483 -0.0730 -0.2209 -0.8281
  114OSM    H1S11785   1.581   0.680   6.488 -0.0770  0.2504  0.8176
  114OSM    H1T11786   1.728   0.595   6.519 -2.8022 -0.4702  1.6158
  114OSM     NF11787   1.687   0.615   6.255  0.0098 -0.2464 -0.4253
  114OSM    HNF11788   1.761   0.553   6.232  2.6182  2.4906 -0.0949
  114OSM    C2S11789   1.739   0.717   6.341 -0.3671 -0.4598 -0.1962
  114OSM    H2S11790   1.696   0.816   6.316 -0.8403 -0.2508  1.3217
  114OSM    C3S11791   1.901   0.732   6.333 -0.5262 -0.5115  0.5938
  114OSM    H3S11792   1.953   0.639   6.365 -0.1630 -0.6881 -0.4694
  114OSM     O311793   1.967   0.819   6.428 -0.2585  0.2636  0.4216
  114OSM    HO311794   1.896   0.832   6.491 -0.8679 -0.6480 -0.0594
  114OSM    C4S11795   1.944   0.767   6.193 -0.7633  0.3124  0.2539
  114OSM    H4S11796   1.872   0.836   6.146 -0.2116  0.4449 -0.4054
  114OSM    C5S11797   2.050   0.720   6.122  0.6763 -0.2835  0.0847
  114OSM    H5S11798   2.134   0.661   6.162 -0.8328 -2.8270 -0.2160
  114OSM    C6S11799   2.075   0.754   5.980  0.4368 -0.3518  0.8812
  114OSM    H6S11800   2.045   0.677   5.905  2.4986 -0.0539 -0.3258
  114OSM    H6T11801   2.183   0.764   5.956  0.4782  0.4508  1.3583
  114OSM    C7S11802   2.004   0.884   5.924  0.2920 -0.2293 -0.5356
  114OSM    H7S11803   2.021   0.968   5.994 -3.1421 -0.0839  0.2827
  114OSM    H7T11804   1.895   0.871   5.909  0.2575  1.0646 -1.6234
  114OSM    C8S11805   2.060   0.916   5.781 -0.1818 -0.3612  0.4186
  114OSM    H8S11806   2.169   0.927   5.766 -0.2556 -1.6047 -1.2812
  114OSM    H8T11807   2.015   1.012   5.748  0.4381 -0.2245 -0.0320
  114OSM    C9S11808   2.022   0.812   5.676  0.0613  0.3194  0.9172
  114OSM    H9S11809   2.055   0.713   5.712 -1.1618 -0.5229 -0.1950
  114OSM    H9T11810   2.074   0.831   5.579 -0.0669  0.3601  0.8556
  114OSM   C10S11811   1.868   0.794   5.652 -0.2209  0.3002 -0.2165
  114OSM   H10S11812   1.832   0.894   5.619  1.6598  1.5125  1.1759
  114OSM   H10T11813   1.817   0.767   5.747 -3.1062  1.1988 -1.4201
  114OSM   C11S11814   1.834   0.685   5.543  0.3642 -0.2085 -0.4534
  114OSM   H11S11815   1.725   0.693   5.526 -0.1813  0.6880  2.6814
  114OSM   H11T11816   1.850   0.586   5.591  3.6862  0.5099  0.1799
  114OSM   C12S11817   1.905   0.704   5.407 -0.3880 -0.7231 -0.7527
  114OSM   H12S11818   2.014   0.692   5.425 -0.2589  0.8357 -0.3505
  114OSM   H12T11819   1.897   0.811   5.377  1.7441  0.3032  1.9183
  114OSM   C13S11820   1.856   0.621   5.295 -0.4004  0.6987  0.1247
  114OSM   H13S11821   1.747   0.639   5.284 -0.2628  1.0516 -0.7517
  114OSM   H13T11822   1.873   0.518   5.333  0.5003  0.0682 -1.8715
  114OSM   C14S11823   1.916   0.633   5.159  0.0328 -0.6337 -0.3106
  114OSM   H14S11824   2.024   0.648   5.179 -0.5755  2.3553  1.3457
  114OSM   H14T11825   1.886   0.724   5.103 -0.8478 -0.6405  0.1269
  114OSM   C15S11826   1.888   0.511   5.066  0.0754 -0.0969  0.1025
  114OSM   H15S11827   1.790   0.468   5.097 -0.8610 -0.6560 -3.1857
  114OSM   H15T11828   1.944   0.420   5.095 -1.6358 -1.9435 -2.0183
  114OSM   C16S11829   1.924   0.525   4.916 -0.5084  0.3396 -0.1124
  114OSM   H16S11830   2.027   0.566   4.916 -1.1292  1.9761  1.3569
  114OSM   H16T11831   1.853   0.602   4.877 -1.2690 -0.0633  0.4564
  114OSM   C17S11832   1.904   0.395   4.829  0.1887  0.3745  0.2020
  114OSM   H17S11833   1.801   0.366   4.858  0.6345 -1.3394  0.1416
  114OSM   H17T11834   1.981   0.321   4.859  0.3979  0.2722 -0.5546
  114OSM   C18S11835   1.919   0.437   4.677 -0.6428  0.7193  0.2826
  114OSM   H18S11836   1.866   0.531   4.649 -1.9746  0.3838  1.5447
  114OSM   H18T11837   1.884   0.358   4.608 -0.9749  0.8421  0.3045
  114OSM   H18U11838   2.027   0.444   4.654 -0.4943 -2.6930 -0.5142
  114OSM    C1F11839   1.561   0.589   6.222 -0.3006  0.6851 -0.0563
  114OSM     OF11840   1.475   0.674   6.240 -0.9618  0.7833  0.6044
  114OSM    C2F11841   1.523   0.455   6.180 -0.2603  0.5324 -0.5648
  114OSM    H2F11842   1.435   0.418   6.237 -1.3184  1.4773 -1.5341
  114OSM    H2G11843   1.609   0.387   6.197  1.2135  2.2935 -0.6506
  114OSM    C3F11844   1.499   0.446   6.027 -0.0300  0.0349  0.9812
  114OSM    H3F11845   1.405   0.495   5.995 -1.0166 -1.4480  1.5016
  114OSM    H3G11846   1.498   0.338   6.002 -1.3282  0.2187  0.1695
  114OSM    C4F11847   1.612   0.505   5.935  0.0605  0.5183 -0.1586
  114OSM    H4F11848   1.709   0.483   5.985 -0.5367  1.7516  1.6389
  114OSM    H4G11849   1.602   0.615   5.933 -0.9502  0.4413  0.0939
  114OSM    C5F11850   1.618   0.445   5.796  0.6503 -0.7867 -0.2845
  114OSM    H5F11851   1.648   0.338   5.791 -2.4406 -1.7832  0.1773
  114OSM    H5G11852   1.702   0.496   5.744 -2.3400  2.7035 -2.1571
  114OSM    C6F11853   1.489   0.468   5.709  1.0045  0.4681  0.6281
  114OSM    H6F11854   1.463   0.575   5.719  0.9368  0.2839  3.1047
  114OSM    H6G11855   1.403   0.407   5.745  1.5024  0.6513  2.2254
  114OSM    C7F11856   1.530   0.440   5.562 -0.1584  0.4880 -0.2624
  114OSM    H7F11857   1.569   0.337   5.556  3.3323  1.6974 -0.5908
  114OSM    H7G11858   1.612   0.510   5.535  1.1568 -0.5642  0.9144
  114OSM    C8F11859   1.416   0.460   5.461  0.4924 -0.3751  0.2673
  114OSM    H8F11860   1.393   0.568   5.454 -0.8336 -0.4703  2.2385
  114OSM    H8G11861   1.323   0.419   5.506  1.4597 -1.1981  1.5853
  114OSM    C9F11862   1.449   0.404   5.331 -0.3749  0.7334 -0.2241
  114OSM    H9F11863   1.529   0.463   5.286  2.8740 -2.3747  1.0123
  114OSM   C10F11864   1.415   0.283   5.286  0.4563 -0.0348  0.1019
  114OSM   H10F11865   1.457   0.243   5.193  3.2144 -1.4263  1.7794
  114OSM   C11F11866   1.328   0.173   5.357 -0.0198 -0.4096  0.6860
  114OSM   H11F11867   1.274   0.103   5.289 -0.7648  0.0055  0.8466
  114OSM   H11G11868   1.244   0.214   5.416 -0.8900 -0.5876 -0.4075
  114OSM   C12F11869   1.411   0.071   5.443  0.3185  0.0454  0.1511
  114OSM   H12F11870   1.485   0.127   5.504 -0.4017  0.0874  1.0091
  114OSM   H12G11871   1.467   0.015   5.366 -0.0653 -1.6144  1.0214
  114OSM   C13F11872   1.322  -0.029   5.523  0.0524  0.4236  0.3684
  114OSM   H13F11873   1.379  -0.120   5.549 -1.7839 -1.1457 -0.8208
  114OSM   H13G11874   1.248  -0.075   5.454 -1.3332  1.0329  1.4133
  114OSM   C14F11875   1.253   0.029   5.649  0.1987 -0.3447  0.4259
  114OSM   H14F11876   1.188  -0.049   5.693 -0.4854  1.3410  2.5748
  114OSM   H14G11877   1.189   0.110   5.609  0.8072  0.8317  1.7409
  114OSM   C15F11878   1.352   0.078   5.753  0.2639  0.0515 -0.2338
  114OSM   H15F11879   1.411   0.164   5.715  1.9465 -1.1270 -0.3473
  114OSM   H15G11880   1.418  -0.006   5.781 -1.0357 -1.3970 -1.3269
  114OSM   C16F11881   1.289   0.128   5.884 -0.2164  0.2760 -0.4520
  114OSM   H16F11882   1.371   0.162   5.950  1.0709 -1.2735 -1.1919
  114OSM   H16G11883   1.231   0.040   5.917 -0.7396 -0.2440 -2.5996
  114OSM   C17F11884   1.175   0.233   5.863  0.6384  0.6774 -0.3029
  114OSM   H17F11885   1.083   0.180   5.828  1.6050 -2.5616  1.6252
  114OSM   H17G11886   1.206   0.305   5.785  0.9195  1.5786  0.6045
  114OSM   C18F11887   1.133   0.311   5.989 -0.2566 -0.4351  0.3448
  114OSM   H18F11888   1.082   0.238   6.056 -1.4038 -0.6729 -0.7457
  114OSM   H18G11889   1.051   0.383   5.966  0.7004  0.7218  0.4728
  114OSM   H18H11890   1.216   0.367   6.037 -0.8093 -0.3184  1.1840
  115OSM      N11891   0.325   4.318   6.735 -0.0350  0.1075  0.0720
  115OSM    C1511892   0.342   4.188   6.664 -0.1164  0.6574  0.4152
  115OSM   H15A11893   0.423   4.201   6.594  1.2810  0.2013  1.8754
  115OSM   H15B11894   0.254   4.157   6.609  0.2575 -2.3217  1.3256
  115OSM   H15C11895   0.369   4.103   6.725 -0.6954  0.7475  0.7976
  115OSM    C1411896   0.194   4.330   6.813  0.0508 -0.8184 -0.2252
  115OSM   H14A11897   0.104   4.332   6.753 -0.6954 -2.6768  0.7307
  115OSM   H14B11898   0.195   4.421   6.871  1.9325  1.1570 -3.1635
  115OSM   H14C11899   0.167   4.242   6.871 -1.2755  0.6135  1.4779
  115OSM    C1311900   0.431   4.334   6.835 -0.2300  0.2886  0.5346
  115OSM   H13A11901   0.431   4.254   6.907 -0.7759 -3.1774 -2.9735
  115OSM   H13B11902   0.422   4.429   6.886  0.8718  0.0878  1.1412
  115OSM   H13C11903   0.531   4.335   6.794 -0.4401 -1.4657 -0.1406
  115OSM    C1211904   0.332   4.427   6.630  0.1061  0.1103 -1.0107
  115OSM   H12A11905   0.429   4.415   6.585  0.4487 -0.0976 -0.2452
  115OSM   H12B11906   0.325   4.518   6.688 -1.4636 -0.8394  0.3620
  115OSM    C1111907   0.227   4.444   6.520 -0.4396  0.1769  0.0142
  115OSM   H11A11908   0.222   4.343   6.475  1.9759 -1.4668  2.9997
  115OSM   H11B11909   0.268   4.517   6.448  1.0391 -0.1740  0.4699
  115OSM      P11910   0.072   4.639   6.597 -0.4194 -0.2179  0.8302
  115OSM    O1311911  -0.065   4.674   6.639  0.1681  0.1347  0.2707
  115OSM    O1411912   0.188   4.697   6.671 -0.2727  0.1387 -0.7897
  115OSM    O1111913   0.080   4.678   6.446 -0.7034  0.8124 -0.1305
  115OSM    O1211914   0.104   4.482   6.575 -0.2332  0.0384  0.0725
  115OSM    C1S11915  -0.026   4.625   6.364  0.1130  0.3103  0.0841
  115OSM    H1S11916  -0.130   4.651   6.394  0.6264  1.2744  1.1136
  115OSM    H1T11917  -0.011   4.515   6.358  0.6922  0.4607 -1.9533
  115OSM     NF11918  -0.140   4.643   6.138 -0.3724  0.4349 -0.4540
  115OSM    HNF11919  -0.132   4.595   6.051  0.0597  2.0348 -1.3494
  115OSM    C2S11920  -0.018   4.676   6.217  0.3181  0.3283 -0.4891
  115OSM    H2S11921  -0.005   4.786   6.227 -1.8019  0.9220 -3.1841
  115OSM    C3S11922   0.108   4.625   6.147 -0.3553 -0.5287  0.4651
  115OSM    H3S11923   0.108   4.515   6.160  1.5887 -0.8759 -1.7883
  115OSM     O311924   0.230   4.667   6.211  0.4172  0.2063 -0.5943
  115OSM    HO311925   0.203   4.680   6.302  1.3849 -1.8596  0.0263
  115OSM    C4S11926   0.097   4.642   6.001  0.6585 -0.0706 -0.0207
  115OSM    H4S11927   0.032   4.568   5.952 -0.0359  0.7095 -0.2870
  115OSM    C5S11928   0.144   4.744   5.928 -0.1421  0.2688  0.3170
  115OSM    H5S11929   0.214   4.814   5.977  0.0768  1.1021 -1.1431
  115OSM    C6S11930   0.103   4.766   5.786  0.3505  0.2437 -0.2255
  115OSM    H6S11931   0.117   4.870   5.752  0.7519  0.3214  0.1799
  115OSM    H6T11932  -0.004   4.740   5.771  0.2812  0.4057 -0.0235
  115OSM    C7S11933   0.193   4.686   5.688  1.2697  0.3832  0.2659
  115OSM    H7S11934   0.300   4.708   5.707  1.4696  0.6634 -1.0691
  115OSM    H7T11935   0.173   4.737   5.591  0.3805  2.1479  1.3152
  115OSM    C8S11936   0.151   4.537   5.677  0.1534  0.4361 -0.0616
  115OSM    H8S11937   0.040   4.536   5.683 -0.0488  0.1076 -2.7655
  115OSM    H8T11938   0.188   4.474   5.761 -0.4240 -0.3732 -0.4071
  115OSM    C9S11939   0.197   4.461   5.555 -0.2994  0.1659  0.4353
  115OSM    H9S11940   0.166   4.354   5.561  0.1833 -0.1747 -2.0594
  115OSM    H9T11941   0.308   4.460   5.557 -0.2234 -1.8867 -1.1108
  115OSM   C10S11942   0.133   4.515   5.422  0.4283  0.2194  0.4698
  115OSM   H10S11943   0.139   4.626   5.415 -1.5618  0.5064  2.2416
  115OSM   H10T11944   0.023   4.500   5.429  0.0927  2.6873  1.6658
  115OSM   C11S11945   0.193   4.454   5.296 -0.3571 -0.7448 -0.4180
  115OSM   H11S11946   0.208   4.345   5.315  0.3159 -0.5710  0.0972
  115OSM   H11T11947   0.296   4.495   5.290 -0.5447 -0.1548  0.2855
  115OSM   C12S11948   0.118   4.482   5.164 -0.0804 -1.1368 -1.0375
  115OSM   H12S11949   0.086   4.588   5.159  0.4393 -0.9738 -0.9145
  115OSM   H12T11950   0.028   4.418   5.155 -0.0456 -1.3969  0.2690
  115OSM   C13S11951   0.202   4.444   5.046  1.2578 -0.4775 -0.1041
  115OSM   H13S11952   0.245   4.345   5.071  0.9400 -0.4043  0.7939
  115OSM   H13T11953   0.278   4.523   5.026  2.6743 -1.6070  0.6902
  115OSM   C14S11954   0.108   4.413   4.928  0.6282  0.8018 -0.3179
  115OSM   H14S11955   0.034   4.491   4.900 -1.2354 -0.5380  0.7006
  115OSM   H14T11956   0.042   4.328   4.955  0.2683  1.2035  0.0911
  115OSM   C15S11957   0.187   4.368   4.793  0.8017  0.2698 -0.7162
  115OSM   H15S11958   0.108   4.338   4.722  0.0722 -0.5234  0.3960
  115OSM   H15T11959   0.239   4.273   4.820 -1.4183 -0.7315  0.2442
  115OSM   C16S11960   0.284   4.469   4.733 -0.6693 -0.4584 -0.1959
  115OSM   H16S11961   0.342   4.521   4.812  0.0856 -1.7858  0.1629
  115OSM   H16T11962   0.238   4.553   4.678 -0.6386  0.5136  1.2032
  115OSM   C17S11963   0.397   4.404   4.646 -0.6152  0.0529  0.1281
  115OSM   H17S11964   0.467   4.339   4.702 -0.0328  1.7489  1.4668
  115OSM   H17T11965   0.455   4.487   4.599  0.7391  0.2799  2.0692
  115OSM   C18S11966   0.341   4.330   4.521  0.4861  0.8649 -0.0490
  115OSM   H18S11967   0.316   4.223   4.540 -1.3355  1.4456  1.0170
  115OSM   H18T11968   0.419   4.328   4.442  0.3452 -0.7084 -0.1779
  115OSM   H18U11969   0.252   4.385   4.485 -0.5135  0.9443  2.3151
  115OSM    C1F11970  -0.252   4.705   6.167  0.1932  0.4661 -0.0875
  115OSM     OF11971  -0.265   4.789   6.253 -0.3926 -0.4330 -0.6569
  115OSM    C2F11972  -0.367   4.641   6.092  0.1664  0.0467 -1.1428
  115OSM    H2F11973  -0.375   4.538   6.133 -0.9825  0.8453  0.7954
  115OSM    H2G11974  -0.356   4.639   5.982 -0.5771  2.3211 -1.2903
  115OSM    C3F11975  -0.502   4.712   6.139  0.4813 -0.3173 -0.4337
  115OSM    H3F11976  -0.506   4.730   6.248  1.6946  0.3218 -0.4747
  115OSM    H3G11977  -0.582   4.642   6.105 -0.1793  0.4659 -0.5509
  115OSM    C4F11978  -0.531   4.849   6.076 -0.0188 -0.1901  0.0872
  115OSM    H4F11979  -0.548   4.857   5.967  3.0958  2.0366 -0.3646
  115OSM    H4G11980  -0.443   4.913   6.096 -1.1211  1.4966 -0.2600
  115OSM    C5F11981  -0.643   4.913   6.159  0.4538  0.4743  0.6981
  115OSM    H5F11982  -0.591   4.928   6.255 -1.8350  3.3201  1.6372
  115OSM    H5G11983  -0.725   4.840   6.178 -1.1462  2.1942  0.7249
  115OSM    C6F11984  -0.686   5.046   6.102  0.8025 -0.9359 -0.2168
  115OSM    H6F11985  -0.724   5.030   5.999 -1.3728 -0.2747  0.4287
  115OSM    H6G11986  -0.601   5.116   6.095  1.4485 -1.8235 -1.7296
  115OSM    C7F11987  -0.803   5.107   6.184  0.1421  0.6839  0.6156
  115OSM    H7F11988  -0.754   5.136   6.280 -0.8112  1.2995  0.9314
  115OSM    H7G11989  -0.876   5.030   6.217 -0.2316  1.1538  0.9050
  115OSM    C8F11990  -0.867   5.224   6.118  0.0993 -0.2551 -0.0226
  115OSM    H8F11991  -0.965   5.256   6.161  1.0344 -0.4192  2.4104
  115OSM    H8G11992  -0.893   5.184   6.018 -0.0687  2.7370 -1.2672
  115OSM    C9F11993  -0.779   5.346   6.089 -0.2721 -0.2146 -0.3018
  115OSM    H9F11994  -0.745   5.395   6.182  0.0713  0.6994 -0.8889
  115OSM   C10F11995  -0.771   5.406   5.968 -0.5883  0.4465 -0.0948
  115OSM   H10F11996  -0.711   5.498   5.970 -0.2892  0.2426  1.5976
  115OSM   C11F11997  -0.819   5.357   5.837  0.0374  0.0436  0.1563
  115OSM   H11F11998  -0.930   5.346   5.842  0.1350 -0.9576  4.0478
  115OSM   H11G11999  -0.783   5.257   5.807  1.3553  0.1739  1.2117
  115OSM   C12F12000  -0.794   5.457   5.717 -0.1554 -0.7676 -0.2953
  115OSM   H12F12001  -0.855   5.412   5.636 -2.0684 -0.1029  0.7053
  115OSM   H12G12002  -0.688   5.466   5.684 -0.6426 -0.9883 -1.9959
  115OSM   C13F12003  -0.853   5.602   5.749  0.5870 -0.0731 -0.7355
  115OSM   H13F12004  -0.796   5.641   5.836  0.3423  0.8698 -0.9893
  115OSM   H13G12005  -0.957   5.586   5.784  0.0998  1.2724 -1.5021
  115OSM   C14F12006  -0.882   5.692   5.626 -0.7376  0.1488 -0.5310
  115OSM   H14F12007  -0.928   5.782   5.672 -0.3144  1.9904 -3.4699
  115OSM   H14G12008  -0.970   5.656   5.568  0.4052 -0.9470 -1.6540
  115OSM   C15F12009  -0.779   5.724   5.522 -0.2850  0.0869  0.0417
  115OSM   H15F12010  -0.762   5.633   5.461 -0.3721  0.5545 -0.7024
  115OSM   H15G12011  -0.688   5.762   5.572 -0.8864  1.0331  0.4443
  115OSM   C16F12012  -0.830   5.836   5.427  0.3023  0.4080 -0.0179
  115OSM   H16F12013  -0.838   5.932   5.482 -0.2387 -0.9057  2.3136
  115OSM   H16G12014  -0.930   5.810   5.386  0.5102  1.0598 -0.9725
  115OSM   C17F12015  -0.743   5.855   5.303  0.1702  0.4986 -0.0821
  115OSM   H17F12016  -0.756   5.769   5.234 -3.2270 -1.1914  2.3467
  115OSM   H17G12017  -0.642   5.863   5.348  0.0112  0.2713  0.3214
  115OSM   C18F12018  -0.783   5.979   5.224  0.3033 -0.0465 -0.1842
  115OSM   H18F12019  -0.783   6.075   5.281  1.6779 -0.6108  0.7950
  115OSM   H18G12020  -0.889   5.974   5.191  0.1862 -0.3501  0.2352
  115OSM   H18H12021  -0.725   5.980   5.130 -0.4151 -2.0886 -0.7078
  116OSM      N12022   1.996   2.275   6.883 -0.3128  0.6782  0.0273
  116OSM    C1512023   1.935   2.372   6.983  0.5635  0.0629  0.1866
  116OSM   H15A12024   2.009   2.445   7.011  1.0679  0.4009 -1.8629
  116OSM   H15B12025   1.905   2.312   7.068  0.8148  0.7675  0.7799
  116OSM   H15C12026   1.845   2.419   6.946  0.4036 -0.4320 -0.0550
  116OSM    C1412027   2.136   2.244   6.928  0.4510 -0.1178 -0.5061
  116OSM   H14A12028   2.191   2.175   6.866  0.5857 -0.0866 -0.4207
  116OSM   H14B12029   2.136   2.211   7.031 -1.1710  0.8886 -0.1372
  116OSM   H14C12030   2.184   2.340   6.922 -1.2634  0.7516 -1.1580
  116OSM    C1312031   1.923   2.143   6.885  0.0405  0.5754  0.0864
  116OSM   H13A12032   1.914   2.108   6.987 -2.9189  0.1413 -0.2384
  116OSM   H13B12033   1.972   2.070   6.823 -0.5330  1.3596 -1.3371
  116OSM   H13C12034   1.823   2.156   6.848  0.0650 -0.5346 -0.3953
  116OSM    C1212035   1.996   2.333   6.749  0.6015 -0.4778 -0.3519
  116OSM   H12A12036   2.069   2.412   6.740  0.0236  0.6350  3.2273
  116OSM   H12B12037   1.895   2.371   6.743  1.0010  1.1394  1.9134
  116OSM    C1112038   2.011   2.240   6.631 -0.4778 -0.6172  0.2340
  116OSM   H11A12039   1.980   2.294   6.539 -0.6826 -0.0340  0.6393
  116OSM   H11B12040   1.950   2.148   6.636 -1.2891 -0.1453 -0.5445
  116OSM      P12041   2.202   2.056   6.629  0.0830 -0.3312  0.4133
  116OSM    O1312042   2.324   2.060   6.708 -0.0571 -0.0691  0.2968
  116OSM    O1412043   2.087   1.973   6.668 -0.2896  0.0047 -0.2343
  116OSM    O1112044   2.244   2.017   6.485  0.1298 -0.1862  0.2036
  116OSM    O1212045   2.151   2.204   6.612  0.8994  0.4364 -0.3878
  116OSM    C1S12046   2.297   2.118   6.394  0.3896 -0.0078  0.5207
  116OSM    H1S12047   2.332   2.210   6.445 -0.9540  0.3249  0.8783
  116OSM    H1T12048   2.220   2.160   6.326  1.0310 -0.5802 -0.5920
  116OSM     NF12049   2.450   2.189   6.226  0.0730  0.0469  0.1634
  116OSM    HNF12050   2.412   2.200   6.134 -0.9803  2.9509  0.8219
  116OSM    C2S12051   2.407   2.073   6.296 -0.3969 -0.1866  0.1849
  116OSM    H2S12052   2.492   2.044   6.362  0.9238  0.6941 -1.0809
  116OSM    C3S12053   2.363   1.960   6.211 -0.0503  0.0927  0.2898
  116OSM    H3S12054   2.284   2.001   6.144 -0.2437  2.9003  2.0938
  116OSM     O312055   2.298   1.857   6.288 -0.6325 -0.1994  0.6339
  116OSM    HO312056   2.274   1.901   6.370 -0.1615 -0.1476  0.7439
  116OSM    C4S12057   2.465   1.912   6.110 -0.3894 -0.5709 -0.5412
  116OSM    H4S12058   2.475   1.984   6.027 -1.2246  1.4928  1.0864
  116OSM    C5S12059   2.539   1.799   6.114  0.0241  0.7615 -0.2397
  116OSM    H5S12060   2.509   1.724   6.189  0.6734  0.5182 -0.2251
  116OSM    C6S12061   2.637   1.760   6.012 -0.3648  0.0065 -0.5130
  116OSM    H6S12062   2.621   1.652   5.995 -1.3026 -0.2663  1.6911
  116OSM    H6T12063   2.734   1.778   6.063  0.5029 -1.0669 -1.7524
  116OSM    C7S12064   2.631   1.826   5.865 -0.0312  0.0645 -0.0988
  116OSM    H7S12065   2.680   1.925   5.868 -0.0030  0.2296 -2.9248
  116OSM    H7T12066   2.524   1.835   5.836 -0.5171 -0.6157  1.4229
  116OSM    C8S12067   2.704   1.739   5.759  0.5572  0.2516  0.3800
  116OSM    H8S12068   2.656   1.638   5.757 -1.2025  1.0603 -0.4944
  116OSM    H8T12069   2.811   1.728   5.787  0.8791 -0.1271 -0.9432
  116OSM    C9S12070   2.709   1.806   5.626  0.6768 -0.1485 -0.2862
  116OSM    H9S12071   2.752   1.908   5.636  0.3151 -0.0841  0.6788
  116OSM    H9T12072   2.600   1.820   5.608 -0.6196 -4.5049  2.5794
  116OSM   C10S12073   2.767   1.732   5.514 -0.0874  0.6862  0.4912
  116OSM   H10S12074   2.701   1.650   5.476  1.8217  0.2531 -2.0922
  116OSM   H10T12075   2.858   1.680   5.552 -0.3149 -2.0461 -2.2909
  116OSM   C11S12076   2.816   1.818   5.403 -0.4213  0.3810  0.6146
  116OSM   H11S12077   2.882   1.900   5.439  2.1416 -0.2190 -2.3039
  116OSM   H11T12078   2.723   1.863   5.363 -2.5792 -3.0358  1.4255
  116OSM   C12S12079   2.896   1.746   5.290 -0.0362  0.3788  0.1648
  116OSM   H12S12080   2.824   1.690   5.227 -0.0647  0.7583 -0.1434
  116OSM   H12T12081   2.979   1.677   5.318  0.7048  1.1396 -0.1345
  116OSM   C13S12082   2.976   1.846   5.207  0.1509  0.0962 -0.0858
  116OSM   H13S12083   3.031   1.793   5.126 -0.6552 -0.9402  0.0286
  116OSM   H13T12084   3.055   1.894   5.269  0.6987 -0.5515 -0.2687
  116OSM   C14S12085   2.890   1.938   5.125 -0.3331 -0.2545  0.5508
  116OSM   H14S12086   2.954   2.017   5.081 -1.5659 -1.4428 -3.8247
  116OSM   H14T12087   2.821   1.993   5.192  0.3165 -1.2234  2.1025
  116OSM   C15S12088   2.829   1.866   5.002 -0.6558  0.1662  0.9621
  116OSM   H15S12089   2.754   1.791   5.035  0.7712 -1.9916 -0.4295
  116OSM   H15T12090   2.909   1.805   4.955 -0.6278  0.5388  0.5154
  116OSM   C16S12091   2.768   1.960   4.884 -0.0914 -0.0647  0.0287
  116OSM   H16S12092   2.755   1.900   4.791 -0.7388 -0.8753  0.6266
  116OSM   H16T12093   2.857   2.024   4.866  0.6425 -0.3493  2.3452
  116OSM   C17S12094   2.650   2.043   4.931 -0.3646 -0.5763 -0.5741
  116OSM   H17S12095   2.684   2.118   5.005  2.8584 -0.3111 -2.1775
  116OSM   H17T12096   2.579   1.981   4.990 -2.9307  1.9407 -0.7758
  116OSM   C18S12097   2.580   2.118   4.823  0.0750  0.3447 -1.1122
  116OSM   H18S12098   2.486   2.164   4.861 -0.9406 -0.2253 -2.8590
  116OSM   H18T12099   2.542   2.047   4.747  0.5920  1.3739 -2.3743
  116OSM   H18U12100   2.652   2.192   4.782  0.2261  2.1146  2.0305
  116OSM    C1F12101   2.527   2.282   6.275 -0.8150 -0.2512  0.2103
  116OSM     OF12102   2.569   2.291   6.393  0.2738 -0.0525 -0.4044
  116OSM    C2F12103   2.556   2.395   6.180  0.3760 -0.2941  0.7701
  116OSM    H2F12104   2.492   2.478   6.217  0.3626 -0.1406  0.4034
  116OSM    H2G12105   2.516   2.375   6.078  1.6057 -0.0484  0.2252
  116OSM    C3F12106   2.707   2.410   6.202 -0.2911 -0.0865  0.4369
  116OSM    H3F12107   2.725   2.431   6.309 -1.7158 -0.9526  0.8608
  116OSM    H3G12108   2.754   2.492   6.143  2.4014  0.3566  2.9698
  116OSM    C4F12109   2.798   2.293   6.159 -0.6169 -0.0346  0.2659
  116OSM    H4F12110   2.772   2.213   6.231 -1.7960  0.5067  0.4713
  116OSM    H4G12111   2.905   2.318   6.175 -0.1227 -3.2007  2.8587
  116OSM    C5F12112   2.775   2.249   6.013  0.5383 -0.1378 -0.1086
  116OSM    H5F12113   2.737   2.330   5.948  0.0777 -1.3474 -1.3945
  116OSM    H5G12114   2.691   2.176   6.018  1.2893 -1.0595 -0.6493
  116OSM    C6F12115   2.911   2.197   5.960  1.1871 -0.6004 -0.7620
  116OSM    H6F12116   2.934   2.109   6.024  0.4330  0.0237  0.4075
  116OSM    H6G12117   2.987   2.277   5.971 -1.1644  1.8933 -1.4300
  116OSM    C7F12118   2.897   2.152   5.813 -0.2737 -0.5637 -0.3787
  116OSM    H7F12119   2.865   2.048   5.836 -0.9611 -0.1567  0.5623
  116OSM    H7G12120   2.996   2.146   5.763 -1.4673 -0.1186 -2.9729
  116OSM    C8F12121   2.809   2.230   5.725  0.6269 -0.3504 -0.6198
  116OSM    H8F12122   2.709   2.246   5.772  0.5085 -1.8988 -0.3000
  116OSM    H8G12123   2.794   2.179   5.628 -1.1586  0.5698 -0.8793
  116OSM    C9F12124   2.852   2.375   5.699 -0.1823  0.3368 -0.0969
  116OSM    H9F12125   2.860   2.424   5.797 -1.9588  0.2577  0.1243
  116OSM   C10F12126   2.878   2.427   5.580 -0.2570 -0.8922  0.7593
  116OSM   H10F12127   2.920   2.528   5.574 -0.7389 -0.7695 -2.5767
  116OSM   C11F12128   2.865   2.355   5.446 -0.1080 -0.4454 -0.9138
  116OSM   H11F12129   2.767   2.317   5.410  0.6931 -1.5555 -2.0258
  116OSM   H11G12130   2.925   2.261   5.450  0.4988 -0.0393 -0.2287
  116OSM   C12F12131   2.925   2.445   5.326  0.5108  0.3145 -0.0661
  116OSM   H12F12132   2.945   2.377   5.241 -0.0758  0.2170 -0.1317
  116OSM   H12G12133   3.026   2.477   5.360  0.5538 -0.8575  0.9929
  116OSM   C13F12134   2.842   2.572   5.293 -0.6256 -0.4913  0.0088
  116OSM   H13F12135   2.912   2.635   5.235 -0.8081 -1.4306 -1.2852
  116OSM   H13G12136   2.814   2.621   5.389  0.2699 -1.4725  0.7897
  116OSM   C14F12137   2.737   2.552   5.190 -0.2284 -0.4639 -0.4979
  116OSM   H14F12138   2.662   2.474   5.213 -0.9573 -0.1886 -1.8161
  116OSM   H14G12139   2.790   2.515   5.099 -0.1791 -0.2397 -0.5619
  116OSM   C15F12140   2.669   2.676   5.153 -0.1874 -0.3081 -0.0278
  116OSM   H15F12141   2.743   2.758   5.161 -2.0328  1.3975  0.2169
  116OSM   H15G12142   2.583   2.708   5.216  0.7797 -1.6339  2.0492
  116OSM   C16F12143   2.630   2.658   5.007  0.6052 -0.3015 -0.0900
  116OSM   H16F12144   2.582   2.561   4.985  1.8545 -0.9258 -0.1318
  116OSM   H16G12145   2.727   2.666   4.953  0.1036 -2.0698 -1.3235
  116OSM   C17F12146   2.548   2.778   4.960  0.4093  0.2064  0.2434
  116OSM   H17F12147   2.616   2.863   4.939  1.0922 -0.6019 -0.9550
  116OSM   H17G12148   2.486   2.803   5.048  0.0119  0.5850 -0.1386
  116OSM   C18F12149   2.461   2.748   4.840  0.1576 -0.0910 -0.0790
  116OSM   H18F12150   2.540   2.722   4.766 -0.6740 -2.9057 -0.0946
  116OSM   H18G12151   2.404   2.841   4.819 -0.8794 -0.9721 -1.3818
  116OSM   H18H12152   2.398   2.660   4.866 -0.3242  0.0398 -0.7603
  117OSM      N12153   0.714   5.256   6.709 -0.1654 -0.1879 -0.3981
  117OSM    C1512154   0.764   5.374   6.637  0.4792 -0.4086 -0.4589
  117OSM   H15A12155   0.872   5.369   6.635  0.6264  1.8490 -0.8036
  117OSM   H15B12156   0.750   5.471   6.681  0.8086  0.2766 -1.8195
  117OSM   H15C12157   0.728   5.369   6.535  2.0439  0.7984 -1.0974
  117OSM    C1412158   0.565   5.261   6.733 -0.2745  0.9444  0.0707
  117OSM   H14A12159   0.534   5.359   6.766 -0.0776  2.0357 -2.7284
  117OSM   H14B12160   0.537   5.195   6.814  0.7935 -1.1714 -1.1969
  117OSM   H14C12161   0.515   5.259   6.637  1.6159 -3.2339 -1.0788
  117OSM    C1312162   0.732   5.133   6.631  0.0299  0.5605 -0.7080
  117OSM   H13A12163   0.833   5.140   6.593  0.2916  1.7950  0.1716
  117OSM   H13B12164   0.664   5.108   6.551  0.1342 -1.4360 -0.2337
  117OSM   H13C12165   0.728   5.051   6.702 -2.4495  0.5447 -0.7957
  117OSM    C1212166   0.789   5.241   6.837 -0.0189 -0.2870  0.1420
  117OSM   H12A12167   0.735   5.174   6.902 -0.1046  0.3638  0.7600
  117OSM   H12B12168   0.779   5.332   6.895  1.6812  0.4215 -0.6144
  117OSM    C1112169   0.941   5.198   6.842  0.2978  0.2055 -0.9881
  117OSM   H11A12170   0.951   5.092   6.812  0.5763 -1.0672  2.9767
  117OSM   H11B12171   0.963   5.206   6.951  0.9484  1.4185 -1.1885
  117OSM      P12172   1.165   5.243   6.723 -0.0468  0.8556 -0.1838
  117OSM    O1312173   1.247   5.361   6.698 -0.7613  0.3697 -0.2391
  117OSM    O1412174   1.209   5.144   6.823  0.3574 -0.2939 -0.4866
  117OSM    O1112175   1.139   5.171   6.580 -0.4001 -0.3415 -0.1957
  117OSM    O1212176   1.023   5.296   6.773 -0.1672  0.1402 -0.3415
  117OSM    C1S12177   1.088   5.257   6.475  0.8063  0.2874 -0.4286
  117OSM    H1S12178   1.150   5.349   6.474  2.3144 -0.5934  2.3407
  117OSM    H1T12179   0.982   5.283   6.499  0.8703  1.8608 -1.6718
  117OSM     NF12180   1.059   5.291   6.244  0.3723 -0.3165 -0.7460
  117OSM    HNF12181   0.968   5.295   6.204 -1.1564 -4.3249  1.7440
  117OSM    C2S12182   1.085   5.186   6.340  0.9326 -0.2361 -0.3436
  117OSM    H2S12183   1.181   5.141   6.305  0.0559 -2.1202 -0.4164
  117OSM    C3S12184   0.977   5.080   6.339 -0.8942 -0.1664  0.0183
  117OSM    H3S12185   0.880   5.135   6.341 -1.9633 -1.9514  0.2959
  117OSM     O312186   0.952   4.999   6.458  0.5955 -0.4346  0.2747
  117OSM    HO312187   1.022   5.034   6.514 -1.6095 -0.2722  3.1559
  117OSM    C4S12188   0.960   4.994   6.210 -0.5717  0.6621  0.0027
  117OSM    H4S12189   0.935   5.059   6.125  1.3763 -0.1742 -1.2827
  117OSM    C5S12190   0.999   4.861   6.195  0.1653  0.5782 -0.5449
  117OSM    H5S12191   1.043   4.817   6.285 -1.1920  0.6289  0.1767
  117OSM    C6S12192   0.995   4.777   6.071 -0.3136  0.0856  0.5612
  117OSM    H6S12193   0.909   4.707   6.074 -0.7685  0.5827 -0.3915
  117OSM    H6T12194   1.083   4.709   6.067 -1.6818 -1.6993 -0.2915
  117OSM    C7S12195   0.978   4.863   5.949 -0.0937 -0.3860  0.3769
  117OSM    H7S12196   1.036   4.958   5.942  1.6710 -1.4175  0.4913
  117OSM    H7T12197   0.869   4.886   5.945  0.0562  0.1894 -1.0511
  117OSM    C8S12198   1.010   4.781   5.820 -0.2337  0.7395 -0.1047
  117OSM    H8S12199   0.952   4.687   5.838 -1.3323  1.3667 -0.2916
  117OSM    H8T12200   1.117   4.760   5.799 -0.6495 -2.8729  0.6693
  117OSM    C9S12201   0.965   4.838   5.691  0.3482  0.5292  0.0529
  117OSM    H9S12202   1.002   4.943   5.691  1.3187  0.2061 -0.9917
  117OSM    H9T12203   0.854   4.841   5.680  0.4531  1.2537 -1.0015
  117OSM   C10S12204   1.016   4.776   5.563 -0.3556 -0.0623 -0.5722
  117OSM   H10S12205   0.985   4.669   5.565 -0.8669  0.0671 -1.1487
  117OSM   H10T12206   1.127   4.781   5.562 -0.3687  0.6622  0.4162
  117OSM   C11S12207   0.967   4.854   5.443  0.3899 -0.2421  1.1358
  117OSM   H11S12208   1.005   4.958   5.446  0.5123 -0.2718  0.7015
  117OSM   H11T12209   0.856   4.857   5.445  0.2253 -2.7613 -0.0558
  117OSM   C12S12210   0.998   4.781   5.313 -0.7007 -0.0296  0.7323
  117OSM   H12S12211   0.956   4.679   5.323 -1.0515 -0.1616 -1.6177
  117OSM   H12T12212   1.109   4.779   5.307 -0.5827 -0.9399  2.5297
  117OSM   C13S12213   0.935   4.844   5.190 -0.0523 -0.9320  0.4804
  117OSM   H13S12214   0.962   4.952   5.190  2.6531 -1.4813  2.8081
  117OSM   H13T12215   0.826   4.830   5.174  0.5213 -2.7270 -2.9133
  117OSM   C14S12216   1.000   4.773   5.070  0.4794  0.2931  0.0462
  117OSM   H14S12217   1.011   4.663   5.081 -1.5496 -0.0708 -1.0389
  117OSM   H14T12218   1.102   4.814   5.058  0.8152 -0.9177 -1.6831
  117OSM   C15S12219   0.927   4.810   4.947  1.0008  0.3130  0.4410
  117OSM   H15S12220   0.819   4.788   4.957  0.9106 -0.1831 -1.3247
  117OSM   H15T12221   0.954   4.742   4.863 -0.1960 -0.0009  0.2930
  117OSM   C16S12222   0.942   4.954   4.883 -0.1226 -0.7372  0.2590
  117OSM   H16S12223   1.045   4.958   4.842  0.1638 -3.2794  0.5513
  117OSM   H16T12224   0.937   5.030   4.964  1.1111 -0.5740  0.1918
  117OSM   C17S12225   0.839   4.979   4.770 -0.2115 -0.1374 -0.0079
  117OSM   H17S12226   0.739   4.963   4.816 -0.1699  1.3984  0.6825
  117OSM   H17T12227   0.851   4.904   4.689  0.2431  0.5336 -0.5713
  117OSM   C18S12228   0.833   5.118   4.697 -0.1251 -0.2185 -0.5663
  117OSM   H18S12229   0.926   5.156   4.650 -1.6212  1.6064 -2.2232
  117OSM   H18T12230   0.803   5.192   4.775 -0.4346  0.2620 -1.1361
  117OSM   H18U12231   0.745   5.112   4.630  0.8537 -0.1859 -1.8854
  117OSM    C1F12232   1.159   5.384   6.225  0.4024 -0.1580 -0.1403
  117OSM     OF12233   1.278   5.358   6.238 -0.0481 -0.3580  0.1512
  117OSM    C2F12234   1.112   5.526   6.205 -0.1350  0.1368  0.6476
  117OSM    H2F12235   1.065   5.567   6.297  0.6657  0.8033  0.7711
  117OSM    H2G12236   1.043   5.515   6.118  2.9808 -1.3411 -1.8545
  117OSM    C3F12237   1.226   5.630   6.167  0.6348  0.0299 -0.8038
  117OSM    H3F12238   1.297   5.602   6.087  2.4667 -0.1614  0.8170
  117OSM    H3G12239   1.291   5.637   6.257 -0.5131 -2.5112  0.3283
  117OSM    C4F12240   1.179   5.777   6.146 -0.4101 -0.5362 -0.4631
  117OSM    H4F12241   1.266   5.841   6.122 -0.9782 -0.6120 -3.1270
  117OSM    H4G12242   1.137   5.835   6.231 -2.3994 -0.0774 -1.6882
  117OSM    C5F12243   1.094   5.790   6.027  0.4951 -0.3569  0.4858
  117OSM    H5F12244   1.009   5.719   6.038 -0.1385 -0.1425 -2.3380
  117OSM    H5G12245   1.134   5.765   5.927  0.1963  0.5015  0.1452
  117OSM    C6F12246   1.052   5.941   6.016 -0.4029 -0.1179  0.2529
  117OSM    H6F12247   1.132   5.998   5.965  0.6332 -0.9908  0.8704
  117OSM    H6G12248   1.032   5.990   6.113  0.2795  0.9218 -0.1157
  117OSM    C7F12249   0.933   5.960   5.929  0.5054  0.4723  0.4416
  117OSM    H7F12250   0.840   5.920   5.975 -0.1092  1.3928  0.0231
  117OSM    H7G12251   0.959   5.899   5.839 -2.2690  1.5640 -1.2294
  117OSM    C8F12252   0.922   6.111   5.901  0.3330  0.0529  0.1972
  117OSM    H8F12253   1.025   6.140   5.872 -0.5094  2.2993 -0.8132
  117OSM    H8G12254   0.901   6.180   5.985 -1.3125 -1.2272  0.8988
  117OSM    C9F12255   0.819   6.137   5.794 -0.5705  0.1325  0.0225
  117OSM    H9F12256   0.859   6.110   5.695 -0.0709 -2.1976  0.8027
  117OSM   C10F12257   0.701   6.208   5.803 -0.5060  0.2142 -0.2269
  117OSM   H10F12258   0.636   6.209   5.715 -1.2962 -0.5406  0.3347
  117OSM   C11F12259   0.648   6.266   5.933 -0.0268  0.2045  0.8603
  117OSM   H11F12260   0.682   6.372   5.933 -2.9161  1.2220 -0.8727
  117OSM   H11G12261   0.683   6.207   6.020 -0.8097  1.1503  1.8576
  117OSM   C12F12262   0.493   6.275   5.949 -0.0598  0.0701 -0.7051
  117OSM   H12F12263   0.477   6.329   6.044 -0.1552 -0.5772 -0.3468
  117OSM   H12G12264   0.460   6.170   5.965  4.2947 -1.1466  1.8782
  117OSM   C13F12265   0.426   6.337   5.830  0.0914 -0.5050 -0.3160
  117OSM   H13F12266   0.316   6.351   5.842  0.4108  2.0813  0.3359
  117OSM   H13G12267   0.421   6.270   5.742 -1.3483  0.0727 -0.7113
  117OSM   C14F12268   0.471   6.479   5.785  0.3431  0.5539  0.6272
  117OSM   H14F12269   0.580   6.487   5.769  0.4644 -1.4991  0.2021
  117OSM   H14G12270   0.432   6.548   5.864 -0.2574  2.2780 -1.0937
  117OSM   C15F12271   0.401   6.533   5.658  0.2570 -0.0285  0.2211
  117OSM   H15F12272   0.290   6.523   5.661  0.3150 -0.4850  0.9800
  117OSM   H15G12273   0.441   6.472   5.574  0.4684 -2.8303  2.1879
  117OSM   C16F12274   0.430   6.678   5.620 -0.2859 -0.3046 -0.6576
  117OSM   H16F12275   0.539   6.699   5.626 -0.4981  0.7361 -0.2684
  117OSM   H16G12276   0.386   6.739   5.702  0.4585 -1.7179  0.8524
  117OSM   C17F12277   0.380   6.717   5.482  0.7377 -0.7190  0.8792
  117OSM   H17F12278   0.271   6.694   5.489  0.9931 -1.6632  2.1207
  117OSM   H17G12279   0.425   6.641   5.414 -0.9134 -3.1291  2.3094
  117OSM   C18F12280   0.401   6.858   5.423 -0.1181  0.3344  0.1573
  117OSM   H18F12281   0.364   6.940   5.487  1.4350  0.5038  0.8845
  117OSM   H18G12282   0.345   6.868   5.327  0.6055  0.6827 -0.2391
  117OSM   H18H12283   0.509   6.871   5.401 -0.4669  0.3579 -1.7150
  118OSM      N12284   1.388   4.041   7.332  0.5619  0.2401  0.0773
  118OSM    C1512285   1.484   3.933   7.373  0.2357 -0.0152 -0.1169
  118OSM   H15A12286   1.441   3.861   7.442 -0.6948  0.8024  0.1921
  118OSM   H15B12287   1.572   3.974   7.420  1.0354 -0.5476 -1.1201
  118OSM   H15C12288   1.524   3.887   7.284 -0.3969  0.1875 -0.5108
  118OSM    C1412289   1.273   3.959   7.285 -0.1878  0.0681 -0.1472
  118OSM   H14A12290   1.254   3.871   7.344 -3.3977  0.4838 -0.4016
  118OSM   H14B12291   1.276   3.922   7.183  2.5281 -1.0725  0.2754
  118OSM   H14C12292   1.182   4.017   7.287  0.2728  1.0474 -2.8009
  118OSM    C1312293   1.356   4.117   7.453  0.0458  0.1942 -0.7599
  118OSM   H13A12294   1.310   4.055   7.529  0.0664  0.9586 -0.1162
  118OSM   H13B12295   1.274   4.180   7.422  0.9946  0.4470 -2.9384
  118OSM   H13C12296   1.441   4.167   7.496  0.6924 -2.5776  1.5317
  118OSM    C1212297   1.431   4.134   7.215  0.3835 -0.0863 -0.5320
  118OSM   H12A12298   1.505   4.203   7.253 -2.1939  2.3214  0.5098
  118OSM   H12B12299   1.347   4.194   7.182  1.3254  0.7718 -1.4279
  118OSM    C1112300   1.489   4.071   7.087  0.2237 -0.0771  0.1062
  118OSM   H11A12301   1.574   4.002   7.106 -3.2856 -5.0767 -0.1868
  118OSM   H11B12302   1.531   4.161   7.038 -2.7145  1.7674  0.7663
  118OSM      P12303   1.269   4.082   6.957  0.1745  0.1376  0.1283
  118OSM    O1312304   1.156   3.998   6.991  0.0409  0.0257 -0.1854
  118OSM    O1412305   1.256   4.220   7.007 -0.4407 -0.3777  0.6470
  118OSM    O1112306   1.293   4.100   6.801  0.0509  0.2387 -0.3246
  118OSM    O1212307   1.395   4.005   7.005  0.0705  0.3728  0.3867
  118OSM    C1S12308   1.257   3.989   6.712  1.1216  0.1471  0.3528
  118OSM    H1S12309   1.149   3.967   6.727 -0.0888  3.6940 -1.8102
  118OSM    H1T12310   1.327   3.904   6.726 -1.2002 -1.5301  2.4815
  118OSM     NF12311   1.191   3.944   6.481 -0.3331 -0.2666  0.3148
  118OSM    HNF12312   1.233   3.877   6.420 -0.6187  0.3530 -0.5852
  118OSM    C2S12313   1.273   4.030   6.565 -0.3617  0.1420 -0.4416
  118OSM    H2S12314   1.243   4.137   6.551  1.5135  0.8367  0.5289
  118OSM    C3S12315   1.427   4.033   6.529  0.0616  0.4968 -0.0683
  118OSM    H3S12316   1.451   3.925   6.523 -3.1297 -0.2446 -1.4677
  118OSM     O312317   1.507   4.089   6.628  0.5597 -0.0593  0.2510
  118OSM    HO312318   1.444   4.115   6.696 -0.0159  0.6089 -0.5260
  118OSM    C4S12319   1.460   4.089   6.399 -0.2941  0.2483  0.3448
  118OSM    H4S12320   1.423   4.191   6.383 -1.1840 -0.1433 -0.2028
  118OSM    C5S12321   1.546   4.035   6.306 -0.4550 -0.1468 -0.4980
  118OSM    H5S12322   1.594   3.939   6.329 -1.4804 -0.5022  0.2684
  118OSM    C6S12323   1.590   4.113   6.182 -0.1114  0.7158  0.7693
  118OSM    H6S12324   1.558   4.049   6.098  0.9796 -3.5096  3.2491
  118OSM    H6T12325   1.700   4.104   6.190 -0.1886 -0.9916  0.1635
  118OSM    C7S12326   1.556   4.266   6.175 -0.1226 -0.2510 -0.9273
  118OSM    H7S12327   1.593   4.310   6.270 -3.9547  2.1037 -0.3045
  118OSM    H7T12328   1.445   4.267   6.178 -0.1360 -1.6591  2.4055
  118OSM    C8S12329   1.610   4.345   6.050  0.4465  0.7509  0.3668
  118OSM    H8S12330   1.718   4.321   6.038 -0.2467 -1.2087 -3.7271
  118OSM    H8T12331   1.594   4.451   6.079 -0.1210  0.0750  2.7878
  118OSM    C9S12332   1.548   4.304   5.922 -0.1077  1.0633 -0.4661
  118OSM    H9S12333   1.439   4.316   5.938  0.1362  0.4647  2.2510
  118OSM    H9T12334   1.568   4.195   5.915 -0.3032  0.7968  2.0048
  118OSM   C10S12335   1.599   4.374   5.798 -0.6442  1.3572  0.1822
  118OSM   H10S12336   1.709   4.368   5.812 -0.7539 -1.8077  0.4996
  118OSM   H10T12337   1.563   4.479   5.796 -0.6029  1.3846  0.7792
  118OSM   C11S12338   1.553   4.313   5.661 -0.0472  0.5437 -0.1349
  118OSM   H11S12339   1.445   4.335   5.644  0.4095  2.1396 -1.2061
  118OSM   H11T12340   1.575   4.205   5.666  2.3612  1.0074  0.5993
  118OSM   C12S12341   1.629   4.388   5.548 -0.3954 -0.7895 -0.1831
  118OSM   H12S12342   1.731   4.346   5.556  0.1034  0.5099  0.5095
  118OSM   H12T12343   1.634   4.498   5.561 -1.4719 -0.8018  0.4681
  118OSM   C13S12344   1.576   4.348   5.406 -0.4177 -0.1317  0.8144
  118OSM   H13S12345   1.481   4.398   5.380 -0.0089 -0.2948 -1.1624
  118OSM   H13T12346   1.557   4.240   5.421 -1.7673  0.0072  0.2313
  118OSM   C14S12347   1.676   4.387   5.289 -0.4184  0.6048  0.0333
  118OSM   H14S12348   1.779   4.349   5.307 -0.2287  2.0684  2.5705
  118OSM   H14T12349   1.695   4.497   5.293  0.2339  0.4840  0.4146
  118OSM   C15S12350   1.625   4.347   5.153 -0.2681 -0.2392 -0.1848
  118OSM   H15S12351   1.532   4.399   5.122  0.6663  1.5970 -0.0181
  118OSM   H15T12352   1.604   4.238   5.146  3.3163 -1.2501  1.9974
  118OSM   C16S12353   1.738   4.370   5.046 -0.3667  0.6432  0.1648
  118OSM   H16S12354   1.707   4.314   4.955 -0.8953 -0.0378  0.7536
  118OSM   H16T12355   1.837   4.332   5.079 -0.7571 -1.5126 -0.9740
  118OSM   C17S12356   1.761   4.514   5.004 -0.4378 -0.4936  0.0190
  118OSM   H17S12357   1.850   4.515   4.936 -1.3654  0.2873 -1.2344
  118OSM   H17T12358   1.799   4.568   5.094  0.1707 -0.4414 -0.2579
  118OSM   C18S12359   1.639   4.591   4.949  0.4961 -0.0091  1.0865
  118OSM   H18S12360   1.550   4.568   5.011 -0.3907  1.0272  0.2586
  118OSM   H18T12361   1.611   4.555   4.848  3.0125 -0.3903  0.4524
  118OSM   H18U12362   1.674   4.697   4.946 -0.7248  0.3956  0.5174
  118OSM    C1F12363   1.058   3.954   6.488  0.2692 -0.5237 -0.2836
  118OSM     OF12364   1.000   4.050   6.531  0.0940 -0.4814  0.1234
  118OSM    C2F12365   0.984   3.834   6.455  0.0637 -0.0437 -0.4939
  118OSM    H2F12366   0.916   3.807   6.539 -0.0173 -1.1810 -0.9095
  118OSM    H2G12367   1.067   3.763   6.434  1.8084  1.2560  1.6484
  118OSM    C3F12368   0.894   3.865   6.331  0.2276 -0.4100 -0.5598
  118OSM    H3F12369   0.941   3.907   6.240 -3.7138  1.3377 -2.0002
  118OSM    H3G12370   0.815   3.932   6.372 -0.0449  1.0639 -3.2713
  118OSM    C4F12371   0.839   3.730   6.283  0.0950 -0.0828 -0.1920
  118OSM    H4F12372   0.830   3.661   6.370  1.2140  0.4885  0.3954
  118OSM    H4G12373   0.914   3.676   6.221  0.2915 -2.4765  1.9683
  118OSM    C5F12374   0.705   3.751   6.219 -0.3307 -0.6258  0.0812
  118OSM    H5F12375   0.726   3.819   6.134 -3.1003  2.5664  1.6839
  118OSM    H5G12376   0.640   3.814   6.284 -0.2659 -0.1072 -0.3429
  118OSM    C6F12377   0.635   3.618   6.185 -0.0580 -0.7156 -0.2169
  118OSM    H6F12378   0.595   3.562   6.271 -0.1878 -1.2026 -0.5921
  118OSM    H6G12379   0.708   3.541   6.152 -0.4690 -0.6906 -1.2253
  118OSM    C7F12380   0.524   3.632   6.086  0.5356 -0.1498  0.2964
  118OSM    H7F12381   0.460   3.718   6.115  2.3856  1.7840 -1.0004
  118OSM    H7G12382   0.459   3.543   6.080 -0.1475  0.2237  1.6175
  118OSM    C8F12383   0.579   3.652   5.939 -0.3218 -0.2894 -0.1678
  118OSM    H8F12384   0.618   3.755   5.926  0.8148 -0.6666  0.2002
  118OSM    H8G12385   0.490   3.639   5.873 -1.4162 -2.0047  1.5357
  118OSM    C9F12386   0.684   3.542   5.907  0.5755 -0.6913  0.4796
  118OSM    H9F12387   0.672   3.447   5.961  1.4501  0.2854  2.4759
  118OSM   C10F12388   0.788   3.560   5.824  0.6772  0.0596 -0.3337
  118OSM   H10F12389   0.862   3.480   5.808  0.8008 -0.5051  2.5599
  118OSM   C11F12390   0.819   3.689   5.745  0.0260  0.2031 -0.2956
  118OSM   H11F12391   0.929   3.698   5.739 -0.2065  3.1766 -2.5313
  118OSM   H11G12392   0.780   3.782   5.792  0.9438  0.2412  0.4006
  118OSM   C12F12393   0.778   3.675   5.592  1.4635 -0.0558  0.2507
  118OSM   H12F12394   0.667   3.684   5.601  1.6331  0.6164  2.3295
  118OSM   H12G12395   0.803   3.576   5.548  4.0893  0.5084  0.3016
  118OSM   C13F12396   0.836   3.782   5.497 -0.3154  0.4464 -0.0725
  118OSM   H13F12397   0.946   3.791   5.511 -0.5353  3.1553  0.2958
  118OSM   H13G12398   0.797   3.880   5.530 -1.9773 -0.6385  1.3154
  118OSM   C14F12399   0.810   3.759   5.348 -0.3317  0.2255  0.4399
  118OSM   H14F12400   0.705   3.773   5.314  0.3620 -2.6097 -3.6371
  118OSM   H14G12401   0.841   3.655   5.325 -0.4152  0.3864 -0.4528
  118OSM   C15F12402   0.885   3.844   5.251  0.3256  0.4294  0.3790
  118OSM   H15F12403   0.986   3.857   5.295  1.5961 -1.3740 -1.8083
  118OSM   H15G12404   0.842   3.947   5.258  0.9683  0.9155 -1.8615
  118OSM   C16F12405   0.882   3.794   5.102 -0.3141  0.3225  0.1836
  118OSM   H16F12406   0.777   3.804   5.067 -0.3071 -1.7705 -0.5534
  118OSM   H16G12407   0.914   3.688   5.100  1.1576  0.7340 -1.8266
  118OSM   C17F12408   0.977   3.873   5.007  0.4691 -1.0255 -0.1964
  118OSM   H17F12409   1.076   3.886   5.056  0.3737 -0.6967 -0.0897
  118OSM   H17G12410   0.944   3.975   4.978  0.0705 -0.7033  1.3178
  118OSM   C18F12411   1.013   3.809   4.877  0.4971  0.5571 -0.0452
  118OSM   H18F12412   1.094   3.856   4.818  2.4490 -0.4089  1.7520
  118OSM   H18G12413   0.923   3.794   4.813 -1.4841  2.4054  2.1394
  118OSM   H18H12414   1.035   3.702   4.898  0.1385  0.8116  1.7687
  119OSM      N12415   3.077   0.436   6.705 -0.4770  0.1670  0.7244
  119OSM    C1512416   3.140   0.515   6.589 -0.0866  0.2818  0.3919
  119OSM   H15A12417   3.243   0.482   6.583  0.2248  0.3499  3.6039
  119OSM   H15B12418   3.138   0.622   6.601 -1.9920  0.5692 -1.8467
  119OSM   H15C12419   3.088   0.498   6.497 -0.6997  1.2687  0.5387
  119OSM    C1412420   3.150   0.450   6.833  0.7202 -0.2051  0.1494
  119OSM   H14A12421   3.254   0.419   6.833  1.2633  1.4732  0.6177
  119OSM   H14B12422   3.094   0.390   6.903 -3.1694  2.0672 -0.7268
  119OSM   H14C12423   3.160   0.551   6.870 -0.4837 -0.8955  2.5361
  119OSM    C1312424   2.942   0.495   6.726  0.1529  0.1812  0.8358
  119OSM   H13A12425   2.885   0.474   6.637  0.3235  0.8787  0.5543
  119OSM   H13B12426   2.946   0.602   6.741 -1.4138  0.1920  1.4490
  119OSM   H13C12427   2.885   0.449   6.806 -3.5988  1.2980 -0.9384
  119OSM    C1212428   3.075   0.287   6.659 -0.2495 -0.4929  0.1058
  119OSM   H12A12429   3.175   0.271   6.623 -0.5989 -2.0538 -0.2588
  119OSM   H12B12430   3.018   0.284   6.567 -0.4258  5.2135 -0.3523
  119OSM    C1112431   3.032   0.171   6.750  0.5531 -0.4841 -0.0821
  119OSM   H11A12432   3.089   0.190   6.844  0.7878 -0.2563 -0.2703
  119OSM   H11B12433   3.077   0.077   6.710 -1.3286 -1.7512  0.6117
  119OSM      P12434   2.806   0.040   6.736 -0.4078 -0.4365 -0.5280
  119OSM    O1312435   2.899  -0.062   6.783 -0.3538  0.8051  0.8984
  119OSM    O1412436   2.676   0.059   6.801 -0.0146  0.2438 -0.3854
  119OSM    O1112437   2.778   0.044   6.581 -0.0078  0.0858  0.0607
  119OSM    O1212438   2.889   0.173   6.775  0.1941 -0.2525  0.1592
  119OSM    C1S12439   2.744   0.187   6.536 -0.7245  0.0674 -0.8386
  119OSM    H1S12440   2.831   0.251   6.557 -0.9054 -0.7003  2.8704
  119OSM    H1T12441   2.654   0.226   6.588 -0.5236 -0.8592  0.2326
  119OSM     NF12442   2.737   0.308   6.322  0.5416 -0.1484 -0.0527
  119OSM    HNF12443   2.654   0.350   6.287 -0.1586 -1.1521  0.3670
  119OSM    C2S12444   2.723   0.178   6.376 -0.2620 -0.3122  0.4493
  119OSM    H2S12445   2.802   0.117   6.327 -2.6955 -2.0759 -1.5640
  119OSM    C3S12446   2.594   0.097   6.333  0.2270 -1.0295 -0.1304
  119OSM    H3S12447   2.496   0.139   6.364  0.7778  0.1577  0.0455
  119OSM     O312448   2.600  -0.032   6.381 -0.1809  0.1774 -0.2585
  119OSM    HO312449   2.672  -0.021   6.444 -2.9328  1.5102  2.9699
  119OSM    C4S12450   2.588   0.105   6.177  0.0847  0.0208  1.2138
  119OSM    H4S12451   2.519   0.178   6.132  0.4359  0.1390  0.8617
  119OSM    C5S12452   2.663   0.022   6.097  0.2530 -0.5861 -0.4698
  119OSM    H5S12453   2.718  -0.061   6.144 -0.5708 -0.6477  0.4072
  119OSM    C6S12454   2.662   0.020   5.949 -0.5568 -0.7542  0.2406
  119OSM    H6S12455   2.768   0.046   5.925  0.1241 -1.0556  2.5907
  119OSM    H6T12456   2.594   0.101   5.916 -0.2502 -0.6760 -0.2089
  119OSM    C7S12457   2.630  -0.111   5.876  0.3357  0.1885 -0.7224
  119OSM    H7S12458   2.523  -0.131   5.900  0.8943 -0.6491  1.2302
  119OSM    H7T12459   2.689  -0.196   5.917  1.3383  1.5188  0.6927
  119OSM    C8S12460   2.636  -0.109   5.725 -0.9524 -0.1428  0.0429
  119OSM    H8S12461   2.741  -0.111   5.691 -1.4168 -0.0254 -1.4868
  119OSM    H8T12462   2.581  -0.016   5.697  0.4592  0.7264  0.0372
  119OSM    C9S12463   2.583  -0.240   5.661  0.1285  0.4811 -0.3732
  119OSM    H9S12464   2.478  -0.263   5.691  0.3070  2.2349  1.9401
  119OSM    H9T12465   2.634  -0.332   5.696  0.3558  0.5300 -0.5726
  119OSM   C10S12466   2.574  -0.233   5.511 -1.1553  0.1998 -0.0878
  119OSM   H10S12467   2.568  -0.336   5.469 -0.3661 -0.0262  0.3444
  119OSM   H10T12468   2.664  -0.185   5.467 -1.7165  2.6631  1.2636
  119OSM   C11S12469   2.454  -0.154   5.471  0.6266  0.0692  0.2547
  119OSM   H11S12470   2.440  -0.059   5.526  1.7027  1.0752 -1.1292
  119OSM   H11T12471   2.363  -0.209   5.503  2.8031 -2.9402  1.7826
  119OSM   C12S12472   2.449  -0.116   5.318 -0.1068  0.8072 -0.2970
  119OSM   H12S12473   2.347  -0.076   5.297 -0.3752  0.4815  0.3413
  119OSM   H12T12474   2.477  -0.196   5.247 -0.8474  0.9276 -0.7348
  119OSM   C13S12475   2.554  -0.005   5.291  0.1251 -0.6339  0.0690
  119OSM   H13S12476   2.658  -0.025   5.325  0.2679  2.5929  1.8777
  119OSM   H13T12477   2.524   0.087   5.345 -1.1424  0.4084 -2.2810
  119OSM   C14S12478   2.568   0.033   5.143 -0.3077  0.5472 -0.6344
  119OSM   H14S12479   2.608   0.137   5.143 -0.2691  0.5485  0.7020
  119OSM   H14T12480   2.476   0.039   5.081 -0.6107  1.1747 -0.1401
  119OSM   C15S12481   2.674  -0.046   5.059  0.2527  0.3411  0.4043
  119OSM   H15S12482   2.634  -0.149   5.066 -1.4540  0.9470  0.0058
  119OSM   H15T12483   2.773  -0.039   5.109  0.4819 -1.1123  0.1928
  119OSM   C16S12484   2.693  -0.011   4.906  0.6068 -0.6584  0.1166
  119OSM   H16S12485   2.770  -0.076   4.861 -0.1865 -1.9761  0.6210
  119OSM   H16T12486   2.737   0.091   4.916  1.1204 -0.8785  0.1394
  119OSM   C17S12487   2.579  -0.031   4.813 -0.6887 -0.3544 -0.5177
  119OSM   H17S12488   2.494   0.035   4.839 -1.2807 -0.2736 -2.4934
  119OSM   H17T12489   2.542  -0.136   4.817 -0.5034 -0.3968  0.2866
  119OSM   C18S12490   2.619   0.009   4.680 -1.1576  0.0135  0.4438
  119OSM   H18S12491   2.541   0.028   4.603 -0.7970  0.7771  0.2583
  119OSM   H18T12492   2.694  -0.051   4.623 -1.3026  0.3936 -0.1634
  119OSM   H18U12493   2.656   0.113   4.686 -3.3756  0.9019 -0.5105
  119OSM    C1F12494   2.854   0.378   6.319 -0.3662 -1.1811 -0.1228
  119OSM     OF12495   2.955   0.344   6.382 -0.5347  0.0699 -0.0811
  119OSM    C2F12496   2.845   0.499   6.226  0.1099  0.0357 -0.0764
  119OSM    H2F12497   2.858   0.587   6.293 -2.3949  1.0874 -0.8656
  119OSM    H2G12498   2.739   0.506   6.196  0.2541 -2.7967 -1.5757
  119OSM    C3F12499   2.949   0.506   6.112 -0.0689 -0.3058 -0.0213
  119OSM    H3F12500   2.925   0.452   6.017 -1.7320  0.3381  0.0017
  119OSM    H3G12501   3.043   0.461   6.150  0.9628  2.0155  0.3292
  119OSM    C4F12502   2.979   0.652   6.081  0.3136  0.6581  0.5154
  119OSM    H4F12503   2.997   0.695   6.182  1.2843 -0.2829  0.7632
  119OSM    H4G12504   2.883   0.695   6.047 -0.4872  0.8216  2.8510
  119OSM    C5F12505   3.109   0.670   5.987  0.5524 -0.0234 -0.4980
  119OSM    H5F12506   3.182   0.594   6.021 -0.7630 -1.0046  0.2562
  119OSM    H5G12507   3.148   0.773   6.002 -0.1003  0.1377  0.1562
  119OSM    C6F12508   3.084   0.646   5.838 -0.3466 -0.1778  0.3466
  119OSM    H6F12509   3.016   0.724   5.798  0.6099  1.0796  1.0724
  119OSM    H6G12510   3.042   0.544   5.829  1.1792 -0.6402 -2.7425
  119OSM    C7F12511   3.217   0.653   5.758 -0.7312 -0.1391  0.1854
  119OSM    H7F12512   3.283   0.564   5.766  1.3749  1.2885 -0.6014
  119OSM    H7G12513   3.292   0.726   5.794 -0.5642 -0.1241 -0.1822
  119OSM    C8F12514   3.186   0.685   5.608  0.0806 -0.7105 -0.7094
  119OSM    H8F12515   3.284   0.688   5.555  1.5911 -0.3288  1.9639
  119OSM    H8G12516   3.147   0.789   5.615 -0.7879 -1.0165 -0.8832
  119OSM    C9F12517   3.083   0.598   5.541  0.0917 -0.0901  0.2503
  119OSM    H9F12518   3.126   0.498   5.522  0.8812  0.2955 -0.0444
  119OSM   C10F12519   2.960   0.629   5.490  0.0263 -0.0038 -0.4220
  119OSM   H10F12520   2.914   0.550   5.430  0.4882  0.2388 -1.1140
  119OSM   C11F12521   2.884   0.762   5.502 -0.4805 -0.2027 -0.1691
  119OSM   H11F12522   2.922   0.829   5.582 -2.5490  2.0893 -0.9964
  119OSM   H11G12523   2.779   0.742   5.533 -2.4086  0.8780 -5.1267
  119OSM   C12F12524   2.879   0.854   5.376  0.1313 -0.0671 -0.2701
  119OSM   H12F12525   2.979   0.898   5.359  0.1084  0.3278  0.5897
  119OSM   H12G12526   2.805   0.936   5.391 -1.6031 -1.2085 -2.0176
  119OSM   C13F12527   2.830   0.780   5.247 -0.7923  0.1038 -0.5122
  119OSM   H13F12528   2.733   0.731   5.268 -0.0337 -1.3381 -0.2407
  119OSM   H13G12529   2.902   0.706   5.206 -0.7010  0.0943 -0.3364
  119OSM   C14F12530   2.829   0.876   5.124  0.2922 -0.0665 -0.4072
  119OSM   H14F12531   2.918   0.942   5.121  0.5260 -0.4016 -0.9295
  119OSM   H14G12532   2.745   0.948   5.138  0.4841  0.0925 -0.0563
  119OSM   C15F12533   2.818   0.809   4.997 -0.2634 -0.6602  0.0744
  119OSM   H15F12534   2.741   0.729   5.001 -0.5475 -0.4428 -0.7936
  119OSM   H15G12535   2.911   0.753   4.972  1.1887  2.0761 -1.1189
  119OSM   C16F12536   2.789   0.905   4.883  0.9903  0.2908 -0.0209
  119OSM   H16F12537   2.697   0.966   4.896  1.3948  0.8117  0.4010
  119OSM   H16G12538   2.782   0.842   4.792 -0.1457  0.9567 -0.4259
  119OSM   C17F12539   2.901   1.015   4.864 -0.0485 -0.1688  0.2288
  119OSM   H17F12540   3.001   0.968   4.870  0.4588  0.6799 -1.1195
  119OSM   H17G12541   2.880   1.081   4.951 -0.4937 -0.1424  0.1047
  119OSM   C18F12542   2.890   1.080   4.731  0.2098 -0.5521 -0.3323
  119OSM   H18F12543   2.899   1.000   4.654 -1.3559 -0.2198 -0.8930
  119OSM   H18G12544   2.966   1.159   4.712 -1.1636  1.6511  2.6757
  119OSM   H18H12545   2.789   1.124   4.717  0.0982  0.5688  3.1290
  120OSM      N12546   5.547   0.521   7.239  0.9140  0.1558  0.4210
  120OSM    C1512547   5.529   0.661   7.206  0.2907 -0.4405 -0.5688
  120OSM   H15A12548   5.432   0.686   7.165 -1.0564 -1.3699  1.8671
  120OSM   H15B12549   5.598   0.708   7.137 -2.4859  0.3015 -3.0803
  120OSM   H15C12550   5.535   0.718   7.297 -2.6373 -1.0085  0.0852
  120OSM    C1412551   5.683   0.508   7.286 -0.1774  0.5389 -0.1460
  120OSM   H14A12552   5.767   0.530   7.222 -0.6363  0.7660 -0.6878
  120OSM   H14B12553   5.694   0.407   7.323 -1.5854  0.4673  0.1298
  120OSM   H14C12554   5.702   0.568   7.374 -1.0599  2.0084 -0.9052
  120OSM    C1312555   5.455   0.474   7.345 -0.3592 -1.0127 -0.4445
  120OSM   H13A12556   5.473   0.520   7.440 -0.2163 -2.1147  0.0807
  120OSM   H13B12557   5.440   0.367   7.355  2.2119 -1.4011 -0.1780
  120OSM   H13C12558   5.354   0.508   7.325 -1.0236 -0.2811  3.4759
  120OSM    C1212559   5.546   0.437   7.110 -0.2252 -0.1296 -0.2212
  120OSM   H12A12560   5.640   0.460   7.062  0.7495  0.6265  1.9146
  120OSM   H12B12561   5.468   0.474   7.045 -2.0430  1.7879  2.7839
  120OSM    C1112562   5.537   0.287   7.129  0.6671  0.2880  0.7258
  120OSM   H11A12563   5.619   0.251   7.194  1.8602 -0.7329 -1.2422
  120OSM   H11B12564   5.544   0.235   7.031  1.3823 -0.2647  1.0599
  120OSM      P12565   5.274   0.261   7.096 -0.1479 -0.2858  0.1875
  120OSM    O1312566   5.160   0.210   7.172  0.4134 -0.0454  0.2893
  120OSM    O1412567   5.269   0.404   7.062  0.7779 -0.1707  0.0464
  120OSM    O1112568   5.296   0.171   6.965 -0.0795  0.7297 -0.1573
  120OSM    O1212569   5.405   0.255   7.184 -0.3774 -0.8177 -0.4248
  120OSM    C1S12570   5.177   0.106   6.913  0.8036 -0.4367  1.1799
  120OSM    H1S12571   5.091   0.174   6.897  1.0166 -0.7893 -2.1888
  120OSM    H1T12572   5.151   0.023   6.982  0.5980 -0.7461  0.7341
  120OSM     NF12573   5.097  -0.035   6.729 -0.5027 -0.0998  0.6082
  120OSM    HNF12574   5.117  -0.132   6.716  0.4872  0.1822 -0.0781
  120OSM    C2S12575   5.208   0.044   6.776  0.1019 -0.8937 -0.5826
  120OSM    H2S12576   5.211   0.141   6.721  0.0446 -0.0875  0.7758
  120OSM    C3S12577   5.351  -0.017   6.764  0.1237  0.0653 -0.5970
  120OSM    H3S12578   5.374  -0.087   6.848  2.1426  2.1162  0.6891
  120OSM     O312579   5.450   0.080   6.782 -0.0721 -0.2078  0.0650
  120OSM    HO312580   5.424   0.129   6.861 -0.7745 -0.1892 -0.1759
  120OSM    C4S12581   5.358  -0.085   6.626  0.0996 -0.6782 -0.2163
  120OSM    H4S12582   5.340  -0.193   6.626 -2.4209 -0.3259  0.5662
  120OSM    C5S12583   5.378  -0.020   6.513  0.5130  0.1628  0.1091
  120OSM    H5S12584   5.406   0.086   6.516 -0.0664  0.3089  0.6082
  120OSM    C6S12585   5.372  -0.095   6.381 -0.0401  0.2912 -0.4572
  120OSM    H6S12586   5.327  -0.194   6.403 -1.3571  1.1588  0.9170
  120OSM    H6T12587   5.473  -0.098   6.335  0.2639 -2.3472  0.2139
  120OSM    C7S12588   5.279  -0.008   6.291 -0.7328 -0.3539  0.3162
  120OSM    H7S12589   5.291   0.100   6.318  3.9091 -0.6290  0.0464
  120OSM    H7T12590   5.171  -0.029   6.306 -0.5574 -2.1149 -0.6879
  120OSM    C8S12591   5.309  -0.020   6.137 -0.2770  0.0159  0.2914
  120OSM    H8S12592   5.386  -0.098   6.122  0.5255  0.9583 -0.6740
  120OSM    H8T12593   5.365   0.074   6.116  0.5382 -0.3628  0.7407
  120OSM    C9S12594   5.181  -0.051   6.063 -0.4871  0.4265  0.0558
  120OSM    H9S12595   5.101   0.019   6.097 -0.4598  0.2829  0.4252
  120OSM    H9T12596   5.159  -0.157   6.089  1.2824  0.0973  0.3452
  120OSM   C10S12597   5.199  -0.037   5.914  0.1513 -0.1697  0.0724
  120OSM   H10S12598   5.270  -0.114   5.877 -1.9812 -1.1802 -2.2226
  120OSM   H10T12599   5.249   0.061   5.897  1.9426 -1.0554 -0.0022
  120OSM   C11S12600   5.071  -0.030   5.834  0.2678 -0.1264  0.3866
  120OSM   H11S12601   5.007   0.050   5.876  0.1994 -0.0153  0.0735
  120OSM   H11T12602   5.027  -0.130   5.851 -0.6063 -0.0823 -1.3805
  120OSM   C12S12603   5.087  -0.008   5.684  0.5492 -0.3126  0.4033
  120OSM   H12S12604   5.173  -0.068   5.645  1.2758  1.6994 -1.2598
  120OSM   H12T12605   5.117   0.097   5.667 -0.4473 -0.1303 -0.2666
  120OSM   C13S12606   4.960  -0.046   5.601 -0.6628 -0.2901 -0.0367
  120OSM   H13S12607   4.878   0.028   5.609 -2.7840 -2.4048 -0.9380
  120OSM   H13T12608   4.933  -0.137   5.658  0.9286 -0.3198  0.7055
  120OSM   C14S12609   4.970  -0.078   5.451  0.4147 -0.4090  0.3958
  120OSM   H14S12610   4.883  -0.137   5.415  0.6908 -0.9291  0.5696
  120OSM   H14T12611   5.067  -0.132   5.444 -0.6547 -2.5304  0.9934
  120OSM   C15S12612   4.987   0.051   5.376 -0.5883  0.2337  0.2290
  120OSM   H15S12613   5.061   0.113   5.431  0.3956 -0.7289  0.0428
  120OSM   H15T12614   4.889   0.101   5.364 -0.8856  0.4141  2.8446
  120OSM   C16S12615   5.039   0.019   5.229 -0.2430  0.5389  0.3386
  120OSM   H16S12616   5.137  -0.032   5.242 -0.3067  0.2941 -0.0958
  120OSM   H16T12617   5.059   0.115   5.177 -1.5453  0.1322 -0.9991
  120OSM   C17S12618   4.960  -0.070   5.137 -0.1444  0.6813 -0.4100
  120OSM   H17S12619   4.874  -0.003   5.113 -1.1017  0.6687  2.6194
  120OSM   H17T12620   4.927  -0.168   5.178 -3.8230  1.5800 -0.9014
  120OSM   C18S12621   5.044  -0.095   5.018 -0.6228  0.3497  0.5928
  120OSM   H18S12622   5.001  -0.177   4.957  0.8734 -0.7502  0.9512
  120OSM   H18T12623   5.150  -0.124   5.035 -0.8100  0.3043  1.7367
  120OSM   H18U12624   5.046  -0.009   4.947 -2.3735  0.3481  0.5123
  120OSM    C1F12625   4.975   0.000   6.703 -0.3557 -0.3949 -0.1301
  120OSM     OF12626   4.932   0.107   6.728  0.0795 -0.1024  0.0973
  120OSM    C2F12627   4.890  -0.100   6.637  0.3972  0.0160 -0.4283
  120OSM    H2F12628   4.790  -0.060   6.610  0.0581 -1.5461 -1.6425
  120OSM    H2G12629   4.883  -0.193   6.697 -0.0197 -0.5931 -1.3893
  120OSM    C3F12630   4.955  -0.128   6.500 -0.0882 -0.1651 -0.4534
  120OSM    H3F12631   5.057  -0.170   6.510 -0.4657 -1.5488 -1.8628
  120OSM    H3G12632   4.962  -0.032   6.445  0.2415  1.1019  1.7057
  120OSM    C4F12633   4.878  -0.238   6.427 -0.4557  0.4684 -0.2623
  120OSM    H4F12634   4.776  -0.205   6.397 -0.9781 -1.3533 -0.6369
  120OSM    H4G12635   4.867  -0.319   6.503 -1.4237  1.0437  0.2339
  120OSM    C5F12636   4.946  -0.280   6.301  0.3064  0.3810  0.0348
  120OSM    H5F12637   5.012  -0.364   6.332 -3.1859 -2.2696  0.8694
  120OSM    H5G12638   5.003  -0.193   6.262  0.9584 -0.1487 -0.2147
  120OSM    C6F12639   4.849  -0.327   6.192 -0.1699 -0.1828 -0.3974
  120OSM    H6F12640   4.794  -0.241   6.148  1.4888  0.8739 -0.5128
  120OSM    H6G12641   4.776  -0.400   6.232 -0.1930  0.4102  0.6700
  120OSM    C7F12642   4.935  -0.379   6.083  0.4004  0.5624  0.3147
  120OSM    H7F12643   4.997  -0.460   6.126 -0.7154 -1.0276 -0.9359
  120OSM    H7G12644   5.009  -0.302   6.053  1.7507 -0.2338  1.5084
  120OSM    C8F12645   4.867  -0.440   5.964  0.3657  0.0588  0.2443
  120OSM    H8F12646   4.842  -0.354   5.898  1.6551  0.6692  0.5175
  120OSM    H8G12647   4.767  -0.481   5.988  0.8690 -1.0367  0.5106
  120OSM    C9F12648   4.942  -0.542   5.892 -0.2057 -0.2300 -0.4858
  120OSM    H9F12649   4.935  -0.640   5.942 -0.2503 -0.1526 -0.3403
  120OSM   C10F12650   5.029  -0.517   5.790 -0.6296  0.5749  1.0280
  120OSM   H10F12651   5.082  -0.607   5.756 -0.6900  0.4828  1.1757
  120OSM   C11F12652   5.053  -0.383   5.718  0.0773 -0.2658  0.5178
  120OSM   H11F12653   5.146  -0.336   5.758  0.9569  0.4312 -2.1681
  120OSM   H11G12654   4.967  -0.315   5.735 -1.2852 -1.8113 -0.0354
  120OSM   C12F12655   5.069  -0.410   5.569 -0.3270  0.6112 -0.6000
  120OSM   H12F12656   5.155  -0.479   5.556 -1.1729 -0.3833 -1.1010
  120OSM   H12G12657   5.100  -0.315   5.519  0.2709  1.7179  1.7496
  120OSM   C13F12658   4.935  -0.450   5.510 -0.2288  0.0224  0.7893
  120OSM   H13F12659   4.855  -0.379   5.539 -0.6139 -0.8602  1.9427
  120OSM   H13G12660   4.893  -0.546   5.545 -0.3416 -0.9355 -1.7220
  120OSM   C14F12661   4.955  -0.453   5.362  0.1339 -0.3411 -0.2302
  120OSM   H14F12662   5.005  -0.543   5.320  0.8621  0.3222 -0.7986
  120OSM   H14G12663   5.001  -0.359   5.325  2.7445 -1.7312 -0.7910
  120OSM   C15F12664   4.816  -0.451   5.294 -0.2317 -0.1182  0.0025
  120OSM   H15F12665   4.756  -0.366   5.333 -0.3224  0.0187 -0.4308
  120OSM   H15G12666   4.763  -0.542   5.329 -0.6092 -1.2347 -3.1634
  120OSM   C16F12667   4.823  -0.462   5.137 -0.0176 -0.2823  0.0748
  120OSM   H16F12668   4.847  -0.565   5.105 -0.5407 -0.4394  0.1835
  120OSM   H16G12669   4.898  -0.389   5.099 -1.8588  0.3268 -2.7133
  120OSM   C17F12670   4.696  -0.419   5.067 -0.2121 -0.1479  0.5865
  120OSM   H17F12671   4.670  -0.314   5.091  0.6265  0.0539  0.6410
  120OSM   H17G12672   4.608  -0.471   5.110 -1.1525  1.8590  1.1891
  120OSM   C18F12673   4.683  -0.444   4.916  0.9135 -0.3174  0.4247
  120OSM   H18F12674   4.769  -0.389   4.871  0.1609  1.7050  1.3628
  120OSM   H18G12675   4.590  -0.408   4.868  1.8038  2.0716  0.3441
  120OSM   H18H12676   4.709  -0.549   4.891  2.7035  0.4238 -1.1050
  121OSM      N12677   1.342   1.389   6.564  0.7314 -0.1124 -0.3925
  121OSM    C1512678   1.237   1.501   6.568  0.8288  0.5647 -0.2363
  121OSM   H15A12679   1.222   1.537   6.467 -2.2585  0.4973  0.1068
  121OSM   H15B12680   1.275   1.573   6.638 -1.3921  2.2431 -0.6600
  121OSM   H15C12681   1.143   1.461   6.603  0.2055 -1.4530 -3.6678
  121OSM    C1412682   1.334   1.306   6.689 -0.0869 -0.1998  0.4135
  121OSM   H14A12683   1.232   1.277   6.712 -0.4074 -0.3027 -1.0269
  121OSM   H14B12684   1.368   1.358   6.777  1.9356  0.0412 -0.4647
  121OSM   H14C12685   1.396   1.218   6.686  0.1073 -0.0401 -0.9271
  121OSM    C1312686   1.305   1.306   6.451  0.6700 -0.0340  0.0580
  121OSM   H13A12687   1.198   1.293   6.456  0.7106 -0.1430  0.7287
  121OSM   H13B12688   1.371   1.220   6.451  2.4450  1.1886 -2.3167
  121OSM   H13C12689   1.315   1.352   6.354  0.6498 -3.4986 -1.7514
  121OSM    C1212690   1.487   1.434   6.545 -0.8182 -0.2955  0.1300
  121OSM   H12A12691   1.500   1.472   6.445 -0.3882 -1.5541 -0.2968
  121OSM   H12B12692   1.555   1.351   6.542  0.1180  0.4740 -1.2981
  121OSM    C1112693   1.538   1.540   6.651  0.4595  0.4210 -0.2235
  121OSM   H11A12694   1.649   1.544   6.655  0.5831 -1.2662 -1.0216
  121OSM   H11B12695   1.506   1.506   6.752  1.6591 -0.4998 -0.1239
  121OSM      P12696   1.530   1.758   6.508 -0.0861 -0.0056  0.4421
  121OSM    O1312697   1.425   1.863   6.490 -0.0695  0.3244 -0.3958
  121OSM    O1412698   1.667   1.799   6.546 -0.1223 -0.1969  0.0792
  121OSM    O1112699   1.535   1.660   6.389 -0.2606 -0.9522  0.4105
  121OSM    O1212700   1.473   1.670   6.627  0.2826  0.1081 -0.3470
  121OSM    C1S12701   1.616   1.683   6.268  0.1798  0.2250 -0.2635
  121OSM    H1S12702   1.722   1.670   6.298 -0.2984 -0.8371  1.0653
  121OSM    H1T12703   1.591   1.781   6.221  0.4202 -0.0299 -0.9190
  121OSM     NF12704   1.676   1.572   6.054 -0.0198 -0.0155 -0.2111
  121OSM    HNF12705   1.680   1.643   5.984  0.2653  2.1127  1.8325
  121OSM    C2S12706   1.573   1.583   6.158  0.9018  0.3836 -0.1826
  121OSM    H2S12707   1.576   1.482   6.206 -0.3109  1.3210  2.0241
  121OSM    C3S12708   1.431   1.611   6.111  0.2621  0.3809  0.8676
  121OSM    H3S12709   1.435   1.704   6.051 -0.5174 -1.2175 -1.7841
  121OSM     O312710   1.342   1.648   6.211  0.2706 -0.1590  0.0112
  121OSM    HO312711   1.395   1.705   6.267  1.0251  0.1969 -1.0197
  121OSM    C4S12712   1.378   1.496   6.032  0.3918  0.5208 -0.2490
  121OSM    H4S12713   1.380   1.512   5.924 -0.3093 -1.2724 -0.5540
  121OSM    C5S12714   1.311   1.386   6.079  0.1947 -0.1495 -0.6766
  121OSM    H5S12715   1.302   1.376   6.188 -0.0219 -0.5580 -0.7305
  121OSM    C6S12716   1.235   1.286   5.999 -0.0446  0.0494  0.0115
  121OSM    H6S12717   1.125   1.275   6.010  0.1276 -0.1947  1.8781
  121OSM    H6T12718   1.285   1.190   6.025  0.6059  0.5883  0.8003
  121OSM    C7S12719   1.257   1.296   5.840  0.0236 -0.1135 -0.4774
  121OSM    H7S12720   1.215   1.198   5.809 -0.3723 -0.4411  1.0435
  121OSM    H7T12721   1.367   1.286   5.823 -0.2605 -2.9293 -1.1485
  121OSM    C8S12722   1.184   1.402   5.768 -0.2291 -0.8277 -0.3278
  121OSM    H8S12723   1.218   1.500   5.809 -0.9795 -0.8889  0.4878
  121OSM    H8T12724   1.081   1.397   5.809  0.0730 -1.6975  0.3452
  121OSM    C9S12725   1.194   1.397   5.611 -0.3690  0.4542 -0.0259
  121OSM    H9S12726   1.146   1.301   5.585 -0.0635 -0.7405  3.3511
  121OSM    H9T12727   1.301   1.389   5.584  0.4234  1.6945  2.3693
  121OSM   C10S12728   1.120   1.507   5.542 -0.3051 -0.4686  0.8634
  121OSM   H10S12729   1.170   1.604   5.556  0.0305  0.0182 -2.7826
  121OSM   H10T12730   1.018   1.518   5.586 -1.1915 -0.9259 -0.9715
  121OSM   C11S12731   1.112   1.477   5.397  0.5921  0.2374  0.7385
  121OSM   H11S12732   1.037   1.395   5.388 -1.7968  2.2237  1.4328
  121OSM   H11T12733   1.208   1.448   5.348  0.1726  1.1386 -0.6913
  121OSM   C12S12734   1.034   1.589   5.316  0.4818 -0.4981  0.2951
  121OSM   H12S12735   1.097   1.680   5.301 -0.3201  0.3947  2.0189
  121OSM   H12T12736   0.941   1.611   5.372 -0.2193  3.1022 -1.9398
  121OSM   C13S12737   0.997   1.534   5.177  0.6518  0.3343  0.1209
  121OSM   H13S12738   0.944   1.439   5.200 -0.2955  1.0625  1.0341
  121OSM   H13T12739   1.092   1.508   5.126 -0.0860  2.4131 -2.5807
  121OSM   C14S12740   0.922   1.631   5.093  0.8108 -0.5909  0.7185
  121OSM   H14S12741   0.976   1.724   5.063 -0.6183 -0.4678 -1.8126
  121OSM   H14T12742   0.834   1.655   5.156  0.0094 -0.2798 -0.4846
  121OSM   C15S12743   0.870   1.563   4.966 -0.2629 -0.0683 -0.5946
  121OSM   H15S12744   0.838   1.640   4.892 -0.9096 -0.3992 -0.6688
  121OSM   H15T12745   0.786   1.493   4.985  0.8056 -1.2806 -0.1705
  121OSM   C16S12746   0.965   1.484   4.873 -0.2934 -0.3365  0.3647
  121OSM   H16S12747   0.923   1.459   4.773 -0.0095  0.0183  0.1515
  121OSM   H16T12748   0.978   1.385   4.921  2.2092 -0.2773 -0.0413
  121OSM   C17S12749   1.091   1.561   4.841  0.3858 -0.3345  0.5413
  121OSM   H17S12750   1.159   1.574   4.928  1.9780 -0.4784 -0.6220
  121OSM   H17T12751   1.067   1.665   4.811  2.5118 -0.5173 -2.2664
  121OSM   C18S12752   1.179   1.494   4.735 -1.5921  0.3926 -0.4007
  121OSM   H18S12753   1.270   1.557   4.720  1.9254 -4.2073 -0.7417
  121OSM   H18T12754   1.130   1.482   4.636 -1.0606 -0.7149 -0.5441
  121OSM   H18U12755   1.220   1.403   4.782  0.0156  1.1501 -0.2509
  121OSM    C1F12756   1.795   1.531   6.082 -0.4558 -0.4272  0.1593
  121OSM     OF12757   1.815   1.453   6.176 -0.5021  0.0392  0.1783
  121OSM    C2F12758   1.911   1.594   6.014  0.1463 -0.1772  0.5961
  121OSM    H2F12759   1.985   1.620   6.093 -0.8549  1.5866  0.9899
  121OSM    H2G12760   1.879   1.684   5.959 -0.9637 -0.1354  1.2885
  121OSM    C3F12761   1.981   1.502   5.913 -0.3669  0.3525  0.6526
  121OSM    H3F12762   2.027   1.419   5.971  2.1521  0.8009 -0.5646
  121OSM    H3G12763   2.055   1.561   5.854 -1.6774  0.1592 -1.2873
  121OSM    C4F12764   1.884   1.442   5.802  0.4041 -0.0297 -0.9399
  121OSM    H4F12765   1.828   1.526   5.757  1.9512  1.8241  0.4411
  121OSM    H4G12766   1.806   1.376   5.847 -0.3144  0.9886 -0.6590
  121OSM    C5F12767   1.964   1.370   5.699 -0.2343 -0.6842 -0.6380
  121OSM    H5F12768   2.009   1.284   5.753 -1.7509 -1.0185  0.1495
  121OSM    H5G12769   2.043   1.436   5.657 -1.5860  0.8147 -0.8952
  121OSM    C6F12770   1.883   1.323   5.579 -0.0486  0.1870 -0.9721
  121OSM    H6F12771   1.832   1.405   5.525 -1.2097  0.0267 -0.1555
  121OSM    H6G12772   1.801   1.257   5.617  1.0452  0.0957  1.3976
  121OSM    C7F12773   1.961   1.249   5.469 -0.1289  0.1596 -0.6788
  121OSM    H7F12774   2.031   1.178   5.519  0.3723  1.5302  0.6608
  121OSM    H7G12775   2.039   1.310   5.418  0.4997 -1.2843 -1.4988
  121OSM    C8F12776   1.882   1.169   5.365 -0.3779  0.8250 -0.6766
  121OSM    H8F12777   1.806   1.107   5.416  1.3972 -1.2797 -0.4585
  121OSM    H8G12778   1.958   1.103   5.316 -2.7221 -1.9372 -0.8605
  121OSM    C9F12779   1.819   1.271   5.269 -0.0712 -0.5538 -0.8399
  121OSM    H9F12780   1.757   1.347   5.317 -0.1313 -2.1557  1.7723
  121OSM   C10F12781   1.839   1.276   5.133 -0.3327  0.0964  0.5125
  121OSM   H10F12782   1.785   1.349   5.071 -1.3285 -0.0111  1.2173
  121OSM   C11F12783   1.914   1.168   5.059 -1.0425  0.3431  0.6520
  121OSM   H11F12784   1.881   1.162   4.953  2.8135 -1.5285 -0.5970
  121OSM   H11G12785   1.892   1.063   5.085 -0.8809  0.7065  2.4091
  121OSM   C12F12786   2.070   1.181   5.058  0.2878  0.2464  0.0835
  121OSM   H12F12787   2.110   1.223   5.153  2.3525 -0.1544 -0.5554
  121OSM   H12G12788   2.093   1.249   4.973 -1.7209  1.7566  0.6633
  121OSM   C13F12789   2.138   1.042   5.024 -0.0666  0.4935 -0.4078
  121OSM   H13F12790   2.099   0.962   5.090  3.1037  0.2663  1.4044
  121OSM   H13G12791   2.247   1.051   5.046 -0.3431  1.1749  0.7570
  121OSM   C14F12792   2.126   0.990   4.880  0.0791  0.3651  0.3004
  121OSM   H14F12793   2.178   1.071   4.824  0.6804  0.1423  0.5298
  121OSM   H14G12794   2.021   0.979   4.847  1.0253  0.1492 -3.0076
  121OSM   C15F12795   2.190   0.853   4.850 -0.1954  0.5267 -0.2844
  121OSM   H15F12796   2.145   0.790   4.930  1.6731  1.4958  1.6296
  121OSM   H15G12797   2.298   0.856   4.875  0.1058 -0.0944 -1.4321
  121OSM   C16F12798   2.159   0.818   4.707 -0.0929  0.1113 -0.0298
  121OSM   H16F12799   2.179   0.905   4.641  2.1781  0.9628  1.6263
  121OSM   H16G12800   2.051   0.796   4.697  0.4526 -2.2744 -1.8947
  121OSM   C17F12801   2.227   0.698   4.655  0.7056 -0.0349  0.0128
  121OSM   H17F12802   2.195   0.626   4.733 -3.0044  0.4244 -0.8909
  121OSM   H17G12803   2.336   0.714   4.643  1.0511 -1.9740  0.3242
  121OSM   C18F12804   2.172   0.640   4.523 -0.4387 -0.3227  0.1419
  121OSM   H18F12805   2.238   0.556   4.492 -1.2768 -0.1197 -2.4208
  121OSM   H18G12806   2.174   0.711   4.437 -0.7053  0.6941  0.9606
  121OSM   H18H12807   2.068   0.606   4.539 -0.9624  1.2189  0.2143
  122OSM      N12808   6.331   5.730   7.095 -0.3687  0.1519 -0.3398
  122OSM    C1512809   6.267   5.645   7.202 -0.3421 -0.3099  0.2949
  122OSM   H15A12810   6.218   5.696   7.284  0.3479  0.7852  0.0451
  122OSM   H15B12811   6.337   5.577   7.248 -2.2349 -1.8237  1.1018
  122OSM   H15C12812   6.185   5.586   7.164 -1.0858 -0.8315  2.5551
  122OSM    C1412813   6.453   5.790   7.147 -0.0205  0.7726 -0.4286
  122OSM   H14A12814   6.448   5.813   7.253  0.5220  2.8626 -0.8118
  122OSM   H14B12815   6.478   5.880   7.093 -0.6205  0.7559 -0.7369
  122OSM   H14C12816   6.539   5.725   7.139  1.3404  2.5613 -1.1931
  122OSM    C1312817   6.374   5.646   6.978 -0.1589  0.0031  0.3549
  122OSM   H13A12818   6.400   5.706   6.893 -1.1266 -2.4288 -1.8070
  122OSM   H13B12819   6.294   5.580   6.949  0.3850 -1.0970  1.2607
  122OSM   H13C12820   6.458   5.583   7.004  0.8462  1.6202  1.1615
  122OSM    C1212821   6.228   5.831   7.044 -0.2920 -0.3996  0.3727
  122OSM   H12A12822   6.212   5.889   7.133  2.0793  0.7881  0.1075
  122OSM   H12B12823   6.137   5.779   7.016 -0.8755  0.6257  0.3092
  122OSM    C1112824   6.270   5.935   6.932  0.2580  0.5307  0.2151
  122OSM   H11A12825   6.181   5.983   6.887  0.2973  1.1341  0.7666
  122OSM   H11B12826   6.327   5.886   6.849 -0.6235 -2.4155  1.2083
  122OSM      P12827   6.319   6.167   7.062 -0.0906 -0.1386 -0.0528
  122OSM    O1312828   6.231   6.136   7.172 -0.1554  0.0481 -0.5352
  122OSM    O1412829   6.443   6.238   7.101 -0.9711 -0.0156 -0.3716
  122OSM    O1112830   6.243   6.250   6.960 -0.5249 -0.0448  0.1448
  122OSM    O1212831   6.355   6.031   6.992 -0.7052 -0.1305  0.1481
  122OSM    C1S12832   6.308   6.313   6.845  0.0079  0.3644 -0.5555
  122OSM    H1S12833   6.416   6.294   6.829  0.0975  1.1010 -0.8816
  122OSM    H1T12834   6.287   6.422   6.843 -0.9906  0.1809 -0.7878
  122OSM     NF12835   6.314   6.307   6.597 -0.2916  0.4376  0.7806
  122OSM    HNF12836   6.264   6.376   6.544  1.4275  1.1645  0.0337
  122OSM    C2S12837   6.245   6.264   6.709 -0.5275  0.1120  0.2984
  122OSM    H2S12838   6.255   6.154   6.703 -0.7911  0.1277 -0.8122
  122OSM    C3S12839   6.092   6.301   6.711  0.1227 -0.2105 -0.7199
  122OSM    H3S12840   6.077   6.409   6.728 -0.4532 -0.5733  1.3809
  122OSM     O312841   6.026   6.243   6.829 -0.3262  0.0647 -0.3645
  122OSM    HO312842   6.101   6.234   6.889  1.6941  1.9111 -2.3859
  122OSM    C4S12843   6.022   6.261   6.581  0.6708 -0.1322 -0.6091
  122OSM    H4S12844   6.032   6.339   6.504 -1.0832  1.4894  0.6861
  122OSM    C5S12845   5.931   6.162   6.557  0.2373  0.1253  0.1951
  122OSM    H5S12846   5.906   6.097   6.642  1.0147 -0.7198 -0.2139
  122OSM    C6S12847   5.865   6.130   6.427  0.1139  0.4504 -0.0779
  122OSM    H6S12848   5.765   6.177   6.428 -0.3277 -0.4590  0.0412
  122OSM    H6T12849   5.858   6.019   6.417  0.5362  0.2445  1.5941
  122OSM    C7S12850   5.927   6.190   6.304 -0.1290 -0.5728  0.1053
  122OSM    H7S12851   6.035   6.172   6.326 -0.4588 -0.0894  2.3902
  122OSM    H7T12852   5.906   6.298   6.291 -1.6217 -0.9310 -0.5643
  122OSM    C8S12853   5.889   6.118   6.171 -0.0629  0.2191  0.2503
  122OSM    H8S12854   5.779   6.120   6.156  0.1706  0.3912 -1.8195
  122OSM    H8T12855   5.922   6.012   6.175 -0.3826  0.1308  0.5483
  122OSM    C9S12856   5.933   6.185   6.043  0.5168 -0.0555 -0.1643
  122OSM    H9S12857   6.040   6.159   6.029  0.8122 -0.0999  1.8099
  122OSM    H9T12858   5.915   6.293   6.060  0.5186  0.2152 -1.7227
  122OSM   C10S12859   5.862   6.143   5.909  0.5580 -0.1746 -0.2240
  122OSM   H10S12860   5.753   6.130   5.928  0.9187  0.0634  2.2820
  122OSM   H10T12861   5.909   6.046   5.884 -1.0601 -1.3705  1.1698
  122OSM   C11S12862   5.874   6.257   5.803  0.2030  0.6880  0.5923
  122OSM   H11S12863   5.985   6.261   5.789  0.3190  0.1483  1.3039
  122OSM   H11T12864   5.821   6.348   5.838  1.1727  1.3692  0.3560
  122OSM   C12S12865   5.823   6.208   5.667  0.4325  0.3955 -0.1462
  122OSM   H12S12866   5.713   6.197   5.678  0.2607 -0.0359 -1.9715
  122OSM   H12T12867   5.871   6.109   5.652 -1.5945 -0.3192 -2.6134
  122OSM   C13S12868   5.836   6.306   5.556  0.8393 -0.6679  0.1938
  122OSM   H13S12869   5.761   6.388   5.565  0.5595 -0.9466  0.4072
  122OSM   H13T12870   5.819   6.265   5.454  5.4414  2.9890 -2.4748
  122OSM   C14S12871   5.981   6.365   5.542  0.0598 -0.2584 -0.2079
  122OSM   H14S12872   6.058   6.288   5.560 -0.0613  0.1941  2.7460
  122OSM   H14T12873   5.995   6.451   5.612 -3.0935 -0.7189  1.1691
  122OSM   C15S12874   5.995   6.426   5.403  0.0204  0.5677  0.2198
  122OSM   H15S12875   5.922   6.509   5.395 -1.0389  0.0795  3.2393
  122OSM   H15T12876   5.974   6.342   5.334 -1.3602  1.0444  0.0389
  122OSM   C16S12877   6.139   6.475   5.364  0.0205 -0.4433  0.0184
  122OSM   H16S12878   6.206   6.389   5.388 -1.2389 -1.3161  0.5121
  122OSM   H16T12879   6.168   6.555   5.436  2.3107 -1.1581 -0.0143
  122OSM   C17S12880   6.156   6.520   5.218 -0.3504 -0.2137  0.1043
  122OSM   H17S12881   6.056   6.553   5.182  0.3221 -0.1524 -1.8190
  122OSM   H17T12882   6.173   6.423   5.167 -3.2269 -0.6888 -0.1105
  122OSM   C18S12883   6.260   6.631   5.201  0.5630 -0.1852  0.2993
  122OSM   H18S12884   6.263   6.661   5.093 -0.9712 -0.6798  0.0946
  122OSM   H18T12885   6.357   6.586   5.230 -0.0199  0.1682  3.0183
  122OSM   H18U12886   6.234   6.724   5.256  3.1054  1.0201 -0.4025
  122OSM    C1F12887   6.441   6.275   6.572  0.1752  0.5167 -0.3684
  122OSM     OF12888   6.492   6.181   6.638  0.0801 -0.0888  0.8155
  122OSM    C2F12889   6.512   6.360   6.481  0.0397 -0.2475  0.4072
  122OSM    H2F12890   6.607   6.398   6.524 -0.8410  1.8567  0.6014
  122OSM    H2G12891   6.447   6.449   6.468  2.9113  1.7694 -1.2285
  122OSM    C3F12892   6.522   6.289   6.349 -0.0115  0.0318  0.4846
  122OSM    H3F12893   6.436   6.225   6.318 -0.5573  0.7270  0.5334
  122OSM    H3G12894   6.607   6.218   6.356  0.6348  0.6898 -0.5736
  122OSM    C4F12895   6.549   6.397   6.240 -0.0725  0.5439 -0.4258
  122OSM    H4F12896   6.627   6.474   6.255  0.1312  1.1557 -3.9257
  122OSM    H4G12897   6.451   6.448   6.229 -0.9088  0.2929  3.8363
  122OSM    C5F12898   6.563   6.324   6.100  0.1703  0.7035 -0.1921
  122OSM    H5F12899   6.467   6.278   6.068  0.2816 -0.1370  0.6237
  122OSM    H5G12900   6.624   6.233   6.115 -2.2790 -0.9316  0.5413
  122OSM    C6F12901   6.617   6.415   5.995  0.0289  0.6085  0.2221
  122OSM    H6F12902   6.716   6.455   6.028  0.3507  0.6269 -0.7361
  122OSM    H6G12903   6.546   6.499   5.986  0.1818  0.6730 -0.4430
  122OSM    C7F12904   6.650   6.355   5.864 -0.0184  0.4116  0.1942
  122OSM    H7F12905   6.556   6.331   5.811 -0.4621  0.6399  0.8673
  122OSM    H7G12906   6.711   6.265   5.885 -0.4219  0.3776  1.2619
  122OSM    C8F12907   6.734   6.458   5.777 -0.1456  0.1636  0.3538
  122OSM    H8F12908   6.667   6.546   5.775 -0.8546 -0.3686  0.4989
  122OSM    H8G12909   6.760   6.409   5.681  1.0673 -0.0467  0.7609
  122OSM    C9F12910   6.866   6.493   5.840 -0.3686  0.5973 -0.0156
  122OSM    H9F12911   6.933   6.415   5.879 -0.9394 -0.5611 -1.2668
  122OSM   C10F12912   6.910   6.621   5.842  0.1311 -0.5049 -0.2484
  122OSM   H10F12913   7.009   6.645   5.884  0.9439 -1.7436 -1.3716
  122OSM   C11F12914   6.841   6.745   5.786 -0.1337 -0.3884  0.4330
  122OSM   H11F12915   6.822   6.827   5.860  0.4852 -0.1215  0.2977
  122OSM   H11G12916   6.743   6.722   5.739  0.4075 -0.3369 -0.7359
  122OSM   C12F12917   6.928   6.798   5.666  0.5228 -0.5656  0.4162
  122OSM   H12F12918   6.933   6.721   5.586  1.2988  0.2759 -0.3798
  122OSM   H12G12919   7.035   6.810   5.697 -0.0364  2.0390  1.6029
  122OSM   C13F12920   6.893   6.934   5.599 -0.3744  0.4088 -0.5003
  122OSM   H13F12921   6.903   7.013   5.676 -3.0512  0.8651 -0.5301
  122OSM   H13G12922   6.783   6.936   5.585 -0.3398 -1.6360 -1.4402
  122OSM   C14F12923   6.971   6.953   5.475 -0.4637 -0.9303 -0.5555
  122OSM   H14F12924   6.957   6.864   5.411 -1.4374 -1.0658 -0.1641
  122OSM   H14G12925   7.078   6.964   5.505 -0.5059  2.5373 -1.1757
  122OSM   C15F12926   6.944   7.084   5.407 -1.1923 -0.3499  0.1361
  122OSM   H15F12927   6.965   7.167   5.479 -1.5526 -0.5441  0.4639
  122OSM   H15G12928   6.839   7.084   5.372 -1.5325 -4.2984  0.7081
  122OSM   C16F12929   7.035   7.094   5.288  0.5118 -0.3559 -0.4464
  122OSM   H16F12930   7.016   7.003   5.226 -1.4559 -1.2761  1.3963
  122OSM   H16G12931   7.144   7.093   5.312  0.4980  1.4557 -0.1913
  122OSM   C17F12932   7.007   7.217   5.202 -0.3688 -0.0773  0.0845
  122OSM   H17F12933   7.031   7.311   5.257  0.4612 -0.5196  0.5046
  122OSM   H17G12934   6.899   7.218   5.178 -0.5297  3.5056  0.5290
  122OSM   C18F12935   7.095   7.227   5.072 -0.1533  0.7499 -0.4032
  122OSM   H18F12936   7.205   7.240   5.086  0.0889 -1.6668  0.2570
  122OSM   H18G12937   7.060   7.302   4.998  1.4304  2.9564  0.9603
  122OSM   H18H12938   7.071   7.132   5.021  0.8171 -0.2262  0.8775
  123OSM      N12939   3.813   5.838   2.289  0.7587  0.1842 -0.3962
  123OSM    C1512940   3.952   5.850   2.354  0.2242 -0.8491 -0.0494
  123OSM   H15A12941   4.006   5.915   2.287  0.9622 -0.6444  0.7272
  123OSM   H15B12942   4.004   5.755   2.358 -0.8060 -1.5327 -1.8196
  123OSM   H15C12943   3.960   5.900   2.449  0.4938 -1.4926  0.2697
  123OSM    C1412944   3.777   5.974   2.234 -0.5523  0.3554  0.3670
  123OSM   H14A12945   3.855   6.021   2.176 -1.4595  2.1317  0.5128
  123OSM   H14B12946   3.757   6.024   2.327 -0.3765  0.0529  0.5694
  123OSM   H14C12947   3.683   5.980   2.181 -0.2180 -0.3410 -0.3225
  123OSM    C1312948   3.834   5.741   2.178  0.4685  0.0166  0.6532
  123OSM   H13A12949   3.888   5.777   2.092 -1.7150 -0.1575 -0.8770
  123OSM   H13B12950   3.741   5.723   2.126  1.2995  2.2923 -1.8769
  123OSM   H13C12951   3.875   5.648   2.213 -0.9398  0.1470  2.8296
  123OSM    C1212952   3.720   5.775   2.389 -0.1283  0.9467  0.0138
  123OSM   H12A12953   3.726   5.837   2.478 -3.1060  2.6564 -0.8409
  123OSM   H12B12954   3.752   5.681   2.432  0.1766  0.8853 -0.3475
  123OSM    C1112955   3.570   5.766   2.353 -0.2792 -0.4061 -0.4777
  123OSM   H11A12956   3.512   5.711   2.430 -1.4654  0.6714 -0.5710
  123OSM   H11B12957   3.572   5.702   2.262 -1.5736 -1.2378  0.0407
  123OSM      P12958   3.492   6.000   2.429 -0.0792  0.0282  0.1980
  123OSM    O1312959   3.465   6.125   2.354  0.1130 -0.2404 -0.0912
  123OSM    O1412960   3.388   5.947   2.511  0.6675  0.4056 -0.3965
  123OSM    O1112961   3.625   6.013   2.513  0.0981 -0.0408  0.1331
  123OSM    O1212962   3.522   5.894   2.320  0.3098 -0.0584  0.4860
  123OSM    C1S12963   3.661   6.146   2.562 -0.1759 -0.1936 -0.2649
  123OSM    H1S12964   3.586   6.226   2.545 -0.7998 -0.3690  1.5176
  123OSM    H1T12965   3.759   6.171   2.516  0.0566 -2.4795 -1.1121
  123OSM     NF12966   3.703   6.272   2.775  0.0831  0.3999 -0.0394
  123OSM    HNF12967   3.785   6.325   2.755 -0.1409 -0.4238 -4.1304
  123OSM    C2S12968   3.697   6.137   2.711 -0.1887  0.4900  0.7727
  123OSM    H2S12969   3.611   6.092   2.767 -0.1424 -2.0854 -1.0157
  123OSM    C3S12970   3.818   6.040   2.732 -0.2691 -0.0871 -0.2855
  123OSM    H3S12971   3.901   6.088   2.675  0.4272 -0.4057  0.4484
  123OSM     O312972   3.814   5.901   2.693 -0.4522  0.1324  0.1732
  123OSM    HO312973   3.739   5.897   2.632 -1.2946 -3.2127  1.1972
  123OSM    C4S12974   3.857   6.043   2.875  0.5610  0.3498 -0.8374
  123OSM    H4S12975   3.935   6.114   2.905  0.2843  0.4312 -0.3058
  123OSM    C5S12976   3.793   5.978   2.976 -0.5115 -0.4959  0.3924
  123OSM    H5S12977   3.697   5.927   2.957 -0.1776 -0.9131 -0.2010
  123OSM    C6S12978   3.843   5.996   3.122  0.2024 -0.8859 -0.0971
  123OSM    H6S12979   3.861   5.891   3.154 -0.1603 -1.5499 -1.9473
  123OSM    H6T12980   3.755   6.032   3.179  1.0934  2.8617 -0.8296
  123OSM    C7S12981   3.971   6.082   3.156  0.1930 -0.2397  0.6784
  123OSM    H7S12982   3.962   6.185   3.115  0.1805  0.2957  1.9821
  123OSM    H7T12983   4.060   6.035   3.108  0.5864  1.8253 -0.7929
  123OSM    C8S12984   3.985   6.104   3.304 -0.7336  0.4570 -0.5499
  123OSM    H8S12985   4.024   6.006   3.340 -1.5060 -0.9812 -3.2771
  123OSM    H8T12986   3.886   6.134   3.343 -0.6120 -0.3222  0.3913
  123OSM    C9S12987   4.090   6.214   3.336 -0.3049  0.0373  0.0255
  123OSM    H9S12988   4.086   6.295   3.260  0.7487  0.7819  0.7294
  123OSM    H9T12989   4.185   6.170   3.299 -1.6895 -0.2953 -3.5357
  123OSM   C10S12990   4.080   6.272   3.478  0.7303 -0.5313 -0.5618
  123OSM   H10S12991   3.984   6.326   3.497  1.7458 -0.0894  4.5801
  123OSM   H10T12992   4.146   6.362   3.483 -2.6562  2.1495 -0.4649
  123OSM   C11S12993   4.104   6.182   3.598  0.2354  0.4995  0.1872
  123OSM   H11S12994   4.212   6.162   3.609 -0.1698 -1.0787  1.6035
  123OSM   H11T12995   4.067   6.079   3.580 -1.1236  1.1529 -0.9944
  123OSM   C12S12996   4.047   6.247   3.729 -0.2723  0.3990  0.4494
  123OSM   H12S12997   3.936   6.251   3.717 -0.2421  1.7586  0.4401
  123OSM   H12T12998   4.097   6.344   3.751 -0.0419  0.1812  0.8887
  123OSM   C13S12999   4.092   6.162   3.849 -0.3743 -0.9838  0.2905
  123OSM   H13S13000   4.193   6.121   3.826  0.1177 -1.3073  2.6891
  123OSM   H13T13001   4.016   6.083   3.868  0.0115 -1.9299 -1.8816
  123OSM   C14S13002   4.112   6.252   3.973 -0.4717 -0.4449 -0.4167
  123OSM   H14S13003   4.012   6.298   3.987  0.3012  1.2751 -0.3691
  123OSM   H14T13004   4.180   6.339   3.960 -0.9239 -0.0170  0.0307
  123OSM   C15S13005   4.167   6.166   4.092 -0.2667  0.2720 -0.1149
  123OSM   H15S13006   4.237   6.091   4.051  0.8432 -0.0519  2.2116
  123OSM   H15T13007   4.087   6.120   4.153 -1.2571 -0.4036 -1.8652
  123OSM   C16S13008   4.267   6.249   4.176 -0.0346  0.9595 -0.1933
  123OSM   H16S13009   4.363   6.259   4.121  1.4944 -1.7806  1.7370
  123OSM   H16T13010   4.282   6.186   4.266  0.6110  0.8720 -0.3574
  123OSM   C17S13011   4.221   6.386   4.226 -0.3030 -0.1475  0.7200
  123OSM   H17S13012   4.214   6.470   4.154 -1.9843  0.2389  1.2969
  123OSM   H17T13013   4.298   6.408   4.304 -2.0826  0.6100  2.3400
  123OSM   C18S13014   4.083   6.368   4.296  0.2272  0.7715 -0.5059
  123OSM   H18S13015   4.055   6.443   4.372 -1.3473 -0.6621  0.3807
  123OSM   H18T13016   4.080   6.269   4.346  1.9361  0.4064 -1.0447
  123OSM   H18U13017   4.003   6.365   4.219 -1.8272 -0.9644  1.5821
  123OSM    C1F13018   3.598   6.346   2.813  0.8026  0.4263 -0.7322
  123OSM     OF13019   3.486   6.296   2.808 -0.0802  0.2399  0.3181
  123OSM    C2F13020   3.625   6.480   2.867 -0.2438  0.2195 -0.1973
  123OSM    H2F13021   3.598   6.548   2.784 -1.0278 -0.8862 -0.8847
  123OSM    H2G13022   3.735   6.488   2.882 -0.2061  0.2141 -0.4772
  123OSM    C3F13023   3.575   6.505   3.008 -0.1753  0.2289 -0.6626
  123OSM    H3F13024   3.464   6.506   2.998  0.0371  1.1092 -4.4847
  123OSM    H3G13025   3.605   6.611   3.020  0.2788  0.4584 -3.2484
  123OSM    C4F13026   3.623   6.414   3.122 -0.6930 -0.1707 -0.1183
  123OSM    H4F13027   3.733   6.405   3.134 -0.6732 -1.4884 -1.0981
  123OSM    H4G13028   3.593   6.314   3.085 -2.0351 -0.3502  1.3380
  123OSM    C5F13029   3.551   6.437   3.256 -0.0288  0.9834  0.3889
  123OSM    H5F13030   3.450   6.390   3.260  0.1016  0.3530 -2.2255
  123OSM    H5G13031   3.535   6.546   3.269 -2.0458  0.7522  0.1205
  123OSM    C6F13032   3.644   6.374   3.374  0.5199  0.9771 -0.0822
  123OSM    H6F13033   3.742   6.421   3.353  0.1809  3.0082  2.3865
  123OSM    H6G13034   3.654   6.264   3.367  0.3601  1.0665 -2.2722
  123OSM    C7F13035   3.600   6.427   3.510 -0.1445  0.3883  0.8253
  123OSM    H7F13036   3.512   6.367   3.542 -0.2790 -0.0307 -0.3088
  123OSM    H7G13037   3.573   6.535   3.504  0.1986  0.5494  1.8680
  123OSM    C8F13038   3.709   6.410   3.611 -0.0076  0.4158  0.7884
  123OSM    H8F13039   3.777   6.497   3.605  1.0813 -0.4297  0.5922
  123OSM    H8G13040   3.771   6.322   3.582 -1.7758 -1.2258  1.6868
  123OSM    C9F13041   3.649   6.403   3.742  0.0117 -0.5340  0.2200
  123OSM    H9F13042   3.570   6.326   3.746  0.2041 -0.6982  1.0145
  123OSM   C10F13043   3.664   6.483   3.852 -0.3024  0.6955  0.2939
  123OSM   H10F13044   3.605   6.452   3.940 -0.5621  0.3615  0.0015
  123OSM   C11F13045   3.752   6.599   3.866 -0.2063  0.1499  0.2603
  123OSM   H11F13046   3.746   6.663   3.775  1.6529 -0.2953 -0.2163
  123OSM   H11G13047   3.859   6.571   3.862 -0.1239  0.5595 -0.5314
  123OSM   C12F13048   3.712   6.688   3.989 -0.8449  0.4801  0.8872
  123OSM   H12F13049   3.602   6.694   3.980 -0.6971  1.3049 -0.6480
  123OSM   H12G13050   3.763   6.785   3.974  1.3843 -0.7461  0.0088
  123OSM   C13F13051   3.751   6.636   4.126 -0.2263  0.1246 -0.3024
  123OSM   H13F13052   3.763   6.526   4.128 -0.8578  0.0435  2.7222
  123OSM   H13G13053   3.681   6.650   4.211 -1.1993 -2.0213 -0.6879
  123OSM   C14F13054   3.891   6.681   4.184  0.2923 -0.1814 -0.6939
  123OSM   H14F13055   3.968   6.672   4.104 -0.4113  0.1442 -1.4183
  123OSM   H14G13056   3.919   6.618   4.271  0.2756  0.7580 -0.0029
  123OSM   C15F13057   3.883   6.830   4.232  0.7547  0.7581  0.4494
  123OSM   H15F13058   3.786   6.842   4.285 -2.1361  0.4928 -4.1911
  123OSM   H15G13059   3.861   6.890   4.141 -2.2409 -2.0020 -0.8711
  123OSM   C16F13060   4.006   6.882   4.298  0.1584 -0.4188  0.0291
  123OSM   H16F13061   4.083   6.885   4.218 -0.8120  0.8766 -0.8837
  123OSM   H16G13062   4.026   6.810   4.381  1.1006 -1.9936 -1.4976
  123OSM   C17F13063   3.993   7.029   4.344 -0.9000  0.2088  0.4528
  123OSM   H17F13064   3.985   7.079   4.245  0.6190  0.6095  0.5066
  123OSM   H17G13065   4.092   7.052   4.388 -0.5977  1.2573 -0.6939
  123OSM   C18F13066   3.875   7.057   4.430  0.4595  0.0119 -0.5371
  123OSM   H18F13067   3.781   7.047   4.372 -0.3807  1.4903  0.5031
  123OSM   H18G13068   3.884   7.156   4.480  2.7426 -0.0025 -0.8163
  123OSM   H18H13069   3.863   6.990   4.518 -0.3062  1.3900  0.4524
  124OSM      N13070   4.343   0.453   1.909  0.1003 -0.4685 -0.0934
  124OSM    C1513071   4.251   0.345   1.869 -0.0285 -0.7179  0.2278
  124OSM   H15A13072   4.294   0.249   1.895  1.9274  0.1054  0.2167
  124OSM   H15B13073   4.241   0.345   1.762 -1.1377  1.3940  0.2649
  124OSM   H15C13074   4.157   0.356   1.923  0.2137  1.6138  0.2991
  124OSM    C1413075   4.481   0.416   1.868 -0.3054  0.4773 -0.4111
  124OSM   H14A13076   4.560   0.488   1.883  0.9973 -0.8531 -0.5776
  124OSM   H14B13077   4.479   0.375   1.768 -0.4335  0.3633 -0.3622
  124OSM   H14C13078   4.516   0.333   1.928 -1.6682  0.0207 -0.2115
  124OSM    C1313079   4.304   0.573   1.834 -0.3473 -0.0895  0.2200
  124OSM   H13A13080   4.198   0.594   1.841 -0.1498  0.5583  1.8402
  124OSM   H13B13081   4.336   0.555   1.733  1.8850 -0.4028  0.9229
  124OSM   H13C13082   4.360   0.658   1.868  0.7319 -0.2955 -1.0127
  124OSM    C1213083   4.333   0.484   2.062 -0.2381  0.2689 -0.1094
  124OSM   H12A13084   4.404   0.564   2.077 -1.4413  1.2337  0.6323
  124OSM   H12B13085   4.369   0.395   2.112 -1.0828 -1.1192 -1.8240
  124OSM    C1113086   4.194   0.543   2.106  0.1842 -1.0953 -0.4597
  124OSM   H11A13087   4.191   0.534   2.217  0.3615 -0.0935 -0.3628
  124OSM   H11B13088   4.103   0.487   2.075  0.3928 -2.8702  1.8351
  124OSM      P13089   4.265   0.787   2.149  0.1188 -0.0237  0.0906
  124OSM    O1313090   4.394   0.798   2.067  0.7381  0.5937  0.2376
  124OSM    O1413091   4.177   0.905   2.171  0.3263  0.8199 -0.2107
  124OSM    O1113092   4.297   0.731   2.295  0.5283 -0.4539 -0.0497
  124OSM    O1213093   4.176   0.681   2.076  0.3217  0.7385 -0.1590
  124OSM    C1S13094   4.381   0.804   2.383  0.7102  0.4171  0.3675
  124OSM    H1S13095   4.437   0.892   2.346 -0.9145  1.9115  1.2869
  124OSM    H1T13096   4.459   0.736   2.423 -2.6415 -2.6697  2.2253
  124OSM     NF13097   4.391   0.935   2.587 -0.1852 -0.2163  0.3398
  124OSM    HNF13098   4.435   0.893   2.666 -0.4482  0.1305  0.6765
  124OSM    C2S13099   4.306   0.844   2.514  0.3857 -0.6158 -0.0034
  124OSM    H2S13100   4.207   0.885   2.485  0.8879  0.4407 -0.2608
  124OSM    C3S13101   4.256   0.717   2.586  0.0118  0.4623  0.2264
  124OSM    H3S13102   4.336   0.650   2.624 -0.1691 -0.2853 -0.6825
  124OSM     O313103   4.186   0.629   2.506  0.1279  0.2341  0.1017
  124OSM    HO313104   4.215   0.656   2.419 -3.6025  1.4575 -0.9319
  124OSM    C4S13105   4.180   0.754   2.711  0.6807 -0.5073  0.3639
  124OSM    H4S13106   4.248   0.796   2.787  0.5746  0.2591  0.0379
  124OSM    C5S13107   4.044   0.763   2.738 -0.4189  0.0121  0.7288
  124OSM    H5S13108   3.969   0.737   2.662 -1.3459  0.5335  1.4303
  124OSM    C6S13109   3.982   0.826   2.861  0.4500  0.2793 -0.4045
  124OSM    H6S13110   3.898   0.769   2.906  0.4278  0.8792  0.3320
  124OSM    H6T13111   3.949   0.931   2.843 -0.0950  0.6640  2.3411
  124OSM    C7S13112   4.069   0.829   2.990  0.3590 -0.3468  0.0133
  124OSM    H7S13113   4.131   0.922   2.994 -1.6943  1.2376 -2.3276
  124OSM    H7T13114   4.127   0.734   2.987 -1.2417 -1.3229 -1.8325
  124OSM    C8S13115   3.988   0.830   3.120 -0.3396 -0.1557  0.4355
  124OSM    H8S13116   3.958   0.729   3.154 -0.4872 -1.0603 -2.1646
  124OSM    H8T13117   3.903   0.894   3.088  0.2542  1.1485  1.3723
  124OSM    C9S13118   4.053   0.902   3.238 -0.0542  0.0797 -0.4097
  124OSM    H9S13119   4.091   1.004   3.214 -0.9712  0.3597 -0.7380
  124OSM    H9T13120   4.136   0.832   3.257 -0.2379  0.5857  2.8185
  124OSM   C10S13121   3.972   0.915   3.372  0.3138 -0.0205  0.7932
  124OSM   H10S13122   3.919   0.818   3.383  2.2421 -1.0875  0.9744
  124OSM   H10T13123   3.889   0.990   3.374  0.7157  0.4343  0.5800
  124OSM   C11S13124   4.059   0.941   3.494  0.4083  0.4239 -0.3967
  124OSM   H11S13125   4.108   1.040   3.494  2.4075 -0.5155 -0.3709
  124OSM   H11T13126   4.135   0.860   3.494  0.7483  0.7132  0.8052
  124OSM   C12S13127   3.965   0.918   3.624 -0.8328  0.2586  0.4356
  124OSM   H12S13128   3.903   0.827   3.606 -2.8282  1.4220  1.0947
  124OSM   H12T13129   3.888   0.998   3.632 -1.3149 -0.3780  3.6327
  124OSM   C13S13130   4.037   0.925   3.754 -0.1661  0.0401  0.2253
  124OSM   H13S13131   4.096   1.019   3.765 -0.7506  0.5568 -0.8492
  124OSM   H13T13132   4.105   0.838   3.761 -0.3443 -0.6290 -3.9733
  124OSM   C14S13133   3.926   0.940   3.862 -0.2358 -0.2334 -0.3710
  124OSM   H14S13134   3.975   0.899   3.953  0.9706 -1.1188 -1.3661
  124OSM   H14T13135   3.839   0.872   3.846 -1.0580  0.6093  0.3794
  124OSM   C15S13136   3.856   1.076   3.891 -1.3649 -0.4635  0.1833
  124OSM   H15S13137   3.793   1.112   3.807  1.6458  2.0958 -1.1979
  124OSM   H15T13138   3.943   1.145   3.893 -0.9654 -0.9665  0.5080
  124OSM   C16S13139   3.800   1.085   4.031 -0.7791  0.6697 -0.6995
  124OSM   H16S13140   3.881   1.053   4.100  0.7107 -0.8168 -3.0083
  124OSM   H16T13141   3.738   0.993   4.030  2.5452 -1.8258  1.2876
  124OSM   C17S13142   3.729   1.216   4.065 -0.9396  0.7171  0.5176
  124OSM   H17S13143   3.814   1.287   4.055  1.1011 -1.7553 -0.9685
  124OSM   H17T13144   3.707   1.221   4.174 -0.1266  2.5379  0.6412
  124OSM   C18S13145   3.605   1.254   3.984 -0.3918 -0.4144 -0.3191
  124OSM   H18S13146   3.525   1.179   3.999  1.6611 -2.8917 -1.0973
  124OSM   H18T13147   3.630   1.258   3.876 -0.7195  5.0997 -0.4900
  124OSM   H18U13148   3.557   1.350   4.013 -1.4106  0.0367 -3.1992
  124OSM    C1F13149   4.409   1.061   2.551 -0.4977 -0.2304 -0.0304
  124OSM     OF13150   4.345   1.112   2.456 -0.2331  0.2476  0.4409
  124OSM    C2F13151   4.509   1.145   2.633  0.0796  0.6431 -0.2990
  124OSM    H2F13152   4.604   1.089   2.650  0.4142  1.0898 -0.6591
  124OSM    H2G13153   4.459   1.166   2.730 -0.6974  2.2464 -1.0091
  124OSM    C3F13154   4.536   1.275   2.566 -0.6225  0.3373 -0.3927
  124OSM    H3F13155   4.448   1.323   2.519 -2.1691 -2.2123 -0.2314
  124OSM    H3G13156   4.599   1.249   2.478 -0.7417  0.6521 -0.5718
  124OSM    C4F13157   4.614   1.383   2.642  0.2034  1.2073  0.5719
  124OSM    H4F13158   4.624   1.475   2.579  1.8811 -2.0297 -4.5160
  124OSM    H4G13159   4.713   1.333   2.646  0.1261  1.0839  0.9622
  124OSM    C5F13160   4.556   1.397   2.779 -1.1583 -0.1273 -0.3238
  124OSM    H5F13161   4.567   1.304   2.838 -0.1962  0.8316  1.0671
  124OSM    H5G13162   4.446   1.412   2.773 -1.4575 -2.5049 -1.8775
  124OSM    C6F13163   4.619   1.506   2.863  0.1362  0.6617  0.0490
  124OSM    H6F13164   4.608   1.606   2.815 -1.2109  1.3631  1.7357
  124OSM    H6G13165   4.726   1.477   2.856 -0.2390 -0.7004 -0.5030
  124OSM    C7F13166   4.582   1.519   3.010 -0.3441  0.0989  0.1153
  124OSM    H7F13167   4.632   1.603   3.063 -1.4569  1.7271 -1.2629
  124OSM    H7G13168   4.600   1.429   3.071 -1.2298 -1.8123 -2.2888
  124OSM    C8F13169   4.434   1.536   3.037  0.0934 -0.2186 -0.5631
  124OSM    H8F13170   4.411   1.552   3.144 -1.1469 -2.1187 -0.5000
  124OSM    H8G13171   4.376   1.444   3.014 -2.2073  1.2433 -0.9389
  124OSM    C9F13172   4.387   1.657   2.966 -0.1333 -0.1504  0.6102
  124OSM    H9F13173   4.357   1.631   2.863  1.5197  0.7614 -0.1361
  124OSM   C10F13174   4.417   1.784   2.994 -0.0521 -0.5471  0.3813
  124OSM   H10F13175   4.375   1.860   2.926  0.3809  0.4316  1.1857
  124OSM   C11F13176   4.474   1.859   3.114  0.4472  0.2511 -0.2970
  124OSM   H11F13177   4.553   1.931   3.085  1.7478  0.2779  2.8836
  124OSM   H11G13178   4.512   1.798   3.198  1.1411  0.3026 -0.5650
  124OSM   C12F13179   4.355   1.938   3.183  0.1094  0.0326  0.1959
  124OSM   H12F13180   4.298   1.854   3.228 -0.4461  1.3510  2.0251
  124OSM   H12G13181   4.287   1.987   3.109  0.7153 -0.1453 -0.4980
  124OSM   C13F13182   4.415   2.046   3.280  0.6819 -0.2414  0.9421
  124OSM   H13F13183   4.459   2.122   3.212 -2.9078 -0.5174 -2.0669
  124OSM   H13G13184   4.485   2.003   3.355  2.4839  1.2142  0.1755
  124OSM   C14F13185   4.300   2.136   3.335 -0.4866  0.0303 -0.4178
  124OSM   H14F13186   4.239   2.064   3.395 -0.2672 -0.2519 -0.5291
  124OSM   H14G13187   4.241   2.172   3.248 -1.1888  2.3628  0.9330
  124OSM   C15F13188   4.338   2.256   3.413  0.5130 -0.5589  0.2825
  124OSM   H15F13189   4.266   2.339   3.396  2.3842  1.1425  0.1513
  124OSM   H15G13190   4.426   2.315   3.377 -0.8509  1.0384 -0.5895
  124OSM   C16F13191   4.346   2.227   3.566  0.1272  0.0004  0.0492
  124OSM   H16F13192   4.406   2.317   3.589 -0.2631  0.0331  0.9773
  124OSM   H16G13193   4.392   2.128   3.583  0.5590  0.2770  0.4996
  124OSM   C17F13194   4.210   2.227   3.633  0.5710 -0.2342 -0.7052
  124OSM   H17F13195   4.157   2.137   3.594 -2.6273  0.7695  0.9526
  124OSM   H17G13196   4.152   2.316   3.601  0.2207  0.1026  0.7816
  124OSM   C18F13197   4.232   2.221   3.775  0.1871  0.0112 -0.5814
  124OSM   H18F13198   4.317   2.288   3.797  1.7387 -1.8547 -0.5546
  124OSM   H18G13199   4.266   2.120   3.807 -1.7509 -0.0698  1.5289
  124OSM   H18H13200   4.148   2.251   3.841  1.2483  0.7597  0.4691
  125OSM      N13201   5.660   4.338   2.153  0.3866  0.0940 -0.5175
  125OSM    C1513202   5.701   4.194   2.128 -0.0586 -0.2091  0.4151
  125OSM   H15A13203   5.797   4.165   2.167  0.3017  0.9047  0.3892
  125OSM   H15B13204   5.723   4.175   2.024 -0.2249 -0.2042  0.3783
  125OSM   H15C13205   5.622   4.127   2.160 -1.7038  0.8055 -1.3041
  125OSM    C1413206   5.775   4.421   2.103  0.9645  0.3358  0.4527
  125OSM   H14A13207   5.784   4.422   1.995  0.2485 -1.6792  0.3405
  125OSM   H14B13208   5.871   4.374   2.120  1.3332  0.6150 -0.7555
  125OSM   H14C13209   5.774   4.519   2.149  2.0891 -0.6102  2.6678
  125OSM    C1313210   5.541   4.364   2.072  0.6414  0.6714 -0.3574
  125OSM   H13A13211   5.507   4.464   2.096  0.7070  0.3561  1.1224
  125OSM   H13B13212   5.454   4.302   2.090  1.5195 -1.0449 -1.7103
  125OSM   H13C13213   5.550   4.359   1.965  0.8281  1.3632 -0.3800
  125OSM    C1213214   5.640   4.368   2.301 -0.7915 -0.0849  0.3775
  125OSM   H12A13215   5.716   4.313   2.354 -1.4353 -0.6256  0.7577
  125OSM   H12B13216   5.556   4.308   2.332  0.1990 -2.2013 -0.8294
  125OSM    C1113217   5.644   4.514   2.348  0.1814 -0.3307 -0.1116
  125OSM   H11A13218   5.744   4.551   2.315  2.3427 -1.6105  4.1511
  125OSM   H11B13219   5.656   4.518   2.459 -1.4141  1.4337  0.0636
  125OSM      P13220   5.393   4.613   2.364  0.2866  0.1597  0.4988
  125OSM    O1313221   5.354   4.756   2.381 -0.0982 -0.0718  0.3979
  125OSM    O1413222   5.316   4.528   2.274  0.5696 -0.0855  0.6323
  125OSM    O1113223   5.392   4.538   2.502  0.3060 -0.5859  0.2459
  125OSM    O1213224   5.540   4.606   2.309  0.3044  0.2711 -0.0033
  125OSM    C1S13225   5.409   4.616   2.630  0.0963  0.1374  0.1053
  125OSM    H1S13226   5.356   4.714   2.626 -1.3208 -0.5761  0.7479
  125OSM    H1T13227   5.515   4.645   2.643  0.3301 -1.0612  0.9841
  125OSM     NF13228   5.398   4.629   2.859 -0.2221 -0.3812 -0.0100
  125OSM    HNF13229   5.488   4.627   2.902 -0.3926  0.7319  0.4267
  125OSM    C2S13230   5.370   4.536   2.751 -0.2136 -0.1008  0.3098
  125OSM    H2S13231   5.260   4.517   2.749  0.0097 -1.4636 -0.5475
  125OSM    C3S13232   5.441   4.398   2.766 -0.3278  0.4465  0.3024
  125OSM    H3S13233   5.550   4.417   2.776 -0.8625  3.4538  1.6040
  125OSM     O313234   5.433   4.301   2.660 -0.2904 -0.2460 -0.2024
  125OSM    HO313235   5.386   4.343   2.588  1.9687 -0.2652 -1.8027
  125OSM    C4S13236   5.383   4.326   2.889 -0.7162 -0.2056  0.1349
  125OSM    H4S13237   5.273   4.338   2.887 -0.5343  2.0623 -1.6843
  125OSM    C5S13238   5.448   4.268   2.990  0.4163 -0.4098  0.2323
  125OSM    H5S13239   5.558   4.266   2.988  0.4114 -0.6948 -0.9083
  125OSM    C6S13240   5.389   4.206   3.119  0.2716  0.1276  1.0346
  125OSM    H6S13241   5.436   4.107   3.136 -1.8716 -1.2298 -0.3813
  125OSM    H6T13242   5.281   4.184   3.103  1.1708 -4.4890  0.0109
  125OSM    C7S13243   5.423   4.277   3.246  0.2613  0.2291 -0.6505
  125OSM    H7S13244   5.398   4.385   3.234  0.1983  0.1810 -0.9492
  125OSM    H7T13245   5.529   4.275   3.278  0.6308  1.6666 -1.6831
  125OSM    C8S13246   5.346   4.217   3.361 -0.4092  0.0171 -0.1600
  125OSM    H8S13247   5.365   4.108   3.352 -1.2276 -0.0566 -1.2406
  125OSM    H8T13248   5.238   4.240   3.353 -0.1895  2.2870  2.0846
  125OSM    C9S13249   5.396   4.267   3.499 -0.4331  0.2637 -0.5854
  125OSM    H9S13250   5.388   4.376   3.519 -0.1238  0.3051 -0.6773
  125OSM    H9T13251   5.505   4.252   3.508 -0.6638 -2.1465 -1.0235
  125OSM   C10S13252   5.325   4.192   3.618  0.2112 -1.1800  0.5903
  125OSM   H10S13253   5.372   4.094   3.639  1.2654 -0.5668  1.1596
  125OSM   H10T13254   5.215   4.181   3.606  0.1176 -1.6491  1.7593
  125OSM   C11S13255   5.352   4.273   3.749  0.8984  0.1855 -0.0928
  125OSM   H11S13256   5.344   4.380   3.720 -0.7526 -0.8038 -3.9109
  125OSM   H11T13257   5.455   4.257   3.786  0.4720 -1.4016  0.4723
  125OSM   C12S13258   5.245   4.242   3.857  0.1300  0.0859 -0.0620
  125OSM   H12S13259   5.254   4.132   3.869 -2.3062 -0.0416  1.4177
  125OSM   H12T13260   5.141   4.249   3.818  0.0295 -1.7575 -0.2108
  125OSM   C13S13261   5.273   4.328   3.976  0.1424 -0.8333 -0.6691
  125OSM   H13S13262   5.254   4.435   3.952 -1.6766 -1.1057 -0.5912
  125OSM   H13T13263   5.378   4.309   4.006  0.0508  0.2016  0.3684
  125OSM   C14S13264   5.171   4.290   4.086 -0.0324 -0.1800 -0.0649
  125OSM   H14S13265   5.189   4.351   4.178 -1.7994 -0.8687  0.7866
  125OSM   H14T13266   5.174   4.181   4.104  1.4021 -0.0480  0.6724
  125OSM   C15S13267   5.021   4.308   4.062 -0.4661 -0.1404  0.3927
  125OSM   H15S13268   4.976   4.238   3.989  0.9131 -0.1397 -0.4915
  125OSM   H15T13269   5.006   4.409   4.017 -0.6141 -0.2035  0.3004
  125OSM   C16S13270   4.948   4.290   4.195 -0.4958 -0.2636 -0.4117
  125OSM   H16S13271   4.947   4.391   4.242 -4.3280 -0.4288  0.1640
  125OSM   H16T13272   4.984   4.221   4.274  0.0339  0.8319  0.3390
  125OSM   C17S13273   4.800   4.253   4.180  0.5240  0.2385 -0.1187
  125OSM   H17S13274   4.752   4.243   4.279 -0.6063 -1.6095 -0.8066
  125OSM   H17T13275   4.788   4.149   4.141 -0.6006  0.6896 -1.0229
  125OSM   C18S13276   4.716   4.345   4.088 -0.4884 -0.1017 -0.3433
  125OSM   H18S13277   4.713   4.447   4.132  0.9003 -0.4786  0.7086
  125OSM   H18T13278   4.611   4.314   4.074 -0.4255  0.1610 -1.5326
  125OSM   H18U13279   4.757   4.351   3.985 -1.3162 -0.4179 -0.6990
  125OSM    C1F13280   5.310   4.710   2.916  0.1500  0.0824 -0.0180
  125OSM     OF13281   5.198   4.723   2.868 -0.5450  0.1943  0.1078
  125OSM    C2F13282   5.339   4.784   3.043 -0.1118  0.3990 -0.3910
  125OSM    H2F13283   5.409   4.868   3.023  1.6567 -0.5756  1.3391
  125OSM    H2G13284   5.393   4.721   3.116 -3.2482 -0.6527  1.2117
  125OSM    C3F13285   5.214   4.848   3.118 -0.0158 -0.2683  0.0291
  125OSM    H3F13286   5.115   4.796   3.113 -0.9080  1.4532 -1.3073
  125OSM    H3G13287   5.186   4.936   3.056 -0.3566 -1.2630 -1.2991
  125OSM    C4F13288   5.244   4.888   3.264  0.0110  0.2458 -0.0654
  125OSM    H4F13289   5.346   4.931   3.261  0.0342  0.6598  3.0692
  125OSM    H4G13290   5.257   4.799   3.329  2.4116  1.9491  1.9804
  125OSM    C5F13291   5.161   5.001   3.319  0.3757 -0.7902  0.5717
  125OSM    H5F13292   5.055   4.970   3.308  0.1890  0.1135 -0.3632
  125OSM    H5G13293   5.168   5.096   3.260  2.0622  0.2413  2.3020
  125OSM    C6F13294   5.189   5.043   3.468 -0.3968 -0.0271  0.5912
  125OSM    H6F13295   5.293   5.081   3.457 -0.6656  0.1902 -1.7777
  125OSM    H6G13296   5.185   4.956   3.536 -0.9283 -1.3605 -1.0551
  125OSM    C7F13297   5.087   5.151   3.513  0.3612 -0.1941 -0.0400
  125OSM    H7F13298   4.986   5.106   3.509 -0.9274  2.3412  1.5177
  125OSM    H7G13299   5.094   5.227   3.432 -0.8537  0.5019  0.4810
  125OSM    C8F13300   5.103   5.212   3.653  0.5381  0.2818 -0.0381
  125OSM    H8F13301   5.109   5.123   3.719 -1.3616  1.1252  1.3605
  125OSM    H8G13302   5.008   5.259   3.685 -1.0805 -0.8130 -2.8347
  125OSM    C9F13303   5.225   5.306   3.666 -0.1148  1.1777  0.5078
  125OSM    H9F13304   5.241   5.375   3.582  1.2482  0.5524  0.2214
  125OSM   C10F13305   5.323   5.298   3.759  0.1710  0.6790  0.0177
  125OSM   H10F13306   5.413   5.360   3.759  0.4329  0.3493 -1.7660
  125OSM   C11F13307   5.325   5.191   3.868 -0.2773 -0.1127 -0.0689
  125OSM   H11F13308   5.340   5.090   3.823 -2.1189 -1.0526  1.2971
  125OSM   H11G13309   5.230   5.192   3.926 -0.4223 -1.4167 -0.2478
  125OSM   C12F13310   5.441   5.206   3.968 -0.2295  0.0699 -0.5619
  125OSM   H12F13311   5.453   5.312   4.000  0.3244  0.1739 -1.0856
  125OSM   H12G13312   5.533   5.162   3.922 -0.4395 -1.3490  0.3234
  125OSM   C13F13313   5.408   5.128   4.096 -0.5648 -0.3016 -0.6771
  125OSM   H13F13314   5.356   5.041   4.048  1.1333 -1.1803 -1.0026
  125OSM   H13G13315   5.344   5.189   4.162 -1.2870  0.4571 -2.0247
  125OSM   C14F13316   5.529   5.070   4.172  0.4506 -0.0618 -0.9412
  125OSM   H14F13317   5.619   5.063   4.108  1.1204  1.1755 -0.1734
  125OSM   H14G13318   5.496   4.971   4.209 -3.0637  1.4932  0.5988
  125OSM   C15F13319   5.559   5.157   4.291  0.7130  0.4453  0.0189
  125OSM   H15F13320   5.589   5.257   4.253  1.2827 -0.2964 -1.5719
  125OSM   H15G13321   5.653   5.111   4.327 -0.4265 -2.6811 -0.6407
  125OSM   C16F13322   5.462   5.159   4.416  0.5133  0.9004  0.1570
  125OSM   H16F13323   5.433   5.057   4.450  0.9357  1.1844  1.4245
  125OSM   H16G13324   5.369   5.207   4.379  0.3761 -0.5012 -1.4175
  125OSM   C17F13325   5.501   5.239   4.540  0.0050 -0.2026  0.4120
  125OSM   H17F13326   5.569   5.180   4.606 -0.4597 -0.0093  1.0765
  125OSM   H17G13327   5.402   5.248   4.589 -1.9232  0.1061 -3.2740
  125OSM   C18F13328   5.545   5.389   4.509 -0.0497 -0.3808  1.1569
  125OSM   H18F13329   5.563   5.444   4.604  1.0290 -3.2361  2.7314
  125OSM   H18G13330   5.458   5.434   4.456  0.3923 -0.9161 -0.0696
  125OSM   H18H13331   5.636   5.396   4.445 -0.7044  0.3990  0.2802
  126OSM      N13332   3.027   3.359   1.839 -0.1072 -0.3833  0.2707
  126OSM    C1513333   3.116   3.452   1.767 -0.3567  0.4313  0.2500
  126OSM   H15A13334   3.138   3.405   1.673  0.6566 -2.4805  1.8248
  126OSM   H15B13335   3.209   3.476   1.817  1.0679 -1.2024 -1.4833
  126OSM   H15C13336   3.061   3.545   1.758 -2.1368 -0.4764  1.1619
  126OSM    C1413337   2.903   3.349   1.760 -0.0099  0.1600 -0.1519
  126OSM   H14A13338   2.853   3.445   1.763  0.7654  0.5496  2.2977
  126OSM   H14B13339   2.832   3.278   1.802 -0.3375  1.6793  1.9931
  126OSM   H14C13340   2.929   3.319   1.659  0.2653  0.3211 -0.1264
  126OSM    C1313341   3.095   3.225   1.840 -0.3159 -0.2949 -0.3292
  126OSM   H13A13342   3.091   3.183   1.741 -0.6190  1.0729 -0.9296
  126OSM   H13B13343   3.034   3.157   1.897 -1.0217 -0.3054 -1.0855
  126OSM   H13C13344   3.199   3.226   1.870 -0.5797 -1.2108  0.6751
  126OSM    C1213345   3.018   3.413   1.982 -0.4270  0.0126 -0.4842
  126OSM   H12A13346   3.105   3.384   2.039 -1.7161  1.3338  2.3599
  126OSM   H12B13347   2.947   3.350   2.033  0.2671  1.0026  1.8233
  126OSM    C1113348   2.988   3.563   2.006  0.0455 -0.1704  0.8616
  126OSM   H11A13349   3.073   3.627   1.973 -1.3089  1.1096 -0.2188
  126OSM   H11B13350   2.982   3.588   2.114 -0.4851  0.9292  0.5871
  126OSM      P13351   2.731   3.568   1.990 -0.2171  0.1601 -0.6279
  126OSM    O1313352   2.634   3.594   1.883  0.2401  0.0589 -0.5093
  126OSM    O1413353   2.740   3.430   2.055  0.2788  0.0582  0.8285
  126OSM    O1113354   2.716   3.684   2.101  0.7208 -0.6514  0.2895
  126OSM    O1213355   2.874   3.611   1.931 -0.2536 -0.3477 -0.3249
  126OSM    C1S13356   2.615   3.655   2.197  0.4864  0.0096  0.0319
  126OSM    H1S13357   2.522   3.611   2.158 -0.3348  2.0454 -0.4121
  126OSM    H1T13358   2.576   3.755   2.225 -0.6331  0.3384 -2.4566
  126OSM     NF13359   2.571   3.541   2.416  0.5280  0.3443  0.7234
  126OSM    HNF13360   2.537   3.614   2.474 -1.1735  2.0940 -2.2638
  126OSM    C2S13361   2.672   3.578   2.323  1.2403  0.3263 -0.4707
  126OSM    H2S13362   2.727   3.488   2.291  0.3776 -0.5042  0.3356
  126OSM    C3S13363   2.771   3.665   2.391 -0.5229  0.3548  0.4507
  126OSM    H3S13364   2.726   3.744   2.454  0.4261  1.5105 -0.2771
  126OSM     O313365   2.841   3.751   2.309 -0.4116  0.0899  0.1339
  126OSM    HO313366   2.791   3.750   2.228 -0.7871  2.2318  0.2968
  126OSM    C4S13367   2.874   3.592   2.477  0.1428 -0.4737 -0.3895
  126OSM    H4S13368   2.834   3.575   2.578 -0.5959  1.5684 -0.2851
  126OSM    C5S13369   3.001   3.557   2.444  0.7983  0.0804 -0.1199
  126OSM    H5S13370   3.047   3.576   2.346  1.3254 -1.3452 -0.1782
  126OSM    C6S13371   3.099   3.489   2.536 -0.1541  0.2114 -0.2098
  126OSM    H6S13372   3.182   3.559   2.560  2.9035 -2.9543 -0.8271
  126OSM    H6T13373   3.148   3.407   2.480 -1.8000 -0.7715 -0.2495
  126OSM    C7S13374   3.050   3.430   2.669  0.1441 -0.4374  0.1891
  126OSM    H7S13375   2.970   3.363   2.632  1.4459 -0.2871 -3.3929
  126OSM    H7T13376   2.989   3.503   2.725 -0.9533 -1.6439  0.5993
  126OSM    C8S13377   3.150   3.344   2.747 -0.0830 -0.2379  0.2363
  126OSM    H8S13378   3.237   3.410   2.764  0.2150 -0.4073 -0.5989
  126OSM    H8T13379   3.178   3.253   2.690 -1.5617  0.3245 -1.5265
  126OSM    C9S13380   3.109   3.305   2.888 -0.3423 -0.4405  0.3104
  126OSM    H9S13381   3.068   3.399   2.930  1.5435  0.9509 -0.7842
  126OSM    H9T13382   3.200   3.285   2.949  0.2952  0.9712 -0.1165
  126OSM   C10S13383   2.998   3.192   2.898 -0.6023  0.5766 -0.0619
  126OSM   H10S13384   3.027   3.098   2.847 -2.3504  0.7218 -1.4301
  126OSM   H10T13385   2.905   3.219   2.843 -2.1995 -1.7807  1.2780
  126OSM   C11S13386   2.964   3.159   3.044 -0.0213 -0.2541  0.8502
  126OSM   H11S13387   2.883   3.084   3.053 -0.8606  0.7091  1.6515
  126OSM   H11T13388   2.930   3.250   3.098 -0.6681  1.5189 -2.3258
  126OSM   C12S13389   3.085   3.109   3.123 -0.0575  0.2677  0.3715
  126OSM   H12S13390   3.145   3.200   3.144  0.1555 -0.1127  1.4836
  126OSM   H12T13391   3.145   3.053   3.047  1.7656 -1.2741  2.7819
  126OSM   C13S13392   3.063   3.041   3.256  0.5053  0.1921 -0.2852
  126OSM   H13S13393   3.160   2.989   3.271  0.1208 -0.8624 -1.3110
  126OSM   H13T13394   2.980   2.967   3.254 -0.6328  1.2641  2.3644
  126OSM   C14S13395   3.039   3.140   3.377 -0.5015 -0.4223  0.4600
  126OSM   H14S13396   2.951   3.204   3.358 -0.8272 -1.9574 -4.6401
  126OSM   H14T13397   3.128   3.206   3.383 -3.2138  3.7116 -0.5777
  126OSM   C15S13398   3.009   3.065   3.513  0.1764 -0.1253 -0.6022
  126OSM   H15S13399   3.088   2.990   3.535 -1.3232 -2.0727 -1.4984
  126OSM   H15T13400   2.937   2.982   3.498  1.2193 -1.5634  1.8467
  126OSM   C16S13401   2.958   3.157   3.625 -0.0563 -0.0455 -0.5880
  126OSM   H16S13402   2.865   3.203   3.585 -0.6744 -0.6711  0.1017
  126OSM   H16T13403   3.035   3.230   3.658  1.2074 -1.6584  0.1971
  126OSM   C17S13404   2.909   3.085   3.755  0.4830 -1.3079  0.3697
  126OSM   H17S13405   2.814   3.032   3.730 -0.1088 -0.5473  0.9619
  126OSM   H17T13406   2.884   3.161   3.831  0.6595 -1.1314  0.2517
  126OSM   C18S13407   3.012   2.990   3.816 -0.0326 -0.2804 -0.2241
  126OSM   H18S13408   3.041   2.918   3.737 -2.0325 -0.8782 -0.4735
  126OSM   H18T13409   2.966   2.926   3.895  1.0271 -2.4707 -1.2768
  126OSM   H18U13410   3.107   3.040   3.845 -0.6479  1.7996 -1.5647
  126OSM    C1F13411   2.480   3.442   2.405  0.0314  0.6268 -0.0116
  126OSM     OF13412   2.483   3.364   2.311 -0.1559 -0.3221 -0.1240
  126OSM    C2F13413   2.382   3.437   2.522 -0.4662 -0.0830 -0.0420
  126OSM    H2F13414   2.303   3.514   2.518  0.3240  0.7360 -0.2684
  126OSM    H2G13415   2.440   3.452   2.615 -2.0327 -4.1884  1.8262
  126OSM    C3F13416   2.330   3.289   2.541 -0.5768 -0.7557 -0.8335
  126OSM    H3F13417   2.412   3.214   2.543 -1.0280 -1.2928  1.5221
  126OSM    H3G13418   2.272   3.267   2.449 -1.3692 -3.1080  0.1567
  126OSM    C4F13419   2.246   3.280   2.665  0.3005 -0.0739  0.0541
  126OSM    H4F13420   2.242   3.380   2.713 -0.9630 -1.1403  2.3517
  126OSM    H4G13421   2.285   3.212   2.743 -0.0780  1.1336  1.3252
  126OSM    C5F13422   2.092   3.254   2.654 -0.7500 -0.2941  0.2358
  126OSM    H5F13423   2.079   3.161   2.595  1.4838  0.4694 -1.6200
  126OSM    H5G13424   2.044   3.333   2.592  0.6639 -0.8164 -1.5977
  126OSM    C6F13425   2.024   3.252   2.791 -0.6736 -0.0407 -0.0759
  126OSM    H6F13426   2.015   3.357   2.825 -0.6555  0.6144 -1.9794
  126OSM    H6G13427   2.097   3.202   2.858 -0.3745 -0.5200 -0.7482
  126OSM    C7F13428   1.897   3.171   2.807  0.6334  0.0988 -0.3669
  126OSM    H7F13429   1.909   3.070   2.763 -0.5445 -0.8238  1.2950
  126OSM    H7G13430   1.814   3.226   2.758 -0.4615 -0.0562  1.2473
  126OSM    C8F13431   1.857   3.161   2.959 -0.8578 -0.0004  0.1857
  126OSM    H8F13432   1.858   3.261   3.006 -2.4686 -0.3525  1.0778
  126OSM    H8G13433   1.935   3.105   3.014 -1.0486  0.5624  1.0496
  126OSM    C9F13434   1.723   3.102   2.991 -0.4436 -0.1357 -0.3863
  126OSM    H9F13435   1.684   3.044   2.905  0.6170  0.2166 -1.1276
  126OSM   C10F13436   1.664   3.104   3.116  0.3069 -0.4633 -0.0937
  126OSM   H10F13437   1.559   3.074   3.127  0.7075 -2.9497 -2.0936
  126OSM   C11F13438   1.724   3.172   3.239 -0.3699 -0.3586  0.1635
  126OSM   H11F13439   1.675   3.272   3.242  0.6599  0.1742 -0.3051
  126OSM   H11G13440   1.835   3.176   3.239 -0.3827  0.1597 -0.3955
  126OSM   C12F13441   1.687   3.101   3.375 -0.4928 -0.1350  0.4489
  126OSM   H12F13442   1.699   2.991   3.365 -0.5783 -0.2337  1.3948
  126OSM   H12G13443   1.579   3.117   3.395  0.1029  1.4564  2.7818
  126OSM   C13F13444   1.753   3.158   3.507 -0.7435  1.0946 -0.0309
  126OSM   H13F13445   1.714   3.261   3.525  2.7160  2.4749  0.4118
  126OSM   H13G13446   1.863   3.160   3.486 -0.7305  1.4611  0.0542
  126OSM   C14F13447   1.703   3.069   3.629  0.1086 -0.1464 -0.4927
  126OSM   H14F13448   1.748   2.968   3.618  0.1906  0.0271 -2.0806
  126OSM   H14G13449   1.593   3.059   3.617  0.2752 -1.0823 -1.4224
  126OSM   C15F13450   1.735   3.124   3.774  0.1031 -0.1146  1.0563
  126OSM   H15F13451   1.697   3.229   3.775 -0.3957 -0.0722 -3.2153
  126OSM   H15G13452   1.845   3.125   3.785  0.2309  1.7493  0.0250
  126OSM   C16F13453   1.665   3.042   3.886  0.5599 -0.0949  0.3197
  126OSM   H16F13454   1.700   2.939   3.866 -0.0205 -0.1216 -0.6124
  126OSM   H16G13455   1.554   3.048   3.881  0.5275 -1.6546 -2.8602
  126OSM   C17F13456   1.713   3.098   4.024  0.1663 -0.3407  0.4857
  126OSM   H17F13457   1.680   3.202   4.046  1.4534  0.2318 -0.1840
  126OSM   H17G13458   1.824   3.097   4.025  0.2085  0.8669  2.7785
  126OSM   C18F13459   1.672   3.004   4.134  0.2996  0.0718 -0.3879
  126OSM   H18F13460   1.561   2.999   4.141  0.1394  2.8830  0.1111
  126OSM   H18G13461   1.702   3.041   4.235  0.9115 -3.2215  0.7624
  126OSM   H18H13462   1.713   2.902   4.119 -1.8640 -1.0488  0.6772
  127OSM      N13463   3.530   6.868   2.115  0.5687  0.5439  0.5693
  127OSM    C1513464   3.596   7.000   2.086 -0.0206  0.3361 -0.4058
  127OSM   H15A13465   3.658   6.996   1.998 -2.1789 -1.1482 -1.9525
  127OSM   H15B13466   3.659   7.038   2.166 -1.3741  1.1056  0.3455
  127OSM   H15C13467   3.520   7.075   2.067  0.1288  0.2315 -1.4929
  127OSM    C1413468   3.463   6.804   1.994  0.1461  0.0826 -0.3068
  127OSM   H14A13469   3.411   6.715   2.026 -1.8165  1.4575  0.5509
  127OSM   H14B13470   3.538   6.779   1.921  0.0058 -1.5577  0.0755
  127OSM   H14C13471   3.384   6.862   1.949 -0.8300 -0.0882  1.1169
  127OSM    C1313472   3.649   6.780   2.150 -0.1691  0.3648  0.2043
  127OSM   H13A13473   3.618   6.677   2.163  1.4408 -0.4457 -1.9392
  127OSM   H13B13474   3.688   6.797   2.250  1.3065  0.0588 -0.3002
  127OSM   H13C13475   3.730   6.784   2.080  1.0061  0.0301  1.4966
  127OSM    C1213476   3.429   6.882   2.224  0.0925 -0.3034  0.3151
  127OSM   H12A13477   3.474   6.931   2.310 -0.0985 -0.9984  0.8167
  127OSM   H12B13478   3.407   6.782   2.256  2.7552 -0.9420  0.4031
  127OSM    C1113479   3.296   6.968   2.204 -0.1321 -0.1979 -0.5023
  127OSM   H11A13480   3.323   7.054   2.139 -2.1410  0.7767 -0.1230
  127OSM   H11B13481   3.251   7.013   2.295 -0.8034  0.7285 -1.2891
  127OSM      P13482   3.123   6.762   2.238 -0.3781 -0.0992  0.0667
  127OSM    O1313483   2.980   6.771   2.198 -0.4936  0.4721 -0.2151
  127OSM    O1413484   3.188   6.630   2.209 -0.1587 -0.4712 -0.3242
  127OSM    O1113485   3.153   6.798   2.384  0.3400 -0.4003 -0.5284
  127OSM    O1213486   3.199   6.879   2.149 -0.2322  0.4399 -0.1150
  127OSM    C1S13487   3.115   6.711   2.493 -0.7398 -0.2148 -0.1785
  127OSM    H1S13488   3.199   6.646   2.525  0.6876  1.4439 -0.3506
  127OSM    H1T13489   3.028   6.646   2.470  0.6097 -1.6520 -1.5071
  127OSM     NF13490   3.053   6.704   2.745 -0.2752 -0.5576 -0.1175
  127OSM    HNF13491   2.956   6.691   2.762 -0.6821  0.9819 -1.1214
  127OSM    C2S13492   3.080   6.791   2.626  0.7669 -0.6379  0.2253
  127OSM    H2S13493   3.166   6.858   2.646 -2.1711  3.7265 -0.4088
  127OSM    C3S13494   2.958   6.891   2.604 -0.5334 -0.0696  0.4351
  127OSM    H3S13495   2.873   6.822   2.584  1.6838 -2.6772 -0.5511
  127OSM     O313496   2.993   6.982   2.499  0.0708 -0.0244  0.1301
  127OSM    HO313497   3.071   6.939   2.463  1.5599  1.7064  1.1269
  127OSM    C4S13498   2.941   6.980   2.720 -0.4223 -0.2888 -0.4263
  127OSM    H4S13499   2.982   7.081   2.706 -0.1500 -0.4490 -0.7857
  127OSM    C5S13500   2.856   6.946   2.826 -0.5404  0.2266  0.1308
  127OSM    H5S13501   2.813   6.845   2.824 -0.9300  0.3956 -0.3809
  127OSM    C6S13502   2.825   7.032   2.944 -0.3662 -0.3275  0.8065
  127OSM    H6S13503   2.714   7.031   2.953 -0.3723  0.4558  0.9121
  127OSM    H6T13504   2.864   7.136   2.936  0.0401 -0.6209 -2.2451
  127OSM    C7S13505   2.877   6.975   3.075  0.3395 -0.1293 -0.5615
  127OSM    H7S13506   2.986   6.955   3.067  0.3852 -0.3643  0.4967
  127OSM    H7T13507   2.820   6.880   3.076 -2.0936  1.2650 -0.7244
  127OSM    C8S13508   2.844   7.053   3.199 -0.1820 -0.4692  0.4254
  127OSM    H8S13509   2.740   7.092   3.197  0.5330  1.5285 -1.4856
  127OSM    H8T13510   2.914   7.139   3.198  0.6371 -1.0978  1.3630
  127OSM    C9S13511   2.869   6.972   3.331  0.5187  0.1529 -0.0665
  127OSM    H9S13512   2.946   6.894   3.312 -0.6026 -0.9664 -0.1535
  127OSM    H9T13513   2.768   6.926   3.336  0.7780 -0.3804  0.4483
  127OSM   C10S13514   2.882   7.066   3.452 -0.2249 -0.5267  0.0200
  127OSM   H10S13515   2.811   7.151   3.458  1.3843  0.8148  0.8202
  127OSM   H10T13516   2.982   7.113   3.452 -0.5410  0.1760 -0.6718
  127OSM   C11S13517   2.865   6.994   3.583 -0.0231  0.0535  0.0344
  127OSM   H11S13518   2.930   6.905   3.577 -1.6092 -1.2471  1.2681
  127OSM   H11T13519   2.763   6.952   3.586  0.5950 -1.8228 -2.3609
  127OSM   C12S13520   2.903   7.073   3.711 -0.0869  0.4976 -0.3458
  127OSM   H12S13521   2.842   7.166   3.705 -1.4731 -0.4216 -0.9105
  127OSM   H12T13522   3.009   7.106   3.710 -0.2278  1.4538 -4.6812
  127OSM   C13S13523   2.884   6.995   3.838 -0.6447  0.2651 -0.2328
  127OSM   H13S13524   2.964   6.919   3.856 -0.5315  0.3479 -0.3852
  127OSM   H13T13525   2.787   6.941   3.831  0.5194 -1.7722 -1.9216
  127OSM   C14S13526   2.888   7.095   3.950  0.2493  0.0161 -0.5104
  127OSM   H14S13527   2.807   7.169   3.933  0.4590  0.2881 -0.3258
  127OSM   H14T13528   2.987   7.140   3.927  1.7673 -2.3102  0.9880
  127OSM   C15S13529   2.863   7.032   4.095 -0.2011 -0.4737 -0.2126
  127OSM   H15S13530   2.939   6.952   4.113  1.2565  1.0069  0.5177
  127OSM   H15T13531   2.760   6.992   4.096 -0.2086 -0.4702 -0.6837
  127OSM   C16S13532   2.885   7.139   4.212  0.0104  0.9703  0.1211
  127OSM   H16S13533   2.808   7.218   4.195 -0.9982  0.5279  2.2785
  127OSM   H16T13534   2.981   7.191   4.194  1.1081 -1.3510 -1.1069
  127OSM   C17S13535   2.878   7.089   4.359  0.0574  0.4271 -0.5049
  127OSM   H17S13536   2.776   7.044   4.359 -0.4030  1.3135  2.0371
  127OSM   H17T13537   2.866   7.185   4.413 -1.2646 -0.3179  0.6048
  127OSM   C18S13538   2.983   6.988   4.406 -0.1366  0.2340  0.3042
  127OSM   H18S13539   2.965   6.955   4.511  1.7702 -2.2918 -0.0727
  127OSM   H18T13540   3.090   7.018   4.400  0.0054 -0.1220  0.9461
  127OSM   H18U13541   2.980   6.897   4.342  0.7244 -0.0287  0.6189
  127OSM    C1F13542   3.144   6.627   2.797 -0.0603  0.1930 -0.0518
  127OSM     OF13543   3.261   6.630   2.763  0.1020 -0.1996  0.4260
  127OSM    C2F13544   3.103   6.528   2.893 -0.0913  0.6818  0.4529
  127OSM    H2F13545   2.994   6.515   2.909 -0.0644 -1.0504 -0.5401
  127OSM    H2G13546   3.148   6.558   2.991  1.1961 -0.0554  0.1132
  127OSM    C3F13547   3.160   6.398   2.845  0.0507  0.0521 -0.3981
  127OSM    H3F13548   3.271   6.406   2.837 -0.1172  1.4628 -1.8563
  127OSM    H3G13549   3.118   6.364   2.748 -1.6614 -0.4089  0.4732
  127OSM    C4F13550   3.137   6.287   2.950 -0.5508  0.1657  0.3771
  127OSM    H4F13551   3.199   6.199   2.920  0.4009  1.6539 -2.4637
  127OSM    H4G13552   3.034   6.253   2.925  0.2025 -1.2415 -1.0771
  127OSM    C5F13553   3.151   6.318   3.101  0.3205  0.4543  0.4129
  127OSM    H5F13554   3.077   6.395   3.132 -1.7970 -1.8430  1.3549
  127OSM    H5G13555   3.249   6.368   3.117  0.2665  1.0429 -0.9310
  127OSM    C6F13556   3.150   6.191   3.191 -0.3343 -0.1512 -0.4256
  127OSM    H6F13557   3.248   6.143   3.172 -0.1855 -0.3629  0.8008
  127OSM    H6G13558   3.067   6.133   3.145 -1.3177  1.2234 -0.4548
  127OSM    C7F13559   3.117   6.219   3.339 -0.8143 -0.0992  0.7618
  127OSM    H7F13560   3.021   6.275   3.338 -0.7741 -0.0313  0.4327
  127OSM    H7G13561   3.189   6.292   3.380 -0.0361 -1.3035  1.5992
  127OSM    C8F13562   3.123   6.091   3.424 -0.1178  0.1588 -0.1273
  127OSM    H8F13563   3.228   6.054   3.433 -0.7775 -2.2600 -1.4398
  127OSM    H8G13564   3.067   6.013   3.368  0.9765 -0.2906 -0.6221
  127OSM    C9F13565   3.060   6.108   3.562  0.4632 -0.6639 -0.3756
  127OSM    H9F13566   2.953   6.085   3.575 -0.0012  2.0177  1.4383
  127OSM   C10F13567   3.131   6.134   3.674  0.4693 -0.4239 -0.7092
  127OSM   H10F13568   3.081   6.127   3.772  0.1069 -0.9836 -0.9330
  127OSM   C11F13569   3.284   6.150   3.683  0.0101  0.0524 -0.7729
  127OSM   H11F13570   3.320   6.223   3.759 -3.9374  3.1794 -1.5460
  127OSM   H11G13571   3.325   6.191   3.588  0.6104  2.3381  0.4084
  127OSM   C12F13572   3.347   6.014   3.712 -0.5084 -0.1338 -0.4676
  127OSM   H12F13573   3.457   6.018   3.696 -0.5402 -1.0394 -0.9979
  127OSM   H12G13574   3.308   5.951   3.630  0.3364 -0.4599 -0.6257
  127OSM   C13F13575   3.320   5.959   3.853 -0.8243  0.2544 -0.2760
  127OSM   H13F13576   3.384   5.868   3.862 -0.0831  0.7299 -0.6530
  127OSM   H13G13577   3.215   5.928   3.868 -1.0909  1.7840  1.4023
  127OSM   C14F13578   3.363   6.060   3.964 -0.0432 -0.0598  0.0651
  127OSM   H14F13579   3.307   6.018   4.050 -2.6083 -0.2135 -1.5751
  127OSM   H14G13580   3.312   6.157   3.949  0.6551  0.0652 -1.7120
  127OSM   C15F13581   3.509   6.077   3.999  0.2036 -0.1683 -0.0293
  127OSM   H15F13582   3.568   6.097   3.906 -0.0988 -1.1309 -0.4380
  127OSM   H15G13583   3.541   5.975   4.030  1.0599 -0.2839 -1.2066
  127OSM   C16F13584   3.529   6.176   4.113  0.4620  0.1938 -0.2140
  127OSM   H16F13585   3.483   6.123   4.199  0.7252  1.2251  0.5850
  127OSM   H16G13586   3.462   6.259   4.082 -0.7299 -0.7739 -0.2921
  127OSM   C17F13587   3.671   6.227   4.134 -0.4019 -0.0329  0.2605
  127OSM   H17F13588   3.677   6.299   4.218 -0.7116  0.5228 -0.1768
  127OSM   H17G13589   3.703   6.290   4.048  0.5071 -0.6648  0.1246
  127OSM   C18F13590   3.779   6.114   4.153  0.0631 -0.4965  0.1209
  127OSM   H18F13591   3.779   6.041   4.070  0.2703  0.8752 -1.1395
  127OSM   H18G13592   3.755   6.061   4.247  1.1458 -0.8793  0.1848
  127OSM   H18H13593   3.878   6.163   4.143  0.4231 -1.0746  0.8458
  128OSM      N13594   3.007   4.800   1.706  0.1905 -0.7381 -0.0141
  128OSM    C1513595   3.078   4.883   1.803  0.0174  0.3645  0.2895
  128OSM   H15A13596   3.088   4.981   1.759  1.9194 -0.7654 -2.0089
  128OSM   H15B13597   3.175   4.846   1.833 -0.3026 -0.2786  0.5552
  128OSM   H15C13598   3.016   4.894   1.892 -1.0594 -1.0591 -0.2366
  128OSM    C1413599   2.889   4.872   1.656 -0.0811 -0.5528  0.5933
  128OSM   H14A13600   2.828   4.913   1.736  0.5520  0.1457  0.7297
  128OSM   H14B13601   2.829   4.801   1.602  1.1866 -1.2796  0.1220
  128OSM   H14C13602   2.914   4.953   1.589 -0.4794  1.0781  2.2976
  128OSM    C1313603   3.099   4.771   1.590 -0.3139  0.3028 -0.2636
  128OSM   H13A13604   3.052   4.719   1.507  0.4197 -0.6509 -0.0977
  128OSM   H13B13605   3.183   4.712   1.624  2.3083  1.8131 -3.5927
  128OSM   H13C13606   3.141   4.864   1.556 -0.3609  0.5041  0.2230
  128OSM    C1213607   2.965   4.670   1.766 -0.1258  0.6716 -0.5344
  128OSM   H12A13608   3.052   4.607   1.775 -0.5577  0.3769  3.5664
  128OSM   H12B13609   2.900   4.628   1.690  0.3893  0.3627 -0.8020
  128OSM    C1113610   2.894   4.674   1.904 -0.1885  0.3857  0.0508
  128OSM   H11A13611   2.970   4.720   1.971  0.4211  1.6032 -1.4275
  128OSM   H11B13612   2.875   4.565   1.918 -0.6376 -0.4310 -5.0070
  128OSM      P13613   2.693   4.790   2.024 -0.0520 -0.0099 -0.3712
  128OSM    O1313614   2.674   4.938   2.015  0.0942  1.1344  0.2682
  128OSM    O1413615   2.573   4.713   2.017  0.0736  0.3658 -0.1932
  128OSM    O1113616   2.784   4.754   2.147 -0.3197  0.1268 -0.2640
  128OSM    O1213617   2.772   4.745   1.900 -0.3073 -0.0677  0.1521
  128OSM    C1S13618   2.813   4.856   2.244  0.0239 -0.5894  0.5684
  128OSM    H1S13619   2.721   4.914   2.265  0.2519  1.3931 -3.0191
  128OSM    H1T13620   2.886   4.926   2.198 -1.1157  0.0992 -0.2452
  128OSM     NF13621   2.870   4.897   2.483  0.0704 -0.5501 -0.4050
  128OSM    HNF13622   2.957   4.942   2.501  0.8117 -2.6477  1.7699
  128OSM    C2S13623   2.876   4.804   2.374 -0.5700  0.5790  0.5667
  128OSM    H2S13624   2.825   4.709   2.403  3.3636 -1.8614  0.2110
  128OSM    C3S13625   3.024   4.752   2.345  0.6085  0.2170  0.8374
  128OSM    H3S13626   3.081   4.845   2.325  2.1191 -0.0868  3.2437
  128OSM     O313627   3.034   4.671   2.228 -0.0224 -0.0629 -0.4346
  128OSM    HO313628   2.945   4.669   2.194 -0.2550 -2.1295  0.1135
  128OSM    C4S13629   3.070   4.673   2.463 -0.0947  0.0685 -0.7094
  128OSM    H4S13630   3.011   4.582   2.478 -1.8217  1.3973  1.0858
  128OSM    C5S13631   3.165   4.713   2.551 -0.1111  0.8469 -0.1504
  128OSM    H5S13632   3.218   4.806   2.525  0.0135  0.7016 -0.4225
  128OSM    C6S13633   3.216   4.625   2.667  0.0382  0.0423  0.1632
  128OSM    H6S13634   3.257   4.691   2.746 -1.9001 -2.4836  3.5687
  128OSM    H6T13635   3.298   4.560   2.629 -0.3374 -0.0060 -0.5988
  128OSM    C7S13636   3.118   4.527   2.743  0.2805 -0.2835  0.0430
  128OSM    H7S13637   3.174   4.459   2.809  0.5193 -0.5871 -0.4660
  128OSM    H7T13638   3.063   4.460   2.674 -0.1736 -0.4069  0.5179
  128OSM    C8S13639   3.001   4.601   2.809  0.2256  0.1225 -0.3013
  128OSM    H8S13640   2.937   4.519   2.849  1.2688  0.0640  1.3614
  128OSM    H8T13641   2.930   4.650   2.739 -0.4793  0.8628  0.9005
  128OSM    C9S13642   3.039   4.691   2.930  0.1104 -0.2835  0.8440
  128OSM    H9S13643   2.952   4.743   2.976 -1.0737 -0.6857 -0.8453
  128OSM    H9T13644   3.099   4.771   2.882  1.1195 -0.7708  1.2631
  128OSM   C10S13645   3.116   4.637   3.054  0.0023 -0.5134  0.5751
  128OSM   H10S13646   3.222   4.618   3.025 -0.2132 -1.5914  0.4660
  128OSM   H10T13647   3.079   4.534   3.074 -0.1833 -0.9363 -1.6360
  128OSM   C11S13648   3.113   4.732   3.173 -0.6826  0.5509  0.2116
  128OSM   H11S13649   3.015   4.739   3.224 -0.9946  0.5436 -0.3774
  128OSM   H11T13650   3.135   4.824   3.114  2.1352 -1.4574 -2.1838
  128OSM   C12S13651   3.220   4.690   3.271 -0.2181  0.3764  0.3684
  128OSM   H12S13652   3.212   4.770   3.348  0.6373 -2.0984  3.2222
  128OSM   H12T13653   3.323   4.677   3.232 -0.5386 -1.3500  0.0203
  128OSM   C13S13654   3.174   4.571   3.354 -0.0304  0.6295 -0.3006
  128OSM   H13S13655   3.167   4.478   3.294  1.7232  0.0901  0.2922
  128OSM   H13T13656   3.073   4.592   3.395  0.1883 -1.0332  1.1746
  128OSM   C14S13657   3.256   4.525   3.475 -0.7708  0.1773  0.1986
  128OSM   H14S13658   3.262   4.609   3.548 -0.7339  1.1905 -0.9323
  128OSM   H14T13659   3.354   4.489   3.435  0.3379  0.3766  2.5358
  128OSM   C15S13660   3.180   4.411   3.544 -0.0196  0.5042 -0.3530
  128OSM   H15S13661   3.134   4.336   3.476  0.9803 -1.1674  0.7021
  128OSM   H15T13662   3.100   4.455   3.607 -1.4846 -0.1273 -1.7062
  128OSM   C16S13663   3.265   4.331   3.646 -0.3505  0.6756 -0.5719
  128OSM   H16S13664   3.352   4.284   3.594 -0.2865  0.5938 -0.3922
  128OSM   H16T13665   3.211   4.246   3.694  1.7698  0.1109  0.9415
  128OSM   C17S13666   3.308   4.424   3.764  0.0865  0.9060  0.1686
  128OSM   H17S13667   3.235   4.425   3.848 -0.2630  1.1085 -0.1351
  128OSM   H17T13668   3.300   4.531   3.734 -2.1316  0.0285 -2.8468
  128OSM   C18S13669   3.437   4.388   3.830  0.0950 -0.3200  0.8761
  128OSM   H18S13670   3.471   4.480   3.883  1.5402  1.8489 -3.3772
  128OSM   H18T13671   3.518   4.360   3.760  0.1797  1.6549  0.1223
  128OSM   H18U13672   3.424   4.296   3.891 -0.3824 -1.1882 -0.4893
  128OSM    C1F13673   2.767   4.927   2.561 -0.4722 -0.2737  0.4761
  128OSM     OF13674   2.664   4.870   2.542 -0.3644  0.1003  0.8556
  128OSM    C2F13675   2.782   5.039   2.656 -0.3497 -0.5209  0.8268
  128OSM    H2F13676   2.696   5.109   2.665  1.2841  1.8137 -0.7897
  128OSM    H2G13677   2.860   5.107   2.617 -0.2951  0.1096  1.9850
  128OSM    C3F13678   2.837   4.991   2.788  0.2343 -0.2195 -0.5421
  128OSM    H3F13679   2.931   4.938   2.759 -0.8943 -2.0764 -0.9696
  128OSM    H3G13680   2.773   4.914   2.837 -0.4198  2.1803  2.6998
  128OSM    C4F13681   2.868   5.103   2.888  0.5330 -0.1319 -0.2564
  128OSM    H4F13682   2.899   5.196   2.837  1.2853 -1.5386 -2.5303
  128OSM    H4G13683   2.947   5.073   2.960 -0.3764 -1.7771  0.1129
  128OSM    C5F13684   2.741   5.133   2.972  0.1970  0.6006  0.1624
  128OSM    H5F13685   2.692   5.046   3.021  1.6581 -0.8787 -0.9237
  128OSM    H5G13686   2.662   5.168   2.902  0.4167 -1.9427 -1.4682
  128OSM    C6F13687   2.755   5.260   3.055 -0.1014  0.4243  0.0075
  128OSM    H6F13688   2.657   5.294   3.094 -0.9307 -1.6234 -0.1506
  128OSM    H6G13689   2.792   5.333   2.981  1.2859  0.3936  0.6358
  128OSM    C7F13690   2.852   5.243   3.172  0.0493 -0.0895  0.1844
  128OSM    H7F13691   2.953   5.237   3.126 -0.5579 -0.9143 -1.0824
  128OSM    H7G13692   2.840   5.145   3.223  1.2770 -0.1411  0.4124
  128OSM    C8F13693   2.851   5.366   3.268 -0.7920  0.0510 -0.2810
  128OSM    H8F13694   2.935   5.359   3.339 -2.4720 -0.7435  1.7296
  128OSM    H8G13695   2.763   5.345   3.332  1.2684 -0.5217  2.5173
  128OSM    C9F13696   2.852   5.510   3.215  0.5191 -0.1427  0.2546
  128OSM    H9F13697   2.780   5.534   3.136  2.0132  2.2803 -0.4759
  128OSM   C10F13698   2.926   5.613   3.261 -0.2387 -0.0190  0.2323
  128OSM   H10F13699   2.897   5.711   3.221  0.4142 -0.4660 -1.4065
  128OSM   C11F13700   3.040   5.615   3.363 -0.1510  0.6274  0.9283
  128OSM   H11F13701   3.123   5.671   3.315  2.3869 -1.6513  2.3665
  128OSM   H11G13702   3.077   5.514   3.392 -1.2062  0.3748  1.4619
  128OSM   C12F13703   2.990   5.680   3.492  0.3764  0.2375  0.4158
  128OSM   H12F13704   2.907   5.628   3.544 -0.5434  0.2503 -0.9774
  128OSM   H12G13705   2.953   5.780   3.462 -0.5251 -0.8161 -2.3561
  128OSM   C13F13706   3.102   5.709   3.598  0.2076  0.3266 -0.4767
  128OSM   H13F13707   3.064   5.757   3.691 -0.2884 -0.9574  0.0249
  128OSM   H13G13708   3.159   5.783   3.538  1.8799  0.1475  0.8116
  128OSM   C14F13709   3.182   5.582   3.629  0.1374 -0.5681  0.2895
  128OSM   H14F13710   3.216   5.535   3.535 -0.8547 -0.6786 -0.0174
  128OSM   H14G13711   3.126   5.504   3.685  0.2878  0.2555  1.6407
  128OSM   C15F13712   3.310   5.618   3.709 -0.5195  0.0289 -0.0102
  128OSM   H15F13713   3.279   5.624   3.816 -2.1695  1.4407 -0.5257
  128OSM   H15G13714   3.346   5.715   3.670 -0.1901  0.1012  0.4628
  128OSM   C16F13715   3.418   5.515   3.693 -0.0472  0.0760  0.2184
  128OSM   H16F13716   3.507   5.571   3.729 -0.9978  1.6459  0.2174
  128OSM   H16G13717   3.434   5.488   3.586  2.3819  4.1544 -0.6984
  128OSM   C17F13718   3.400   5.394   3.788  0.5605 -0.1477  0.1562
  128OSM   H17F13719   3.304   5.346   3.759 -0.1527 -0.2170  2.3955
  128OSM   H17G13720   3.415   5.437   3.890  2.3956  2.2458 -1.0152
  128OSM   C18F13721   3.518   5.297   3.766 -0.1248  0.0145 -0.1995
  128OSM   H18F13722   3.527   5.283   3.656 -0.3429 -0.3116 -0.1778
  128OSM   H18G13723   3.498   5.201   3.818  1.2426  0.1170  0.5775
  128OSM   H18H13724   3.609   5.336   3.817 -0.6382  1.0853 -0.0693
  129OSM      N13725   5.516   5.524   2.120  0.0800 -0.7133  0.4838
  129OSM    C1513726   5.591   5.522   2.252 -0.3527  0.2160 -0.0635
  129OSM   H15A13727   5.542   5.588   2.322 -0.3753 -0.6693  0.7846
  129OSM   H15B13728   5.687   5.565   2.230 -0.7005  0.7828 -0.5072
  129OSM   H15C13729   5.589   5.422   2.294 -0.7619  0.4414  0.4605
  129OSM    C1413730   5.534   5.663   2.065  0.2688  0.6192 -0.2556
  129OSM   H14A13731   5.495   5.733   2.137  2.4036 -2.1420  4.0091
  129OSM   H14B13732   5.498   5.682   1.965 -1.5858 -1.8828 -0.1738
  129OSM   H14C13733   5.640   5.680   2.063  0.5440  0.7835  4.2964
  129OSM    C1313734   5.577   5.425   2.025  0.8918 -0.1864  0.2988
  129OSM   H13A13735   5.684   5.419   2.018  0.8026 -1.9854  0.0002
  129OSM   H13B13736   5.527   5.435   1.930 -0.7685  0.4730  1.1990
  129OSM   H13C13737   5.542   5.324   2.043  3.0374 -1.4951 -2.1886
  129OSM    C1213738   5.367   5.497   2.127  0.0615  0.2291  0.0560
  129OSM   H12A13739   5.332   5.466   2.029 -0.7939  2.0015 -0.2319
  129OSM   H12B13740   5.307   5.585   2.143 -1.7160 -0.5982 -1.6302
  129OSM    C1113741   5.326   5.395   2.236 -0.0606 -0.0786  0.4061
  129OSM   H11A13742   5.279   5.440   2.325 -1.2004 -0.5930  0.0835
  129OSM   H11B13743   5.419   5.338   2.257  2.0816  3.0488  0.0747
  129OSM      P13744   5.081   5.331   2.152  0.2118  0.2405  0.0728
  129OSM    O1313745   5.061   5.481   2.153  0.1507  0.6062  1.1855
  129OSM    O1413746   5.033   5.243   2.044 -0.1892  0.3309  0.0666
  129OSM    O1113747   5.015   5.265   2.290  0.2131 -0.7238 -0.4262
  129OSM    O1213748   5.232   5.306   2.172 -0.1514 -0.1083 -0.4635
  129OSM    C1S13749   5.088   5.166   2.373 -0.2779 -0.4776  0.1522
  129OSM    H1S13750   5.173   5.119   2.319 -0.8178 -0.3784 -0.8120
  129OSM    H1T13751   5.027   5.076   2.394  0.0988  0.0082  4.2802
  129OSM     NF13752   5.218   5.116   2.573  0.0912  0.2877  0.2035
  129OSM    HNF13753   5.172   5.054   2.636  2.3013 -0.1773  1.4698
  129OSM    C2S13754   5.139   5.219   2.511  0.5675 -0.2926  0.4250
  129OSM    H2S13755   5.210   5.304   2.499  0.5545 -0.4373 -0.7954
  129OSM    C3S13756   5.018   5.274   2.594  0.0633  0.6808 -0.1801
  129OSM    H3S13757   4.957   5.182   2.614 -0.2737  1.2953  1.8749
  129OSM     O313758   4.926   5.353   2.528 -0.7031 -0.3103 -0.0759
  129OSM    HO313759   4.972   5.363   2.444 -2.7654  1.6815 -1.0613
  129OSM    C4S13760   5.061   5.332   2.731 -0.3594  0.2013 -0.2642
  129OSM    H4S13761   5.046   5.255   2.809 -1.4488  2.1866  1.5884
  129OSM    C5S13762   5.110   5.455   2.757 -0.1131 -0.7530 -0.2075
  129OSM    H5S13763   5.138   5.521   2.674 -2.3159 -0.3827 -0.7071
  129OSM    C6S13764   5.140   5.520   2.889 -0.4921 -0.1656  0.4556
  129OSM    H6S13765   5.082   5.613   2.902  0.2616  0.4745 -0.5357
  129OSM    H6T13766   5.244   5.562   2.886 -0.9549  1.0478 -2.3409
  129OSM    C7S13767   5.125   5.436   3.017 -0.2295  0.1677 -0.4186
  129OSM    H7S13768   5.181   5.341   3.008  1.2221  0.9193  0.3308
  129OSM    H7T13769   5.021   5.401   3.033  0.0395  0.3009  2.1789
  129OSM    C8S13770   5.169   5.510   3.138 -0.4371 -0.1535 -0.3749
  129OSM    H8S13771   5.111   5.604   3.145 -0.6463 -0.3118  0.1222
  129OSM    H8T13772   5.277   5.531   3.129 -0.3076 -0.6166  0.0221
  129OSM    C9S13773   5.144   5.432   3.265  0.0323 -0.6992 -0.6320
  129OSM    H9S13774   5.218   5.351   3.281  1.3818  0.5789 -0.2514
  129OSM    H9T13775   5.049   5.374   3.256 -0.4954 -0.0403  0.4664
  129OSM   C10S13776   5.145   5.540   3.380 -0.0237 -0.4946 -0.0296
  129OSM   H10S13777   5.128   5.500   3.482  2.1548 -0.1402  0.5206
  129OSM   H10T13778   5.063   5.616   3.372 -0.6840 -1.1963 -0.0681
  129OSM   C11S13779   5.286   5.611   3.387 -0.6688 -0.2637 -0.1902
  129OSM   H11S13780   5.308   5.669   3.295  2.2711 -1.3518 -0.2634
  129OSM   H11T13781   5.349   5.519   3.391 -1.8496 -1.0822  0.4039
  129OSM   C12S13782   5.311   5.701   3.506 -0.4844  0.2006  0.4592
  129OSM   H12S13783   5.233   5.776   3.479 -2.0368 -1.2223  0.8322
  129OSM   H12T13784   5.411   5.747   3.493 -0.3339 -0.6338 -1.6936
  129OSM   C13S13785   5.292   5.647   3.645  0.1146  0.2015 -0.2300
  129OSM   H13S13786   5.344   5.548   3.644 -1.3287 -0.5877  0.4948
  129OSM   H13T13787   5.187   5.631   3.678  1.3786  0.3206  4.6952
  129OSM   C14S13788   5.347   5.738   3.756  0.6463  0.3303 -0.2033
  129OSM   H14S13789   5.300   5.839   3.758 -0.3764 -0.1325  1.4135
  129OSM   H14T13790   5.457   5.749   3.740  0.3521 -0.6603 -3.6245
  129OSM   C15S13791   5.324   5.674   3.897 -1.0621 -0.6288 -0.1378
  129OSM   H15S13792   5.378   5.577   3.904  0.7919  0.3284 -0.6548
  129OSM   H15T13793   5.219   5.645   3.919 -0.5834 -1.6716  0.8569
  129OSM   C16S13794   5.393   5.757   4.006  0.6248  0.1470  0.9049
  129OSM   H16S13795   5.327   5.846   4.013 -1.4847 -0.9890 -2.2998
  129OSM   H16T13796   5.496   5.783   3.974  1.1580 -0.0501  2.3655
  129OSM   C17S13797   5.404   5.684   4.141  0.2674  0.4935 -0.5628
  129OSM   H17S13798   5.492   5.616   4.138 -1.5280 -1.9397 -1.0540
  129OSM   H17T13799   5.312   5.629   4.170  0.1615  0.3079 -1.2460
  129OSM   C18S13800   5.433   5.787   4.252 -0.7398 -0.3375 -0.0031
  129OSM   H18S13801   5.355   5.865   4.237 -1.2149 -1.2680 -3.2390
  129OSM   H18T13802   5.530   5.840   4.253 -2.0484  2.2107  0.9162
  129OSM   H18U13803   5.436   5.738   4.351 -1.1295 -0.3007  0.0283
  129OSM    C1F13804   5.335   5.078   2.532  0.2644  0.0603  0.2985
  129OSM     OF13805   5.380   5.121   2.429 -0.1845  0.1220 -0.3879
  129OSM    C2F13806   5.401   4.978   2.607  0.5258  0.6000  0.4945
  129OSM    H2F13807   5.468   4.917   2.543 -2.0069 -1.9635  0.0882
  129OSM    H2G13808   5.318   4.913   2.641 -1.7760  2.9881 -0.2733
  129OSM    C3F13809   5.487   5.033   2.722 -0.7893  0.5120 -0.1715
  129OSM    H3F13810   5.576   5.086   2.682 -0.3441 -0.1110 -0.0280
  129OSM    H3G13811   5.533   4.941   2.765  0.7348  1.6798  0.7912
  129OSM    C4F13812   5.434   5.114   2.831  0.1316  0.0602  0.3107
  129OSM    H4F13813   5.348   5.073   2.888 -0.8051 -4.3650 -3.6466
  129OSM    H4G13814   5.400   5.208   2.783  0.3895  0.8206  1.5609
  129OSM    C5F13815   5.549   5.149   2.928  0.1632  0.2098 -0.1138
  129OSM    H5F13816   5.623   5.205   2.867 -2.0550  1.3467 -1.9173
  129OSM    H5G13817   5.587   5.054   2.972  1.2193  0.4715 -0.4373
  129OSM    C6F13818   5.510   5.237   3.054 -0.8446  0.1069  0.1206
  129OSM    H6F13819   5.454   5.168   3.120  3.0908  0.5432  4.4335
  129OSM    H6G13820   5.460   5.331   3.023  1.7409  1.9502  1.1677
  129OSM    C7F13821   5.633   5.279   3.144 -0.3284  0.0342 -0.3198
  129OSM    H7F13822   5.712   5.335   3.089 -0.0477 -1.6125 -1.6804
  129OSM    H7G13823   5.684   5.183   3.167  0.7037  0.0850 -2.1868
  129OSM    C8F13824   5.600   5.357   3.267  0.2645 -0.1792 -0.3389
  129OSM    H8F13825   5.548   5.455   3.261  1.3766  0.6657  2.3252
  129OSM    H8G13826   5.701   5.374   3.310  0.4683 -3.3379  0.6418
  129OSM    C9F13827   5.509   5.280   3.356  0.2365  0.4678  0.0792
  129OSM    H9F13828   5.414   5.241   3.317  0.8605 -2.4540  1.2135
  129OSM   C10F13829   5.538   5.228   3.477 -0.4622 -0.3600 -0.7078
  129OSM   H10F13830   5.456   5.176   3.530 -0.1743  0.1544  0.2755
  129OSM   C11F13831   5.676   5.236   3.550 -0.3745 -0.1739  0.2714
  129OSM   H11F13832   5.680   5.327   3.614  0.7698  1.6358 -2.2207
  129OSM   H11G13833   5.755   5.256   3.475 -0.1814  0.0614  0.5339
  129OSM   C12F13834   5.710   5.117   3.634  0.1716  0.0748  0.0955
  129OSM   H12F13835   5.717   5.027   3.570  0.2964  0.7207 -0.8283
  129OSM   H12G13836   5.624   5.103   3.703 -0.3702 -1.1194 -0.7888
  129OSM   C13F13837   5.845   5.124   3.705 -0.6709  0.0558 -0.5486
  129OSM   H13F13838   5.863   5.046   3.782 -1.8172  0.8274  0.5399
  129OSM   H13G13839   5.838   5.214   3.770  0.3574 -0.0056 -0.3455
  129OSM   C14F13840   5.963   5.125   3.606  0.3162  0.1162  0.8092
  129OSM   H14F13841   5.941   5.188   3.518  1.7136  0.4646  0.6828
  129OSM   H14G13842   5.971   5.019   3.573 -3.3872  0.0247 -0.2177
  129OSM   C15F13843   6.097   5.165   3.664  0.3254  0.2635  0.1511
  129OSM   H15F13844   6.135   5.091   3.738  1.4856  0.5834 -0.0929
  129OSM   H15G13845   6.098   5.265   3.714  2.8518  0.5487 -0.3086
  129OSM   C16F13846   6.194   5.176   3.548  0.2170 -0.3747 -0.5713
  129OSM   H16F13847   6.173   5.262   3.481 -1.9147  0.2470  0.8134
  129OSM   H16G13848   6.181   5.086   3.485 -0.9814 -0.4351 -0.2618
  129OSM   C17F13849   6.340   5.178   3.583  0.3902  0.4592 -0.4897
  129OSM   H17F13850   6.356   5.251   3.666 -2.0167  0.6798 -0.1427
  129OSM   H17G13851   6.394   5.216   3.494  0.8751  0.0036 -0.3932
  129OSM   C18F13852   6.398   5.041   3.621  0.4508  0.8968  0.3287
  129OSM   H18F13853   6.506   5.017   3.608  0.1466  0.2463 -1.1999
  129OSM   H18G13854   6.331   4.967   3.573  0.2423  0.5437  1.1521
  129OSM   H18H13855   6.373   5.027   3.729 -0.3631 -2.7324 -0.2095
  130OSM      N13856   4.510   6.460   1.994  0.5288  0.4667 -0.3917
  130OSM    C1513857   4.612   6.352   2.024 -0.7470  0.2819 -0.4164
  130OSM   H15A13858   4.549   6.268   2.050  1.9684 -2.2295 -1.4378
  130OSM   H15B13859   4.674   6.381   2.108 -0.5252  0.7884 -0.7478
  130OSM   H15C13860   4.673   6.317   1.942  0.8330  1.6459  0.1177
  130OSM    C1413861   4.578   6.596   1.973 -0.0180 -0.0063 -0.0508
  130OSM   H14A13862   4.510   6.678   1.957  0.0324  0.1850  0.6656
  130OSM   H14B13863   4.643   6.586   1.888  1.4340 -0.6007  1.0827
  130OSM   H14C13864   4.635   6.623   2.061  1.2646  0.0723 -0.8792
  130OSM    C1313865   4.430   6.430   1.873  0.4374 -0.0842  0.0092
  130OSM   H13A13866   4.489   6.351   1.830 -0.6723 -1.4203  0.8868
  130OSM   H13B13867   4.437   6.511   1.801 -1.2061 -0.4235 -0.5868
  130OSM   H13C13868   4.330   6.394   1.889 -0.6607  1.9035 -1.7974
  130OSM    C1213869   4.408   6.480   2.106  0.4863  0.8050  0.0052
  130OSM   H12A13870   4.339   6.397   2.100 -0.7530  1.9130 -2.1221
  130OSM   H12B13871   4.352   6.571   2.090 -1.5410 -0.5015 -0.6600
  130OSM    C1113872   4.473   6.476   2.248 -0.0507  0.4389  0.1623
  130OSM   H11A13873   4.524   6.383   2.279  0.5014  0.2370 -1.2446
  130OSM   H11B13874   4.388   6.482   2.319 -0.3977  2.4680 -0.3479
  130OSM      P13875   4.544   6.710   2.348 -0.0907 -0.2668 -0.4846
  130OSM    O1313876   4.661   6.797   2.329 -0.4082 -0.3526 -0.1012
  130OSM    O1413877   4.406   6.761   2.318  0.3625  0.1327  0.3787
  130OSM    O1113878   4.552   6.661   2.496  0.0592 -0.4927 -0.0281
  130OSM    O1213879   4.568   6.584   2.264  0.0641  0.1425 -0.0360
  130OSM    C1S13880   4.563   6.761   2.603 -0.5101  0.7995  0.7783
  130OSM    H1S13881   4.504   6.852   2.581 -0.9100  0.0632 -1.4448
  130OSM    H1T13882   4.670   6.789   2.608 -0.1456 -0.2054 -0.7098
  130OSM     NF13883   4.495   6.795   2.836 -0.5681  0.3707  0.3421
  130OSM    HNF13884   4.559   6.780   2.911 -0.1431 -2.0377 -0.4037
  130OSM    C2S13885   4.524   6.694   2.737  0.0539 -0.0818  0.8525
  130OSM    H2S13886   4.429   6.639   2.720  0.2116 -0.0409 -0.2108
  130OSM    C3S13887   4.636   6.590   2.767  0.3355  0.3970 -0.1055
  130OSM    H3S13888   4.735   6.638   2.783 -0.0203  1.0929  0.0124
  130OSM     O313889   4.654   6.487   2.665  0.0044 -0.0074 -0.5866
  130OSM    HO313890   4.616   6.536   2.592 -0.4424  4.5765  2.3204
  130OSM    C4S13891   4.606   6.532   2.904  0.6986 -0.0820 -0.6215
  130OSM    H4S13892   4.669   6.579   2.980  1.2206 -1.8434  0.0729
  130OSM    C5S13893   4.537   6.424   2.943  0.1546  0.1973 -0.2394
  130OSM    H5S13894   4.490   6.369   2.860 -1.6363 -0.3445  1.0901
  130OSM    C6S13895   4.515   6.372   3.088 -0.5512 -0.2928  0.4025
  130OSM    H6S13896   4.522   6.261   3.090  1.8667 -0.2002  0.0088
  130OSM    H6T13897   4.409   6.392   3.113 -0.4822  0.6520 -0.0064
  130OSM    C7S13898   4.604   6.433   3.192  0.1829  0.1755  0.0635
  130OSM    H7S13899   4.606   6.544   3.187  1.1128  0.1265 -3.4663
  130OSM    H7T13900   4.706   6.396   3.166 -0.1404 -0.5495 -0.2199
  130OSM    C8S13901   4.568   6.384   3.336  0.2467  0.1392  0.3017
  130OSM    H8S13902   4.462   6.413   3.349  0.0985  0.3479 -1.1818
  130OSM    H8T13903   4.625   6.435   3.417 -0.6912  0.4976  0.7425
  130OSM    C9S13904   4.571   6.236   3.360  0.3509 -0.8394 -1.0401
  130OSM    H9S13905   4.677   6.204   3.367  0.5890 -0.2371 -1.7290
  130OSM    H9T13906   4.517   6.171   3.288 -1.6659 -1.3547  0.8325
  130OSM   C10S13907   4.500   6.214   3.498 -0.1444 -0.5466  0.5040
  130OSM   H10S13908   4.440   6.121   3.482 -1.8129  0.1249  2.3633
  130OSM   H10T13909   4.426   6.296   3.511  1.5672  0.8664  1.8687
  130OSM   C11S13910   4.596   6.210   3.619  0.9021 -0.3775 -0.9876
  130OSM   H11S13911   4.620   6.309   3.662 -0.0357 -0.8691  0.7372
  130OSM   H11T13912   4.696   6.176   3.584  1.5152  0.8274 -0.4610
  130OSM   C12S13913   4.545   6.121   3.739  0.4676 -0.1429 -0.5282
  130OSM   H12S13914   4.514   6.016   3.718 -1.3454  0.0517  0.9290
  130OSM   H12T13915   4.449   6.165   3.773  1.0123 -1.1278  2.5973
  130OSM   C13S13916   4.640   6.126   3.864 -0.1745 -0.0684 -0.1064
  130OSM   H13S13917   4.670   6.232   3.880 -1.4493  0.1446  1.0171
  130OSM   H13T13918   4.731   6.071   3.830  0.1711  1.7792 -2.4160
  130OSM   C14S13919   4.578   6.065   3.990  0.0058 -0.2383 -0.6408
  130OSM   H14S13920   4.580   5.955   3.976 -1.7730  0.0654 -4.9194
  130OSM   H14T13921   4.474   6.097   4.011  0.8392  2.2426  0.0319
  130OSM   C15S13922   4.660   6.112   4.114  0.0643  0.2747  0.0997
  130OSM   H15S13923   4.654   6.221   4.132 -0.0534  0.1861  0.6108
  130OSM   H15T13924   4.763   6.079   4.088  0.4123  1.0107  0.5420
  130OSM   C16S13925   4.603   6.048   4.244  0.5687  0.4757 -0.1059
  130OSM   H16S13926   4.645   5.946   4.253 -0.9435 -0.2177 -0.4674
  130OSM   H16T13927   4.494   6.036   4.224  0.6156  3.1920 -2.8094
  130OSM   C17S13928   4.630   6.124   4.373  0.0024 -0.1892 -0.5762
  130OSM   H17S13929   4.675   6.222   4.347 -1.3444  0.2097 -1.5106
  130OSM   H17T13930   4.705   6.074   4.438 -0.0910 -0.2040 -0.4814
  130OSM   C18S13931   4.511   6.162   4.473 -0.2942 -0.6048 -0.2169
  130OSM   H18S13932   4.548   6.222   4.559  2.3975 -0.6259 -1.2613
  130OSM   H18T13933   4.467   6.068   4.512  1.7030 -1.7142 -0.5059
  130OSM   H18U13934   4.442   6.220   4.408  0.8585  1.5074  0.3417
  130OSM    C1F13935   4.389   6.878   2.836 -0.7909 -0.2033  0.1178
  130OSM     OF13936   4.312   6.875   2.744  0.3566  0.0616  0.4385
  130OSM    C2F13937   4.362   6.981   2.940  0.2290 -0.4159 -0.1722
  130OSM    H2F13938   4.252   6.987   2.960 -0.0202 -1.9807 -0.8774
  130OSM    H2G13939   4.396   7.080   2.906 -1.9428 -0.2881 -2.2833
  130OSM    C3F13940   4.418   6.951   3.086 -0.1378 -0.5941 -0.7057
  130OSM    H3F13941   4.526   6.927   3.075  0.7177  2.6606 -0.4399
  130OSM    H3G13942   4.365   6.862   3.124  1.5015 -1.8952 -1.3510
  130OSM    C4F13943   4.408   7.065   3.177  0.1683 -0.1056  0.0805
  130OSM    H4F13944   4.301   7.089   3.197 -0.1544  0.6053 -2.1893
  130OSM    H4G13945   4.457   7.149   3.123 -2.1541  0.6334 -1.0352
  130OSM    C5F13946   4.473   7.042   3.318  0.3423 -0.1315 -0.1175
  130OSM    H5F13947   4.580   7.012   3.312  0.3928  0.1446 -0.6734
  130OSM    H5G13948   4.425   6.959   3.373  1.1132 -0.0579  0.6876
  130OSM    C6F13949   4.451   7.153   3.421 -0.8167 -0.2884 -0.3644
  130OSM    H6F13950   4.344   7.149   3.450 -1.2448  0.3532 -1.7819
  130OSM    H6G13951   4.471   7.253   3.376 -0.3472 -0.0473  0.3615
  130OSM    C7F13952   4.535   7.132   3.544 -0.2290 -0.0273 -0.1264
  130OSM    H7F13953   4.644   7.127   3.523 -0.6126 -1.8659 -1.9853
  130OSM    H7G13954   4.491   7.040   3.587 -3.4329  1.4161  0.0497
  130OSM    C8F13955   4.517   7.238   3.654 -0.0202  0.5546  0.2010
  130OSM    H8F13956   4.421   7.210   3.702 -0.3584  1.3411  0.0015
  130OSM    H8G13957   4.500   7.340   3.614  1.7260  0.9438  0.3546
  130OSM    C9F13958   4.633   7.249   3.748 -0.5009  0.5630  0.9460
  130OSM    H9F13959   4.728   7.276   3.699  0.2697  2.3448  3.2313
  130OSM   C10F13960   4.643   7.203   3.870  0.4095  0.1340  0.0544
  130OSM   H10F13961   4.736   7.216   3.927  0.2988 -1.9824  0.8456
  130OSM   C11F13962   4.534   7.141   3.957  0.2238 -0.4652  0.1878
  130OSM   H11F13963   4.557   7.033   3.969  2.1830  0.0324  1.3765
  130OSM   H11G13964   4.439   7.147   3.900 -0.3705 -1.3490  1.0538
  130OSM   C12F13965   4.518   7.217   4.088 -0.4697 -0.0595 -0.1296
  130OSM   H12F13966   4.417   7.214   4.136 -0.9832  1.0659 -1.0837
  130OSM   H12G13967   4.528   7.326   4.072 -1.3976 -0.0203 -0.5424
  130OSM   C13F13968   4.620   7.188   4.199  0.4447 -0.2996 -0.0467
  130OSM   H13F13969   4.728   7.200   4.175  1.6997 -2.4524  3.6745
  130OSM   H13G13970   4.616   7.079   4.219 -1.9865 -0.2965 -0.2595
  130OSM   C14F13971   4.590   7.247   4.336  0.7301  0.1468 -0.0294
  130OSM   H14F13972   4.487   7.218   4.366  0.3700  1.6845  0.3218
  130OSM   H14G13973   4.579   7.357   4.320  1.6001  0.4470  1.2567
  130OSM   C15F13974   4.693   7.226   4.449 -0.3418  0.6371  0.1124
  130OSM   H15F13975   4.678   7.296   4.533 -1.4232 -2.2383  2.5139
  130OSM   H15G13976   4.791   7.259   4.410 -0.6135  1.8919  0.4702
  130OSM   C16F13977   4.701   7.093   4.509  0.4468 -0.3746  0.0135
  130OSM   H16F13978   4.722   7.027   4.422 -0.4605 -0.4742 -0.1360
  130OSM   H16G13979   4.599   7.067   4.543  0.0489  1.2579  0.1451
  130OSM   C17F13980   4.794   7.077   4.633  0.3921  0.2607 -0.5463
  130OSM   H17F13981   4.784   7.166   4.698  1.9019 -0.8059  1.2104
  130OSM   H17G13982   4.897   7.093   4.594 -0.0236  1.8685 -1.0741
  130OSM   C18F13983   4.765   6.934   4.701  0.8385  0.4895  0.3735
  130OSM   H18F13984   4.809   6.926   4.803 -0.6157  1.0678  1.0799
  130OSM   H18G13985   4.797   6.854   4.631 -0.4827  0.8843 -0.7166
  130OSM   H18H13986   4.654   6.937   4.707  0.8174  1.4065 -0.2623
  131OSM      N13987   3.441   3.972   1.869  0.5285 -0.5312 -0.4664
  131OSM    C1513988   3.404   3.933   2.009  0.0738 -0.6979  0.1777
  131OSM   H15A13989   3.495   3.938   2.067 -1.0056  1.7224  1.8349
  131OSM   H15B13990   3.363   3.835   2.027  1.1167 -1.5417 -1.7297
  131OSM   H15C13991   3.333   4.006   2.046  0.8006  0.2703 -0.3110
  131OSM    C1413992   3.543   3.882   1.814  0.1845  0.4852  0.7574
  131OSM   H14A13993   3.578   3.919   1.719  0.7251  3.2954  1.9367
  131OSM   H14B13994   3.505   3.782   1.800 -0.7037  0.9975 -0.6128
  131OSM   H14C13995   3.631   3.872   1.876  1.2537  2.0039 -0.4210
  131OSM    C1313996   3.322   3.983   1.776 -0.2543  0.4326  0.1216
  131OSM   H13A13997   3.275   3.887   1.765  0.6197  0.0130 -0.0333
  131OSM   H13B13998   3.350   4.022   1.679  0.4272  2.2043  0.9701
  131OSM   H13C13999   3.239   4.043   1.812  0.9644  1.2574  1.7052
  131OSM    C1214000   3.495   4.115   1.877 -0.1955 -0.2547 -0.6246
  131OSM   H12A14001   3.429   4.171   1.942  0.4343 -1.1477  0.8324
  131OSM   H12B14002   3.465   4.164   1.786 -2.1682  1.7205  0.9571
  131OSM    C1114003   3.636   4.144   1.927 -0.0892 -0.1388  0.5148
  131OSM   H11A14004   3.663   4.250   1.907  0.0884  0.0374  1.6082
  131OSM   H11B14005   3.703   4.096   1.853  1.0614  1.0299  0.7640
  131OSM      P14006   3.756   4.011   2.109 -0.6359  0.3842 -0.3183
  131OSM    O1314007   3.701   3.948   2.226 -0.3601  0.2383  0.7261
  131OSM    O1414008   3.793   3.921   1.995  1.2515 -0.4296 -0.3484
  131OSM    O1114009   3.884   4.088   2.162  0.3613  0.6278  0.0163
  131OSM    O1214010   3.659   4.129   2.069  0.4998 -0.0795  0.7549
  131OSM    C1S14011   3.889   4.210   2.236  0.0630  1.0725  0.0372
  131OSM    H1S14012   3.807   4.283   2.223 -0.5986  0.2726 -0.3575
  131OSM    H1T14013   3.985   4.253   2.199  0.3737 -1.6128 -2.7387
  131OSM     NF14014   3.871   4.317   2.464  0.3457  0.7262  0.3174
  131OSM    HNF14015   3.941   4.345   2.529  0.6293 -0.4299  0.5229
  131OSM    C2S14016   3.896   4.188   2.389  0.1464 -0.7406  0.4245
  131OSM    H2S14017   3.811   4.122   2.418 -0.4575  0.1222  0.6907
  131OSM    C3S14018   4.033   4.122   2.432  0.2794  0.5851  1.1379
  131OSM    H3S14019   4.114   4.196   2.414  1.6989 -0.6474  2.1791
  131OSM     O314020   4.059   4.011   2.343  0.0588  0.7454 -0.0780
  131OSM    HO314021   4.002   4.035   2.271  1.2396  0.3694 -1.1779
  131OSM    C4S14022   4.025   4.090   2.580 -0.0623 -0.3194  0.1255
  131OSM    H4S14023   4.083   4.160   2.642  0.1039 -0.8806  0.6198
  131OSM    C5S14024   3.960   3.993   2.642  0.2524  0.7766 -0.0803
  131OSM    H5S14025   3.896   3.928   2.580  0.9143  0.8979 -0.9115
  131OSM    C6S14026   3.962   3.963   2.791 -0.1426 -0.2725  0.3345
  131OSM    H6S14027   3.876   3.896   2.812  0.3560 -0.5682  1.4900
  131OSM    H6T14028   3.951   4.056   2.850 -0.0902  0.3934 -0.6737
  131OSM    C7S14029   4.089   3.887   2.843  0.6488  0.9080  0.9661
  131OSM    H7S14030   4.182   3.941   2.813  0.4628 -0.1645 -1.8282
  131OSM    H7T14031   4.105   3.783   2.809 -1.2408  0.0557  2.5446
  131OSM    C8S14032   4.093   3.882   2.994 -0.7663 -0.5419 -0.3624
  131OSM    H8S14033   4.041   3.973   3.030 -2.2227 -1.1361 -0.8886
  131OSM    H8T14034   4.195   3.870   3.037 -0.4492  0.8940 -0.6775
  131OSM    C9S14035   4.002   3.786   3.066 -0.2388  0.5538  0.1892
  131OSM    H9S14036   4.022   3.682   3.033  2.3626  1.2317 -0.5691
  131OSM    H9T14037   3.897   3.804   3.033 -1.0791 -1.5625  1.5323
  131OSM   C10S14038   4.016   3.791   3.224  0.3145  0.0395 -0.0424
  131OSM   H10S14039   4.008   3.896   3.259 -1.0250 -0.1813  0.3588
  131OSM   H10T14040   4.110   3.740   3.254 -1.3527 -1.4768  3.1043
  131OSM   C11S14041   3.896   3.713   3.292 -0.2276  1.0069 -0.1782
  131OSM   H11S14042   3.889   3.609   3.252 -1.6054  0.0686  2.2656
  131OSM   H11T14043   3.799   3.756   3.261 -0.8770 -0.5273 -0.3949
  131OSM   C12S14044   3.916   3.702   3.442 -0.3334  0.0554  1.0746
  131OSM   H12S14045   3.903   3.802   3.488 -1.4809  0.0259  0.8526
  131OSM   H12T14046   4.019   3.675   3.472  0.9982 -0.1577 -3.0137
  131OSM   C13S14047   3.813   3.619   3.509  0.5448 -0.1933  0.5029
  131OSM   H13S14048   3.840   3.511   3.502  2.0435 -0.0085  2.5229
  131OSM   H13T14049   3.715   3.645   3.463 -0.1894 -2.1364  0.8645
  131OSM   C14S14050   3.795   3.664   3.653  0.5239 -0.5851  0.0557
  131OSM   H14S14051   3.757   3.768   3.658  0.3296 -0.6809  0.5546
  131OSM   H14T14052   3.887   3.661   3.715 -0.5241 -0.9673  1.6457
  131OSM   C15S14053   3.688   3.573   3.719  0.4779  0.5990 -0.3152
  131OSM   H15S14054   3.724   3.468   3.728  0.9123  0.7157 -0.6646
  131OSM   H15T14055   3.598   3.560   3.656 -0.3528  0.6215  0.8306
  131OSM   C16S14056   3.642   3.609   3.860  0.0460 -0.1310  0.7802
  131OSM   H16S14057   3.544   3.566   3.892 -0.4818  1.0431  0.8044
  131OSM   H16T14058   3.613   3.716   3.865 -1.6818 -0.6162  2.1414
  131OSM   C17S14059   3.737   3.582   3.978  0.6488  0.2097 -0.1175
  131OSM   H17S14060   3.841   3.584   3.939  1.3094  1.2150  1.5665
  131OSM   H17T14061   3.720   3.480   4.018  1.1446  0.3141  0.3745
  131OSM   C18S14062   3.726   3.684   4.087 -1.2037 -0.2351 -0.0294
  131OSM   H18S14063   3.798   3.667   4.170 -1.2185 -0.7314 -0.1151
  131OSM   H18T14064   3.625   3.685   4.135  0.0368  0.1825  2.7606
  131OSM   H18U14065   3.749   3.784   4.044  1.3658 -0.0111  1.6601
  131OSM    C1F14066   3.755   4.376   2.456  0.2267  0.3189  0.1124
  131OSM     OF14067   3.659   4.315   2.416  0.4052  0.2177  0.9891
  131OSM    C2F14068   3.749   4.518   2.517  0.6242  0.6320 -0.4090
  131OSM    H2F14069   3.728   4.588   2.433  1.7542 -0.0735 -1.2964
  131OSM    H2G14070   3.843   4.551   2.566 -0.9256  1.4295  2.2817
  131OSM    C3F14071   3.629   4.515   2.619  0.4126 -0.2186 -0.4701
  131OSM    H3F14072   3.530   4.483   2.580 -0.7680  2.8333 -0.2138
  131OSM    H3G14073   3.602   4.616   2.657  0.9001 -0.7677  1.4592
  131OSM    C4F14074   3.651   4.424   2.737  0.6596 -0.4101  0.0533
  131OSM    H4F14075   3.750   4.451   2.781  0.1655  0.3664  0.7273
  131OSM    H4G14076   3.661   4.318   2.706  4.1086 -0.0191 -0.5491
  131OSM    C5F14077   3.553   4.444   2.846 -0.3926  0.1361 -0.8977
  131OSM    H5F14078   3.451   4.433   2.805 -0.6615 -1.0071  0.0013
  131OSM    H5G14079   3.568   4.550   2.873  1.0406  0.0688 -1.3435
  131OSM    C6F14080   3.567   4.336   2.970 -0.4155 -0.2955 -0.6268
  131OSM    H6F14081   3.672   4.341   3.004 -0.1397  0.1461 -1.5026
  131OSM    H6G14082   3.547   4.234   2.928  0.5788  0.0144 -1.9136
  131OSM    C7F14083   3.470   4.382   3.082  0.1278  0.5360 -0.0643
  131OSM    H7F14084   3.370   4.374   3.033 -0.0953 -1.5477  0.6273
  131OSM    H7G14085   3.488   4.483   3.125 -1.0159  1.3057 -1.3106
  131OSM    C8F14086   3.457   4.291   3.199  0.1591  0.3899 -0.4935
  131OSM    H8F14087   3.444   4.183   3.177 -2.3411  0.7032 -0.8595
  131OSM    H8G14088   3.367   4.319   3.257 -0.8555 -2.3676 -0.5883
  131OSM    C9F14089   3.582   4.307   3.285 -0.1668  0.9632  0.5167
  131OSM    H9F14090   3.592   4.404   3.336  1.5818  0.8120  0.5374
  131OSM   C10F14091   3.677   4.212   3.305  0.2012 -0.0449  0.1588
  131OSM   H10F14092   3.766   4.243   3.361 -0.1160  2.2390 -0.4989
  131OSM   C11F14093   3.678   4.071   3.260 -0.3714  0.3580 -0.0106
  131OSM   H11F14094   3.774   4.027   3.295 -1.4451  0.1796  3.0086
  131OSM   H11G14095   3.674   4.088   3.150  0.2493 -0.7784 -0.2259
  131OSM   C12F14096   3.564   3.977   3.293 -0.1964 -0.4940  0.0243
  131OSM   H12F14097   3.592   3.873   3.264 -0.6463 -0.9032  0.9976
  131OSM   H12G14098   3.469   4.005   3.242 -0.1584  2.7789  1.5092
  131OSM   C13F14099   3.528   3.955   3.443  0.1587  0.3363  0.1006
  131OSM   H13F14100   3.476   4.043   3.488 -2.8957 -0.4515 -1.5953
  131OSM   H13G14101   3.620   3.928   3.499  2.3251  2.0809 -2.4001
  131OSM   C14F14102   3.432   3.836   3.457 -0.3081  0.6621 -0.6564
  131OSM   H14F14103   3.484   3.744   3.424  0.6667  1.4067 -1.2370
  131OSM   H14G14104   3.340   3.850   3.396 -1.4212 -1.2077  0.4869
  131OSM   C15F14105   3.375   3.802   3.595  0.4048  0.1852  0.4476
  131OSM   H15F14106   3.462   3.800   3.664 -0.6170 -1.0805  1.7753
  131OSM   H15G14107   3.324   3.703   3.598 -0.1262  0.3587 -1.4724
  131OSM   C16F14108   3.281   3.911   3.652  0.0523 -0.6910  0.1288
  131OSM   H16F14109   3.198   3.928   3.580 -0.1302  1.0040  0.7036
  131OSM   H16G14110   3.316   4.015   3.668 -1.8693  0.1841 -0.9733
  131OSM   C17F14111   3.193   3.874   3.780  0.4741 -0.6622  0.0812
  131OSM   H17F14112   3.253   3.912   3.866  2.4187  0.0450 -1.5189
  131OSM   H17G14113   3.187   3.763   3.780 -0.4266 -0.6327 -1.3407
  131OSM   C18F14114   3.056   3.942   3.790 -0.0239 -0.0966 -0.4185
  131OSM   H18F14115   3.012   3.914   3.888  0.1384  0.1405 -0.2737
  131OSM   H18G14116   2.990   3.917   3.705 -1.0625  1.3702 -0.0953
  131OSM   H18H14117   3.070   4.051   3.775  1.9170 -0.3644 -0.7934
  132OSM      N14118   2.351   5.510   2.371 -0.0154  0.1141  0.1842
  132OSM    C1514119   2.422   5.378   2.364 -0.2796  0.0404 -0.4903
  132OSM   H15A14120   2.509   5.376   2.428 -0.1683  1.1332 -0.5825
  132OSM   H15B14121   2.451   5.342   2.266  1.6010 -0.0866  0.0845
  132OSM   H15C14122   2.348   5.315   2.411 -0.3758 -0.1062 -0.8324
  132OSM    C1414123   2.457   5.618   2.338 -0.0110 -0.6588 -1.1299
  132OSM   H14A14124   2.545   5.597   2.397  1.1249  1.8762 -1.7737
  132OSM   H14B14125   2.418   5.716   2.358  0.2599 -0.8807  0.5790
  132OSM   H14C14126   2.481   5.614   2.232 -2.8735  2.5882 -2.0787
  132OSM    C1314127   2.244   5.515   2.268 -0.1392  0.8348  0.5564
  132OSM   H13A14128   2.173   5.434   2.280 -2.3411  2.3737 -1.2361
  132OSM   H13B14129   2.285   5.493   2.170 -0.6066  1.6240  0.1741
  132OSM   H13C14130   2.184   5.605   2.264 -0.5647  0.5372 -0.0065
  132OSM    C1214131   2.299   5.533   2.510 -0.3071  0.3024 -0.0455
  132OSM   H12A14132   2.288   5.639   2.528 -0.2166  0.1180  1.2227
  132OSM   H12B14133   2.371   5.494   2.580 -1.6885 -2.4895 -0.0627
  132OSM    C1114134   2.161   5.461   2.528  0.6524 -0.0834  0.4747
  132OSM   H11A14135   2.090   5.533   2.480  2.3538  1.7529  0.6054
  132OSM   H11B14136   2.136   5.455   2.637  1.1390  0.6770  0.6329
  132OSM      P14137   2.030   5.242   2.485  0.5000 -0.2433 -0.2144
  132OSM    O1314138   1.921   5.329   2.535  0.0341 -0.3362  0.1153
  132OSM    O1414139   2.021   5.182   2.354  0.0289 -0.2070 -0.5202
  132OSM    O1114140   2.061   5.136   2.586  0.2078  0.6614  0.2889
  132OSM    O1214141   2.162   5.335   2.479  0.2063 -0.4522 -0.0788
  132OSM    C1S14142   2.048   5.163   2.722 -0.2488 -0.0182 -0.0763
  132OSM    H1S14143   1.943   5.143   2.752 -0.6959  1.1934 -0.7855
  132OSM    H1T14144   2.068   5.269   2.746  0.2779  0.7797 -3.4719
  132OSM     NF14145   2.100   5.076   2.953  0.0848 -0.0877 -0.2457
  132OSM    HNF14146   2.168   5.105   3.019  2.2678 -0.7354 -2.0890
  132OSM    C2S14147   2.138   5.072   2.813 -0.1703 -0.0225  0.0120
  132OSM    H2S14148   2.109   4.969   2.784 -2.8083  0.3869  0.9203
  132OSM    C3S14149   2.287   5.088   2.774  0.0617  0.8948  0.3766
  132OSM    H3S14150   2.315   5.183   2.824 -1.7608  0.9834  1.2902
  132OSM     O314151   2.323   5.118   2.640 -0.5650  0.1138 -0.0046
  132OSM    HO314152   2.256   5.173   2.599  1.1565  2.2812 -0.0991
  132OSM    C4S14153   2.373   4.979   2.824  0.4830 -0.4235 -0.1129
  132OSM    H4S14154   2.397   4.991   2.930  2.3166  2.2690 -0.7351
  132OSM    C5S14155   2.421   4.868   2.756  0.0638  0.1436 -0.0919
  132OSM    H5S14156   2.373   4.844   2.659  0.4844 -2.3378  0.2451
  132OSM    C6S14157   2.505   4.755   2.805 -0.3603 -0.3042  0.1864
  132OSM    H6S14158   2.592   4.779   2.739 -1.0879  0.7855 -0.4159
  132OSM    H6T14159   2.471   4.657   2.767  2.0382 -0.8270 -0.8263
  132OSM    C7S14160   2.549   4.751   2.949 -0.4887  0.8949 -0.4161
  132OSM    H7S14161   2.458   4.762   3.012 -0.6912 -1.0331 -0.3272
  132OSM    H7T14162   2.620   4.834   2.970  1.2081 -0.4840 -0.4708
  132OSM    C8S14163   2.620   4.619   2.988  0.1192  0.6821 -1.1549
  132OSM    H8S14164   2.698   4.581   2.920  1.1939 -1.1644  0.9749
  132OSM    H8T14165   2.542   4.541   2.977 -0.7413  0.7037  3.0425
  132OSM    C9S14166   2.668   4.630   3.140  0.0344 -0.8148  0.0942
  132OSM    H9S14167   2.582   4.645   3.209  0.9204 -0.6819  1.2063
  132OSM    H9T14168   2.734   4.719   3.148 -1.4128  0.2255  0.9666
  132OSM   C10S14169   2.753   4.510   3.176 -0.4314  0.3618 -0.3052
  132OSM   H10S14170   2.851   4.531   3.127 -0.3359  3.0473  0.8362
  132OSM   H10T14171   2.706   4.417   3.139  2.2963 -0.5386 -1.8262
  132OSM   C11S14172   2.788   4.504   3.329  0.2864  0.3127  0.2833
  132OSM   H11S14173   2.829   4.599   3.369  0.0149  0.5089  0.1021
  132OSM   H11T14174   2.867   4.429   3.350  2.5827  2.3266 -0.6601
  132OSM   C12S14175   2.666   4.467   3.417  0.8037  0.2995  0.0309
  132OSM   H12S14176   2.624   4.365   3.403  1.4760 -0.0835  0.7109
  132OSM   H12T14177   2.578   4.531   3.397  0.4849 -0.1068  0.1257
  132OSM   C13S14178   2.694   4.486   3.568 -0.0196 -0.1141 -0.2482
  132OSM   H13S14179   2.600   4.480   3.627  0.0328  1.7548  0.0841
  132OSM   H13T14180   2.724   4.593   3.579 -3.6341  0.9830  0.0670
  132OSM   C14S14181   2.784   4.376   3.644  0.2842  0.7090  0.0742
  132OSM   H14S14182   2.884   4.374   3.594  1.2493 -0.6161  1.9538
  132OSM   H14T14183   2.733   4.283   3.611  2.1241 -0.4443  0.3269
  132OSM   C15S14184   2.809   4.395   3.798  0.4228 -0.3974 -0.5717
  132OSM   H15S14185   2.708   4.395   3.845  0.7230 -0.5644  0.0787
  132OSM   H15T14186   2.848   4.494   3.829 -1.7504  0.3118  0.1077
  132OSM   C16S14187   2.886   4.275   3.852  0.1188 -0.5003 -0.0892
  132OSM   H16S14188   2.976   4.259   3.790 -0.0637  2.5048 -1.2960
  132OSM   H16T14189   2.821   4.185   3.844  1.5834 -1.4382 -2.1026
  132OSM   C17S14190   2.927   4.297   3.999  0.1539 -0.2310  0.0085
  132OSM   H17S14191   2.836   4.327   4.057  1.3260  1.5687  1.0152
  132OSM   H17T14192   2.993   4.386   4.006 -1.9299  1.3228  1.3568
  132OSM   C18S14193   3.002   4.177   4.060 -0.4724  0.3711 -0.7663
  132OSM   H18S14194   3.053   4.199   4.156  0.4529 -1.9481 -0.6585
  132OSM   H18T14195   3.092   4.150   4.000  0.7774 -1.6813  1.8466
  132OSM   H18U14196   2.935   4.090   4.072  1.0838 -0.6494  1.2784
  132OSM    C1F14197   1.988   5.036   3.004 -0.1597 -0.7454 -0.3010
  132OSM     OF14198   1.901   4.974   2.943 -0.2211 -0.1980 -0.0732
  132OSM    C2F14199   1.972   5.064   3.155  0.0369  0.3368 -0.5170
  132OSM    H2F14200   2.015   5.159   3.193  0.9270 -0.8195  1.4966
  132OSM    H2G14201   2.039   4.991   3.204  0.2082  0.9068  0.1158
  132OSM    C3F14202   1.827   5.058   3.215  0.0716 -0.1190 -0.0051
  132OSM    H3F14203   1.753   5.108   3.150  0.1670 -3.2412 -2.7469
  132OSM    H3G14204   1.831   5.112   3.313 -0.7640 -0.9707  0.5145
  132OSM    C4F14205   1.785   4.916   3.236 -0.2378 -0.7735 -0.7616
  132OSM    H4F14206   1.803   4.852   3.147  0.5839  0.4119 -1.4733
  132OSM    H4G14207   1.681   4.907   3.275  0.1676  1.5778  1.0786
  132OSM    C5F14208   1.854   4.840   3.348  0.4475  0.5666  0.2756
  132OSM    H5F14209   1.963   4.844   3.328  0.1516 -1.6716 -2.4423
  132OSM    H5G14210   1.812   4.737   3.340 -0.9233  1.2246 -1.7608
  132OSM    C6F14211   1.822   4.894   3.484  0.1249  1.0345  0.2011
  132OSM    H6F14212   1.713   4.896   3.505  0.3775  0.6060  1.6754
  132OSM    H6G14213   1.864   4.997   3.486 -1.7187  1.8471 -0.5039
  132OSM    C7F14214   1.895   4.815   3.592  0.2366  0.1121 -0.5403
  132OSM    H7F14215   2.006   4.818   3.592  0.4181 -2.6464  1.9136
  132OSM    H7G14216   1.855   4.712   3.593 -1.4664  0.7019  2.4785
  132OSM    C8F14217   1.856   4.882   3.733  0.4222  0.4155 -0.3309
  132OSM    H8F14218   1.871   4.800   3.806  1.5629 -2.3807 -3.4295
  132OSM    H8G14219   1.748   4.906   3.735  0.2341 -0.2937 -1.1696
  132OSM    C9F14220   1.926   5.013   3.764  0.4456 -0.0295 -0.3483
  132OSM    H9F14221   1.950   5.083   3.683  0.9369  2.0296  1.4634
  132OSM   C10F14222   1.959   5.045   3.891 -0.2857  0.3713 -0.0567
  132OSM   H10F14223   2.024   5.131   3.915 -0.1533  0.9866 -2.3515
  132OSM   C11F14224   1.909   4.965   4.005  0.2339 -0.4148 -0.2626
  132OSM   H11F14225   1.824   4.896   3.985 -1.2400  0.6423  1.9381
  132OSM   H11G14226   1.876   5.044   4.076 -0.6619 -1.6821  0.7955
  132OSM   C12F14227   2.009   4.874   4.075  0.6562 -0.3457  0.0652
  132OSM   H12F14228   2.086   4.932   4.130  0.1569 -0.1081  0.5258
  132OSM   H12G14229   2.049   4.804   3.999 -0.5237  0.0143 -0.9030
  132OSM   C13F14230   1.943   4.789   4.191  0.3698  0.0015 -0.2675
  132OSM   H13F14231   1.869   4.714   4.155  0.0154 -1.4793  3.1283
  132OSM   H13G14232   1.887   4.858   4.257  0.7459  0.7306 -0.6970
  132OSM   C14F14233   2.054   4.719   4.274  0.0521  0.6201 -0.0504
  132OSM   H14F14234   2.130   4.799   4.290 -1.2514  2.0980 -0.9313
  132OSM   H14G14235   2.095   4.633   4.217 -3.9231 -2.3189  1.0968
  132OSM   C15F14236   2.016   4.657   4.408  0.7168 -0.4265 -0.8240
  132OSM   H15F14237   2.107   4.610   4.451  1.0184 -0.4713 -1.5057
  132OSM   H15G14238   1.944   4.575   4.388  0.0215  0.0206 -0.2160
  132OSM   C16F14239   1.953   4.762   4.498  0.0226  0.1854 -0.0641
  132OSM   H16F14240   1.859   4.790   4.447  0.4522  0.6885 -0.5885
  132OSM   H16G14241   2.014   4.855   4.494 -0.2493  0.3357 -0.8918
  132OSM   C17F14242   1.927   4.725   4.648  0.2216 -1.0755  0.6398
  132OSM   H17F14243   1.911   4.616   4.660  2.4232 -1.6542 -0.9813
  132OSM   H17G14244   1.830   4.776   4.670  2.1220  2.1828  2.1496
  132OSM   C18F14245   2.035   4.781   4.745 -0.0461 -0.2367  0.0520
  132OSM   H18F14246   1.974   4.788   4.837 -0.4364  0.2404 -0.2355
  132OSM   H18G14247   2.079   4.880   4.719  1.3077 -1.2032 -1.4942
  132OSM   H18H14248   2.108   4.699   4.763 -0.5600 -0.8988 -0.7981
  133OSM      N14249   1.116   5.674   2.631  0.0503 -0.1545 -0.0751
  133OSM    C1514250   1.105   5.641   2.483 -0.2013 -0.3974  0.1873
  133OSM   H15A14251   1.189   5.579   2.455  1.0359  1.0084  0.6662
  133OSM   H15B14252   1.119   5.720   2.410  0.4686 -0.6348  0.0538
  133OSM   H15C14253   1.009   5.599   2.457 -1.2794  2.5150 -0.9604
  133OSM    C1414254   1.128   5.540   2.695  0.1203  0.1586 -0.5644
  133OSM   H14A14255   1.117   5.557   2.801 -0.8974  0.9972 -0.7870
  133OSM   H14B14256   1.217   5.485   2.672 -0.7231 -0.9274 -1.3564
  133OSM   H14C14257   1.042   5.481   2.665 -0.9507  1.4660 -0.1591
  133OSM    C1314258   1.243   5.742   2.667  0.1320 -0.4348 -0.6893
  133OSM   H13A14259   1.230   5.766   2.771 -2.0996 -2.3094 -0.4479
  133OSM   H13B14260   1.263   5.833   2.613  1.9828  0.4840  1.4099
  133OSM   H13C14261   1.327   5.676   2.657 -0.1223 -0.8326 -0.2343
  133OSM    C1214262   0.992   5.742   2.682 -0.3661 -0.1882 -0.2174
  133OSM   H12A14263   0.905   5.706   2.630  0.7210  0.7174 -2.8133
  133OSM   H12B14264   0.998   5.846   2.655 -0.7963 -0.3532 -0.9634
  133OSM    C1114265   0.956   5.744   2.838 -0.7402 -0.0162 -0.6106
  133OSM   H11A14266   0.919   5.643   2.865 -1.8352  0.5029 -0.1072
  133OSM   H11B14267   0.877   5.814   2.874  0.9122  0.6407  1.9820
  133OSM      P14268   1.112   5.895   2.995 -0.3990  0.1852 -0.1488
  133OSM    O1314269   1.257   5.902   3.020  0.8776  0.3902 -0.2840
  133OSM    O1414270   1.053   6.010   2.931  0.0480 -0.5343  0.4691
  133OSM    O1114271   1.040   5.863   3.134 -0.1317 -0.2035  0.3938
  133OSM    O1214272   1.078   5.763   2.915 -0.0721 -0.2023 -0.4290
  133OSM    C1S14273   1.032   5.735   3.191  0.9136  0.3240  0.0886
  133OSM    H1S14274   1.134   5.709   3.225  1.5484  0.8573 -1.3232
  133OSM    H1T14275   0.992   5.654   3.125 -0.5302  0.0793  1.2235
  133OSM     NF14276   0.935   5.608   3.383 -0.7216  0.6388  0.8676
  133OSM    HNF14277   0.875   5.537   3.348 -0.6586  0.2156  1.5757
  133OSM    C2S14278   0.924   5.728   3.298  0.0984  0.2267 -0.5347
  133OSM    H2S14279   0.950   5.815   3.362 -0.8064  1.2591 -1.5300
  133OSM    C3S14280   0.783   5.749   3.236 -0.0644 -0.1893 -0.3835
  133OSM    H3S14281   0.746   5.675   3.162  2.3072 -0.9926 -0.8469
  133OSM     O314282   0.775   5.868   3.161 -0.5194 -0.4737  0.1140
  133OSM    HO314283   0.863   5.891   3.131 -0.6867 -0.0642 -0.0676
  133OSM    C4S14284   0.682   5.766   3.345 -0.1297 -0.5894 -0.6255
  133OSM    H4S14285   0.705   5.859   3.399  0.7524  0.4234 -2.6079
  133OSM    C5S14286   0.589   5.683   3.392 -0.5644 -0.4105 -0.3024
  133OSM    H5S14287   0.571   5.589   3.338  1.4549 -0.6251 -0.6817
  133OSM    C6S14288   0.507   5.708   3.515 -0.0836  0.1715 -0.0929
  133OSM    H6S14289   0.488   5.611   3.565 -3.0254  0.0817 -1.1833
  133OSM    H6T14290   0.405   5.744   3.490 -0.9800 -2.5050 -0.6259
  133OSM    C7S14291   0.587   5.793   3.631 -0.3880  0.4163 -0.3581
  133OSM    H7S14292   0.605   5.894   3.591 -0.5218  0.3508 -0.5837
  133OSM    H7T14293   0.686   5.749   3.654 -0.8311 -0.5326 -0.1851
  133OSM    C8S14294   0.519   5.786   3.768  0.4039 -0.3722 -0.1270
  133OSM    H8S14295   0.510   5.682   3.806 -3.4987 -0.3296 -0.5364
  133OSM    H8T14296   0.419   5.831   3.747 -0.5174 -1.1847  2.2488
  133OSM    C9S14297   0.591   5.875   3.878 -0.5463 -0.6428  0.6810
  133OSM    H9S14298   0.601   5.970   3.822 -1.2974 -1.5250 -1.0061
  133OSM    H9T14299   0.695   5.835   3.881 -0.0543  0.4277 -0.7977
  133OSM   C10S14300   0.505   5.880   4.003  0.9906 -0.3428  0.1261
  133OSM   H10S14301   0.489   5.775   4.034  0.3430 -0.2398  0.1464
  133OSM   H10T14302   0.406   5.910   3.963  0.6242 -1.8927 -0.1647
  133OSM   C11S14303   0.558   5.978   4.111 -0.6791  0.7385  0.4882
  133OSM   H11S14304   0.577   6.081   4.075  1.4459  0.2015 -0.0886
  133OSM   H11T14305   0.655   5.941   4.151  0.0943  1.2266 -0.8494
  133OSM   C12S14306   0.450   5.980   4.217  0.2176 -0.2420 -0.5056
  133OSM   H12S14307   0.419   5.875   4.236 -1.1676  0.1019 -0.7956
  133OSM   H12T14308   0.361   6.031   4.174 -0.4688 -1.6622 -0.8091
  133OSM   C13S14309   0.482   6.054   4.346  0.1818  0.7219 -0.3765
  133OSM   H13S14310   0.578   6.012   4.383 -0.1864  1.2440  1.2857
  133OSM   H13T14311   0.407   6.038   4.427 -0.2043  0.5643 -0.7640
  133OSM   C14S14312   0.479   6.204   4.329  0.0548  0.5222  0.5878
  133OSM   H14S14313   0.382   6.256   4.312  0.8631  2.2960  1.2184
  133OSM   H14T14314   0.515   6.223   4.226  0.3019 -1.5309  0.2479
  133OSM   C15S14315   0.548   6.283   4.434  0.5837  0.1882  0.0112
  133OSM   H15S14316   0.653   6.248   4.446  1.0015  0.8078 -1.6138
  133OSM   H15T14317   0.488   6.264   4.526 -0.2837 -1.6242 -0.8921
  133OSM   C16S14318   0.550   6.431   4.402 -0.4563  0.2589 -0.3904
  133OSM   H16S14319   0.453   6.472   4.368 -0.0643 -0.3460 -2.3762
  133OSM   H16T14320   0.621   6.443   4.317  0.0258 -2.5809 -0.4828
  133OSM   C17S14321   0.579   6.511   4.527 -0.1760 -0.2849 -0.1709
  133OSM   H17S14322   0.678   6.483   4.567  0.1739 -0.3633 -1.0613
  133OSM   H17T14323   0.501   6.489   4.603 -0.8730 -2.2714 -1.3828
  133OSM   C18S14324   0.571   6.659   4.499  0.0182  0.2453 -0.8024
  133OSM   H18S14325   0.653   6.683   4.427 -0.1231  0.9731 -0.7246
  133OSM   H18T14326   0.589   6.715   4.594 -0.9694  0.3042 -0.6433
  133OSM   H18U14327   0.474   6.693   4.457 -0.1612  1.6913  0.6723
  133OSM    C1F14328   1.046   5.587   3.451 -0.0932 -0.0481  0.1454
  133OSM     OF14329   1.131   5.672   3.460 -0.1079 -0.1207  0.2058
  133OSM    C2F14330   1.068   5.449   3.508  0.0833 -0.5693  0.6052
  133OSM    H2F14331   1.172   5.424   3.478 -0.4126  0.5166 -2.3719
  133OSM    H2G14332   0.998   5.380   3.457 -0.9942  0.3091  0.8335
  133OSM    C3F14333   1.070   5.442   3.665  0.3265 -0.2525 -0.7792
  133OSM    H3F14334   1.153   5.505   3.704  1.4274 -2.0596 -0.1227
  133OSM    H3G14335   1.082   5.339   3.703 -0.9557 -0.2885 -0.4070
  133OSM    C4F14336   0.936   5.481   3.726  0.0417 -0.2655  0.7527
  133OSM    H4F14337   0.900   5.579   3.687 -1.7658  0.0183  2.9776
  133OSM    H4G14338   0.939   5.493   3.836 -2.8532  1.7407  0.7296
  133OSM    C5F14339   0.838   5.368   3.693 -0.4448  0.0501  0.7326
  133OSM    H5F14340   0.869   5.265   3.723  0.3466 -0.0968 -0.5022
  133OSM    H5G14341   0.820   5.368   3.583  0.3842  0.9423  0.5860
  133OSM    C6F14342   0.700   5.401   3.750  0.2396 -0.9376  0.1640
  133OSM    H6F14343   0.675   5.508   3.736  1.7115 -0.6240 -0.1731
  133OSM    H6G14344   0.702   5.386   3.860 -2.5075 -0.7210  0.3201
  133OSM    C7F14345   0.597   5.307   3.691 -0.3318 -0.6152 -0.4693
  133OSM    H7F14346   0.621   5.200   3.704 -0.5110 -1.0125 -3.0103
  133OSM    H7G14347   0.587   5.334   3.584 -1.2187  3.5194  0.4511
  133OSM    C8F14348   0.460   5.330   3.764 -0.2602 -0.2986 -0.3322
  133OSM    H8F14349   0.418   5.428   3.735  1.4448  0.3316 -0.8463
  133OSM    H8G14350   0.480   5.353   3.871 -0.8336  1.1468 -0.5211
  133OSM    C9F14351   0.360   5.218   3.753  0.8216  0.2316 -0.1925
  133OSM    H9F14352   0.284   5.222   3.674  0.4616  1.5536  0.1932
  133OSM   C10F14353   0.349   5.115   3.834 -0.1280  0.7937  0.0022
  133OSM   H10F14354   0.271   5.039   3.816  2.0407 -1.6227  0.1858
  133OSM   C11F14355   0.431   5.075   3.955 -0.4705 -0.2088 -0.8855
  133OSM   H11F14356   0.394   5.129   4.044  3.1179 -2.8043  2.5299
  133OSM   H11G14357   0.537   5.100   3.936 -0.5664 -0.7745 -2.2940
  133OSM   C12F14358   0.409   4.919   3.970  1.1813 -0.1165 -1.0729
  133OSM   H12F14359   0.434   4.860   3.880 -1.1690 -0.3322 -1.6498
  133OSM   H12G14360   0.300   4.899   3.985  1.4877 -0.9359  0.2233
  133OSM   C13F14361   0.477   4.860   4.093 -0.8431  0.1746 -0.4999
  133OSM   H13F14362   0.434   4.906   4.184 -1.1215 -3.5407  1.4416
  133OSM   H13G14363   0.585   4.884   4.093 -0.8729  0.3769  1.1145
  133OSM   C14F14364   0.467   4.705   4.127  0.0050  0.2190 -0.3815
  133OSM   H14F14365   0.501   4.648   4.039 -2.0276 -0.7138 -0.6232
  133OSM   H14G14366   0.360   4.682   4.149 -0.3492  1.5805 -0.5921
  133OSM   C15F14367   0.560   4.653   4.240 -0.5140 -0.1718 -0.6783
  133OSM   H15F14368   0.669   4.674   4.236  0.1038 -2.6707  0.9690
  133OSM   H15G14369   0.540   4.544   4.236 -0.5611 -0.2363  0.7489
  133OSM   C16F14370   0.508   4.708   4.377 -0.2040 -0.6352 -0.5300
  133OSM   H16F14371   0.418   4.651   4.408 -0.3860 -0.5905 -0.9632
  133OSM   H16G14372   0.489   4.817   4.369  1.6193 -0.1759  0.8158
  133OSM   C17F14373   0.614   4.700   4.491 -0.0708  0.2033 -0.0190
  133OSM   H17F14374   0.694   4.758   4.439 -0.5533  1.0968  0.2101
  133OSM   H17G14375   0.662   4.601   4.506 -0.0233  0.3531  0.8637
  133OSM   C18F14376   0.560   4.754   4.619  0.1147 -0.7682  0.2219
  133OSM   H18F14377   0.631   4.727   4.699  2.7352 -0.0048 -1.7092
  133OSM   H18G14378   0.453   4.728   4.634 -0.1896 -0.0306 -0.5788
  133OSM   H18H14379   0.557   4.865   4.630  0.1318 -0.7549  0.1011
  134OSM      N14380   6.033   0.294   2.308  0.7621 -0.2050  0.3154
  134OSM    C1514381   5.927   0.192   2.336 -0.0791 -0.1049 -0.6787
  134OSM   H15A14382   5.955   0.100   2.285  0.4481 -0.6889  0.6303
  134OSM   H15B14383   5.827   0.220   2.304  0.2000 -0.2187 -1.6761
  134OSM   H15C14384   5.928   0.168   2.441  1.6700  1.9764 -0.1592
  134OSM    C1414385   6.160   0.229   2.350  0.8319  0.0915  0.2031
  134OSM   H14A14386   6.182   0.138   2.296  0.6592  0.3408 -0.2903
  134OSM   H14B14387   6.165   0.210   2.456  2.6086  0.3635  0.1918
  134OSM   H14C14388   6.245   0.294   2.339  0.8393  0.1220  0.4237
  134OSM    C1314389   6.041   0.316   2.161 -0.4334  0.5471 -0.2723
  134OSM   H13A14390   5.946   0.315   2.110  0.2425  0.7516 -1.5925
  134OSM   H13B14391   6.101   0.240   2.112 -1.6107  1.3323 -3.1512
  134OSM   H13C14392   6.090   0.410   2.139  2.3895 -0.7426  0.0695
  134OSM    C1214393   6.001   0.430   2.371  0.5758  1.0887  0.5215
  134OSM   H12A14394   5.916   0.481   2.328 -0.9974 -1.4241  0.4496
  134OSM   H12B14395   6.081   0.497   2.341  0.8222  1.8647  2.7367
  134OSM    C1114396   6.003   0.455   2.526 -0.3404 -0.5303  0.2272
  134OSM   H11A14397   5.990   0.565   2.537 -1.8040 -0.6919  0.3950
  134OSM   H11B14398   6.097   0.431   2.580 -0.1055  1.0400  0.5771
  134OSM      P14399   5.749   0.420   2.561  0.4771  0.0458  0.0802
  134OSM    O1314400   5.730   0.476   2.424 -0.1345 -0.1050  0.2507
  134OSM    O1414401   5.668   0.303   2.596 -0.1733  0.7273 -0.3581
  134OSM    O1114402   5.733   0.543   2.665 -0.2532  0.2643  0.3852
  134OSM    O1214403   5.897   0.386   2.583 -0.3800 -0.3576 -0.0391
  134OSM    C1S14404   5.678   0.517   2.795  0.0166 -0.1877  0.2877
  134OSM    H1S14405   5.662   0.410   2.819 -0.7950 -0.0160  0.5507
  134OSM    H1T14406   5.582   0.571   2.807 -0.6180 -1.2936  0.2990
  134OSM     NF14407   5.736   0.511   3.048  0.0077 -0.4343  0.2959
  134OSM    HNF14408   5.694   0.573   3.114 -0.7007 -1.3574  0.7375
  134OSM    C2S14409   5.778   0.567   2.913 -0.0137  0.3429  0.7009
  134OSM    H2S14410   5.866   0.510   2.877  0.9361  1.7825  0.6889
  134OSM    C3S14411   5.802   0.718   2.904  0.0997 -0.9429 -0.3071
  134OSM    H3S14412   5.702   0.761   2.928  0.6868  1.0431 -1.1715
  134OSM     O314413   5.832   0.766   2.771 -0.4790 -0.5599  0.2440
  134OSM    HO314414   5.801   0.695   2.713  1.0846  0.7042 -2.3273
  134OSM    C4S14415   5.907   0.750   3.001 -0.3775 -0.7222  0.3547
  134OSM    H4S14416   5.869   0.800   3.091 -1.2161  2.1795 -1.4671
  134OSM    C5S14417   6.038   0.758   2.980  0.0750 -0.0174 -1.0469
  134OSM    H5S14418   6.067   0.741   2.875 -0.6009  0.5341 -1.3305
  134OSM    C6S14419   6.145   0.823   3.068 -0.5387 -0.1907  0.1086
  134OSM    H6S14420   6.228   0.856   3.003 -0.9801  2.4399  0.7582
  134OSM    H6T14421   6.194   0.754   3.140  1.8652  2.4972  1.2925
  134OSM    C7S14422   6.097   0.948   3.149  0.1116 -0.6746  0.2128
  134OSM    H7S14423   6.001   0.918   3.197 -1.8311  1.0696 -2.2831
  134OSM    H7T14424   6.076   1.041   3.091 -2.9034 -0.9102  0.7307
  134OSM    C8S14425   6.208   0.973   3.257  0.0128 -0.5632  0.6324
  134OSM    H8S14426   6.301   0.998   3.200 -0.1669 -0.4449  0.3891
  134OSM    H8T14427   6.225   0.878   3.310 -1.0315 -0.1622  1.7153
  134OSM    C9S14428   6.169   1.090   3.345  0.4125  0.5235 -0.0162
  134OSM    H9S14429   6.136   1.175   3.281  0.1354 -0.6907 -1.5471
  134OSM    H9T14430   6.262   1.133   3.389 -0.2338  1.4104  0.5116
  134OSM   C10S14431   6.084   1.049   3.464 -0.0600 -0.6821  0.3531
  134OSM   H10S14432   5.993   0.992   3.434 -1.7988  1.7549  0.6823
  134OSM   H10T14433   6.041   1.140   3.511  2.3039  0.8321 -0.2777
  134OSM   C11S14434   6.164   0.978   3.571  0.3464  0.1850 -1.2949
  134OSM   H11S14435   6.253   1.036   3.604 -0.6086  0.0444  1.7954
  134OSM   H11T14436   6.206   0.883   3.532  0.0778 -1.4413  2.0595
  134OSM   C12S14437   6.062   0.946   3.681  0.4765 -0.0449  0.7466
  134OSM   H12S14438   6.095   0.853   3.733  0.6849  0.2014  1.0591
  134OSM   H12T14439   5.969   0.915   3.628  0.1717 -1.1452  1.8624
  134OSM   C13S14440   6.037   1.063   3.770  0.1335  0.4683  0.2697
  134OSM   H13S14441   5.992   1.155   3.725  3.0972  2.8335  1.7756
  134OSM   H13T14442   6.133   1.105   3.806  1.1959  0.1860 -2.0695
  134OSM   C14S14443   5.948   1.027   3.889 -0.0389 -0.5013  0.4268
  134OSM   H14S14444   5.994   0.940   3.942 -0.1715 -0.4778  0.5819
  134OSM   H14T14445   5.848   0.998   3.851  0.3109 -4.5756  2.0897
  134OSM   C15S14446   5.934   1.133   3.998  0.5534 -0.6824  0.2278
  134OSM   H15S14447   5.908   1.234   3.960 -0.7506 -1.3541 -0.7662
  134OSM   H15T14448   6.029   1.152   4.052  0.8565 -1.0390 -0.1768
  134OSM   C16S14449   5.831   1.093   4.097  0.5544  0.4192 -0.1482
  134OSM   H16S14450   5.866   1.000   4.146 -0.4357  0.6555  1.0698
  134OSM   H16T14451   5.740   1.075   4.035 -0.3069 -2.2866  1.7397
  134OSM   C17S14452   5.806   1.200   4.205 -0.2140 -0.6155 -0.1582
  134OSM   H17S14453   5.811   1.298   4.154 -1.4245 -0.3127  0.2738
  134OSM   H17T14454   5.881   1.203   4.287 -0.0996 -0.9172 -0.2491
  134OSM   C18S14455   5.661   1.175   4.266  0.2321 -0.4181  0.7828
  134OSM   H18S14456   5.636   1.248   4.345 -0.5896  1.1831 -0.8901
  134OSM   H18T14457   5.671   1.072   4.308  0.8353  0.4778  2.9484
  134OSM   H18U14458   5.593   1.173   4.179  0.3473 -2.8472  0.6583
  134OSM    C1F14459   5.743   0.382   3.075  0.2792 -0.4741 -0.1217
  134OSM     OF14460   5.800   0.300   3.001 -0.1868 -0.6600 -0.4679
  134OSM    C2F14461   5.694   0.334   3.206  0.1401 -0.0213  0.7577
  134OSM    H2F14462   5.588   0.301   3.202  0.4248 -1.0416  1.2232
  134OSM    H2G14463   5.695   0.419   3.277  0.7340  2.2989 -1.8955
  134OSM    C3F14464   5.777   0.204   3.263  0.1260  0.1903 -0.2402
  134OSM    H3F14465   5.883   0.234   3.277  0.5217 -0.2332 -2.0470
  134OSM    H3G14466   5.764   0.126   3.185 -0.0850  0.4650 -0.4821
  134OSM    C4F14467   5.714   0.144   3.386  0.4147  0.7488  0.2134
  134OSM    H4F14468   5.765   0.051   3.417 -0.5529  0.1928  0.1823
  134OSM    H4G14469   5.612   0.103   3.370  1.6174 -1.6452 -2.1207
  134OSM    C5F14470   5.715   0.232   3.510 -0.9120  0.2796 -0.2745
  134OSM    H5F14471   5.647   0.318   3.491 -0.4500  0.6722 -0.1936
  134OSM    H5G14472   5.816   0.279   3.512 -0.2886 -1.0320  2.2736
  134OSM    C6F14473   5.700   0.160   3.647  0.3253 -0.6720 -0.1398
  134OSM    H6F14474   5.790   0.096   3.655 -0.2643 -1.3868  1.0872
  134OSM    H6G14475   5.612   0.093   3.632 -0.5255  0.0732  1.2890
  134OSM    C7F14476   5.690   0.263   3.767 -0.4004  0.5611 -0.0808
  134OSM    H7F14477   5.783   0.323   3.770  0.1639 -0.2931 -0.1243
  134OSM    H7G14478   5.689   0.197   3.856  0.2547  0.3301 -0.2359
  134OSM    C8F14479   5.552   0.339   3.766 -0.4668  0.1486  0.2728
  134OSM    H8F14480   5.556   0.408   3.679  0.8857  1.6162  1.4324
  134OSM    H8G14481   5.568   0.404   3.854  0.9773  0.9044 -0.5139
  134OSM    C9F14482   5.429   0.249   3.769 -0.0764 -0.5209  0.0849
  134OSM    H9F14483   5.402   0.204   3.673  1.6644  0.9270 -1.1477
  134OSM   C10F14484   5.335   0.260   3.866  0.6735 -0.5650 -0.3966
  134OSM   H10F14485   5.254   0.187   3.874  1.4077 -1.2547  1.2234
  134OSM   C11F14486   5.348   0.331   3.995 -0.6468 -0.3817 -0.0396
  134OSM   H11F14487   5.365   0.439   3.975  1.0097 -0.4951  0.6307
  134OSM   H11G14488   5.434   0.298   4.057 -0.7227 -1.7167 -0.5908
  134OSM   C12F14489   5.228   0.301   4.090  0.1421 -0.2148 -0.2059
  134OSM   H12F14490   5.207   0.193   4.103 -0.6001  0.0526  0.9698
  134OSM   H12G14491   5.139   0.339   4.036 -0.7780 -3.3203 -1.0667
  134OSM   C13F14492   5.242   0.363   4.237  0.3885  0.4255 -0.2651
  134OSM   H13F14493   5.222   0.471   4.224 -2.1391  0.2979  1.6850
  134OSM   H13G14494   5.344   0.352   4.281  0.1875  2.0081  0.6765
  134OSM   C14F14495   5.146   0.306   4.341 -0.5230  0.0756 -0.2054
  134OSM   H14F14496   5.191   0.209   4.370 -1.0194 -0.6769 -1.8415
  134OSM   H14G14497   5.044   0.292   4.300 -0.5345  0.4797 -0.3236
  134OSM   C15F14498   5.143   0.385   4.472 -0.8040  0.6442  0.0427
  134OSM   H15F14499   5.247   0.406   4.504 -0.1110 -1.8842 -0.3854
  134OSM   H15G14500   5.095   0.318   4.546 -1.5307  0.0415 -0.9394
  134OSM   C16F14501   5.074   0.518   4.465  0.1461 -0.3004 -0.0216
  134OSM   H16F14502   4.968   0.485   4.468  0.0369  0.1295  1.7886
  134OSM   H16G14503   5.091   0.567   4.367 -1.3886 -1.0407 -0.6983
  134OSM   C17F14504   5.111   0.620   4.569  0.6271 -0.0733 -0.5887
  134OSM   H17F14505   5.055   0.711   4.539 -0.4366 -0.5469 -0.0968
  134OSM   H17G14506   5.218   0.650   4.560  0.4690  0.4163 -0.8460
  134OSM   C18F14507   5.072   0.570   4.710 -0.9073  0.0812  0.4637
  134OSM   H18F14508   5.149   0.504   4.755  0.0384 -0.4929 -1.8700
  134OSM   H18G14509   4.977   0.512   4.703 -2.0531  1.7897  1.0906
  134OSM   H18H14510   5.065   0.661   4.774  0.6075 -0.3081  1.2134
  135OSM      N14511   2.316   1.026   2.027 -0.1743 -0.3396  0.1396
  135OSM    C1514512   2.184   1.072   1.969  0.6605  0.9078 -0.1442
  135OSM   H15A14513   2.127   1.139   2.031 -3.7382 -0.4433 -2.2836
  135OSM   H15B14514   2.114   0.991   1.959  1.4162  0.0393  1.2364
  135OSM   H15C14515   2.186   1.122   1.873 -1.5652  0.3335 -0.5390
  135OSM    C1414516   2.388   0.936   1.928  0.1671  0.3389 -0.0172
  135OSM   H14A14517   2.350   0.835   1.932  0.6936  0.1405  0.0524
  135OSM   H14B14518   2.493   0.927   1.948  0.1761  0.6595  0.0923
  135OSM   H14C14519   2.375   0.975   1.828 -1.1907 -1.5793 -0.6414
  135OSM    C1314520   2.406   1.140   2.045 -0.0576  0.0969 -0.3717
  135OSM   H13A14521   2.412   1.186   1.948  0.4980  1.0681  0.1116
  135OSM   H13B14522   2.502   1.102   2.080  0.2690 -1.1329 -2.4259
  135OSM   H13C14523   2.367   1.209   2.118 -2.0278 -1.5679  0.2431
  135OSM    C1214524   2.294   0.949   2.156 -0.2393 -0.0799  0.7225
  135OSM   H12A14525   2.393   0.920   2.189 -0.2159 -1.2915 -0.3275
  135OSM   H12B14526   2.240   0.859   2.133 -0.7262 -0.0344  1.6145
  135OSM    C1114527   2.205   1.004   2.268 -0.2485 -1.0125 -0.2976
  135OSM   H11A14528   2.166   0.921   2.330 -0.3475  0.0536  1.1376
  135OSM   H11B14529   2.123   1.055   2.214 -0.4481  0.5289  1.3567
  135OSM      P14530   2.416   1.095   2.410 -0.1219  0.0566 -0.1759
  135OSM    O1314531   2.490   0.975   2.364  0.1905  0.4579 -0.0812
  135OSM    O1414532   2.480   1.223   2.386 -0.3899  0.2676  0.0140
  135OSM    O1114533   2.390   1.080   2.564  0.3099 -1.2979 -0.0274
  135OSM    O1214534   2.267   1.100   2.352  0.2394  0.0043  0.1452
  135OSM    C1S14535   2.329   0.961   2.613  0.6634  0.7426 -0.0211
  135OSM    H1S14536   2.373   0.866   2.574 -3.4421 -0.9405 -1.1045
  135OSM    H1T14537   2.222   0.960   2.582  0.7083  1.0859 -0.1879
  135OSM     NF14538   2.262   0.821   2.815 -0.1243 -0.0989  0.3810
  135OSM    HNF14539   2.180   0.832   2.871 -0.6544  0.5662 -0.5076
  135OSM    C2S14540   2.332   0.939   2.770  0.0120 -0.0358 -0.3578
  135OSM    H2S14541   2.439   0.932   2.802 -0.5200  0.6057  1.7131
  135OSM    C3S14542   2.275   1.070   2.837  0.1519  0.5578  0.8657
  135OSM    H3S14543   2.169   1.084   2.805  0.1497 -0.8288  0.1801
  135OSM     O314544   2.341   1.192   2.800  0.6819 -0.5974  0.4618
  135OSM    HO314545   2.387   1.162   2.721 -0.2205 -0.4893 -0.1311
  135OSM    C4S14546   2.279   1.053   2.991 -0.8162 -0.5671  0.1364
  135OSM    H4S14547   2.191   1.015   3.045  0.5183 -1.3786  1.8602
  135OSM    C5S14548   2.385   1.078   3.071 -0.3014  0.1669  0.5034
  135OSM    H5S14549   2.474   1.126   3.028  0.6382 -0.6992  1.4226
  135OSM    C6S14550   2.398   1.046   3.220 -0.0262  0.4225  0.2207
  135OSM    H6S14551   2.392   1.133   3.289  0.5259 -0.8847  1.9805
  135OSM    H6T14552   2.485   0.979   3.238 -0.3202 -0.1758 -0.5419
  135OSM    C7S14553   2.299   0.940   3.276 -0.0040  0.4501 -0.2649
  135OSM    H7S14554   2.314   0.849   3.214 -2.0510 -0.1578  0.0581
  135OSM    H7T14555   2.191   0.959   3.260 -0.1884  0.1743  0.6449
  135OSM    C8S14556   2.324   0.914   3.421 -0.2837 -0.4738 -0.2926
  135OSM    H8S14557   2.288   1.002   3.478 -2.5764  0.4989 -3.0275
  135OSM    H8T14558   2.435   0.904   3.431  0.1282  0.1406 -3.3732
  135OSM    C9S14559   2.246   0.797   3.479  0.5509  0.0641 -0.2854
  135OSM    H9S14560   2.275   0.709   3.418 -0.9706  0.8772 -2.3080
  135OSM    H9T14561   2.138   0.813   3.460  0.1732  0.6091  2.0184
  135OSM   C10S14562   2.290   0.745   3.616 -0.3155  0.2724 -0.2184
  135OSM   H10S14563   2.396   0.718   3.602 -0.7799 -2.0044  0.1888
  135OSM   H10T14564   2.234   0.651   3.639 -0.0918  0.2501  0.2444
  135OSM   C11S14565   2.267   0.834   3.734  0.3095  0.0054  0.5061
  135OSM   H11S14566   2.159   0.860   3.739  0.1530 -0.6463  0.6713
  135OSM   H11T14567   2.321   0.931   3.736 -0.3402  0.3513  2.1773
  135OSM   C12S14568   2.311   0.760   3.862 -1.0962 -0.1187 -0.0954
  135OSM   H12S14569   2.323   0.836   3.943 -3.3323  0.0619  0.1259
  135OSM   H12T14570   2.408   0.710   3.841 -1.5938 -0.7492 -0.9106
  135OSM   C13S14571   2.216   0.650   3.913 -0.2174 -0.3534  0.7725
  135OSM   H13S14572   2.265   0.576   3.980 -0.6938 -1.1613  0.2431
  135OSM   H13T14573   2.174   0.588   3.831 -0.5474 -0.7305  1.2168
  135OSM   C14S14574   2.093   0.713   3.993 -0.1544 -0.4917  0.7190
  135OSM   H14S14575   2.045   0.779   3.917  1.1322  0.6270  0.8297
  135OSM   H14T14576   2.129   0.773   4.079  2.5666 -2.1574  0.8538
  135OSM   C15S14577   1.981   0.626   4.041 -0.1477 -0.4695  0.3154
  135OSM   H15S14578   1.942   0.560   3.960 -1.4905 -0.4236  0.9095
  135OSM   H15T14579   1.892   0.678   4.082  0.9629  0.4909  1.5719
  135OSM   C16S14580   2.047   0.537   4.148  0.1616  0.4250 -1.0512
  135OSM   H16S14581   2.112   0.592   4.218  0.3740  2.0715 -2.4717
  135OSM   H16T14582   2.120   0.459   4.118  0.7649  0.2313  0.8279
  135OSM   C17S14583   1.945   0.473   4.238 -0.2403 -0.1754  0.5243
  135OSM   H17S14584   1.878   0.421   4.166  0.6221  0.7636 -0.9907
  135OSM   H17T14585   1.880   0.540   4.298 -0.4694 -1.6401  1.9881
  135OSM   C18S14586   1.999   0.365   4.333 -0.4863 -0.1833  0.1443
  135OSM   H18S14587   2.063   0.415   4.409 -3.5065  1.6811  1.6548
  135OSM   H18T14588   2.065   0.288   4.288  1.1426  0.3558  1.5100
  135OSM   H18U14589   1.915   0.325   4.393 -1.7387  1.7061 -0.2803
  135OSM    C1F14590   2.323   0.698   2.790  0.6009 -0.1429 -0.4897
  135OSM     OF14591   2.425   0.696   2.732 -0.3726 -0.3640  0.0611
  135OSM    C2F14592   2.258   0.580   2.857  0.5510 -0.6453 -0.3398
  135OSM    H2F14593   2.213   0.515   2.779  0.2600 -0.7796 -0.0609
  135OSM    H2G14594   2.182   0.607   2.932  0.2875 -0.5423 -0.6432
  135OSM    C3F14595   2.367   0.484   2.925 -0.5121  0.2611  0.1629
  135OSM    H3F14596   2.418   0.544   3.003 -1.2480  1.0966  0.0249
  135OSM    H3G14597   2.451   0.447   2.863  0.2460 -1.0122  1.8914
  135OSM    C4F14598   2.299   0.365   2.987  0.4087 -0.7191  0.2891
  135OSM    H4F14599   2.376   0.295   3.027  0.2189 -0.2533  1.5205
  135OSM    H4G14600   2.245   0.302   2.913 -0.7199  0.6603 -0.0894
  135OSM    C5F14601   2.205   0.402   3.106  0.1237  0.0837  0.7012
  135OSM    H5F14602   2.106   0.416   3.057  0.5947 -1.2007 -0.7311
  135OSM    H5G14603   2.250   0.488   3.159  0.7366  0.4236 -0.3472
  135OSM    C6F14604   2.187   0.287   3.201  0.4928  0.2550 -0.7079
  135OSM    H6F14605   2.281   0.286   3.261  0.1357  0.8412 -0.1195
  135OSM    H6G14606   2.185   0.191   3.145  0.1744  0.9223 -1.8698
  135OSM    C7F14607   2.047   0.297   3.283 -0.0603  0.1953 -0.3007
  135OSM    H7F14608   2.050   0.208   3.349 -1.1328 -0.4065 -1.0434
  135OSM    H7G14609   1.962   0.286   3.213  0.0221 -1.1841 -0.1964
  135OSM    C8F14610   2.030   0.419   3.374 -0.6913 -0.0966 -0.1604
  135OSM    H8F14611   1.929   0.423   3.420  1.0101  2.0489  4.0059
  135OSM    H8G14612   2.049   0.506   3.307 -1.7151 -1.5342 -2.4173
  135OSM    C9F14613   2.131   0.405   3.489 -0.2678 -0.7789 -0.3650
  135OSM    H9F14614   2.233   0.388   3.452  0.9513  2.8712  0.9102
  135OSM   C10F14615   2.114   0.405   3.619  0.4115 -0.3013 -0.7883
  135OSM   H10F14616   2.194   0.382   3.691 -0.8214 -0.6237  0.5265
  135OSM   C11F14617   1.980   0.400   3.690  0.3431  0.3707  1.1029
  135OSM   H11F14618   1.892   0.412   3.624 -0.7545  0.3266  2.5110
  135OSM   H11G14619   1.969   0.488   3.757 -2.0210  0.8561  0.1655
  135OSM   C12F14620   1.950   0.278   3.779 -0.1587 -0.0069 -0.5839
  135OSM   H12F14621   2.033   0.244   3.844 -2.5141 -0.3207  2.5199
  135OSM   H12G14622   1.946   0.193   3.708 -0.3950  0.9360 -1.7475
  135OSM   C13F14623   1.810   0.288   3.846  0.0068  0.4838 -0.7345
  135OSM   H13F14624   1.736   0.315   3.768 -1.4942 -0.1385  0.4231
  135OSM   H13G14625   1.822   0.370   3.921  0.7556 -1.6829  1.6852
  135OSM   C14F14626   1.770   0.164   3.917  0.0944 -1.0749  0.0338
  135OSM   H14F14627   1.852   0.115   3.975 -0.0790 -3.4911 -1.6242
  135OSM   H14G14628   1.750   0.081   3.846  1.2513 -0.7494 -0.7078
  135OSM   C15F14629   1.661   0.192   4.025  0.2318  0.3768 -0.3542
  135OSM   H15F14630   1.566   0.223   3.976  0.3945  2.9431  0.8272
  135OSM   H15G14631   1.707   0.268   4.091  0.9589 -2.3737  2.5590
  135OSM   C16F14632   1.637   0.079   4.118  0.3089  0.6861 -0.0943
  135OSM   H16F14633   1.726   0.051   4.178  0.2252 -0.1335 -0.3357
  135OSM   H16G14634   1.605  -0.014   4.066  0.7061 -0.3629  1.4483
  135OSM   C17F14635   1.536   0.114   4.230 -0.3426  0.2728 -0.0623
  135OSM   H17F14636   1.527   0.025   4.296 -1.2473  0.4965  0.1268
  135OSM   H17G14637   1.437   0.143   4.190 -1.0037  0.3206  1.5501
  135OSM   C18F14638   1.576   0.235   4.318  0.3093 -0.5875 -0.0909
  135OSM   H18F14639   1.670   0.217   4.375  2.5550 -0.5439 -3.4778
  135OSM   H18G14640   1.501   0.252   4.399  1.2324  2.4748  0.2386
  135OSM   H18H14641   1.603   0.321   4.253  2.5896 -2.1810 -1.3835
  136OSM      N14642   5.820   2.200   2.120 -0.3026  0.3352  0.0417
  136OSM    C1514643   5.912   2.131   2.023  0.3651  0.9089  0.7014
  136OSM   H15A14644   5.997   2.092   2.077  0.2010  0.8072  0.8884
  136OSM   H15B14645   5.944   2.190   1.938  1.8684  0.5371  0.9687
  136OSM   H15C14646   5.858   2.050   1.978  0.9459  0.7052  0.3531
  136OSM    C1414647   5.701   2.246   2.036 -0.0689 -0.1358  0.6934
  136OSM   H14A14648   5.737   2.292   1.945 -2.4174 -1.2537 -0.8776
  136OSM   H14B14649   5.640   2.319   2.088 -1.4997 -1.3329  0.7550
  136OSM   H14C14650   5.643   2.161   2.004 -0.4497 -0.6712  2.6505
  136OSM    C1314651   5.763   2.100   2.215  0.2570 -0.0589  0.2369
  136OSM   H13A14652   5.739   2.010   2.161  1.6903 -2.4111  3.2512
  136OSM   H13B14653   5.671   2.127   2.264 -1.4707 -2.2121 -1.5967
  136OSM   H13C14654   5.835   2.067   2.288  1.7893 -0.9147 -1.5667
  136OSM    C1214655   5.889   2.316   2.184  0.0917 -0.1434  0.4475
  136OSM   H12A14656   5.914   2.392   2.112  1.1046  1.3161  2.2496
  136OSM   H12B14657   5.968   2.289   2.252 -2.1160 -3.8055  1.8453
  136OSM    C1114658   5.801   2.400   2.280 -0.5147  0.3073  0.2532
  136OSM   H11A14659   5.865   2.475   2.331 -0.3918  0.0984  0.4083
  136OSM   H11B14660   5.762   2.334   2.360 -1.6184  1.0889  0.3822
  136OSM      P14661   5.717   2.602   2.138  0.1040 -0.4283  0.0289
  136OSM    O1314662   5.812   2.576   2.030 -0.4420 -0.7499  0.9701
  136OSM    O1414663   5.583   2.657   2.097  0.2024 -0.0882 -0.1016
  136OSM    O1114664   5.782   2.700   2.240  0.9010 -0.5613 -0.7137
  136OSM    O1214665   5.694   2.468   2.217 -0.2594  0.0085 -0.6843
  136OSM    C1S14666   5.708   2.772   2.340  0.1414  0.3002 -0.1655
  136OSM    H1S14667   5.601   2.789   2.316  0.6407  2.6917 -0.9457
  136OSM    H1T14668   5.755   2.871   2.358 -0.7796  0.3992  2.0493
  136OSM     NF14669   5.608   2.740   2.575  0.3688 -0.0380 -0.0963
  136OSM    HNF14670   5.638   2.780   2.661  5.6506 -0.8330 -1.2234
  136OSM    C2S14671   5.713   2.703   2.485 -0.1261 -0.2110  0.9988
  136OSM    H2S14672   5.704   2.597   2.454  2.7495  0.4525 -2.8853
  136OSM    C3S14673   5.855   2.719   2.548 -0.1278  0.1925  0.1662
  136OSM    H3S14674   5.850   2.822   2.588 -0.3678 -0.0915  0.8819
  136OSM     O314675   5.961   2.725   2.453  0.3675 -0.2997  0.0400
  136OSM    HO314676   5.915   2.734   2.369 -2.3888 -2.0909  1.1724
  136OSM    C4S14677   5.883   2.631   2.666  0.2903 -0.0903  0.0783
  136OSM    H4S14678   5.863   2.691   2.756 -1.6822  0.5331 -0.7036
  136OSM    C5S14679   5.934   2.506   2.667  0.5529  0.8748  0.5407
  136OSM    H5S14680   5.952   2.459   2.569  2.7880  3.1003 -0.2374
  136OSM    C6S14681   5.968   2.428   2.798  0.6698  0.3458 -0.0663
  136OSM    H6S14682   6.071   2.385   2.796  0.9398  0.6453  2.8283
  136OSM    H6T14683   5.900   2.340   2.805  0.6779  0.3295 -0.1873
  136OSM    C7S14684   5.966   2.495   2.935  0.4005  0.1020 -0.0258
  136OSM    H7S14685   5.863   2.533   2.956  0.9828  1.3355  0.7221
  136OSM    H7T14686   6.033   2.583   2.928  0.8248 -0.1254  0.9762
  136OSM    C8S14687   6.005   2.400   3.045  0.5486  0.9828 -0.8964
  136OSM    H8S14688   6.111   2.371   3.023  0.8348  2.1329 -1.0939
  136OSM    H8T14689   5.943   2.309   3.059  3.3176 -0.8485  0.3473
  136OSM    C9S14690   6.006   2.469   3.179  0.6771 -0.5778 -0.3493
  136OSM    H9S14691   5.903   2.506   3.193  1.1816  1.0533 -0.7861
  136OSM    H9T14692   6.078   2.553   3.186 -1.7316  1.4790  1.3449
  136OSM   C10S14693   6.039   2.385   3.296  0.0085 -0.8359 -0.0008
  136OSM   H10S14694   6.138   2.335   3.308  0.6959  0.7940  1.4919
  136OSM   H10T14695   5.957   2.310   3.283 -0.3885 -1.1197  3.2830
  136OSM   C11S14696   6.000   2.457   3.431  0.5543  0.6808 -0.0994
  136OSM   H11S14697   5.895   2.492   3.422  0.2107 -0.5232 -1.2709
  136OSM   H11T14698   6.070   2.540   3.452  0.3587  0.7055  0.4677
  136OSM   C12S14699   6.015   2.363   3.549 -0.3418 -0.0099  0.6945
  136OSM   H12S14700   6.120   2.342   3.578 -0.2604 -1.2166 -0.3976
  136OSM   H12T14701   5.970   2.262   3.534  2.0068 -1.3848  2.1759
  136OSM   C13S14702   5.946   2.421   3.675 -0.2830 -0.3466  0.1258
  136OSM   H13S14703   5.840   2.440   3.649 -0.6180  1.0472  2.2490
  136OSM   H13T14704   5.990   2.514   3.715  0.4387 -0.5017 -0.2874
  136OSM   C14S14705   5.931   2.332   3.799  0.1784 -0.1475 -0.4121
  136OSM   H14S14706   6.027   2.278   3.818  0.8165  1.4821  1.2951
  136OSM   H14T14707   5.846   2.262   3.789 -0.3563  0.6635 -1.8267
  136OSM   C15S14708   5.874   2.411   3.922 -0.2536  0.2985  0.1685
  136OSM   H15S14709   5.861   2.333   4.000 -0.6369 -0.4899 -0.6566
  136OSM   H15T14710   5.773   2.450   3.898  0.2871  0.7749 -1.5247
  136OSM   C16S14711   5.966   2.521   3.979  0.1681  0.6618  0.2156
  136OSM   H16S14712   5.958   2.623   3.935  1.5671  0.8835  0.4248
  136OSM   H16T14713   6.065   2.485   3.945  0.0938  0.4264  0.2463
  136OSM   C17S14714   5.962   2.527   4.138  1.1907 -0.1931  0.4136
  136OSM   H17S14715   5.963   2.425   4.183 -0.5634 -0.7137 -0.6242
  136OSM   H17T14716   5.866   2.576   4.163  1.1799  0.2083 -0.3736
  136OSM   C18S14717   6.074   2.612   4.193 -0.7070 -0.6432 -0.8595
  136OSM   H18S14718   6.083   2.700   4.126  0.0293 -1.8742 -2.4364
  136OSM   H18T14719   6.174   2.566   4.188 -0.7728 -0.6652 -2.2773
  136OSM   H18U14720   6.055   2.650   4.296 -1.5179 -0.3523 -1.1037
  136OSM    C1F14721   5.482   2.719   2.546  0.1527 -0.4665  0.8562
  136OSM     OF14722   5.441   2.662   2.445  0.6006 -0.1371  0.0340
  136OSM    C2F14723   5.380   2.774   2.645  0.2468  0.4513  0.4812
  136OSM    H2F14724   5.371   2.883   2.628  0.1926  0.1997 -1.2332
  136OSM    H2G14725   5.437   2.746   2.736  0.8803 -1.5400 -0.4511
  136OSM    C3F14726   5.239   2.708   2.646 -0.8637 -0.1124 -0.8799
  136OSM    H3F14727   5.257   2.598   2.649  2.7445  0.2755 -2.8848
  136OSM    H3G14728   5.174   2.744   2.564  0.4077  1.1192 -1.3959
  136OSM    C4F14729   5.161   2.760   2.764 -0.2121  0.0221 -0.8903
  136OSM    H4F14730   5.055   2.732   2.744  0.1672 -2.3884  0.1642
  136OSM    H4G14731   5.178   2.870   2.770  0.2313 -0.1361  1.8188
  136OSM    C5F14732   5.192   2.716   2.904  0.0231 -0.3528 -0.5188
  136OSM    H5F14733   5.299   2.713   2.936  0.3825 -2.7450 -1.7049
  136OSM    H5G14734   5.173   2.606   2.911  2.3798 -0.8186 -0.5191
  136OSM    C6F14735   5.093   2.788   2.999 -0.1436 -0.4004  0.5868
  136OSM    H6F14736   4.991   2.793   2.954  0.0992  2.1432  0.1567
  136OSM    H6G14737   5.135   2.890   3.013  0.0920 -0.1937 -1.3207
  136OSM    C7F14738   5.071   2.702   3.126 -0.6776 -0.1697  0.3602
  136OSM    H7F14739   5.164   2.701   3.186 -2.3730  1.4403  3.2090
  136OSM    H7G14740   5.045   2.599   3.092  0.9505  0.3577 -2.9386
  136OSM    C8F14741   4.949   2.746   3.212  0.5789  0.7367  0.0702
  136OSM    H8F14742   4.933   2.678   3.298  3.1109  0.9944  0.8234
  136OSM    H8G14743   4.855   2.752   3.154  1.5552  2.1032 -1.4618
  136OSM    C9F14744   4.980   2.886   3.261  0.1078  0.0118  0.6535
  136OSM    H9F14745   4.963   2.957   3.179  0.8928 -1.6928 -1.0638
  136OSM   C10F14746   4.988   2.918   3.394  0.0369  0.7884 -0.3457
  136OSM   H10F14747   5.012   3.021   3.423  3.6895  0.6463 -2.3031
  136OSM   C11F14748   4.987   2.827   3.519 -0.5851 -0.6932 -0.1480
  136OSM   H11F14749   5.035   2.890   3.596 -1.1815  0.5107 -0.7384
  136OSM   H11G14750   5.048   2.738   3.492  1.2289 -0.4513  2.7338
  136OSM   C12F14751   4.841   2.800   3.556  0.0303  0.4306  0.7206
  136OSM   H12F14752   4.789   2.741   3.477  0.0575 -0.6425  1.4948
  136OSM   H12G14753   4.793   2.898   3.575 -2.3688 -1.2824  4.7209
  136OSM   C13F14754   4.844   2.725   3.687  0.4339 -0.5871 -0.1410
  136OSM   H13F14755   4.930   2.654   3.686  1.7317  0.9422 -1.3885
  136OSM   H13G14756   4.750   2.666   3.691  0.4299 -0.5193  1.0961
  136OSM   C14F14757   4.863   2.824   3.805  0.3014  0.1575 -0.0650
  136OSM   H14F14758   4.778   2.896   3.802  1.5255  1.6804  0.2271
  136OSM   H14G14759   4.964   2.870   3.812 -0.4394  1.9578 -0.5886
  136OSM   C15F14760   4.839   2.739   3.937 -0.3809 -0.5075  0.0343
  136OSM   H15F14761   4.733   2.704   3.938 -1.8944  3.5073  0.3402
  136OSM   H15G14762   4.832   2.811   4.022 -0.7637  3.2670 -2.9222
  136OSM   C16F14763   4.949   2.633   3.964 -0.0110 -0.1803  0.2409
  136OSM   H16F14764   5.036   2.669   3.904 -1.5800  0.8017 -1.5664
  136OSM   H16G14765   4.912   2.534   3.929 -0.7146  0.4682 -0.9371
  136OSM   C17F14766   4.987   2.617   4.114 -0.5095  0.0446  0.3873
  136OSM   H17F14767   5.043   2.707   4.148 -2.1691  0.3609  2.5152
  136OSM   H17G14768   5.064   2.537   4.122  0.1635  0.7466  1.1741
  136OSM   C18F14769   4.876   2.589   4.212  0.1603 -0.5261  0.7882
  136OSM   H18F14770   4.790   2.659   4.201  0.8534  0.5492  1.9020
  136OSM   H18G14771   4.908   2.590   4.318 -0.9194  1.2941  1.1407
  136OSM   H18H14772   4.833   2.494   4.174 -3.2583  1.4577 -0.8569
  137OSM      N14773   1.463   1.917   2.094 -0.2875 -0.0302  0.1944
  137OSM    C1514774   1.410   2.056   2.053  0.7188  0.4801 -0.5861
  137OSM   H15A14775   1.370   2.109   2.138  1.3593 -0.1986  0.1601
  137OSM   H15B14776   1.331   2.030   1.984  1.2276 -3.2630  0.0416
  137OSM   H15C14777   1.486   2.123   2.016  0.5124  1.0438 -0.0055
  137OSM    C1414778   1.357   1.829   2.147  0.3086  0.3474  0.2463
  137OSM   H14A14779   1.396   1.743   2.201  1.3979  0.5981 -0.1130
  137OSM   H14B14780   1.296   1.789   2.067  1.1308  1.0155 -0.7468
  137OSM   H14C14781   1.294   1.878   2.220  0.3760  1.3874 -0.3704
  137OSM    C1314782   1.529   1.836   1.975 -0.0487  0.0652 -0.3116
  137OSM   H13A14783   1.458   1.829   1.895 -1.6377 -0.2448  1.0571
  137OSM   H13B14784   1.561   1.739   2.013  0.1872 -0.1111 -0.9547
  137OSM   H13C14785   1.616   1.881   1.929  1.6521 -3.7280 -1.2467
  137OSM    C1214786   1.565   1.929   2.207 -0.0816 -0.0764 -0.0890
  137OSM   H12A14787   1.658   1.969   2.169  0.0716  0.5214  0.8797
  137OSM   H12B14788   1.584   1.832   2.249  1.7845 -0.2230 -1.1865
  137OSM    C1114789   1.536   2.024   2.327 -0.1906 -0.7455  0.0173
  137OSM   H11A14790   1.609   2.000   2.407  0.2212  0.0538 -0.1160
  137OSM   H11B14791   1.441   1.987   2.373  0.5378 -2.0391  0.5463
  137OSM      P14792   1.652   2.263   2.294  0.3226  0.1672 -0.1808
  137OSM    O1314793   1.761   2.192   2.231 -0.2400 -0.2961 -0.2448
  137OSM    O1414794   1.618   2.399   2.242  0.5103 -0.8666 -0.3938
  137OSM    O1114795   1.680   2.274   2.442  0.2774  0.5204 -0.4254
  137OSM    O1214796   1.530   2.167   2.283 -0.6404  0.2923 -0.8500
  137OSM    C1S14797   1.782   2.362   2.495 -0.0708  0.7696  0.1131
  137OSM    H1S14798   1.762   2.461   2.448  1.3177  0.2787 -1.6079
  137OSM    H1T14799   1.885   2.327   2.472  0.9406  1.6039  2.9379
  137OSM     NF14800   1.842   2.512   2.685  0.1367  0.4251  0.2793
  137OSM    HNF14801   1.939   2.513   2.709 -0.1023 -0.9880  1.4495
  137OSM    C2S14802   1.786   2.386   2.654  0.4898  0.8402  1.4697
  137OSM    H2S14803   1.680   2.381   2.688  0.2291  0.0680  0.5842
  137OSM    C3S14804   1.867   2.263   2.701  0.3124  0.4611 -0.4887
  137OSM    H3S14805   1.968   2.268   2.656  0.0153 -0.1061 -1.2454
  137OSM     O314806   1.818   2.138   2.663 -0.0655  0.5985  0.5600
  137OSM    HO314807   1.741   2.162   2.611  0.8778  0.9402 -0.7042
  137OSM    C4S14808   1.876   2.278   2.854 -0.3136  0.0963 -0.1254
  137OSM    H4S14809   1.951   2.349   2.890 -0.0613  0.0290 -0.5142
  137OSM    C5S14810   1.788   2.243   2.950  0.3441  0.7405 -0.0530
  137OSM    H5S14811   1.703   2.177   2.924  1.2026 -1.7855  2.8733
  137OSM    C6S14812   1.794   2.282   3.100 -0.0348  0.7232 -0.2536
  137OSM    H6S14813   1.696   2.319   3.137  0.5920  0.7466  1.4354
  137OSM    H6T14814   1.873   2.355   3.129 -0.9429  1.2367  1.0066
  137OSM    C7S14815   1.825   2.148   3.182  0.3702  0.0585 -0.3149
  137OSM    H7S14816   1.925   2.104   3.162  2.1031  1.5745  3.7647
  137OSM    H7T14817   1.740   2.084   3.153  0.1894 -0.1979  0.7546
  137OSM    C8S14818   1.819   2.188   3.332 -0.0043  0.1099 -0.0521
  137OSM    H8S14819   1.715   2.225   3.346  0.3492  2.5118 -2.7671
  137OSM    H8T14820   1.879   2.279   3.351  0.1634 -0.1815  0.8793
  137OSM    C9S14821   1.844   2.065   3.425 -0.3070 -0.0602 -0.3879
  137OSM    H9S14822   1.940   2.014   3.404  0.2702  0.4868  0.7884
  137OSM    H9T14823   1.765   1.987   3.416  0.0902 -0.2716 -2.5124
  137OSM   C10S14824   1.838   2.103   3.572  0.0094 -0.2087  0.3959
  137OSM   H10S14825   1.744   2.153   3.601  0.1125  1.1789 -1.5134
  137OSM   H10T14826   1.912   2.184   3.588  0.0710 -0.3838  1.0323
  137OSM   C11S14827   1.862   1.993   3.675  0.3211  0.0270  0.1825
  137OSM   H11S14828   1.821   1.902   3.625  1.7628 -0.8073  0.4607
  137OSM   H11T14829   1.796   2.009   3.763 -1.0703  2.5951 -1.2062
  137OSM   C12S14830   2.008   1.978   3.716 -1.0001 -0.8055 -0.0283
  137OSM   H12S14831   2.032   2.049   3.798  0.0216 -0.3205 -0.7420
  137OSM   H12T14832   2.075   2.005   3.632 -0.4697 -2.6563 -0.2481
  137OSM   C13S14833   2.036   1.829   3.753 -0.0626 -0.5403  0.6063
  137OSM   H13S14834   2.147   1.816   3.758  0.0018  0.1180  1.1007
  137OSM   H13T14835   2.007   1.761   3.670 -1.0655 -0.7975  1.1620
  137OSM   C14S14836   1.960   1.765   3.869 -0.1567  0.0893  0.5265
  137OSM   H14S14837   1.976   1.656   3.871 -0.6496 -0.0055 -0.3053
  137OSM   H14T14838   1.849   1.775   3.862 -0.1967 -1.4477 -3.2747
  137OSM   C15S14839   1.992   1.824   4.008 -0.1658 -0.1264 -0.6422
  137OSM   H15S14840   1.898   1.826   4.069  0.5469 -0.3046  0.4857
  137OSM   H15T14841   2.021   1.931   4.019  0.7959 -0.3882 -0.5456
  137OSM   C16S14842   2.109   1.743   4.076  0.2412 -0.0716 -0.5616
  137OSM   H16S14843   2.205   1.750   4.019  0.6406 -1.4978 -0.1006
  137OSM   H16T14844   2.077   1.638   4.089  1.3965 -0.1512  2.6387
  137OSM   C17S14845   2.159   1.801   4.209  0.1199 -0.4232  0.6778
  137OSM   H17S14846   2.075   1.823   4.279 -1.4860  0.2769 -1.3558
  137OSM   H17T14847   2.197   1.903   4.186  0.6393 -0.7087  0.2369
  137OSM   C18S14848   2.273   1.719   4.278 -0.0595 -0.3213  0.3692
  137OSM   H18S14849   2.248   1.611   4.285  0.5519 -0.4172  1.2290
  137OSM   H18T14850   2.288   1.755   4.382 -0.4700  0.5489  0.1384
  137OSM   H18U14851   2.362   1.742   4.215 -2.1279  3.3588 -1.5381
  137OSM    C1F14852   1.768   2.625   2.669  0.1090  0.2202  0.1439
  137OSM     OF14853   1.663   2.626   2.603 -0.4281 -0.2471  0.5116
  137OSM    C2F14854   1.816   2.760   2.723 -0.2824  0.2286 -0.3883
  137OSM    H2F14855   1.735   2.834   2.735  0.5322  1.1729 -0.5258
  137OSM    H2G14856   1.891   2.794   2.648 -1.5758 -1.5623 -2.6345
  137OSM    C3F14857   1.885   2.748   2.862 -0.1381 -0.0828 -0.2011
  137OSM    H3F14858   1.919   2.851   2.881  0.6433 -0.4307  0.3108
  137OSM    H3G14859   1.978   2.688   2.857 -0.9750 -1.5580  0.8707
  137OSM    C4F14860   1.801   2.701   2.977  0.4149  0.3708  0.7376
  137OSM    H4F14861   1.791   2.591   2.963  0.2783  0.4734 -0.0056
  137OSM    H4G14862   1.696   2.733   2.964  1.3204  3.2067 -0.3801
  137OSM    C5F14863   1.856   2.733   3.110  0.3938  0.3902 -0.4205
  137OSM    H5F14864   1.878   2.842   3.105  2.0220  0.2351  1.7175
  137OSM    H5G14865   1.950   2.673   3.112 -1.0891 -2.1590  2.6352
  137OSM    C6F14866   1.768   2.697   3.233 -0.8005  0.0850  0.4855
  137OSM    H6F14867   1.741   2.589   3.230  1.5625 -0.5239 -0.6372
  137OSM    H6G14868   1.668   2.746   3.231 -0.8988 -0.0717  1.1761
  137OSM    C7F14869   1.841   2.710   3.364 -0.0342  0.3701 -0.5787
  137OSM    H7F14870   1.875   2.816   3.365 -0.9342  0.6640 -0.1888
  137OSM    H7G14871   1.933   2.650   3.379  0.9490  1.9442 -0.1463
  137OSM    C8F14872   1.747   2.671   3.488  0.0858 -0.3792  0.1749
  137OSM    H8F14873   1.702   2.572   3.471 -2.5210  0.4101  1.8945
  137OSM    H8G14874   1.665   2.745   3.487  1.2671  0.9908 -1.0979
  137OSM    C9F14875   1.826   2.691   3.615 -0.4803  0.0239 -0.0682
  137OSM    H9F14876   1.857   2.794   3.639 -0.8157 -0.4077  2.5752
  137OSM   C10F14877   1.843   2.601   3.712  0.2835  0.0559 -0.1685
  137OSM   H10F14878   1.918   2.616   3.791  2.5469 -0.1389 -2.1912
  137OSM   C11F14879   1.802   2.459   3.703  0.5901 -0.3932  0.3233
  137OSM   H11F14880   1.890   2.402   3.665  0.7208  1.3959 -2.3352
  137OSM   H11G14881   1.726   2.442   3.624 -0.2804 -0.9339  1.2482
  137OSM   C12F14882   1.773   2.391   3.834  0.0088 -0.1062 -0.3395
  137OSM   H12F14883   1.718   2.295   3.825  0.5975 -0.4266 -0.5629
  137OSM   H12G14884   1.702   2.460   3.886  0.2952 -0.7216  0.9124
  137OSM   C13F14885   1.883   2.355   3.940 -0.8125 -0.6136  0.2388
  137OSM   H13F14886   1.924   2.446   3.988  0.5857 -0.1987 -1.6370
  137OSM   H13G14887   1.973   2.309   3.894 -0.9408  0.1444 -0.8075
  137OSM   C14F14888   1.832   2.259   4.051  0.7209 -0.7524 -0.0852
  137OSM   H14F14889   1.830   2.157   4.007 -1.7673 -1.1711  0.8180
  137OSM   H14G14890   1.729   2.292   4.077  0.3911 -1.4771 -0.4465
  137OSM   C15F14891   1.919   2.262   4.181 -0.2435 -0.4406  0.4549
  137OSM   H15F14892   1.932   2.370   4.207 -0.8365 -1.0199  3.6542
  137OSM   H15G14893   2.025   2.230   4.171 -0.1048 -0.3703  1.5453
  137OSM   C16F14894   1.865   2.196   4.308  0.4708 -0.9423  0.5658
  137OSM   H16F14895   1.766   2.241   4.333 -0.6578 -3.8467  1.7009
  137OSM   H16G14896   1.927   2.210   4.399  1.0059 -0.0673  0.0861
  137OSM   C17F14897   1.842   2.052   4.290  0.2619  0.0312  0.4340
  137OSM   H17F14898   1.946   2.012   4.281  1.3843  2.7833  0.0521
  137OSM   H17G14899   1.790   2.043   4.193  0.2898  0.8195  0.3365
  137OSM   C18F14900   1.763   1.994   4.406 -0.0045 -0.7282  0.2602
  137OSM   H18F14901   1.662   2.038   4.412 -0.5479 -1.1814 -3.4355
  137OSM   H18G14902   1.817   2.017   4.501 -0.0079  0.2564  0.0290
  137OSM   H18H14903   1.752   1.884   4.395 -1.6010 -0.9573  3.2476
  138OSM      N14904   0.595   2.894   2.019  0.3272  0.2973 -0.1216
  138OSM    C1514905   0.474   2.834   2.085  0.0465 -0.4297  0.3007
  138OSM   H15A14906   0.511   2.755   2.148 -0.0845  0.0500  0.9841
  138OSM   H15B14907   0.417   2.778   2.012  1.7875 -3.0422  0.7999
  138OSM   H15C14908   0.416   2.891   2.155  0.1502 -0.8420  0.7252
  138OSM    C1414909   0.656   2.794   1.921  0.5718  0.3956 -0.4818
  138OSM   H14A14910   0.749   2.834   1.883  0.2096  1.2498 -0.4725
  138OSM   H14B14911   0.601   2.774   1.830  1.1133 -0.6791 -0.5955
  138OSM   H14C14912   0.670   2.700   1.973 -0.4784  0.0238 -0.8456
  138OSM    C1314913   0.556   3.011   1.936 -0.5131 -0.0351 -0.6204
  138OSM   H13A14914   0.548   3.101   1.995  1.4902 -0.9666  1.2112
  138OSM   H13B14915   0.464   2.982   1.887 -0.5660  0.5049 -0.8405
  138OSM   H13C14916   0.635   3.035   1.867  1.0780  2.0723  1.7183
  138OSM    C1214917   0.710   2.935   2.120  0.5366  0.6961  0.7325
  138OSM   H12A14918   0.671   2.991   2.203 -1.3578  0.4739  0.0494
  138OSM   H12B14919   0.767   3.012   2.070 -1.4180  2.1667  0.6747
  138OSM    C1114920   0.795   2.823   2.173  0.2893 -0.1393 -0.1688
  138OSM   H11A14921   0.736   2.734   2.203 -1.7069  1.0959 -0.3272
  138OSM   H11B14922   0.849   2.870   2.258 -0.3660 -1.2234  0.8663
  138OSM      P14923   0.990   2.661   2.102 -0.3989  0.1069  0.5797
  138OSM    O1314924   0.939   2.552   2.016 -0.6864  0.7104 -0.0665
  138OSM    O1414925   1.127   2.704   2.082  0.2383 -0.6723 -0.4318
  138OSM    O1114926   0.958   2.626   2.254 -0.0098 -0.5994 -0.0224
  138OSM    O1214927   0.892   2.784   2.073 -0.1489  0.1855 -0.1121
  138OSM    C1S14928   1.041   2.529   2.324 -0.9350 -0.5212  0.0670
  138OSM    H1S14929   1.133   2.499   2.270 -0.3963 -0.6082  1.0143
  138OSM    H1T14930   0.981   2.437   2.342  0.8005 -1.8995 -0.8810
  138OSM     NF14931   1.174   2.490   2.535  1.0333 -0.2385 -0.0623
  138OSM    HNF14932   1.132   2.414   2.585 -0.1580 -0.8871 -1.9653
  138OSM    C2S14933   1.072   2.575   2.471 -0.2767  0.1706 -0.6094
  138OSM    H2S14934   1.107   2.681   2.474 -0.4250  0.2126  1.3977
  138OSM    C3S14935   0.935   2.591   2.550  0.3435  0.2140  0.2986
  138OSM    H3S14936   0.875   2.497   2.551 -0.2176  0.5678  0.1613
  138OSM     O314937   0.845   2.691   2.488 -0.4440  0.6142 -0.3905
  138OSM    HO314938   0.881   2.689   2.399 -0.1698 -0.0128 -0.2748
  138OSM    C4S14939   0.967   2.631   2.686  0.1894  0.4938 -0.4972
  138OSM    H4S14940   1.003   2.735   2.687  0.6036  0.3625 -1.1830
  138OSM    C5S14941   0.954   2.553   2.800 -0.0546  0.5244 -0.4254
  138OSM    H5S14942   0.921   2.448   2.794  0.5260  0.3650 -0.8941
  138OSM    C6S14943   0.998   2.597   2.944 -0.3606 -0.3339  0.1863
  138OSM    H6S14944   1.060   2.688   2.935  0.6678 -1.0796 -0.4733
  138OSM    H6T14945   1.055   2.517   2.995 -0.0237 -1.2520 -1.5386
  138OSM    C7S14946   0.868   2.637   3.027 -0.2899 -0.6738  0.3754
  138OSM    H7S14947   0.814   2.548   3.066  1.9998 -2.0658  0.5733
  138OSM    H7T14948   0.805   2.709   2.972  2.1633 -1.0354 -3.3335
  138OSM    C8S14949   0.916   2.711   3.153 -0.5549 -0.4879  0.3697
  138OSM    H8S14950   0.827   2.724   3.218  0.1327 -1.4401  1.5367
  138OSM    H8T14951   0.961   2.808   3.123  0.0202 -0.3600  1.5909
  138OSM    C9S14952   1.019   2.643   3.242 -0.3098 -0.4355  0.7425
  138OSM    H9S14953   1.041   2.711   3.327  0.8100 -2.1844  1.9132
  138OSM    H9T14954   1.117   2.630   3.192 -0.7971 -1.4989  0.0188
  138OSM   C10S14955   0.973   2.510   3.302  0.1201  0.1730  0.1054
  138OSM   H10S14956   1.059   2.457   3.348  1.0343 -0.7508 -2.4936
  138OSM   H10T14957   0.936   2.443   3.222 -0.5747 -0.7736  1.1884
  138OSM   C11S14958   0.866   2.521   3.416  0.2783 -0.2956  0.6789
  138OSM   H11S14959   0.824   2.421   3.439  0.5346 -0.7676 -0.7588
  138OSM   H11T14960   0.773   2.571   3.380  0.2615 -0.1976  0.8567
  138OSM   C12S14961   0.919   2.592   3.537 -0.6782 -0.0564 -0.3596
  138OSM   H12S14962   0.916   2.702   3.520 -0.3044 -0.1327 -0.9593
  138OSM   H12T14963   1.020   2.554   3.563 -1.1752  0.1186  2.0351
  138OSM   C13S14964   0.831   2.574   3.661  0.4043 -0.1079 -0.4742
  138OSM   H13S14965   0.811   2.466   3.675 -2.5930  0.3019 -0.9936
  138OSM   H13T14966   0.736   2.626   3.636 -0.4187 -1.2802  0.1324
  138OSM   C14S14967   0.906   2.649   3.774 -0.7229 -0.4244 -0.3340
  138OSM   H14S14968   0.915   2.757   3.749  0.3588 -0.5841 -0.6789
  138OSM   H14T14969   1.010   2.612   3.787 -1.2058 -1.6955  0.0109
  138OSM   C15S14970   0.820   2.637   3.903 -0.6005  0.0026  0.0207
  138OSM   H15S14971   0.831   2.544   3.964 -0.5245  0.2243  0.3463
  138OSM   H15T14972   0.713   2.646   3.874 -0.2472 -0.1618 -1.4227
  138OSM   C16S14973   0.864   2.749   3.996 -0.5668 -0.3962  0.5267
  138OSM   H16S14974   0.811   2.840   3.960  2.2927  0.7399 -1.1260
  138OSM   H16T14975   0.965   2.784   3.969 -1.0648 -0.5308 -1.7261
  138OSM   C17S14976   0.825   2.735   4.149  0.5262  0.4471  0.1945
  138OSM   H17S14977   0.874   2.654   4.208 -0.1319  0.6188  0.9870
  138OSM   H17T14978   0.723   2.692   4.147  0.9616 -0.6038 -0.4629
  138OSM   C18S14979   0.827   2.864   4.234 -0.2343 -0.0060  0.3811
  138OSM   H18S14980   0.814   2.853   4.344  0.0382 -2.3348  0.2273
  138OSM   H18T14981   0.750   2.939   4.206  1.4661  1.3213 -1.0441
  138OSM   H18U14982   0.919   2.924   4.216 -0.6149  0.9632  1.5729
  138OSM    C1F14983   1.305   2.504   2.515  0.6650  0.6327  0.7175
  138OSM     OF14984   1.341   2.576   2.421 -0.6408  0.1683 -0.3765
  138OSM    C2F14985   1.404   2.421   2.591 -0.3579  0.8172 -0.1841
  138OSM    H2F14986   1.471   2.499   2.633  0.1923 -0.5022  1.5036
  138OSM    H2G14987   1.464   2.367   2.514  1.2225  1.7349  0.3592
  138OSM    C3F14988   1.338   2.329   2.698 -0.5871  0.0121 -0.1714
  138OSM    H3F14989   1.265   2.276   2.632  0.7635  0.5129 -2.1694
  138OSM    H3G14990   1.273   2.375   2.775 -0.2377 -0.9904  0.7439
  138OSM    C4F14991   1.439   2.229   2.754  0.3327 -0.2950 -0.5172
  138OSM    H4F14992   1.521   2.280   2.809  1.7116 -2.2188 -0.7027
  138OSM    H4G14993   1.488   2.175   2.670 -0.5457 -2.2154  0.1429
  138OSM    C5F14994   1.385   2.123   2.850  0.0643  0.2376 -0.0228
  138OSM    H5F14995   1.356   2.164   2.949 -3.4028 -0.4846 -0.6214
  138OSM    H5G14996   1.472   2.055   2.864  1.6955  1.7073 -2.3267
  138OSM    C6F14997   1.260   2.053   2.794 -0.9649  1.1268 -0.7008
  138OSM    H6F14998   1.286   2.018   2.691 -0.0665 -3.5933  0.8913
  138OSM    H6G14999   1.187   2.137   2.790  0.0671  2.2493  1.7845
  138OSM    C7F15000   1.203   1.937   2.876 -0.0924  0.4882  0.1079
  138OSM    H7F15001   1.163   1.975   2.972  0.0099  0.5733  0.1175
  138OSM    H7G15002   1.288   1.874   2.910 -0.0541  0.1293 -0.6235
  138OSM    C8F15003   1.109   1.854   2.792  0.7566  0.4374 -0.6098
  138OSM    H8F15004   1.162   1.790   2.718  0.4432 -0.2518 -0.2350
  138OSM    H8G15005   1.038   1.917   2.734  0.9357  0.0623 -1.2493
  138OSM    C9F15006   1.042   1.753   2.880  0.1524  0.5074  0.4900
  138OSM    H9F15007   1.071   1.651   2.851 -0.1340  0.6591 -0.3632
  138OSM   C10F15008   0.968   1.776   2.990  0.1397 -0.3247 -0.2277
  138OSM   H10F15009   0.919   1.693   3.043 -1.3079  0.3506 -0.4527
  138OSM   C11F15010   0.921   1.909   3.029  0.6640  0.6838 -0.2078
  138OSM   H11F15011   0.810   1.918   3.031  0.7235  1.3445  1.0623
  138OSM   H11G15012   0.960   1.987   2.960 -0.6398  3.2118  1.7147
  138OSM   C12F15013   0.965   1.931   3.170 -0.2684 -0.1470 -0.3177
  138OSM   H12F15014   1.072   1.913   3.193 -0.3397  0.8467  0.9621
  138OSM   H12G15015   0.915   1.855   3.234  0.6028  1.0693  1.9238
  138OSM   C13F15016   0.927   2.071   3.224 -0.5145 -0.0989 -0.0321
  138OSM   H13F15017   0.825   2.086   3.182 -2.0579 -2.6119  2.4713
  138OSM   H13G15018   0.987   2.151   3.177 -0.7078 -0.4545 -0.9135
  138OSM   C14F15019   0.918   2.082   3.375  0.1494  0.7845  0.4080
  138OSM   H14F15020   0.849   2.006   3.416 -0.9713  0.7927 -1.3622
  138OSM   H14G15021   0.871   2.181   3.389 -0.3388  0.6030  0.0487
  138OSM   C15F15022   1.057   2.073   3.447  0.1731  0.3613  0.4295
  138OSM   H15F15023   1.117   2.155   3.403 -0.8419  1.1533  0.4927
  138OSM   H15G15024   1.100   1.977   3.411  1.4281  0.2204  2.1762
  138OSM   C16F15025   1.049   2.064   3.602 -0.1248  0.3995  0.2878
  138OSM   H16F15026   1.150   2.079   3.644 -1.3838  1.4196  3.1673
  138OSM   H16G15027   1.022   1.959   3.627  2.1346  0.0718  1.6399
  138OSM   C17F15028   0.959   2.169   3.657  0.0457 -0.4956  0.2200
  138OSM   H17F15029   0.855   2.132   3.670 -0.0607  0.3496  1.9885
  138OSM   H17G15030   0.969   2.260   3.594 -1.6505 -2.0573 -2.5009
  138OSM   C18F15031   0.994   2.212   3.805  0.0234 -0.0468  0.1998
  138OSM   H18F15032   0.942   2.308   3.828 -0.0592  0.1347 -0.6936
  138OSM   H18G15033   1.101   2.231   3.824  0.9808 -4.7120  0.6862
  138OSM   H18H15034   0.950   2.142   3.879  0.5751 -1.3667 -0.6810
  139OSM      N15035   2.651   0.106   2.109 -0.0866  0.0226 -0.2192
  139OSM    C1515036   2.583   0.211   2.021 -0.4596 -0.1499 -0.1674
  139OSM   H15A15037   2.596   0.191   1.916  0.2758  0.2854 -0.1666
  139OSM   H15B15038   2.626   0.308   2.040 -1.0934 -0.1980  1.7036
  139OSM   H15C15039   2.477   0.201   2.039 -0.7618 -1.1070 -2.1858
  139OSM    C1415040   2.572  -0.021   2.080  0.0037 -0.6907 -0.7727
  139OSM   H14A15041   2.469  -0.002   2.106  0.7362  1.9190  0.6255
  139OSM   H14B15042   2.601  -0.086   2.162 -0.8311  1.6460  1.5475
  139OSM   H14C15043   2.586  -0.074   1.987  0.8728  1.0238 -1.6706
  139OSM    C1315044   2.792   0.085   2.064  0.3823  0.6043 -0.2065
  139OSM   H13A15045   2.787   0.067   1.957  0.5026 -0.3259 -0.0662
  139OSM   H13B15046   2.845   0.007   2.117 -0.0290  0.2982 -0.2387
  139OSM   H13C15047   2.849   0.176   2.073 -0.2188  0.9616  0.0670
  139OSM    C1215048   2.642   0.143   2.261  0.1410  0.1868  0.1039
  139OSM   H12A15049   2.538   0.162   2.282 -0.7455 -3.7772  0.1654
  139OSM   H12B15050   2.701   0.231   2.283  1.3960 -0.2192 -1.4526
  139OSM    C1115051   2.683   0.030   2.364  0.1288 -0.3368 -0.0982
  139OSM   H11A15052   2.697   0.078   2.463  1.9829  0.8806 -0.8976
  139OSM   H11B15053   2.791   0.006   2.350  0.6956  1.5206  0.7509
  139OSM      P15054   2.449  -0.076   2.412  0.2539  0.3427  0.1625
  139OSM    O1315055   2.407   0.060   2.383 -0.7458 -0.3184 -0.5192
  139OSM    O1415056   2.369  -0.191   2.366 -0.2123  0.3014  0.3139
  139OSM    O1115057   2.464  -0.099   2.567 -0.7038 -0.1540 -0.1169
  139OSM    O1215058   2.606  -0.091   2.363 -0.2848 -0.2558  0.6464
  139OSM    C1S15059   2.520  -0.210   2.640  0.4508  0.5950  0.2740
  139OSM    H1S15060   2.614  -0.250   2.595  0.1063 -1.2719  1.0926
  139OSM    H1T15061   2.463  -0.303   2.618  1.2183  0.3135 -0.5788
  139OSM     NF15062   2.584  -0.307   2.866  0.2185 -0.6967  0.5617
  139OSM    HNF15063   2.512  -0.350   2.920 -1.4387  0.5964 -0.4866
  139OSM    C2S15064   2.532  -0.188   2.793  0.8622  0.0760  0.3361
  139OSM    H2S15065   2.600  -0.101   2.806  0.2646  0.5212  0.4905
  139OSM    C3S15066   2.399  -0.129   2.857 -0.1924 -0.1753  0.3029
  139OSM    H3S15067   2.320  -0.205   2.843 -0.0919 -0.4074  1.0094
  139OSM     O315068   2.356  -0.008   2.795  0.1636 -0.3025  0.0135
  139OSM    HO315069   2.395  -0.003   2.708  0.3989  0.7220  0.1631
  139OSM    C4S15070   2.408  -0.098   3.004 -0.0079  0.5480 -0.0923
  139OSM    H4S15071   2.513  -0.074   3.030  0.3609  1.4741 -2.1890
  139OSM    C5S15072   2.315  -0.108   3.097 -0.2714  0.5151  0.1652
  139OSM    H5S15073   2.213  -0.145   3.079  0.1059  0.2049 -1.5085
  139OSM    C6S15074   2.342  -0.067   3.233  0.6698 -0.3329  0.1483
  139OSM    H6S15075   2.343  -0.150   3.306  0.8072  0.9344  1.6556
  139OSM    H6T15076   2.254  -0.007   3.267 -0.4332 -1.6015 -0.3871
  139OSM    C7S15077   2.463   0.023   3.259  0.0679 -0.5843  0.2259
  139OSM    H7S15078   2.480   0.099   3.180  0.0426 -0.8652 -0.0499
  139OSM    H7T15079   2.548  -0.046   3.244 -0.3870 -1.5460  1.8131
  139OSM    C8S15080   2.457   0.083   3.400  0.1025 -0.5575 -0.1672
  139OSM    H8S15081   2.359   0.133   3.417  0.8736 -0.0966  3.8594
  139OSM    H8T15082   2.533   0.164   3.411 -0.5899  1.0040 -4.5963
  139OSM    C9S15083   2.484  -0.020   3.503  0.1846  0.1710 -0.4173
  139OSM    H9S15084   2.586  -0.061   3.489  1.2025  2.3158  0.2750
  139OSM    H9T15085   2.408  -0.100   3.488 -0.7441  0.6426  1.4744
  139OSM   C10S15086   2.481   0.025   3.649  0.2568 -0.0280  0.8851
  139OSM   H10S15087   2.555   0.106   3.665  2.3307 -1.7768  0.5316
  139OSM   H10T15088   2.498  -0.056   3.722 -0.6997 -1.7756 -0.7560
  139OSM   C11S15089   2.342   0.087   3.677 -0.1569 -0.5403  0.4880
  139OSM   H11S15090   2.266   0.025   3.625  0.7617 -2.5842  1.4640
  139OSM   H11T15091   2.332   0.192   3.640 -2.3521 -1.5295 -2.0315
  139OSM   C12S15092   2.306   0.107   3.823  0.1745 -0.1145  0.0526
  139OSM   H12S15093   2.206   0.155   3.829  0.3321  0.1328  0.8116
  139OSM   H12T15094   2.379   0.168   3.881  1.2674  0.2707 -1.6688
  139OSM   C13S15095   2.277  -0.024   3.901  0.4604  0.3003 -0.0066
  139OSM   H13S15096   2.372  -0.078   3.919  1.0289  0.9470 -0.9858
  139OSM   H13T15097   2.203  -0.092   3.854 -1.8302  2.3464  0.4066
  139OSM   C14S15098   2.223   0.001   4.043 -0.1862  0.9813  0.2799
  139OSM   H14S15099   2.170   0.098   4.044 -1.2905  0.3968  0.2312
  139OSM   H14T15100   2.306   0.015   4.116  0.9955 -0.1276 -0.7808
  139OSM   C15S15101   2.135  -0.115   4.094 -0.0676  0.5034 -0.4773
  139OSM   H15S15102   2.195  -0.209   4.092  2.2057  1.8567 -0.1381
  139OSM   H15T15103   2.044  -0.140   4.036  0.1123  1.7443 -1.3448
  139OSM   C16S15104   2.077  -0.083   4.237  0.8012 -0.2118  0.2132
  139OSM   H16S15105   2.022   0.014   4.234 -2.5303 -1.9886 -2.4724
  139OSM   H16T15106   2.171  -0.078   4.297  0.1501 -1.2483  1.3453
  139OSM   C17S15107   1.991  -0.198   4.283 -0.0510 -0.4824 -0.1248
  139OSM   H17S15108   2.052  -0.290   4.275  0.0013 -0.5675  1.0931
  139OSM   H17T15109   1.898  -0.217   4.226 -1.0142  1.2819  0.7504
  139OSM   C18S15110   1.949  -0.191   4.433  0.9519 -0.4647  0.6466
  139OSM   H18S15111   2.045  -0.195   4.489 -0.0850 -2.4938  2.4207
  139OSM   H18T15112   1.882  -0.275   4.461  2.7652 -1.2001  3.1751
  139OSM   H18U15113   1.885  -0.100   4.438  0.3747 -0.7477 -0.9675
  139OSM    C1F15114   2.700  -0.363   2.843 -0.0009 -0.1433  0.0870
  139OSM     OF15115   2.784  -0.309   2.770  0.0265  0.3777  0.1639
  139OSM    C2F15116   2.726  -0.492   2.909  0.4336 -0.7852  0.0511
  139OSM    H2F15117   2.834  -0.520   2.909  1.0171  1.0692 -2.9181
  139OSM    H2G15118   2.666  -0.567   2.854  0.4823 -0.9322  0.1997
  139OSM    C3F15119   2.687  -0.483   3.061  0.8872  0.2577 -0.2285
  139OSM    H3F15120   2.693  -0.586   3.103 -1.1713 -0.2748 -1.1225
  139OSM    H3G15121   2.579  -0.459   3.067  0.7002 -0.8019  1.1819
  139OSM    C4F15122   2.769  -0.375   3.142  1.0929  0.9611 -0.0827
  139OSM    H4F15123   2.740  -0.275   3.102 -0.5806  1.3733  1.9785
  139OSM    H4G15124   2.877  -0.393   3.124  0.9489  0.1206 -0.1208
  139OSM    C5F15125   2.733  -0.387   3.293  0.1874 -0.2254  0.4913
  139OSM    H5F15126   2.726  -0.489   3.338  0.5576  0.1301  1.3751
  139OSM    H5G15127   2.634  -0.339   3.304  1.1201  2.0499 -0.4950
  139OSM    C6F15128   2.834  -0.310   3.382 -0.3606  0.2066 -0.0125
  139OSM    H6F15129   2.780  -0.292   3.477  0.8364  2.8276  0.2486
  139OSM    H6G15130   2.848  -0.205   3.348 -0.5359  1.1754  2.7176
  139OSM    C7F15131   2.956  -0.382   3.415 -0.5764 -0.0175  0.4230
  139OSM    H7F15132   3.008  -0.406   3.319 -1.3218 -1.3622  0.3328
  139OSM    H7G15133   2.943  -0.478   3.469  1.3618 -1.4261 -1.4391
  139OSM    C8F15134   3.047  -0.283   3.493  0.0595  0.8104  0.0815
  139OSM    H8F15135   2.997  -0.266   3.591  0.0185 -1.0853  0.4229
  139OSM    H8G15136   3.044  -0.182   3.446 -0.2383 -0.0870 -1.9140
  139OSM    C9F15137   3.185  -0.340   3.509  0.0897 -0.3689 -0.6253
  139OSM    H9F15138   3.242  -0.341   3.416  3.0448 -0.4589  1.0652
  139OSM   C10F15139   3.244  -0.400   3.618  0.5508 -0.1744 -0.1331
  139OSM   H10F15140   3.346  -0.435   3.603  0.7929  1.0996 -1.7092
  139OSM   C11F15141   3.184  -0.417   3.752  0.0856  0.3070 -0.0330
  139OSM   H11F15142   3.183  -0.523   3.786  0.5246  0.3006 -0.0289
  139OSM   H11G15143   3.081  -0.377   3.740 -1.1313 -3.0815 -2.1209
  139OSM   C12F15144   3.263  -0.336   3.855 -0.8247  0.8988  0.3373
  139OSM   H12F15145   3.280  -0.227   3.839  2.0778  0.4895  0.0680
  139OSM   H12G15146   3.369  -0.370   3.852 -1.1120 -0.0486  0.4729
  139OSM   C13F15147   3.215  -0.350   3.997  0.1496  0.9749  0.3234
  139OSM   H13F15148   3.209  -0.460   4.015 -0.7163  1.3451  2.7509
  139OSM   H13G15149   3.112  -0.311   3.987  0.0982  0.8113  0.2157
  139OSM   C14F15150   3.295  -0.275   4.107  0.7436  0.5105  0.5836
  139OSM   H14F15151   3.323  -0.172   4.077 -1.1165  0.2094 -2.6956
  139OSM   H14G15152   3.383  -0.341   4.118  2.0364  1.9401 -0.8233
  139OSM   C15F15153   3.221  -0.264   4.240  0.5274  0.1181 -0.7707
  139OSM   H15F15154   3.168  -0.358   4.266  1.2651  0.1345  0.9444
  139OSM   H15G15155   3.133  -0.196   4.239 -0.0819 -0.6544 -0.7648
  139OSM   C16F15156   3.313  -0.213   4.352  0.2026 -0.3717  0.2165
  139OSM   H16F15157   3.253  -0.169   4.435  1.3782  2.0667 -0.1317
  139OSM   H16G15158   3.366  -0.125   4.310  1.4254 -1.2131 -0.0566
  139OSM   C17F15159   3.417  -0.313   4.392  0.4969 -0.1246  0.0505
  139OSM   H17F15160   3.462  -0.359   4.301 -1.1936  1.5911 -1.7483
  139OSM   H17G15161   3.365  -0.392   4.450  0.1783  0.0711  0.0336
  139OSM   C18F15162   3.522  -0.257   4.492 -0.5658 -0.0026 -0.0960
  139OSM   H18F15163   3.475  -0.189   4.566 -1.3287  0.7067 -1.2005
  139OSM   H18G15164   3.602  -0.205   4.435 -1.1016 -0.3936 -1.2354
  139OSM   H18H15165   3.568  -0.339   4.550 -1.3680  0.0626  0.6547
  140OSM      N15166   1.166   3.305   1.600  0.1703  0.0923 -0.3598
  140OSM    C1515167   1.151   3.306   1.450 -0.3659 -0.4022  0.3840
  140OSM   H15A15168   1.133   3.405   1.411 -1.1563 -0.9106 -0.5939
  140OSM   H15B15169   1.078   3.242   1.402  0.6340 -1.1181 -0.2209
  140OSM   H15C15170   1.245   3.276   1.406  0.0661  2.4507 -0.7894
  140OSM    C1415171   1.213   3.179   1.660 -0.5539 -0.2501  0.5073
  140OSM   H14A15172   1.135   3.107   1.638 -0.1839 -0.5639  0.2072
  140OSM   H14B15173   1.222   3.183   1.768 -0.3775 -0.5689  0.5050
  140OSM   H14C15174   1.308   3.140   1.627 -0.0489  0.4693  1.0749
  140OSM    C1315175   1.268   3.407   1.622 -0.3014 -0.2912 -0.0926
  140OSM   H13A15176   1.275   3.416   1.729 -1.5140  1.5785 -0.1203
  140OSM   H13B15177   1.232   3.501   1.582 -0.2389  0.8347  2.3044
  140OSM   H13C15178   1.365   3.390   1.578 -0.6942  1.6142 -1.9158
  140OSM    C1215179   1.028   3.338   1.664  0.2084  0.2226  0.4384
  140OSM   H12A15180   0.961   3.258   1.637  0.5964  0.0185  0.0669
  140OSM   H12B15181   0.998   3.435   1.629 -0.6647  0.1932  1.0654
  140OSM    C1115182   1.028   3.354   1.821 -0.2312 -0.5533 -0.1882
  140OSM   H11A15183   0.930   3.398   1.849 -0.0304 -0.0757 -0.2320
  140OSM   H11B15184   1.108   3.428   1.840  0.7567 -2.1641  2.4576
  140OSM      P15185   1.001   3.207   2.034  0.2015  0.0232 -0.5612
  140OSM    O1315186   0.854   3.194   2.015  0.0887  0.0040  0.4433
  140OSM    O1415187   1.069   3.102   2.106 -0.0672 -0.0028 -0.5108
  140OSM    O1115188   1.037   3.336   2.114  0.5155 -0.1731 -0.2336
  140OSM    O1215189   1.060   3.237   1.895 -0.6190  0.3988 -0.1775
  140OSM    C1S15190   0.939   3.424   2.165  0.6944 -0.1564  0.0231
  140OSM    H1S15191   0.841   3.401   2.119  1.6397 -0.8853 -1.7287
  140OSM    H1T15192   0.954   3.524   2.119  2.4812 -1.3084 -2.0986
  140OSM     NF15193   0.825   3.486   2.390 -0.6918  0.3072 -0.1816
  140OSM    HNF15194   0.841   3.562   2.452  1.0975  0.5612 -0.8885
  140OSM    C2S15195   0.946   3.423   2.325  0.8531  0.1461  0.9215
  140OSM    H2S15196   0.936   3.315   2.350  0.7557  0.2962  1.5334
  140OSM    C3S15197   1.085   3.467   2.384  0.2490  0.1000  0.2035
  140OSM    H3S15198   1.093   3.578   2.380  0.0727  0.3820  3.9718
  140OSM     O315199   1.198   3.409   2.319 -0.6865 -0.5679  0.7053
  140OSM    HO315200   1.159   3.350   2.254  1.0244 -0.5469 -0.4041
  140OSM    C4S15201   1.087   3.433   2.533  0.3369  0.6844 -0.2103
  140OSM    H4S15202   1.090   3.520   2.600 -2.1204  2.2765 -2.0088
  140OSM    C5S15203   1.080   3.309   2.587 -0.4178  0.1145 -0.4496
  140OSM    H5S15204   1.082   3.219   2.523 -1.1239  0.5231 -1.0644
  140OSM    C6S15205   1.077   3.274   2.735 -0.1626 -0.7442  1.0833
  140OSM    H6S15206   1.037   3.362   2.790  1.2086  2.5547 -2.7138
  140OSM    H6T15207   1.183   3.267   2.768 -0.1421  0.5972  1.3335
  140OSM    C7S15208   1.000   3.147   2.772 -0.2712  0.1655  0.5451
  140OSM    H7S15209   1.013   3.057   2.708 -2.4266 -1.3407  2.0600
  140OSM    H7T15210   0.891   3.165   2.788 -1.1457 -3.6328 -0.0636
  140OSM    C8S15211   1.058   3.100   2.907  0.4120  1.4618 -0.0895
  140OSM    H8S15212   1.165   3.082   2.882 -0.2845  0.0354 -2.4240
  140OSM    H8T15213   0.998   3.008   2.926  0.1130  1.4367 -1.1011
  140OSM    C9S15214   1.035   3.192   3.022  0.2775  0.1843 -0.2317
  140OSM    H9S15215   0.937   3.243   3.018 -0.7691 -1.6526  0.9217
  140OSM    H9T15216   1.114   3.270   3.018 -0.0923  0.5444 -0.6964
  140OSM   C10S15217   1.044   3.118   3.158  0.1161 -0.4397  0.4038
  140OSM   H10S15218   0.968   3.038   3.160  0.5100 -0.9161 -1.4744
  140OSM   H10T15219   1.032   3.194   3.238 -1.7256 -0.7175  0.4232
  140OSM   C11S15220   1.181   3.054   3.176 -0.3258 -0.1996 -0.2195
  140OSM   H11S15221   1.255   3.121   3.128 -1.1158  0.6379 -0.2900
  140OSM   H11T15222   1.186   2.960   3.117  2.0149 -0.4998  0.3899
  140OSM   C12S15223   1.202   3.015   3.323 -0.1120  0.2853 -0.5901
  140OSM   H12S15224   1.111   2.974   3.370  1.3085 -0.5178  1.6056
  140OSM   H12T15225   1.234   3.108   3.374 -1.1304 -0.0752  0.7658
  140OSM   C13S15226   1.310   2.913   3.333 -0.4310  0.1538 -0.1023
  140OSM   H13S15227   1.396   2.964   3.286 -0.8187  1.5547  0.6493
  140OSM   H13T15228   1.286   2.819   3.279  1.6225 -0.5108  0.0867
  140OSM   C14S15229   1.357   2.866   3.475  0.1285  0.3403  0.0991
  140OSM   H14S15230   1.383   2.958   3.532 -2.2864  0.2756  1.4084
  140OSM   H14T15231   1.444   2.797   3.463 -1.1764 -0.9079 -3.9091
  140OSM   C15S15232   1.248   2.791   3.553 -0.7768 -0.1244 -0.2699
  140OSM   H15S15233   1.215   2.706   3.489  2.2834 -2.1055  0.5432
  140OSM   H15T15234   1.161   2.859   3.553 -0.7869 -0.1380 -0.0839
  140OSM   C16S15235   1.291   2.728   3.683  0.2681  0.1540  1.0621
  140OSM   H16S15236   1.387   2.674   3.669  0.8364  1.5904 -1.1920
  140OSM   H16T15237   1.216   2.650   3.707  0.1436 -0.2534 -0.5512
  140OSM   C17S15238   1.305   2.815   3.809 -0.0829 -0.1742  0.0386
  140OSM   H17S15239   1.206   2.847   3.850  0.5899  1.1852  0.6613
  140OSM   H17T15240   1.356   2.909   3.779  1.4135 -0.3383  1.8704
  140OSM   C18S15241   1.380   2.740   3.927 -0.0558  0.3167  0.0237
  140OSM   H18S15242   1.367   2.795   4.022 -1.8591 -2.1561  1.3083
  140OSM   H18T15243   1.487   2.716   3.905 -0.0565  0.0962  0.2552
  140OSM   H18U15244   1.338   2.640   3.950  1.9311 -0.5059  0.2926
  140OSM    C1F15245   0.698   3.442   2.380 -0.0120 -0.6980 -0.0262
  140OSM     OF15246   0.667   3.358   2.295  0.4828 -0.4963 -0.4999
  140OSM    C2F15247   0.589   3.514   2.459 -0.0400  0.2984 -0.5994
  140OSM    H2F15248   0.519   3.549   2.381 -0.3439 -0.7252 -0.7992
  140OSM    H2G15249   0.628   3.604   2.512 -0.7319  1.1157 -1.4472
  140OSM    C3F15250   0.516   3.401   2.543  0.9453 -0.0266 -0.2710
  140OSM    H3F15251   0.595   3.335   2.585  1.3488  1.1780  0.9287
  140OSM    H3G15252   0.458   3.341   2.470  1.4763 -0.0057 -0.7196
  140OSM    C4F15253   0.414   3.455   2.653 -0.3524  0.1023 -0.9122
  140OSM    H4F15254   0.340   3.516   2.597 -1.3625  0.8048  1.1094
  140OSM    H4G15255   0.468   3.524   2.721 -2.2227  0.1343  0.6219
  140OSM    C5F15256   0.333   3.357   2.744  0.3200  0.5322  0.0739
  140OSM    H5F15257   0.410   3.287   2.782  1.3835  0.6870 -1.6899
  140OSM    H5G15258   0.264   3.305   2.674  1.7009 -2.3569  0.7063
  140OSM    C6F15259   0.250   3.430   2.850 -0.3301  0.1269  0.9871
  140OSM    H6F15260   0.186   3.499   2.792 -1.3888 -2.4891 -1.1078
  140OSM    H6G15261   0.317   3.490   2.915 -2.0663  0.3816  2.6286
  140OSM    C7F15262   0.163   3.328   2.930  0.4656 -0.1523 -0.1494
  140OSM    H7F15263   0.082   3.286   2.867 -0.7277 -0.5339  1.5762
  140OSM    H7G15264   0.117   3.378   3.018  2.0348 -0.2067  0.7392
  140OSM    C8F15265   0.247   3.207   2.991 -0.1329 -0.5611 -0.3909
  140OSM    H8F15266   0.290   3.146   2.909 -0.2125 -1.0505 -0.0710
  140OSM    H8G15267   0.179   3.148   3.056  0.2908  0.1271  0.6907
  140OSM    C9F15268   0.362   3.267   3.083  0.7199 -0.3724  1.5202
  140OSM    H9F15269   0.457   3.290   3.032  0.1601  0.3071  0.7795
  140OSM   C10F15270   0.348   3.299   3.214 -0.8442  0.1674  0.6876
  140OSM   H10F15271   0.433   3.354   3.260 -0.5449  0.4114 -0.1369
  140OSM   C11F15272   0.224   3.271   3.294 -0.0253  0.0424  0.6251
  140OSM   H11F15273   0.244   3.186   3.363 -1.2704  0.9771  2.2052
  140OSM   H11G15274   0.135   3.237   3.237 -0.0794 -0.7516  1.1609
  140OSM   C12F15275   0.174   3.401   3.360 -0.9625  0.1591 -0.7055
  140OSM   H12F15276   0.081   3.372   3.413  0.9166 -0.9205  2.2347
  140OSM   H12G15277   0.142   3.474   3.282  0.8478  0.7258 -0.9741
  140OSM   C13F15278   0.274   3.471   3.463  1.2914  1.0010  0.0350
  140OSM   H13F15279   0.363   3.500   3.403  0.7458 -0.3185 -1.4743
  140OSM   H13G15280   0.300   3.394   3.539 -0.9048 -0.5584 -0.7206
  140OSM   C14F15281   0.201   3.590   3.534 -0.2155 -0.0407 -0.2772
  140OSM   H14F15282   0.122   3.548   3.601 -1.3707  2.0508 -0.2402
  140OSM   H14G15283   0.139   3.645   3.461 -2.8752  1.6606  2.9982
  140OSM   C15F15284   0.293   3.682   3.607 -0.2715  0.0246  0.5762
  140OSM   H15F15285   0.361   3.720   3.528  1.2837 -1.7309  1.0171
  140OSM   H15G15286   0.351   3.617   3.676 -0.5546 -0.3134  0.5060
  140OSM   C16F15287   0.229   3.803   3.666  0.2928 -0.0389 -0.3178
  140OSM   H16F15288   0.142   3.775   3.729 -0.2718  2.3573  0.0757
  140OSM   H16G15289   0.184   3.868   3.588 -0.0933 -0.7387 -0.6913
  140OSM   C17F15290   0.324   3.883   3.750 -0.1585 -0.0182 -0.4866
  140OSM   H17F15291   0.424   3.897   3.702 -1.9828  1.7135 -4.1737
  140OSM   H17G15292   0.357   3.817   3.833  1.1876 -0.4887 -1.3641
  140OSM   C18F15293   0.270   4.023   3.789  0.0222 -0.1779  0.3515
  140OSM   H18F15294   0.168   4.018   3.834  0.9811 -2.5881  2.5300
  140OSM   H18G15295   0.272   4.086   3.698 -1.3144 -1.2474 -0.4506
  140OSM   H18H15296   0.337   4.066   3.867 -1.2071  3.1980 -0.2711
  141OSM      N15297   3.189   1.765   2.131 -0.1605  0.4188  0.0125
  141OSM    C1515298   3.088   1.866   2.104 -0.5937 -0.3779  0.1634
  141OSM   H15A15299   3.018   1.878   2.186 -0.6880 -2.3774  0.4333
  141OSM   H15B15300   3.030   1.830   2.020 -0.3862 -1.3887  0.4372
  141OSM   H15C15301   3.130   1.960   2.074  2.1206 -1.0856  1.4406
  141OSM    C1415302   3.110   1.638   2.138 -0.3323  0.5554 -0.8671
  141OSM   H14A15303   3.074   1.606   2.042  2.6004 -1.8952 -1.3063
  141OSM   H14B15304   3.027   1.640   2.207 -0.4966 -1.9696 -0.9003
  141OSM   H14C15305   3.164   1.548   2.165 -0.2428  0.5905 -0.9296
  141OSM    C1315306   3.282   1.745   2.014  0.5165  1.0246 -0.2366
  141OSM   H13A15307   3.237   1.728   1.917  1.1928 -1.2340 -0.1985
  141OSM   H13B15308   3.352   1.666   2.037 -0.7886 -0.5084 -1.3278
  141OSM   H13C15309   3.347   1.831   2.010  2.3691 -0.3066  0.3231
  141OSM    C1215310   3.265   1.786   2.258 -0.1053 -0.0937 -0.2603
  141OSM   H12A15311   3.316   1.693   2.279 -1.1795 -1.0805 -1.8157
  141OSM   H12B15312   3.198   1.803   2.340  0.2630  2.5196 -0.3983
  141OSM    C1115313   3.362   1.902   2.278  0.1516 -0.5991  0.6304
  141OSM   H11A15314   3.403   1.900   2.381 -2.2596  1.3048  1.7199
  141OSM   H11B15315   3.324   2.003   2.253  1.0302 -0.4402 -0.1332
  141OSM      P15316   3.586   1.997   2.198 -0.2721  0.2953  0.2354
  141OSM    O1315317   3.709   1.945   2.134 -0.3303  0.4143 -0.0371
  141OSM    O1415318   3.528   2.125   2.144  0.3787  0.2052  0.0253
  141OSM    O1115319   3.620   2.024   2.354  0.0848 -0.2731 -0.5372
  141OSM    O1215320   3.477   1.882   2.205  0.6016  0.1625  0.1641
  141OSM    C1S15321   3.696   1.933   2.436  0.0583  0.0156 -0.0156
  141OSM    H1S15322   3.803   1.924   2.406  0.6477  0.2281  1.8676
  141OSM    H1T15323   3.645   1.835   2.428  1.1119 -0.4851 -0.9906
  141OSM     NF15324   3.774   1.871   2.659  0.2736  0.3841 -0.4277
  141OSM    HNF15325   3.723   1.808   2.717 -2.0362  0.0778 -2.6135
  141OSM    C2S15326   3.695   1.973   2.590 -0.5926  0.1175  0.4982
  141OSM    H2S15327   3.757   2.065   2.593 -0.1465  0.0840 -3.2015
  141OSM    C3S15328   3.550   2.005   2.636  0.2304  0.2080 -0.3375
  141OSM    H3S15329   3.478   1.920   2.639  0.5477 -0.0514  0.0230
  141OSM     O315330   3.488   2.101   2.557 -0.3261 -0.3660  0.5260
  141OSM    HO315331   3.538   2.107   2.475 -1.2710  1.2813  0.0342
  141OSM    C4S15332   3.559   2.063   2.773 -1.3480  0.1323  0.2087
  141OSM    H4S15333   3.552   2.173   2.778 -0.3457  0.1924  0.3900
  141OSM    C5S15334   3.553   2.000   2.887 -0.0367  0.2959 -0.0083
  141OSM    H5S15335   3.537   1.891   2.886 -0.0782  0.2933  0.4610
  141OSM    C6S15336   3.543   2.058   3.024  0.1714  0.4994 -0.1761
  141OSM    H6S15337   3.543   2.169   3.025  1.9209  0.5209 -0.0419
  141OSM    H6T15338   3.625   2.033   3.094  0.4510 -1.1155 -1.0285
  141OSM    C7S15339   3.403   2.021   3.085 -0.6420 -0.1972  0.0078
  141OSM    H7S15340   3.381   1.912   3.081  1.0254 -0.5310 -1.4515
  141OSM    H7T15341   3.318   2.063   3.029 -0.7543 -1.1678 -0.5731
  141OSM    C8S15342   3.399   2.068   3.236  0.2858  0.8932  0.2252
  141OSM    H8S15343   3.480   2.011   3.285  0.0637 -0.9719 -1.4498
  141OSM    H8T15344   3.297   2.040   3.272  0.3206  0.8772  0.3112
  141OSM    C9S15345   3.406   2.222   3.257 -0.4350  0.2941  0.4856
  141OSM    H9S15346   3.311   2.250   3.307 -1.8479 -0.2737 -1.7864
  141OSM    H9T15347   3.422   2.283   3.166  3.0340  3.3931  2.8606
  141OSM   C10S15348   3.510   2.265   3.360 -0.7141  0.8057  0.9027
  141OSM   H10S15349   3.493   2.372   3.387 -1.5842  1.5797 -2.1837
  141OSM   H10T15350   3.604   2.252   3.302  0.3542 -0.5038  2.8243
  141OSM   C11S15351   3.524   2.192   3.490 -0.4740  0.0776  0.1227
  141OSM   H11S15352   3.615   2.227   3.542  0.8585 -1.6878 -0.8985
  141OSM   H11T15353   3.540   2.083   3.474 -2.3423 -0.2136 -0.0316
  141OSM   C12S15354   3.404   2.218   3.589 -0.8553 -0.1207  0.1565
  141OSM   H12S15355   3.318   2.157   3.554 -1.0621  0.1781  0.1454
  141OSM   H12T15356   3.366   2.322   3.588  2.0577  1.0631 -2.0587
  141OSM   C13S15357   3.441   2.183   3.733  0.2035  0.1067 -0.4549
  141OSM   H13S15358   3.542   2.137   3.728 -0.1694 -0.8092  0.1774
  141OSM   H13T15359   3.368   2.109   3.770 -0.7381  1.4319  0.4323
  141OSM   C14S15360   3.439   2.297   3.828 -0.2243 -0.7024  0.0467
  141OSM   H14S15361   3.341   2.348   3.815 -0.1996  0.1410  2.5861
  141OSM   H14T15362   3.525   2.363   3.803  0.4340 -1.7701 -0.5706
  141OSM   C15S15363   3.430   2.252   3.974  0.4365 -0.2394  0.6482
  141OSM   H15S15364   3.516   2.187   3.999  1.3135  0.2324 -1.0285
  141OSM   H15T15365   3.334   2.197   3.982  0.9439 -0.9790  2.0352
  141OSM   C16S15366   3.428   2.371   4.076  0.5719  0.5878  0.3426
  141OSM   H16S15367   3.339   2.432   4.048 -1.6044 -0.4315  4.2342
  141OSM   H16T15368   3.525   2.425   4.073  0.4594  0.8261  0.8139
  141OSM   C17S15369   3.407   2.324   4.216  0.1289  0.1668 -0.6145
  141OSM   H17S15370   3.489   2.252   4.238  2.3068  1.8859 -2.6271
  141OSM   H17T15371   3.306   2.282   4.233 -0.2632  2.0083  2.3621
  141OSM   C18S15372   3.418   2.444   4.317  0.5986  0.3569  0.2368
  141OSM   H18S15373   3.428   2.405   4.420  0.5949  0.6446  0.3449
  141OSM   H18T15374   3.325   2.505   4.314 -0.3286 -0.8857  2.1042
  141OSM   H18U15375   3.501   2.508   4.278 -0.9068  2.0226 -0.3845
  141OSM    C1F15376   3.903   1.861   2.639  0.6563  1.0410  0.3197
  141OSM     OF15377   3.974   1.923   2.560  0.4183 -0.3063 -0.3462
  141OSM    C2F15378   3.977   1.762   2.718  0.2275 -0.3003 -0.1456
  141OSM    H2F15379   4.053   1.706   2.661 -1.4151 -2.5524 -0.2518
  141OSM    H2G15380   3.905   1.689   2.760 -0.3426  0.5973  0.4872
  141OSM    C3F15381   4.058   1.836   2.828 -0.5727 -0.7132  0.5577
  141OSM    H3F15382   4.138   1.899   2.783 -0.9669 -0.4299  0.2585
  141OSM    H3G15383   4.117   1.753   2.874 -0.2779 -1.1681 -0.6107
  141OSM    C4F15384   3.990   1.895   2.948 -0.4637  0.7387 -0.1170
  141OSM    H4F15385   3.942   1.976   2.890  0.9430  0.1866 -2.1890
  141OSM    H4G15386   4.057   1.940   3.024  1.9081 -0.2986 -1.4777
  141OSM    C5F15387   3.878   1.806   3.008  0.1340  0.6600 -0.2682
  141OSM    H5F15388   3.801   1.803   2.928 -0.8394  3.3142  0.4394
  141OSM    H5G15389   3.828   1.855   3.095 -1.7336 -1.0872 -0.2768
  141OSM    C6F15390   3.930   1.664   3.062 -0.2800 -0.3592  0.0464
  141OSM    H6F15391   3.982   1.615   2.977 -0.6042 -0.5814 -0.0285
  141OSM    H6G15392   3.834   1.610   3.077 -1.1570  0.9298 -0.7098
  141OSM    C7F15393   4.021   1.684   3.184 -0.2109  0.9104  0.3827
  141OSM    H7F15394   4.085   1.771   3.160  2.3871 -1.4123 -1.7599
  141OSM    H7G15395   4.087   1.595   3.184 -0.4067  0.7419  1.5069
  141OSM    C8F15396   3.941   1.694   3.316 -0.4043  0.2213 -0.4256
  141OSM    H8F15397   3.907   1.595   3.355 -0.3074  1.3349  2.7656
  141OSM    H8G15398   3.851   1.757   3.298  0.0166  0.3662 -2.2317
  141OSM    C9F15399   4.036   1.741   3.424 -0.3361  0.3409 -0.2220
  141OSM    H9F15400   4.127   1.680   3.429 -0.1446  0.6437 -0.0204
  141OSM   C10F15401   4.017   1.845   3.513 -0.2305  0.1334  0.7519
  141OSM   H10F15402   4.102   1.877   3.575 -0.0069  2.9967 -0.8657
  141OSM   C11F15403   3.893   1.931   3.521  0.0347 -0.1800 -0.0211
  141OSM   H11F15404   3.815   1.890   3.453 -0.9016  1.0555  0.2769
  141OSM   H11G15405   3.922   2.030   3.480 -0.4957 -0.6477 -1.6126
  141OSM   C12F15406   3.824   1.939   3.656  0.3897 -0.3116 -0.0568
  141OSM   H12F15407   3.804   1.836   3.693 -1.6170  0.8500  2.3856
  141OSM   H12G15408   3.724   1.983   3.640 -0.1063 -1.8072 -1.3526
  141OSM   C13F15409   3.902   2.029   3.755  0.2484  0.0529  0.5210
  141OSM   H13F15410   3.910   2.124   3.699  0.9192  1.5398  3.0087
  141OSM   H13G15411   4.002   1.983   3.767  0.0362 -0.9290 -1.1871
  141OSM   C14F15412   3.831   2.048   3.892  0.6564 -0.6078  0.3334
  141OSM   H14F15413   3.776   1.954   3.911  0.8910 -0.6295  0.9273
  141OSM   H14G15414   3.756   2.129   3.877  1.7517  0.4194  0.2288
  141OSM   C15F15415   3.928   2.088   3.997  0.3847  0.2214 -0.0117
  141OSM   H15F15416   3.964   2.193   3.993  1.4452  0.0520  2.7289
  141OSM   H15G15417   4.012   2.016   3.990  0.4176  0.0021  2.0474
  141OSM   C16F15418   3.861   2.082   4.137  0.0332 -0.4177 -0.2470
  141OSM   H16F15419   3.861   1.977   4.173  0.5501 -1.0313 -1.9716
  141OSM   H16G15420   3.758   2.119   4.115 -0.0275  1.1636  2.3143
  141OSM   C17F15421   3.914   2.176   4.241  0.3763 -0.1928 -0.4180
  141OSM   H17F15422   3.916   2.283   4.209  1.3665  0.2540  1.0318
  141OSM   H17G15423   4.020   2.149   4.258  1.1260  1.1256 -2.5438
  141OSM   C18F15424   3.833   2.159   4.365 -0.4688  0.7514 -0.6163
  141OSM   H18F15425   3.727   2.192   4.358 -1.9530 -2.8378  1.7679
  141OSM   H18G15426   3.878   2.218   4.448 -2.8847  1.7245  0.0687
  141OSM   H18H15427   3.823   2.054   4.400 -2.8552  0.6063 -1.5736
  142OSM      N15428   4.472   3.134   2.139 -0.1451 -0.1354 -0.0947
  142OSM    C1515429   4.388   3.013   2.116  0.7773 -0.0431 -0.3060
  142OSM   H15A15430   4.367   2.970   2.213 -0.1182 -0.4586 -0.6691
  142OSM   H15B15431   4.453   2.940   2.069 -0.1721 -3.2442  2.9108
  142OSM   H15C15432   4.299   3.023   2.055  0.2536 -2.1475  0.0301
  142OSM    C1415433   4.518   3.193   2.010 -0.7295 -0.6412  0.4740
  142OSM   H14A15434   4.441   3.234   1.947  1.5807  1.4965 -1.1822
  142OSM   H14B15435   4.573   3.112   1.965 -2.1733 -0.8713 -0.9329
  142OSM   H14C15436   4.582   3.278   2.032  0.2110 -1.2652  0.1925
  142OSM    C1315437   4.377   3.229   2.206 -0.1138  0.5951 -0.5532
  142OSM   H13A15438   4.297   3.268   2.146 -1.1033  0.1913  0.4754
  142OSM   H13B15439   4.429   3.310   2.255  0.9197 -1.3530  1.8495
  142OSM   H13C15440   4.328   3.175   2.286  0.7907  0.9904  0.2961
  142OSM    C1215441   4.581   3.097   2.241  0.2757 -0.5812  0.6092
  142OSM   H12A15442   4.530   3.067   2.331 -0.1981 -1.1955  0.1414
  142OSM   H12B15443   4.635   3.183   2.278  0.6965 -0.2649 -0.6923
  142OSM    C1115444   4.683   2.987   2.196  0.2359  0.5726 -0.7120
  142OSM   H11A15445   4.619   2.900   2.170 -0.9944  1.3038 -0.1882
  142OSM   H11B15446   4.749   2.958   2.281 -2.2801 -0.0408  1.1531
  142OSM      P15447   4.894   3.127   2.108 -0.0931 -0.0504 -0.0823
  142OSM    O1315448   5.013   3.035   2.117 -0.3623 -0.2586  0.0231
  142OSM    O1415449   4.893   3.235   2.003  0.5246  0.4418  0.2507
  142OSM    O1115450   4.862   3.193   2.248  0.6298 -0.3317  0.0372
  142OSM    O1215451   4.764   3.028   2.082 -0.5307 -0.1314  0.1198
  142OSM    C1S15452   4.826   3.327   2.270  0.4859  0.3762 -0.6668
  142OSM    H1S15453   4.728   3.345   2.221  0.9699  2.8550 -0.8576
  142OSM    H1T15454   4.903   3.396   2.229  1.7105 -1.8139 -2.2230
  142OSM     NF15455   4.731   3.474   2.448 -0.3423  0.2998  0.4959
  142OSM    HNF15456   4.770   3.565   2.441  1.5334 -0.5206 -0.3151
  142OSM    C2S15457   4.818   3.363   2.428  0.1179 -0.6422  0.2839
  142OSM    H2S15458   4.773   3.276   2.481 -0.1253 -0.3526  0.5535
  142OSM    C3S15459   4.957   3.379   2.493 -0.5410 -0.0214  0.4819
  142OSM    H3S15460   5.016   3.460   2.447 -0.7836 -1.2682 -2.2251
  142OSM     O315461   5.035   3.259   2.490  0.2745 -0.4677  0.4203
  142OSM    HO315462   4.993   3.200   2.427  1.8153 -1.1726 -0.0133
  142OSM    C4S15463   4.941   3.403   2.637 -0.0434  0.2470 -0.4671
  142OSM    H4S15464   4.890   3.320   2.688  0.3237 -0.5653 -1.3856
  142OSM    C5S15465   4.966   3.520   2.698 -0.3072  0.1070 -0.7527
  142OSM    H5S15466   5.000   3.606   2.639  1.9890  0.6968  1.2469
  142OSM    C6S15467   4.932   3.537   2.846 -0.5203  1.1025 -0.4678
  142OSM    H6S15468   4.916   3.441   2.901 -1.0167  1.9022  0.8275
  142OSM    H6T15469   4.837   3.594   2.858 -0.0855  2.2180 -2.0704
  142OSM    C7S15470   5.048   3.602   2.928 -0.2897 -0.0004  0.1023
  142OSM    H7S15471   5.042   3.711   2.913  3.1845 -0.0151 -2.5912
  142OSM    H7T15472   5.144   3.575   2.880 -1.0803  0.3179 -1.7445
  142OSM    C8S15473   5.049   3.553   3.069 -0.0613  0.3817 -0.0080
  142OSM    H8S15474   5.141   3.598   3.113  0.8913  0.0959 -1.6366
  142OSM    H8T15475   5.075   3.445   3.071  2.2868  0.9038  1.2173
  142OSM    C9S15476   4.924   3.565   3.164  0.6410 -0.3675 -0.0291
  142OSM    H9S15477   4.838   3.501   3.137  0.9978 -0.9014  0.0758
  142OSM    H9T15478   4.883   3.668   3.160 -0.5216 -0.6924  2.1967
  142OSM   C10S15479   4.958   3.544   3.318 -0.3347  0.1589 -0.3295
  142OSM   H10S15480   5.038   3.617   3.345 -1.0261  1.5977 -1.9470
  142OSM   H10T15481   5.009   3.447   3.329  1.8431  1.2916  0.1428
  142OSM   C11S15482   4.848   3.575   3.415 -0.0754  0.0178  0.1792
  142OSM   H11S15483   4.756   3.517   3.394  0.3016 -0.5277  0.0073
  142OSM   H11T15484   4.825   3.683   3.405 -0.7348 -0.2091 -0.8150
  142OSM   C12S15485   4.888   3.562   3.560 -0.3097 -0.2614  0.9978
  142OSM   H12S15486   4.970   3.637   3.562  1.1136 -0.9712 -5.9866
  142OSM   H12T15487   4.927   3.461   3.585 -0.2374 -0.4546  0.1373
  142OSM   C13S15488   4.786   3.604   3.670 -0.0484  0.2862  0.3717
  142OSM   H13S15489   4.694   3.543   3.656  0.4563 -0.2242 -0.7828
  142OSM   H13T15490   4.752   3.708   3.656  1.8183  0.6936 -1.5494
  142OSM   C14S15491   4.840   3.576   3.811  0.1962 -0.6611  0.7808
  142OSM   H14S15492   4.933   3.635   3.825 -0.1430 -0.0167  0.3526
  142OSM   H14T15493   4.863   3.468   3.817 -2.1348 -1.2208  0.3338
  142OSM   C15S15494   4.742   3.623   3.923 -0.0928  0.2305  0.1101
  142OSM   H15S15495   4.643   3.574   3.911  0.2029 -0.0997 -1.0862
  142OSM   H15T15496   4.720   3.732   3.920 -1.8759 -0.0943 -2.8891
  142OSM   C16S15497   4.799   3.594   4.063  0.5944  0.7831  0.1282
  142OSM   H16S15498   4.869   3.672   4.099 -1.9819  2.1246  2.7342
  142OSM   H16T15499   4.861   3.502   4.060 -0.5000  0.0469 -0.9380
  142OSM   C17S15500   4.694   3.570   4.167  0.3994  0.0662 -0.1239
  142OSM   H17S15501   4.735   3.520   4.257  0.9759  2.6501  1.1724
  142OSM   H17T15502   4.613   3.512   4.118  0.4337 -2.5084  2.5810
  142OSM   C18S15503   4.632   3.703   4.219  0.0805  1.3270  0.3163
  142OSM   H18S15504   4.554   3.668   4.289  0.9962 -0.0449  0.7020
  142OSM   H18T15505   4.591   3.763   4.134 -1.9179 -2.3321 -1.5638
  142OSM   H18U15506   4.706   3.763   4.276  1.0867  0.3545  0.0689
  142OSM    C1F15507   4.596   3.467   2.454 -0.2797  0.3448 -0.2476
  142OSM     OF15508   4.538   3.361   2.423 -0.0487 -0.3659  0.1084
  142OSM    C2F15509   4.522   3.585   2.502  0.6975  0.5586  0.3999
  142OSM    H2F15510   4.487   3.649   2.419 -1.0455 -4.1485 -2.9238
  142OSM    H2G15511   4.588   3.652   2.561 -0.4217  1.9109  0.1406
  142OSM    C3F15512   4.393   3.542   2.583 -0.4361 -0.8132 -0.6510
  142OSM    H3F15513   4.319   3.472   2.539 -1.8348 -1.2149  2.1371
  142OSM    H3G15514   4.336   3.637   2.592 -0.8351 -1.1966  1.2303
  142OSM    C4F15515   4.422   3.481   2.726 -0.2204 -1.0252  0.1349
  142OSM    H4F15516   4.471   3.564   2.782 -1.3351 -0.0877 -0.2269
  142OSM    H4G15517   4.492   3.397   2.707  1.0609  0.5679 -3.0307
  142OSM    C5F15518   4.301   3.434   2.804  0.6190 -0.1082  0.5505
  142OSM    H5F15519   4.255   3.352   2.745 -1.7357  0.5262  1.3980
  142OSM    H5G15520   4.224   3.512   2.821  0.2165 -0.4518  0.3345
  142OSM    C6F15521   4.339   3.399   2.945 -0.5603  0.1221 -0.0707
  142OSM    H6F15522   4.407   3.311   2.942 -0.4997  0.1945 -1.0470
  142OSM    H6G15523   4.247   3.363   2.994 -1.4677  0.3350 -1.5593
  142OSM    C7F15524   4.405   3.508   3.033 -0.0714  0.4973  0.8011
  142OSM    H7F15525   4.327   3.585   3.050  0.5877  1.4103 -0.1906
  142OSM    H7G15526   4.494   3.554   2.987 -0.1215 -0.5335 -0.3961
  142OSM    C8F15527   4.449   3.453   3.170 -0.2732 -0.5174 -0.3152
  142OSM    H8F15528   4.532   3.382   3.153  1.3559  1.2738 -0.2063
  142OSM    H8G15529   4.367   3.397   3.221  0.1494 -0.8927 -0.0408
  142OSM    C9F15530   4.496   3.569   3.248 -0.2210  0.0487 -0.3374
  142OSM    H9F15531   4.559   3.645   3.198  1.2710 -1.2180 -0.4595
  142OSM   C10F15532   4.453   3.600   3.372 -0.2638 -0.4276 -0.2120
  142OSM   H10F15533   4.505   3.681   3.426  0.1767 -0.5026 -0.5146
  142OSM   C11F15534   4.361   3.512   3.453 -0.5683 -0.1445 -0.4685
  142OSM   H11F15535   4.375   3.407   3.421 -1.3473 -0.0014 -1.3294
  142OSM   H11G15536   4.258   3.551   3.439  0.0474  1.2629 -1.4757
  142OSM   C12F15537   4.379   3.526   3.602  0.0035  0.6753  0.4774
  142OSM   H12F15538   4.486   3.522   3.631  0.2941 -1.0840 -0.6852
  142OSM   H12G15539   4.332   3.441   3.656  1.3911 -1.2933 -1.2600
  142OSM   C13F15540   4.324   3.657   3.660 -0.4167  0.4294 -0.3821
  142OSM   H13F15541   4.213   3.656   3.649 -0.5331  0.6764  0.6895
  142OSM   H13G15542   4.371   3.742   3.607 -1.2896  0.4636 -1.1380
  142OSM   C14F15543   4.375   3.680   3.805  0.2927 -0.1701  0.1065
  142OSM   H14F15544   4.334   3.779   3.834  1.9852  1.2931 -2.1172
  142OSM   H14G15545   4.483   3.702   3.796 -0.1916  1.8994 -2.0718
  142OSM   C15F15546   4.342   3.564   3.894  0.3874  0.3687  0.4101
  142OSM   H15F15547   4.370   3.585   4.000 -0.1901  1.5422  0.3392
  142OSM   H15G15548   4.394   3.471   3.863 -1.0757 -0.2194 -0.3596
  142OSM   C16F15549   4.194   3.538   3.893  0.0478  0.3383 -0.4835
  142OSM   H16F15550   4.170   3.462   3.816 -1.9733  0.7968 -0.3627
  142OSM   H16G15551   4.161   3.643   3.883  3.4196  1.5332 -0.3525
  142OSM   C17F15552   4.142   3.491   4.024 -0.1820  0.7608  0.1318
  142OSM   H17F15553   4.032   3.482   4.011 -0.0808 -0.7097  0.0655
  142OSM   H17G15554   4.165   3.563   4.105 -1.1458 -0.8219  1.9138
  142OSM   C18F15555   4.203   3.357   4.067  0.5643 -0.2110  0.3249
  142OSM   H18F15556   4.304   3.352   4.113  0.5837  0.9764  0.4585
  142OSM   H18G15557   4.199   3.291   3.979  0.4268  1.4241 -0.9408
  142OSM   H18H15558   4.136   3.320   4.148  0.5739  1.7112  1.2906
  143OSM      N15559   3.905   2.954   1.965 -0.1748 -0.4443  0.8959
  143OSM    C1515560   4.008   3.014   2.057  0.2863 -0.1321 -0.1566
  143OSM   H15A15561   3.961   3.101   2.101  0.1422 -0.9696  1.4215
  143OSM   H15B15562   4.103   3.038   2.011  0.3328  2.2427  0.9862
  143OSM   H15C15563   4.029   2.949   2.141 -2.4023  0.7925  1.3721
  143OSM    C1415564   3.882   3.057   1.858 -0.4385  0.8222 -0.2181
  143OSM   H14A15565   3.959   3.041   1.784  0.5965  3.3666  0.1985
  143OSM   H14B15566   3.907   3.157   1.890  1.4504  0.0063  0.9718
  143OSM   H14C15567   3.791   3.047   1.800 -0.5392 -0.1151  0.0938
  143OSM    C1315568   3.961   2.825   1.920  0.4024 -0.2815  0.4786
  143OSM   H13A15569   4.056   2.830   1.869  0.0249  1.8347 -0.0777
  143OSM   H13B15570   3.890   2.775   1.854 -1.9245  1.2265  1.7030
  143OSM   H13C15571   3.985   2.755   1.999  1.0419  0.1639  0.6798
  143OSM    C1215572   3.782   2.922   2.040 -0.2905  0.3724 -0.1423
  143OSM   H12A15573   3.812   2.841   2.105 -1.9108 -0.9180 -0.9307
  143OSM   H12B15574   3.707   2.877   1.976  1.8143  1.1051 -3.3686
  143OSM    C1115575   3.715   3.024   2.137 -0.1107  0.2300 -0.4146
  143OSM   H11A15576   3.790   3.067   2.206 -0.0545 -2.5742  1.4167
  143OSM   H11B15577   3.645   2.962   2.198  0.7385 -0.7026 -0.3707
  143OSM      P15578   3.515   3.093   1.988 -0.3175  0.5162  0.5944
  143OSM    O1315579   3.488   3.193   1.885  0.1996 -0.2346  0.5050
  143OSM    O1415580   3.510   2.950   1.943 -0.3325  0.0554 -0.5408
  143OSM    O1115581   3.412   3.116   2.106  0.5103 -0.1244  0.0897
  143OSM    O1215582   3.654   3.126   2.055  0.4444  0.2336 -0.1455
  143OSM    C1S15583   3.337   3.003   2.157  0.0206 -0.0584 -0.2004
  143OSM    H1S15584   3.409   2.928   2.196 -1.1799 -0.2922  1.6531
  143OSM    H1T15585   3.282   2.953   2.075  0.6154 -0.8870 -0.1023
  143OSM     NF15586   3.175   2.911   2.315  0.3971  0.8568  0.5540
  143OSM    HNF15587   3.078   2.900   2.292  0.2746  2.8373 -0.0914
  143OSM    C2S15588   3.230   3.027   2.266 -0.6239 -0.4761 -0.3489
  143OSM    H2S15589   3.292   3.073   2.346 -0.5850  0.6163 -0.9848
  143OSM    C3S15590   3.125   3.127   2.215  0.4046 -0.4536 -0.5878
  143OSM    H3S15591   3.081   3.101   2.116  2.5060  0.9730 -1.9839
  143OSM     O315592   3.174   3.245   2.161 -0.3231 -0.0772  0.3379
  143OSM    HO315593   3.264   3.215   2.145  0.2360  1.8625 -0.4379
  143OSM    C4S15594   3.025   3.159   2.322  0.2187  0.9155 -0.5241
  143OSM    H4S15595   3.065   3.223   2.402  1.3537 -0.0498 -0.2882
  143OSM    C5S15596   2.893   3.150   2.314  0.7925  0.5260  0.3761
  143OSM    H5S15597   2.847   3.106   2.224  0.1084  0.4718  0.7439
  143OSM    C6S15598   2.793   3.220   2.408  0.3817 -0.2827 -0.4053
  143OSM    H6S15599   2.693   3.201   2.363 -1.4644 -1.1286  3.6106
  143OSM    H6T15600   2.822   3.326   2.427  0.1895 -0.3308  0.2065
  143OSM    C7S15601   2.781   3.142   2.545  0.3922  0.8333  0.3393
  143OSM    H7S15602   2.870   3.108   2.602  0.2613  0.9461  0.6084
  143OSM    H7T15603   2.721   3.051   2.520 -2.1626  2.1903  1.1910
  143OSM    C8S15604   2.698   3.225   2.643  0.1220  0.4402 -0.1182
  143OSM    H8S15605   2.612   3.279   2.598 -1.2744 -1.0012  0.6887
  143OSM    H8T15606   2.762   3.307   2.680  0.8844  0.3032 -1.1053
  143OSM    C9S15607   2.634   3.140   2.758  0.0940  0.2716  0.3781
  143OSM    H9S15608   2.721   3.092   2.808  0.9811  0.1510 -1.2341
  143OSM    H9T15609   2.563   3.067   2.715 -0.1010  0.5258  0.2712
  143OSM   C10S15610   2.560   3.233   2.855 -0.0284  0.1393  0.6237
  143OSM   H10S15611   2.473   3.288   2.814  0.0233 -0.9986 -1.0955
  143OSM   H10T15612   2.622   3.319   2.890 -0.8321  1.1904 -0.4507
  143OSM   C11S15613   2.511   3.162   2.985 -0.5624  0.4767  0.0824
  143OSM   H11S15614   2.539   3.055   2.980  2.2079  1.1204 -0.0387
  143OSM   H11T15615   2.403   3.181   3.000 -0.6236  1.1298 -1.0380
  143OSM   C12S15616   2.584   3.218   3.103  0.5895 -0.2798 -0.2639
  143OSM   H12S15617   2.574   3.327   3.085 -1.0842 -0.4957 -0.8621
  143OSM   H12T15618   2.691   3.191   3.103  1.0370  1.4023 -0.1991
  143OSM   C13S15619   2.518   3.167   3.237  0.1926  0.2162  0.3690
  143OSM   H13S15620   2.529   3.056   3.241  3.5873  0.3062 -2.0967
  143OSM   H13T15621   2.410   3.182   3.256  0.0518 -0.7989  0.4367
  143OSM   C14S15622   2.591   3.231   3.349 -0.1032  0.1599  0.1461
  143OSM   H14S15623   2.579   3.341   3.343 -2.0626 -0.0773 -0.9048
  143OSM   H14T15624   2.701   3.218   3.342 -0.1324 -0.6982  0.9303
  143OSM   C15S15625   2.543   3.197   3.487 -0.2165 -1.0268 -0.0061
  143OSM   H15S15626   2.592   3.100   3.511 -0.1467 -0.9864  0.0129
  143OSM   H15T15627   2.432   3.190   3.477 -0.3234 -0.6743  0.9001
  143OSM   C16S15628   2.575   3.303   3.598 -0.8793  0.2561 -0.3306
  143OSM   H16S15629   2.536   3.407   3.594  0.8122  0.8723 -2.1106
  143OSM   H16T15630   2.677   3.341   3.577 -1.7220  3.9989  1.4962
  143OSM   C17S15631   2.564   3.252   3.742 -0.1050  0.6447 -0.6329
  143OSM   H17S15632   2.616   3.321   3.812 -0.4080 -0.2328  0.4872
  143OSM   H17T15633   2.601   3.149   3.758  0.7860  1.0346 -0.1076
  143OSM   C18S15634   2.419   3.244   3.797 -0.1609 -0.1132  0.3979
  143OSM   H18S15635   2.363   3.193   3.716  1.3259  0.8495 -1.3207
  143OSM   H18T15636   2.385   3.348   3.813  0.2792 -0.3397  3.5408
  143OSM   H18U15637   2.403   3.198   3.897 -0.9109 -0.8477 -0.0550
  143OSM    C1F15638   3.236   2.825   2.393  0.2418 -0.6484 -0.2980
  143OSM     OF15639   3.354   2.845   2.419 -0.1243  0.0680 -0.1433
  143OSM    C2F15640   3.161   2.716   2.447  0.2870  0.1260 -1.4416
  143OSM    H2F15641   3.214   2.624   2.414  0.3521 -0.6023  0.5707
  143OSM    H2G15642   3.055   2.721   2.415 -1.0970  2.1962  2.7986
  143OSM    C3F15643   3.143   2.716   2.602  0.4084  0.0316  0.4163
  143OSM    H3F15644   3.233   2.726   2.668  0.6927 -2.7681  0.5825
  143OSM    H3G15645   3.108   2.611   2.614  1.8647 -0.8711 -2.3646
  143OSM    C4F15646   3.027   2.810   2.637 -0.3376  0.1842 -0.5002
  143OSM    H4F15647   2.928   2.780   2.597  0.2890 -1.2742 -1.0334
  143OSM    H4G15648   3.053   2.915   2.613 -2.6187  1.1739  1.0356
  143OSM    C5F15649   3.010   2.821   2.792  0.0737 -0.1479  0.4547
  143OSM    H5F15650   2.937   2.899   2.823 -2.0443 -1.8568  0.0685
  143OSM    H5G15651   3.104   2.848   2.844  0.8067 -1.9573  0.1571
  143OSM    C6F15652   2.968   2.690   2.862  0.2163  0.3423  0.3545
  143OSM    H6F15653   3.026   2.603   2.824 -1.5565 -1.0470  0.7014
  143OSM    H6G15654   2.865   2.681   2.822  0.0910  1.9596  0.2667
  143OSM    C7F15655   2.960   2.703   3.016  0.2936 -0.1997  0.4952
  143OSM    H7F15656   3.038   2.772   3.056  0.2442 -0.3475  0.8535
  143OSM    H7G15657   2.962   2.600   3.058  2.4357 -0.4870 -0.1742
  143OSM    C8F15658   2.834   2.779   3.058  0.6257 -0.1292  0.3018
  143OSM    H8F15659   2.824   2.875   3.003 -2.4964  0.2809  1.3917
  143OSM    H8G15660   2.839   2.803   3.166 -1.3758 -1.5868  0.7810
  143OSM    C9F15661   2.710   2.689   3.062 -0.3246 -1.4005  0.2973
  143OSM    H9F15662   2.656   2.658   2.971 -1.2679  0.6293  0.0991
  143OSM   C10F15663   2.661   2.626   3.172 -0.6443 -0.9769  0.9826
  143OSM   H10F15664   2.562   2.578   3.171 -0.8806 -0.4945  0.8328
  143OSM   C11F15665   2.715   2.656   3.314  0.7735 -0.1511  0.0462
  143OSM   H11F15666   2.813   2.707   3.325  0.7662 -0.5340  2.1312
  143OSM   H11G15667   2.718   2.560   3.369 -1.5532 -2.1471 -2.9864
  143OSM   C12F15668   2.605   2.748   3.385 -0.4732 -0.1220 -0.1222
  143OSM   H12F15669   2.504   2.702   3.379 -0.6447  0.2878 -0.4268
  143OSM   H12G15670   2.609   2.846   3.333 -1.5802  0.6049  1.0829
  143OSM   C13F15671   2.645   2.784   3.531  0.2712  0.1806  0.0067
  143OSM   H13F15672   2.580   2.867   3.566 -2.0791 -1.7609  0.4961
  143OSM   H13G15673   2.753   2.811   3.535  1.2569 -3.3704  3.6080
  143OSM   C14F15674   2.609   2.657   3.610 -0.5374 -0.1797  0.5522
  143OSM   H14F15675   2.665   2.570   3.569  1.0199  0.3110  1.5350
  143OSM   H14G15676   2.501   2.633   3.614 -0.5367 -0.0946  1.1360
  143OSM   C15F15677   2.657   2.659   3.757 -0.0788  0.0844 -0.5333
  143OSM   H15F15678   2.760   2.702   3.758  0.7449 -1.8164  0.5434
  143OSM   H15G15679   2.655   2.557   3.800  0.8392 -0.1752 -1.0668
  143OSM   C16F15680   2.548   2.742   3.834 -0.1465 -0.7440  0.6676
  143OSM   H16F15681   2.454   2.717   3.779  0.1049  2.0384 -1.1998
  143OSM   H16G15682   2.568   2.850   3.820 -2.9918 -0.3519 -1.3743
  143OSM   C17F15683   2.547   2.721   3.987  0.0718  0.0706  0.0687
  143OSM   H17F15684   2.650   2.713   4.029 -0.1772  0.5109  0.7878
  143OSM   H17G15685   2.501   2.622   4.003 -0.1829  0.5851  3.1211
  143OSM   C18F15686   2.476   2.836   4.061 -0.0503 -0.7610  0.8699
  143OSM   H18F15687   2.527   2.927   4.023 -0.9494 -1.6009 -2.7051
  143OSM   H18G15688   2.485   2.839   4.172  0.9707  1.1505  0.7896
  143OSM   H18H15689   2.368   2.835   4.037 -0.4268 -3.0793  2.4212
  144OSM      N15690   2.553   2.360   2.253  0.9915 -0.7320 -0.8251
  144OSM    C1515691   2.544   2.235   2.163 -0.0781  0.2634  0.2707
  144OSM   H15A15692   2.456   2.178   2.189  0.2775  0.1572  1.2812
  144OSM   H15B15693   2.635   2.177   2.173 -0.3287 -0.6665 -2.1759
  144OSM   H15C15694   2.536   2.264   2.059 -0.5765  1.0728  0.5260
  144OSM    C1415695   2.417   2.423   2.256  0.0092  0.6300  0.1921
  144OSM   H14A15696   2.394   2.472   2.350  0.7829  2.4174 -0.5094
  144OSM   H14B15697   2.349   2.341   2.242  0.6447  0.5100 -2.9546
  144OSM   H14C15698   2.398   2.488   2.172 -1.9853  0.5429  0.5386
  144OSM    C1315699   2.584   2.318   2.393 -0.3781  0.7558  0.3992
  144OSM   H13A15700   2.510   2.250   2.432  0.6861 -0.3370  0.5755
  144OSM   H13B15701   2.591   2.407   2.455 -0.0167  1.1919 -0.2540
  144OSM   H13C15702   2.682   2.272   2.395 -0.5477  0.2722 -1.3596
  144OSM    C1215703   2.664   2.452   2.206  0.2681  0.1863  0.0391
  144OSM   H12A15704   2.680   2.532   2.277  1.5666  1.9252 -2.0722
  144OSM   H12B15705   2.637   2.498   2.112 -1.4863 -0.1241  0.3620
  144OSM    C1115706   2.799   2.387   2.187 -0.4650  0.1227 -0.1343
  144OSM   H11A15707   2.875   2.468   2.187  0.7211 -0.8616  2.6657
  144OSM   H11B15708   2.806   2.337   2.087 -1.0340 -0.0256 -0.0995
  144OSM      P15709   2.928   2.172   2.265  0.0179  0.7878  0.3456
  144OSM    O1315710   2.843   2.058   2.216  0.2197 -0.2317 -0.4966
  144OSM    O1415711   3.042   2.204   2.184  0.7014 -0.2600  0.0039
  144OSM    O1115712   2.976   2.148   2.414 -0.5996  0.4119  0.7144
  144OSM    O1215713   2.848   2.304   2.296 -0.0627 -0.2047  0.8384
  144OSM    C1S15714   3.108   2.166   2.459  0.2345 -0.2018  0.0509
  144OSM    H1S15715   3.136   2.273   2.455  1.7280 -0.5771 -0.3467
  144OSM    H1T15716   3.185   2.116   2.396  0.9338 -0.6283  1.2122
  144OSM     NF15717   3.249   2.195   2.665  0.6620  0.8169 -0.1333
  144OSM    HNF15718   3.341   2.157   2.656  0.0386 -0.5707 -1.0415
  144OSM    C2S15719   3.142   2.115   2.603 -0.0291 -0.3352 -0.0668
  144OSM    H2S15720   3.052   2.131   2.666 -0.7978 -0.6716 -1.0606
  144OSM    C3S15721   3.167   1.961   2.614 -0.0572  0.1428 -0.1286
  144OSM    H3S15722   3.262   1.939   2.561  0.4393  1.1765  0.3200
  144OSM     O315723   3.080   1.886   2.522  0.9848 -0.2142 -0.6604
  144OSM    HO315724   3.049   1.948   2.456 -1.2425 -0.5123  0.0476
  144OSM    C4S15725   3.181   1.901   2.745 -0.4393 -0.2414 -0.6439
  144OSM    H4S15726   3.284   1.904   2.785 -0.8159  0.3935  0.3007
  144OSM    C5S15727   3.091   1.833   2.821  0.6647  0.1050 -0.1979
  144OSM    H5S15728   2.988   1.829   2.783  1.1588 -0.8163 -1.4858
  144OSM    C6S15729   3.123   1.755   2.954  0.1734 -0.1563  0.5856
  144OSM    H6S15730   3.059   1.787   3.038  1.1836  0.3774  1.1704
  144OSM    H6T15731   3.223   1.783   2.994  0.9009 -1.3287 -0.3114
  144OSM    C7S15732   3.124   1.603   2.930  0.3885  0.5514 -0.7625
  144OSM    H7S15733   3.176   1.579   2.835 -0.0087 -1.5743 -0.4951
  144OSM    H7T15734   3.018   1.579   2.910  0.2329 -2.2371  2.4944
  144OSM    C8S15735   3.183   1.527   3.049  0.2414  0.1217 -0.6614
  144OSM    H8S15736   3.293   1.536   3.044  0.1131  1.6550 -1.2085
  144OSM    H8T15737   3.160   1.419   3.039 -0.4901 -0.0778  2.2623
  144OSM    C9S15738   3.133   1.571   3.189 -0.4241  0.6632 -0.5068
  144OSM    H9S15739   3.023   1.576   3.173 -0.5526  0.3283  0.2439
  144OSM    H9T15740   3.164   1.677   3.204 -3.0839  1.6886 -1.6382
  144OSM   C10S15741   3.180   1.481   3.306  0.0520  0.4347 -1.1100
  144OSM   H10S15742   3.289   1.482   3.327 -0.6037  1.6231  3.2350
  144OSM   H10T15743   3.153   1.374   3.292  0.6283 -0.1795  1.9279
  144OSM   C11S15744   3.118   1.528   3.436  0.1146  0.0375  0.4746
  144OSM   H11S15745   3.008   1.535   3.429  0.0019 -1.6413  0.1883
  144OSM   H11T15746   3.165   1.626   3.461  2.2500 -1.0288  0.8647
  144OSM   C12S15747   3.142   1.434   3.557  0.4338 -0.5151 -0.0092
  144OSM   H12S15748   3.251   1.425   3.579  0.1386  0.2777  2.0420
  144OSM   H12T15749   3.103   1.339   3.513 -1.3616  0.6191 -0.9970
  144OSM   C13S15750   3.070   1.460   3.688  0.2139  0.8193  0.7792
  144OSM   H13S15751   2.969   1.500   3.663  0.6281  3.8397  3.3090
  144OSM   H13T15752   3.118   1.549   3.734 -0.5606  1.9714 -0.5350
  144OSM   C14S15753   3.058   1.333   3.784 -0.0293 -0.7446 -0.6759
  144OSM   H14S15754   3.154   1.278   3.772  0.1321 -0.1634 -2.2462
  144OSM   H14T15755   2.968   1.276   3.753 -1.1272  0.3651  0.3519
  144OSM   C15S15756   3.045   1.366   3.935  0.4867 -0.1010  0.3738
  144OSM   H15S15757   3.022   1.276   3.997  0.9287 -0.5200 -0.0519
  144OSM   H15T15758   2.971   1.446   3.954  1.0788  0.8247 -1.0960
  144OSM   C16S15759   3.183   1.408   3.996 -0.0991 -0.2567  0.4998
  144OSM   H16S15760   3.231   1.486   3.932  0.9887 -1.8166 -0.6580
  144OSM   H16T15761   3.241   1.314   3.987  0.1759  0.0817 -1.7973
  144OSM   C17S15762   3.160   1.448   4.139 -0.2064 -0.1706 -0.6394
  144OSM   H17S15763   3.116   1.359   4.188  0.7884 -0.2773  0.0860
  144OSM   H17T15764   3.089   1.531   4.157 -1.2365 -0.7202 -2.0358
  144OSM   C18S15765   3.296   1.474   4.206 -0.0300  0.2179  0.3047
  144OSM   H18S15766   3.373   1.394   4.192 -0.1621  0.4056 -1.8050
  144OSM   H18T15767   3.281   1.488   4.315 -0.0824  0.9996  0.2013
  144OSM   H18U15768   3.347   1.562   4.162 -0.5776 -0.6179 -2.1752
  144OSM    C1F15769   3.223   2.317   2.713  0.5657  0.0722 -0.3508
  144OSM     OF15770   3.103   2.353   2.711 -0.0092  0.0746 -0.2914
  144OSM    C2F15771   3.329   2.405   2.760  0.4872 -0.2938  0.7308
  144OSM    H2F15772   3.367   2.463   2.673  1.6250 -0.9299  0.7925
  144OSM    H2G15773   3.421   2.348   2.786  0.6834  0.8030  2.6067
  144OSM    C3F15774   3.294   2.494   2.882 -0.3769 -0.4563  0.4027
  144OSM    H3F15775   3.259   2.435   2.970  0.9958 -0.1266  1.1894
  144OSM    H3G15776   3.212   2.568   2.866 -1.3381 -1.8203 -1.4586
  144OSM    C4F15777   3.417   2.578   2.925  0.0171 -0.1240 -0.1401
  144OSM    H4F15778   3.439   2.644   2.839 -2.1193  0.5141 -0.2585
  144OSM    H4G15779   3.508   2.515   2.939  1.1116  1.3819 -0.3025
  144OSM    C5F15780   3.387   2.660   3.051 -0.1669  0.6140 -0.0148
  144OSM    H5F15781   3.307   2.734   3.031 -0.1967  0.3394 -0.9295
  144OSM    H5G15782   3.475   2.715   3.089 -0.2557 -1.1051  2.9804
  144OSM    C6F15783   3.343   2.588   3.182 -0.4719  0.1536  0.5033
  144OSM    H6F15784   3.410   2.504   3.212  0.6873  1.4911  1.8321
  144OSM    H6G15785   3.243   2.544   3.163 -0.1895 -0.7091  0.9256
  144OSM    C7F15786   3.331   2.684   3.291  0.6171  0.1935 -0.0285
  144OSM    H7F15787   3.247   2.748   3.258  1.2989  0.6311 -0.9697
  144OSM    H7G15788   3.417   2.754   3.302  0.4217  0.3106  0.8318
  144OSM    C8F15789   3.297   2.616   3.424  0.5088 -0.3424  0.1162
  144OSM    H8F15790   3.389   2.572   3.467  1.1223  3.0794  2.7064
  144OSM    H8G15791   3.226   2.534   3.398  1.8393 -1.7365  0.7170
  144OSM    C9F15792   3.240   2.724   3.517 -0.4293 -0.1975  0.1066
  144OSM    H9F15793   3.161   2.790   3.478  0.4971  1.4781  0.9324
  144OSM   C10F15794   3.285   2.756   3.641 -0.2248 -0.0015 -0.0199
  144OSM   H10F15795   3.221   2.818   3.704 -0.2861 -0.0571 -0.0275
  144OSM   C11F15796   3.404   2.690   3.707 -0.4307  0.1284  0.0475
  144OSM   H11F15797   3.482   2.770   3.706 -1.7243  1.4618  0.9360
  144OSM   H11G15798   3.444   2.604   3.650  2.7034  0.4846  1.4953
  144OSM   C12F15799   3.366   2.646   3.852 -0.3787 -0.7149  0.3865
  144OSM   H12F15800   3.453   2.586   3.886  0.2847  0.5764  1.0421
  144OSM   H12G15801   3.277   2.580   3.857  1.2704 -3.0083  1.3425
  144OSM   C13F15802   3.358   2.766   3.950 -0.0176 -0.2328 -0.1735
  144OSM   H13F15803   3.273   2.825   3.910 -0.4434 -0.9775 -0.3820
  144OSM   H13G15804   3.449   2.826   3.928 -0.8996  0.8973 -0.8129
  144OSM   C14F15805   3.354   2.742   4.103  0.1438 -0.0468  0.2871
  144OSM   H14F15806   3.419   2.655   4.127  1.8440  1.3712  0.9864
  144OSM   H14G15807   3.257   2.703   4.141 -0.1797  0.5793  0.1103
  144OSM   C15F15808   3.393   2.863   4.186  0.9717  0.2614  0.2921
  144OSM   H15F15809   3.495   2.892   4.153  1.4601  0.5069  1.9527
  144OSM   H15G15810   3.405   2.838   4.293  3.7063  0.5697  0.1345
  144OSM   C16F15811   3.294   2.980   4.166 -0.1525  0.7483  0.6044
  144OSM   H16F15812   3.186   2.952   4.160  0.0562 -0.0849  0.5267
  144OSM   H16G15813   3.310   3.023   4.065  2.4915 -3.6369 -1.1400
  144OSM   C17F15814   3.295   3.084   4.284  0.2957 -0.4920 -0.1309
  144OSM   H17F15815   3.404   3.102   4.296 -0.0300  3.5562 -1.7179
  144OSM   H17G15816   3.279   3.036   4.383  3.6302  0.7977  1.1985
  144OSM   C18F15817   3.208   3.207   4.270 -0.2252  0.3959 -0.0608
  144OSM   H18F15818   3.243   3.297   4.324  0.7126  0.4955 -0.8099
  144OSM   H18G15819   3.107   3.172   4.302  0.8353  0.0418  3.2844
  144OSM   H18H15820   3.194   3.234   4.163  0.0265  0.2939 -0.1204
  145SAPE     N15821   3.159   3.136   7.299 -0.0640 -0.0983 -0.4216
  145SAPE   HN115822   3.172   3.138   7.402 -3.0170 -1.4880  0.0856
  145SAPE   HN215823   3.087   3.209   7.285  0.9399  1.0901  0.3444
  145SAPE   HN315824   3.111   3.046   7.280 -1.0206  0.5547 -1.1656
  145SAPE   C1215825   3.280   3.170   7.219 -0.7843 -0.3957  0.0700
  145SAPE  H12A15826   3.371   3.114   7.249 -1.0698 -1.2896 -0.7131
  145SAPE  H12B15827   3.304   3.276   7.246  0.4729 -0.6487  0.0074
  145SAPE   C1115828   3.254   3.150   7.070 -1.0402  0.1874  0.4052
  145SAPE  H11A15829   3.234   3.045   7.040  0.4386  0.1725 -0.6678
  145SAPE  H11B15830   3.350   3.151   7.013 -1.1898 -3.5445 -0.1601
  145SAPE     P15831   3.036   3.194   6.932  0.4361 -0.1152  0.2438
  145SAPE   O1315832   2.978   3.106   7.036 -0.0128 -0.3877 -0.0472
  145SAPE   O1415833   2.955   3.309   6.880 -0.6177  0.5146  0.5617
  145SAPE   O1215834   3.162   3.246   7.011 -0.2938  0.4259 -0.1002
  145SAPE   O1115835   3.091   3.110   6.815 -0.2722  0.3267 -0.1217
  145SAPE    C115836   3.202   3.141   6.732 -0.4700  0.5564  0.0961
  145SAPE    HA15837   3.204   3.243   6.690  2.0874 -0.3778 -2.3916
  145SAPE    HB15838   3.291   3.128   6.797 -0.7224 -0.4588  0.2526
  145SAPE    C215839   3.226   3.024   6.626  0.3773  0.3276  0.7517
  145SAPE    HS15840   3.324   3.043   6.578  0.4375 -0.9028  0.3617
  145SAPE   O2115841   3.119   3.026   6.524 -0.5585 -0.0650  0.1754
  145SAPE   C2115842   3.137   3.117   6.432 -0.0990 -0.7269  0.0179
  145SAPE   O2215843   3.230   3.203   6.431 -0.0239  0.6022 -0.0929
  145SAPE   C2215844   3.026   3.122   6.330  0.0857  0.5455 -0.9102
  145SAPE   H2R15845   3.039   3.029   6.272  0.5682 -0.7032  1.1140
  145SAPE   H2S15846   2.927   3.115   6.379 -0.1665 -1.0710 -1.5974
  145SAPE    C315847   3.240   2.879   6.685  0.2927 -0.2619  0.1755
  145SAPE    HX15848   3.181   2.867   6.779  1.0570 -3.0440  0.3679
  145SAPE    HY15849   3.346   2.865   6.718  0.5919 -1.5283 -1.2549
  145SAPE   O3115850   3.213   2.776   6.587 -0.4822 -0.7948 -0.0773
  145SAPE   C3115851   3.117   2.691   6.620  0.1365 -0.3053  0.5331
  145SAPE   O3215852   3.035   2.707   6.708  0.4303 -0.1549  0.2423
  145SAPE   C3215853   3.121   2.575   6.519  0.6729 -1.0109 -0.5334
  145SAPE   H2X15854   3.084   2.488   6.578 -0.8290  0.3181  0.5545
  145SAPE   H2Y15855   3.225   2.552   6.487  0.2291  0.3292 -3.2135
  145SAPE   C2315856   3.028   3.250   6.241  0.7235  0.1219  0.1404
  145SAPE   H3R15857   3.128   3.262   6.193  0.1816 -0.2399 -1.1029
  145SAPE   H3S15858   3.005   3.341   6.300  1.8755  0.5321 -0.0143
  145SAPE   C2415859   2.929   3.231   6.131  0.0983 -0.5349 -0.0687
  145SAPE   H4R15860   2.828   3.220   6.177  0.5448  0.7951  1.3018
  145SAPE   H4S15861   2.952   3.138   6.074 -2.6769 -1.2891 -0.1204
  145SAPE   C2515862   2.924   3.343   6.037 -0.1681  0.0201  0.0614
  145SAPE   H5R15863   2.947   3.440   6.084 -1.3193  1.2136 -1.7287
  145SAPE   C2615864   2.888   3.343   5.907 -0.2118 -0.1612 -0.2336
  145SAPE   H6R15865   2.889   3.441   5.856  1.7073 -0.4559 -0.8432
  145SAPE   C2715866   2.847   3.224   5.816 -0.5239 -0.4327  0.5431
  145SAPE   H7R15867   2.794   3.146   5.874 -2.9424  1.0785  0.4869
  145SAPE   H7S15868   2.942   3.176   5.783 -0.6727  0.1551 -0.7990
  145SAPE   C2815869   2.768   3.277   5.695 -0.2194  0.0772  0.7191
  145SAPE   H8R15870   2.703   3.361   5.725 -0.3828 -0.2170  1.2030
  145SAPE   C2915871   2.759   3.232   5.569  0.0822  0.1981  0.6860
  145SAPE   H9R15872   2.697   3.294   5.503 -0.2925 -0.3456  0.5220
  145SAPE  C21015873   2.837   3.118   5.511 -0.1490 -0.3360 -0.4286
  145SAPE  H10R15874   2.916   3.086   5.582  0.7542  0.5425 -1.0129
  145SAPE  H10S15875   2.895   3.158   5.425 -0.5051  1.9013  0.3042
  145SAPE  C21115876   2.741   3.013   5.458 -0.7499  0.0447 -0.5856
  145SAPE  H11R15877   2.702   2.957   5.544  0.5344 -0.2288 -0.1609
  145SAPE  C21215878   2.684   3.011   5.337  0.7671 -0.3485 -0.8531
  145SAPE  H12R15879   2.601   2.938   5.329 -1.0910  0.8502  4.1648
  145SAPE  C21315880   2.713   3.089   5.217  0.0519 -0.0608  0.2050
  145SAPE  H13R15881   2.696   3.199   5.226  2.6066  0.5275 -1.2296
  145SAPE  H13S15882   2.645   3.042   5.143  0.4437 -0.8722  0.3550
  145SAPE  C21415883   2.851   3.052   5.169 -0.1764 -0.5077  0.0287
  145SAPE  H14R15884   2.895   2.955   5.197 -0.1734 -0.0382  1.7352
  145SAPE  C21515885   2.922   3.118   5.073  0.0712 -0.2725  0.2463
  145SAPE  H15R15886   3.017   3.075   5.039  0.5368  0.8310  0.1228
  145SAPE  C21615887   2.890   3.246   4.996  0.4881 -1.0614  0.4951
  145SAPE  H16R15888   2.972   3.320   5.007 -0.1738 -0.1427 -0.5976
  145SAPE  H16S15889   2.806   3.303   5.041  1.2992  0.6523 -0.0969
  145SAPE  C21715890   2.859   3.227   4.845  1.1559 -0.1794  1.2603
  145SAPE  H17R15891   2.826   3.325   4.803  0.0883 -0.0291  2.4045
  145SAPE  H17S15892   2.786   3.145   4.827  2.4600 -0.6606 -3.0042
  145SAPE  C21815893   2.981   3.186   4.755  0.1644 -1.3597  0.1548
  145SAPE  H18R15894   3.015   3.084   4.784  2.9568 -0.0584  1.9443
  145SAPE  H18S15895   3.063   3.262   4.756 -0.4208 -0.6931 -0.7235
  145SAPE  C21915896   2.944   3.175   4.605 -0.1531 -0.3855 -1.2690
  145SAPE  H19R15897   2.889   3.078   4.600 -0.3511 -0.6172  2.3032
  145SAPE  H19S15898   3.043   3.167   4.556  0.7830  1.9312  0.0764
  145SAPE  C22015899   2.872   3.290   4.542  0.3668 -0.1166 -0.2763
  145SAPE  H20R15900   2.843   3.241   4.446  0.8576 -0.1947 -0.3870
  145SAPE  H20S15901   2.934   3.382   4.533 -1.1655  0.8050 -2.4612
  145SAPE  H20T15902   2.779   3.321   4.594  0.0325 -2.4866  0.6572
  145SAPE   C3315903   3.021   2.587   6.401  0.6131  0.0906  0.3551
  145SAPE   H3X15904   2.918   2.592   6.440  0.4671 -2.0462  0.3928
  145SAPE   H3Y15905   3.025   2.488   6.349 -0.5469  0.1942  0.0553
  145SAPE   C3415906   3.066   2.698   6.301 -0.0888  0.0681  0.0654
  145SAPE   H4X15907   3.176   2.709   6.297 -0.2669  1.7698 -1.4799
  145SAPE   H4Y15908   3.018   2.784   6.352  1.6853  1.5587 -0.6924
  145SAPE   C3515909   3.019   2.669   6.157  0.1747 -0.1779  0.3516
  145SAPE   H5X15910   2.908   2.662   6.151 -0.0199  2.8887 -2.6484
  145SAPE   H5Y15911   3.068   2.575   6.122  1.7948 -0.3449  2.8350
  145SAPE   C3615912   3.067   2.777   6.063  0.1234 -0.1555  0.0386
  145SAPE   H6X15913   3.176   2.787   6.080  0.1001 -0.5594  0.4155
  145SAPE   H6Y15914   3.012   2.871   6.086 -1.2225 -1.2539  1.4751
  145SAPE   C3715915   3.050   2.737   5.922  0.9006  0.2455  0.3334
  145SAPE   H7X15916   2.944   2.706   5.910  1.0193 -0.6844  1.4878
  145SAPE   H7Y15917   3.111   2.646   5.907 -0.9839 -0.7151 -2.0553
  145SAPE   C3815918   3.081   2.848   5.819  0.2382  0.4979  0.1950
  145SAPE   H8X15919   3.188   2.875   5.834  0.1761  0.1648  1.3420
  145SAPE   H8Y15920   3.017   2.936   5.844 -0.2685  1.0129 -2.6024
  145SAPE   C3915921   3.057   2.788   5.677 -0.8519  0.5841  0.8345
  145SAPE   H9X15922   2.952   2.813   5.649 -0.9251 -0.9569 -0.3611
  145SAPE   H9Y15923   3.074   2.679   5.664  0.6092  1.1253 -2.9374
  145SAPE  C31015924   3.155   2.855   5.575  0.0833 -0.5380  0.6930
  145SAPE  H10X15925   3.263   2.844   5.598  0.7373 -1.3067 -2.3397
  145SAPE  H10Y15926   3.127   2.962   5.567 -0.6101 -0.7929 -0.5764
  145SAPE  C31115927   3.136   2.785   5.443  0.1394  0.1668  0.2662
  145SAPE  H11X15928   3.030   2.781   5.413  0.5583 -0.1832 -1.2485
  145SAPE  H11Y15929   3.170   2.679   5.442 -1.2392 -0.2878 -0.5018
  145SAPE  C31215930   3.212   2.841   5.324  0.0584 -0.1271  0.1300
  145SAPE  H12X15931   3.318   2.867   5.346 -1.0383  3.6639  1.6536
  145SAPE  H12Y15932   3.174   2.945   5.307 -0.0136 -0.2519 -0.5090
  145SAPE  C31315933   3.189   2.757   5.194 -0.0820  0.2911 -0.7734
  145SAPE  H13X15934   3.087   2.737   5.156  0.1844  0.6106 -1.6758
  145SAPE  H13Y15935   3.240   2.658   5.194 -1.2048 -0.2987 -0.8454
  145SAPE  C31415936   3.251   2.830   5.075 -0.0690  0.2443  0.5307
  145SAPE  H14X15937   3.359   2.854   5.088 -0.3259  0.8240  1.7356
  145SAPE  H14Y15938   3.207   2.930   5.060 -3.8162 -1.2143  0.8260
  145SAPE  C31515939   3.243   2.748   4.946 -0.1679  0.7569 -0.7890
  145SAPE  H15X15940   3.137   2.717   4.932  0.6500 -4.6430  2.0272
  145SAPE  H15Y15941   3.302   2.656   4.961 -2.2268 -0.6524 -0.8465
  145SAPE  C31615942   3.296   2.827   4.829 -0.1970 -0.3133  0.1460
  145SAPE  H16X15943   3.395   2.868   4.857 -0.9838  1.0765  1.0121
  145SAPE  H16Y15944   3.222   2.909   4.818 -0.1957 -0.4252 -0.7143
  145SAPE  C31715945   3.294   2.745   4.705  0.3452  0.5208  0.2079
  145SAPE  H17X15946   3.194   2.709   4.676  0.0169  0.4634  1.3543
  145SAPE  H17Y15947   3.369   2.663   4.718 -2.1577 -2.0396 -0.5644
  145SAPE  C31815948   3.348   2.836   4.591 -0.7315  0.2556  0.4175
  145SAPE  H18X15949   3.364   2.775   4.499  0.8706  0.2727  0.6517
  145SAPE  H18Y15950   3.449   2.876   4.613 -0.3179  0.0665 -0.9932
  145SAPE  H18Z15951   3.287   2.926   4.570 -0.7546  0.0114 -0.6324
  146SAPE     N15952   0.235   2.585   6.567 -0.0586  0.4071  0.0585
  146SAPE   HN115953   0.181   2.543   6.646  0.4267  1.5934  1.0433
  146SAPE   HN215954   0.162   2.605   6.497 -0.4450  0.3238  0.4306
  146SAPE   HN315955   0.299   2.512   6.530  0.5880  0.1219  1.6270
  146SAPE   C1215956   0.305   2.709   6.608  0.5936  0.0764 -0.5298
  146SAPE  H12A15957   0.383   2.727   6.531  0.1708 -0.2102 -1.0328
  146SAPE  H12B15958   0.343   2.692   6.711  0.0425 -1.1584 -0.5127
  146SAPE   C1115959   0.210   2.826   6.618  0.2375 -0.3703 -0.3684
  146SAPE  H11A15960   0.165   2.849   6.519  1.0492 -1.4254 -1.0145
  146SAPE  H11B15961   0.263   2.920   6.644 -0.2605 -0.3781  0.7269
  146SAPE     P15962   0.050   2.919   6.800  0.2168 -0.3111  0.4769
  146SAPE   O1315963  -0.069   2.880   6.878  0.2014 -0.0962  0.0972
  146SAPE   O1415964   0.165   2.969   6.872 -1.1063 -0.3288  0.2178
  146SAPE   O1215965   0.103   2.796   6.713  0.0213  0.4587  0.5617
  146SAPE   O1115966   0.009   3.019   6.684  1.2596 -0.3059  0.7311
  146SAPE    C115967  -0.109   2.996   6.602  0.5500 -0.1464  0.4190
  146SAPE    HA15968  -0.146   2.892   6.590 -1.6168  0.7735 -1.7981
  146SAPE    HB15969  -0.197   3.043   6.651 -0.3671 -0.4185 -0.8942
  146SAPE    C215970  -0.072   3.038   6.463  0.1202  0.5717 -0.1078
  146SAPE    HS15971   0.021   2.979   6.447  0.5154  1.9612 -3.8591
  146SAPE   O2115972  -0.039   3.179   6.450 -0.1380 -0.1560  0.3694
  146SAPE   C2115973   0.078   3.215   6.383  0.1281 -0.4056  0.6811
  146SAPE   O2215974   0.145   3.140   6.314  0.3381 -0.3529 -0.1724
  146SAPE   C2215975   0.093   3.371   6.403  0.0042  1.1464  0.2553
  146SAPE   H2R15976  -0.009   3.409   6.384  0.1080  1.2644 -0.0597
  146SAPE   H2S15977   0.142   3.392   6.501 -0.4345  1.4200  0.4163
  146SAPE    C315978  -0.180   2.987   6.365 -0.6528 -0.3512 -0.7292
  146SAPE    HX15979  -0.266   3.048   6.399  0.6596  1.2421 -0.0729
  146SAPE    HY15980  -0.202   2.879   6.374 -0.2389 -0.3837 -0.0298
  146SAPE   O3115981  -0.162   3.036   6.230 -0.1677  0.7334  0.0052
  146SAPE   C3115982  -0.087   2.958   6.148  0.3729  0.1832 -0.0321
  146SAPE   O3215983  -0.020   2.860   6.180 -0.3587 -0.4413  0.0252
  146SAPE   C3215984  -0.095   3.014   6.010  0.2145 -0.4738  0.1493
  146SAPE   H2X15985  -0.097   3.125   6.021  0.0951 -0.5085  0.4920
  146SAPE   H2Y15986  -0.191   2.971   5.973 -0.8880  1.4827  0.6175
  146SAPE   C2315987   0.193   3.423   6.287 -0.5480 -0.1107 -0.1157
  146SAPE   H3R15988   0.183   3.375   6.187  1.3430 -1.4029  0.2449
  146SAPE   H3S15989   0.300   3.414   6.316 -0.1613  3.0985 -0.2530
  146SAPE   C2415990   0.199   3.577   6.275  1.1597 -0.1698  0.1794
  146SAPE   H4R15991   0.296   3.601   6.226 -0.3556  1.2002 -2.3612
  146SAPE   H4S15992   0.200   3.603   6.383  0.1927  1.1377 -0.1022
  146SAPE   C2515993   0.085   3.631   6.196 -0.2149  0.2767 -0.1994
  146SAPE   H5R15994   0.015   3.689   6.258 -0.2676 -0.0723  0.0771
  146SAPE   C2615995   0.060   3.621   6.066  0.0103  0.3936  0.7298
  146SAPE   H6R15996  -0.023   3.671   6.014  0.5757  0.3823 -0.1990
  146SAPE   C2715997   0.153   3.552   5.966  0.2646  0.6376 -0.7278
  146SAPE   H7R15998   0.120   3.451   5.935  0.5049  0.3999 -0.2085
  146SAPE   H7S15999   0.252   3.529   6.011 -0.4023  1.5498  1.3426
  146SAPE   C2816000   0.166   3.639   5.841  0.3266 -0.5133 -0.4124
  146SAPE   H8R16001   0.259   3.697   5.837  0.2287 -0.2456  0.8682
  146SAPE   C2916002   0.078   3.653   5.744 -0.2393  0.0334 -0.3584
  146SAPE   H9R16003   0.097   3.734   5.672 -0.7282  0.1869 -0.3180
  146SAPE  C21016004  -0.060   3.594   5.729 -0.4128 -0.2715  0.3241
  146SAPE  H10R16005  -0.122   3.662   5.666  0.2522 -1.1780 -1.3826
  146SAPE  H10S16006  -0.116   3.587   5.825  0.5656 -4.4764  0.7910
  146SAPE  C21116007  -0.062   3.458   5.672  0.1156 -0.1306 -0.0383
  146SAPE  H11R16008  -0.034   3.370   5.732 -0.3065 -0.3466 -0.1470
  146SAPE  C21216009  -0.080   3.438   5.539 -0.3636 -0.5928 -0.1977
  146SAPE  H12R16010  -0.088   3.337   5.498 -1.6416 -0.6822  0.2189
  146SAPE  C21316011  -0.114   3.538   5.434 -0.1547 -0.0651  0.2081
  146SAPE  H13R16012  -0.075   3.498   5.337  1.7468 -0.8747  1.2401
  146SAPE  H13S16013  -0.063   3.634   5.454 -2.5481  1.6504 -1.4818
  146SAPE  C21416014  -0.250   3.575   5.422 -0.9801 -0.0398 -0.8606
  146SAPE  H14R16015  -0.310   3.557   5.512 -2.5306 -0.0630 -1.8550
  146SAPE  C21516016  -0.306   3.617   5.311  0.1611  0.2227 -0.3405
  146SAPE  H15R16017  -0.414   3.633   5.305  0.2865  1.3457 -0.0106
  146SAPE  C21616018  -0.238   3.639   5.181 -0.1002  0.7068  0.5691
  146SAPE  H16R16019  -0.141   3.691   5.196  1.4605 -1.3058 -1.7287
  146SAPE  H16S16020  -0.302   3.704   5.117  2.5584  0.7528 -2.2765
  146SAPE  C21716021  -0.216   3.505   5.099  0.3872 -0.5982  0.2055
  146SAPE  H17R16022  -0.318   3.461   5.091  0.2750 -0.2503 -0.3767
  146SAPE  H17S16023  -0.153   3.435   5.157 -0.0400 -1.4803 -0.3763
  146SAPE  C21816024  -0.161   3.531   4.959  0.1680 -1.1634  0.6525
  146SAPE  H18R16025  -0.061   3.580   4.963 -0.6207  0.6454 -0.5069
  146SAPE  H18S16026  -0.217   3.607   4.901  1.7334 -0.6886 -0.3021
  146SAPE  C21916027  -0.147   3.406   4.875  0.0284 -0.4999 -0.5518
  146SAPE  H19R16028  -0.083   3.332   4.928 -2.5851 -2.4343  0.0667
  146SAPE  H19S16029  -0.091   3.428   4.781 -1.0371 -2.4130 -1.6845
  146SAPE  C22016030  -0.284   3.354   4.833  0.4195  0.1797 -0.3959
  146SAPE  H20R16031  -0.283   3.283   4.747 -0.7897 -0.9364  0.4647
  146SAPE  H20S16032  -0.345   3.439   4.797  1.9829  1.0817 -1.0224
  146SAPE  H20T16033  -0.338   3.297   4.911  0.4157 -0.0849 -0.5888
  146SAPE   C3316034   0.024   2.961   5.922  0.3199 -0.1530 -0.1094
  146SAPE   H3X16035   0.038   2.851   5.928  1.0640 -0.1303 -1.2560
  146SAPE   H3Y16036   0.117   2.993   5.975  1.0220 -0.8975 -0.8712
  146SAPE   C3416037   0.029   3.020   5.778 -0.4171  0.2312 -0.2346
  146SAPE   H4X16038   0.134   3.047   5.754 -1.5329  4.1658 -1.5027
  146SAPE   H4Y16039  -0.025   3.117   5.772 -0.8769 -0.0079 -0.0425
  146SAPE   C3516040  -0.038   2.929   5.685 -0.2907  0.6344  0.1662
  146SAPE   H5X16041  -0.128   2.897   5.742  2.3379 -3.4651  2.5419
  146SAPE   H5Y16042   0.010   2.831   5.663 -0.5829  0.9475 -2.0975
  146SAPE   C3616043  -0.073   3.002   5.549 -0.3913  0.2525  0.3653
  146SAPE   H6X16044  -0.075   3.109   5.577  1.9072  0.4753 -0.1569
  146SAPE   H6Y16045  -0.169   2.959   5.513 -1.1594  0.5729  1.9531
  146SAPE   C3716046   0.038   2.989   5.444  0.7866  0.3160  0.1090
  146SAPE   H7X16047   0.053   2.882   5.417  1.0952  0.3266  0.2347
  146SAPE   H7Y16048   0.130   3.040   5.478  0.8577 -0.8925  1.8822
  146SAPE   C3816049  -0.014   3.056   5.317 -0.0564  0.1606 -0.2800
  146SAPE   H8X16050  -0.054   3.157   5.339  0.6066  0.0867  1.4534
  146SAPE   H8Y16051  -0.095   2.992   5.278 -0.1140 -0.5823  0.9993
  146SAPE   C3916052   0.099   3.056   5.209  0.1868 -0.1738 -0.4657
  146SAPE   H9X16053   0.139   2.952   5.213  1.0816  0.1986  0.6157
  146SAPE   H9Y16054   0.172   3.127   5.254 -0.6986  1.5904 -1.6903
  146SAPE  C31016055   0.046   3.103   5.074  0.8419 -0.0967  0.3342
  146SAPE  H10X16056   0.134   3.129   5.010  0.5837  2.7637  1.0110
  146SAPE  H10Y16057  -0.005   3.201   5.089 -1.8498 -1.9282  4.9701
  146SAPE  C31116058  -0.060   2.999   5.018 -0.4189  0.3185 -1.1714
  146SAPE  H11X16059  -0.145   3.017   5.089  0.1458 -0.2313 -0.3459
  146SAPE  H11Y16060  -0.031   2.896   5.045  0.5975  0.4082 -1.9051
  146SAPE  C31216061  -0.100   3.029   4.870 -0.1649  0.7022 -0.1875
  146SAPE  H12X16062  -0.005   3.028   4.812 -0.6290 -0.4767 -0.9675
  146SAPE  H12Y16063  -0.143   3.131   4.861 -0.8713  0.3590 -0.8856
  146SAPE  C31316064  -0.190   2.914   4.806 -0.3720  0.4661  0.0406
  146SAPE  H13X16065  -0.292   2.913   4.851 -0.6665 -2.5355 -0.4528
  146SAPE  H13Y16066  -0.141   2.816   4.826  1.5290  1.7388  2.1999
  146SAPE  C31416067  -0.208   2.936   4.647  0.8060  0.1252 -0.0592
  146SAPE  H14X16068  -0.254   3.033   4.620  0.7902  0.6766  1.8199
  146SAPE  H14Y16069  -0.273   2.851   4.614 -0.6457  0.9091  0.6604
  146SAPE  C31516070  -0.069   2.925   4.578  0.1689 -0.1092 -1.3077
  146SAPE  H15X16071  -0.018   2.838   4.623 -0.2613 -1.0215 -2.5172
  146SAPE  H15Y16072  -0.009   3.017   4.593  0.7404 -0.8614  1.4990
  146SAPE  C31616073  -0.071   2.891   4.425  0.1962  0.0327  0.3979
  146SAPE  H16X16074  -0.089   2.983   4.366 -1.2632 -0.3594  0.1839
  146SAPE  H16Y16075  -0.162   2.829   4.410  2.6251 -3.1899 -3.0891
  146SAPE  C31716076   0.052   2.815   4.370  0.6337 -0.5092 -0.1599
  146SAPE  H17X16077   0.145   2.850   4.420  2.1701 -1.9845 -1.8486
  146SAPE  H17Y16078   0.079   2.831   4.264 -0.4106  0.8179 -0.2617
  146SAPE  C31816079   0.053   2.663   4.409  0.3620 -0.6488 -0.7786
  146SAPE  H18X16080   0.047   2.646   4.518 -1.0659  0.0978 -0.7138
  146SAPE  H18Y16081   0.145   2.622   4.363 -0.0337 -2.1041 -0.3167
  146SAPE  H18Z16082  -0.032   2.608   4.362 -1.9058 -0.2575  2.4962
  147SAPE     N16083   3.761   0.158   6.904 -0.0886 -0.4075 -0.5451
  147SAPE   HN116084   3.860   0.181   6.882 -0.4853  1.4016 -0.5752
  147SAPE   HN216085   3.722   0.241   6.952 -0.1177 -0.5637 -0.2947
  147SAPE   HN316086   3.761   0.081   6.974 -0.3630  2.2951  2.6553
  147SAPE   C1216087   3.697   0.127   6.773  0.6796  0.4106 -0.0050
  147SAPE  H12A16088   3.599   0.084   6.804  0.6546  0.0556 -0.5624
  147SAPE  H12B16089   3.757   0.048   6.722 -0.3223 -0.0959 -0.4211
  147SAPE   C1116090   3.675   0.250   6.691 -0.2543 -0.3663  0.0253
  147SAPE  H11A16091   3.618   0.221   6.599 -0.0672 -1.1902  0.1575
  147SAPE  H11B16092   3.773   0.292   6.660 -1.3611  2.1164 -0.3165
  147SAPE     P16093   3.600   0.499   6.726 -0.0952 -0.6936  0.0715
  147SAPE   O1316094   3.471   0.549   6.770  0.3008 -0.5018 -0.0791
  147SAPE   O1416095   3.719   0.574   6.767 -0.3322  0.3313  0.2223
  147SAPE   O1216096   3.602   0.347   6.764  0.1683  0.3734 -0.0940
  147SAPE   O1116097   3.609   0.503   6.572 -0.2177 -0.3683 -0.0875
  147SAPE    C116098   3.512   0.519   6.470  0.2746 -0.5595 -0.4473
  147SAPE    HA16099   3.418   0.474   6.511 -0.6489  1.1592 -0.6071
  147SAPE    HB16100   3.505   0.627   6.445 -0.1605 -0.8832 -1.8380
  147SAPE    C216101   3.543   0.438   6.347 -0.3247  0.3765 -0.4431
  147SAPE    HS16102   3.529   0.328   6.360 -2.7726  0.5458 -1.2059
  147SAPE   O2116103   3.672   0.470   6.282 -0.0670  0.4002  0.3910
  147SAPE   C2116104   3.769   0.404   6.333 -0.4297 -0.1946  0.7297
  147SAPE   O2216105   3.761   0.322   6.422 -0.1520  0.4279  0.2350
  147SAPE   C2216106   3.907   0.443   6.267 -0.1180  0.5013 -0.1190
  147SAPE   H2R16107   3.944   0.542   6.303 -0.9808  0.6880  0.3050
  147SAPE   H2S16108   3.965   0.357   6.308 -1.7275 -0.0907  1.0163
  147SAPE    C316109   3.433   0.483   6.245  0.1568 -0.7686 -0.0087
  147SAPE    HX16110   3.436   0.594   6.237  2.1940 -0.6377  1.5935
  147SAPE    HY16111   3.340   0.445   6.292 -0.7720  1.1196 -0.2124
  147SAPE   O3116112   3.440   0.408   6.121 -0.0756 -0.6217  0.3426
  147SAPE   C3116113   3.477   0.484   6.015 -0.5172  0.3472  0.2080
  147SAPE   O3216114   3.497   0.602   6.008  0.2586  0.3937  0.5131
  147SAPE   C3216115   3.513   0.395   5.905  0.8488  0.2084 -0.3481
  147SAPE   H2X16116   3.424   0.338   5.870  0.0948  0.9446  0.3286
  147SAPE   H2Y16117   3.590   0.326   5.946  1.3632  1.0710  0.1519
  147SAPE   C2316118   3.909   0.442   6.107 -0.4995  0.1552 -0.5131
  147SAPE   H3R16119   3.868   0.540   6.074 -0.8008  0.4917  0.7926
  147SAPE   H3S16120   3.839   0.362   6.077 -3.7854  2.0245  1.4907
  147SAPE   C2416121   4.045   0.410   6.044  0.3078  1.1428 -0.7562
  147SAPE   H4R16122   4.083   0.310   6.075 -1.2780  0.9790  0.8224
  147SAPE   H4S16123   4.123   0.482   6.078  0.2979  0.4169  0.8792
  147SAPE   C2516124   4.029   0.430   5.900 -0.0995 -0.1526  0.1668
  147SAPE   H5R16125   3.949   0.502   5.876  0.1295  0.2052  0.4658
  147SAPE   C2616126   4.100   0.373   5.798  0.2085 -0.3447  0.2957
  147SAPE   H6R16127   4.067   0.401   5.696 -0.9728  2.7952  1.4241
  147SAPE   C2716128   4.221   0.285   5.798 -1.0373 -0.2865  0.2199
  147SAPE   H7R16129   4.255   0.270   5.902 -1.0802  1.9556  0.5938
  147SAPE   H7S16130   4.296   0.354   5.752 -2.1482  2.1562  1.9004
  147SAPE   C2816131   4.209   0.156   5.721  0.6859 -0.7388 -0.4531
  147SAPE   H8R16132   4.137   0.080   5.755  0.8742 -1.6210 -1.9279
  147SAPE   C2916133   4.259   0.128   5.596 -0.3032  0.2837 -0.4755
  147SAPE   H9R16134   4.256   0.023   5.566 -0.9833  0.3570 -0.6754
  147SAPE  C21016135   4.342   0.215   5.508  0.1208 -0.6245 -0.0139
  147SAPE  H10R16136   4.292   0.314   5.504 -0.2044 -0.7780  0.1270
  147SAPE  H10S16137   4.337   0.177   5.404  1.6300  1.1322 -0.7790
  147SAPE  C21116138   4.484   0.222   5.546  0.3760  0.3970 -0.2913
  147SAPE  H11R16139   4.495   0.240   5.654 -1.5008 -2.1600  0.4072
  147SAPE  C21216140   4.594   0.231   5.465 -0.3927  0.5097  0.0640
  147SAPE  H12R16141   4.696   0.239   5.505  0.3826  0.1314 -1.7469
  147SAPE  C21316142   4.590   0.233   5.311  0.5977  0.9890  0.3591
  147SAPE  H13R16143   4.679   0.290   5.276  1.0045 -0.9670 -2.0144
  147SAPE  H13S16144   4.504   0.291   5.272  1.6068  1.7976 -0.7300
  147SAPE  C21416145   4.575   0.099   5.242  0.1462  0.4750 -0.1041
  147SAPE  H14R16146   4.597   0.009   5.301 -0.8127 -0.3489 -0.9570
  147SAPE  C21516147   4.565   0.074   5.112 -0.1832 -0.0480 -0.5187
  147SAPE  H15R16148   4.539  -0.031   5.090 -0.8681 -0.6869  2.8698
  147SAPE  C21616149   4.565   0.170   4.990  1.1160  0.9404 -0.8239
  147SAPE  H16R16150   4.655   0.152   4.927  0.0788  0.1252 -2.1226
  147SAPE  H16S16151   4.572   0.275   5.028  0.9427  0.6814 -0.0664
  147SAPE  C21716152   4.451   0.165   4.891  0.4520 -0.4140 -0.3562
  147SAPE  H17R16153   4.362   0.141   4.952  0.2654 -0.4763 -0.6513
  147SAPE  H17S16154   4.458   0.083   4.816 -1.3819 -1.9031  0.9877
  147SAPE  C21816155   4.437   0.297   4.816 -0.9711 -0.1824  0.1131
  147SAPE  H18R16156   4.542   0.316   4.784 -1.4288  2.1268 -0.1914
  147SAPE  H18S16157   4.406   0.385   4.877 -0.3593  0.3204 -0.2828
  147SAPE  C21916158   4.351   0.289   4.691  0.1831  0.4058  0.6346
  147SAPE  H19R16159   4.245   0.274   4.721 -0.7669  1.3452 -1.9929
  147SAPE  H19S16160   4.388   0.205   4.629  0.3191  1.7405 -1.1764
  147SAPE  C22016161   4.339   0.408   4.597  0.2246  0.0467 -0.2110
  147SAPE  H20R16162   4.269   0.385   4.514 -0.4923  2.2357 -0.2799
  147SAPE  H20S16163   4.438   0.447   4.564  0.3649  1.4764  1.7458
  147SAPE  H20T16164   4.285   0.491   4.647  1.0088  0.3472  0.1502
  147SAPE   C3316165   3.579   0.478   5.793 -0.2898  0.5173 -0.3885
  147SAPE   H3X16166   3.653   0.554   5.825 -0.4316  0.0731  1.0723
  147SAPE   H3Y16167   3.505   0.530   5.729 -1.3801  1.4753  1.5375
  147SAPE   C3416168   3.651   0.387   5.690  0.3303 -1.0683  0.0198
  147SAPE   H4X16169   3.572   0.324   5.644  0.0196 -1.0968  0.5800
  147SAPE   H4Y16170   3.718   0.317   5.744  1.9563  0.2478 -0.2208
  147SAPE   C3516171   3.721   0.472   5.580 -0.1751 -0.1113 -0.4747
  147SAPE   H5X16172   3.791   0.541   5.633  1.9109  0.1402 -3.3408
  147SAPE   H5Y16173   3.642   0.536   5.536 -2.1101 -0.2993  2.4320
  147SAPE   C3616174   3.801   0.395   5.481  0.6965 -0.4251  0.3761
  147SAPE   H6X16175   3.839   0.302   5.530  0.3301  0.4023  2.3205
  147SAPE   H6Y16176   3.891   0.454   5.453 -0.2624 -0.1449 -2.4310
  147SAPE   C3716177   3.732   0.376   5.349  0.3338  0.4045  0.4068
  147SAPE   H7X16178   3.688   0.473   5.317 -1.5996 -0.5817 -0.0644
  147SAPE   H7Y16179   3.654   0.298   5.364  0.9297 -0.3873 -0.5547
  147SAPE   C3816180   3.819   0.317   5.235  0.3017 -0.3945 -0.3874
  147SAPE   H8X16181   3.838   0.208   5.246  0.6140 -0.4029 -0.9641
  147SAPE   H8Y16182   3.915   0.371   5.251 -1.4688  2.4495  1.3985
  147SAPE   C3916183   3.755   0.339   5.095 -0.9045 -0.2513  0.0365
  147SAPE   H9X16184   3.743   0.448   5.081 -2.2464  0.3621  4.4683
  147SAPE   H9Y16185   3.656   0.289   5.095 -0.3874 -1.4485 -2.4724
  147SAPE  C31016186   3.832   0.263   4.979 -0.4176  0.4296 -0.5609
  147SAPE  H10X16187   3.837   0.160   5.020  0.0560  0.0800 -1.4717
  147SAPE  H10Y16188   3.934   0.305   4.969 -0.0271  0.1993  1.8618
  147SAPE  C31116189   3.756   0.245   4.842 -0.4989  0.4194  0.0489
  147SAPE  H11X16190   3.671   0.175   4.856  0.2058 -0.3983  0.3213
  147SAPE  H11Y16191   3.815   0.178   4.776 -0.6036 -0.6236  0.9802
  147SAPE  C31216192   3.724   0.381   4.773  0.5112  0.2077 -0.0994
  147SAPE  H12X16193   3.815   0.444   4.763 -0.6887  2.2373  1.0333
  147SAPE  H12Y16194   3.653   0.434   4.840 -1.1978 -0.4241 -1.3292
  147SAPE  C31316195   3.645   0.366   4.641 -0.2146  0.4187 -0.0826
  147SAPE  H13X16196   3.665   0.274   4.583 -1.1591  0.1258  0.0266
  147SAPE  H13Y16197   3.679   0.450   4.577  1.6759 -1.5191 -1.7351
  147SAPE  C31416198   3.488   0.376   4.662 -0.2781  0.1483 -0.3380
  147SAPE  H14X16199   3.446   0.410   4.565 -1.1214  2.2797  0.7088
  147SAPE  H14Y16200   3.464   0.446   4.744  0.0138 -0.1799  0.0329
  147SAPE  C31516201   3.427   0.241   4.684 -0.5564 -0.8091  0.0027
  147SAPE  H15X16202   3.472   0.189   4.770 -1.3211 -0.5921  0.5474
  147SAPE  H15Y16203   3.444   0.172   4.598  0.1520  0.8616 -1.2624
  147SAPE  C31616204   3.274   0.258   4.682 -0.0693 -0.7450 -0.0829
  147SAPE  H16X16205   3.222   0.265   4.583 -0.6734  0.5942  0.3003
  147SAPE  H16Y16206   3.253   0.347   4.745  0.9338  1.4300 -2.6139
  147SAPE  C31716207   3.205   0.136   4.746 -0.0564  0.3869  0.4627
  147SAPE  H17X16208   3.264   0.110   4.837 -1.8905 -0.9962  1.3132
  147SAPE  H17Y16209   3.217   0.046   4.681 -1.5979 -0.5236  1.3658
  147SAPE  C31816210   3.065   0.154   4.780 -0.2110  0.9102 -0.1615
  147SAPE  H18X16211   3.008   0.160   4.685 -1.3384  1.4145  0.5369
  147SAPE  H18Y16212   3.058   0.246   4.842 -0.7812  1.5925 -1.2034
  147SAPE  H18Z16213   3.025   0.064   4.830 -0.5538  0.8734 -0.4995
  148SAPE     N16214   4.109   5.418   6.649  0.4527  0.3454  0.4735
  148SAPE   HN116215   4.012   5.455   6.652  0.4144  0.1714  1.6868
  148SAPE   HN216216   4.177   5.495   6.630  2.7439 -1.0189  2.5482
  148SAPE   HN316217   4.109   5.351   6.569  0.6207 -1.2566  1.7751
  148SAPE   C1216218   4.149   5.353   6.780  0.1496  0.1009  0.2680
  148SAPE  H12A16219   4.095   5.256   6.773  1.6141 -0.6600 -1.0472
  148SAPE  H12B16220   4.117   5.414   6.867  0.6014 -1.4047  1.5342
  148SAPE   C1116221   4.294   5.333   6.801 -0.0054  0.8844  0.1561
  148SAPE  H11A16222   4.320   5.258   6.879 -0.6672  1.6093  1.0956
  148SAPE  H11B16223   4.325   5.429   6.845 -0.8419  0.1576  2.4845
  148SAPE     P16224   4.514   5.327   6.664  0.2692  0.2228  0.0869
  148SAPE   O1316225   4.554   5.399   6.785 -0.3485 -0.1103 -0.1531
  148SAPE   O1416226   4.593   5.199   6.633 -0.0985 -0.3830 -0.1498
  148SAPE   O1216227   4.353   5.299   6.673  0.1253 -0.2916  0.4209
  148SAPE   O1116228   4.528   5.436   6.544 -0.1769 -0.2975 -0.3686
  148SAPE    C116229   4.440   5.438   6.433  0.3204 -0.2246  0.5999
  148SAPE    HA16230   4.393   5.339   6.413 -0.5216  0.4549 -0.9309
  148SAPE    HB16231   4.352   5.503   6.455 -0.6150 -1.5050  0.7702
  148SAPE    C216232   4.499   5.501   6.302 -0.3807 -0.3977 -0.4130
  148SAPE    HS16233   4.447   5.500   6.204  0.8487  2.0971 -1.1963
  148SAPE   O2116234   4.633   5.455   6.288 -0.5869 -0.4452  0.3144
  148SAPE   C2116235   4.631   5.322   6.255  0.4822 -0.0508 -0.7712
  148SAPE   O2216236   4.532   5.260   6.221  0.1506 -0.2066 -0.1466
  148SAPE   C2216237   4.778   5.272   6.256  0.4377 -0.0019 -0.2008
  148SAPE   H2R16238   4.830   5.357   6.305 -0.5647  0.0294  0.8530
  148SAPE   H2S16239   4.787   5.174   6.308 -0.3340 -0.5628 -1.1016
  148SAPE    C316240   4.513   5.658   6.307  0.2301 -0.6392 -0.0415
  148SAPE    HX16241   4.599   5.681   6.373  0.2375 -0.5064 -0.0991
  148SAPE    HY16242   4.423   5.696   6.358  0.6587 -0.0114  0.2507
  148SAPE   O3116243   4.521   5.711   6.173  0.1973 -0.1476 -0.3670
  148SAPE   C3116244   4.629   5.780   6.149 -0.3871 -0.5770  0.2074
  148SAPE   O3216245   4.729   5.775   6.222  0.7782 -0.3934  0.2705
  148SAPE   C3216246   4.614   5.857   6.014  0.3509  0.9057  1.0058
  148SAPE   H2X16247   4.709   5.910   5.992  0.6025 -0.4573 -1.6586
  148SAPE   H2Y16248   4.542   5.939   6.035 -0.6356 -0.0988  1.6931
  148SAPE   C2316249   4.848   5.259   6.116  0.0345 -0.3821 -0.8355
  148SAPE   H3R16250   4.948   5.213   6.136  0.5897  1.3312  0.6142
  148SAPE   H3S16251   4.860   5.357   6.065  1.1082 -0.9638 -1.7403
  148SAPE   C2416252   4.775   5.170   6.016 -0.1712  0.0496  0.1600
  148SAPE   H4R16253   4.838   5.148   5.928  0.5438 -0.5143  0.7982
  148SAPE   H4S16254   4.678   5.216   5.986 -1.9682 -2.2669  1.9559
  148SAPE   C2516255   4.741   5.038   6.069  0.4793 -0.5850 -0.5190
  148SAPE   H5R16256   4.690   5.039   6.167 -0.4639 -4.0201 -0.8557
  148SAPE   C2616257   4.749   4.918   6.007  0.1720 -0.6350 -0.1456
  148SAPE   H6R16258   4.731   4.825   6.063  2.9606 -1.2229 -0.0575
  148SAPE   C2716259   4.796   4.896   5.868 -0.2594  0.2390 -0.2488
  148SAPE   H7R16260   4.844   4.796   5.868  2.3657  1.4297  0.9967
  148SAPE   H7S16261   4.878   4.969   5.850 -2.3757  2.2761 -2.4051
  148SAPE   C2816262   4.696   4.906   5.756  0.1034  0.9677 -0.1915
  148SAPE   H8R16263   4.591   4.882   5.777  0.5106 -0.0442  0.8338
  148SAPE   C2916264   4.734   4.941   5.635 -0.5036  0.3343 -0.0963
  148SAPE   H9R16265   4.658   4.955   5.557 -1.7423 -0.8826  0.8399
  148SAPE  C21016266   4.869   4.973   5.579  0.1055  0.3727 -0.1886
  148SAPE  H10R16267   4.911   4.880   5.535  2.7215  1.7213 -0.7353
  148SAPE  H10S16268   4.937   4.997   5.663  0.6250 -2.0790  0.1644
  148SAPE  C21116269   4.857   5.089   5.480 -0.3797  0.6510 -0.5121
  148SAPE  H11R16270   4.887   5.184   5.527  0.5560 -0.2012  0.6766
  148SAPE  C21216271   4.834   5.083   5.347  0.3434 -0.3716 -0.9819
  148SAPE  H12R16272   4.831   5.180   5.295  0.8225 -0.4333 -1.1292
  148SAPE  C21316273   4.820   4.960   5.261 -0.8145 -0.3258  0.2573
  148SAPE  H13R16274   4.796   4.876   5.329 -1.8951 -0.3554 -0.1482
  148SAPE  H13S16275   4.920   4.926   5.224  0.6265  1.2656  2.4361
  148SAPE  C21416276   4.717   4.966   5.151  0.5119  0.1308  0.7495
  148SAPE  H14R16277   4.664   5.061   5.142 -1.3788 -0.7676  1.8280
  148SAPE  C21516278   4.701   4.860   5.061 -0.1567  0.3376 -0.2320
  148SAPE  H15R16279   4.611   4.874   4.998 -0.9508  1.3459  1.0728
  148SAPE  C21616280   4.777   4.726   5.080  0.2971  0.6040 -0.0191
  148SAPE  H16R16281   4.797   4.706   5.187  1.8226 -1.4326 -0.6258
  148SAPE  H16S16282   4.880   4.738   5.040  0.1500  0.0038 -0.6011
  148SAPE  C21716283   4.704   4.616   4.998  0.2831  0.5219  0.1096
  148SAPE  H17R16284   4.700   4.647   4.891  0.7646  0.2961  0.0237
  148SAPE  H17S16285   4.598   4.616   5.031  0.0327  1.0417 -0.6413
  148SAPE  C21816286   4.756   4.474   5.001  0.0787 -0.4924 -0.3488
  148SAPE  H18R16287   4.682   4.421   4.937 -0.8688 -0.3785  0.6326
  148SAPE  H18S16288   4.765   4.437   5.105 -0.2877 -0.2771 -0.2383
  148SAPE  C21916289   4.894   4.474   4.929 -0.5949  0.5534  0.0960
  148SAPE  H19R16290   4.970   4.534   4.984  2.5958 -2.9135 -0.1649
  148SAPE  H19S16291   4.892   4.520   4.828 -1.3121  2.4764  0.9392
  148SAPE  C22016292   4.963   4.338   4.921  0.3934  0.1912  0.2923
  148SAPE  H20R16293   5.028   4.317   5.009  1.4303 -2.0354 -0.9054
  148SAPE  H20S16294   5.024   4.338   4.827 -1.8990  1.8647 -1.3073
  148SAPE  H20T16295   4.884   4.260   4.913  2.1130 -1.5359 -0.7627
  148SAPE   C3316296   4.588   5.754   5.908  0.3672  0.6895  0.5358
  148SAPE   H3X16297   4.561   5.809   5.816  1.0622  0.1760  0.0158
  148SAPE   H3Y16298   4.497   5.698   5.937 -0.7278  1.3789 -1.3756
  148SAPE   C3416299   4.700   5.659   5.874 -0.5839  0.1905  0.4103
  148SAPE   H4X16300   4.753   5.629   5.966 -1.3947 -0.7833  0.5771
  148SAPE   H4Y16301   4.766   5.717   5.806  1.3255 -1.1144  1.0793
  148SAPE   C3516302   4.655   5.530   5.808 -0.6133  0.0519  0.0450
  148SAPE   H5X16303   4.557   5.496   5.848 -1.0766  0.9343 -0.3186
  148SAPE   H5Y16304   4.718   5.445   5.841 -1.3585 -0.1001  1.1431
  148SAPE   C3616305   4.639   5.543   5.658 -0.0791  0.1237  0.8568
  148SAPE   H6X16306   4.717   5.605   5.610 -1.3344  0.0744 -1.4097
  148SAPE   H6Y16307   4.546   5.599   5.632  0.0854  0.1022  0.1952
  148SAPE   C3716308   4.636   5.410   5.584 -0.1423  0.0012 -0.4851
  148SAPE   H7X16309   4.568   5.336   5.632  0.2006  0.7328  1.1706
  148SAPE   H7Y16310   4.735   5.361   5.584 -1.2559 -2.4657  1.7761
  148SAPE   C3816311   4.603   5.436   5.432  0.0054  0.0062 -0.6098
  148SAPE   H8X16312   4.510   5.496   5.429 -0.3356 -0.4828 -0.0143
  148SAPE   H8Y16313   4.585   5.339   5.382 -1.1376 -0.5430  0.8119
  148SAPE   C3916314   4.712   5.510   5.361  0.3138 -1.0387  0.0337
  148SAPE   H9X16315   4.805   5.451   5.354 -0.1978 -1.8486 -0.0908
  148SAPE   H9Y16316   4.740   5.613   5.390  1.1142 -0.6071 -2.0714
  148SAPE  C31016317   4.659   5.520   5.216 -0.1695  0.1647  0.4642
  148SAPE  H10X16318   4.559   5.567   5.208  0.9847  2.4795 -1.3921
  148SAPE  H10Y16319   4.661   5.417   5.175  0.1131  1.9384 -4.6379
  148SAPE  C31116320   4.756   5.595   5.120 -0.5308  0.1417  0.1002
  148SAPE  H11X16321   4.851   5.537   5.119 -0.6268 -0.0395 -1.9791
  148SAPE  H11Y16322   4.781   5.698   5.153  2.3097  0.0203 -1.3160
  148SAPE  C31216323   4.708   5.613   4.975 -0.6403 -0.7314 -1.6274
  148SAPE  H12X16324   4.611   5.664   4.996 -0.8472 -1.7315 -0.0404
  148SAPE  H12Y16325   4.680   5.524   4.915  1.3436 -1.4284 -1.5903
  148SAPE  C31316326   4.812   5.687   4.891 -0.0600 -0.8652 -0.2557
  148SAPE  H13X16327   4.912   5.650   4.924 -0.5742 -1.4437  0.7045
  148SAPE  H13Y16328   4.815   5.795   4.919  1.8327 -0.9461 -0.0167
  148SAPE  C31416329   4.783   5.680   4.740 -0.5088 -0.6777 -0.9516
  148SAPE  H14X16330   4.684   5.725   4.717 -0.1292  1.1802  0.7413
  148SAPE  H14Y16331   4.791   5.576   4.702  1.7714 -1.6493  1.7720
  148SAPE  C31516332   4.897   5.759   4.668 -0.0602 -0.1393  0.0389
  148SAPE  H15X16333   4.996   5.732   4.711  0.8259  1.1669 -1.0896
  148SAPE  H15Y16334   4.885   5.866   4.694  0.6702 -0.5495  2.2767
  148SAPE  C31616335   4.893   5.747   4.510 -0.0557 -0.7211  0.2844
  148SAPE  H16X16336   4.785   5.725   4.494 -0.3373 -0.3583  1.5521
  148SAPE  H16Y16337   4.948   5.654   4.485 -0.6114 -1.4191  1.5527
  148SAPE  C31716338   4.942   5.870   4.434 -0.8219 -0.0220  0.1227
  148SAPE  H17X16339   5.048   5.898   4.448 -0.8077  0.6050 -1.1053
  148SAPE  H17Y16340   4.877   5.951   4.474 -1.4330  0.3549 -1.5661
  148SAPE  C31816341   4.919   5.848   4.285 -0.0873  0.7760  0.1618
  148SAPE  H18X16342   4.816   5.825   4.251  0.0827  0.8489 -0.4131
  148SAPE  H18Y16343   4.986   5.767   4.248 -0.9017 -0.9294  2.1890
  148SAPE  H18Z16344   4.947   5.938   4.227 -0.9066  1.7450  1.2264
  149SAPE     N16345   3.172   3.556   6.574 -0.8799  0.3283 -0.2343
  149SAPE   HN116346   3.184   3.562   6.471 -0.4908 -0.0869 -0.2169
  149SAPE   HN216347   3.169   3.653   6.611  1.4760  0.4576 -0.1937
  149SAPE   HN316348   3.253   3.511   6.622  0.5812  0.9617 -1.9942
  149SAPE   C1216349   3.041   3.492   6.604 -0.2848 -0.5996 -0.8394
  149SAPE  H12A16350   3.038   3.483   6.715 -1.4642  0.1874 -0.7873
  149SAPE  H12B16351   3.035   3.393   6.553 -3.6434 -0.3777 -1.1140
  149SAPE   C1116352   2.930   3.582   6.551 -0.5814  0.1162  0.9547
  149SAPE  H11A16353   2.833   3.537   6.580 -0.7091  0.3015  0.8212
  149SAPE  H11B16354   2.949   3.598   6.443  0.3664  1.9450  1.3384
  149SAPE     P16355   2.851   3.830   6.580  0.1332  0.0450  0.1935
  149SAPE   O1316356   2.721   3.774   6.532 -0.2991 -0.3582 -0.0540
  149SAPE   O1416357   2.842   3.936   6.690  0.2753  0.0725  0.2504
  149SAPE   O1216358   2.948   3.708   6.617 -0.5973 -0.1019  0.1936
  149SAPE   O1116359   2.921   3.891   6.452  0.1651 -0.0697 -0.4948
  149SAPE    C116360   3.052   3.937   6.459 -0.0500  0.2286  0.6199
  149SAPE    HA16361   3.067   4.021   6.531 -1.9154 -1.6892  3.4258
  149SAPE    HB16362   3.125   3.859   6.486 -1.2291 -2.0811 -2.3678
  149SAPE    C216363   3.095   4.004   6.322 -0.8240 -0.3594  0.3002
  149SAPE    HS16364   3.041   4.101   6.313 -0.2952 -0.1510 -0.7718
  149SAPE   O2116365   3.071   3.918   6.212  0.3559 -0.1827  0.1381
  149SAPE   C2116366   2.940   3.924   6.170 -0.4246  0.6341 -0.9404
  149SAPE   O2216367   2.853   4.005   6.200  0.5473  0.1858  0.0040
  149SAPE   C2216368   2.919   3.823   6.068  0.0345  0.4095  0.3901
  149SAPE   H2R16369   2.885   3.724   6.106  1.3701 -0.3214 -0.2033
  149SAPE   H2S16370   2.843   3.870   6.002 -2.1039  0.7589  2.9746
  149SAPE    C316371   3.247   4.038   6.317  0.1567 -0.1490 -0.4810
  149SAPE    HX16372   3.293   3.945   6.356 -1.6159  0.4104  3.4065
  149SAPE    HY16373   3.259   4.121   6.390  0.0300 -0.0926 -0.5243
  149SAPE   O3116374   3.313   4.086   6.197  0.5819  0.3825  0.5060
  149SAPE   C3116375   3.363   3.999   6.112 -0.3882  0.3196 -0.6291
  149SAPE   O3216376   3.384   3.878   6.133 -0.0077  0.6503 -0.3681
  149SAPE   C3216377   3.414   4.087   5.998 -0.3494  0.2674 -0.2968
  149SAPE   H2X16378   3.490   4.154   6.041 -0.7748  0.2761  0.4690
  149SAPE   H2Y16379   3.332   4.156   5.970  0.1570  0.7446 -0.6011
  149SAPE   C2316380   3.047   3.809   5.982  0.5637  0.5418  0.2754
  149SAPE   H3R16381   3.126   3.763   6.045 -0.2824 -0.7111  0.4433
  149SAPE   H3S16382   3.079   3.908   5.943 -1.8010  1.4574  0.4383
  149SAPE   C2416383   3.020   3.710   5.859 -0.8115  0.1627  0.1538
  149SAPE   H4R16384   2.932   3.750   5.804  0.4056  2.9370  0.0125
  149SAPE   H4S16385   2.993   3.608   5.891 -0.9269  0.1619  0.0554
  149SAPE   C2516386   3.151   3.708   5.778  0.5356  0.5450 -0.0191
  149SAPE   H5R16387   3.237   3.707   5.847  0.0634  0.6769  0.5817
  149SAPE   C2616388   3.157   3.706   5.639 -0.2089 -0.6377 -0.2781
  149SAPE   H6R16389   3.257   3.711   5.593 -0.1553 -0.0762 -0.1058
  149SAPE   C2716390   3.042   3.711   5.550  0.3780  0.4049  0.8064
  149SAPE   H7R16391   3.050   3.807   5.495  1.2436  0.0183  0.2334
  149SAPE   H7S16392   2.939   3.714   5.592  1.5014 -0.0733  3.8302
  149SAPE   C2816393   3.045   3.603   5.442 -0.7485 -0.1382  0.1510
  149SAPE   H8R16394   3.009   3.507   5.480 -2.0987  0.8933  1.5986
  149SAPE   C2916395   3.101   3.613   5.321 -0.0302  0.5730 -0.7707
  149SAPE   H9R16396   3.100   3.517   5.267 -1.6602 -1.1870  2.1648
  149SAPE  C21016397   3.166   3.741   5.260 -0.0221 -0.5361  0.7875
  149SAPE  H10R16398   3.222   3.797   5.337 -0.7076  1.0287  0.2050
  149SAPE  H10S16399   3.073   3.798   5.234 -0.4566 -0.5472  2.2250
  149SAPE  C21116400   3.245   3.702   5.139 -0.3869  0.2787 -0.9759
  149SAPE  H11R16401   3.351   3.703   5.168 -0.6593 -2.1298  0.3427
  149SAPE  C21216402   3.200   3.671   5.014 -0.1946  0.0949 -0.0565
  149SAPE  H12R16403   3.274   3.647   4.937 -0.5200 -0.2838 -0.2587
  149SAPE  C21316404   3.062   3.678   4.975  0.1713 -0.4207  0.2834
  149SAPE  H13R16405   2.999   3.702   5.064  0.2288  0.2165  0.1604
  149SAPE  H13S16406   3.030   3.578   4.941  0.3611 -0.5629  0.5173
  149SAPE  C21416407   3.032   3.786   4.870 -0.0573  0.1762 -0.7429
  149SAPE  H14R16408   3.069   3.885   4.901  0.3427 -0.1592 -0.1225
  149SAPE  C21516409   2.978   3.776   4.752 -0.0097 -0.1577 -0.0249
  149SAPE  H15R16410   2.959   3.868   4.695 -0.2578 -0.9875 -1.3370
  149SAPE  C21616411   2.949   3.645   4.683 -0.7366 -0.1487  0.4561
  149SAPE  H16R16412   2.927   3.567   4.759  0.2716 -0.6826  0.2133
  149SAPE  H16S16413   3.033   3.616   4.617 -0.7834  0.7687 -0.0193
  149SAPE  C21716414   2.814   3.664   4.605 -0.8011  1.0217 -0.2158
  149SAPE  H17R16415   2.733   3.720   4.655 -0.0021  0.8362  1.3585
  149SAPE  H17S16416   2.765   3.567   4.584  0.5652  0.5031 -1.1701
  149SAPE  C21816417   2.851   3.742   4.471 -0.1579  0.3934  0.4630
  149SAPE  H18R16418   2.907   3.664   4.415  0.1945  0.6845  0.4066
  149SAPE  H18S16419   2.922   3.826   4.485 -1.1487  1.4206 -0.4002
  149SAPE  C21916420   2.733   3.806   4.392 -0.5367  0.6543  0.1936
  149SAPE  H19R16421   2.688   3.886   4.455  0.1470  0.9437  0.3191
  149SAPE  H19S16422   2.645   3.738   4.394 -0.6132  0.7471  0.0174
  149SAPE  C22016423   2.765   3.848   4.249  0.4342  0.1353 -0.2604
  149SAPE  H20R16424   2.667   3.876   4.205 -0.5104 -1.1998  0.8993
  149SAPE  H20S16425   2.805   3.762   4.191 -1.5637 -2.5249  2.0732
  149SAPE  H20T16426   2.832   3.936   4.247  0.0874  0.5218  2.3405
  149SAPE   C3316427   3.467   3.995   5.884  0.1847 -0.7982 -0.4084
  149SAPE   H3X16428   3.398   3.908   5.880 -1.3932  0.4019 -0.0806
  149SAPE   H3Y16429   3.570   3.954   5.897  1.0365  1.1911 -0.6142
  149SAPE   C3416430   3.465   4.060   5.745 -0.3544  0.3646  0.2485
  149SAPE   H4X16431   3.534   4.147   5.742 -0.6360  0.5538 -1.5328
  149SAPE   H4Y16432   3.359   4.086   5.724 -0.8304 -0.0863  1.9426
  149SAPE   C3516433   3.516   3.955   5.646  0.4981 -0.7119  0.2532
  149SAPE   H5X16434   3.479   3.854   5.673  0.6241 -0.5372  1.1099
  149SAPE   H5Y16435   3.627   3.960   5.642  0.4403  0.1001 -2.5902
  149SAPE   C3616436   3.469   3.978   5.497 -0.7442 -1.1106 -0.6625
  149SAPE   H6X16437   3.358   3.988   5.508 -0.5551  2.4750 -0.7149
  149SAPE   H6Y16438   3.487   3.887   5.436 -3.8789 -3.3697  1.4852
  149SAPE   C3716439   3.539   4.105   5.440 -0.1388 -0.1808  0.3345
  149SAPE   H7X16440   3.639   4.073   5.406 -0.9121 -3.4204  0.7877
  149SAPE   H7Y16441   3.565   4.181   5.516 -0.4169 -0.1918  0.4444
  149SAPE   C3816442   3.467   4.163   5.315  0.1791 -0.0249 -0.1157
  149SAPE   H8X16443   3.521   4.258   5.296 -1.4513  1.1127  0.6782
  149SAPE   H8Y16444   3.364   4.195   5.339  1.3876  3.7361  0.6961
  149SAPE   C3916445   3.470   4.064   5.196 -0.5581 -0.2129  0.6860
  149SAPE   H9X16446   3.417   3.971   5.229  1.1042 -1.8801 -1.0777
  149SAPE   H9Y16447   3.576   4.041   5.173 -0.0740  2.8295 -0.6368
  149SAPE  C31016448   3.406   4.118   5.066 -0.3371  0.3337 -0.0308
  149SAPE  H10X16449   3.452   4.216   5.039 -0.0528  0.3810  0.5959
  149SAPE  H10Y16450   3.299   4.134   5.092 -0.4355  2.0939 -1.3689
  149SAPE  C31116451   3.418   4.020   4.949 -0.4358 -0.2107  0.4650
  149SAPE  H11X16452   3.386   3.916   4.971 -0.3287 -0.6028 -1.1118
  149SAPE  H11Y16453   3.528   4.012   4.937 -0.4297 -1.0990  1.0213
  149SAPE  C31216454   3.352   4.066   4.818 -1.0603 -0.4542 -0.1849
  149SAPE  H12X16455   3.386   4.162   4.773 -1.4584 -0.2661 -0.0819
  149SAPE  H12Y16456   3.246   4.079   4.846 -1.2943 -1.2800 -0.6660
  149SAPE  C31316457   3.356   3.956   4.709 -0.0950  0.2410 -0.3419
  149SAPE  H13X16458   3.308   3.866   4.754 -0.9202 -0.8190 -3.1198
  149SAPE  H13Y16459   3.455   3.934   4.664  0.2634  0.5221  0.2897
  149SAPE  C31416460   3.255   3.988   4.594 -0.2147  0.1820 -0.5605
  149SAPE  H14X16461   3.270   4.091   4.557  1.1195  0.5811  0.9725
  149SAPE  H14Y16462   3.155   3.993   4.643  1.2217  0.5085  2.5562
  149SAPE  C31516463   3.248   3.879   4.484  0.2200  0.1741 -0.3174
  149SAPE  H15X16464   3.191   3.789   4.514 -0.5259  0.4982 -0.7306
  149SAPE  H15Y16465   3.351   3.853   4.451  0.5848 -0.2908  1.1411
  149SAPE  C31616466   3.178   3.928   4.364  1.1117  0.0590 -0.4239
  149SAPE  H16X16467   3.235   4.011   4.318  2.4148  0.5449  1.9169
  149SAPE  H16Y16468   3.072   3.948   4.391  0.8898  0.4785 -1.5624
  149SAPE  C31716469   3.191   3.821   4.255  0.2973  0.2146  0.0120
  149SAPE  H17X16470   3.143   3.724   4.279 -3.2016  1.5038 -1.1558
  149SAPE  H17Y16471   3.298   3.812   4.226  1.0535  1.6452  2.1310
  149SAPE  C31816472   3.122   3.865   4.127  0.9782  0.6809  0.4280
  149SAPE  H18X16473   3.143   3.787   4.051  1.0529  0.9937  0.1258
  149SAPE  H18Y16474   3.151   3.962   4.082  1.5650  0.4127  0.2172
  149SAPE  H18Z16475   3.012   3.868   4.143  0.9063  2.7024 -0.2403
  150SAPE     N16476   1.442   2.136   6.403 -0.6318  0.3694 -0.7116
  150SAPE   HN116477   1.435   2.222   6.460 -1.5188  0.2141 -0.5852
  150SAPE   HN216478   1.410   2.048   6.447 -1.7207  1.3492  0.5184
  150SAPE   HN316479   1.544   2.129   6.380  0.0664 -0.8122  2.3039
  150SAPE   C1216480   1.372   2.158   6.272  0.3778 -0.8696 -0.2149
  150SAPE  H12A16481   1.263   2.148   6.294 -0.0518  0.8747 -1.3227
  150SAPE  H12B16482   1.401   2.070   6.210 -0.6208 -1.3122 -0.0754
  150SAPE   C1116483   1.407   2.293   6.208 -0.2707  0.5873 -0.2201
  150SAPE  H11A16484   1.381   2.273   6.102  0.4359  0.2869 -0.3411
  150SAPE  H11B16485   1.514   2.319   6.216 -0.1931  0.4410 -0.7541
  150SAPE     P16486   1.373   2.492   6.378 -0.1663 -0.0125 -0.1924
  150SAPE   O1316487   1.255   2.539   6.446 -0.1716  0.5057 -0.5818
  150SAPE   O1416488   1.462   2.410   6.464 -0.1078  0.1181  0.4518
  150SAPE   O1216489   1.326   2.401   6.258 -0.4351 -1.0716 -0.2406
  150SAPE   O1116490   1.443   2.615   6.312 -0.5878 -0.3005 -0.0365
  150SAPE    C116491   1.434   2.650   6.179  0.1950 -0.2087  0.0284
  150SAPE    HA16492   1.530   2.635   6.124 -1.3262  1.7389 -3.5433
  150SAPE    HB16493   1.363   2.589   6.119  1.9428 -1.2766 -1.0491
  150SAPE    C216494   1.389   2.799   6.179  0.6991  1.1642 -0.0837
  150SAPE    HS16495   1.434   2.854   6.264  1.9522 -0.2569  0.2142
  150SAPE   O2116496   1.245   2.798   6.177 -0.2662  0.3797  0.4560
  150SAPE   C2116497   1.196   2.918   6.164  0.7084 -0.2868 -0.4949
  150SAPE   O2216498   1.250   3.021   6.195 -0.0638  0.5721 -0.2815
  150SAPE   C2216499   1.055   2.904   6.111  0.5096 -0.6307 -0.4099
  150SAPE   H2R16500   1.052   2.810   6.052  4.0487 -0.1269 -1.6871
  150SAPE   H2S16501   0.990   2.900   6.201  1.7970 -0.2682  0.5700
  150SAPE    C316502   1.448   2.880   6.053  0.6012  0.4769  0.4190
  150SAPE    HX16503   1.558   2.866   6.052  1.0476  3.1384  2.3719
  150SAPE    HY16504   1.441   2.990   6.065 -2.0549  0.8229 -2.7887
  150SAPE   O3116505   1.373   2.860   5.924  0.4913 -0.7976 -0.5067
  150SAPE   C3116506   1.426   2.787   5.838  0.6729 -0.3350 -0.2378
  150SAPE   O3216507   1.533   2.732   5.849 -0.4615 -0.0281 -0.9356
  150SAPE   C3216508   1.339   2.789   5.711  0.4453 -0.2098 -0.2670
  150SAPE   H2X16509   1.276   2.881   5.711 -1.2959 -1.3252 -1.7173
  150SAPE   H2Y16510   1.271   2.701   5.709  1.2241 -0.8184 -1.1741
  150SAPE   C2316511   1.006   3.017   6.028 -0.3639 -0.2645 -0.1442
  150SAPE   H3R16512   1.072   3.039   5.941  0.0241 -0.8009  0.0070
  150SAPE   H3S16513   1.016   3.108   6.090  1.9810 -1.3533  1.2175
  150SAPE   C2416514   0.858   3.006   5.992  0.1153 -0.6747  0.6609
  150SAPE   H4R16515   0.835   3.101   5.939 -0.6839 -0.8047  0.7611
  150SAPE   H4S16516   0.810   3.001   6.092  1.1987 -0.0662  1.2243
  150SAPE   C2516517   0.812   2.888   5.912  0.2828 -0.0744 -0.6206
  150SAPE   H5R16518   0.777   2.802   5.971  0.6415  0.5289  0.4956
  150SAPE   C2616519   0.821   2.875   5.780 -0.1639 -0.7670  0.5992
  150SAPE   H6R16520   0.777   2.788   5.730 -1.0190 -0.5549  0.9545
  150SAPE   C2716521   0.880   2.990   5.689 -0.3871  0.2426 -0.4352
  150SAPE   H7R16522   0.989   2.972   5.698 -0.5876 -0.1332  1.5322
  150SAPE   H7S16523   0.856   3.095   5.715 -4.6205 -0.5583 -0.4157
  150SAPE   C2816524   0.835   2.971   5.544  0.0729  0.5628  0.0088
  150SAPE   H8R16525   0.827   2.869   5.504 -1.4224  0.3242  0.8227
  150SAPE   C2916526   0.791   3.063   5.456 -0.6169  0.7133 -0.2284
  150SAPE   H9R16527   0.774   3.028   5.353  1.1681 -0.0498 -0.2953
  150SAPE  C21016528   0.801   3.217   5.476 -0.0419  0.1267  0.0044
  150SAPE  H10R16529   0.898   3.256   5.438 -0.4875  0.6031 -0.6612
  150SAPE  H10S16530   0.800   3.237   5.586  1.7291 -0.1540  0.0877
  150SAPE  C21116531   0.685   3.290   5.413  0.3125 -0.1300  0.5538
  150SAPE  H11R16532   0.612   3.332   5.485 -0.1304  1.9951 -1.0353
  150SAPE  C21216533   0.668   3.330   5.286  0.0240 -0.2283 -0.2715
  150SAPE  H12R16534   0.568   3.369   5.263  0.1624  1.7063  1.9746
  150SAPE  C21316535   0.768   3.286   5.178 -0.3305 -0.2012  0.7357
  150SAPE  H13R16536   0.721   3.207   5.115 -1.8758  0.5786  0.8711
  150SAPE  H13S16537   0.858   3.238   5.222 -1.1072 -0.9866  1.5125
  150SAPE  C21416538   0.798   3.414   5.096  0.0768  0.1428 -0.1260
  150SAPE  H14R16539   0.787   3.508   5.151 -1.9441  0.7182 -1.3684
  150SAPE  C21516540   0.823   3.418   4.962 -0.3423 -0.3763  0.4944
  150SAPE  H15R16541   0.830   3.516   4.913 -0.4524 -1.6054 -2.1436
  150SAPE  C21616542   0.821   3.304   4.865 -0.3810  0.8288 -0.3476
  150SAPE  H16R16543   0.768   3.318   4.768 -0.9283 -0.3372 -0.2414
  150SAPE  H16S16544   0.771   3.219   4.916 -1.3366  0.7410 -1.3900
  150SAPE  C21716545   0.967   3.266   4.820  0.2527  0.5925  0.1231
  150SAPE  H17R16546   0.962   3.177   4.754  1.4917  1.2240 -0.8601
  150SAPE  H17S16547   1.031   3.245   4.909  0.0833 -1.0971 -0.1265
  150SAPE  C21816548   1.034   3.379   4.741 -0.4083 -0.3955 -0.7246
  150SAPE  H18R16549   1.079   3.454   4.810 -1.3541  0.2177 -0.7552
  150SAPE  H18S16550   0.960   3.444   4.689 -0.4535  0.6246  0.5554
  150SAPE  C21916551   1.138   3.343   4.642  0.0784  0.1747  1.1505
  150SAPE  H19R16552   1.090   3.265   4.579  0.9451 -2.4713  3.5685
  150SAPE  H19S16553   1.220   3.290   4.695  0.3542 -1.0248 -0.4198
  150SAPE  C22016554   1.198   3.457   4.561  0.1809 -0.3810  0.4856
  150SAPE  H20R16555   1.228   3.540   4.630  3.2702  0.0936 -1.2360
  150SAPE  H20S16556   1.126   3.509   4.495 -0.7476 -1.8247  0.3221
  150SAPE  H20T16557   1.292   3.422   4.513  2.0432  1.5169  2.5015
  150SAPE   C3316558   1.419   2.797   5.574  0.3178 -0.0398 -0.1259
  150SAPE   H3X16559   1.506   2.729   5.575  0.0491 -0.5075 -2.6797
  150SAPE   H3Y16560   1.462   2.899   5.573  3.3180 -1.2088  0.6425
  150SAPE   C3416561   1.329   2.782   5.451  0.5223  0.2491 -0.9578
  150SAPE   H4X16562   1.261   2.695   5.467  1.3135  0.0062  1.5819
  150SAPE   H4Y16563   1.401   2.763   5.369  1.0133 -1.6483 -0.1591
  150SAPE   C3516564   1.248   2.906   5.422  0.2966 -0.0788  0.0166
  150SAPE   H5X16565   1.322   2.988   5.411  0.5218 -0.3813 -0.8826
  150SAPE   H5Y16566   1.175   2.930   5.501 -0.5392 -0.3066 -0.6696
  150SAPE   C3616567   1.160   2.891   5.294 -0.4274 -0.5596  0.4938
  150SAPE   H6X16568   1.060   2.850   5.318 -1.2771  0.3875 -1.3080
  150SAPE   H6Y16569   1.206   2.817   5.225  0.5372 -1.0491  1.6170
  150SAPE   C3716570   1.126   3.035   5.245  0.3378  0.0842 -0.0203
  150SAPE   H7X16571   1.205   3.112   5.256  0.5726  0.0235 -1.2033
  150SAPE   H7Y16572   1.036   3.060   5.305  0.5198 -1.0059  0.7450
  150SAPE   C3816573   1.068   3.038   5.106 -0.1564  0.0703  0.5788
  150SAPE   H8X16574   1.160   3.038   5.043  2.5043  2.8201  4.0093
  150SAPE   H8Y16575   1.013   3.132   5.086 -2.7412 -1.5517 -0.3760
  150SAPE   C3916576   0.974   2.921   5.080  0.5511 -0.8923 -0.2137
  150SAPE   H9X16577   0.898   2.917   5.162 -0.5992 -0.5127 -1.2291
  150SAPE   H9Y16578   1.026   2.823   5.068  0.8998 -0.4107 -3.4488
  150SAPE  C31016579   0.896   2.936   4.955  1.1306 -0.7272  1.2848
  150SAPE  H10X16580   0.951   2.977   4.868 -1.5173 -1.1419 -0.7228
  150SAPE  H10Y16581   0.804   2.995   4.973  1.3186  0.4107 -1.0564
  150SAPE  C31116582   0.853   2.795   4.898 -0.1518  0.0373  0.5334
  150SAPE  H11X16583   0.799   2.738   4.977 -0.4815 -0.5770 -0.1296
  150SAPE  H11Y16584   0.941   2.745   4.853  0.1781  2.1717 -1.3883
  150SAPE  C31216585   0.760   2.828   4.787  0.6054  0.0208 -0.2020
  150SAPE  H12X16586   0.798   2.913   4.726  1.7284  1.7412  2.6844
  150SAPE  H12Y16587   0.670   2.867   4.838 -0.3831 -1.2300 -0.9316
  150SAPE  C31316588   0.710   2.702   4.715 -0.1132 -0.4815 -0.1075
  150SAPE  H13X16589   0.658   2.635   4.787  1.0372  0.6461  1.8753
  150SAPE  H13Y16590   0.805   2.652   4.689 -0.1948 -0.0310 -1.3033
  150SAPE  C31416591   0.611   2.732   4.607  0.5087 -0.3186  0.2384
  150SAPE  H14X16592   0.645   2.822   4.551 -1.6283  0.9981  0.9413
  150SAPE  H14Y16593   0.513   2.761   4.651  0.1526 -1.0192 -0.0760
  150SAPE  C31516594   0.581   2.609   4.517 -0.1987 -0.1803  0.2726
  150SAPE  H15X16595   0.535   2.525   4.573 -0.8422 -1.0943 -1.5357
  150SAPE  H15Y16596   0.681   2.580   4.477  0.1029 -0.0201  0.8991
  150SAPE  C31616597   0.490   2.647   4.400  0.2274 -0.0966  1.1106
  150SAPE  H16X16598   0.528   2.735   4.344 -1.3427  0.3481  0.7073
  150SAPE  H16Y16599   0.395   2.677   4.448  0.5889 -1.5170  2.8120
  150SAPE  C31716600   0.473   2.537   4.295  0.0112  0.2077 -0.2949
  150SAPE  H17X16601   0.424   2.448   4.339 -0.9656  1.1720  0.6552
  150SAPE  H17Y16602   0.577   2.512   4.266 -0.0995 -0.9676  0.2814
  150SAPE  C31816603   0.399   2.584   4.168 -0.1341 -0.3969 -0.2707
  150SAPE  H18X16604   0.296   2.613   4.197  0.5760  2.2155 -0.0667
  150SAPE  H18Y16605   0.387   2.501   4.095 -0.1846 -0.8933  0.2963
  150SAPE  H18Z16606   0.454   2.668   4.121  0.9415 -1.2506 -0.5740
  151SAPE     N16607   5.799   1.505   6.685 -0.1336  0.5173  0.3337
  151SAPE   HN116608   5.776   1.431   6.754  0.2489  0.2977  0.2281
  151SAPE   HN216609   5.830   1.470   6.592 -0.8905 -1.1045  0.6702
  151SAPE   HN316610   5.879   1.556   6.727  0.5378 -0.8355  0.7487
  151SAPE   C1216611   5.674   1.581   6.668  0.7970 -0.1393 -0.0952
  151SAPE  H12A16612   5.633   1.607   6.768 -2.9654 -0.1030 -1.4644
  151SAPE  H12B16613   5.605   1.510   6.617 -0.5250  0.1127  1.2803
  151SAPE   C1116614   5.703   1.709   6.590 -0.0993  0.7045 -0.0907
  151SAPE  H11A16615   5.611   1.767   6.564  0.6177  1.3807 -1.2369
  151SAPE  H11B16616   5.749   1.679   6.493 -1.5209  0.0383 -0.5892
  151SAPE     P16617   5.764   1.918   6.735 -0.6205 -0.3895 -0.3273
  151SAPE   O1316618   5.621   1.926   6.778 -0.0809  0.0256  0.0577
  151SAPE   O1416619   5.862   1.911   6.852  0.1673  0.2981  0.0663
  151SAPE   O1216620   5.793   1.788   6.656  0.0201 -0.5192 -0.1415
  151SAPE   O1116621   5.801   2.035   6.640  0.4089 -0.2383 -0.1952
  151SAPE    C116622   5.899   2.003   6.533  0.0945 -0.0560  0.3396
  151SAPE    HA16623   6.005   1.991   6.565  0.4692 -3.7716 -1.7106
  151SAPE    HB16624   5.877   1.914   6.470  1.0882  0.4873 -0.8180
  151SAPE    C216625   5.900   2.120   6.426  0.4164 -0.7448  0.5409
  151SAPE    HS16626   5.914   2.211   6.488 -1.4666 -1.0371  1.4800
  151SAPE   O2116627   5.774   2.139   6.352  0.0794  0.7801 -0.6662
  151SAPE   C2116628   5.682   2.207   6.413 -0.9884 -0.0348  0.2317
  151SAPE   O2216629   5.693   2.282   6.503  0.2037 -0.3509 -0.1636
  151SAPE   C2216630   5.558   2.188   6.319  0.2315  0.4216  0.2059
  151SAPE   H2R16631   5.575   2.215   6.213  0.2336 -0.7015 -0.0882
  151SAPE   H2S16632   5.536   2.079   6.318 -3.2230  0.9590 -2.4273
  151SAPE    C316633   6.023   2.099   6.330  0.4489 -0.4542 -0.2394
  151SAPE    HX16634   6.115   2.068   6.384  1.3251  0.8540 -0.9417
  151SAPE    HY16635   6.048   2.193   6.277 -0.1580  0.8562  1.6578
  151SAPE   O3116636   5.978   1.990   6.251  0.2731  0.1679  0.2558
  151SAPE   C3116637   6.044   1.974   6.139 -0.9369  0.6303 -0.3768
  151SAPE   O3216638   6.142   2.042   6.106 -0.2324  0.5746 -0.1092
  151SAPE   C3216639   5.978   1.859   6.059 -0.3261 -0.8354  0.3297
  151SAPE   H2X16640   5.868   1.866   6.075 -0.2873  0.9037  0.0728
  151SAPE   H2Y16641   6.014   1.772   6.118 -0.9203 -0.8879  0.6157
  151SAPE   C2316642   5.424   2.250   6.360 -0.4256  0.1491  0.3609
  151SAPE   H3R16643   5.426   2.359   6.341 -0.0197 -0.1796 -1.7688
  151SAPE   H3S16644   5.410   2.235   6.469  0.4671  1.1713  0.6250
  151SAPE   C2416645   5.313   2.188   6.269  0.0732 -0.1896  0.1282
  151SAPE   H4R16646   5.348   2.195   6.164  1.8218  0.8337  0.7229
  151SAPE   H4S16647   5.229   2.260   6.273 -0.7572 -0.9716 -1.9597
  151SAPE   C2516648   5.268   2.050   6.312 -0.2633 -0.7004  0.2906
  151SAPE   H5R16649   5.224   2.037   6.411 -1.2639  1.2886  0.1711
  151SAPE   C2616650   5.269   1.947   6.231  0.1775 -0.5525 -0.6062
  151SAPE   H6R16651   5.216   1.860   6.272 -0.6011  0.3761  0.4263
  151SAPE   C2716652   5.318   1.949   6.089  0.0545  0.5596  0.4180
  151SAPE   H7R16653   5.429   1.960   6.079 -0.2680  1.7761 -3.0850
  151SAPE   H7S16654   5.269   2.034   6.039  1.4780  0.9257 -0.4250
  151SAPE   C2816655   5.281   1.823   6.012  0.1528  0.3833  0.4092
  151SAPE   H8R16656   5.180   1.808   5.972  0.8102 -1.3328 -0.6951
  151SAPE   C2916657   5.365   1.724   5.970 -0.5415  0.3311 -0.8285
  151SAPE   H9R16658   5.322   1.650   5.901 -1.4804 -2.0090  2.0550
  151SAPE  C21016659   5.513   1.707   5.997  0.3264 -0.1033 -0.1894
  151SAPE  H10R16660   5.522   1.598   6.021  2.2829  0.5397  2.5285
  151SAPE  H10S16661   5.518   1.765   6.092 -1.6429  1.7371 -1.1398
  151SAPE  C21116662   5.618   1.752   5.898 -0.2310  0.0030  0.1495
  151SAPE  H11R16663   5.684   1.816   5.958  1.4013 -2.0154  0.6419
  151SAPE  C21216664   5.652   1.713   5.774 -0.5960 -0.1538 -0.7146
  151SAPE  H12R16665   5.735   1.762   5.721  1.8710  0.1923  3.0788
  151SAPE  C21316666   5.572   1.621   5.688  0.0868 -0.4850 -0.4331
  151SAPE  H13R16667   5.516   1.555   5.757  0.2631  2.1661  2.4201
  151SAPE  H13S16668   5.643   1.557   5.630 -0.0142 -0.1381 -0.9414
  151SAPE  C21416669   5.481   1.703   5.603 -0.1521  0.3643  0.2658
  151SAPE  H14R16670   5.431   1.786   5.655 -0.2044 -0.9137  2.3697
  151SAPE  C21516671   5.463   1.686   5.470 -0.4958 -0.2941 -0.3127
  151SAPE  H15R16672   5.394   1.755   5.419 -1.5069 -0.7335  0.4378
  151SAPE  C21616673   5.528   1.580   5.382  0.5147 -0.6361  0.2278
  151SAPE  H16R16674   5.478   1.483   5.399 -1.9035 -0.0188 -2.5834
  151SAPE  H16S16675   5.636   1.568   5.409  0.8640  1.3802 -0.1175
  151SAPE  C21716676   5.549   1.625   5.230  0.7162  0.1704 -0.0529
  151SAPE  H17R16677   5.447   1.636   5.186 -0.3593 -2.0912  1.6670
  151SAPE  H17S16678   5.589   1.538   5.173 -1.2367 -1.0086  0.3011
  151SAPE  C21816679   5.629   1.748   5.213 -0.1215 -0.2859 -0.0895
  151SAPE  H18R16680   5.731   1.735   5.253  0.2389 -1.4014 -1.3193
  151SAPE  H18S16681   5.586   1.837   5.264  2.2755  0.9824 -0.1343
  151SAPE  C21916682   5.633   1.785   5.061  0.1187 -0.1787 -0.4335
  151SAPE  H19R16683   5.685   1.882   5.044 -0.1595 -0.1606 -1.2197
  151SAPE  H19S16684   5.533   1.823   5.031 -0.9099 -2.7394 -0.4918
  151SAPE  C22016685   5.677   1.675   4.960 -0.0885 -0.2274  0.4369
  151SAPE  H20R16686   5.670   1.731   4.864 -1.9867 -0.2963  0.5020
  151SAPE  H20S16687   5.597   1.598   4.953 -1.7609  1.3661  1.1119
  151SAPE  H20T16688   5.781   1.637   4.964  1.2864  2.5343 -3.1109
  151SAPE   C3316689   6.012   1.849   5.912  0.2221  0.3103 -0.3958
  151SAPE   H3X16690   5.977   1.752   5.871  0.5400 -1.0400  2.3036
  151SAPE   H3Y16691   6.122   1.838   5.898  0.1605  0.8167 -1.3521
  151SAPE   C3416692   5.962   1.969   5.831 -0.4664  0.4663 -0.1068
  151SAPE   H4X16693   5.967   2.062   5.893  0.6108  1.3870 -1.4964
  151SAPE   H4Y16694   5.852   1.966   5.820 -0.4451  2.4039 -1.4601
  151SAPE   C3516695   6.026   1.982   5.699  0.5555  0.0689 -0.3811
  151SAPE   H5X16696   6.130   2.012   5.723  0.1316  0.0798  1.6561
  151SAPE   H5Y16697   5.972   2.054   5.634 -2.0319  0.3196  1.8606
  151SAPE   C3616698   6.032   1.856   5.613 -0.3987 -0.0327  0.1931
  151SAPE   H6X16699   5.924   1.830   5.604 -0.7254  0.7338  1.4669
  151SAPE   H6Y16700   6.076   1.773   5.672 -0.9449 -0.2620  0.2840
  151SAPE   C3716701   6.085   1.889   5.477 -0.6692  0.2321  1.0102
  151SAPE   H7X16702   6.187   1.934   5.479 -0.2475 -0.6342 -0.0343
  151SAPE   H7Y16703   6.030   1.974   5.430 -1.3830 -1.8113 -2.1329
  151SAPE   C3816704   6.081   1.774   5.376 -0.2311 -0.3945 -0.3194
  151SAPE   H8X16705   5.981   1.724   5.371  0.7797 -2.4740 -0.9465
  151SAPE   H8Y16706   6.139   1.685   5.406 -2.1665 -1.9427 -0.9265
  151SAPE   C3916707   6.129   1.824   5.233  0.5034 -0.1223 -0.7231
  151SAPE   H9X16708   6.165   1.735   5.177  4.2572 -0.1812  1.4377
  151SAPE   H9Y16709   6.220   1.886   5.251  0.3062  0.4982 -1.7900
  151SAPE  C31016710   6.016   1.894   5.155  0.4235  0.0602  0.5896
  151SAPE  H10X16711   6.008   2.000   5.187 -1.0854  0.8899 -2.1971
  151SAPE  H10Y16712   5.918   1.841   5.159  0.3050  0.2156 -0.0454
  151SAPE  C31116713   6.045   1.923   4.997 -0.4260  0.0501  0.2241
  151SAPE  H11X16714   6.122   1.853   4.958 -1.1834 -0.1964 -0.8702
  151SAPE  H11Y16715   6.091   2.024   4.994  1.6167 -0.8156  0.6375
  151SAPE  C31216716   5.920   1.944   4.911 -0.4476 -0.0408 -0.2746
  151SAPE  H12X16717   5.855   2.019   4.961 -1.5969 -0.7603 -0.6264
  151SAPE  H12Y16718   5.864   1.848   4.913 -2.8522  1.2149 -1.5039
  151SAPE  C31316719   5.944   1.985   4.769  0.0038 -0.7227  0.7051
  151SAPE  H13X16720   6.039   1.945   4.727  0.5264  1.1715 -0.0058
  151SAPE  H13Y16721   5.956   2.095   4.771 -0.4979 -0.6218  3.7752
  151SAPE  C31416722   5.829   1.935   4.672 -0.4974  0.3171  0.3127
  151SAPE  H14X16723   5.727   1.973   4.692 -0.3149  1.2264 -0.4049
  151SAPE  H14Y16724   5.821   1.824   4.671 -0.3614  0.2729  1.9224
  151SAPE  C31516725   5.850   1.990   4.535 -0.3714 -0.0734 -0.0976
  151SAPE  H15X16726   5.835   2.097   4.557  1.4477 -0.1073  1.4806
  151SAPE  H15Y16727   5.769   1.946   4.472 -0.1035 -2.1322  0.9073
  151SAPE  C31616728   5.986   1.978   4.470  0.8041  0.4314  0.0185
  151SAPE  H16X16729   6.016   1.871   4.463  1.3494  0.3707  2.4884
  151SAPE  H16Y16730   6.068   2.025   4.528  2.0202 -1.5516  0.0127
  151SAPE  C31716731   5.990   2.053   4.341 -0.1656 -0.0925  0.8304
  151SAPE  H17X16732   5.986   2.163   4.358  0.1233  0.2902 -1.2225
  151SAPE  H17Y16733   5.916   2.014   4.268  1.2268  0.1685 -0.7914
  151SAPE  C31816734   6.113   2.024   4.258  0.4939  0.1115  0.2867
  151SAPE  H18X16735   6.199   2.019   4.328 -0.6761 -1.4414  1.6859
  151SAPE  H18Y16736   6.130   2.095   4.174  0.6189  0.4878  0.6296
  151SAPE  H18Z16737   6.104   1.928   4.204 -0.0798  0.4417 -0.2244
  152SAPE     N16738   1.215   2.794   6.608 -0.3513 -0.3819 -0.2869
  152SAPE   HN116739   1.314   2.772   6.585  0.2936  2.3046 -0.4476
  152SAPE   HN216740   1.192   2.782   6.709  1.5330 -0.3214  0.1852
  152SAPE   HN316741   1.150   2.737   6.550 -1.0715  0.5321 -0.4088
  152SAPE   C1216742   1.208   2.943   6.564  0.3255  0.4771 -0.3128
  152SAPE  H12A16743   1.273   2.948   6.474  1.3663 -2.6438  0.1231
  152SAPE  H12B16744   1.270   3.000   6.637  2.4290 -1.9239 -0.0691
  152SAPE   C1116745   1.063   2.975   6.545  0.4294 -0.4947 -0.4863
  152SAPE  H11A16746   1.013   2.915   6.466 -1.5385  0.5583 -0.1087
  152SAPE  H11B16747   1.069   3.078   6.504  1.6683 -1.0536 -1.8022
  152SAPE     P16748   0.848   3.044   6.678 -0.2968  0.0472 -0.2382
  152SAPE   O1316749   0.733   2.950   6.705 -0.4352  0.1873 -0.3250
  152SAPE   O1416750   0.868   3.157   6.768 -0.4494 -0.4653 -0.5371
  152SAPE   O1216751   0.989   2.977   6.665  0.2152 -0.0689  0.4306
  152SAPE   O1116752   0.831   3.101   6.533  0.1126  0.2704  0.0346
  152SAPE    C116753   0.764   3.227   6.511 -0.5443 -0.5151 -0.2192
  152SAPE    HA16754   0.659   3.228   6.548  0.0843 -1.1714  1.7395
  152SAPE    HB16755   0.816   3.303   6.573 -1.3439 -0.7972  0.8292
  152SAPE    C216756   0.774   3.295   6.372  0.5583  0.5577 -0.0582
  152SAPE    HS16757   0.727   3.396   6.379  1.1649  0.7373  2.2069
  152SAPE   O2116758   0.718   3.207   6.277 -0.7351 -0.1621  0.5989
  152SAPE   C2116759   0.585   3.220   6.263 -0.1763 -0.4554  0.4072
  152SAPE   O2216760   0.520   3.307   6.317 -0.3608  0.5842 -0.7201
  152SAPE   C2216761   0.527   3.118   6.177 -0.3206 -0.1104  0.7287
  152SAPE   H2R16762   0.610   3.060   6.132  1.8160  1.4031  2.5226
  152SAPE   H2S16763   0.469   3.045   6.238  0.9803  0.6819  3.0280
  152SAPE    C316764   0.926   3.317   6.337  0.1821  0.0660  0.3887
  152SAPE    HX16765   0.969   3.216   6.321  3.6612  1.4484  0.1653
  152SAPE    HY16766   0.978   3.361   6.425  0.5547 -2.1889  1.3682
  152SAPE   O3116767   0.936   3.400   6.214  0.8372 -0.2986 -0.3381
  152SAPE   C3116768   1.051   3.366   6.148  0.8759 -0.0696  0.4868
  152SAPE   O3216769   1.142   3.298   6.190 -0.5807  0.3395  0.7164
  152SAPE   C3216770   1.042   3.414   6.007 -0.0147 -0.3082  0.4251
  152SAPE   H2X16771   1.065   3.523   6.005  1.3679 -0.5288  2.1593
  152SAPE   H2Y16772   0.942   3.390   5.964  0.7308 -1.7853 -0.5770
  152SAPE   C2316773   0.433   3.190   6.070  0.3413  0.8551  0.0310
  152SAPE   H3R16774   0.478   3.280   6.025  0.6640  0.5722 -0.2135
  152SAPE   H3S16775   0.342   3.205   6.132  0.6281 -1.9007  1.3021
  152SAPE   C2416776   0.394   3.099   5.950  0.2443  0.2869  0.6902
  152SAPE   H4R16777   0.299   3.142   5.912 -0.7896 -2.2040  0.3094
  152SAPE   H4S16778   0.373   2.994   5.978 -1.5854 -0.3119 -2.4220
  152SAPE   C2516779   0.505   3.080   5.846 -0.4878 -0.1574  0.0290
  152SAPE   H5R16780   0.573   2.993   5.853  1.3143  1.1584 -0.3166
  152SAPE   C2616781   0.518   3.154   5.734 -0.6177  0.1252 -0.4676
  152SAPE   H6R16782   0.612   3.141   5.678 -0.7027  1.9977 -1.0885
  152SAPE   C2716783   0.439   3.281   5.703 -0.5395 -0.1473 -0.1366
  152SAPE   H7R16784   0.525   3.345   5.672 -0.2801 -1.1113 -1.5396
  152SAPE   H7S16785   0.404   3.324   5.799  2.4336  2.2376  0.0266
  152SAPE   C2816786   0.324   3.278   5.609  0.2772  0.3950 -0.0738
  152SAPE   H8R16787   0.277   3.179   5.602  1.5590 -0.2805  0.5730
  152SAPE   C2916788   0.270   3.376   5.533  0.9000  0.3914  0.2923
  152SAPE   H9R16789   0.182   3.353   5.472  0.5147 -0.0775  1.0047
  152SAPE  C21016790   0.313   3.522   5.530 -0.2545 -0.1861 -0.9302
  152SAPE  H10R16791   0.363   3.545   5.626 -1.0711  0.8844 -0.7377
  152SAPE  H10S16792   0.224   3.589   5.531  0.2604  0.5587 -2.3890
  152SAPE  C21116793   0.402   3.572   5.415  0.3739  0.4937  0.3550
  152SAPE  H11R16794   0.503   3.596   5.452  0.8120  0.1776 -0.6114
  152SAPE  C21216795   0.368   3.600   5.283 -0.1047  0.1434 -0.1969
  152SAPE  H12R16796   0.436   3.652   5.215  1.1812 -2.7168 -1.2528
  152SAPE  C21316797   0.229   3.581   5.223 -0.5564 -0.5858  0.3684
  152SAPE  H13R16798   0.146   3.623   5.284  0.0512 -1.2632  1.6862
  152SAPE  H13S16799   0.207   3.475   5.201 -0.5178 -0.4957 -0.1188
  152SAPE  C21416800   0.221   3.640   5.087  0.2675 -0.0877  0.4350
  152SAPE  H14R16801   0.159   3.730   5.079 -0.2748 -0.3133  1.8511
  152SAPE  C21516802   0.273   3.585   4.971 -0.0142 -0.0958  0.2745
  152SAPE  H15R16803   0.260   3.643   4.879  2.7018 -0.5019 -0.4701
  152SAPE  C21616804   0.347   3.450   4.952 -0.0564  0.2229  0.3180
  152SAPE  H16R16805   0.338   3.380   5.038 -1.3875 -2.2653 -1.7054
  152SAPE  H16S16806   0.456   3.471   4.939  0.3057 -1.3806  0.5485
  152SAPE  C21716807   0.287   3.372   4.837 -0.1075  0.0331 -0.1935
  152SAPE  H17R16808   0.244   3.440   4.761  3.9031  0.0417 -2.7665
  152SAPE  H17S16809   0.203   3.311   4.876  0.6683 -0.7153  0.3485
  152SAPE  C21816810   0.397   3.288   4.775 -0.4579  0.7038 -0.4985
  152SAPE  H18R16811   0.465   3.264   4.859 -1.9099  1.2695  0.8821
  152SAPE  H18S16812   0.461   3.347   4.706 -0.3334  0.7505 -0.3447
  152SAPE  C21916813   0.343   3.152   4.720  0.2277 -0.0895  0.1367
  152SAPE  H19R16814   0.277   3.181   4.635 -0.9040 -0.5552  0.8368
  152SAPE  H19S16815   0.298   3.092   4.801  2.4291 -2.0705 -0.0156
  152SAPE  C22016816   0.453   3.062   4.661  0.2795 -0.7043  0.0485
  152SAPE  H20R16817   0.533   3.031   4.731 -0.2275 -1.9821  0.0864
  152SAPE  H20S16818   0.499   3.120   4.579  0.1477  0.0346  0.4864
  152SAPE  H20T16819   0.410   2.968   4.621  0.8301 -1.8420  2.0093
  152SAPE   C3316820   1.150   3.355   5.921 -0.7390 -0.5748  0.3212
  152SAPE   H3X16821   1.160   3.247   5.946 -0.4787 -0.4676  0.6978
  152SAPE   H3Y16822   1.255   3.391   5.934 -0.3919 -0.2702 -2.6293
  152SAPE   C3416823   1.125   3.372   5.772 -0.0259  0.1784  0.1722
  152SAPE   H4X16824   1.118   3.480   5.745  2.1397  1.5004  4.2160
  152SAPE   H4Y16825   1.027   3.325   5.746 -1.4901  1.4009  3.1126
  152SAPE   C3516826   1.238   3.293   5.703  0.0803 -0.3291 -0.3847
  152SAPE   H5X16827   1.227   3.186   5.727  0.0971 -0.0183  1.1155
  152SAPE   H5Y16828   1.342   3.324   5.725  0.8172 -2.9213  0.0032
  152SAPE   C3616829   1.239   3.294   5.549  0.8095  0.3932 -0.2344
  152SAPE   H6X16830   1.144   3.256   5.507  0.3356  1.0025  0.2537
  152SAPE   H6Y16831   1.322   3.228   5.516  1.1712  0.1777  1.0409
  152SAPE   C3716832   1.280   3.433   5.506 -0.5307  0.0130  0.5950
  152SAPE   H7X16833   1.376   3.454   5.556  0.6361  0.1293 -1.5764
  152SAPE   H7Y16834   1.201   3.507   5.529 -2.0317 -1.4613  0.4154
  152SAPE   C3816835   1.313   3.447   5.358 -0.8513 -1.0073 -0.9835
  152SAPE   H8X16836   1.381   3.361   5.337 -0.0675 -0.4006 -0.9816
  152SAPE   H8Y16837   1.364   3.545   5.348 -1.5547 -0.2130  2.0836
  152SAPE   C3916838   1.201   3.424   5.259  0.1185  0.1649 -0.2430
  152SAPE   H9X16839   1.128   3.506   5.273 -0.8056 -0.2699 -2.2000
  152SAPE   H9Y16840   1.165   3.320   5.273  0.2052  0.3053  1.1935
  152SAPE  C31016841   1.241   3.423   5.112  0.6796  0.3263  0.3194
  152SAPE  H10X16842   1.146   3.400   5.057  0.4833 -2.5061  1.6865
  152SAPE  H10Y16843   1.293   3.327   5.092  0.6145  0.4334 -0.4338
  152SAPE  C31116844   1.322   3.531   5.054  0.1730 -0.9257 -0.4873
  152SAPE  H11X16845   1.396   3.570   5.127 -0.0941  0.2562 -0.8244
  152SAPE  H11Y16846   1.259   3.621   5.035  2.0300  0.5290 -0.0749
  152SAPE  C31216847   1.397   3.495   4.924 -0.3229 -0.6154 -0.0503
  152SAPE  H12X16848   1.463   3.584   4.914  0.9611 -1.5150  0.1607
  152SAPE  H12Y16849   1.318   3.502   4.847  0.3645  2.3968 -0.6331
  152SAPE  C31316850   1.469   3.362   4.917 -0.3309  1.2685  0.5627
  152SAPE  H13X16851   1.402   3.276   4.894  1.6036  0.1425 -1.2130
  152SAPE  H13Y16852   1.509   3.328   5.015 -0.6926 -2.1066 -0.3267
  152SAPE  C31416853   1.573   3.366   4.803  0.0900 -0.3289  0.4510
  152SAPE  H14X16854   1.626   3.268   4.808 -2.2210 -1.5890  3.9517
  152SAPE  H14Y16855   1.653   3.437   4.833 -0.9918  1.0693  0.1601
  152SAPE  C31516856   1.513   3.397   4.662 -0.1684  0.6034 -0.2693
  152SAPE  H15X16857   1.458   3.494   4.671 -0.6599  0.4514 -1.4558
  152SAPE  H15Y16858   1.445   3.315   4.630 -0.7834  1.5190 -1.3937
  152SAPE  C31616859   1.618   3.400   4.546 -0.0588 -0.3591 -0.2866
  152SAPE  H16X16860   1.662   3.299   4.531  0.1787 -0.7383  2.3523
  152SAPE  H16Y16861   1.703   3.467   4.573 -1.2345  1.1662 -0.2491
  152SAPE  C31716862   1.558   3.457   4.414  0.0724 -0.2495  1.5305
  152SAPE  H17X16863   1.463   3.401   4.400  0.8907 -1.0978 -1.0388
  152SAPE  H17Y16864   1.624   3.441   4.327  0.9941 -0.0235  2.1694
  152SAPE  C31816865   1.525   3.606   4.411 -0.8162 -0.0172  0.4603
  152SAPE  H18X16866   1.493   3.655   4.317  1.4240  0.0693 -0.3168
  152SAPE  H18Y16867   1.615   3.666   4.438  0.4193 -1.0898 -1.1277
  152SAPE  H18Z16868   1.456   3.639   4.492  1.2491  0.6120  2.0605
  153SAPE     N16869   0.637   1.942   6.472 -0.3222  0.0534  1.0581
  153SAPE   HN116870   0.578   2.028   6.468 -1.7710 -0.9019  0.9258
  153SAPE   HN216871   0.717   1.989   6.517 -0.3902  1.3980 -0.1628
  153SAPE   HN316872   0.650   1.918   6.371 -2.7057 -1.3238  0.9840
  153SAPE   C1216873   0.575   1.832   6.544 -0.4316  0.9447  0.0968
  153SAPE  H12A16874   0.476   1.804   6.500 -0.1933  0.7339 -0.3156
  153SAPE  H12B16875   0.573   1.854   6.653 -0.8788 -1.9501  0.7600
  153SAPE   C1116876   0.669   1.710   6.542 -0.3388  0.3676 -0.0890
  153SAPE  H11A16877   0.686   1.673   6.438 -1.7835 -0.1781 -0.1558
  153SAPE  H11B16878   0.628   1.624   6.599  0.6302  0.4450  0.7436
  153SAPE     P16879   0.928   1.722   6.533 -0.1355 -0.4811  0.0925
  153SAPE   O1316880   1.039   1.785   6.615  0.5007  0.1961 -0.1673
  153SAPE   O1416881   0.955   1.592   6.473  0.0035 -0.1734  0.4586
  153SAPE   O1216882   0.795   1.725   6.614 -0.1465  0.3004  0.0511
  153SAPE   O1116883   0.902   1.821   6.414  0.1112  0.2489  0.1549
  153SAPE    C116884   1.009   1.855   6.320  0.7311 -1.1570  0.0742
  153SAPE    HA16885   1.051   1.948   6.364 -0.5379 -0.2912 -0.4830
  153SAPE    HB16886   1.079   1.770   6.304  1.1098 -0.4501 -2.4185
  153SAPE    C216887   0.956   1.894   6.172 -0.5361  0.7162 -0.8896
  153SAPE    HS16888   0.886   1.981   6.183 -1.3923  0.0488 -0.9204
  153SAPE   O2116889   0.883   1.783   6.116 -0.7215  0.0971 -0.0834
  153SAPE   C2116890   0.755   1.774   6.143  0.1469 -0.1082 -0.1229
  153SAPE   O2216891   0.689   1.864   6.195  1.3159 -0.4032  0.0704
  153SAPE   C2216892   0.700   1.649   6.091  0.4001  0.1905  0.0574
  153SAPE   H2R16893   0.738   1.624   5.989 -0.3877 -1.8091  0.2047
  153SAPE   H2S16894   0.724   1.556   6.148 -0.7037 -0.3521 -0.3249
  153SAPE    C316895   1.079   1.940   6.089 -0.0076  0.4013  0.5767
  153SAPE    HX16896   1.142   1.858   6.049 -1.3570  1.2812 -3.9570
  153SAPE    HY16897   1.126   2.018   6.153  1.6336 -0.6369  0.6867
  153SAPE   O3116898   1.028   2.001   5.966  0.0353 -0.9422  0.2189
  153SAPE   C3116899   1.129   2.023   5.886  0.0050 -0.1734 -0.7928
  153SAPE   O3216900   1.248   1.994   5.908 -0.7565  0.0913  0.2345
  153SAPE   C3216901   1.085   2.086   5.755 -0.5595 -0.4987  0.1345
  153SAPE   H2X16902   1.077   2.195   5.769 -1.8336 -0.4400 -0.8952
  153SAPE   H2Y16903   0.983   2.046   5.737 -0.3591 -2.1680  2.3752
  153SAPE   C2316904   0.540   1.655   6.100  0.2689  0.0237 -0.0648
  153SAPE   H3R16905   0.514   1.711   6.193  1.1861 -1.0117  0.8351
  153SAPE   H3S16906   0.503   1.551   6.112  3.6721 -1.4772 -1.5109
  153SAPE   C2416907   0.470   1.718   5.976  0.4585 -0.1339  0.2975
  153SAPE   H4R16908   0.504   1.824   5.984  0.4842 -0.2273  1.6496
  153SAPE   H4S16909   0.362   1.731   6.002 -0.2873  1.1227 -2.8842
  153SAPE   C2516910   0.482   1.649   5.844  0.2095  0.3961  0.0559
  153SAPE   H5R16911   0.425   1.555   5.831  1.6774 -0.4890 -0.2046
  153SAPE   C2616912   0.548   1.692   5.736  0.7298 -0.8526  1.1490
  153SAPE   H6R16913   0.548   1.640   5.639  0.3076  1.2995 -0.0821
  153SAPE   C2716914   0.649   1.802   5.741  0.2038 -0.3618 -0.0334
  153SAPE   H7R16915   0.636   1.857   5.837  2.3096 -2.5529  1.6202
  153SAPE   H7S16916   0.612   1.876   5.666  0.1506 -0.7803 -0.4195
  153SAPE   C2816917   0.789   1.764   5.728  0.2956 -0.4716 -0.6696
  153SAPE   H8R16918   0.828   1.709   5.815  0.6940  0.3372 -0.3359
  153SAPE   C2916919   0.867   1.772   5.616  0.0132 -0.3662  0.2216
  153SAPE   H9R16920   0.948   1.700   5.602 -2.3525 -3.3307  0.8064
  153SAPE  C21016921   0.830   1.838   5.480  0.3164 -0.4397  0.0095
  153SAPE  H10R16922   0.913   1.808   5.412 -0.4049  0.7951 -1.4943
  153SAPE  H10S16923   0.822   1.948   5.493  0.7660 -0.4825  0.6604
  153SAPE  C21116924   0.701   1.780   5.414 -0.3084 -0.2238 -0.4920
  153SAPE  H11R16925   0.664   1.693   5.471 -1.0052  2.2104  3.1625
  153SAPE  C21216926   0.620   1.840   5.323  0.5166 -0.4490  0.4301
  153SAPE  H12R16927   0.539   1.777   5.283  0.7926 -0.4129 -0.2107
  153SAPE  C21316928   0.651   1.970   5.247 -0.3226  0.0181  0.1886
  153SAPE  H13R16929   0.679   2.054   5.314 -0.3919 -1.2468  1.8690
  153SAPE  H13S16930   0.567   2.013   5.188 -0.8546  0.7581  1.4585
  153SAPE  C21416931   0.759   1.934   5.146  1.0917  0.1215 -0.0143
  153SAPE  H14R16932   0.852   1.889   5.184  0.8787 -1.0641 -0.8326
  153SAPE  C21516933   0.754   1.962   5.016 -0.0633 -0.6127  0.2306
  153SAPE  H15R16934   0.847   1.937   4.962  0.0014 -0.5574  0.3162
  153SAPE  C21616935   0.648   2.007   4.920  0.3056 -0.5185 -0.8567
  153SAPE  H16R16936   0.701   2.079   4.853  1.2029 -0.9226 -0.5821
  153SAPE  H16S16937   0.572   2.066   4.976  1.6976 -0.2526  0.8257
  153SAPE  C21716938   0.577   1.899   4.835 -0.3907  0.0533  0.9258
  153SAPE  H17R16939   0.651   1.838   4.780  0.0967  0.4859  1.0980
  153SAPE  H17S16940   0.516   1.940   4.752 -1.4401 -0.3671  1.4684
  153SAPE  C21816941   0.483   1.804   4.919 -1.0481 -0.3999  0.3089
  153SAPE  H18R16942   0.395   1.862   4.953 -0.8170  0.9531 -1.3008
  153SAPE  H18S16943   0.536   1.784   5.015  3.1709  0.5205 -1.5933
  153SAPE  C21916944   0.433   1.686   4.840  0.4380  0.2837 -0.3312
  153SAPE  H19R16945   0.510   1.606   4.846 -1.1466 -1.2932 -0.1681
  153SAPE  H19S16946   0.421   1.710   4.733 -1.2879 -0.1307 -0.2658
  153SAPE  C22016947   0.299   1.631   4.894  0.2981 -0.0038 -0.0078
  153SAPE  H20R16948   0.222   1.712   4.890  0.8712  0.4932 -1.4747
  153SAPE  H20S16949   0.300   1.602   5.002  0.4884  0.6295  0.1655
  153SAPE  H20T16950   0.280   1.542   4.832  1.8095  0.7498 -1.6382
  153SAPE   C3316951   1.180   2.053   5.634 -0.6799  0.0599  0.2256
  153SAPE   H3X16952   1.196   1.943   5.627  2.2402  0.4770 -1.2133
  153SAPE   H3Y16953   1.285   2.086   5.648 -0.0343 -2.4812  2.3498
  153SAPE   C3416954   1.121   2.109   5.507  0.4595  0.7100 -0.0155
  153SAPE   H4X16955   1.126   2.220   5.507  0.5225  0.7183 -1.6664
  153SAPE   H4Y16956   1.011   2.091   5.501  0.4128  1.0591 -0.2355
  153SAPE   C3516957   1.182   2.034   5.393  0.1290  0.4082 -0.0741
  153SAPE   H5X16958   1.201   1.926   5.413  2.6757  0.7247 -0.4818
  153SAPE   H5Y16959   1.285   2.069   5.375  1.2202 -2.3455  0.3270
  153SAPE   C3616960   1.101   2.044   5.261 -0.3340  0.7034  0.3232
  153SAPE   H6X16961   0.993   2.031   5.282 -1.2976  1.0706 -3.5853
  153SAPE   H6Y16962   1.120   1.952   5.201 -4.2982 -0.8966  1.1868
  153SAPE   C3716963   1.107   2.184   5.197 -0.2507  0.5467  0.2962
  153SAPE   H7X16964   1.205   2.194   5.146  0.1242 -1.8426  0.4669
  153SAPE   H7Y16965   1.093   2.266   5.271 -2.5904  0.5893 -0.1130
  153SAPE   C3816966   1.011   2.189   5.078  0.5496  0.2343 -0.3387
  153SAPE   H8X16967   0.908   2.173   5.115  0.1060 -0.4611 -1.8104
  153SAPE   H8Y16968   1.030   2.106   5.007 -0.9171  0.2324 -0.7500
  153SAPE   C3916969   1.021   2.330   4.997  0.5645  0.6006 -0.5466
  153SAPE   H9X16970   1.049   2.408   5.071  2.2630 -0.1140 -0.4038
  153SAPE   H9Y16971   0.923   2.360   4.954  1.2557  0.5072 -2.2572
  153SAPE  C31016972   1.114   2.341   4.879 -0.3993  0.1201  0.8451
  153SAPE  H10X16973   1.074   2.271   4.803  0.6757  1.7922 -1.3718
  153SAPE  H10Y16974   1.209   2.296   4.917 -0.6649  1.0213  2.6529
  153SAPE  C31116975   1.131   2.482   4.821  0.1471 -0.4712 -0.2416
  153SAPE  H11X16976   1.150   2.549   4.908  1.0326 -0.6978 -0.2488
  153SAPE  H11Y16977   1.032   2.513   4.782 -0.3136 -2.5326 -0.8297
  153SAPE  C31216978   1.238   2.491   4.708  0.1539  0.3856  0.0851
  153SAPE  H12X16979   1.191   2.431   4.626 -1.6647  0.8687  0.7214
  153SAPE  H12Y16980   1.329   2.442   4.747 -0.1648 -0.4443 -0.1816
  153SAPE  C31316981   1.287   2.628   4.679  0.3134  0.2689  0.4570
  153SAPE  H13X16982   1.394   2.635   4.649  0.2306 -0.4333 -0.0340
  153SAPE  H13Y16983   1.274   2.690   4.771  2.4198  1.9684 -0.3144
  153SAPE  C31416984   1.211   2.697   4.574  0.1126 -0.0987 -0.6589
  153SAPE  H14X16985   1.256   2.799   4.569 -1.4275  0.8494  2.4964
  153SAPE  H14Y16986   1.114   2.710   4.627  1.4533  0.2918  1.8042
  153SAPE  C31516987   1.208   2.649   4.431  0.2494  0.2140 -0.8110
  153SAPE  H15X16988   1.144   2.558   4.424  0.4662 -0.3515  2.9018
  153SAPE  H15Y16989   1.312   2.625   4.400 -0.0839 -1.1860 -0.9476
  153SAPE  C31616990   1.159   2.757   4.337  0.1046  0.0449  0.5254
  153SAPE  H16X16991   1.050   2.771   4.357  0.4562  1.4017  1.6010
  153SAPE  H16Y16992   1.160   2.719   4.233  1.7077  2.4115 -0.3907
  153SAPE  C31716993   1.237   2.886   4.344  0.7537 -0.5904  0.1727
  153SAPE  H17X16994   1.343   2.858   4.355  1.2168  1.3287  1.0143
  153SAPE  H17Y16995   1.195   2.936   4.435 -0.8564  2.6994 -2.1506
  153SAPE  C31816996   1.210   2.971   4.220  0.1563  0.1140  0.4521
  153SAPE  H18X16997   1.275   3.060   4.230  1.0704 -0.4054 -0.6858
  153SAPE  H18Y16998   1.104   3.002   4.209  0.4239  1.0014  0.3023
  153SAPE  H18Z16999   1.244   2.917   4.129 -1.1966 -1.8258  1.0330
  154SAPE     N17000   5.401   1.427   7.173 -0.0365  1.1254 -0.2857
  154SAPE   HN117001   5.311   1.394   7.214 -0.7805  0.8848 -2.0150
  154SAPE   HN217002   5.462   1.344   7.159  1.2866  2.4236 -2.8881
  154SAPE   HN317003   5.439   1.483   7.251  2.5955 -0.4643 -0.3180
  154SAPE   C1217004   5.373   1.501   7.047  0.0488 -0.1925  1.0700
  154SAPE  H12A17005   5.445   1.585   7.033  0.0879 -0.5882 -1.4473
  154SAPE  H12B17006   5.267   1.530   7.060  0.3399  0.5789  1.8981
  154SAPE   C1117007   5.371   1.425   6.917 -0.0333  0.8571  0.0236
  154SAPE  H11A17008   5.322   1.502   6.853 -1.0252  1.3134  1.2798
  154SAPE  H11B17009   5.309   1.333   6.916  2.3233 -0.8210 -1.6230
  154SAPE     P17010   5.575   1.266   6.895 -0.2926  0.5814  0.2638
  154SAPE   O1317011   5.706   1.278   6.831 -0.7631 -0.5807 -0.2246
  154SAPE   O1417012   5.572   1.236   7.039  0.0672  0.6053  0.1781
  154SAPE   O1217013   5.501   1.400   6.862 -0.1104 -0.7253  0.1335
  154SAPE   O1117014   5.490   1.152   6.825 -0.1465  0.0274  0.3536
  154SAPE    C117015   5.506   1.069   6.709 -0.3917  0.4032 -0.7270
  154SAPE    HA17016   5.611   1.032   6.706 -0.8226 -0.9651  0.2545
  154SAPE    HB17017   5.444   0.977   6.717  1.4318 -0.7944  0.5082
  154SAPE    C217018   5.469   1.150   6.583  0.1896 -0.3606 -0.0658
  154SAPE    HS17019   5.530   1.242   6.568 -1.0628  0.6207  0.6476
  154SAPE   O2117020   5.324   1.175   6.591 -0.1509 -0.3811  0.7461
  154SAPE   C2117021   5.291   1.299   6.561  0.7628 -0.3747 -0.5700
  154SAPE   O2217022   5.362   1.398   6.568 -0.0048  0.0009  0.3233
  154SAPE   C2217023   5.141   1.305   6.532 -0.0159  0.3890  0.4812
  154SAPE   H2R17024   5.108   1.203   6.502  1.2443  0.2218 -0.4073
  154SAPE   H2S17025   5.095   1.344   6.626 -0.0722 -0.9319  1.0296
  154SAPE    C317026   5.499   1.063   6.453  0.4944  0.2302 -0.0438
  154SAPE    HX17027   5.413   0.992   6.453  1.3984 -0.8836 -0.3960
  154SAPE    HY17028   5.598   1.014   6.459  0.7665  0.8341  0.4097
  154SAPE   O3117029   5.487   1.134   6.332  0.2489  0.4698  0.2151
  154SAPE   C3117030   5.601   1.186   6.277  0.4175 -0.0006  1.3133
  154SAPE   O3217031   5.707   1.185   6.334 -0.1496 -0.1981  0.2819
  154SAPE   C3217032   5.583   1.246   6.137  0.3214 -0.0770 -0.3099
  154SAPE   H2X17033   5.611   1.353   6.153 -1.4012  0.3224  0.2240
  154SAPE   H2Y17034   5.474   1.261   6.122  0.3363 -0.3647 -0.7167
  154SAPE   C2317035   5.118   1.407   6.416 -0.2709  0.4046  0.8927
  154SAPE   H3R17036   5.144   1.502   6.467  0.4961  1.4138 -1.2601
  154SAPE   H3S17037   5.014   1.402   6.376  0.6526  1.3679 -1.8943
  154SAPE   C2417038   5.208   1.395   6.292 -1.0131  0.4471 -0.0956
  154SAPE   H4R17039   5.316   1.403   6.319 -1.0304  0.4004 -0.0140
  154SAPE   H4S17040   5.183   1.479   6.223  0.6490  1.3444  0.3250
  154SAPE   C2517041   5.172   1.256   6.229  0.2390  0.3452 -0.3199
  154SAPE   H5R17042   5.163   1.165   6.290 -2.5147  0.2064 -0.7838
  154SAPE   C2617043   5.130   1.232   6.103  0.2211  0.1199 -0.1749
  154SAPE   H6R17044   5.105   1.132   6.065 -0.4392  0.1518  0.1619
  154SAPE   C2717045   5.129   1.329   5.991 -0.3345 -0.6336  0.5247
  154SAPE   H7R17046   5.093   1.430   6.022 -0.0965  0.0772 -1.3727
  154SAPE   H7S17047   5.042   1.296   5.930  0.3019  0.7194 -1.1982
  154SAPE   C2817048   5.253   1.349   5.911 -0.4388  0.1583  0.7320
  154SAPE   H8R17049   5.345   1.384   5.961  1.1864 -1.3645 -1.0084
  154SAPE   C2917050   5.263   1.343   5.778  0.1658 -0.3730  0.5434
  154SAPE   H9R17051   5.361   1.353   5.730 -0.0537 -1.4357 -0.1617
  154SAPE  C21017052   5.148   1.324   5.690  0.0168  0.6599  0.6168
  154SAPE  H10R17053   5.049   1.313   5.740 -0.3878  1.0645 -0.0727
  154SAPE  H10S17054   5.160   1.234   5.627 -0.5490  1.1453 -0.2099
  154SAPE  C21117055   5.135   1.445   5.599  0.0848  0.4068  0.3975
  154SAPE  H11R17056   5.072   1.523   5.644 -1.6118 -0.0795 -1.0135
  154SAPE  C21217057   5.161   1.455   5.464  0.2425 -0.4774 -0.0962
  154SAPE  H12R17058   5.127   1.548   5.416  1.8694  1.6193  2.5259
  154SAPE  C21317059   5.203   1.340   5.376  0.1991 -0.2354 -0.4881
  154SAPE  H13R17060   5.128   1.258   5.372  0.7312 -0.8769  1.4860
  154SAPE  H13S17061   5.298   1.295   5.412 -1.7065 -2.8835  1.6680
  154SAPE  C21417062   5.234   1.390   5.233 -0.0253 -0.4832 -0.3679
  154SAPE  H14R17063   5.331   1.443   5.230  0.6942 -1.8106 -1.2027
  154SAPE  C21517064   5.173   1.352   5.121 -0.1943 -0.0357  0.6809
  154SAPE  H15R17065   5.210   1.395   5.027  0.0174 -0.1906  0.6929
  154SAPE  C21617066   5.042   1.268   5.116  0.6956 -0.9311  0.0169
  154SAPE  H16R17067   4.991   1.292   5.212 -1.5711  2.2543 -1.7827
  154SAPE  H16S17068   5.072   1.162   5.104 -0.1764 -1.3986  1.6486
  154SAPE  C21717069   4.943   1.298   5.002  0.0885  0.2544  0.3953
  154SAPE  H17R17070   4.866   1.218   4.997 -0.1447  0.3334  2.1392
  154SAPE  H17S17071   5.002   1.301   4.908 -1.6503 -1.5403 -0.8351
  154SAPE  C21817072   4.876   1.436   5.024  0.4235  0.3734  0.3157
  154SAPE  H18R17073   4.953   1.516   5.027  1.2398 -0.4017  0.7473
  154SAPE  H18S17074   4.811   1.434   5.114 -1.6242 -0.7995 -1.1063
  154SAPE  C21917075   4.775   1.476   4.906  0.0112 -0.3429  0.1479
  154SAPE  H19R17076   4.715   1.564   4.938  1.2324 -0.0687  1.8500
  154SAPE  H19S17077   4.703   1.396   4.878  0.0840  0.4451 -2.4645
  154SAPE  C22017078   4.856   1.500   4.778  0.2464 -0.2878 -0.2824
  154SAPE  H20R17079   4.910   1.409   4.745 -1.1493 -0.3934 -2.4686
  154SAPE  H20S17080   4.937   1.575   4.788 -0.1862  0.3432 -1.3690
  154SAPE  H20T17081   4.784   1.527   4.698 -1.3137  3.7458  2.1534
  154SAPE   C3317082   5.646   1.148   6.024 -0.5646 -0.8746 -0.3569
  154SAPE   H3X17083   5.613   1.046   6.053  0.5414 -0.9736  0.6413
  154SAPE   H3Y17084   5.756   1.139   6.020 -0.6469 -1.8494 -0.5398
  154SAPE   C3417085   5.585   1.199   5.891 -0.3567  0.6047  0.8816
  154SAPE   H4X17086   5.611   1.307   5.884  2.8131 -0.0553  1.2526
  154SAPE   H4Y17087   5.475   1.186   5.883 -0.2764  0.9924 -1.8078
  154SAPE   C3517088   5.656   1.140   5.765  0.6829 -0.6209  0.5476
  154SAPE   H5X17089   5.644   1.030   5.757  2.1626 -0.7395 -0.4500
  154SAPE   H5Y17090   5.764   1.165   5.751 -0.0186  0.7421 -3.9736
  154SAPE   C3617091   5.581   1.197   5.636  0.3620 -0.2369 -0.2881
  154SAPE   H6X17092   5.595   1.307   5.637 -0.4107 -0.0813  2.8384
  154SAPE   H6Y17093   5.472   1.186   5.650  0.5108  0.5634  1.9641
  154SAPE   C3717094   5.638   1.154   5.498 -0.5805 -0.1169 -0.3551
  154SAPE   H7X17095   5.628   1.044   5.483  2.7223 -0.5340 -0.2712
  154SAPE   H7Y17096   5.748   1.161   5.503 -0.4949  0.6370 -2.4143
  154SAPE   C3817097   5.593   1.233   5.374  0.5994 -0.1695 -0.2240
  154SAPE   H8X17098   5.634   1.336   5.385 -1.3543  0.3997  2.9899
  154SAPE   H8Y17099   5.483   1.245   5.385  0.8334  0.7886  1.3425
  154SAPE   C3917100   5.632   1.168   5.237  0.6071 -0.5880  0.1653
  154SAPE   H9X17101   5.610   1.060   5.251  0.7316 -0.3229  3.2031
  154SAPE   H9Y17102   5.742   1.172   5.222  0.7433 -1.0812  0.9743
  154SAPE  C31017103   5.541   1.210   5.119 -0.0529  0.2776 -0.0675
  154SAPE  H10X17104   5.557   1.320   5.114 -2.1761  0.5775 -1.5021
  154SAPE  H10Y17105   5.434   1.192   5.142  0.1406 -0.4991  0.2649
  154SAPE  C31117106   5.587   1.157   4.982  0.1295  0.3382  0.2598
  154SAPE  H11X17107   5.621   1.055   5.009 -0.1589  0.4676  1.1378
  154SAPE  H11Y17108   5.680   1.211   4.952  1.9276 -2.3648  0.6758
  154SAPE  C31217109   5.481   1.167   4.870 -0.7203  0.2235 -0.1583
  154SAPE  H12X17110   5.387   1.114   4.899 -1.2229  0.3892 -1.4143
  154SAPE  H12Y17111   5.525   1.115   4.783  0.5319  2.6350 -1.0514
  154SAPE  C31317112   5.451   1.313   4.837 -0.1535 -0.2267  0.1252
  154SAPE  H13X17113   5.543   1.364   4.801  0.2324 -0.7344  0.3799
  154SAPE  H13Y17114   5.414   1.357   4.933  1.5665  0.3165  0.5783
  154SAPE  C31417115   5.355   1.324   4.721 -0.2852 -0.0441  1.0105
  154SAPE  H14X17116   5.269   1.259   4.749 -0.1686  0.1458  1.8615
  154SAPE  H14Y17117   5.396   1.266   4.636  0.4197  1.0326  0.5980
  154SAPE  C31517118   5.317   1.469   4.690  0.1591 -0.3290 -0.5278
  154SAPE  H15X17119   5.407   1.525   4.657  0.9781  0.5428  2.7889
  154SAPE  H15Y17120   5.266   1.513   4.778  1.2371 -0.4578  0.1759
  154SAPE  C31617121   5.228   1.496   4.569  0.8869  0.2883 -0.2496
  154SAPE  H16X17122   5.204   1.605   4.573 -0.9903 -0.0455 -1.2405
  154SAPE  H16Y17123   5.127   1.452   4.582  0.1322  1.9062 -0.3400
  154SAPE  C31717124   5.275   1.444   4.433 -0.5260 -0.2576 -0.0247
  154SAPE  H17X17125   5.307   1.339   4.451  2.8680  0.7330  0.2705
  154SAPE  H17Y17126   5.369   1.494   4.404  0.0040  0.3767  2.5849
  154SAPE  C31817127   5.166   1.464   4.325 -0.4681 -0.2629  0.2364
  154SAPE  H18X17128   5.199   1.421   4.228 -0.2368 -0.9220  0.6005
  154SAPE  H18Y17129   5.143   1.573   4.314 -3.0571 -0.2818  3.7089
  154SAPE  H18Z17130   5.071   1.412   4.346 -0.6882 -0.2237 -0.6228
  155SAPE     N17131   0.346   2.055   6.880 -0.3657  0.4807 -0.3732
  155SAPE   HN117132   0.354   1.953   6.900 -0.9332  0.3680 -0.7052
  155SAPE   HN217133   0.422   2.094   6.820 -0.1019  2.5713  1.1983
  155SAPE   HN317134   0.368   2.088   6.976  2.5021  0.1697 -0.8355
  155SAPE   C1217135   0.206   2.088   6.832 -0.4990 -0.3332 -0.1234
  155SAPE  H12A17136   0.186   2.196   6.817 -3.1130 -0.5578  1.1887
  155SAPE  H12B17137   0.133   2.050   6.907  0.7275 -0.6696  0.9348
  155SAPE   C1117138   0.185   2.020   6.694 -0.5337 -0.3281 -0.3480
  155SAPE  H11A17139   0.092   2.055   6.643  0.0953 -1.0860 -2.0961
  155SAPE  H11B17140   0.169   1.910   6.694  1.7284 -0.7279 -1.8326
  155SAPE     P17141   0.347   2.165   6.524 -0.0120  0.1466  0.0202
  155SAPE   O1317142   0.341   2.282   6.613  0.7466  0.5465  0.1546
  155SAPE   O1417143   0.477   2.135   6.465 -0.5766  0.4165  0.7608
  155SAPE   O1217144   0.290   2.037   6.593  0.1135  0.0818 -0.2193
  155SAPE   O1117145   0.244   2.184   6.411  0.3489  0.2361 -0.0438
  155SAPE    C117146   0.259   2.123   6.277  0.1312 -0.3065 -0.1311
  155SAPE    HA17147   0.269   2.198   6.196  0.9009 -1.3043 -1.0059
  155SAPE    HB17148   0.343   2.050   6.269 -0.0181 -0.3348 -1.6895
  155SAPE    C217149   0.127   2.052   6.243 -0.3388 -0.4266 -0.1262
  155SAPE    HS17150   0.104   1.972   6.317 -0.1693 -1.3590 -1.0646
  155SAPE   O2117151   0.132   2.011   6.109 -0.0409  0.1409  0.3558
  155SAPE   C2117152   0.034   1.951   6.059 -0.3370 -0.1804 -0.4326
  155SAPE   O2217153  -0.061   1.915   6.117  0.3704  0.5853 -0.4467
  155SAPE   C2217154   0.056   1.946   5.912  0.0562 -0.0180  0.1675
  155SAPE   H2R17155  -0.034   1.997   5.872  0.1675  0.6674  0.7658
  155SAPE   H2S17156   0.149   1.997   5.879 -0.1987  0.6397  0.4460
  155SAPE    C317157   0.014   2.156   6.265  0.4886 -0.2786 -0.1845
  155SAPE    HX17158   0.010   2.197   6.368  0.0004  1.2796 -0.7949
  155SAPE    HY17159  -0.083   2.104   6.252  0.1682 -0.1914  1.6516
  155SAPE   O3117160   0.015   2.258   6.158  0.3619  0.0545  0.8479
  155SAPE   C3117161  -0.035   2.374   6.186  0.1752  0.1536 -0.3350
  155SAPE   O3217162  -0.096   2.402   6.290 -0.1056 -0.1486  0.3487
  155SAPE   C3217163  -0.007   2.463   6.070  0.0398  0.2376  0.1173
  155SAPE   H2X17164   0.080   2.431   6.009  0.2529  1.3442 -0.1963
  155SAPE   H2Y17165   0.029   2.563   6.103  2.9709 -0.6462 -0.1286
  155SAPE   C2317166   0.063   1.799   5.862  0.1309  0.5288  0.3029
  155SAPE   H3R17167   0.001   1.735   5.927 -0.4917 -0.2691 -1.0311
  155SAPE   H3S17168   0.167   1.759   5.865 -0.1995 -0.3605  0.1784
  155SAPE   C2417169  -0.020   1.796   5.721  0.0794  0.2083 -0.2831
  155SAPE   H4R17170   0.028   1.862   5.645 -0.2468 -0.2748 -0.9195
  155SAPE   H4S17171  -0.119   1.839   5.748  0.5377  0.2680  1.3718
  155SAPE   C2517172  -0.025   1.657   5.667  0.8149  0.1084  0.2195
  155SAPE   H5R17173  -0.098   1.592   5.717 -0.2391  0.8885 -0.2577
  155SAPE   C2617174   0.029   1.612   5.553 -0.2407  0.4919 -0.3778
  155SAPE   H6R17175   0.015   1.506   5.528  1.2986  0.1183  0.2520
  155SAPE   C2717176   0.127   1.682   5.461  0.1858  0.1705 -0.6072
  155SAPE   H7R17177   0.196   1.613   5.409  1.1821  1.5618 -1.1893
  155SAPE   H7S17178   0.192   1.745   5.526 -1.3228  0.6152  0.5234
  155SAPE   C2817179   0.070   1.776   5.351 -0.5778  0.3014 -0.8576
  155SAPE   H8R17180  -0.008   1.732   5.287 -2.5134  0.7021  1.0902
  155SAPE   C2917181   0.094   1.908   5.328 -0.8191  0.0903 -0.3281
  155SAPE   H9R17182   0.061   1.952   5.232 -0.4782 -0.2337 -0.5958
  155SAPE  C21017183   0.182   1.997   5.418  0.0626 -0.2574  0.3855
  155SAPE  H10R17184   0.243   1.936   5.487 -0.9847  1.5729  3.0907
  155SAPE  H10S17185   0.133   2.067   5.489  1.7569 -0.3064  1.6644
  155SAPE  C21117186   0.273   2.068   5.321  0.4921  0.3436  0.4800
  155SAPE  H11R17187   0.361   2.014   5.285 -1.2039 -0.1626 -3.3903
  155SAPE  C21217188   0.268   2.200   5.296 -0.6172  0.0851 -0.5273
  155SAPE  H12R17189   0.340   2.235   5.221 -1.3912  0.0308 -1.3207
  155SAPE  C21317190   0.173   2.302   5.358 -0.1543  0.6953  0.6626
  155SAPE  H13R17191   0.176   2.279   5.467  0.4216 -0.7064  0.3655
  155SAPE  H13S17192   0.071   2.285   5.320  0.0034  0.8961  0.1466
  155SAPE  C21417193   0.209   2.451   5.339  0.0543  0.1061 -0.3381
  155SAPE  H14R17194   0.264   2.496   5.423 -1.8756 -0.2182  1.1678
  155SAPE  C21517195   0.185   2.522   5.231  1.1297 -0.3256 -0.4486
  155SAPE  H15R17196   0.209   2.629   5.227  1.3028 -0.3944 -1.6209
  155SAPE  C21617197   0.109   2.472   5.115  0.0365  0.4384  0.4461
  155SAPE  H16R17198   0.014   2.421   5.141 -1.4494  2.1915 -1.2732
  155SAPE  H16S17199   0.179   2.393   5.078 -3.6676 -1.9582 -2.2587
  155SAPE  C21717200   0.083   2.576   5.012 -0.9837 -0.2061 -0.2310
  155SAPE  H17R17201   0.031   2.666   5.051 -2.9991 -1.0711 -0.7953
  155SAPE  H17S17202   0.002   2.544   4.943 -2.4681  2.0736  0.3294
  155SAPE  C21817203   0.204   2.629   4.937  0.2835 -0.1951 -0.5414
  155SAPE  H18R17204   0.244   2.547   4.873 -1.1578  0.7075 -2.7296
  155SAPE  H18S17205   0.282   2.674   5.001  0.1113 -0.5675 -0.0654
  155SAPE  C21917206   0.155   2.743   4.847  0.3733 -0.2309  0.1389
  155SAPE  H19R17207   0.119   2.823   4.915 -2.5349 -0.6013 -0.8145
  155SAPE  H19S17208   0.070   2.703   4.787  0.6012 -2.7764  1.3585
  155SAPE  C22017209   0.263   2.796   4.757  0.1263  0.2713  0.2549
  155SAPE  H20R17210   0.347   2.835   4.818 -0.2463  2.1803 -0.3656
  155SAPE  H20S17211   0.235   2.876   4.685  2.8971 -1.4428 -3.0388
  155SAPE  H20T17212   0.313   2.717   4.697 -0.4757  0.6623 -0.7826
  155SAPE   C3317213  -0.130   2.482   5.970 -0.0484  0.2454 -0.1379
  155SAPE   H3X17214  -0.190   2.566   6.011  0.8314  1.7988 -1.8366
  155SAPE   H3Y17215  -0.194   2.391   5.969  0.8424 -0.4195  0.9721
  155SAPE   C3417216  -0.084   2.513   5.828 -0.3281 -0.2618  0.0784
  155SAPE   H4X17217  -0.028   2.422   5.798 -0.2461  0.1372 -1.0485
  155SAPE   H4Y17218  -0.008   2.594   5.826 -2.2126  1.6147 -0.6816
  155SAPE   C3517219  -0.186   2.564   5.726 -0.5646  0.5567 -0.0551
  155SAPE   H5X17220  -0.236   2.655   5.765 -3.5952 -1.1909  0.4964
  155SAPE   H5Y17221  -0.270   2.491   5.729 -2.3164  2.5086  1.1289
  155SAPE   C3617222  -0.133   2.568   5.574 -0.4318  1.3723  0.1763
  155SAPE   H6X17223  -0.110   2.469   5.529  1.5736  1.3597  1.1230
  155SAPE   H6Y17224  -0.040   2.628   5.584 -0.9518  2.0427  1.3433
  155SAPE   C3717225  -0.236   2.646   5.482 -0.1033 -0.4488 -0.3190
  155SAPE   H7X17226  -0.255   2.743   5.533 -0.2746 -1.3435  1.3930
  155SAPE   H7Y17227  -0.332   2.591   5.472 -0.7854  0.6854 -0.1685
  155SAPE   C3817228  -0.174   2.668   5.340  0.0702  0.7020  0.4118
  155SAPE   H8X17229  -0.158   2.576   5.280  1.8763  1.8680 -0.9933
  155SAPE   H8Y17230  -0.073   2.711   5.355  1.1526 -1.1969 -0.9536
  155SAPE   C3917231  -0.261   2.766   5.257  0.3894 -0.5248  0.4469
  155SAPE   H9X17232  -0.208   2.828   5.182 -1.9934 -1.6087 -2.3530
  155SAPE   H9Y17233  -0.315   2.836   5.324 -0.6882  0.1087 -1.0181
  155SAPE  C31017234  -0.381   2.680   5.197 -0.2185  0.0200 -0.2101
  155SAPE  H10X17235  -0.426   2.618   5.278 -1.3532 -0.6173 -1.2802
  155SAPE  H10Y17236  -0.343   2.600   5.130 -1.2852 -1.8825  1.3415
  155SAPE  C31117237  -0.481   2.779   5.125  0.0439 -0.3262  0.0222
  155SAPE  H11X17238  -0.432   2.857   5.063  0.8935  0.9475  2.1796
  155SAPE  H11Y17239  -0.519   2.833   5.215  1.9131 -0.8310  1.1914
  155SAPE  C31217240  -0.592   2.706   5.054  0.4471  0.1024  0.4439
  155SAPE  H12X17241  -0.639   2.626   5.115  2.4276 -1.8062 -0.3397
  155SAPE  H12Y17242  -0.561   2.651   4.962 -1.5091 -1.0914  0.4587
  155SAPE  C31317243  -0.704   2.802   5.007  0.2650  1.0233 -0.0576
  155SAPE  H13X17244  -0.747   2.866   5.087  3.2775  0.6260  2.0567
  155SAPE  H13Y17245  -0.787   2.745   4.961  0.6495  1.9343 -2.0249
  155SAPE  C31417246  -0.653   2.881   4.884  0.2006 -0.0148  0.0753
  155SAPE  H14X17247  -0.615   2.797   4.822  0.6736  0.7581 -0.6920
  155SAPE  H14Y17248  -0.570   2.952   4.906 -0.3737  1.1997 -1.4872
  155SAPE  C31517249  -0.755   2.959   4.807 -0.2457 -0.0974  0.0951
  155SAPE  H15X17250  -0.812   3.020   4.880  1.0064  1.9742 -0.5654
  155SAPE  H15Y17251  -0.827   2.889   4.760 -1.5240  0.0602  1.7358
  155SAPE  C31617252  -0.694   3.065   4.705  0.6361  0.3268 -0.0823
  155SAPE  H16X17253  -0.653   3.151   4.761 -0.8833  1.5386 -0.7372
  155SAPE  H16Y17254  -0.777   3.107   4.644 -0.7511 -1.7917  0.2456
  155SAPE  C31717255  -0.586   3.004   4.616 -0.1222 -0.4042  0.3425
  155SAPE  H17X17256  -0.612   2.900   4.587 -0.3410 -0.9556  2.3589
  155SAPE  H17Y17257  -0.493   3.003   4.677 -0.3991 -0.9070  0.7593
  155SAPE  C31817258  -0.580   3.095   4.495 -0.3925 -0.1815  0.3065
  155SAPE  H18X17259  -0.562   3.197   4.533 -0.8921  0.2183 -0.5115
  155SAPE  H18Y17260  -0.670   3.093   4.430 -0.1603 -0.4105 -0.0163
  155SAPE  H18Z17261  -0.491   3.072   4.432 -1.3166  1.2302 -1.6140
  156SAPE     N17262   1.943   1.794   6.553  0.3132  0.3742 -0.4687
  156SAPE   HN117263   1.991   1.880   6.589 -0.9059  0.3100  1.4385
  156SAPE   HN217264   1.840   1.802   6.548  0.1398 -1.9869 -3.5006
  156SAPE   HN317265   1.962   1.713   6.616 -0.0788  2.5486  2.6934
  156SAPE   C1217266   1.975   1.771   6.408 -0.3647  0.4275  0.5229
  156SAPE  H12A17267   1.899   1.700   6.369  0.4802 -0.6718  0.8235
  156SAPE  H12B17268   2.076   1.726   6.403 -0.2686  0.2654  2.8927
  156SAPE   C1117269   1.957   1.901   6.336 -0.0640 -0.0207  0.0623
  156SAPE  H11A17270   1.982   1.877   6.231 -0.9862  0.7557 -0.3476
  156SAPE  H11B17271   2.028   1.978   6.372 -0.8727  0.6250  0.3030
  156SAPE     P17272   1.788   2.096   6.311  0.1591  0.0441  0.4155
  156SAPE   O1317273   1.692   2.104   6.196 -0.3084  0.3673  0.3304
  156SAPE   O1417274   1.734   2.154   6.428 -0.1988  0.0758  0.0480
  156SAPE   O1217275   1.826   1.945   6.344 -0.0482 -0.5492  0.0666
  156SAPE   O1117276   1.921   2.163   6.268 -0.7904 -0.1297 -0.2084
  156SAPE    C117277   1.928   2.311   6.270  0.0766  0.3571 -0.6183
  156SAPE    HA17278   1.837   2.364   6.305  0.0062 -0.2764  0.1891
  156SAPE    HB17279   2.008   2.339   6.342  1.2768 -2.5162 -0.7390
  156SAPE    C217280   1.972   2.375   6.134 -0.0602  0.5478 -0.5942
  156SAPE    HS17281   1.982   2.484   6.147  0.9746  0.2160  1.8932
  156SAPE   O2117282   1.878   2.339   6.028  0.0952 -0.4273 -0.3666
  156SAPE   C2117283   1.761   2.398   6.037  0.0627 -0.4434  0.2524
  156SAPE   O2217284   1.743   2.497   6.109  0.5585 -0.1500  0.5791
  156SAPE   C2217285   1.656   2.333   5.948  0.0163 -0.5145 -0.4302
  156SAPE   H2R17286   1.715   2.289   5.865  0.6376  0.8332 -0.7477
  156SAPE   H2S17287   1.608   2.263   6.019 -0.4409  0.7676  0.5862
  156SAPE    C317288   2.112   2.314   6.095 -0.3442 -0.1046  0.2321
  156SAPE    HX17289   2.099   2.205   6.076 -0.3505 -0.2951  1.2635
  156SAPE    HY17290   2.179   2.321   6.183 -1.8765 -1.5274  1.5947
  156SAPE   O3117291   2.168   2.381   5.978 -0.1237  0.0824  0.1733
  156SAPE   C3117292   2.278   2.329   5.939  0.1014  0.8591  0.6898
  156SAPE   O3217293   2.331   2.231   5.990 -0.4548  0.2442  0.1310
  156SAPE   C3217294   2.324   2.400   5.812 -0.3551  0.7927  0.3634
  156SAPE   H2X17295   2.361   2.501   5.840  1.9498  0.8297 -2.4105
  156SAPE   H2Y17296   2.237   2.424   5.748  2.1789  2.1413 -2.8446
  156SAPE   C2317297   1.540   2.414   5.886  0.5114 -0.1587  0.0826
  156SAPE   H3R17298   1.570   2.497   5.819 -2.4276  1.7389  0.9599
  156SAPE   H3S17299   1.497   2.469   5.972  3.2725 -0.1118  1.5527
  156SAPE   C2417300   1.438   2.322   5.809  0.2035 -0.3987 -0.4626
  156SAPE   H4R17301   1.348   2.380   5.783  0.4362 -0.3642 -1.2233
  156SAPE   H4S17302   1.417   2.248   5.889  1.2126 -0.4507 -0.2316
  156SAPE   C2517303   1.497   2.243   5.690 -0.0570 -0.9825  0.0673
  156SAPE   H5R17304   1.521   2.136   5.705  1.4265 -0.8228 -0.9142
  156SAPE   C2617305   1.534   2.292   5.572  0.4510  0.5195  0.6436
  156SAPE   H6R17306   1.588   2.234   5.496  0.3717 -1.1475  1.8111
  156SAPE   C2717307   1.513   2.435   5.529  0.0651  0.1321  0.2503
  156SAPE   H7R17308   1.606   2.460   5.474  0.7156 -2.9416 -0.2731
  156SAPE   H7S17309   1.511   2.514   5.607 -1.4747  0.8538 -0.4810
  156SAPE   C2817310   1.396   2.461   5.441  0.0364 -0.0894  0.3291
  156SAPE   H8R17311   1.310   2.504   5.496 -0.9260  0.2394 -1.3588
  156SAPE   C2917312   1.386   2.440   5.310 -0.9900  0.6049 -0.0973
  156SAPE   H9R17313   1.295   2.477   5.259 -0.2645  0.8465 -1.2556
  156SAPE  C21017314   1.495   2.399   5.218 -0.0578  0.8012  0.2802
  156SAPE  H10R17315   1.453   2.337   5.137 -2.6502  1.1379  1.2757
  156SAPE  H10S17316   1.568   2.333   5.270 -0.8365  0.9560  1.6334
  156SAPE  C21117317   1.574   2.518   5.167  0.2307 -0.6711  0.4049
  156SAPE  H11R17318   1.614   2.586   5.243  2.6638 -1.9020  0.3385
  156SAPE  C21217319   1.617   2.539   5.043 -0.6336  0.3253 -0.0055
  156SAPE  H12R17320   1.648   2.641   5.014  0.3529  0.1377  0.3446
  156SAPE  C21317321   1.587   2.444   4.928  0.1256 -0.1014  0.3521
  156SAPE  H13R17322   1.568   2.501   4.834  0.3404  0.5576  0.6961
  156SAPE  H13S17323   1.501   2.380   4.955  0.0461  0.3533  1.2215
  156SAPE  C21417324   1.708   2.362   4.884 -0.1630 -0.1981  0.2207
  156SAPE  H14R17325   1.785   2.339   4.959 -0.2451  0.9917  0.7005
  156SAPE  C21517326   1.729   2.325   4.753 -0.4721  0.2059 -0.5096
  156SAPE  H15R17327   1.809   2.250   4.742  0.5775  0.8933  1.7160
  156SAPE  C21617328   1.629   2.328   4.640  0.7205  0.2109  0.0700
  156SAPE  H16R17329   1.524   2.346   4.673 -0.6704  0.0166 -3.7607
  156SAPE  H16S17330   1.627   2.233   4.582  2.5520  1.1139 -1.5577
  156SAPE  C21717331   1.658   2.440   4.540 -0.2542  0.2617  0.6633
  156SAPE  H17R17332   1.766   2.429   4.513 -1.1524  1.2107 -4.2416
  156SAPE  H17S17333   1.641   2.533   4.598  2.4768 -0.0468  2.1396
  156SAPE  C21817334   1.581   2.430   4.408  0.1949  1.1463  0.3452
  156SAPE  H18R17335   1.476   2.447   4.440  0.2711 -1.0375  2.0238
  156SAPE  H18S17336   1.588   2.330   4.359  1.6969  2.4616 -2.3585
  156SAPE  C21917337   1.618   2.538   4.305  0.2451  0.0236 -0.2212
  156SAPE  H19R17338   1.727   2.541   4.282  0.3285  1.7677  0.2683
  156SAPE  H19S17339   1.592   2.637   4.348  0.0314  0.5545 -1.5292
  156SAPE  C22017340   1.541   2.531   4.175  0.2058 -0.4475  0.3092
  156SAPE  H20R17341   1.432   2.548   4.189 -0.0423 -1.4844 -0.2293
  156SAPE  H20S17342   1.556   2.431   4.130  2.3996  1.0464 -2.5618
  156SAPE  H20T17343   1.586   2.609   4.110 -2.8309 -0.6204 -2.2306
  156SAPE   C3317344   2.434   2.329   5.720  0.3953 -0.9653 -0.7160
  156SAPE   H3X17345   2.497   2.267   5.786  0.0204 -0.9084 -0.2944
  156SAPE   H3Y17346   2.499   2.409   5.677  0.7222 -0.0494  1.3831
  156SAPE   C3417347   2.381   2.242   5.600  0.5702  0.2894 -0.5310
  156SAPE   H4X17348   2.307   2.292   5.534  0.0317 -1.7308 -1.5367
  156SAPE   H4Y17349   2.339   2.150   5.648  2.8544 -0.6858 -0.2790
  156SAPE   C3517350   2.492   2.196   5.516 -0.8369  0.5938 -0.0106
  156SAPE   H5X17351   2.566   2.158   5.590 -1.6863  1.7904  1.4849
  156SAPE   H5Y17352   2.545   2.279   5.465  1.2165  0.2882  1.4883
  156SAPE   C3617353   2.462   2.087   5.410  0.3752 -0.5483  0.9553
  156SAPE   H6X17354   2.380   2.027   5.453  0.8257 -0.3314  2.1430
  156SAPE   H6Y17355   2.551   2.020   5.411  1.4170  0.7905  0.9453
  156SAPE   C3717356   2.427   2.142   5.266 -0.2567 -0.0255  0.4830
  156SAPE   H7X17357   2.412   2.050   5.207  1.6597  0.3273 -0.6724
  156SAPE   H7Y17358   2.518   2.195   5.229 -0.6665  2.2860  2.4627
  156SAPE   C3817359   2.298   2.227   5.261  0.1842  0.0640  0.3082
  156SAPE   H8X17360   2.313   2.315   5.326  0.5011 -0.7578  1.3852
  156SAPE   H8Y17361   2.208   2.177   5.305 -0.9919  1.0046 -0.9339
  156SAPE   C3917362   2.266   2.283   5.122  0.6489  0.1054  0.0158
  156SAPE   H9X17363   2.358   2.326   5.077 -0.5527  4.9848  1.5968
  156SAPE   H9Y17364   2.197   2.370   5.121  0.0423 -0.3705 -0.4427
  156SAPE  C31017365   2.207   2.177   5.025  0.8445  0.2233 -0.5602
  156SAPE  H10X17366   2.109   2.152   5.070  1.4575  1.5927  1.7009
  156SAPE  H10Y17367   2.262   2.081   5.039 -2.0208 -1.5947 -0.9189
  156SAPE  C31117368   2.193   2.238   4.885 -0.0320 -0.4690  0.5622
  156SAPE  H11X17369   2.277   2.300   4.848 -1.7137 -0.0430 -2.8956
  156SAPE  H11Y17370   2.101   2.300   4.885 -0.4708 -1.1085  0.1458
  156SAPE  C31217371   2.178   2.128   4.770  0.2412 -0.3702 -0.2661
  156SAPE  H12X17372   2.271   2.069   4.767 -1.1324 -2.6399 -0.1797
  156SAPE  H12Y17373   2.183   2.179   4.671 -1.1629  0.2196 -0.0652
  156SAPE  C31317374   2.056   2.031   4.793 -0.0889 -0.0180 -0.7190
  156SAPE  H13X17375   1.957   2.080   4.786 -0.1494  0.2022  1.0900
  156SAPE  H13Y17376   2.074   1.999   4.898  1.1669 -0.4512 -1.0451
  156SAPE  C31417377   2.073   1.913   4.695 -0.2345 -0.7107  0.0677
  156SAPE  H14X17378   2.175   1.873   4.712 -0.4107 -0.8291  0.8834
  156SAPE  H14Y17379   2.066   1.953   4.591 -0.7845 -0.1934  0.2967
  156SAPE  C31517380   1.986   1.791   4.726 -0.8330  0.3376  0.9599
  156SAPE  H15X17381   1.878   1.813   4.710 -0.6442 -0.0662 -1.1812
  156SAPE  H15Y17382   2.008   1.767   4.832 -1.1620  3.8208  1.9506
  156SAPE  C31617383   2.016   1.664   4.633  0.0695  0.2655 -0.6287
  156SAPE  H16X17384   2.122   1.635   4.647 -0.1722 -0.4146 -0.1846
  156SAPE  H16Y17385   1.991   1.676   4.525 -0.8626  0.8407 -0.3661
  156SAPE  C31717386   1.928   1.544   4.686 -0.1498 -0.0328  0.6335
  156SAPE  H17X17387   1.821   1.550   4.655  0.1313 -2.3813 -1.1497
  156SAPE  H17Y17388   1.930   1.543   4.797  4.0763  0.2523  0.7084
  156SAPE  C31817389   1.974   1.407   4.628 -0.4560 -0.6041 -0.7429
  156SAPE  H18X17390   1.924   1.327   4.687 -1.6977  1.1963  0.7762
  156SAPE  H18Y17391   2.083   1.392   4.638 -0.0512  2.1119 -0.2474
  156SAPE  H18Z17392   1.946   1.390   4.522  0.0834  0.1640 -1.0102
  157SAPE     N17393   2.424   0.039   6.806  0.4831 -0.6416 -0.3826
  157SAPE   HN117394   2.369   0.111   6.857 -0.1311 -1.2409 -0.1866
  157SAPE   HN217395   2.424  -0.054   6.853  0.1189  0.9118  2.9757
  157SAPE   HN317396   2.519   0.077   6.827 -0.3670  1.7130 -0.5178
  157SAPE   C1217397   2.399   0.022   6.663  0.0774  0.0934 -0.2658
  157SAPE  H12A17398   2.371  -0.083   6.642 -0.3665  0.2165 -0.2885
  157SAPE  H12B17399   2.496   0.036   6.611 -0.1197 -0.7424 -0.8797
  157SAPE   C1117400   2.297   0.122   6.603  0.5988 -0.1003 -0.1807
  157SAPE  H11A17401   2.198   0.079   6.631  1.0659 -0.4150  1.0396
  157SAPE  H11B17402   2.303   0.120   6.492  1.9155 -2.1752 -0.1202
  157SAPE     P17403   2.185   0.328   6.710 -0.6619 -0.2936 -0.2284
  157SAPE   O1317404   2.144   0.233   6.817  0.1691  0.0506 -0.5270
  157SAPE   O1417405   2.210   0.469   6.748 -0.3717  0.5183 -0.4198
  157SAPE   O1217406   2.314   0.256   6.653  0.9700  0.4507 -0.4480
  157SAPE   O1117407   2.084   0.320   6.587  0.0253  0.3678  0.3498
  157SAPE    C117408   2.058   0.428   6.502  0.2084 -0.3216  0.0062
  157SAPE    HA17409   1.947   0.439   6.497 -0.1699 -2.2894  2.2140
  157SAPE    HB17410   2.097   0.528   6.530  1.6087 -0.4770 -1.2596
  157SAPE    C217411   2.109   0.402   6.353  0.0525 -0.4067  0.1526
  157SAPE    HS17412   2.062   0.489   6.302 -0.8023  0.2668  1.9912
  157SAPE   O2117413   2.068   0.281   6.291  0.5392  0.7081  0.2541
  157SAPE   C2117414   1.954   0.286   6.221 -0.4015  1.3928  0.5806
  157SAPE   O2217415   1.881   0.379   6.206  0.0801 -0.7191  0.7552
  157SAPE   C2217416   1.922   0.148   6.158 -0.5525  0.0230  0.1910
  157SAPE   H2R17417   1.859   0.098   6.235 -0.4771 -0.2648  0.0661
  157SAPE   H2S17418   1.857   0.162   6.070 -0.2461 -2.5066 -0.5192
  157SAPE    C317419   2.259   0.414   6.327  0.1026 -0.1302  0.3449
  157SAPE    HX17420   2.318   0.334   6.376 -1.0683  0.0913  2.2159
  157SAPE    HY17421   2.298   0.508   6.372  2.9632  0.1106 -2.3358
  157SAPE   O3117422   2.275   0.430   6.187 -0.3380  0.6095  0.0348
  157SAPE   C3117423   2.402   0.428   6.147 -0.2086  0.1340  0.2832
  157SAPE   O3217424   2.500   0.398   6.212 -0.3095 -0.4030  0.2716
  157SAPE   C3217425   2.400   0.487   6.014  0.6224  0.0088 -0.0065
  157SAPE   H2X17426   2.406   0.597   6.028  1.4133 -0.1554  1.1331
  157SAPE   H2Y17427   2.310   0.453   5.960  0.0899  0.2284  0.7286
  157SAPE   C2317428   2.049   0.073   6.103 -0.7386  0.1436  0.1951
  157SAPE   H3R17429   2.015  -0.019   6.051 -1.8054  1.1168 -0.8767
  157SAPE   H3S17430   2.099   0.047   6.199 -0.3081 -0.8441 -0.2913
  157SAPE   C2417431   2.127   0.164   6.003  0.5904  0.0032  0.0770
  157SAPE   H4R17432   2.144   0.267   6.040 -1.8640  0.8268 -0.8891
  157SAPE   H4S17433   2.063   0.174   5.913 -0.5639 -1.1725  0.7273
  157SAPE   C2517434   2.257   0.104   5.963  0.1199 -0.6198  0.1069
  157SAPE   H5R17435   2.287   0.022   6.030  0.0049  0.6902  1.8535
  157SAPE   C2617436   2.319   0.125   5.844 -0.7528  0.0239  0.4789
  157SAPE   H6R17437   2.404   0.064   5.808  1.2038  3.0413 -0.3412
  157SAPE   C2717438   2.279   0.233   5.737  0.0721  0.5146 -0.5295
  157SAPE   H7R17439   2.364   0.301   5.717 -1.8227  2.9618 -0.6513
  157SAPE   H7S17440   2.210   0.305   5.785  1.2687  1.3331  0.0246
  157SAPE   C2817441   2.205   0.169   5.622 -0.4834  0.2642  0.4116
  157SAPE   H8R17442   2.140   0.083   5.644  0.6320 -0.7580 -0.1728
  157SAPE   C2917443   2.232   0.198   5.487 -0.6921 -0.0698  0.0063
  157SAPE   H9R17444   2.184   0.143   5.405  0.2779  0.9981 -1.3347
  157SAPE  C21017445   2.323   0.313   5.452 -0.5423  0.0598  0.1637
  157SAPE  H10R17446   2.329   0.302   5.342  1.2508  0.9140  0.1314
  157SAPE  H10S17447   2.429   0.303   5.487  0.2751 -0.2722 -2.2474
  157SAPE  C21117448   2.262   0.446   5.489 -0.4456  0.0328 -0.1901
  157SAPE  H11R17449   2.159   0.452   5.527 -0.8820  0.1509 -1.3479
  157SAPE  C21217450   2.323   0.558   5.462  0.1300 -0.3274 -0.3318
  157SAPE  H12R17451   2.270   0.648   5.496 -1.0155 -0.9235 -0.4887
  157SAPE  C21317452   2.456   0.580   5.404 -0.0538 -0.3329 -0.0442
  157SAPE  H13R17453   2.515   0.486   5.395  0.9582  0.0905  1.6537
  157SAPE  H13S17454   2.509   0.651   5.471 -0.7686  0.2259 -0.0661
  157SAPE  C21417455   2.454   0.648   5.270  0.7914  0.1464 -0.1942
  157SAPE  H14R17456   2.443   0.757   5.262  0.9406  0.0676 -1.7588
  157SAPE  C21517457   2.458   0.591   5.152  0.1813 -0.7313 -0.8459
  157SAPE  H15R17458   2.456   0.660   5.066  0.2463 -1.1354 -1.1733
  157SAPE  C21617459   2.482   0.446   5.119  0.5899 -0.3427 -0.2167
  157SAPE  H16R17460   2.399   0.402   5.059 -0.1576  2.4079 -1.3552
  157SAPE  H16S17461   2.494   0.394   5.216 -0.4655  1.5460  0.9944
  157SAPE  C21717462   2.611   0.425   5.051  0.0001  0.2492  0.1994
  157SAPE  H17R17463   2.659   0.326   5.067 -0.9831 -0.3897 -0.6649
  157SAPE  H17S17464   2.686   0.495   5.095 -0.4339  0.3359  0.8133
  157SAPE  C21817465   2.613   0.461   4.902  0.6586  0.3620 -0.4585
  157SAPE  H18R17466   2.576   0.564   4.880 -0.3243  0.4762  1.4834
  157SAPE  H18S17467   2.534   0.395   4.859 -0.5225  1.3875  0.0702
  157SAPE  C21917468   2.751   0.444   4.833  0.9886 -0.5915 -0.5001
  157SAPE  H19R17469   2.818   0.370   4.881 -0.3408 -0.6383  1.3812
  157SAPE  H19S17470   2.795   0.544   4.852 -1.4082  0.5202 -0.4881
  157SAPE  C22017471   2.746   0.424   4.678  0.1180  0.1172 -0.0861
  157SAPE  H20R17472   2.686   0.504   4.628  2.6560  2.2645  0.0843
  157SAPE  H20S17473   2.697   0.326   4.658  0.4511  0.3129 -2.0912
  157SAPE  H20T17474   2.843   0.424   4.624  0.4546  0.9887  0.5053
  157SAPE   C3317475   2.523   0.451   5.928 -0.0888 -0.4250 -0.2047
  157SAPE   H3X17476   2.543   0.347   5.895 -0.0150 -0.1436 -1.0747
  157SAPE   H3Y17477   2.612   0.474   5.990 -0.3128 -0.3368  0.0831
  157SAPE   C3417478   2.540   0.554   5.810 -0.2674 -0.9536 -0.0131
  157SAPE   H4X17479   2.485   0.642   5.850 -0.1160 -1.6864  1.9072
  157SAPE   H4Y17480   2.493   0.509   5.720 -0.7678 -0.6724  0.1030
  157SAPE   C3517481   2.691   0.582   5.782 -0.1425 -0.1846  0.7591
  157SAPE   H5X17482   2.740   0.644   5.860  1.9805  1.6119 -1.8466
  157SAPE   H5Y17483   2.703   0.637   5.687  1.3874 -2.8714 -0.7307
  157SAPE   C3617484   2.772   0.450   5.769  0.4096  0.2150 -0.1231
  157SAPE   H6X17485   2.764   0.381   5.855 -1.4273  0.3793 -0.1326
  157SAPE   H6Y17486   2.876   0.477   5.739  0.3963 -2.0528 -2.5655
  157SAPE   C3717487   2.720   0.353   5.657 -0.6004 -0.9082  0.2701
  157SAPE   H7X17488   2.717   0.414   5.565  0.6620 -3.2119 -1.4173
  157SAPE   H7Y17489   2.616   0.316   5.665 -0.6680 -0.7226  0.2487
  157SAPE   C3817490   2.807   0.233   5.639 -0.0802  0.0200 -0.1274
  157SAPE   H8X17491   2.802   0.164   5.726 -0.7017 -1.0277 -0.9624
  157SAPE   H8Y17492   2.904   0.287   5.643  0.7327 -1.4567  0.8352
  157SAPE   C3917493   2.807   0.166   5.498  0.3566 -0.2611 -0.8094
  157SAPE   H9X17494   2.698   0.148   5.491  0.6050 -3.5745  1.3213
  157SAPE   H9Y17495   2.861   0.070   5.515 -1.0070 -0.6341  1.9416
  157SAPE  C31017496   2.863   0.248   5.389 -0.5708 -0.0267  0.3939
  157SAPE  H10X17497   2.951   0.301   5.430 -0.2166 -1.5885  1.7515
  157SAPE  H10Y17498   2.787   0.325   5.364 -1.4643 -1.2259 -0.7667
  157SAPE  C31117499   2.915   0.173   5.266  0.5509 -0.2142 -0.0739
  157SAPE  H11X17500   2.826   0.121   5.225 -0.5537  1.2256  0.4237
  157SAPE  H11Y17501   2.993   0.099   5.295 -0.6683 -1.2264  0.7614
  157SAPE  C31217502   2.951   0.276   5.154  0.3983  0.2689 -0.4176
  157SAPE  H12X17503   2.855   0.331   5.140  0.6467  0.9209  0.3370
  157SAPE  H12Y17504   2.978   0.221   5.062  0.3442 -0.6222  0.0953
  157SAPE  C31317505   3.069   0.369   5.192 -0.1524 -0.5462  0.6198
  157SAPE  H13X17506   3.153   0.307   5.230 -1.6690 -2.4174  1.0496
  157SAPE  H13Y17507   3.023   0.430   5.272 -0.0145 -1.2629  1.2611
  157SAPE  C31417508   3.118   0.463   5.074 -0.1808 -0.2860 -0.0455
  157SAPE  H14X17509   3.030   0.525   5.048  1.3659  1.3007 -1.7353
  157SAPE  H14Y17510   3.162   0.401   4.992 -1.4782 -0.7946 -0.3930
  157SAPE  C31517511   3.213   0.574   5.125  0.0642  0.1586  0.0773
  157SAPE  H15X17512   3.295   0.528   5.184  0.6644  0.4804 -0.4963
  157SAPE  H15Y17513   3.158   0.637   5.199  0.3415  0.8151 -0.2651
  157SAPE  C31617514   3.276   0.671   5.024  0.6933 -0.4099 -0.0688
  157SAPE  H16X17515   3.342   0.611   4.958 -1.3313 -1.1386 -1.5257
  157SAPE  H16Y17516   3.333   0.746   5.083  0.8763  0.8219 -1.7307
  157SAPE  C31717517   3.180   0.748   4.937  0.0945  0.1014 -0.4117
  157SAPE  H17X17518   3.142   0.829   5.002  1.7072  0.3485  0.2496
  157SAPE  H17Y17519   3.102   0.688   4.884  0.8574 -0.9964 -0.3329
  157SAPE  C31817520   3.262   0.820   4.822  0.2094 -0.0470  0.2610
  157SAPE  H18X17521   3.317   0.738   4.772  0.2248  0.1344 -0.0241
  157SAPE  H18Y17522   3.342   0.882   4.869 -1.0399  2.2785 -0.5078
  157SAPE  H18Z17523   3.197   0.873   4.750  0.4116 -0.3205 -0.1247
  158SAPE     N17524   4.413   0.084   7.015 -0.4435 -0.5717 -0.3881
  158SAPE   HN117525   4.485   0.096   7.089 -1.2320 -1.0409  0.4720
  158SAPE   HN217526   4.442   0.031   6.931 -0.1576  0.3381 -0.8798
  158SAPE   HN317527   4.402   0.181   6.977  1.8750 -1.2900 -3.2814
  158SAPE   C1217528   4.292   0.033   7.080 -0.3624  0.3386 -0.6381
  158SAPE  H12A17529   4.212   0.025   7.003  1.2904  1.2423 -2.5087
  158SAPE  H12B17530   4.251   0.102   7.158 -0.0356  0.2903 -0.4229
  158SAPE   C1117531   4.312  -0.105   7.143 -0.9386  0.3928 -0.0633
  158SAPE  H11A17532   4.221  -0.144   7.193  1.0862 -1.2149  2.6339
  158SAPE  H11B17533   4.389  -0.083   7.219 -1.0194 -0.7722  0.3778
  158SAPE     P17534   4.278  -0.313   6.996  0.0691 -0.0620 -0.0149
  158SAPE   O1317535   4.357  -0.371   6.882  0.1186 -0.1474  0.1280
  158SAPE   O1417536   4.233  -0.402   7.105  0.1800  0.3246 -0.3106
  158SAPE   O1217537   4.363  -0.199   7.056 -0.0145 -0.5134  0.7648
  158SAPE   O1117538   4.157  -0.229   6.930 -0.1168  0.1995 -0.8339
  158SAPE    C117539   4.028  -0.295   6.923  0.0853  0.1452 -0.6147
  158SAPE    HA17540   4.006  -0.338   7.023  3.0336  0.2540  0.1723
  158SAPE    HB17541   3.954  -0.215   6.902  0.8399  1.1518  0.5023
  158SAPE    C217542   4.010  -0.399   6.807  0.5274 -0.0060  0.0359
  158SAPE    HS17543   4.088  -0.477   6.823 -0.8410 -1.4461 -0.1589
  158SAPE   O2117544   4.045  -0.314   6.685 -0.2491  0.2462 -0.5735
  158SAPE   C2117545   4.119  -0.379   6.597 -0.0958 -0.8301  0.3468
  158SAPE   O2217546   4.152  -0.495   6.608 -0.2805  0.0566  0.5503
  158SAPE   C2217547   4.142  -0.280   6.476  0.2228  0.2775 -1.1232
  158SAPE   H2R17548   4.054  -0.295   6.410 -0.2572  1.2898 -0.7227
  158SAPE   H2S17549   4.150  -0.180   6.522  1.0501  0.5300 -1.7903
  158SAPE    C317550   3.869  -0.469   6.803  0.1865  0.7444 -0.7144
  158SAPE    HX17551   3.779  -0.405   6.802 -2.2408 -2.3704 -3.2480
  158SAPE    HY17552   3.867  -0.525   6.899 -3.5443  0.2533 -0.9354
  158SAPE   O3117553   3.869  -0.565   6.695 -0.3156 -0.2736 -0.5154
  158SAPE   C3117554   3.752  -0.591   6.625  0.6257  0.3074  1.0298
  158SAPE   O3217555   3.645  -0.534   6.653  0.1199 -0.5013 -0.2408
  158SAPE   C3217556   3.774  -0.685   6.509  0.2925  0.2143  0.1415
  158SAPE   H2X17557   3.678  -0.681   6.453 -0.7751  1.6715  1.9703
  158SAPE   H2Y17558   3.793  -0.788   6.545  1.2287  0.3307  0.0122
  158SAPE   C2317559   4.272  -0.293   6.396  0.1920 -0.0404 -1.0064
  158SAPE   H3R17560   4.362  -0.299   6.462 -1.1955 -1.8597  0.8444
  158SAPE   H3S17561   4.275  -0.193   6.348  0.4317  0.6809  0.4600
  158SAPE   C2417562   4.272  -0.402   6.293  0.5757 -0.0939  0.4935
  158SAPE   H4R17563   4.215  -0.362   6.207 -0.7619 -0.3651  1.2248
  158SAPE   H4S17564   4.209  -0.482   6.339 -0.0937 -0.1930 -0.5783
  158SAPE   C2517565   4.406  -0.456   6.244 -0.1565  0.5579 -0.6818
  158SAPE   H5R17566   4.491  -0.429   6.308 -0.4967 -0.1498  0.0892
  158SAPE   C2617567   4.427  -0.548   6.143  0.3165 -0.1530  0.8431
  158SAPE   H6R17568   4.532  -0.576   6.126  0.2944 -0.1810  0.7502
  158SAPE   C2717569   4.328  -0.610   6.054 -0.2677 -0.4959 -0.9044
  158SAPE   H7R17570   4.292  -0.538   5.978  1.5647  3.2320  1.4606
  158SAPE   H7S17571   4.234  -0.620   6.112 -0.7329  3.1015 -0.8290
  158SAPE   C2817572   4.365  -0.748   5.996 -0.5290  0.4597  0.1599
  158SAPE   H8R17573   4.334  -0.834   6.057  0.6573 -0.4036 -0.4134
  158SAPE   C2917574   4.412  -0.773   5.876  0.0966 -0.1500 -0.1908
  158SAPE   H9R17575   4.436  -0.876   5.845 -2.4445 -1.1272  0.8887
  158SAPE  C21017576   4.461  -0.664   5.785 -0.0933 -0.3329 -0.1586
  158SAPE  H10R17577   4.488  -0.569   5.836  0.6920 -0.0246 -1.1180
  158SAPE  H10S17578   4.382  -0.634   5.713  1.0073  0.8948 -0.9044
  158SAPE  C21117579   4.589  -0.709   5.713 -0.4694 -0.0169  0.0138
  158SAPE  H11R17580   4.681  -0.664   5.752  0.9913 -0.6578 -2.4826
  158SAPE  C21217581   4.596  -0.770   5.595  0.7479 -0.0433  0.3143
  158SAPE  H12R17582   4.694  -0.794   5.551  0.2555  1.5009 -1.8108
  158SAPE  C21317583   4.479  -0.832   5.521 -0.1864  0.3271  0.1083
  158SAPE  H13R17584   4.392  -0.865   5.582 -0.3151 -0.7213 -0.6252
  158SAPE  H13S17585   4.516  -0.919   5.463 -0.8397  0.4566 -0.5216
  158SAPE  C21417586   4.425  -0.741   5.412  0.5490  0.9454 -0.7149
  158SAPE  H14R17587   4.326  -0.704   5.443  0.0485 -0.7085 -0.1812
  158SAPE  C21517588   4.462  -0.725   5.288  0.4336  0.1004 -0.5582
  158SAPE  H15R17589   4.416  -0.638   5.239 -1.8860 -0.0037  1.3010
  158SAPE  C21617590   4.580  -0.793   5.219 -0.2868  0.0568 -0.8646
  158SAPE  H16R17591   4.630  -0.870   5.281 -1.8719 -1.0136 -0.8866
  158SAPE  H16S17592   4.657  -0.714   5.206 -0.8279  0.6734 -0.4055
  158SAPE  C21717593   4.528  -0.845   5.080 -0.2032 -0.9928 -0.4513
  158SAPE  H17R17594   4.462  -0.774   5.026  0.5590 -0.0456 -0.1677
  158SAPE  H17S17595   4.472  -0.939   5.101 -2.8345  0.7532  0.8656
  158SAPE  C21817596   4.654  -0.872   4.990 -0.5301 -0.3294 -0.7186
  158SAPE  H18R17597   4.700  -0.966   5.029  0.6734  0.4755 -0.1507
  158SAPE  H18S17598   4.721  -0.786   5.008 -0.8403 -0.0404 -0.9556
  158SAPE  C21917599   4.620  -0.875   4.841 -0.5153 -0.6525 -0.5728
  158SAPE  H19R17600   4.716  -0.888   4.785  0.1367  0.9076  0.1161
  158SAPE  H19S17601   4.565  -0.787   4.802 -0.6103  0.0147  0.9888
  158SAPE  C22017602   4.527  -0.990   4.811 -0.2092  0.4275  0.0475
  158SAPE  H20R17603   4.572  -1.083   4.852  1.0662  1.7168  1.7068
  158SAPE  H20S17604   4.518  -1.012   4.702  1.3581 -4.1671  0.6001
  158SAPE  H20T17605   4.425  -0.973   4.850 -0.3208 -3.4717  1.9464
  158SAPE   C3317606   3.886  -0.648   6.415 -0.0562  0.2940 -0.4018
  158SAPE   H3X17607   3.992  -0.664   6.446 -0.0741  0.9879  0.0423
  158SAPE   H3Y17608   3.876  -0.541   6.386  0.7414  0.4235 -0.2250
  158SAPE   C3417609   3.875  -0.736   6.279 -0.9218  0.3300  0.2272
  158SAPE   H4X17610   3.770  -0.720   6.245 -1.5187 -1.3687  1.1669
  158SAPE   H4Y17611   3.870  -0.846   6.291 -1.1175  0.3468  0.3123
  158SAPE   C3517612   3.968  -0.692   6.158 -0.5234  0.2165  0.0043
  158SAPE   H5X17613   4.063  -0.750   6.163 -0.1169  0.7465 -1.1263
  158SAPE   H5Y17614   3.997  -0.585   6.170 -2.6949  0.7587  0.7830
  158SAPE   C3617615   3.901  -0.711   6.014 -0.2854  0.3320 -0.0261
  158SAPE   H6X17616   3.799  -0.666   6.011  0.3628  1.9876  1.1987
  158SAPE   H6Y17617   3.879  -0.819   6.009  0.1831  0.2048  0.4941
  158SAPE   C3717618   3.989  -0.667   5.899  0.2228  0.1428  0.0826
  158SAPE   H7X17619   4.088  -0.717   5.908  0.2885  0.0932 -0.8272
  158SAPE   H7Y17620   4.009  -0.558   5.897  0.9195  0.0104 -1.1865
  158SAPE   C3817621   3.931  -0.717   5.767 -0.5567  0.2727  0.1785
  158SAPE   H8X17622   3.840  -0.654   5.753  0.9950  2.3083 -1.3770
  158SAPE   H8Y17623   3.910  -0.826   5.773  1.3310 -0.2138 -1.1265
  158SAPE   C3917624   4.024  -0.697   5.637  0.4659 -0.0896  0.0601
  158SAPE   H9X17625   4.117  -0.756   5.633  0.0599 -0.7272 -0.0804
  158SAPE   H9Y17626   4.039  -0.587   5.636  0.9569 -0.1086  2.3087
  158SAPE  C31017627   3.946  -0.729   5.505 -0.5989  0.4856  0.4824
  158SAPE  H10X17628   3.841  -0.700   5.525 -0.4819  0.8182  0.6244
  158SAPE  H10Y17629   3.958  -0.840   5.497  1.6691  0.6308  1.2742
  158SAPE  C31117630   4.013  -0.663   5.386 -0.0953  0.4180  0.1917
  158SAPE  H11X17631   4.114  -0.708   5.376 -0.1476  0.3404 -0.0034
  158SAPE  H11Y17632   4.022  -0.553   5.403 -1.0509  0.8040 -1.5110
  158SAPE  C31217633   3.936  -0.682   5.247  0.4756  0.0109 -0.0579
  158SAPE  H12X17634   3.851  -0.611   5.242 -0.0536 -0.6837 -1.1585
  158SAPE  H12Y17635   3.880  -0.777   5.252 -1.4236  1.0893 -0.1210
  158SAPE  C31317636   4.016  -0.665   5.112  0.1866 -0.6532  0.2548
  158SAPE  H13X17637   4.100  -0.737   5.112  0.3384 -0.4848 -0.5335
  158SAPE  H13Y17638   4.060  -0.564   5.102 -0.2467 -0.1420  2.8273
  158SAPE  C31417639   3.931  -0.695   4.985 -0.2881 -0.4377 -0.4540
  158SAPE  H14X17640   3.845  -0.624   4.991  1.1150  1.2927 -0.0996
  158SAPE  H14Y17641   3.899  -0.800   5.002  1.7199 -1.0465 -0.1571
  158SAPE  C31517642   4.019  -0.700   4.860  0.0076 -0.2651 -0.1406
  158SAPE  H15X17643   3.970  -0.766   4.785 -0.2198 -0.1761 -0.0717
  158SAPE  H15Y17644   4.123  -0.728   4.889  1.4247  2.2980 -2.2912
  158SAPE  C31617645   4.042  -0.551   4.805  0.0596 -0.1393 -0.5455
  158SAPE  H16X17646   4.098  -0.494   4.882 -1.2977  0.4840  0.0271
  158SAPE  H16Y17647   3.941  -0.514   4.777 -1.2806 -1.6699  1.9373
  158SAPE  C31717648   4.128  -0.547   4.670 -0.7897  0.0658  0.1293
  158SAPE  H17X17649   4.084  -0.605   4.587  0.7054 -0.3866 -0.3772
  158SAPE  H17Y17650   4.217  -0.611   4.688 -1.0977 -1.0552 -1.9962
  158SAPE  C31817651   4.189  -0.418   4.623  0.5592 -0.1614 -0.0648
  158SAPE  H18X17652   4.246  -0.443   4.531  0.1422 -1.1825 -0.0630
  158SAPE  H18Y17653   4.253  -0.378   4.704  0.3607 -0.2573  0.1387
  158SAPE  H18Z17654   4.104  -0.351   4.600 -0.3099 -0.7876  1.2174
  159SAPE     N17655   0.613   6.031   2.642  0.1922 -0.0877  0.2205
  159SAPE   HN117656   0.520   6.040   2.688 -0.7589 -2.5026 -1.0176
  159SAPE   HN217657   0.607   6.093   2.559 -2.7511  1.6449  1.5836
  159SAPE   HN317658   0.633   5.931   2.622 -1.3409 -0.0754 -1.7123
  159SAPE   C1217659   0.729   6.080   2.730 -0.2324  0.2066  1.0896
  159SAPE  H12A17660   0.817   6.038   2.677 -1.5685 -1.0333 -0.2462
  159SAPE  H12B17661   0.719   6.038   2.833  2.4944 -3.4571  0.0666
  159SAPE   C1117662   0.726   6.231   2.743 -0.3079 -0.9032  0.0610
  159SAPE  H11A17663   0.627   6.261   2.783 -0.5016  0.2683 -1.2035
  159SAPE  H11B17664   0.727   6.282   2.644  3.6152  1.4075  1.0542
  159SAPE     P17665   0.837   6.428   2.893 -0.1446  0.0379  0.0329
  159SAPE   O1317666   0.908   6.517   2.800 -0.1990 -0.7054  0.2798
  159SAPE   O1417667   0.705   6.479   2.928 -0.2918  0.7728 -0.2752
  159SAPE   O1217668   0.832   6.279   2.824 -0.4299 -0.2081  0.0869
  159SAPE   O1117669   0.918   6.400   3.029 -0.6581 -0.2254  0.0353
  159SAPE    C117670   0.891   6.291   3.110  0.1716 -0.1653 -0.3430
  159SAPE    HA17671   0.789   6.253   3.087 -0.5515  2.4842 -2.0663
  159SAPE    HB17672   0.969   6.214   3.095  3.8276  3.2059 -0.1165
  159SAPE    C217673   0.880   6.316   3.262 -0.3565 -0.2315 -0.2341
  159SAPE    HS17674   0.778   6.353   3.287 -0.1481 -0.1100  0.4662
  159SAPE   O2117675   0.977   6.418   3.302  0.5895  0.4220  0.2785
  159SAPE   C2117676   0.939   6.547   3.270  0.1502  0.0678  1.1815
  159SAPE   O2217677   0.826   6.575   3.235 -0.0178  0.3589 -0.0526
  159SAPE   C2217678   1.053   6.648   3.299 -0.1130  0.3925 -0.3347
  159SAPE   H2R17679   1.149   6.593   3.313  0.3754  1.1790 -0.5154
  159SAPE   H2S17680   1.053   6.716   3.212  2.3820  0.7534 -0.1537
  159SAPE    C317681   0.891   6.185   3.340  0.1019  0.0495  0.4510
  159SAPE    HX17682   0.996   6.151   3.335 -0.3078 -1.1665 -0.5997
  159SAPE    HY17683   0.836   6.110   3.278 -0.6158 -1.1004  2.3932
  159SAPE   O3117684   0.840   6.194   3.479 -0.3647 -0.1712  0.3872
  159SAPE   C3117685   0.711   6.161   3.502 -0.5927 -0.6711  0.6262
  159SAPE   O3217686   0.631   6.114   3.422  0.3348 -0.1955  0.4455
  159SAPE   C3217687   0.681   6.196   3.642  0.1163  0.2334 -0.3028
  159SAPE   H2X17688   0.765   6.157   3.705  1.0117  1.8403 -0.4494
  159SAPE   H2Y17689   0.589   6.141   3.670  1.0499 -0.0540  2.5751
  159SAPE   C2317690   1.021   6.742   3.417 -0.0090 -0.2221 -0.2436
  159SAPE   H3R17691   0.947   6.815   3.379 -0.8251 -0.8697  0.0646
  159SAPE   H3S17692   1.110   6.806   3.437  1.1522 -2.3488  1.8463
  159SAPE   C2417693   0.995   6.678   3.549 -0.0319 -0.6989  0.5515
  159SAPE   H4R17694   1.086   6.618   3.572  0.8649  0.3140 -0.2599
  159SAPE   H4S17695   0.913   6.605   3.537  0.3824 -0.8684 -1.7548
  159SAPE   C2517696   0.966   6.777   3.662 -0.2552  0.0915 -0.3435
  159SAPE   H5R17697   0.961   6.882   3.631 -1.0257  0.5388  1.1920
  159SAPE   C2617698   0.914   6.745   3.784 -0.4609 -0.0303  0.2675
  159SAPE   H6R17699   0.902   6.831   3.852 -3.0699 -0.5095  0.5131
  159SAPE   C2717700   0.880   6.610   3.838  0.3371 -0.4292  0.1701
  159SAPE   H7R17701   0.957   6.544   3.792 -0.2280  0.2812 -1.9290
  159SAPE   H7S17702   0.789   6.572   3.785  0.3428 -2.2192  1.3685
  159SAPE   C2817703   0.880   6.604   3.992 -0.4542  0.2771 -0.4788
  159SAPE   H8R17704   0.984   6.621   4.021  0.2878 -1.0093 -2.1901
  159SAPE   C2917705   0.782   6.582   4.082 -0.3830 -0.0854 -0.3464
  159SAPE   H9R17706   0.805   6.578   4.190 -0.9977  3.4390  0.0595
  159SAPE  C21017707   0.638   6.564   4.037  0.4788  0.2866  0.6482
  159SAPE  H10R17708   0.629   6.594   3.930 -0.2534 -1.6466  0.1246
  159SAPE  H10S17709   0.564   6.635   4.081 -1.4432 -0.9677 -0.3997
  159SAPE  C21117710   0.577   6.423   4.043  0.6971 -0.2989 -0.0079
  159SAPE  H11R17711   0.635   6.344   4.095  0.5160  0.2759  1.0871
  159SAPE  C21217712   0.450   6.391   4.012 -0.1569 -0.3360 -0.3915
  159SAPE  H12R17713   0.420   6.285   4.016 -2.8106  0.3963  0.8855
  159SAPE  C21317714   0.340   6.480   3.969  0.8718  0.3777  0.6779
  159SAPE  H13R17715   0.295   6.456   3.870  0.2545 -0.4381  1.1503
  159SAPE  H13S17716   0.375   6.586   3.961  1.0077  0.2872 -0.0281
  159SAPE  C21417717   0.233   6.483   4.074 -0.7445 -0.2806 -0.0882
  159SAPE  H14R17718   0.275   6.494   4.175  3.0176 -0.6545 -1.4549
  159SAPE  C21517719   0.105   6.441   4.071  0.0281  0.5704  0.3903
  159SAPE  H15R17720   0.056   6.438   4.170  0.1762 -0.5372  0.4412
  159SAPE  C21617721   0.007   6.395   3.959  0.0153  0.1822 -0.4638
  159SAPE  H16R17722  -0.003   6.285   3.960  1.6416 -0.0072 -1.4351
  159SAPE  H16S17723   0.056   6.412   3.861 -2.2250 -2.3133 -2.1589
  159SAPE  C21717724  -0.123   6.482   3.970 -0.1536  0.1426  0.0445
  159SAPE  H17R17725  -0.093   6.587   3.991 -2.3847  0.5951  1.3097
  159SAPE  H17S17726  -0.184   6.454   4.059  0.9352 -0.2346  0.6845
  159SAPE  C21817727  -0.199   6.481   3.836 -0.2241 -0.8840  0.2879
  159SAPE  H18R17728  -0.151   6.432   3.749  0.2651 -0.9344  0.5788
  159SAPE  H18S17729  -0.218   6.588   3.816  3.9017  0.4415  2.2335
  159SAPE  C21917730  -0.331   6.404   3.845 -0.0834 -0.3600  0.2978
  159SAPE  H19R17731  -0.377   6.438   3.940  1.6769  0.1951  0.9904
  159SAPE  H19S17732  -0.301   6.298   3.859  3.0973  0.2920 -0.7533
  159SAPE  C22017733  -0.425   6.406   3.718 -0.3278  0.3998  0.0016
  159SAPE  H20R17734  -0.404   6.325   3.646  2.4208  0.4827  0.6206
  159SAPE  H20S17735  -0.416   6.499   3.659  0.4078 -0.4819 -1.3322
  159SAPE  H20T17736  -0.529   6.393   3.756 -0.1284 -3.9398 -0.3761
  159SAPE   C3317737   0.666   6.349   3.651  0.0719  0.2010 -0.4994
  159SAPE   H3X17738   0.753   6.399   3.603  0.7772 -0.3294  0.1873
  159SAPE   H3Y17739   0.659   6.381   3.757  0.0128  0.6492 -0.6395
  159SAPE   C3417740   0.531   6.382   3.600 -0.1095  0.2534  0.4226
  159SAPE   H4X17741   0.460   6.324   3.661  0.9233 -0.8495  0.6063
  159SAPE   H4Y17742   0.514   6.357   3.493  1.4934  0.0833  0.1842
  159SAPE   C3517743   0.494   6.528   3.617 -0.0137  0.2244 -0.9029
  159SAPE   H5X17744   0.508   6.544   3.726  0.5457  1.0553 -1.0879
  159SAPE   H5Y17745   0.385   6.544   3.602 -0.2665 -0.0168  0.5315
  159SAPE   C3617746   0.569   6.622   3.526  0.3794 -0.0162  0.2724
  159SAPE   H6X17747   0.516   6.618   3.428  2.1104 -1.0649 -0.6692
  159SAPE   H6Y17748   0.677   6.607   3.509  0.6256  2.2964 -0.5390
  159SAPE   C3717749   0.569   6.763   3.581  0.0791  0.0819 -0.4444
  159SAPE   H7X17750   0.623   6.761   3.679 -0.2508 -0.6913 -0.2741
  159SAPE   H7Y17751   0.466   6.797   3.607 -1.1515 -2.3086 -1.8818
  159SAPE   C3817752   0.627   6.867   3.481 -0.1919  0.4978 -0.4222
  159SAPE   H8X17753   0.569   6.874   3.386 -0.6286  1.6973 -0.0884
  159SAPE   H8Y17754   0.726   6.830   3.450 -0.0058  0.3750  0.2950
  159SAPE   C3917755   0.626   7.001   3.560  0.4012  0.3882 -0.4657
  159SAPE   H9X17756   0.677   6.984   3.657 -1.4374  1.2650  0.7055
  159SAPE   H9Y17757   0.519   7.023   3.581 -0.1703 -1.4501 -1.1821
  159SAPE  C31017758   0.686   7.122   3.481  0.1962  0.6446  0.1830
  159SAPE  H10X17759   0.655   7.218   3.529 -1.5588  0.7648 -1.0819
  159SAPE  H10Y17760   0.651   7.132   3.376  0.2241 -1.5828 -0.0796
  159SAPE  C31117761   0.839   7.102   3.479 -0.2816  0.1542 -0.7548
  159SAPE  H11X17762   0.859   6.998   3.444  1.4596  0.8578 -1.9815
  159SAPE  H11Y17763   0.889   7.117   3.577 -0.0076  0.4171 -0.9344
  159SAPE  C31217764   0.888   7.220   3.391  0.1088  0.1934 -0.0153
  159SAPE  H12X17765   0.845   7.308   3.444 -0.5563  0.3923 -0.8607
  159SAPE  H12Y17766   0.847   7.211   3.288  1.9439  0.6758 -0.8394
  159SAPE  C31317767   1.041   7.229   3.381  0.0865 -0.2779 -0.4144
  159SAPE  H13X17768   1.084   7.164   3.301 -0.9454 -0.3134 -0.9599
  159SAPE  H13Y17769   1.103   7.214   3.472  1.9476 -2.9895 -1.9860
  159SAPE  C31417770   1.092   7.365   3.315 -0.4103  0.4544  0.4193
  159SAPE  H14X17771   1.081   7.452   3.384  0.9637  1.3941 -0.4951
  159SAPE  H14Y17772   1.030   7.396   3.229  0.4667  0.9107 -0.0620
  159SAPE  C31517773   1.249   7.360   3.275 -0.2586 -0.1239 -0.2735
  159SAPE  H15X17774   1.268   7.461   3.233  0.1398 -0.8279 -1.8474
  159SAPE  H15Y17775   1.261   7.296   3.185  2.0260  1.3541 -1.1048
  159SAPE  C31617776   1.338   7.314   3.396  0.9270  0.0706 -0.4471
  159SAPE  H16X17777   1.298   7.212   3.417 -0.5186  0.4109 -1.3754
  159SAPE  H16Y17778   1.318   7.376   3.486 -3.0830  0.9480 -1.7509
  159SAPE  C31717779   1.489   7.306   3.379 -0.1773 -0.2635 -0.4729
  159SAPE  H17X17780   1.526   7.255   3.471 -0.5861  0.6495  0.2118
  159SAPE  H17Y17781   1.536   7.406   3.391  1.3685 -0.8841 -1.0721
  159SAPE  C31817782   1.544   7.243   3.252 -0.2794  0.9196 -0.2720
  159SAPE  H18X17783   1.543   7.132   3.251 -1.3658  0.9305 -0.7066
  159SAPE  H18Y17784   1.652   7.271   3.255 -1.1196  4.9984 -1.7914
  159SAPE  H18Z17785   1.498   7.284   3.160 -2.8348  0.2317  0.6160
  160SAPE     N17786   0.436   4.781   2.648  0.6885 -0.3526  0.5999
  160SAPE   HN117787   0.400   4.692   2.689  0.6650 -0.6852 -0.1252
  160SAPE   HN217788   0.430   4.751   2.549 -0.7051 -1.0838  0.8769
  160SAPE   HN317789   0.532   4.784   2.688  0.2874  0.4210  1.5555
  160SAPE   C1217790   0.338   4.892   2.672 -0.1457 -0.6032  0.0864
  160SAPE  H12A17791   0.352   4.960   2.586 -0.7037  0.8308  1.0992
  160SAPE  H12B17792   0.375   4.934   2.769 -0.3433  1.1590 -0.5644
  160SAPE   C1117793   0.190   4.848   2.693 -0.2048  0.1708  0.8356
  160SAPE  H11A17794   0.122   4.935   2.706  0.7329  0.8809  1.0659
  160SAPE  H11B17795   0.188   4.787   2.786 -0.9077 -0.4790  0.4043
  160SAPE     P17796   0.030   4.799   2.495  0.1484  0.3478  0.3780
  160SAPE   O1317797   0.038   4.946   2.465  0.0718 -0.1577 -0.0462
  160SAPE   O1417798   0.016   4.700   2.384  0.2333  0.2522 -0.0020
  160SAPE   O1217799   0.152   4.760   2.585  0.3211 -0.7762 -0.8138
  160SAPE   O1117800  -0.086   4.775   2.601  0.4214 -0.0162  0.7043
  160SAPE    C117801  -0.117   4.651   2.664  0.4917 -0.4413  0.4336
  160SAPE    HA17802  -0.168   4.585   2.591  0.7040  1.0422 -1.1126
  160SAPE    HB17803  -0.028   4.601   2.708  1.4838  0.8816 -0.0012
  160SAPE    C217804  -0.217   4.688   2.774  0.2015 -0.5940  0.6069
  160SAPE    HS17805  -0.296   4.753   2.730 -0.4535 -0.0634  2.4442
  160SAPE   O2117806  -0.162   4.756   2.882  0.3326  0.1078  0.0168
  160SAPE   C2117807  -0.137   4.888   2.882  0.0816 -0.0918  0.8810
  160SAPE   O2217808  -0.179   4.968   2.796 -0.1073 -0.4803 -0.1324
  160SAPE   C2217809  -0.042   4.902   2.999  0.4382  0.0882  0.6417
  160SAPE   H2R17810  -0.025   4.805   3.050  0.9264 -0.0818  0.1643
  160SAPE   H2S17811   0.054   4.924   2.947  0.1394 -0.6447 -0.2568
  160SAPE    C317812  -0.297   4.562   2.818 -0.1191  0.0570 -0.4376
  160SAPE    HX17813  -0.225   4.487   2.857 -1.9886 -2.1078 -0.9377
  160SAPE    HY17814  -0.339   4.521   2.723 -0.9744  3.2054 -1.5385
  160SAPE   O3117815  -0.380   4.601   2.924 -0.1287 -0.4218 -0.0136
  160SAPE   C3117816  -0.503   4.623   2.890 -0.0776 -0.3998  0.3373
  160SAPE   O3217817  -0.550   4.647   2.780  0.1499 -0.8219  0.2829
  160SAPE   C3217818  -0.591   4.634   3.010  0.5002  0.8040  0.5853
  160SAPE   H2X17819  -0.609   4.532   3.051  1.1288 -0.5889 -2.3571
  160SAPE   H2Y17820  -0.694   4.671   2.991 -0.5979 -1.8776  0.9011
  160SAPE   C2317821  -0.083   5.009   3.111 -0.2475  0.3735  0.0389
  160SAPE   H3R17822  -0.089   5.106   3.057  0.9780  0.9707  0.9258
  160SAPE   H3S17823  -0.003   5.019   3.188 -1.5642 -0.5721  1.5846
  160SAPE   C2417824  -0.215   4.981   3.175  0.3157 -0.2231  0.5450
  160SAPE   H4R17825  -0.296   4.984   3.099  0.2720  1.7024  0.6075
  160SAPE   H4S17826  -0.235   5.061   3.249  0.8268  1.1020 -0.7030
  160SAPE   C2517827  -0.214   4.848   3.239  0.1517  0.5997 -0.4245
  160SAPE   H5R17828  -0.249   4.771   3.168  2.2410 -1.9736  1.1405
  160SAPE   C2617829  -0.173   4.809   3.362  0.4078  0.5110  0.2602
  160SAPE   H6R17830  -0.213   4.708   3.382 -0.8871  0.5361 -1.9393
  160SAPE   C2717831  -0.126   4.900   3.475 -0.1999  0.6983  0.2718
  160SAPE   H7R17832  -0.216   4.939   3.527 -1.2054  0.4221 -1.2189
  160SAPE   H7S17833  -0.080   4.991   3.430 -0.5233 -0.0172 -1.5584
  160SAPE   C2817834  -0.033   4.833   3.575  0.8898 -0.0658 -0.3263
  160SAPE   H8R17835   0.074   4.855   3.562  0.9946 -0.4426 -0.1030
  160SAPE   C2917836  -0.076   4.775   3.687 -0.0355 -0.3798 -0.2375
  160SAPE   H9R17837  -0.002   4.742   3.762 -1.3433 -1.3651  0.6651
  160SAPE  C21017838  -0.217   4.755   3.743 -0.4969  0.8730  0.3217
  160SAPE  H10R17839  -0.232   4.648   3.770 -0.3167 -0.1316 -3.0188
  160SAPE  H10S17840  -0.289   4.751   3.658  2.2480 -1.8165 -2.1424
  160SAPE  C21117841  -0.256   4.840   3.857 -0.4117  0.6169  0.2552
  160SAPE  H11R17842  -0.332   4.917   3.835 -0.4250  0.4757 -0.2055
  160SAPE  C21217843  -0.235   4.819   3.988  0.1330 -0.0077  0.2531
  160SAPE  H12R17844  -0.286   4.887   4.058  0.6158  0.7084 -0.0751
  160SAPE  C21317845  -0.143   4.717   4.057 -0.0338  0.3073  0.4477
  160SAPE  H13R17846  -0.140   4.622   4.001  0.1942  0.5149  0.1011
  160SAPE  H13S17847  -0.182   4.690   4.158  0.6713 -0.9397  0.4050
  160SAPE  C21417848   0.002   4.766   4.071 -0.6009  0.7668  1.0356
  160SAPE  H14R17849   0.075   4.730   3.997  0.1686 -0.7130  2.4570
  160SAPE  C21517850   0.050   4.822   4.180 -0.2749  0.6448  0.2073
  160SAPE  H15R17851   0.155   4.853   4.171  0.0725 -0.2638  0.9099
  160SAPE  C21617852  -0.021   4.849   4.305 -0.1362  0.0715 -0.0591
  160SAPE  H16R17853  -0.114   4.789   4.309  0.3361 -0.6374  1.0062
  160SAPE  H16S17854  -0.043   4.958   4.313  0.1605  0.0272  4.3929
  160SAPE  C21717855   0.065   4.796   4.419  0.1911 -0.1052  0.3885
  160SAPE  H17R17856   0.081   4.686   4.413 -0.7924 -0.2858  0.8654
  160SAPE  H17S17857  -0.001   4.812   4.507  0.5719  0.1105  0.6392
  160SAPE  C21817858   0.194   4.865   4.442 -0.7009  0.6795  0.2686
  160SAPE  H18R17859   0.268   4.836   4.364  0.2091 -1.4830  1.8251
  160SAPE  H18S17860   0.254   4.816   4.522  1.8551  0.3283 -1.7127
  160SAPE  C21917861   0.189   5.017   4.465 -0.7759  0.2309  0.2078
  160SAPE  H19R17862   0.142   5.038   4.563  0.6496 -0.3832  1.0476
  160SAPE  H19S17863   0.127   5.054   4.381  0.6469  1.1352 -0.4927
  160SAPE  C22017864   0.332   5.075   4.466  0.9199  0.0124 -0.2020
  160SAPE  H20R17865   0.342   5.185   4.450  1.1474  0.0894  0.4275
  160SAPE  H20S17866   0.402   5.008   4.413  0.9809 -0.3331  0.3067
  160SAPE  H20T17867   0.368   5.062   4.571 -1.4702  1.4244  0.8871
  160SAPE   C3317868  -0.531   4.724   3.123 -0.2665 -0.2618 -0.3109
  160SAPE   H3X17869  -0.478   4.814   3.085  1.3028 -1.0965 -0.1713
  160SAPE   H3Y17870  -0.461   4.665   3.186  1.4598  1.8934 -0.0651
  160SAPE   C3417871  -0.642   4.785   3.216 -0.5327  0.0651 -0.6236
  160SAPE   H4X17872  -0.708   4.846   3.152 -0.5796  0.5011 -0.1666
  160SAPE   H4Y17873  -0.586   4.855   3.282  3.6069 -0.9408 -2.7257
  160SAPE   C3517874  -0.730   4.677   3.282  0.7382  0.1788  0.3631
  160SAPE   H5X17875  -0.667   4.612   3.347 -1.3968 -0.7795  1.5843
  160SAPE   H5Y17876  -0.778   4.619   3.200  2.1325 -1.5090  0.6852
  160SAPE   C3617877  -0.821   4.752   3.373  0.7260 -0.3556  0.5509
  160SAPE   H6X17878  -0.878   4.824   3.310  2.0873 -2.1605 -2.9840
  160SAPE   H6Y17879  -0.762   4.800   3.454  1.1880 -1.5498  0.9462
  160SAPE   C3717880  -0.912   4.660   3.452  0.0955  0.1066 -0.6753
  160SAPE   H7X17881  -0.861   4.565   3.475  0.6738  0.3397 -0.9716
  160SAPE   H7Y17882  -0.997   4.624   3.391 -0.6022  0.4709  0.0493
  160SAPE   C3817883  -0.947   4.725   3.589 -0.4013  0.6010 -0.5551
  160SAPE   H8X17884  -1.016   4.806   3.555 -1.0606  0.0192 -0.6255
  160SAPE   H8Y17885  -0.860   4.765   3.646 -0.0004 -1.9845  0.7606
  160SAPE   C3917886  -1.030   4.636   3.683 -0.1078  0.0182 -0.3844
  160SAPE   H9X17887  -0.966   4.548   3.705 -1.8621 -1.5141 -1.1586
  160SAPE   H9Y17888  -1.118   4.595   3.629  0.3576 -1.9748  0.2499
  160SAPE  C31017889  -1.071   4.711   3.812  0.2099  0.4508 -0.3034
  160SAPE  H10X17890  -1.134   4.792   3.770 -0.3870 -0.6637 -1.6344
  160SAPE  H10Y17891  -0.974   4.743   3.857 -0.4226 -1.0005  2.2762
  160SAPE  C31117892  -1.157   4.638   3.909  0.1823  0.1410 -0.4287
  160SAPE  H11X17893  -1.106   4.540   3.924  0.1356 -0.0615 -1.5066
  160SAPE  H11Y17894  -1.261   4.625   3.873  0.6891 -1.4365 -1.4221
  160SAPE  C31217895  -1.156   4.718   4.040 -0.1595  0.9219  0.1099
  160SAPE  H12X17896  -1.202   4.819   4.031 -1.6011  0.3737  0.9964
  160SAPE  H12Y17897  -1.049   4.734   4.065  1.2379 -2.3724 -2.9157
  160SAPE  C31317898  -1.223   4.639   4.152  0.1597 -0.2209 -0.5994
  160SAPE  H13X17899  -1.219   4.703   4.243  1.6652 -0.5610 -0.3971
  160SAPE  H13Y17900  -1.176   4.543   4.184 -1.9745 -0.5035  2.1497
  160SAPE  C31417901  -1.375   4.600   4.122 -0.2814 -0.1565 -0.7397
  160SAPE  H14X17902  -1.370   4.509   4.059 -0.3299 -0.0640 -0.8784
  160SAPE  H14Y17903  -1.415   4.678   4.053 -1.7985 -2.9610 -3.2626
  160SAPE  C31517904  -1.458   4.582   4.244  0.0006 -0.0011 -0.0890
  160SAPE  H15X17905  -1.563   4.556   4.219  1.0036 -3.0365 -1.6729
  160SAPE  H15Y17906  -1.457   4.680   4.296 -1.3350  0.7422 -1.4102
  160SAPE  C31617907  -1.405   4.466   4.332  0.2662 -0.1807 -0.0169
  160SAPE  H16X17908  -1.325   4.510   4.395 -1.1272  0.1346  1.6086
  160SAPE  H16Y17909  -1.362   4.376   4.283 -0.5764 -0.7931  0.3519
  160SAPE  C31717910  -1.514   4.431   4.434 -0.6153 -0.0165 -0.3452
  160SAPE  H17X17911  -1.602   4.412   4.368 -1.2061 -0.4024  0.5407
  160SAPE  H17Y17912  -1.537   4.514   4.504  2.3446 -0.9016  1.8592
  160SAPE  C31817913  -1.490   4.301   4.511  0.2831  0.0612  0.3405
  160SAPE  H18X17914  -1.417   4.314   4.593  0.7657  0.9646 -0.2099
  160SAPE  H18Y17915  -1.455   4.221   4.441 -0.9464 -1.2628  1.2008
  160SAPE  H18Z17916  -1.581   4.254   4.552  0.3430 -0.3705 -0.0154
  161SAPE     N17917   5.471   0.005   2.592 -0.0544 -0.5575 -0.6135
  161SAPE   HN117918   5.518   0.055   2.513 -0.0298  2.6468  1.2560
  161SAPE   HN217919   5.544  -0.021   2.661  1.1464  0.4678 -1.4313
  161SAPE   HN317920   5.408  -0.075   2.575 -2.2081  0.9766 -0.3719
  161SAPE   C1217921   5.382   0.116   2.646 -0.4173 -0.1169  0.4758
  161SAPE  H12A17922   5.441   0.200   2.689 -0.4326  1.3149 -2.1144
  161SAPE  H12B17923   5.313   0.076   2.723 -1.1786 -2.2557 -1.2032
  161SAPE   C1117924   5.284   0.170   2.538 -0.3956 -0.1808 -1.1981
  161SAPE  H11A17925   5.223   0.246   2.591  0.2134 -0.8797  0.6074
  161SAPE  H11B17926   5.223   0.085   2.502 -0.3581  0.0744 -1.8763
  161SAPE     P17927   5.330   0.332   2.336 -0.2673 -0.2771 -0.0606
  161SAPE   O1317928   5.448   0.362   2.250  0.2420  0.6589  0.2507
  161SAPE   O1417929   5.197   0.303   2.268 -0.1413 -0.8254 -0.0359
  161SAPE   O1217930   5.365   0.213   2.434 -0.9191 -0.3292  0.3608
  161SAPE   O1117931   5.298   0.449   2.426 -0.0243 -1.0087 -0.1186
  161SAPE    C117932   5.357   0.524   2.530 -0.0200 -0.2272  0.1721
  161SAPE    HA17933   5.455   0.480   2.560 -0.9338 -0.8914  2.3909
  161SAPE    HB17934   5.370   0.625   2.484 -2.6639  0.9610  1.7698
  161SAPE    C217935   5.264   0.544   2.650 -0.0257  0.4224 -0.1961
  161SAPE    HS17936   5.311   0.632   2.700  1.0064  0.1664 -0.6868
  161SAPE   O2117937   5.259   0.429   2.734 -0.1258  0.0625 -0.1594
  161SAPE   C2117938   5.259   0.458   2.859  0.1834 -0.1776  0.0551
  161SAPE   O2217939   5.288   0.566   2.906 -0.2589 -0.5003  0.0460
  161SAPE   C2217940   5.238   0.327   2.938 -0.0824  1.1460 -0.2278
  161SAPE   H2R17941   5.129   0.326   2.962 -0.3223  0.9762 -1.2406
  161SAPE   H2S17942   5.262   0.233   2.883  1.5506  1.7668 -0.6403
  161SAPE    C317943   5.118   0.588   2.610  0.3565  0.0955  0.4154
  161SAPE    HX17944   5.069   0.494   2.577  0.3683  1.4313 -4.1372
  161SAPE    HY17945   5.117   0.654   2.520 -1.3710 -1.2708 -0.6280
  161SAPE   O3117946   5.037   0.627   2.724  0.1349  0.1384 -0.8736
  161SAPE   C3117947   5.049   0.755   2.750 -0.4635 -0.6365  0.6502
  161SAPE   O3217948   5.107   0.840   2.681  0.5622  0.5102 -0.2160
  161SAPE   C3217949   4.966   0.796   2.872  0.7274  0.6204 -1.1649
  161SAPE   H2X17950   4.860   0.769   2.848 -0.5356  2.8489  1.4305
  161SAPE   H2Y17951   4.965   0.907   2.878 -1.6619  0.6489 -0.8639
  161SAPE   C2317952   5.312   0.312   3.074 -0.1181 -0.4977  0.4407
  161SAPE   H3R17953   5.419   0.342   3.063 -0.0449 -1.4027 -2.1657
  161SAPE   H3S17954   5.309   0.205   3.105  2.0505 -1.2223 -1.5293
  161SAPE   C2417955   5.257   0.396   3.184 -0.4894  0.1177 -0.6802
  161SAPE   H4R17956   5.152   0.363   3.201 -1.2639  1.9148 -1.6781
  161SAPE   H4S17957   5.253   0.500   3.144  0.6899 -0.6998 -3.1285
  161SAPE   C2517958   5.343   0.395   3.305  0.2138  1.2016  0.1704
  161SAPE   H5R17959   5.434   0.454   3.283  1.4794 -0.8219 -0.2372
  161SAPE   C2617960   5.323   0.321   3.410 -0.6064 -0.0852 -0.1481
  161SAPE   H6R17961   5.405   0.328   3.483 -0.4085  0.9161 -0.4476
  161SAPE   C2717962   5.206   0.220   3.437  0.0399 -0.2760 -0.4703
  161SAPE   H7R17963   5.255   0.126   3.469 -0.0241 -0.0048  0.4622
  161SAPE   H7S17964   5.143   0.203   3.347 -0.5742 -0.2672 -0.0498
  161SAPE   C2817965   5.117   0.287   3.536  1.1605 -0.0637 -0.6414
  161SAPE   H8R17966   5.114   0.397   3.539 -3.6383  0.0089  1.5074
  161SAPE   C2917967   5.054   0.227   3.642 -0.5229  0.0079  0.6295
  161SAPE   H9R17968   5.005   0.294   3.715  0.6549 -0.1179  1.5561
  161SAPE  C21017969   5.040   0.073   3.676 -0.8255  0.1866 -0.2581
  161SAPE  H10R17970   5.109   0.042   3.756 -0.7628 -0.2546 -0.4795
  161SAPE  H10S17971   5.070   0.014   3.587  0.4528 -0.8566  0.8299
  161SAPE  C21117972   4.896   0.052   3.704 -0.1320 -0.0392  0.1272
  161SAPE  H11R17973   4.836   0.033   3.613 -1.1695  0.1677  0.7445
  161SAPE  C21217974   4.838   0.024   3.818 -0.2798 -0.0230 -0.4508
  161SAPE  H12R17975   4.730   0.005   3.820 -0.2952 -0.1053  2.3762
  161SAPE  C21317976   4.903   0.017   3.952 -0.3258  0.1116 -1.2716
  161SAPE  H13R17977   4.900   0.123   3.986  0.7918 -0.3727  0.5223
  161SAPE  H13S17978   5.009  -0.017   3.944 -0.1683  0.7161 -1.7365
  161SAPE  C21417979   4.827  -0.060   4.057 -0.4552 -0.6014 -0.2602
  161SAPE  H14R17980   4.737  -0.112   4.020 -1.9930  1.1139  0.9159
  161SAPE  C21517981   4.854  -0.054   4.192 -0.2850  0.9826  1.5030
  161SAPE  H15R17982   4.793  -0.110   4.264  0.7337 -2.9080 -0.3841
  161SAPE  C21617983   4.969   0.022   4.246  0.1418 -0.4647 -0.0216
  161SAPE  H16R17984   4.934   0.128   4.241 -0.2860 -0.6242 -0.5092
  161SAPE  H16S17985   5.056   0.010   4.178  0.6699 -0.8727  0.7222
  161SAPE  C21717986   4.996  -0.013   4.390 -0.2488  0.2030  0.2932
  161SAPE  H17R17987   4.907  -0.046   4.447  0.2465 -2.6310 -0.4408
  161SAPE  H17S17988   5.040   0.068   4.453 -0.1654 -0.0743  0.5946
  161SAPE  C21817989   5.101  -0.127   4.407  0.1823  0.4696  0.0326
  161SAPE  H18R17990   5.198  -0.091   4.366 -0.5010  1.1419 -1.0153
  161SAPE  H18S17991   5.061  -0.216   4.355  4.0465 -0.5866 -1.5158
  161SAPE  C21917992   5.123  -0.153   4.557 -0.3567 -0.4372  0.5028
  161SAPE  H19R17993   5.030  -0.181   4.611 -1.3505  0.7226 -0.5273
  161SAPE  H19S17994   5.161  -0.058   4.601  0.2138  0.0746 -1.0187
  161SAPE  C22017995   5.237  -0.253   4.577  0.4772  0.9669  0.6000
  161SAPE  H20R17996   5.334  -0.220   4.535  1.6533 -3.2695 -0.5211
  161SAPE  H20S17997   5.201  -0.346   4.527 -2.5846  2.9638 -1.2470
  161SAPE  H20T17998   5.248  -0.264   4.687  0.8511  1.8414  0.6572
  161SAPE   C3317999   5.015   0.733   3.005 -0.6905 -0.0713  0.3685
  161SAPE   H3X18000   5.121   0.760   3.026 -0.1015 -2.3223  0.5263
  161SAPE   H3Y18001   5.015   0.622   2.996  2.2012 -0.1937  1.0348
  161SAPE   C3418002   4.937   0.776   3.128  0.3623  0.0261 -0.1928
  161SAPE   H4X18003   4.856   0.704   3.149 -0.1891  0.0107 -2.1677
  161SAPE   H4Y18004   4.895   0.878   3.116  0.0212  0.4399  3.4863
  161SAPE   C3518005   5.023   0.778   3.255  0.0987 -0.1776 -0.1626
  161SAPE   H5X18006   5.098   0.859   3.246 -1.0057  0.8454 -0.4995
  161SAPE   H5Y18007   5.085   0.688   3.274 -1.3358 -1.6638 -2.0753
  161SAPE   C3618008   4.933   0.795   3.379  0.0609 -0.8079 -0.0444
  161SAPE   H6X18009   4.866   0.706   3.381 -0.1605 -0.7439 -2.3343
  161SAPE   H6Y18010   4.866   0.884   3.372  1.4486  0.1214 -2.7674
  161SAPE   C3718011   5.014   0.811   3.515 -0.2429  0.1099  0.1261
  161SAPE   H7X18012   5.058   0.912   3.500 -1.1531  0.7979  1.8821
  161SAPE   H7Y18013   5.104   0.745   3.514 -1.8539 -2.2000  1.3111
  161SAPE   C3818014   4.930   0.826   3.641  0.0822 -0.7092 -0.5295
  161SAPE   H8X18015   4.850   0.902   3.624  0.4121 -0.2932 -0.2513
  161SAPE   H8Y18016   4.989   0.850   3.732  1.2712 -1.0253 -1.2030
  161SAPE   C3918017   4.870   0.689   3.677  0.2391 -0.0122 -0.6053
  161SAPE   H9X18018   4.950   0.612   3.684 -1.0425 -1.3365 -0.0361
  161SAPE   H9Y18019   4.812   0.667   3.586 -2.4867  1.7950  0.5705
  161SAPE  C31018020   4.773   0.692   3.795 -0.5874  0.8202  0.6754
  161SAPE  H10X18021   4.697   0.613   3.779 -1.8023  1.9343  0.7385
  161SAPE  H10Y18022   4.714   0.787   3.794  0.2866  1.3695  0.6098
  161SAPE  C31118023   4.837   0.694   3.936 -0.4448  0.1608 -0.6338
  161SAPE  H11X18024   4.908   0.777   3.958 -0.6992  0.0434  0.7322
  161SAPE  H11Y18025   4.887   0.599   3.963 -2.7509 -0.7023  0.8762
  161SAPE  C31218026   4.726   0.706   4.044  0.6815  0.5702 -0.4847
  161SAPE  H12X18027   4.654   0.629   4.012  0.0865  1.6630 -1.8876
  161SAPE  H12Y18028   4.676   0.806   4.043  2.6539  1.6196 -0.3484
  161SAPE  C31318029   4.775   0.690   4.190 -0.2570  0.2385  0.3708
  161SAPE  H13X18030   4.844   0.777   4.198 -0.9324  0.8241 -0.0548
  161SAPE  H13Y18031   4.839   0.602   4.210  0.7911  1.0224  0.6084
  161SAPE  C31418032   4.663   0.712   4.290 -0.3620  0.7696 -0.2856
  161SAPE  H14X18033   4.592   0.641   4.242 -0.3222  1.2997 -1.1444
  161SAPE  H14Y18034   4.636   0.819   4.292 -1.5447  0.5151 -1.4269
  161SAPE  C31518035   4.705   0.663   4.434 -0.2017 -0.4104 -0.1028
  161SAPE  H15X18036   4.807   0.701   4.456 -0.4024 -0.9239  1.9137
  161SAPE  H15Y18037   4.728   0.555   4.422  1.9217 -0.1942  1.4920
  161SAPE  C31618038   4.610   0.712   4.546  0.1158  0.0126  0.3597
  161SAPE  H16X18039   4.506   0.675   4.533 -0.0518  0.6122 -0.0509
  161SAPE  H16Y18040   4.604   0.822   4.560  0.4567 -0.1407  1.7979
  161SAPE  C31718041   4.655   0.645   4.675 -0.1419  0.1559  0.0850
  161SAPE  H17X18042   4.754   0.693   4.690 -0.7585  2.9036 -3.3679
  161SAPE  H17Y18043   4.673   0.537   4.657  0.9554  0.2801  0.3778
  161SAPE  C31818044   4.551   0.664   4.784  0.1345  0.1814  0.7046
  161SAPE  H18X18045   4.463   0.598   4.767  0.2457  0.5269 -1.5057
  161SAPE  H18Y18046   4.514   0.769   4.774  0.0010 -0.0344 -1.3546
  161SAPE  H18Z18047   4.589   0.646   4.887 -0.6578  0.5877  1.0840
  162SAPE     N18048   6.003   3.384   1.976  0.4401  0.0417  0.1682
  162SAPE   HN118049   6.027   3.418   1.880 -4.4576 -1.0271 -1.7761
  162SAPE   HN218050   6.093   3.380   2.027  0.0152  0.8416  1.0043
  162SAPE   HN318051   5.963   3.288   1.972  1.5959 -0.4364 -0.4650
  162SAPE   C1218052   5.913   3.491   2.039  0.1771  0.0633 -0.1201
  162SAPE  H12A18053   5.813   3.484   1.993 -0.8912 -3.2075  2.3706
  162SAPE  H12B18054   5.962   3.590   2.025  1.1613 -0.4265 -0.2558
  162SAPE   C1118055   5.891   3.471   2.198 -0.3707 -0.1876  0.0380
  162SAPE  H11A18056   5.821   3.549   2.234  0.6131  1.9916 -2.4793
  162SAPE  H11B18057   5.986   3.486   2.255 -0.7771 -0.0943  0.7064
  162SAPE     P18058   5.697   3.289   2.238 -0.1760 -0.0235  0.1209
  162SAPE   O1318059   5.610   3.377   2.157  0.3772 -0.3459  0.5651
  162SAPE   O1418060   5.697   3.141   2.209  0.0073 -0.1535  0.3508
  162SAPE   O1218061   5.846   3.340   2.225 -0.0455  0.4466  0.4503
  162SAPE   O1118062   5.667   3.312   2.391  0.5722  0.3352  0.0131
  162SAPE    C118063   5.730   3.227   2.484  0.1538  0.5783 -1.1727
  162SAPE    HA18064   5.702   3.123   2.459 -0.4503  1.1809 -3.2620
  162SAPE    HB18065   5.841   3.238   2.489  0.1762  0.4219 -1.3265
  162SAPE    C218066   5.670   3.244   2.630  0.4877  0.2365 -0.0454
  162SAPE    HS18067   5.715   3.164   2.693 -3.3855 -0.8772  1.6090
  162SAPE   O2118068   5.522   3.234   2.628  0.2083 -0.2053  0.2580
  162SAPE   C2118069   5.475   3.170   2.733 -0.5812  0.7647  0.3490
  162SAPE   O2218070   5.542   3.097   2.810  0.5039  0.6225 -0.5749
  162SAPE   C2218071   5.328   3.187   2.746  0.8433 -0.2471 -0.2281
  162SAPE   H2R18072   5.293   3.205   2.642  0.6753  3.1503  0.3077
  162SAPE   H2S18073   5.280   3.097   2.790 -0.1415  1.4759  2.4452
  162SAPE    C318074   5.713   3.381   2.689  0.2092 -0.8394 -0.4622
  162SAPE    HX18075   5.671   3.466   2.632 -3.1844 -0.7599  1.8987
  162SAPE    HY18076   5.822   3.379   2.668  0.2748  0.7719 -0.4059
  162SAPE   O3118077   5.666   3.389   2.824 -0.2251  0.2981 -0.3476
  162SAPE   C3118078   5.749   3.341   2.915 -0.1079  0.1036  0.2009
  162SAPE   O3218079   5.863   3.294   2.897 -0.1647  0.0704 -0.2040
  162SAPE   C3218080   5.702   3.375   3.057 -0.2609  0.5131  0.4065
  162SAPE   H2X18081   5.690   3.282   3.117 -1.8256 -0.1587 -0.8816
  162SAPE   H2Y18082   5.598   3.415   3.057 -0.6861 -0.5576  0.0784
  162SAPE   C2318083   5.295   3.315   2.829  0.2880  0.3351 -0.6718
  162SAPE   H3R18084   5.184   3.325   2.823  0.4229  2.5720 -0.5452
  162SAPE   H3S18085   5.343   3.404   2.781  1.2559  1.3389  2.0086
  162SAPE   C2418086   5.340   3.310   2.974 -0.0928 -0.7592  0.8981
  162SAPE   H4R18087   5.307   3.409   3.015 -1.5859 -0.7324 -0.2806
  162SAPE   H4S18088   5.450   3.298   2.979  0.2902  0.5622 -2.2811
  162SAPE   C2518089   5.277   3.209   3.063 -0.0200 -0.3109 -0.0112
  162SAPE   H5R18090   5.251   3.113   3.015  1.0456 -0.2785 -0.6865
  162SAPE   C2618091   5.271   3.206   3.196 -0.1861 -0.5035 -0.5876
  162SAPE   H6R18092   5.232   3.120   3.252  0.8795 -0.7189 -0.1530
  162SAPE   C2718093   5.313   3.325   3.287 -0.1202 -0.0690  0.0567
  162SAPE   H7R18094   5.223   3.386   3.311  1.5378  2.2545  0.6811
  162SAPE   H7S18095   5.375   3.397   3.231  0.3381  0.4071  1.1479
  162SAPE   C2818096   5.394   3.292   3.409 -0.4188  0.1923  0.0605
  162SAPE   H8R18097   5.494   3.249   3.389 -0.6022  0.4456 -1.5597
  162SAPE   C2918098   5.338   3.307   3.537 -0.1328  0.5243 -0.3394
  162SAPE   H9R18099   5.393   3.272   3.626  1.3739  1.7890 -0.7412
  162SAPE  C21018100   5.204   3.351   3.583  0.1664  0.3149 -0.5785
  162SAPE  H10R18101   5.154   3.415   3.506  0.9008  1.3226 -0.2466
  162SAPE  H10S18102   5.222   3.426   3.663  1.9193 -1.6103  0.9278
  162SAPE  C21118103   5.097   3.254   3.641  0.1406 -0.2666 -0.0401
  162SAPE  H11R18104   5.035   3.203   3.566  0.7496 -1.6262  0.3607
  162SAPE  C21218105   5.068   3.231   3.766 -0.0352  0.0704 -0.2582
  162SAPE  H12R18106   4.983   3.164   3.785 -1.2821  0.7897 -2.8617
  162SAPE  C21318107   5.132   3.290   3.887 -0.2951  0.9208 -0.5783
  162SAPE  H13R18108   5.064   3.371   3.922  0.8626  2.4677 -1.7687
  162SAPE  H13S18109   5.231   3.334   3.862 -0.0538  0.9926  0.4617
  162SAPE  C21418110   5.124   3.199   4.008  0.3924  0.1920 -0.5922
  162SAPE  H14R18111   5.028   3.149   4.030  1.1242  0.1823  3.4048
  162SAPE  C21518112   5.211   3.171   4.105 -0.4471  0.1602 -0.1849
  162SAPE  H15R18113   5.178   3.111   4.191 -2.0695  1.3853  0.1013
  162SAPE  C21618114   5.349   3.219   4.111 -1.5027 -0.2230  0.2284
  162SAPE  H16R18115   5.398   3.202   4.012 -0.4632  1.3987  0.4237
  162SAPE  H16S18116   5.407   3.153   4.179  2.7491  1.4888 -1.3474
  162SAPE  C21718117   5.376   3.371   4.156 -0.1303  0.7202 -0.3668
  162SAPE  H17R18118   5.290   3.429   4.116 -1.4803 -1.9531 -1.5389
  162SAPE  H17S18119   5.477   3.400   4.121 -0.5137 -0.2911 -2.4506
  162SAPE  C21818120   5.374   3.389   4.314 -0.3283 -0.2255  0.6010
  162SAPE  H18R18121   5.436   3.306   4.354 -0.8721 -0.9619 -0.0665
  162SAPE  H18S18122   5.273   3.379   4.358 -0.9800  2.9770  0.0704
  162SAPE  C21918123   5.430   3.520   4.369  0.8298  0.4264  0.0893
  162SAPE  H19R18124   5.397   3.612   4.315 -0.7040  1.0430  1.9866
  162SAPE  H19S18125   5.540   3.520   4.355  0.6330 -0.4009 -1.8038
  162SAPE  C22018126   5.397   3.541   4.511  0.5696  0.5715 -0.5899
  162SAPE  H20R18127   5.302   3.599   4.518  0.0992 -0.0458 -1.6652
  162SAPE  H20S18128   5.476   3.606   4.553 -0.1698  0.6588  0.7205
  162SAPE  H20T18129   5.387   3.449   4.573 -1.5535  0.5797 -0.8322
  162SAPE   C3318130   5.793   3.474   3.127  0.5938  0.2222 -0.0787
  162SAPE   H3X18131   5.796   3.567   3.065 -1.1689 -1.0194 -2.1823
  162SAPE   H3Y18132   5.896   3.433   3.125  0.3160 -0.4656 -0.4863
  162SAPE   C3418133   5.746   3.518   3.267  0.1985  0.2925 -1.0941
  162SAPE   H4X18134   5.724   3.428   3.329  1.8029  1.2780  1.0050
  162SAPE   H4Y18135   5.647   3.567   3.250 -0.6739 -0.8782  0.3430
  162SAPE   C3518136   5.849   3.603   3.340 -0.6638 -0.2209  0.4762
  162SAPE   H5X18137   5.880   3.696   3.289 -0.1303  0.1092  1.3724
  162SAPE   H5Y18138   5.937   3.535   3.339 -0.9028 -0.5627  1.3745
  162SAPE   C3618139   5.812   3.616   3.494  0.6803  0.1342 -0.0770
  162SAPE   H6X18140   5.787   3.512   3.524 -2.0946  0.5473 -0.7016
  162SAPE   H6Y18141   5.725   3.684   3.507 -0.8622 -1.2472 -2.3775
  162SAPE   C3718142   5.935   3.670   3.572 -0.4023  0.1510  0.2347
  162SAPE   H7X18143   5.968   3.769   3.534  0.9169 -0.2337  0.3630
  162SAPE   H7Y18144   6.023   3.604   3.562 -0.6336 -0.2403  0.6999
  162SAPE   C3818145   5.906   3.690   3.720  0.3600 -0.0944 -0.1357
  162SAPE   H8X18146   5.847   3.602   3.752 -0.6417  0.1057 -1.3690
  162SAPE   H8Y18147   5.838   3.778   3.722  0.0683 -0.2065 -2.5469
  162SAPE   C3918148   6.026   3.717   3.812  0.5569  0.3502 -0.4924
  162SAPE   H9X18149   5.997   3.774   3.903  1.6641  0.6724 -0.3252
  162SAPE   H9Y18150   6.116   3.763   3.764  0.4085  0.8408 -0.3156
  162SAPE  C31018151   6.066   3.578   3.862 -0.2835 -0.6404  0.6855
  162SAPE  H10X18152   6.073   3.518   3.768  1.3227  3.8002 -2.3866
  162SAPE  H10Y18153   5.995   3.527   3.930  0.8943 -0.1389  2.3294
  162SAPE  C31118154   6.199   3.584   3.928  0.0946  0.4324  0.3582
  162SAPE  H11X18155   6.188   3.637   4.025  2.6918  0.3077  0.8019
  162SAPE  H11Y18156   6.262   3.645   3.861 -0.9811  0.6264 -0.5110
  162SAPE  C31218157   6.252   3.442   3.959  0.5750  0.7182 -0.3886
  162SAPE  H12X18158   6.218   3.379   3.875 -1.2420  0.7168  0.3043
  162SAPE  H12Y18159   6.200   3.411   4.052  0.5760 -0.5417 -0.7919
  162SAPE  C31318160   6.401   3.429   3.981  0.0866 -0.7005 -0.8488
  162SAPE  H13X18161   6.435   3.487   4.070  0.4529 -1.9809 -0.1323
  162SAPE  H13Y18162   6.456   3.473   3.895  0.5662  2.0316  0.7420
  162SAPE  C31418163   6.458   3.292   4.015  0.1322  0.2009  0.3419
  162SAPE  H14X18164   6.407   3.232   3.936  0.1873 -0.8733  1.1082
  162SAPE  H14Y18165   6.417   3.237   4.102  1.5164  0.2030  1.0348
  162SAPE  C31518166   6.604   3.274   4.031 -0.7780 -0.2557 -0.6174
  162SAPE  H15X18167   6.668   3.321   3.953  0.2345 -0.4058  0.1050
  162SAPE  H15Y18168   6.628   3.167   4.013  0.6377  0.0605 -0.7015
  162SAPE  C31618169   6.662   3.313   4.170  0.0351  0.6591 -0.1294
  162SAPE  H16X18170   6.614   3.243   4.242  1.1102 -1.1682 -1.0971
  162SAPE  H16Y18171   6.630   3.416   4.195  0.6407  0.2802  2.5339
  162SAPE  C31718172   6.814   3.300   4.179  0.5838  0.2781  0.7198
  162SAPE  H17X18173   6.856   3.377   4.111  2.4862 -0.8795  0.5060
  162SAPE  H17Y18174   6.846   3.201   4.139  1.6969  0.7198  0.4637
  162SAPE  C31818175   6.870   3.320   4.317  0.1786 -0.1246 -0.3857
  162SAPE  H18X18176   6.849   3.426   4.342 -1.9722 -0.5707 -0.1347
  162SAPE  H18Y18177   6.978   3.294   4.306 -0.0109 -0.0363 -3.0369
  162SAPE  H18Z18178   6.825   3.254   4.394 -1.9118 -0.8330 -2.1240
  163SAPE     N18179   4.567   2.272   2.396  0.1218 -0.8706  0.2707
  163SAPE   HN118180   4.668   2.297   2.393 -0.5174  2.1742  0.1813
  163SAPE   HN218181   4.538   2.242   2.491 -1.2595  0.0149  0.1559
  163SAPE   HN318182   4.549   2.185   2.343  0.2106 -2.0142  2.0425
  163SAPE   C1218183   4.488   2.393   2.344  0.1338  0.5565 -0.4232
  163SAPE  H12A18184   4.418   2.347   2.271  0.3788  2.3818 -1.8855
  163SAPE  H12B18185   4.562   2.460   2.295  1.3332 -1.0537 -0.9453
  163SAPE   C1118186   4.418   2.454   2.457  0.8031 -0.3665 -0.4745
  163SAPE  H11A18187   4.490   2.485   2.535  0.4638 -2.3983  0.7395
  163SAPE  H11B18188   4.355   2.377   2.508  1.4026 -1.3169 -1.1323
  163SAPE     P18189   4.382   2.702   2.392 -0.2564  0.3443 -0.1357
  163SAPE   O1318190   4.460   2.707   2.268  0.7457 -0.3658 -0.2534
  163SAPE   O1418191   4.264   2.791   2.399 -0.1343 -0.1014  0.6340
  163SAPE   O1218192   4.329   2.553   2.414 -0.1055 -0.6014  0.1808
  163SAPE   O1118193   4.476   2.719   2.515 -0.1902  0.1974 -0.1438
  163SAPE    C118194   4.612   2.759   2.500  0.6140 -0.6703 -0.2003
  163SAPE    HA18195   4.674   2.688   2.440 -0.6643 -1.6464 -0.4307
  163SAPE    HB18196   4.613   2.858   2.451  2.0478 -1.1864 -1.2762
  163SAPE    C218197   4.673   2.793   2.641 -0.0132  0.4328 -0.1026
  163SAPE    HS18198   4.767   2.850   2.625  0.6097  0.0262  1.8362
  163SAPE   O2118199   4.704   2.683   2.720  0.5921  0.1366 -0.3150
  163SAPE   C2118200   4.807   2.602   2.696 -0.2309  0.0086  0.0710
  163SAPE   O2218201   4.873   2.606   2.594 -0.7346 -0.1617 -0.4009
  163SAPE   C2218202   4.816   2.509   2.823  0.2516  0.2460 -0.2051
  163SAPE   H2R18203   4.819   2.579   2.909  0.3505  0.0314 -0.0342
  163SAPE   H2S18204   4.719   2.455   2.832  1.9558 -3.1217 -0.5489
  163SAPE    C318205   4.570   2.864   2.732  0.7636  0.2346  0.1892
  163SAPE    HX18206   4.500   2.783   2.763  0.5997 -0.4515 -1.8741
  163SAPE    HY18207   4.503   2.929   2.672  1.5416  1.2502  0.4014
  163SAPE   O3118208   4.628   2.931   2.847 -0.1238 -0.2824  0.3682
  163SAPE   C3118209   4.663   3.055   2.817 -0.5253 -1.1544 -0.0376
  163SAPE   O3218210   4.655   3.114   2.712 -0.5350 -0.3740  0.2528
  163SAPE   C3218211   4.716   3.111   2.952 -0.0281  0.0723 -0.2787
  163SAPE   H2X18212   4.720   3.220   2.928 -0.4533  0.0929 -0.2559
  163SAPE   H2Y18213   4.822   3.080   2.962  0.4495  1.8022  0.5161
  163SAPE   C2318214   4.931   2.410   2.808  0.1283 -0.3151  0.2620
  163SAPE   H3R18215   5.027   2.460   2.782 -0.0310 -0.2220 -0.1547
  163SAPE   H3S18216   4.915   2.341   2.723  2.8960 -0.8038  0.0395
  163SAPE   C2418217   4.951   2.316   2.932 -0.5129 -0.3907 -0.1662
  163SAPE   H4R18218   5.010   2.379   3.001  1.6999 -1.2487 -1.1902
  163SAPE   H4S18219   5.017   2.227   2.920 -1.2133 -1.2419  1.8581
  163SAPE   C2518220   4.824   2.267   2.987  0.2644  0.5279  0.5380
  163SAPE   H5R18221   4.745   2.237   2.916  1.1780 -0.7452  0.0240
  163SAPE   C2618222   4.794   2.259   3.123 -0.2854 -0.6241 -0.2570
  163SAPE   H6R18223   4.689   2.235   3.148 -0.1779 -2.2843 -1.2251
  163SAPE   C2718224   4.882   2.287   3.240  0.4295  0.5565  0.2639
  163SAPE   H7R18225   4.970   2.340   3.197 -1.0236  1.3545 -1.9074
  163SAPE   H7S18226   4.919   2.188   3.272  1.2811  1.1833  1.2693
  163SAPE   C2818227   4.807   2.371   3.346 -1.0203 -0.2920 -0.0222
  163SAPE   H8R18228   4.781   2.475   3.319 -0.7017 -0.1553  0.1845
  163SAPE   C2918229   4.777   2.330   3.470  0.3057 -0.6386 -0.3329
  163SAPE   H9R18230   4.714   2.386   3.541 -0.1061 -0.8545 -0.5262
  163SAPE  C21018231   4.824   2.200   3.535 -0.2212  0.1502  0.1562
  163SAPE  H10R18232   4.911   2.220   3.600 -2.1737  0.9709  2.6807
  163SAPE  H10S18233   4.863   2.137   3.453 -3.6801  0.5022 -1.9792
  163SAPE  C21118234   4.718   2.117   3.614 -0.3305 -1.0421  0.6051
  163SAPE  H11R18235   4.670   2.039   3.553  0.4438  0.4853 -2.1404
  163SAPE  C21218236   4.690   2.132   3.742 -0.3676  0.3392 -0.2119
  163SAPE  H12R18237   4.604   2.078   3.783 -0.9393 -2.8566 -4.8562
  163SAPE  C21318238   4.762   2.211   3.845 -0.2333  0.2375 -0.5808
  163SAPE  H13R18239   4.846   2.270   3.803 -0.3998  1.4481  0.7057
  163SAPE  H13S18240   4.812   2.136   3.910 -0.5952 -1.0839 -1.7954
  163SAPE  C21418241   4.681   2.314   3.919  0.6431  0.5126 -0.5043
  163SAPE  H14R18242   4.687   2.418   3.884 -0.8132  0.9311  0.3850
  163SAPE  C21518243   4.614   2.289   4.035 -0.0212  0.0895  0.2689
  163SAPE  H15R18244   4.558   2.375   4.076 -0.5840 -0.0115 -0.2868
  163SAPE  C21618245   4.587   2.163   4.115  0.0784  1.0545  1.0843
  163SAPE  H16R18246   4.607   2.173   4.223  0.8998  2.9362  0.7955
  163SAPE  H16S18247   4.662   2.091   4.074  1.4214  3.6328 -1.3790
  163SAPE  C21718248   4.440   2.109   4.102  0.3182 -0.2549  0.0065
  163SAPE  H17R18249   4.430   2.087   3.994  1.0490 -1.7372  0.2134
  163SAPE  H17S18250   4.372   2.191   4.133  0.4146  0.6654 -2.0241
  163SAPE  C21818251   4.411   1.977   4.172  0.8457 -0.7300 -0.5552
  163SAPE  H18R18252   4.427   1.990   4.281  1.8894  0.6472 -0.8523
  163SAPE  H18S18253   4.484   1.899   4.141  3.8920  1.0263  1.6668
  163SAPE  C21918254   4.271   1.917   4.155  0.2016 -0.1622  0.0524
  163SAPE  H19R18255   4.248   1.884   4.051  0.8550 -1.1132  0.2038
  163SAPE  H19S18256   4.193   1.993   4.178 -0.6249 -1.2775  1.0288
  163SAPE  C22018257   4.238   1.809   4.253 -0.0811 -0.3554  0.3330
  163SAPE  H20R18258   4.268   1.710   4.212  0.6829  0.3706 -0.8905
  163SAPE  H20S18259   4.128   1.796   4.265  0.2422 -2.5562  1.6234
  163SAPE  H20T18260   4.293   1.829   4.348 -0.4538  0.7078  0.3356
  163SAPE   C3318261   4.635   3.079   3.079  0.4706  0.3335 -0.1900
  163SAPE   H3X18262   4.633   2.968   3.087 -0.0465  0.2289 -1.3942
  163SAPE   H3Y18263   4.531   3.115   3.060  0.1627 -0.8163 -0.8631
  163SAPE   C3418264   4.696   3.135   3.194  0.0814 -1.1527 -0.8212
  163SAPE   H4X18265   4.690   3.246   3.189 -0.4367 -1.0464  1.1731
  163SAPE   H4Y18266   4.802   3.101   3.191  0.4521 -0.3447  1.2897
  163SAPE   C3518267   4.631   3.077   3.326  0.0568 -0.0328 -0.2163
  163SAPE   H5X18268   4.659   2.970   3.330  3.7461  0.5633 -3.9159
  163SAPE   H5Y18269   4.520   3.081   3.328  0.1047  1.7421  0.3940
  163SAPE   C3618270   4.673   3.162   3.447 -0.2942 -0.2429  1.0298
  163SAPE   H6X18271   4.649   3.267   3.418  1.9275 -0.3311 -1.5590
  163SAPE   H6Y18272   4.783   3.171   3.462 -0.1434 -1.8763  1.0727
  163SAPE   C3718273   4.608   3.117   3.572 -0.2146  0.1166  0.0688
  163SAPE   H7X18274   4.600   3.007   3.587 -4.1959  0.1916 -0.3877
  163SAPE   H7Y18275   4.499   3.135   3.569 -0.5964 -1.9836 -2.2645
  163SAPE   C3818276   4.661   3.197   3.686  0.2119 -0.2842 -0.2425
  163SAPE   H8X18277   4.664   3.306   3.664  0.1400 -0.5622 -1.6799
  163SAPE   H8Y18278   4.766   3.168   3.709  0.1158  0.3980  1.1839
  163SAPE   C3918279   4.589   3.152   3.815 -0.3814 -0.3386  0.9152
  163SAPE   H9X18280   4.607   3.043   3.814 -1.4193 -0.5146 -0.0518
  163SAPE   H9Y18281   4.479   3.157   3.798 -0.3400 -0.6825  0.5442
  163SAPE  C31018282   4.635   3.216   3.942 -0.5172  0.6500 -0.6398
  163SAPE  H10X18283   4.597   3.318   3.964 -0.9712  0.2778  0.3918
  163SAPE  H10Y18284   4.746   3.219   3.952 -0.3907  0.5150 -1.8893
  163SAPE  C31118285   4.573   3.141   4.065  0.3706  0.0511  0.3528
  163SAPE  H11X18286   4.607   3.036   4.053  0.9092  0.4869 -2.7433
  163SAPE  H11Y18287   4.463   3.150   4.053  0.4972 -0.7110 -1.9212
  163SAPE  C31218288   4.612   3.201   4.202  0.4263 -0.4239  0.1645
  163SAPE  H12X18289   4.593   3.310   4.214 -2.0909 -1.0347  3.1578
  163SAPE  H12Y18290   4.717   3.178   4.226 -0.0567 -2.5410  0.4660
  163SAPE  C31318291   4.544   3.132   4.320 -0.1270 -0.0946 -0.1996
  163SAPE  H13X18292   4.573   3.025   4.323 -1.9026 -0.5792  1.1068
  163SAPE  H13Y18293   4.434   3.133   4.304 -0.5978 -0.9076  2.5143
  163SAPE  C31418294   4.571   3.186   4.464 -0.8374  0.6457  0.3782
  163SAPE  H14X18295   4.682   3.185   4.465 -0.7038 -0.0896 -3.2408
  163SAPE  H14Y18296   4.525   3.119   4.540 -0.4330 -1.4157 -1.1087
  163SAPE  C31518297   4.537   3.333   4.476 -0.3959 -0.6047  0.1209
  163SAPE  H15X18298   4.429   3.355   4.463 -0.2227 -0.3339 -0.9353
  163SAPE  H15Y18299   4.590   3.384   4.393  2.2974 -2.5596  0.4909
  163SAPE  C31618300   4.584   3.382   4.613  0.4917  0.2606  0.1111
  163SAPE  H16X18301   4.691   3.356   4.623  0.5594  0.8442  1.0733
  163SAPE  H16Y18302   4.522   3.328   4.687  0.6145  0.5046  0.3965
  163SAPE  C31718303   4.565   3.531   4.633 -0.3022 -0.8875 -0.1538
  163SAPE  H17X18304   4.472   3.569   4.585  0.2481 -1.3006 -1.5937
  163SAPE  H17Y18305   4.649   3.578   4.578  0.0827  0.2080  1.3192
  163SAPE  C31818306   4.562   3.581   4.775  0.1219  0.3218  0.0592
  163SAPE  H18X18307   4.657   3.559   4.828  1.2047  2.9435 -0.6149
  163SAPE  H18Y18308   4.470   3.553   4.831  0.6667 -3.1229 -0.5439
  163SAPE  H18Z18309   4.566   3.692   4.772  0.7269  0.2802 -2.1640
  164SAPE     N18310   1.108   0.629   2.205 -0.1924 -0.1591  0.1672
  164SAPE   HN118311   1.046   0.569   2.147 -0.9520  0.9445 -0.2045
  164SAPE   HN218312   1.083   0.727   2.177 -3.1992  0.1643  3.2592
  164SAPE   HN318313   1.207   0.602   2.191  0.6710  2.5070  0.4717
  164SAPE   C1218314   1.047   0.613   2.350  0.3611  0.3539  0.6346
  164SAPE  H12A18315   1.086   0.517   2.389  0.9335  1.5426  3.2030
  164SAPE  H12B18316   0.936   0.616   2.342  0.3783  4.0928 -0.4200
  164SAPE   C1118317   1.106   0.703   2.458 -0.2166 -0.1444 -0.4558
  164SAPE  H11A18318   1.213   0.675   2.467 -0.6376 -2.1555 -1.2227
  164SAPE  H11B18319   1.057   0.672   2.553  0.4959 -3.9403 -1.1576
  164SAPE     P18320   0.972   0.928   2.459  0.0415 -0.0362 -0.0095
  164SAPE   O1318321   0.980   1.063   2.395 -0.0027 -0.0982 -0.0007
  164SAPE   O1418322   0.848   0.851   2.433 -0.1353 -0.8406  0.1057
  164SAPE   O1218323   1.091   0.836   2.417  0.7048 -0.3015 -0.0216
  164SAPE   O1118324   0.990   0.939   2.617  0.2260 -0.6669  0.2443
  164SAPE    C118325   1.091   1.025   2.675  0.6289  0.2365 -0.7109
  164SAPE    HA18326   1.097   1.121   2.620  0.5020  0.2076 -0.7762
  164SAPE    HB18327   1.061   1.057   2.778  1.6112 -2.1455  0.4031
  164SAPE    C218328   1.229   0.953   2.700 -0.5909  0.0246 -0.3963
  164SAPE    HS18329   1.277   0.927   2.603  0.8952 -0.1726  0.3586
  164SAPE   O2118330   1.208   0.832   2.784  0.3406 -0.1068  0.1144
  164SAPE   C2118331   1.304   0.744   2.776 -0.0817  0.0879  0.3455
  164SAPE   O2218332   1.384   0.738   2.685 -0.0850  0.4075 -0.4449
  164SAPE   C2218333   1.279   0.642   2.883  0.3834 -0.2605  0.4565
  164SAPE   H2R18334   1.298   0.700   2.976 -2.8213 -0.0602  1.0819
  164SAPE   H2S18335   1.173   0.609   2.885  0.5792 -0.8686  1.0556
  164SAPE    C318336   1.330   1.052   2.762 -0.7543  0.5983  0.1906
  164SAPE    HX18337   1.318   1.153   2.717  0.3323  1.4678  1.7589
  164SAPE    HY18338   1.437   1.028   2.746 -0.3073  0.7056  2.6922
  164SAPE   O3118339   1.301   1.067   2.903  0.5617 -0.7361 -0.1605
  164SAPE   C3118340   1.365   0.989   2.983  0.1298 -0.3282 -0.1907
  164SAPE   O3218341   1.452   0.909   2.952 -0.1326 -0.3636 -1.3908
  164SAPE   C3218342   1.331   1.017   3.126 -0.0764 -0.0479 -0.2438
  164SAPE   H2X18343   1.238   1.077   3.136  0.7678  1.2817 -0.1198
  164SAPE   H2Y18344   1.422   1.069   3.163  1.0349 -2.2450  0.2796
  164SAPE   C2318345   1.362   0.509   2.870  0.0590 -0.5727  0.3362
  164SAPE   H3R18346   1.345   0.444   2.958 -0.2041 -1.0690 -0.0728
  164SAPE   H3S18347   1.472   0.526   2.866 -0.1190  0.5474 -2.3469
  164SAPE   C2418348   1.329   0.421   2.744  0.1531 -0.1137 -0.4151
  164SAPE   H4R18349   1.398   0.334   2.748  0.8836  0.4060 -1.2461
  164SAPE   H4S18350   1.357   0.479   2.653  2.2037 -1.5187 -0.7668
  164SAPE   C2518351   1.182   0.382   2.738  0.4109  0.3880  0.2098
  164SAPE   H5R18352   1.127   0.458   2.681 -0.3020  0.0730  0.4652
  164SAPE   C2618353   1.118   0.266   2.774 -0.1631 -0.4854  0.9678
  164SAPE   H6R18354   1.014   0.265   2.740  0.4924 -0.3257 -1.2006
  164SAPE   C2718355   1.162   0.138   2.835  0.2119  0.7334 -0.0198
  164SAPE   H7R18356   1.272   0.137   2.853 -0.0378  0.1426  1.6499
  164SAPE   H7S18357   1.134   0.056   2.765  1.6241  0.2161 -0.0051
  164SAPE   C2818358   1.087   0.112   2.968 -0.6625 -0.9168  0.0571
  164SAPE   H8R18359   0.979   0.106   2.948 -0.8132 -2.3841  1.1760
  164SAPE   C2918360   1.144   0.089   3.091  0.2457 -0.6386 -0.3644
  164SAPE   H9R18361   1.071   0.078   3.173 -0.0327  1.3132 -0.3043
  164SAPE  C21018362   1.287   0.095   3.132 -0.5441 -0.0569  0.3757
  164SAPE  H10R18363   1.297   0.117   3.240 -0.2689 -1.2508  0.6075
  164SAPE  H10S18364   1.322   0.182   3.072 -1.0965 -0.2042 -0.1809
  164SAPE  C21118365   1.368  -0.024   3.086 -0.2054 -0.9086  0.4081
  164SAPE  H11R18366   1.390  -0.014   2.979  1.4608  0.6717  0.8413
  164SAPE  C21218367   1.419  -0.117   3.168 -0.2451 -1.0167  0.1015
  164SAPE  H12R18368   1.486  -0.191   3.123  0.2555 -0.7667  0.4220
  164SAPE  C21318369   1.402  -0.134   3.313 -0.7079  0.5932  0.0900
  164SAPE  H13R18370   1.408  -0.243   3.331 -1.7921 -0.0304 -2.8504
  164SAPE  H13S18371   1.303  -0.093   3.345  0.2162  1.2293  2.3881
  164SAPE  C21418372   1.509  -0.051   3.384 -0.1394  0.3861  0.5943
  164SAPE  H14R18373   1.584   0.007   3.330 -0.2653  0.1516  0.1644
  164SAPE  C21518374   1.506  -0.028   3.518  0.1129 -0.3052  0.1683
  164SAPE  H15R18375   1.590   0.027   3.562 -1.9877  2.0665  1.5245
  164SAPE  C21618376   1.420  -0.091   3.619  0.6887 -0.5009 -0.5200
  164SAPE  H16R18377   1.475  -0.165   3.681 -0.2927 -0.3305  0.5805
  164SAPE  H16S18378   1.329  -0.141   3.578 -0.0073 -0.2636  0.6943
  164SAPE  C21718379   1.370   0.016   3.722  0.3908  0.0132 -0.5748
  164SAPE  H17R18380   1.459   0.049   3.781 -0.0437 -0.0279  0.1069
  164SAPE  H17S18381   1.308  -0.041   3.795 -0.5917  0.2620 -1.2089
  164SAPE  C21818382   1.277   0.118   3.668  0.1710 -0.1088  0.1693
  164SAPE  H18R18383   1.218   0.081   3.581 -2.3511 -1.1849  2.2161
  164SAPE  H18S18384   1.337   0.202   3.626 -0.0997 -1.3086 -2.8912
  164SAPE  C21918385   1.164   0.161   3.764 -0.4066  0.0556  0.1659
  164SAPE  H19R18386   1.095   0.077   3.788 -2.3578  2.0607  2.0361
  164SAPE  H19S18387   1.109   0.240   3.708  0.0788 -0.0072 -0.4135
  164SAPE  C22018388   1.208   0.200   3.902  0.0951  0.2358 -0.1271
  164SAPE  H20R18389   1.286   0.134   3.944  1.7009  1.4912 -1.0384
  164SAPE  H20S18390   1.124   0.196   3.975  0.3253 -0.8465  0.0995
  164SAPE  H20T18391   1.238   0.306   3.907  3.0221 -0.4232 -1.5090
  164SAPE   C3318392   1.312   0.883   3.201  0.1664 -0.6418  0.0185
  164SAPE   H3X18393   1.404   0.821   3.199  0.7546  0.2212 -0.1974
  164SAPE   H3Y18394   1.230   0.826   3.154  1.9135 -0.7244 -3.2246
  164SAPE   C3418395   1.290   0.914   3.346 -0.7254  0.2755 -0.8484
  164SAPE   H4X18396   1.204   0.984   3.348 -1.7561 -0.9264 -1.6200
  164SAPE   H4Y18397   1.384   0.952   3.393  0.1409  0.0030 -2.2846
  164SAPE   C3518398   1.253   0.786   3.428  0.1998 -0.3593 -0.0119
  164SAPE   H5X18399   1.342   0.738   3.474  1.1159  1.9649  0.7807
  164SAPE   H5Y18400   1.192   0.718   3.364 -2.4633  0.6757  1.2603
  164SAPE   C3618401   1.174   0.825   3.550  0.4648 -0.2212 -0.3052
  164SAPE   H6X18402   1.090   0.884   3.508  0.6379 -1.9469 -3.3045
  164SAPE   H6Y18403   1.224   0.888   3.627 -0.6707 -1.0591  1.1837
  164SAPE   C3718404   1.105   0.702   3.623  0.2485  0.3102 -0.2420
  164SAPE   H7X18405   1.186   0.633   3.655 -1.0539 -1.4487 -0.6018
  164SAPE   H7Y18406   1.048   0.648   3.545  1.8440  0.6585 -1.7100
  164SAPE   C3818407   1.011   0.733   3.745 -0.1097 -0.1009  0.3055
  164SAPE   H8X18408   0.915   0.770   3.703  0.6750 -0.3671 -1.8260
  164SAPE   H8Y18409   1.062   0.818   3.794 -0.1796 -0.1297  0.4281
  164SAPE   C3918410   0.989   0.618   3.839 -0.2898  0.2186 -0.0947
  164SAPE   H9X18411   0.937   0.662   3.926  0.3694  1.2571 -0.2121
  164SAPE   H9Y18412   1.088   0.586   3.877 -0.5965 -1.2788 -0.4755
  164SAPE  C31018413   0.917   0.495   3.787  0.1743 -0.4540  0.5688
  164SAPE  H10X18414   0.980   0.435   3.717 -0.0564 -0.0367 -0.0079
  164SAPE  H10Y18415   0.826   0.522   3.729 -1.1897  0.3080  2.9266
  164SAPE  C31118416   0.885   0.411   3.912 -0.2206 -0.0573  0.3675
  164SAPE  H11X18417   0.814   0.468   3.976 -2.6024 -0.6509 -1.6222
  164SAPE  H11Y18418   0.977   0.393   3.972 -0.3245 -2.1651 -0.0290
  164SAPE  C31218419   0.834   0.278   3.872 -0.0729 -0.6923 -0.3881
  164SAPE  H12X18420   0.908   0.206   3.830 -0.5828 -1.5454  0.1474
  164SAPE  H12Y18421   0.759   0.290   3.791 -0.1568 -2.1417 -0.5475
  164SAPE  C31318422   0.743   0.215   3.973 -0.5503 -0.4703  0.4942
  164SAPE  H13X18423   0.706   0.115   3.941  0.8510 -1.2332  1.1423
  164SAPE  H13Y18424   0.653   0.280   3.979 -0.1082  0.5648 -2.6085
  164SAPE  C31418425   0.811   0.193   4.106 -0.3250  0.4192 -0.9294
  164SAPE  H14X18426   0.850   0.293   4.136 -0.5378 -0.1489  1.4228
  164SAPE  H14Y18427   0.898   0.125   4.106 -0.6527 -0.0374  0.5821
  164SAPE  C31518428   0.717   0.130   4.206  0.3795 -0.0581  0.0840
  164SAPE  H15X18429   0.667   0.038   4.169 -1.3610  0.8803 -0.0009
  164SAPE  H15Y18430   0.634   0.203   4.195  0.8935  0.2733 -2.0084
  164SAPE  C31618431   0.771   0.120   4.346  0.4020  0.2864  0.2228
  164SAPE  H16X18432   0.869   0.172   4.353  1.0445 -0.2198 -3.3182
  164SAPE  H16Y18433   0.792   0.015   4.373  0.8870  0.2337 -0.3373
  164SAPE  C31718434   0.686   0.185   4.454  0.6577  0.1139  0.1442
  164SAPE  H17X18435   0.587   0.136   4.452  0.9245 -0.5349  1.5878
  164SAPE  H17Y18436   0.672   0.291   4.426 -3.5438 -0.2763  0.2416
  164SAPE  C31818437   0.748   0.164   4.593  0.3444 -0.0504  0.0203
  164SAPE  H18X18438   0.698   0.220   4.674 -1.9203  0.1984 -1.4853
  164SAPE  H18Y18439   0.858   0.181   4.589  0.4776 -0.3048  1.9239
  164SAPE  H18Z18440   0.751   0.055   4.617  3.1354  0.2490  1.3928
  165SAPE     N18441   0.758   1.421   1.970  0.0502  0.3435  0.1275
  165SAPE   HN118442   0.723   1.438   1.874 -2.2559 -1.2901  0.6130
  165SAPE   HN218443   0.862   1.421   1.977  0.0306  2.3820  1.0990
  165SAPE   HN318444   0.710   1.332   1.992  2.3513 -0.7966  0.9061
  165SAPE   C1218445   0.695   1.536   2.047  0.3854 -0.4116  0.6739
  165SAPE  H12A18446   0.662   1.497   2.146 -0.2225  2.5053  1.7107
  165SAPE  H12B18447   0.603   1.559   1.989  0.9694 -0.4215 -0.2706
  165SAPE   C1118448   0.789   1.660   2.061  0.2062  0.1028  0.0409
  165SAPE  H11A18449   0.728   1.747   2.092  0.4606 -0.8692  3.8216
  165SAPE  H11B18450   0.820   1.688   1.958  0.3616  0.2514  0.1268
  165SAPE     P18451   0.913   1.651   2.296  0.2224  0.3626  0.2947
  165SAPE   O1318452   1.056   1.629   2.336  0.4481 -0.5417 -0.1086
  165SAPE   O1418453   0.845   1.781   2.324 -0.0062  0.5786  0.1452
  165SAPE   O1218454   0.905   1.623   2.134  0.4760  0.1300  0.2363
  165SAPE   O1118455   0.814   1.548   2.369  1.1751 -1.0034 -0.4200
  165SAPE    C118456   0.862   1.415   2.394 -0.0885  0.5303 -0.0693
  165SAPE    HA18457   0.793   1.341   2.348  2.2245 -2.4834  0.9870
  165SAPE    HB18458   0.959   1.395   2.344 -1.1162 -2.5376 -1.1323
  165SAPE    C218459   0.871   1.361   2.538 -0.2046 -0.2260 -0.0158
  165SAPE    HS18460   0.871   1.250   2.545  0.2976 -0.1748  0.9365
  165SAPE   O2118461   0.764   1.405   2.629 -0.3027  0.3077  0.0726
  165SAPE   C2118462   0.643   1.365   2.607 -0.7911 -0.1628 -1.1379
  165SAPE   O2218463   0.613   1.289   2.524  0.2912  0.6441 -0.8661
  165SAPE   C2218464   0.549   1.433   2.713  0.4968 -0.1943 -0.6879
  165SAPE   H2R18465   0.551   1.544   2.713 -3.2254  0.0346  1.0387
  165SAPE   H2S18466   0.455   1.417   2.657  0.5786 -0.7929 -0.6628
  165SAPE    C318467   1.007   1.412   2.600  0.1432 -0.0418 -0.2663
  165SAPE    HX18468   1.004   1.523   2.594 -0.0127 -0.0452 -0.2352
  165SAPE    HY18469   1.095   1.381   2.540 -0.3680 -1.1273 -0.4760
  165SAPE   O3118470   1.032   1.376   2.739 -0.5992  0.2860 -0.4238
  165SAPE   C3118471   1.141   1.422   2.803  0.8735  0.5397  0.1118
  165SAPE   O3218472   1.233   1.478   2.748 -0.1128 -0.3811 -0.2494
  165SAPE   C3218473   1.116   1.404   2.957  0.0624  0.1297  0.6259
  165SAPE   H2X18474   1.101   1.296   2.981  0.8041  0.2670  1.7771
  165SAPE   H2Y18475   1.024   1.464   2.975  0.1028  0.4330 -0.1192
  165SAPE   C2318476   0.557   1.362   2.844  0.0587  0.2393  0.1142
  165SAPE   H3R18477   0.611   1.265   2.849  1.8836  1.2688  1.6051
  165SAPE   H3S18478   0.455   1.346   2.886 -0.7886  2.9355 -0.7272
  165SAPE   C2418479   0.641   1.442   2.950 -0.7752 -0.3465  0.2478
  165SAPE   H4R18480   0.737   1.468   2.900  0.0755 -0.8945  1.5629
  165SAPE   H4S18481   0.669   1.384   3.040  0.5871  0.1558  0.1731
  165SAPE   C2518482   0.585   1.579   2.981 -0.1886  0.0129 -0.3281
  165SAPE   H5R18483   0.582   1.647   2.895  0.9920 -0.3416 -0.6575
  165SAPE   C2618484   0.545   1.630   3.101 -0.2053  0.5398 -0.3912
  165SAPE   H6R18485   0.508   1.733   3.110 -2.2714 -0.2111  0.2762
  165SAPE   C2718486   0.559   1.562   3.231  0.6577  0.2216 -0.6006
  165SAPE   H7R18487   0.517   1.460   3.224 -0.3680  0.6788 -1.4102
  165SAPE   H7S18488   0.492   1.608   3.306  1.7170 -1.2144  1.3195
  165SAPE   C2818489   0.701   1.564   3.281  0.0120 -0.2645  0.2087
  165SAPE   H8R18490   0.761   1.494   3.222 -0.7130 -1.4020  0.7732
  165SAPE   C2918491   0.760   1.623   3.393  1.0673  0.6040  0.4564
  165SAPE   H9R18492   0.868   1.615   3.413  1.0348  0.1967  0.4826
  165SAPE  C21018493   0.691   1.730   3.470  0.4050 -0.3679  0.0997
  165SAPE  H10R18494   0.590   1.751   3.429  1.3168  2.8477 -0.8123
  165SAPE  H10S18495   0.748   1.825   3.469 -0.3656  0.1125 -1.8928
  165SAPE  C21118496   0.665   1.674   3.611  0.2606 -0.6462  0.7528
  165SAPE  H11R18497   0.565   1.627   3.614 -0.8843  1.5147 -0.8777
  165SAPE  C21218498   0.743   1.680   3.716 -0.0226 -0.0557 -0.4283
  165SAPE  H12R18499   0.705   1.647   3.813  0.9260 -0.3031 -0.1329
  165SAPE  C21318500   0.879   1.752   3.719  0.2223  0.5464  0.6589
  165SAPE  H13R18501   0.871   1.849   3.773  3.8579  0.6481  1.2701
  165SAPE  H13S18502   0.912   1.787   3.619  1.9452  1.7758  1.5859
  165SAPE  C21418503   0.981   1.658   3.776  0.5709 -0.6871  0.2788
  165SAPE  H14R18504   0.990   1.560   3.725 -0.5287 -0.2589 -0.7855
  165SAPE  C21518505   1.075   1.682   3.869  0.1541  0.2550 -0.7410
  165SAPE  H15R18506   1.137   1.599   3.905 -3.1085 -1.2289  2.0438
  165SAPE  C21618507   1.088   1.811   3.952 -0.2377  0.5659 -0.3777
  165SAPE  H16R18508   1.066   1.891   3.879  0.8102  0.8435 -0.4129
  165SAPE  H16S18509   1.188   1.824   3.998 -1.8487  1.5992  3.1358
  165SAPE  C21718510   0.979   1.819   4.060 -0.5524  0.3734 -0.1095
  165SAPE  H17R18511   0.878   1.808   4.015 -0.7694 -0.7512  0.5953
  165SAPE  H17S18512   0.985   1.917   4.112 -0.2386 -1.0375  2.7357
  165SAPE  C21818513   0.992   1.705   4.161 -0.0961  0.8001 -0.0660
  165SAPE  H18R18514   1.100   1.696   4.184  0.1291 -0.8710 -1.5861
  165SAPE  H18S18515   0.944   1.613   4.124  0.4658  0.2177  0.6324
  165SAPE  C21918516   0.910   1.738   4.294 -0.8149  0.5602  0.2170
  165SAPE  H19R18517   0.804   1.749   4.262 -1.8310 -2.4178  2.1828
  165SAPE  H19S18518   0.933   1.838   4.337  2.1223 -0.4535  1.2470
  165SAPE  C22018519   0.937   1.630   4.403 -0.0334  0.4314 -0.2072
  165SAPE  H20R18520   0.876   1.646   4.494  0.6573 -2.1901  0.8180
  165SAPE  H20S18521   1.044   1.637   4.435 -0.2146  3.0438  0.0747
  165SAPE  H20T18522   0.899   1.537   4.357 -1.2501  1.1984 -0.8149
  165SAPE   C3318523   1.220   1.471   3.042 -1.0230 -0.8335 -0.3310
  165SAPE   H3X18524   1.220   1.580   3.021 -0.4090 -0.8139 -0.2440
  165SAPE   H3Y18525   1.319   1.444   2.997 -1.0720 -0.8962 -0.4025
  165SAPE   C3418526   1.219   1.447   3.196 -0.4655 -0.2463 -0.0416
  165SAPE   H4X18527   1.283   1.526   3.242 -2.0374  0.8376  0.3644
  165SAPE   H4Y18528   1.270   1.348   3.198  0.2748  0.1330  0.5705
  165SAPE   C3518529   1.091   1.438   3.276  0.2216 -0.1073 -0.6978
  165SAPE   H5X18530   1.046   1.338   3.256  0.4898 -0.3830  0.0466
  165SAPE   H5Y18531   1.035   1.532   3.256 -0.9441 -0.4063  0.9361
  165SAPE   C3618532   1.112   1.444   3.429  0.3062  0.0883  0.4107
  165SAPE   H6X18533   1.014   1.461   3.478  0.4208  1.7320  0.1267
  165SAPE   H6Y18534   1.177   1.528   3.460  1.8499  0.1007 -2.5066
  165SAPE   C3718535   1.169   1.308   3.479  0.3833  0.0475  0.1251
  165SAPE   H7X18536   1.265   1.282   3.429  0.4497  0.1070  0.2212
  165SAPE   H7Y18537   1.095   1.228   3.459 -0.4601  1.2352 -1.8402
  165SAPE   C3818538   1.194   1.313   3.627  0.6440 -0.3669  0.3118
  165SAPE   H8X18539   1.108   1.348   3.689  0.3170 -1.7521  0.6819
  165SAPE   H8Y18540   1.267   1.396   3.639 -2.1474  2.2489  0.3326
  165SAPE   C3918541   1.248   1.183   3.684 -0.6689  0.4631 -0.6786
  165SAPE   H9X18542   1.347   1.158   3.642 -1.4602  1.0230 -3.0260
  165SAPE   H9Y18543   1.172   1.113   3.643 -1.4199 -0.0612  1.4600
  165SAPE  C31018544   1.270   1.189   3.838  0.1828  0.0372 -0.3382
  165SAPE  H10X18545   1.173   1.231   3.872 -0.0101 -0.5511 -0.1433
  165SAPE  H10Y18546   1.349   1.263   3.863  0.3264  0.2166 -1.2638
  165SAPE  C31118547   1.309   1.049   3.899 -0.3995  0.7427  0.5035
  165SAPE  H11X18548   1.403   1.015   3.851  0.2071  1.7700  0.9192
  165SAPE  H11Y18549   1.223   0.984   3.871  0.9894  0.0412 -2.6134
  165SAPE  C31218550   1.311   1.037   4.053  0.5573  0.2656 -0.4551
  165SAPE  H12X18551   1.286   0.929   4.066  1.7013 -0.0846 -1.0230
  165SAPE  H12Y18552   1.226   1.095   4.095 -0.1201  0.0182 -1.4448
  165SAPE  C31318553   1.443   1.055   4.110 -0.0542  1.4111 -0.0460
  165SAPE  H13X18554   1.438   1.077   4.218 -2.0599  2.3081 -0.2898
  165SAPE  H13Y18555   1.488   1.137   4.050 -1.1429 -0.1760 -3.2655
  165SAPE  C31418556   1.522   0.923   4.099 -0.6308  0.0616 -0.2797
  165SAPE  H14X18557   1.523   0.883   3.995  0.2367  0.4019 -0.4162
  165SAPE  H14Y18558   1.481   0.842   4.163  0.7922 -0.3516  0.1419
  165SAPE  C31518559   1.671   0.944   4.119  0.2093  0.2938  0.4219
  165SAPE  H15X18560   1.699   1.036   4.063 -0.6942  0.8839  0.9072
  165SAPE  H15Y18561   1.741   0.867   4.081  2.8084  1.8037  1.8976
  165SAPE  C31618562   1.705   0.956   4.264 -0.0322 -0.8052 -0.0093
  165SAPE  H16X18563   1.629   0.910   4.330  1.5759 -0.2532  2.3176
  165SAPE  H16Y18564   1.716   1.066   4.278  1.7053 -0.8747 -0.6185
  165SAPE  C31718565   1.847   0.901   4.295  0.4182  0.8708  0.2179
  165SAPE  H17X18566   1.920   0.934   4.217 -0.6347  1.9026 -0.3640
  165SAPE  H17Y18567   1.831   0.792   4.306 -0.4117  0.9496 -0.1541
  165SAPE  C31818568   1.896   0.959   4.430  0.1165  0.0101 -0.2631
  165SAPE  H18X18569   1.911   1.069   4.429  0.8133 -0.0423  1.2992
  165SAPE  H18Y18570   1.996   0.912   4.442  0.2862  0.1908 -0.9366
  165SAPE  H18Z18571   1.839   0.929   4.521  1.6359 -2.9125 -0.1314
  166SAPE     N18572   6.822   2.457   2.044  0.4826 -0.7724  0.0075
  166SAPE   HN118573   6.903   2.447   1.979 -0.3618 -2.2266 -0.8783
  166SAPE   HN218574   6.734   2.449   1.988  0.8075 -1.8104 -0.3877
  166SAPE   HN318575   6.828   2.550   2.090 -0.0434 -1.6978  2.0566
  166SAPE   C1218576   6.824   2.345   2.143 -0.2264 -0.0376 -0.2767
  166SAPE  H12A18577   6.783   2.254   2.094  0.1009  0.1395 -0.8974
  166SAPE  H12B18578   6.744   2.369   2.217 -0.2239 -0.9535  0.0410
  166SAPE   C1118579   6.965   2.322   2.204  0.3442 -0.5574  0.0257
  166SAPE  H11A18580   6.952   2.220   2.246 -0.0388 -0.7888 -0.6307
  166SAPE  H11B18581   6.974   2.410   2.272  1.0057  0.4741 -1.3370
  166SAPE     P18582   7.170   2.219   2.084 -0.7130 -0.3259  0.1204
  166SAPE   O1318583   7.120   2.103   2.014  0.3251 -0.0521  0.5147
  166SAPE   O1418584   7.279   2.291   2.015 -0.1105  0.2616  0.1957
  166SAPE   O1218585   7.059   2.325   2.102 -0.3280  0.3274 -0.0436
  166SAPE   O1118586   7.205   2.179   2.230 -0.0998 -0.6370 -0.0620
  166SAPE    C118587   7.302   2.241   2.314 -0.1322  0.7264  0.1214
  166SAPE    HA18588   7.402   2.195   2.297 -0.9173 -0.7800 -0.6037
  166SAPE    HB18589   7.322   2.347   2.284 -2.0379  0.6273 -1.6685
  166SAPE    C218590   7.283   2.233   2.465  0.1336 -0.4067  1.1398
  166SAPE    HS18591   7.284   2.127   2.499  0.0636 -0.8025 -0.0581
  166SAPE   O2118592   7.172   2.310   2.510  0.5941  0.1950  0.5419
  166SAPE   C2118593   7.084   2.237   2.575  0.5409 -0.1766  0.5028
  166SAPE   O2218594   7.091   2.120   2.595 -0.5563 -0.0369  0.1430
  166SAPE   C2218595   6.961   2.309   2.609  0.0447  0.5227  0.1225
  166SAPE   H2R18596   6.960   2.416   2.579 -0.1513  0.8306  1.1807
  166SAPE   H2S18597   6.878   2.257   2.556  1.6540 -2.0302 -0.0663
  166SAPE    C318598   7.409   2.300   2.532  0.2020  0.7629  0.1390
  166SAPE    HX18599   7.407   2.402   2.488  2.5889 -0.0414 -2.1857
  166SAPE    HY18600   7.493   2.240   2.489 -0.9486 -0.5447 -0.3783
  166SAPE   O3118601   7.405   2.288   2.676 -0.8792  0.5048  0.0395
  166SAPE   C3118602   7.520   2.268   2.745 -0.5267 -0.3765  0.1868
  166SAPE   O3218603   7.630   2.281   2.691  0.6991  0.2622 -0.0132
  166SAPE   C3218604   7.481   2.231   2.889  0.4461 -0.5425 -0.6540
  166SAPE   H2X18605   7.467   2.121   2.895  0.1210 -0.5503 -1.4248
  166SAPE   H2Y18606   7.382   2.276   2.912  0.1891 -1.0204 -0.7982
  166SAPE   C2318607   6.926   2.300   2.757 -0.4454  0.0269 -0.3290
  166SAPE   H3R18608   6.932   2.195   2.791 -1.6687 -0.4835 -1.5898
  166SAPE   H3S18609   6.826   2.345   2.775 -0.7781 -0.7472 -0.1930
  166SAPE   C2418610   7.024   2.402   2.830  0.7424 -0.1087 -0.3542
  166SAPE   H4R18611   6.977   2.503   2.835  1.4947  0.2580 -0.4530
  166SAPE   H4S18612   7.116   2.416   2.769  0.9149 -2.3321 -0.6728
  166SAPE   C2518613   7.045   2.338   2.963  0.1287  0.3527  0.0095
  166SAPE   H5R18614   7.075   2.232   2.966 -1.7458 -0.1871  1.6728
  166SAPE   C2618615   7.024   2.403   3.083 -0.0389 -0.0987 -0.3683
  166SAPE   H6R18616   7.024   2.347   3.178 -1.4396 -1.4594 -1.1296
  166SAPE   C2718617   6.999   2.555   3.093 -0.1789  0.1496 -0.2554
  166SAPE   H7R18618   6.993   2.608   2.995  2.9104 -1.5425 -1.4981
  166SAPE   H7S18619   7.082   2.604   3.149  0.0405  0.4217 -0.8060
  166SAPE   C2818620   6.869   2.578   3.172 -0.1851 -0.6527 -0.7732
  166SAPE   H8R18621   6.777   2.533   3.132 -2.5338  3.1617 -0.1791
  166SAPE   C2918622   6.853   2.649   3.292  0.7765  0.3099 -0.0438
  166SAPE   H9R18623   6.751   2.656   3.333  0.1611 -1.5997 -1.0727
  166SAPE  C21018624   6.955   2.713   3.373 -0.8019 -0.5355  0.1474
  166SAPE  H10R18625   7.061   2.690   3.349 -0.1907  3.1214 -1.4129
  166SAPE  H10S18626   6.945   2.680   3.479 -0.5230  1.7399  0.9539
  166SAPE  C21118627   6.950   2.868   3.376 -0.5079 -0.2382 -0.2542
  166SAPE  H11R18628   7.017   2.909   3.299  0.1384  0.7297  0.8024
  166SAPE  C21218629   6.886   2.959   3.457  0.5498  0.2604  0.0417
  166SAPE  H12R18630   6.909   3.067   3.456  1.3710  0.0934 -0.0249
  166SAPE  C21318631   6.789   2.916   3.568  0.7220 -0.6173 -0.6589
  166SAPE  H13R18632   6.833   2.847   3.643  0.0567  1.2062  1.5299
  166SAPE  H13S18633   6.695   2.865   3.537 -0.2423  0.6500  0.0810
  166SAPE  C21418634   6.736   3.039   3.643  0.5442  0.3178 -0.3147
  166SAPE  H14R18635   6.641   3.079   3.605  1.2486  0.5182 -1.9609
  166SAPE  C21518636   6.812   3.110   3.731  0.7529  0.2215 -0.1195
  166SAPE  H15R18637   6.770   3.204   3.770  3.2781  1.5452 -0.3550
  166SAPE  C21618638   6.949   3.082   3.779 -0.2679  0.2212 -0.1337
  166SAPE  H16R18639   7.000   3.002   3.721 -0.1498  0.5041 -0.4206
  166SAPE  H16S18640   6.954   3.037   3.881 -0.3503 -3.2628 -1.5131
  166SAPE  C21718641   7.040   3.204   3.769  0.1136  0.1277  0.3382
  166SAPE  H17R18642   7.057   3.241   3.666 -0.1854  2.3129  1.0283
  166SAPE  H17S18643   7.143   3.172   3.797  1.9634  2.7529 -2.7853
  166SAPE  C21818644   7.009   3.327   3.849 -0.0045  0.3935  0.6653
  166SAPE  H18R18645   6.933   3.308   3.929  0.1793  1.1873  1.0335
  166SAPE  H18S18646   6.962   3.398   3.778  2.0044  0.1449 -0.9781
  166SAPE  C21918647   7.136   3.403   3.903 -0.2708 -0.0207 -0.7429
  166SAPE  H19R18648   7.218   3.397   3.829  0.1763  0.2090 -0.2698
  166SAPE  H19S18649   7.173   3.358   3.998 -0.3505  1.5335  0.0569
  166SAPE  C22018650   7.107   3.554   3.936  0.2019  0.6592  1.1041
  166SAPE  H20R18651   7.086   3.620   3.849 -1.2060 -1.5576 -0.3269
  166SAPE  H20S18652   7.197   3.602   3.980 -1.6417  4.4517  1.1777
  166SAPE  H20T18653   7.025   3.573   4.008 -0.7823 -0.4817  0.3338
  166SAPE   C3318654   7.578   2.284   2.994 -0.2276 -0.0691 -0.2534
  166SAPE   H3X18655   7.590   2.392   2.972 -1.0714 -0.3392 -2.1818
  166SAPE   H3Y18656   7.677   2.233   2.987  0.6219  1.4536 -0.0414
  166SAPE   C3418657   7.527   2.257   3.132  0.7029 -0.2929 -0.3147
  166SAPE   H4X18658   7.610   2.291   3.197  0.4470  0.4196 -0.3506
  166SAPE   H4Y18659   7.494   2.152   3.148  0.1048 -0.3128 -1.5558
  166SAPE   C3518660   7.420   2.350   3.189  0.2121 -0.3881  0.4565
  166SAPE   H5X18661   7.328   2.333   3.129  0.5514 -0.1510 -0.1460
  166SAPE   H5Y18662   7.452   2.456   3.176 -4.3246  0.9958 -1.6918
  166SAPE   C3618663   7.400   2.331   3.343  0.4103 -0.0436  0.3382
  166SAPE   H6X18664   7.489   2.332   3.410  0.9715 -2.0174 -0.3195
  166SAPE   H6Y18665   7.361   2.228   3.351  1.2245 -0.5131 -1.3779
  166SAPE   C3718666   7.278   2.416   3.390 -0.4458 -0.7952 -0.1936
  166SAPE   H7X18667   7.193   2.384   3.327 -1.4750  1.0635  0.2022
  166SAPE   H7Y18668   7.299   2.523   3.371 -0.6527 -0.4858  1.2241
  166SAPE   C3818669   7.260   2.411   3.543  0.3690 -0.4375 -0.3354
  166SAPE   H8X18670   7.348   2.447   3.601 -1.2498  1.0235  1.3279
  166SAPE   H8Y18671   7.237   2.308   3.579 -0.0820  0.5842  2.6042
  166SAPE   C3918672   7.148   2.503   3.582 -0.8489  0.3614  0.2601
  166SAPE   H9X18673   7.046   2.462   3.564  0.0387 -3.0310  2.0509
  166SAPE   H9Y18674   7.157   2.598   3.527 -0.6541 -0.3403 -0.9619
  166SAPE  C31018675   7.151   2.553   3.737  0.5144 -0.2196 -0.4254
  166SAPE  H10X18676   7.248   2.605   3.753 -0.0282  1.1618 -1.4393
  166SAPE  H10Y18677   7.144   2.460   3.798 -1.4083  0.4440  0.4130
  166SAPE  C31118678   7.027   2.638   3.774  0.2550 -0.1113 -0.5277
  166SAPE  H11X18679   6.938   2.572   3.788  1.4029 -1.2164  2.4258
  166SAPE  H11Y18680   7.005   2.703   3.687 -0.7039  0.2742 -0.0180
  166SAPE  C31218681   7.029   2.722   3.907  0.7955  0.4957 -0.3659
  166SAPE  H12X18682   7.102   2.803   3.889  2.2559 -0.7330 -0.1756
  166SAPE  H12Y18683   7.069   2.660   3.990 -2.9242 -0.7517  0.7017
  166SAPE  C31318684   6.895   2.773   3.943  0.6054  0.5690 -0.3578
  166SAPE  H13X18685   6.845   2.829   3.861 -1.4957  0.3354  0.7175
  166SAPE  H13Y18686   6.923   2.842   4.026  1.5604 -0.0714 -0.1313
  166SAPE  C31418687   6.794   2.671   3.999 -0.1379 -0.0925 -0.1781
  166SAPE  H14X18688   6.858   2.610   4.066  1.5791  1.8414  0.0451
  166SAPE  H14Y18689   6.755   2.602   3.921 -1.6794 -1.5724  1.8137
  166SAPE  C31518690   6.687   2.728   4.095  0.1181 -0.2510  0.8040
  166SAPE  H15X18691   6.748   2.776   4.175  0.9162 -0.3222  0.2540
  166SAPE  H15Y18692   6.618   2.650   4.134 -1.9275  0.7321 -0.6689
  166SAPE  C31618693   6.584   2.819   4.022  0.6588 -0.1879 -0.3401
  166SAPE  H16X18694   6.550   2.779   3.924 -3.0430  0.1418  0.6578
  166SAPE  H16Y18695   6.621   2.924   4.015 -1.7231  0.9023  1.7908
  166SAPE  C31718696   6.442   2.825   4.088  0.9637  0.0017 -0.3574
  166SAPE  H17X18697   6.392   2.726   4.095 -2.6806  1.7750  1.0884
  166SAPE  H17Y18698   6.381   2.899   4.033  0.2802  1.1585  1.8127
  166SAPE  C31818699   6.441   2.883   4.227 -0.7291  0.0411  0.3414
  166SAPE  H18X18700   6.491   2.811   4.295 -1.4420 -0.2555  0.5645
  166SAPE  H18Y18701   6.337   2.894   4.265 -0.4768  0.5739  0.8829
  166SAPE  H18Z18702   6.489   2.982   4.219  0.4640 -0.6111 -1.0021
  167SAPE     N18703   2.359   0.319   2.420  0.3614 -0.6763  0.2779
  167SAPE   HN118704   2.280   0.353   2.361  0.1478  0.3458  1.1117
  167SAPE   HN218705   2.446   0.364   2.388 -1.3596  3.3698  0.7081
  167SAPE   HN318706   2.362   0.217   2.402 -1.9374 -0.8733  0.6154
  167SAPE   C1218707   2.333   0.327   2.565  0.1151 -0.4193 -0.3388
  167SAPE  H12A18708   2.323   0.436   2.583 -0.3169  0.1582 -3.5230
  167SAPE  H12B18709   2.422   0.289   2.619  1.5956  1.3061 -1.4417
  167SAPE   C1118710   2.217   0.236   2.602 -0.3932  0.2071  0.7866
  167SAPE  H11A18711   2.190   0.256   2.708  0.3116  1.6924  0.7216
  167SAPE  H11B18712   2.264   0.137   2.583 -0.9507  0.2394 -0.8667
  167SAPE     P18713   2.017   0.372   2.534 -0.3328  0.0705 -0.1067
  167SAPE   O1318714   2.093   0.499   2.525 -0.0113 -0.8571 -0.0640
  167SAPE   O1418715   1.895   0.366   2.452 -0.3459 -0.1862  0.0622
  167SAPE   O1218716   2.105   0.239   2.505 -0.1316  0.4124 -0.3610
  167SAPE   O1118717   1.978   0.368   2.683 -0.8424 -0.5384  0.2818
  167SAPE    C118718   1.900   0.264   2.735  0.1435 -0.1634 -0.3290
  167SAPE    HA18719   1.814   0.243   2.669 -0.3753  2.2778 -0.5318
  167SAPE    HB18720   1.971   0.178   2.741 -1.5926 -1.5869  0.9898
  167SAPE    C218721   1.842   0.313   2.869 -0.9945 -0.1305  0.5796
  167SAPE    HS18722   1.925   0.347   2.935 -1.6965  0.9248  0.9518
  167SAPE   O2118723   1.779   0.203   2.938  0.3209  0.1493 -0.4366
  167SAPE   C2118724   1.849   0.100   2.976 -0.3169 -0.4300 -0.3956
  167SAPE   O2218725   1.971   0.088   2.970 -0.0291 -0.4911 -0.0064
  167SAPE   C2218726   1.755  -0.005   3.034 -0.8471 -0.2753 -0.4694
  167SAPE   H2R18727   1.692   0.043   3.112 -0.5168  0.0505 -0.4034
  167SAPE   H2S18728   1.699  -0.051   2.950  1.6957 -0.3944 -2.1756
  167SAPE    C318729   1.742   0.430   2.862 -0.3697 -0.0577  0.1970
  167SAPE    HX18730   1.648   0.380   2.828 -2.2821  3.7177 -0.6933
  167SAPE    HY18731   1.776   0.507   2.789 -0.7742  0.6978  0.7846
  167SAPE   O3118732   1.711   0.483   2.994 -0.4648 -0.1239  0.2422
  167SAPE   C3118733   1.803   0.583   3.029  1.1483  0.3536 -0.6923
  167SAPE   O3218734   1.907   0.597   2.969 -0.8848  0.0269 -0.3961
  167SAPE   C3218735   1.762   0.648   3.162  0.0582 -0.0149  0.1825
  167SAPE   H2X18736   1.762   0.572   3.243  0.7579 -1.0758 -0.7933
  167SAPE   H2Y18737   1.654   0.671   3.151 -0.0572 -0.2572  0.7832
  167SAPE   C2318738   1.845  -0.110   3.106 -0.5350  0.5326  0.3666
  167SAPE   H3R18739   1.927  -0.150   3.042 -1.6376 -0.8690 -0.2443
  167SAPE   H3S18740   1.784  -0.202   3.115 -1.0458  0.6680 -1.2856
  167SAPE   C2418741   1.875  -0.083   3.256 -0.2360  0.3921 -0.3078
  167SAPE   H4R18742   1.779  -0.077   3.313 -2.8999 -1.4563 -4.1422
  167SAPE   H4S18743   1.927   0.013   3.278 -3.3525  1.6478  2.6276
  167SAPE   C2518744   1.959  -0.189   3.319 -0.4669 -0.3455 -0.3000
  167SAPE   H5R18745   2.007  -0.254   3.244  2.6968  2.0448 -0.5866
  167SAPE   C2618746   1.981  -0.214   3.448 -0.0175 -0.1571 -0.0890
  167SAPE   H6R18747   2.028  -0.311   3.473  1.4323  0.5524  0.0194
  167SAPE   C2718748   1.934  -0.131   3.567  0.1056  0.1205 -0.8183
  167SAPE   H7R18749   1.891  -0.037   3.525 -0.6262  0.4037  0.4907
  167SAPE   H7S18750   2.019  -0.105   3.634 -1.0179  1.4149  0.1844
  167SAPE   C2818751   1.826  -0.206   3.645 -0.3940  0.0352  0.3766
  167SAPE   H8R18752   1.724  -0.191   3.607 -0.8523 -0.9454  1.1794
  167SAPE   C2918753   1.852  -0.279   3.755  0.6164  0.3825 -0.9409
  167SAPE   H9R18754   1.769  -0.329   3.807 -0.5989  1.8299 -1.4236
  167SAPE  C21018755   1.987  -0.327   3.799  0.2530  0.1936 -0.4620
  167SAPE  H10R18756   2.019  -0.278   3.893  2.9915 -2.8840  0.3860
  167SAPE  H10S18757   2.057  -0.307   3.715 -0.4412 -0.7030 -1.2768
  167SAPE  C21118758   1.986  -0.480   3.817 -0.5898  0.4648  0.0585
  167SAPE  H11R18759   1.972  -0.546   3.729 -0.1902 -1.6540  1.5127
  167SAPE  C21218760   1.984  -0.550   3.934  0.2010 -0.5468 -0.5128
  167SAPE  H12R18761   1.988  -0.660   3.932 -0.3356 -0.6716  1.7515
  167SAPE  C21318762   1.989  -0.488   4.075  0.5508 -0.4336  0.2723
  167SAPE  H13R18763   1.885  -0.464   4.107  0.3622 -1.4774  0.4873
  167SAPE  H13S18764   2.048  -0.394   4.076  2.5856 -1.6369 -0.4977
  167SAPE  C21418765   2.055  -0.575   4.179 -0.2365  0.4117  0.1150
  167SAPE  H14R18766   2.164  -0.588   4.172  0.2028  0.4819  4.1647
  167SAPE  C21518767   2.005  -0.619   4.298  0.5848 -0.0207 -0.7080
  167SAPE  H15R18768   2.073  -0.674   4.365  0.9075  3.1228  1.7746
  167SAPE  C21618769   1.862  -0.602   4.347  0.0520 -0.7294  0.7685
  167SAPE  H16R18770   1.835  -0.497   4.325 -0.6763 -0.9700  0.4706
  167SAPE  H16S18771   1.849  -0.625   4.455  1.4027 -1.1459  0.8535
  167SAPE  C21718772   1.758  -0.693   4.262 -0.4539  0.1532  0.1859
  167SAPE  H17R18773   1.767  -0.643   4.163  1.4982  0.1616  0.3172
  167SAPE  H17S18774   1.653  -0.686   4.296 -0.2243  2.9407  0.5604
  167SAPE  C21818775   1.800  -0.842   4.254  0.3248 -0.2206 -0.2864
  167SAPE  H18R18776   1.808  -0.868   4.362  0.5816 -0.2000 -0.2993
  167SAPE  H18S18777   1.898  -0.857   4.203  0.5926 -0.6264  0.3280
  167SAPE  C21918778   1.704  -0.940   4.188 -0.3530  0.7474 -0.0357
  167SAPE  H19R18779   1.622  -0.939   4.263  0.6493 -3.1530  1.3688
  167SAPE  H19S18780   1.745  -1.043   4.183 -0.6968  0.6681 -3.6768
  167SAPE  C22018781   1.676  -0.911   4.045  0.4710 -0.4745 -0.2561
  167SAPE  H20R18782   1.650  -0.807   4.019  2.4670 -0.1138 -1.0265
  167SAPE  H20S18783   1.581  -0.964   4.025 -0.1956  0.2785  0.8603
  167SAPE  H20T18784   1.762  -0.948   3.985 -0.4416 -2.3073 -0.5089
  167SAPE   C3318785   1.854   0.761   3.204 -0.2455  0.6556  0.0298
  167SAPE   H3X18786   1.840   0.834   3.122  1.5960 -0.0550 -0.9645
  167SAPE   H3Y18787   1.959   0.725   3.202 -0.3245  0.4163  0.1397
  167SAPE   C3418788   1.816   0.832   3.333 -0.2657 -0.5577 -0.2312
  167SAPE   H4X18789   1.719   0.883   3.318  0.5413  1.2261  0.3574
  167SAPE   H4Y18790   1.892   0.906   3.363 -1.0637  1.8487 -3.6082
  167SAPE   C3518791   1.811   0.738   3.456  0.5852  0.4748  0.0467
  167SAPE   H5X18792   1.904   0.677   3.443 -0.4415 -1.1370 -0.0781
  167SAPE   H5Y18793   1.733   0.658   3.455  0.9327  0.1332 -0.7503
  167SAPE   C3618794   1.828   0.804   3.597 -0.0040 -0.0205  0.3944
  167SAPE   H6X18795   1.898   0.889   3.588 -0.6583  0.5338  0.4738
  167SAPE   H6Y18796   1.873   0.731   3.668  0.3487  0.6166  0.8387
  167SAPE   C3718797   1.702   0.859   3.664  0.2816  0.7358  0.3033
  167SAPE   H7X18798   1.664   0.938   3.594  2.0309  0.4646 -1.0241
  167SAPE   H7Y18799   1.727   0.895   3.766 -0.2109  0.8628  0.3822
  167SAPE   C3818800   1.586   0.753   3.683  0.4950 -0.4024  0.0631
  167SAPE   H8X18801   1.536   0.707   3.595 -2.7949 -2.1909  2.6219
  167SAPE   H8Y18802   1.509   0.809   3.740  0.3421 -3.2636  2.8991
  167SAPE   C3918803   1.635   0.631   3.762  0.5080 -0.5781  0.2562
  167SAPE   H9X18804   1.688   0.682   3.845 -1.9490  4.0160 -0.6440
  167SAPE   H9Y18805   1.713   0.571   3.710  1.3948  0.0912  0.7894
  167SAPE  C31018806   1.518   0.552   3.818 -0.9012 -0.4919  0.4591
  167SAPE  H10X18807   1.545   0.449   3.850 -0.9588 -0.8775 -0.6609
  167SAPE  H10Y18808   1.449   0.538   3.731 -0.2387 -0.7287 -0.0378
  167SAPE  C31118809   1.441   0.630   3.925 -0.4041  0.6465 -0.6259
  167SAPE  H11X18810   1.389   0.724   3.896 -0.0826  1.5937  1.6514
  167SAPE  H11Y18811   1.518   0.649   4.003 -2.3715  0.8999  1.3445
  167SAPE  C31218812   1.338   0.546   3.993  0.8275 -0.3929  0.1479
  167SAPE  H12X18813   1.375   0.448   4.030  0.6761 -0.0084  1.3852
  167SAPE  H12Y18814   1.256   0.522   3.922  0.1725  2.0949 -0.0362
  167SAPE  C31318815   1.271   0.617   4.116  0.4294  0.1085 -0.1295
  167SAPE  H13X18816   1.204   0.697   4.077 -2.6620 -2.9228 -1.6175
  167SAPE  H13Y18817   1.351   0.663   4.178  0.9758 -0.9079 -0.0615
  167SAPE  C31418818   1.180   0.534   4.206  0.4783  0.3410  0.2926
  167SAPE  H14X18819   1.091   0.518   4.142  1.6033 -3.7483 -0.5387
  167SAPE  H14Y18820   1.159   0.609   4.285  0.2949  2.2325 -1.4872
  167SAPE  C31518821   1.235   0.406   4.277  0.0745 -0.4472 -0.3583
  167SAPE  H15X18822   1.337   0.439   4.305 -0.1768  0.1624 -0.1355
  167SAPE  H15Y18823   1.243   0.318   4.209 -2.5024 -1.7106  0.8211
  167SAPE  C31618824   1.155   0.350   4.394  0.0569 -0.1543 -0.3775
  167SAPE  H16X18825   1.232   0.287   4.444  0.6818  1.8704  1.3641
  167SAPE  H16Y18826   1.070   0.283   4.370  0.1897 -0.6969  0.6178
  167SAPE  C31718827   1.136   0.447   4.505  0.6631  0.6562 -0.4758
  167SAPE  H17X18828   1.056   0.517   4.472  0.8086  0.5984 -0.9479
  167SAPE  H17Y18829   1.223   0.513   4.524  0.2610  0.8406  0.8929
  167SAPE  C31818830   1.092   0.391   4.640  0.0892  0.1955 -0.0622
  167SAPE  H18X18831   1.121   0.458   4.724  2.2314 -2.7308  1.7624
  167SAPE  H18Y18832   1.141   0.293   4.660  1.3764  0.6147 -0.9987
  167SAPE  H18Z18833   0.984   0.364   4.638  0.4086 -1.3929  1.1765
  168SAPE     N18834   5.434   3.516   2.307 -0.2078  0.0966 -0.2116
  168SAPE   HN118835   5.397   3.436   2.362  0.1578  1.4273  2.0870
  168SAPE   HN218836   5.524   3.490   2.261 -0.1417  1.6275 -1.0071
  168SAPE   HN318837   5.445   3.599   2.368  1.7226  0.0147 -0.3646
  168SAPE   C1218838   5.338   3.557   2.198 -0.7375 -0.1493  1.2264
  168SAPE  H12A18839   5.238   3.581   2.239 -1.6013 -1.0548 -0.2352
  168SAPE  H12B18840   5.327   3.470   2.129  2.2520  0.5433 -0.2618
  168SAPE   C1118841   5.393   3.674   2.115 -0.1579 -0.2407 -0.0504
  168SAPE  H11A18842   5.306   3.734   2.081 -1.8594 -1.8783  1.1731
  168SAPE  H11B18843   5.453   3.629   2.033 -0.9806  1.5524 -1.7147
  168SAPE     P18844   5.453   3.897   2.227  0.2173 -0.3302 -0.3194
  168SAPE   O1318845   5.488   3.979   2.110  0.0660 -0.0325 -0.0423
  168SAPE   O1418846   5.313   3.903   2.268  0.0797 -0.0753 -0.4066
  168SAPE   O1218847   5.489   3.748   2.186  0.5043  0.3551 -0.3062
  168SAPE   O1118848   5.536   3.929   2.356 -0.2149 -0.9686 -0.3758
  168SAPE    C118849   5.674   3.874   2.352  0.9036  0.1325 -0.7690
  168SAPE    HA18850   5.707   3.838   2.252  1.0344  0.6733 -0.9259
  168SAPE    HB18851   5.732   3.967   2.373 -2.0786  1.7885  0.8576
  168SAPE    C218852   5.687   3.769   2.460  0.2110 -0.0355 -0.3459
  168SAPE    HS18853   5.647   3.674   2.420 -1.5131  1.0819 -1.3655
  168SAPE   O2118854   5.611   3.825   2.573  0.3208  0.6659  0.1915
  168SAPE   C2118855   5.485   3.774   2.587 -0.0427  0.3950  0.7146
  168SAPE   O2218856   5.429   3.691   2.515 -0.0400  0.4607 -0.2275
  168SAPE   C2218857   5.417   3.841   2.702  0.1191  0.6218  0.0347
  168SAPE   H2R18858   5.484   3.912   2.755  0.1709  1.8262 -1.5666
  168SAPE   H2S18859   5.333   3.900   2.659 -0.7631 -0.3014  0.4799
  168SAPE    C318860   5.836   3.749   2.495  0.1169  0.0325 -0.8749
  168SAPE    HX18861   5.898   3.841   2.499  1.0093 -0.5411  3.0726
  168SAPE    HY18862   5.877   3.688   2.412  0.5458 -1.5623  0.4462
  168SAPE   O3118863   5.851   3.677   2.624 -0.2155  0.0134  0.4889
  168SAPE   C3118864   5.971   3.683   2.679  0.2642 -0.0047 -0.1438
  168SAPE   O3218865   6.070   3.732   2.620 -0.2737 -0.4167  0.0444
  168SAPE   C3218866   5.977   3.612   2.811 -0.2181  0.3363  0.1015
  168SAPE   H2X18867   5.981   3.505   2.784 -1.6530  0.5486 -1.0405
  168SAPE   H2Y18868   5.881   3.641   2.860 -1.8131  0.6125 -2.9426
  168SAPE   C2318869   5.362   3.733   2.800  0.2457 -0.4768 -1.0253
  168SAPE   H3R18870   5.295   3.660   2.749 -5.1071  1.6506  2.0602
  168SAPE   H3S18871   5.296   3.771   2.882 -1.4895  1.6422 -3.2731
  168SAPE   C2418872   5.473   3.660   2.875  0.4456  0.5547 -0.3195
  168SAPE   H4R18873   5.543   3.605   2.808  0.7585  0.7510 -0.1579
  168SAPE   H4S18874   5.429   3.579   2.936  3.8462  0.0649  1.7270
  168SAPE   C2518875   5.562   3.738   2.966 -0.1066  0.5454 -0.2084
  168SAPE   H5R18876   5.655   3.776   2.922  0.9485 -1.5044  0.1001
  168SAPE   C2618877   5.531   3.774   3.092  0.2295 -0.3634  0.5335
  168SAPE   H6R18878   5.605   3.826   3.153 -1.2366  1.3025  0.9581
  168SAPE   C2718879   5.412   3.712   3.162  0.5602 -0.9338  0.0736
  168SAPE   H7R18880   5.431   3.615   3.214 -0.3967 -1.2918 -0.2105
  168SAPE   H7S18881   5.334   3.678   3.090  1.3692  0.2190 -1.3929
  168SAPE   C2818882   5.346   3.819   3.251  0.1470  0.5618 -0.4111
  168SAPE   H8R18883   5.312   3.904   3.190  1.2678  0.2417 -1.5097
  168SAPE   C2918884   5.327   3.828   3.386 -0.2196  0.1200 -0.1974
  168SAPE   H9R18885   5.265   3.911   3.423 -1.4977 -0.1341 -1.6588
  168SAPE  C21018886   5.383   3.731   3.491 -0.5669 -0.0211 -0.4298
  168SAPE  H10R18887   5.474   3.779   3.534 -1.6909  0.5561  1.4336
  168SAPE  H10S18888   5.421   3.640   3.438  1.1240  0.9186 -0.9177
  168SAPE  C21118889   5.292   3.686   3.603  1.0234  0.0506  0.6413
  168SAPE  H11R18890   5.198   3.641   3.567  1.4322 -0.0160 -0.3784
  168SAPE  C21218891   5.318   3.696   3.736 -0.0010  0.6145 -0.4725
  168SAPE  H12R18892   5.243   3.663   3.809  0.3758 -0.6596 -0.6273
  168SAPE  C21318893   5.436   3.746   3.808  0.2194 -0.8948  0.2292
  168SAPE  H13R18894   5.407   3.780   3.910 -1.3379  2.2733 -1.1390
  168SAPE  H13S18895   5.467   3.845   3.769 -1.0390  0.8217  3.2071
  168SAPE  C21418896   5.545   3.645   3.802 -0.0440 -0.3195 -0.5519
  168SAPE  H14R18897   5.560   3.606   3.700 -0.4418 -0.9313 -0.3774
  168SAPE  C21518898   5.621   3.606   3.899  0.1764  0.0277 -0.4751
  168SAPE  H15R18899   5.694   3.527   3.876  0.8099  0.7393 -0.9931
  168SAPE  C21618900   5.629   3.660   4.036  0.0464  0.2200 -0.0533
  168SAPE  H16R18901   5.556   3.603   4.098  0.1083  0.5001  0.2771
  168SAPE  H16S18902   5.605   3.768   4.034  1.8061  0.6275 -0.9767
  168SAPE  C21718903   5.760   3.643   4.108 -0.3441  0.5015 -0.5654
  168SAPE  H17R18904   5.829   3.699   4.041 -0.9755 -1.2159 -2.7804
  168SAPE  H17S18905   5.781   3.534   4.106 -0.7707  0.3667  0.9511
  168SAPE  C21818906   5.758   3.686   4.254  0.2914  0.6976 -0.2111
  168SAPE  H18R18907   5.654   3.706   4.287 -0.4909 -2.2325 -0.5585
  168SAPE  H18S18908   5.816   3.780   4.253  0.7315  0.4442 -1.5593
  168SAPE  C21918909   5.836   3.578   4.338 -0.2617  0.7156 -0.0177
  168SAPE  H19R18910   5.931   3.571   4.281 -0.2890 -3.2389  0.2062
  168SAPE  H19S18911   5.783   3.481   4.334  2.0854 -0.6800  0.7641
  168SAPE  C22018912   5.863   3.613   4.488 -0.5734 -0.9167  0.8399
  168SAPE  H20R18913   5.777   3.649   4.549 -1.2353 -0.1145 -0.4989
  168SAPE  H20S18914   5.921   3.707   4.490  0.5027 -1.5481  0.1954
  168SAPE  H20T18915   5.909   3.529   4.543 -2.7624 -1.0535  2.6356
  168SAPE   C3318916   6.098   3.665   2.895 -0.8180 -0.6729  0.2572
  168SAPE   H3X18917   6.108   3.774   2.882  0.8949 -1.1408 -3.7698
  168SAPE   H3Y18918   6.199   3.628   2.866 -0.7606 -0.6226  0.3917
  168SAPE   C3418919   6.078   3.643   3.046  0.2048 -0.1456 -0.3249
  168SAPE   H4X18920   6.044   3.538   3.058 -0.6581  0.1201 -0.3575
  168SAPE   H4Y18921   6.004   3.720   3.079  1.3951  0.8742  0.0501
  168SAPE   C3518922   6.209   3.676   3.120  0.2446  0.6239 -0.0507
  168SAPE   H5X18923   6.242   3.781   3.128 -0.0703  0.6239  1.8752
  168SAPE   H5Y18924   6.294   3.618   3.077  0.0596 -1.2952  1.9650
  168SAPE   C3618925   6.214   3.622   3.269  0.1290  0.7871  0.2749
  168SAPE   H6X18926   6.194   3.514   3.256  1.3616  0.5006  0.6860
  168SAPE   H6Y18927   6.137   3.665   3.337  0.7803 -2.3370  3.1874
  168SAPE   C3718928   6.350   3.624   3.342 -0.1369 -0.3897 -0.4131
  168SAPE   H7X18929   6.422   3.579   3.271 -0.6208 -0.9468 -0.5576
  168SAPE   H7Y18930   6.340   3.545   3.420  0.2516 -1.0124 -0.9778
  168SAPE   C3818931   6.395   3.766   3.394  0.6397  1.0075 -0.3682
  168SAPE   H8X18932   6.425   3.838   3.315 -0.5605  0.8681 -0.9790
  168SAPE   H8Y18933   6.491   3.747   3.447 -0.0262 -3.1555 -0.3466
  168SAPE   C3918934   6.305   3.828   3.507  0.2550 -0.1547  0.2954
  168SAPE   H9X18935   6.318   3.770   3.601 -0.1200  0.3996  0.7046
  168SAPE   H9Y18936   6.199   3.831   3.473  0.4312  0.2860 -0.2253
  168SAPE  C31018937   6.359   3.975   3.540  0.0908 -0.0004  0.3674
  168SAPE  H10X18938   6.329   4.053   3.467 -0.6720  1.0264  1.7306
  168SAPE  H10Y18939   6.467   3.976   3.515  0.2686  0.5177  1.1220
  168SAPE  C31118940   6.331   4.039   3.681 -1.1199 -0.0171 -0.2099
  168SAPE  H11X18941   6.221   4.048   3.693 -0.9490  2.8308 -0.3066
  168SAPE  H11Y18942   6.373   4.141   3.684  0.0011 -0.4777  1.3363
  168SAPE  C31218943   6.381   3.946   3.800  0.0355 -0.2081  0.2865
  168SAPE  H12X18944   6.488   3.925   3.782 -0.5431 -0.6616 -3.1877
  168SAPE  H12Y18945   6.320   3.853   3.793  2.2928 -1.9732  2.3538
  168SAPE  C31318946   6.367   4.016   3.942  0.2570  0.4835  0.2723
  168SAPE  H13X18947   6.261   4.046   3.956  0.4308  1.4684 -0.4280
  168SAPE  H13Y18948   6.431   4.106   3.930  0.9457 -0.0990 -0.5722
  168SAPE  C31418949   6.404   3.912   4.050  0.3006 -0.0397  0.4350
  168SAPE  H14X18950   6.511   3.938   4.067  0.8165  0.8426 -3.2518
  168SAPE  H14Y18951   6.404   3.808   4.010  3.1397 -0.2265  0.6926
  168SAPE  C31518952   6.318   3.926   4.174 -0.2122 -0.7117 -0.0189
  168SAPE  H15X18953   6.356   3.855   4.251 -0.7178  1.9523  2.9151
  168SAPE  H15Y18954   6.213   3.891   4.162 -0.5031 -0.1880  0.8628
  168SAPE  C31618955   6.314   4.065   4.246  0.1527 -0.3997 -0.1647
  168SAPE  H16X18956   6.254   4.136   4.185 -1.0836 -0.8349  0.5236
  168SAPE  H16Y18957   6.415   4.112   4.244 -1.3198  2.9982 -0.3928
  168SAPE  C31718958   6.269   4.055   4.396  0.1257 -0.1580  0.6350
  168SAPE  H17X18959   6.345   3.992   4.448 -0.3582 -2.9940 -1.7940
  168SAPE  H17Y18960   6.172   4.002   4.404 -1.5960  2.8799  1.4578
  168SAPE  C31818961   6.266   4.189   4.464  1.1336 -0.3152  0.5397
  168SAPE  H18X18962   6.368   4.232   4.480  1.0958 -0.6955  1.9523
  168SAPE  H18Y18963   6.229   4.174   4.567  0.3549  0.9957  0.4783
  168SAPE  H18Z18964   6.216   4.260   4.394  2.4143 -2.1153 -2.3775
  169SAPE     N18965   2.117   6.630   2.371  0.4538  0.2672  0.3615
  169SAPE   HN118966   2.053   6.652   2.292  0.1005 -0.4650  0.4304
  169SAPE   HN218967   2.052   6.641   2.451 -0.0724  2.8774 -0.3469
  169SAPE   HN318968   2.193   6.699   2.384  1.6703 -1.0386  0.4803
  169SAPE   C1218969   2.163   6.488   2.355  0.4771  0.4448  0.6806
  169SAPE  H12A18970   2.227   6.473   2.265 -0.0311 -4.1446  0.8121
  169SAPE  H12B18971   2.072   6.426   2.343  0.8833 -0.2446  1.0858
  169SAPE   C1118972   2.241   6.437   2.480  0.2728 -0.2293 -0.2697
  169SAPE  H11A18973   2.329   6.503   2.497 -0.0357 -0.1111  0.9406
  169SAPE  H11B18974   2.281   6.336   2.457  1.2565  0.1738 -0.3608
  169SAPE     P18975   2.203   6.298   2.699 -0.5200  0.3853 -0.0590
  169SAPE   O1318976   2.122   6.188   2.639 -0.7922 -0.1725  0.7826
  169SAPE   O1418977   2.353   6.281   2.707  0.7015 -0.3041 -0.1792
  169SAPE   O1218978   2.162   6.428   2.604  0.1856  0.5246 -0.1821
  169SAPE   O1118979   2.150   6.334   2.848  0.1985  0.0465  0.6225
  169SAPE    C118980   2.118   6.471   2.885 -0.6691  0.0315 -0.3374
  169SAPE    HA18981   2.211   6.530   2.871  0.4132 -1.2891  0.8648
  169SAPE    HB18982   2.039   6.517   2.823 -0.8945  0.5585  0.3303
  169SAPE    C218983   2.069   6.471   3.042 -0.1303  0.2718 -0.4855
  169SAPE    HS18984   2.079   6.576   3.077 -0.4916  0.4223 -0.8308
  169SAPE   O2118985   2.148   6.389   3.120  0.3235  0.6029  0.5224
  169SAPE   C2118986   2.275   6.417   3.124 -0.3371  0.2913  0.5721
  169SAPE   O2218987   2.338   6.505   3.065  0.4379  0.0837 -0.3675
  169SAPE   C2218988   2.339   6.330   3.232  0.4945  0.2350  0.4614
  169SAPE   H2R18989   2.324   6.223   3.205 -1.8113  0.0689  2.1050
  169SAPE   H2S18990   2.444   6.363   3.248 -0.3738  2.7751  1.4067
  169SAPE    C318991   1.919   6.427   3.050  0.1810  0.9350  0.5676
  169SAPE    HX18992   1.908   6.317   3.038  1.2137  0.6454  1.9636
  169SAPE    HY18993   1.864   6.475   2.967  0.3728  0.1411 -0.0336
  169SAPE   O3118994   1.867   6.477   3.176  0.3377  0.6912 -0.6558
  169SAPE   C3118995   1.787   6.387   3.247 -0.3835  0.8484  0.6903
  169SAPE   O3218996   1.753   6.279   3.203 -0.2453  0.5536  0.3389
  169SAPE   C3218997   1.744   6.441   3.380 -0.4975  0.2714 -0.6938
  169SAPE   H2X18998   1.737   6.550   3.361  0.9855  0.2626 -1.4087
  169SAPE   H2Y18999   1.827   6.426   3.451 -0.8695 -0.0383 -0.3147
  169SAPE   C2319000   2.271   6.336   3.370  0.5836  0.1689  0.6829
  169SAPE   H3R19001   2.321   6.249   3.418  1.6142 -0.2468 -1.0733
  169SAPE   H3S19002   2.160   6.325   3.363  0.5471  1.2517 -0.9573
  169SAPE   C2419003   2.314   6.458   3.456  0.1718 -0.7515 -1.1835
  169SAPE   H4R19004   2.245   6.543   3.437  0.1123 -0.5455 -0.1312
  169SAPE   H4S19005   2.410   6.507   3.432 -1.6471  4.0934  0.1439
  169SAPE   C2519006   2.295   6.421   3.605  0.7189 -0.0717  0.3768
  169SAPE   H5R19007   2.212   6.351   3.620  0.4101 -0.1261 -1.3621
  169SAPE   C2619008   2.372   6.458   3.711 -0.7277 -0.2782 -0.6448
  169SAPE   H6R19009   2.349   6.443   3.817 -0.4716 -0.5174 -0.6200
  169SAPE   C2719010   2.479   6.564   3.694  0.4571  0.4601 -0.2827
  169SAPE   H7R19011   2.506   6.613   3.790  0.9398  0.0029 -0.1803
  169SAPE   H7S19012   2.448   6.652   3.634 -1.0000 -0.1993 -0.5368
  169SAPE   C2819013   2.602   6.506   3.636  0.1105  0.1061 -0.4766
  169SAPE   H8R19014   2.584   6.476   3.532 -3.3196  0.7647 -0.1949
  169SAPE   C2919015   2.717   6.472   3.700 -0.3823 -0.2811 -0.0927
  169SAPE   H9R19016   2.802   6.442   3.636 -1.2132 -0.5241 -1.1233
  169SAPE  C21019017   2.761   6.484   3.841 -0.5514  0.0207 -0.7788
  169SAPE  H10R19018   2.832   6.403   3.867 -0.4814  0.6311  1.0480
  169SAPE  H10S19019   2.672   6.461   3.903 -1.3373  0.7783 -1.5893
  169SAPE  C21119020   2.820   6.615   3.884  0.2847  0.2846  0.1214
  169SAPE  H11R19021   2.824   6.683   3.798  0.9798 -0.9008 -0.8239
  169SAPE  C21219022   2.847   6.665   4.010  0.2059  0.2604  0.3914
  169SAPE  H12R19023   2.908   6.756   4.023  3.2139 -1.5427 -0.2419
  169SAPE  C21319024   2.838   6.576   4.133 -1.1337  0.5145  0.2157
  169SAPE  H13R19025   2.923   6.506   4.123 -1.6243 -0.0984  0.2786
  169SAPE  H13S19026   2.750   6.510   4.119 -0.7650  0.1221 -0.3208
  169SAPE  C21419027   2.826   6.647   4.271  0.2710  0.1448  0.1820
  169SAPE  H14R19028   2.909   6.628   4.341 -1.5896 -1.8535  2.0130
  169SAPE  C21519029   2.728   6.732   4.308 -0.6195 -0.8626 -0.2204
  169SAPE  H15R19030   2.729   6.781   4.407  1.6598  0.7618 -0.9784
  169SAPE  C21619031   2.610   6.771   4.232  0.7923 -0.4166  0.2535
  169SAPE  H16R19032   2.601   6.709   4.140  0.3865  0.3211 -0.2253
  169SAPE  H16S19033   2.638   6.872   4.196  1.8892  0.0892  2.3636
  169SAPE  C21719034   2.478   6.759   4.316 -0.2175 -0.2756  0.0128
  169SAPE  H17R19035   2.399   6.768   4.238 -2.2332 -2.8172  1.6105
  169SAPE  H17S19036   2.462   6.847   4.383 -2.9370 -0.8011  0.1647
  169SAPE  C21819037   2.458   6.626   4.387  0.1718 -0.5594  0.0494
  169SAPE  H18R19038   2.542   6.584   4.446  0.0478 -1.4366 -0.3812
  169SAPE  H18S19039   2.457   6.557   4.299 -0.3902  0.0169 -0.4077
  169SAPE  C21919040   2.333   6.606   4.474 -0.0984 -1.0404 -0.6021
  169SAPE  H19R19041   2.337   6.497   4.493 -1.6674 -0.9238  0.6914
  169SAPE  H19S19042   2.245   6.627   4.410  1.4052  1.7006 -1.9780
  169SAPE  C22019043   2.341   6.678   4.612 -0.6421  0.5060 -0.3205
  169SAPE  H20R19044   2.331   6.788   4.607 -1.6700  0.4450  0.1119
  169SAPE  H20S19045   2.434   6.655   4.667 -1.7705 -1.3200  0.9362
  169SAPE  H20T19046   2.261   6.646   4.682 -0.5337  2.3054  0.6823
  169SAPE   C3319047   1.607   6.387   3.428 -0.0321  0.0843 -0.0020
  169SAPE   H3X19048   1.612   6.277   3.444  3.1927  0.0907 -0.3725
  169SAPE   H3Y19049   1.527   6.408   3.353 -0.6850 -1.2262  0.2868
  169SAPE   C3419050   1.567   6.450   3.563  0.1031  0.5698  0.0265
  169SAPE   H4X19051   1.567   6.561   3.566  3.0445  0.6214  1.0964
  169SAPE   H4Y19052   1.644   6.404   3.629 -1.7310 -0.8666  1.2684
  169SAPE   C3519053   1.438   6.398   3.621 -0.2341 -0.3743 -0.7190
  169SAPE   H5X19054   1.431   6.287   3.616  1.1882 -0.5567  0.5016
  169SAPE   H5Y19055   1.351   6.441   3.567 -0.6307 -1.1409 -0.7133
  169SAPE   C3619056   1.430   6.447   3.773 -0.4909 -0.3444  0.4888
  169SAPE   H6X19057   1.330   6.410   3.804  0.0485 -2.8088 -0.4764
  169SAPE   H6Y19058   1.439   6.558   3.770 -0.7252 -0.3139  0.8052
  169SAPE   C3719059   1.542   6.391   3.875  0.3240  0.0539  0.1749
  169SAPE   H7X19060   1.648   6.402   3.844  0.4337 -0.4857  0.3445
  169SAPE   H7Y19061   1.515   6.283   3.875  2.2120 -0.4597 -0.7173
  169SAPE   C3819062   1.516   6.438   4.015 -0.6444  0.3599 -0.4177
  169SAPE   H8X19063   1.569   6.377   4.091 -0.6699  1.5979  0.6219
  169SAPE   H8Y19064   1.409   6.421   4.041 -0.1704 -1.8179  0.2617
  169SAPE   C3919065   1.533   6.590   4.053 -0.0472  0.4263 -0.1441
  169SAPE   H9X19066   1.508   6.665   3.975  0.2514  1.6971  0.9611
  169SAPE   H9Y19067   1.639   6.608   4.079 -0.2046  1.5986 -0.2718
  169SAPE  C31019068   1.447   6.628   4.176  0.6425 -0.0156  0.6363
  169SAPE  H10X19069   1.345   6.627   4.131  1.4135 -0.9102 -1.1927
  169SAPE  H10Y19070   1.471   6.733   4.200 -0.9034  0.9552 -1.6376
  169SAPE  C31119071   1.462   6.547   4.307  0.4204 -0.2675 -0.4354
  169SAPE  H11X19072   1.437   6.445   4.272 -0.2986  0.3991 -1.9790
  169SAPE  H11Y19073   1.384   6.585   4.376 -0.0265 -1.2079 -0.4110
  169SAPE  C31219074   1.604   6.561   4.367  0.1217 -0.0066 -0.6726
  169SAPE  H12X19075   1.628   6.665   4.397 -1.6274 -0.5903  3.4769
  169SAPE  H12Y19076   1.677   6.532   4.288  1.5407  1.0743  0.1955
  169SAPE  C31319077   1.619   6.486   4.503  0.2301  1.3199  0.1466
  169SAPE  H13X19078   1.714   6.515   4.553  0.6120 -0.9820  0.8647
  169SAPE  H13Y19079   1.626   6.376   4.488  2.5067  1.6391 -1.5614
  169SAPE  C31419080   1.501   6.500   4.602 -0.0053 -0.4966  0.6772
  169SAPE  H14X19081   1.413   6.446   4.562 -0.2041  0.7269 -0.6260
  169SAPE  H14Y19082   1.481   6.609   4.610  2.9934  0.1214  1.2930
  169SAPE  C31519083   1.529   6.436   4.735  0.6972  1.0434 -0.1286
  169SAPE  H15X19084   1.426   6.440   4.776 -0.1634  3.4084 -2.2313
  169SAPE  H15Y19085   1.602   6.492   4.797  1.8377  0.9644 -1.3358
  169SAPE  C31619086   1.567   6.289   4.743  0.4518  0.1878  0.5607
  169SAPE  H16X19087   1.575   6.255   4.848  0.4209 -3.3897 -0.4731
  169SAPE  H16Y19088   1.673   6.285   4.710  0.4206  2.1477  0.1076
  169SAPE  C31719089   1.486   6.178   4.663 -0.3969 -0.8518  0.7123
  169SAPE  H17X19090   1.459   6.218   4.563 -0.6883  0.2123  1.2003
  169SAPE  H17Y19091   1.381   6.175   4.700 -0.4012  0.8112  0.9026
  169SAPE  C31819092   1.552   6.043   4.660 -0.9159 -0.6872 -0.5507
  169SAPE  H18X19093   1.485   5.967   4.615  0.0526 -1.0836 -1.3878
  169SAPE  H18Y19094   1.568   6.015   4.766 -1.2840 -0.7162 -0.5027
  169SAPE  H18Z19095   1.653   6.047   4.612 -0.8710  1.6816 -0.4067
  170SAPE     N19096   2.039   1.217   2.456  0.2420 -0.5230 -0.1382
  170SAPE   HN119097   1.950   1.221   2.403 -0.4926 -0.2376  1.0753
  170SAPE   HN219098   2.115   1.191   2.391  1.1407  3.5700 -1.0494
  170SAPE   HN319099   2.027   1.139   2.523 -1.2353  0.3054  0.6243
  170SAPE   C1219100   2.079   1.335   2.541  0.3601  0.0584 -0.1432
  170SAPE  H12A19101   2.083   1.430   2.483  0.8344  1.6070  2.3003
  170SAPE  H12B19102   2.181   1.327   2.583  0.8390  1.5057 -0.9625
  170SAPE   C1119103   1.972   1.354   2.652  0.0004 -0.5888 -0.5315
  170SAPE  H11A19104   2.005   1.435   2.720 -1.6231 -1.2558  1.1425
  170SAPE  H11B19105   1.963   1.257   2.704 -1.3395 -0.5199 -0.5816
  170SAPE     P19106   1.750   1.495   2.597  0.2019  0.1497 -0.1732
  170SAPE   O1319107   1.791   1.594   2.496  0.8170  0.3026  0.4150
  170SAPE   O1419108   1.614   1.440   2.585  0.6265 -0.0209 -0.7274
  170SAPE   O1219109   1.845   1.369   2.590 -0.3251 -0.3924  0.1533
  170SAPE   O1119110   1.769   1.553   2.744 -0.7063 -0.0790 -0.0324
  170SAPE    C119111   1.714   1.483   2.861  0.1433 -0.1280 -0.2188
  170SAPE    HA19112   1.604   1.499   2.858  0.1540 -0.1193 -0.5664
  170SAPE    HB19113   1.729   1.376   2.839 -1.5497 -0.3158 -0.5834
  170SAPE    C219114   1.776   1.515   2.997 -0.9617  0.5966  0.0671
  170SAPE    HS19115   1.754   1.440   3.075  0.0834 -0.6816 -0.8123
  170SAPE   O2119116   1.744   1.648   3.038  0.0228 -0.5260  0.3931
  170SAPE   C2119117   1.627   1.650   3.100 -0.6860  0.2188  0.3901
  170SAPE   O2219118   1.567   1.549   3.129 -0.1250 -0.0011 -0.0075
  170SAPE   C2219119   1.598   1.801   3.132 -0.2111  0.1240  0.6138
  170SAPE   H2R19120   1.640   1.828   3.231  1.0259  3.4433 -0.6746
  170SAPE   H2S19121   1.654   1.862   3.057 -0.8311 -1.1271 -0.9446
  170SAPE    C319122   1.931   1.504   2.979 -0.1243 -0.3432  0.2015
  170SAPE    HX19123   1.960   1.578   2.902 -0.1654 -1.4334 -0.8797
  170SAPE    HY19124   1.951   1.406   2.931 -0.7647 -1.0957  1.4205
  170SAPE   O3119125   2.004   1.521   3.102 -0.2484 -0.0075  0.5446
  170SAPE   C3119126   2.131   1.538   3.091  0.1915  0.5232  0.4320
  170SAPE   O3219127   2.203   1.537   2.989 -0.3877  0.1723  0.1482
  170SAPE   C3219128   2.187   1.551   3.224 -0.3536  0.0162  0.1646
  170SAPE   H2X19129   2.275   1.485   3.236  0.2393  0.8063  0.2474
  170SAPE   H2Y19130   2.110   1.533   3.302  0.9727  0.6254  1.6688
  170SAPE   C2319131   1.452   1.839   3.124 -0.2474  0.7236  0.1580
  170SAPE   H3R19132   1.407   1.782   3.040 -1.3809  0.0888  1.1719
  170SAPE   H3S19133   1.432   1.947   3.104 -0.1772  0.5448 -0.9524
  170SAPE   C2419134   1.373   1.807   3.255 -0.5290 -0.0464  0.1072
  170SAPE   H4R19135   1.388   1.700   3.280 -0.5941  0.0728  0.6942
  170SAPE   H4S19136   1.267   1.831   3.230  0.5844  1.3259 -4.1551
  170SAPE   C2519137   1.417   1.882   3.383 -0.1816 -0.2152  0.1464
  170SAPE   H5R19138   1.415   1.989   3.356  0.2845 -0.3358 -0.3723
  170SAPE   C2619139   1.431   1.848   3.513 -0.5361 -0.2509  0.5719
  170SAPE   H6R19140   1.465   1.927   3.582  1.0178 -0.3787 -0.0200
  170SAPE   C2719141   1.409   1.717   3.581  0.4827  0.4543  0.1811
  170SAPE   H7R19142   1.393   1.626   3.520 -0.3580  0.0464  0.9982
  170SAPE   H7S19143   1.322   1.725   3.650 -1.3321 -0.8308 -1.8499
  170SAPE   C2819144   1.535   1.685   3.659  0.1983  0.4920 -0.0609
  170SAPE   H8R19145   1.616   1.630   3.609 -0.1989 -2.3388  2.1588
  170SAPE   C2919146   1.558   1.695   3.791 -0.4684  0.2217  0.0318
  170SAPE   H9R19147   1.654   1.673   3.840 -1.9804 -5.1159  1.2899
  170SAPE  C21019148   1.464   1.762   3.892  0.2886 -0.0267 -0.2573
  170SAPE  H10R19149   1.375   1.695   3.893 -0.5091  1.0086 -0.4095
  170SAPE  H10S19150   1.434   1.861   3.852  2.0934  0.8735  0.5090
  170SAPE  C21119151   1.532   1.786   4.029 -0.4494  0.1304 -0.0796
  170SAPE  H11R19152   1.607   1.863   4.050  0.6157 -0.5149 -1.3486
  170SAPE  C21219153   1.486   1.718   4.136 -0.2619  0.1573  0.3802
  170SAPE  H12R19154   1.537   1.741   4.231 -0.7720  3.6815 -0.0718
  170SAPE  C21319155   1.379   1.619   4.157 -0.0999  0.3094  0.0758
  170SAPE  H13R19156   1.290   1.636   4.094 -1.4754 -0.7175  1.6542
  170SAPE  H13S19157   1.347   1.639   4.262 -0.6826 -2.3268  0.4676
  170SAPE  C21419158   1.428   1.480   4.149  0.1013 -0.2965 -0.0801
  170SAPE  H14R19159   1.466   1.453   4.049 -1.3613  0.5087 -0.8881
  170SAPE  C21519160   1.435   1.389   4.246  0.3923  0.0242 -0.3016
  170SAPE  H15R19161   1.473   1.289   4.221 -0.1039  0.2550 -2.1320
  170SAPE  C21619162   1.380   1.386   4.380 -0.2506 -0.1466  0.3388
  170SAPE  H16R19163   1.271   1.372   4.391 -0.2764 -0.7777 -0.5612
  170SAPE  H16S19164   1.400   1.480   4.435  1.5801 -0.6311  0.5768
  170SAPE  C21719165   1.456   1.273   4.452 -0.1121 -0.7842 -0.5456
  170SAPE  H17R19166   1.563   1.261   4.427 -0.3208  1.3261 -2.7487
  170SAPE  H17S19167   1.417   1.173   4.423  1.2180 -1.9528  1.4551
  170SAPE  C21819168   1.437   1.281   4.611  0.2718  0.0620  0.3975
  170SAPE  H18R19169   1.330   1.277   4.642 -0.0362 -0.1003 -0.6530
  170SAPE  H18S19170   1.473   1.383   4.638  0.6725 -0.5306  2.3108
  170SAPE  C21919171   1.528   1.179   4.687 -0.5024  0.3507  0.3354
  170SAPE  H19R19172   1.480   1.082   4.660  2.2085 -0.6086 -1.4764
  170SAPE  H19S19173   1.516   1.206   4.794  1.9574 -0.4024  0.8514
  170SAPE  C22019174   1.668   1.166   4.634  0.0851 -0.2126  0.4067
  170SAPE  H20R19175   1.675   1.129   4.530  1.5586  0.1877  0.3487
  170SAPE  H20S19176   1.729   1.098   4.697  1.6009  0.7427  0.0203
  170SAPE  H20T19177   1.712   1.268   4.643  0.2072 -0.4693  4.5555
  170SAPE   C3319178   2.240   1.695   3.251 -0.6552  0.7048  0.3085
  170SAPE   H3X19179   2.150   1.759   3.266  0.2728  1.5480  2.7360
  170SAPE   H3Y19180   2.283   1.729   3.155  1.9897 -2.1532  0.3220
  170SAPE   C3419181   2.352   1.704   3.351 -0.1581  0.3480  0.1636
  170SAPE   H4X19182   2.389   1.808   3.361  0.7141  0.3735 -2.5248
  170SAPE   H4Y19183   2.443   1.647   3.325  1.3754  2.5385  0.4590
  170SAPE   C3519184   2.331   1.634   3.489 -0.3294  0.5427 -0.0057
  170SAPE   H5X19185   2.320   1.525   3.470  1.1998  0.3438  0.1198
  170SAPE   H5Y19186   2.240   1.686   3.527 -1.0988  0.4488 -1.6495
  170SAPE   C3619187   2.457   1.646   3.587  0.3071 -0.0993 -0.6421
  170SAPE   H6X19188   2.492   1.751   3.599  2.7384 -0.8751 -0.5430
  170SAPE   H6Y19189   2.537   1.590   3.536 -0.8568  0.0981 -2.7837
  170SAPE   C3719190   2.425   1.568   3.722 -0.1600 -0.2612 -0.0486
  170SAPE   H7X19191   2.352   1.488   3.700 -0.3782  0.3742 -1.8003
  170SAPE   H7Y19192   2.369   1.632   3.794 -2.0248 -2.2391  0.3642
  170SAPE   C3819193   2.548   1.514   3.801 -0.4612 -0.2484 -0.2528
  170SAPE   H8X19194   2.616   1.602   3.801  0.2098 -0.7645  0.5682
  170SAPE   H8Y19195   2.595   1.434   3.740  0.8460  0.8082 -0.6811
  170SAPE   C3919196   2.516   1.483   3.954  0.4164  0.2949  0.2911
  170SAPE   H9X19197   2.465   1.385   3.965 -1.2892  1.3668  2.8341
  170SAPE   H9Y19198   2.446   1.561   3.990 -2.1372 -1.4469 -0.6543
  170SAPE  C31019199   2.648   1.477   4.025  0.4629 -0.3457 -0.6914
  170SAPE  H10X19200   2.709   1.570   4.016  0.5843 -0.1151  1.7952
  170SAPE  H10Y19201   2.711   1.403   3.971  2.2679  1.3194 -0.9822
  170SAPE  C31119202   2.647   1.436   4.173  0.2250 -0.3354 -0.6875
  170SAPE  H11X19203   2.587   1.347   4.204  1.8892 -0.1348  3.8206
  170SAPE  H11Y19204   2.591   1.515   4.227 -1.0114 -0.5993 -1.5298
  170SAPE  C31219205   2.788   1.415   4.224 -0.2499 -0.2825  0.2680
  170SAPE  H12X19206   2.837   1.512   4.202  0.0054 -0.0480  1.7761
  170SAPE  H12Y19207   2.829   1.331   4.163 -1.3541 -0.7421  0.1327
  170SAPE  C31319208   2.791   1.399   4.378 -0.1450  0.4279  0.1498
  170SAPE  H13X19209   2.758   1.295   4.400  0.6838 -0.9351 -4.0790
  170SAPE  H13Y19210   2.720   1.474   4.419  1.2925  1.1084  1.5011
  170SAPE  C31419211   2.927   1.427   4.441 -0.0227  0.2150 -0.3816
  170SAPE  H14X19212   2.965   1.517   4.388  0.5065  0.0157 -0.3520
  170SAPE  H14Y19213   2.993   1.340   4.418  0.7355  0.4599  0.7672
  170SAPE  C31519214   2.900   1.451   4.589  0.5669  0.5033  0.7629
  170SAPE  H15X19215   2.849   1.357   4.620  0.6653  0.6444  1.3635
  170SAPE  H15Y19216   2.819   1.523   4.608 -1.3233 -1.2358 -0.3101
  170SAPE  C31619217   3.027   1.478   4.668  0.4050 -0.4564 -0.6601
  170SAPE  H16X19218   3.086   1.554   4.612  1.3856 -1.4655 -1.0506
  170SAPE  H16Y19219   3.097   1.392   4.665  0.2877 -0.5609 -0.3880
  170SAPE  C31719220   3.007   1.521   4.815 -0.9008 -0.2237  0.2864
  170SAPE  H17X19221   2.949   1.615   4.824  0.0953  0.3488  0.8933
  170SAPE  H17Y19222   3.108   1.552   4.847 -0.7091 -0.8566  0.3067
  170SAPE  C31819223   2.944   1.412   4.904 -0.1064  0.1266 -0.1389
  170SAPE  H18X19224   2.954   1.431   5.013 -0.7059 -1.7174  0.2774
  170SAPE  H18Y19225   3.007   1.322   4.889  0.1819 -0.1944  2.4282
  170SAPE  H18Z19226   2.839   1.391   4.876  0.0914 -3.8403  1.4802
  171SAPE     N19227   2.058   1.997   2.590 -0.0069  0.0291  0.4290
  171SAPE   HN119228   1.964   2.041   2.604  0.5660  0.7183  2.4629
  171SAPE   HN219229   2.090   2.032   2.497 -3.1167  1.6165 -0.2159
  171SAPE   HN319230   2.050   1.894   2.586 -1.0339  0.1071  0.0392
  171SAPE   C1219231   2.157   2.046   2.698 -0.3611  0.7306  0.9769
  171SAPE  H12A19232   2.103   2.051   2.795  1.0034  2.2503  1.7015
  171SAPE  H12B19233   2.181   2.151   2.674  1.6628  0.0549 -0.1772
  171SAPE   C1119234   2.284   1.956   2.696  0.8314  0.1116  0.3773
  171SAPE  H11A19235   2.262   1.868   2.759 -0.4859  1.7322  2.3040
  171SAPE  H11B19236   2.369   2.007   2.747 -0.8479  1.8965  1.5429
  171SAPE     P19237   2.400   2.027   2.468 -0.2203  0.4410 -0.1434
  171SAPE   O1319238   2.449   1.955   2.346 -0.3625  0.2440  0.2652
  171SAPE   O1419239   2.310   2.142   2.443 -0.1752  0.3309  0.1139
  171SAPE   O1219240   2.329   1.919   2.565 -0.1149  0.1001  0.5887
  171SAPE   O1119241   2.522   2.070   2.561  0.3118  0.1516  0.4064
  171SAPE    C119242   2.651   2.005   2.549  0.1916  1.1780 -0.3855
  171SAPE    HA19243   2.627   1.899   2.524 -0.3355  1.6255 -1.8548
  171SAPE    HB19244   2.718   2.055   2.476  0.4744  1.8348  0.3119
  171SAPE    C219245   2.742   1.994   2.673  0.4209  0.6155  0.5449
  171SAPE    HS19246   2.838   1.947   2.642 -0.2691  1.5976 -3.6783
  171SAPE   O2119247   2.676   1.923   2.778  0.8590  0.3870  0.0840
  171SAPE   C2119248   2.652   1.795   2.767  0.0971  0.1661  0.2044
  171SAPE   O2219249   2.715   1.720   2.694 -0.5623  0.5517 -0.0493
  171SAPE   C2219250   2.547   1.750   2.859 -0.0522  0.4312 -0.8411
  171SAPE   H2R19251   2.452   1.757   2.803 -0.8336 -0.3893  0.3385
  171SAPE   H2S19252   2.569   1.642   2.874 -2.2061  0.1465  0.7442
  171SAPE    C319253   2.766   2.133   2.726  0.5506 -0.4943  0.7950
  171SAPE    HX19254   2.669   2.184   2.744  2.2343  2.6682  1.6425
  171SAPE    HY19255   2.815   2.189   2.643  1.6360 -0.8958  1.1476
  171SAPE   O3119256   2.844   2.140   2.844 -0.2104  0.0127 -0.6512
  171SAPE   C3119257   2.820   2.229   2.942  0.6125  0.5625  0.3506
  171SAPE   O3219258   2.724   2.304   2.951 -0.0256  0.1932  0.1220
  171SAPE   C3219259   2.937   2.233   3.043  0.4819 -0.6873 -0.2484
  171SAPE   H2X19260   3.028   2.267   2.989  0.4616  1.3021  0.8606
  171SAPE   H2Y19261   2.955   2.128   3.075 -1.2589 -1.0145 -0.2373
  171SAPE   C2319262   2.539   1.828   2.987  0.5167  0.5690  0.1966
  171SAPE   H3R19263   2.454   1.788   3.046  1.2907 -1.8260 -0.2153
  171SAPE   H3S19264   2.521   1.934   2.958 -0.2437  0.7313  1.1834
  171SAPE   C2419265   2.666   1.818   3.070  0.2287 -0.5569  0.1143
  171SAPE   H4R19266   2.759   1.817   3.008  0.3066  0.8008  0.1715
  171SAPE   H4S19267   2.670   1.716   3.113  1.7282 -1.2593 -1.5335
  171SAPE   C2519268   2.663   1.927   3.172  0.4891  0.2632  0.7785
  171SAPE   H5R19269   2.611   2.019   3.144 -1.9234 -1.5382 -1.0588
  171SAPE   C2619270   2.714   1.923   3.294 -0.4391  0.2921 -0.4642
  171SAPE   H6R19271   2.686   1.998   3.370  0.8015 -1.0080  1.3789
  171SAPE   C2719272   2.786   1.813   3.360  0.2402 -0.4097  0.1345
  171SAPE   H7R19273   2.815   1.726   3.297  1.6722  0.0883  0.0542
  171SAPE   H7S19274   2.718   1.780   3.441 -1.0388 -0.5191 -0.9430
  171SAPE   C2819275   2.905   1.872   3.412 -0.4504  0.5092  0.1093
  171SAPE   H8R19276   2.977   1.901   3.333 -0.3181 -0.4362 -0.1289
  171SAPE   C2919277   2.942   1.880   3.542 -0.0473 -0.1025 -0.0435
  171SAPE   H9R19278   3.043   1.922   3.560  0.7668 -0.4803 -3.1091
  171SAPE  C21019279   2.865   1.851   3.666  0.0706 -0.0360  0.5041
  171SAPE  H10R19280   2.925   1.772   3.715  0.0444 -0.9402 -0.8499
  171SAPE  H10S19281   2.769   1.801   3.640 -0.9803  2.0200  0.2271
  171SAPE  C21119282   2.838   1.973   3.754 -0.6027  0.2096  0.0221
  171SAPE  H11R19283   2.750   2.031   3.726 -0.8245 -0.9065 -1.7019
  171SAPE  C21219284   2.918   2.005   3.865 -0.0529 -0.0645  0.0554
  171SAPE  H12R19285   2.895   2.095   3.924 -0.6384 -0.9799  1.2616
  171SAPE  C21319286   3.036   1.916   3.910 -0.3078 -0.0681  0.9121
  171SAPE  H13R19287   3.114   1.954   3.839  0.5370 -1.0189  1.3077
  171SAPE  H13S19288   3.029   1.806   3.897  0.4564 -0.0564  0.3134
  171SAPE  C21419289   3.064   1.956   4.057  0.0335 -0.3803 -0.0647
  171SAPE  H14R19290   3.153   2.019   4.066 -1.5882  2.3555 -1.7892
  171SAPE  C21519291   3.002   1.899   4.161  0.0804  0.5096 -0.4243
  171SAPE  H15R19292   3.037   1.925   4.262  1.3679 -3.2111  0.2331
  171SAPE  C21619293   2.878   1.810   4.159 -0.6553 -0.1770  0.1956
  171SAPE  H16R19294   2.900   1.729   4.232  0.1824 -0.0158  0.1386
  171SAPE  H16S19295   2.856   1.762   4.061  1.6086  2.1047 -1.5771
  171SAPE  C21719296   2.751   1.868   4.214  0.5429  0.1876  0.4932
  171SAPE  H17R19297   2.662   1.806   4.192 -0.2155  1.0076  1.1612
  171SAPE  H17S19298   2.734   1.954   4.145  1.5568 -1.2162 -1.6201
  171SAPE  C21819299   2.757   1.910   4.362 -0.4502 -0.0074  0.3402
  171SAPE  H18R19300   2.662   1.961   4.385 -0.2849 -0.0630  1.1733
  171SAPE  H18S19301   2.846   1.975   4.381 -1.1241  1.2763 -0.7700
  171SAPE  C21919302   2.766   1.787   4.456 -0.0033  0.5917 -0.6189
  171SAPE  H19R19303   2.794   1.819   4.558  0.5432 -0.5574 -0.3846
  171SAPE  H19S19304   2.831   1.702   4.424 -1.0068 -2.2423  3.8616
  171SAPE  C22019305   2.624   1.717   4.466  0.9657 -0.5909  0.1833
  171SAPE  H20R19306   2.549   1.791   4.500  2.1928 -0.1147  2.0406
  171SAPE  H20S19307   2.623   1.635   4.541  0.0047 -0.7592 -0.0002
  171SAPE  H20T19308   2.593   1.681   4.365 -2.4579 -0.4745  1.0656
  171SAPE   C3319309   2.909   2.315   3.166 -0.3642 -0.4493 -0.0192
  171SAPE   H3X19310   2.822   2.275   3.223 -1.3959  0.9782 -0.5289
  171SAPE   H3Y19311   2.883   2.423   3.165  0.7038 -0.1210  2.3072
  171SAPE   C3419312   3.033   2.297   3.254  0.1246 -0.4760 -0.3740
  171SAPE   H4X19313   3.122   2.353   3.219  0.9235 -0.5098  1.4735
  171SAPE   H4Y19314   3.048   2.187   3.261 -3.0024 -0.9482  0.4533
  171SAPE   C3519315   3.002   2.335   3.398  0.1399  0.1680 -0.6747
  171SAPE   H5X19316   2.966   2.440   3.391  2.0582  0.8888 -0.2883
  171SAPE   H5Y19317   3.099   2.330   3.452  0.1758  1.2257 -0.6289
  171SAPE   C3619318   2.890   2.265   3.475 -0.5026  0.9390 -0.2130
  171SAPE   H6X19319   2.928   2.161   3.483 -0.5265  0.9015 -0.5724
  171SAPE   H6Y19320   2.796   2.271   3.417  0.7957  1.4869 -2.4018
  171SAPE   C3719321   2.856   2.317   3.610  0.1945 -1.0796 -0.7595
  171SAPE   H7X19322   2.774   2.262   3.661  1.7045 -0.9646  1.9679
  171SAPE   H7Y19323   2.816   2.418   3.588  1.7139 -0.8474 -2.7498
  171SAPE   C3819324   2.973   2.331   3.704 -0.0557  0.4040 -0.1601
  171SAPE   H8X19325   3.049   2.397   3.656  0.8079 -1.9910 -2.3059
  171SAPE   H8Y19326   3.035   2.239   3.708  0.4359  0.7748  2.1290
  171SAPE   C3919327   2.938   2.366   3.845  0.2365  0.5641 -0.7363
  171SAPE   H9X19328   2.853   2.296   3.853 -0.4531  1.6198  3.7094
  171SAPE   H9Y19329   2.901   2.469   3.864 -2.3030  0.0308 -2.3303
  171SAPE  C31019330   3.044   2.327   3.951  0.5904 -0.5662  0.1482
  171SAPE  H10X19331   3.130   2.396   3.938  0.8171 -1.0447 -1.0600
  171SAPE  H10Y19332   3.091   2.233   3.916  0.6200 -0.2593 -0.6559
  171SAPE  C31119333   2.990   2.318   4.097 -0.2870 -0.1336  0.0938
  171SAPE  H11X19334   3.082   2.297   4.156  1.5590  2.3805 -1.7136
  171SAPE  H11Y19335   2.920   2.232   4.107 -0.2046 -0.4613 -1.8806
  171SAPE  C31219336   2.930   2.452   4.140 -0.7831  0.0429  0.6349
  171SAPE  H12X19337   2.872   2.428   4.232  1.2648  0.9005  2.2128
  171SAPE  H12Y19338   2.860   2.487   4.060  0.6446  1.0200 -0.2316
  171SAPE  C31319339   3.030   2.569   4.176  0.2006  0.3983  0.4114
  171SAPE  H13X19340   3.098   2.576   4.088 -0.7170 -0.3514 -0.3889
  171SAPE  H13Y19341   3.083   2.541   4.269 -1.0174  0.8430  1.2712
  171SAPE  C31419342   2.956   2.706   4.183  0.4685 -0.4803  0.1039
  171SAPE  H14X19343   2.888   2.726   4.097  0.0684 -0.9946  0.2952
  171SAPE  H14Y19344   3.032   2.787   4.193  1.3798 -1.3938  0.8846
  171SAPE  C31519345   2.868   2.711   4.303  0.1492 -0.2731  0.2949
  171SAPE  H15X19346   2.932   2.692   4.392  0.0073  0.0379  0.4674
  171SAPE  H15Y19347   2.784   2.639   4.300 -0.6588  0.6282 -3.5540
  171SAPE  C31619348   2.802   2.839   4.340  0.3027 -0.7486  0.3851
  171SAPE  H16X19349   2.750   2.864   4.245 -0.4588  0.2107  1.0350
  171SAPE  H16Y19350   2.884   2.910   4.366 -1.3108  0.8188  1.4301
  171SAPE  C31719351   2.719   2.827   4.463  0.1963  1.0511  1.1125
  171SAPE  H17X19352   2.773   2.806   4.558 -0.0785  1.8909  1.4702
  171SAPE  H17Y19353   2.648   2.743   4.450 -0.6602  1.9063  0.0854
  171SAPE  C31819354   2.628   2.947   4.494  0.3500  0.4137  0.0596
  171SAPE  H18X19355   2.681   3.044   4.490 -1.6021  1.4814 -1.3123
  171SAPE  H18Y19356   2.576   2.940   4.592  1.0183  2.2851  0.5989
  171SAPE  H18Z19357   2.559   2.964   4.409  0.9018 -1.2363 -0.7616
  172SAPE     N19358   2.399   4.527   2.075  0.1933 -0.2507  0.5975
  172SAPE   HN119359   2.375   4.486   1.983  0.2400 -0.6202  0.7471
  172SAPE   HN219360   2.309   4.535   2.126 -0.7129 -0.0408 -0.9744
  172SAPE   HN319361   2.447   4.618   2.061  1.1412 -0.6876  0.9163
  172SAPE   C1219362   2.493   4.428   2.145 -0.6080 -0.9409 -0.4769
  172SAPE  H12A19363   2.483   4.450   2.253 -0.1433 -0.2818 -0.5593
  172SAPE  H12B19364   2.598   4.457   2.121 -1.0182  0.5647 -0.5833
  172SAPE   C1119365   2.461   4.285   2.100  0.3840  0.6450 -0.4726
  172SAPE  H11A19366   2.519   4.218   2.167 -0.9568  1.9656  2.1542
  172SAPE  H11B19367   2.484   4.262   1.994 -0.1087  1.4193 -0.7535
  172SAPE     P19368   2.280   4.104   2.138 -0.0234 -0.0308 -0.7803
  172SAPE   O1319369   2.133   4.107   2.140  0.3333  0.5129 -0.2051
  172SAPE   O1419370   2.338   4.016   2.035  0.0796 -0.6809 -0.3851
  172SAPE   O1219371   2.323   4.258   2.114  0.1624 -0.0456  0.1101
  172SAPE   O1119372   2.331   4.057   2.279  0.4235  0.1092  0.0561
  172SAPE    C119373   2.349   4.152   2.380 -0.5865  0.9028  0.3632
  172SAPE    HA19374   2.407   4.244   2.356 -0.3944  0.7140  0.0979
  172SAPE    HB19375   2.249   4.188   2.412 -1.0760  1.4453 -1.6480
  172SAPE    C219376   2.405   4.085   2.510 -0.8620  0.2499  0.1137
  172SAPE    HS19377   2.383   4.161   2.588 -2.1396 -0.1715  0.1847
  172SAPE   O2119378   2.544   4.044   2.520 -0.1452 -0.0361 -0.0853
  172SAPE   C2119379   2.635   4.139   2.487 -0.5057  0.1801  0.1586
  172SAPE   O2219380   2.614   4.254   2.446 -0.5663  0.4633 -0.2137
  172SAPE   C2219381   2.770   4.086   2.530 -1.3804  0.1781 -0.1912
  172SAPE   H2R19382   2.743   3.995   2.589  2.4661  0.8792  3.1270
  172SAPE   H2S19383   2.828   4.068   2.438 -1.5478  3.5193 -1.0562
  172SAPE    C319384   2.319   3.963   2.541  0.4428 -0.3039 -0.3860
  172SAPE    HX19385   2.334   3.889   2.460  0.5314 -0.7519  0.0395
  172SAPE    HY19386   2.210   3.980   2.554  0.7094  2.2948 -0.9234
  172SAPE   O3119387   2.359   3.924   2.672  0.2479  0.2280  0.1792
  172SAPE   C3119388   2.441   3.823   2.671  0.5238  0.2356  0.2600
  172SAPE   O3219389   2.466   3.740   2.586 -0.1821  0.3071  0.6123
  172SAPE   C3219390   2.512   3.834   2.809 -0.5645 -0.1612  0.1712
  172SAPE   H2X19391   2.541   3.942   2.808 -0.4249 -0.1503 -2.4016
  172SAPE   H2Y19392   2.604   3.773   2.800  0.7126  1.4596  1.4852
  172SAPE   C2319393   2.849   4.176   2.627  1.0908  0.1504  0.2782
  172SAPE   H3R19394   2.895   4.268   2.584 -1.2675  1.1097 -0.3517
  172SAPE   H3S19395   2.926   4.110   2.671  1.3930  0.8564  0.8365
  172SAPE   C2419396   2.772   4.220   2.753  0.0972 -0.1503 -0.4222
  172SAPE   H4R19397   2.848   4.251   2.827 -0.3074  0.7305 -0.3604
  172SAPE   H4S19398   2.721   4.128   2.791 -0.4061  0.5687  0.6928
  172SAPE   C2519399   2.682   4.342   2.752 -0.2493 -0.1734  0.2971
  172SAPE   H5R19400   2.734   4.437   2.733  0.2978 -0.0831  2.0116
  172SAPE   C2619401   2.557   4.347   2.783 -0.7097  0.6217  0.5112
  172SAPE   H6R19402   2.504   4.443   2.779 -1.5167  0.1554 -0.3978
  172SAPE   C2719403   2.469   4.234   2.841  0.3815 -0.5023 -0.4153
  172SAPE   H7R19404   2.479   4.147   2.773  0.7015 -0.7620 -0.0353
  172SAPE   H7S19405   2.372   4.289   2.849  2.2280  2.8600  0.8041
  172SAPE   C2819406   2.507   4.186   2.975  0.5589 -0.6868 -0.3480
  172SAPE   H8R19407   2.612   4.207   2.998  0.9170 -2.0101 -0.6503
  172SAPE   C2919408   2.430   4.129   3.067  0.5667 -0.1071 -0.4968
  172SAPE   H9R19409   2.481   4.103   3.161 -2.5880 -0.4075  1.2817
  172SAPE  C21019410   2.287   4.092   3.058 -0.2308 -0.2500  0.2604
  172SAPE  H10R19411   2.270   4.046   2.958  0.1944  1.2587 -0.5458
  172SAPE  H10S19412   2.227   4.185   3.058 -0.5944 -0.4807  0.1359
  172SAPE  C21119413   2.248   3.999   3.180  0.0425 -0.2070 -0.0152
  172SAPE  H11R19414   2.257   3.894   3.150  0.3336  0.6710 -3.4846
  172SAPE  C21219415   2.193   4.051   3.289 -0.0364 -0.4109  0.4477
  172SAPE  H12R19416   2.158   3.982   3.367 -2.7273 -1.3991 -1.4556
  172SAPE  C21319417   2.196   4.197   3.329  0.0135 -0.1569  0.0577
  172SAPE  H13R19418   2.242   4.266   3.254  0.0400  0.9907  1.1118
  172SAPE  H13S19419   2.248   4.197   3.427  0.8479 -0.0621 -0.3731
  172SAPE  C21419420   2.050   4.241   3.344 -0.4145 -0.6732  0.6777
  172SAPE  H14R19421   1.993   4.276   3.257 -0.3145  0.0837  0.9092
  172SAPE  C21519422   1.984   4.250   3.458 -0.0077  0.4247 -0.6727
  172SAPE  H15R19423   1.879   4.284   3.462 -0.3486 -0.4516 -1.4856
  172SAPE  C21619424   2.031   4.197   3.593  0.7612  0.2052  0.7931
  172SAPE  H16R19425   2.142   4.194   3.601  0.8994  1.4572 -0.3668
  172SAPE  H16S19426   1.988   4.095   3.601  0.6287  0.2433  0.5666
  172SAPE  C21719427   1.967   4.277   3.705 -0.9577  0.5648 -0.0461
  172SAPE  H17R19428   1.857   4.271   3.687 -0.8205 -0.0709 -0.6958
  172SAPE  H17S19429   1.988   4.382   3.674  0.4719  0.0102 -1.0588
  172SAPE  C21819430   2.005   4.237   3.857  0.3595  0.1203 -0.1453
  172SAPE  H18R19431   2.115   4.238   3.870  0.4194  0.4719 -0.6292
  172SAPE  H18S19432   1.962   4.136   3.875 -2.1544  1.0998 -0.1976
  172SAPE  C21919433   1.952   4.338   3.967 -0.3778 -0.2974 -0.0690
  172SAPE  H19R19434   1.841   4.334   3.959 -0.3535 -1.7674  0.0869
  172SAPE  H19S19435   1.975   4.438   3.925 -1.9166  0.2073  0.2539
  172SAPE  C22019436   2.010   4.320   4.113 -0.1196 -0.2017 -0.0534
  172SAPE  H20R19437   1.998   4.217   4.151 -0.8954  0.9826  3.2023
  172SAPE  H20S19438   1.962   4.400   4.173  1.6473  1.1628 -0.3676
  172SAPE  H20T19439   2.121   4.324   4.116 -0.0835 -1.4869  1.2229
  172SAPE   C3319440   2.425   3.780   2.925  0.1163 -0.8858  0.1819
  172SAPE   H3X19441   2.336   3.846   2.940  0.9046  0.1859  0.2158
  172SAPE   H3Y19442   2.483   3.795   3.019 -2.8743  1.9933  1.7916
  172SAPE   C3419443   2.388   3.630   2.923  0.0245  0.1733 -0.1405
  172SAPE   H4X19444   2.473   3.558   2.921  0.4995  0.6769  0.9817
  172SAPE   H4Y19445   2.330   3.613   2.830 -1.2415 -1.3204  0.8630
  172SAPE   C3519446   2.288   3.587   3.034  0.0366  0.2278 -0.5376
  172SAPE   H5X19447   2.190   3.636   3.020 -0.7794 -1.3919 -0.6815
  172SAPE   H5Y19448   2.322   3.637   3.127  1.5774 -0.3294 -0.7724
  172SAPE   C3619449   2.275   3.435   3.059  0.1102  0.1968  0.1460
  172SAPE   H6X19450   2.366   3.411   3.118 -0.4371 -0.2292  0.8448
  172SAPE   H6Y19451   2.286   3.377   2.965 -2.1708  1.1130 -0.7805
  172SAPE   C3719452   2.148   3.394   3.136 -0.3775 -0.6178 -0.6173
  172SAPE   H7X19453   2.153   3.286   3.159  2.6370 -0.7923 -1.6102
  172SAPE   H7Y19454   2.063   3.415   3.068  0.9642  0.3890 -2.0748
  172SAPE   C3819455   2.143   3.464   3.269  0.1082 -1.0185 -0.3137
  172SAPE   H8X19456   2.045   3.435   3.314  0.0003  0.9597  0.8650
  172SAPE   H8Y19457   2.144   3.575   3.263 -1.5460 -0.7654  2.2107
  172SAPE   C3919458   2.251   3.428   3.372 -0.4641  0.0375  0.8404
  172SAPE   H9X19459   2.340   3.473   3.323 -0.8816 -0.5076 -0.4664
  172SAPE   H9Y19460   2.258   3.318   3.381 -0.1827  0.1702  2.5846
  172SAPE  C31019461   2.227   3.490   3.507 -0.2598  0.6649 -0.3490
  172SAPE  H10X19462   2.209   3.598   3.491  2.5729  1.2768  0.1116
  172SAPE  H10Y19463   2.316   3.458   3.565 -0.1799 -0.8261 -1.2427
  172SAPE  C31119464   2.098   3.435   3.580 -0.2734  0.3266 -0.2428
  172SAPE  H11X19465   2.110   3.331   3.618 -4.1637 -0.5514 -1.0417
  172SAPE  H11Y19466   2.006   3.446   3.519 -1.5720 -1.6000  1.2299
  172SAPE  C31219467   2.071   3.518   3.712 -0.8660  0.5621 -0.6395
  172SAPE  H12X19468   2.056   3.628   3.704 -2.1262  0.5701  1.2365
  172SAPE  H12Y19469   2.166   3.497   3.765 -0.0652 -0.1123 -2.2838
  172SAPE  C31319470   1.954   3.461   3.802 -0.7245  0.3326  0.3312
  172SAPE  H13X19471   1.912   3.363   3.774  0.1997 -0.7453  2.5078
  172SAPE  H13Y19472   1.881   3.545   3.799 -0.5964  0.4447 -2.5907
  172SAPE  C31419473   2.002   3.441   3.947 -0.2546 -0.4997  0.0443
  172SAPE  H14X19474   1.915   3.440   4.016 -0.0201  2.3924  0.5245
  172SAPE  H14Y19475   2.058   3.535   3.966 -0.8116 -0.1703  0.0784
  172SAPE  C31519476   2.089   3.318   3.964 -0.1300 -0.1437 -0.7203
  172SAPE  H15X19477   2.189   3.318   3.917  0.0836 -1.6622 -0.3289
  172SAPE  H15Y19478   2.029   3.230   3.930  1.6497 -0.2304 -4.0164
  172SAPE  C31619479   2.127   3.296   4.111  0.0875 -0.5768  1.4583
  172SAPE  H16X19480   2.034   3.269   4.165 -0.2553 -0.5371  0.8995
  172SAPE  H16Y19481   2.169   3.389   4.153 -0.0944  0.2474 -0.0993
  172SAPE  C31719482   2.231   3.189   4.125  0.7149  0.5033 -0.4599
  172SAPE  H17X19483   2.331   3.237   4.111  1.0438  0.6465  1.9529
  172SAPE  H17Y19484   2.213   3.118   4.042  0.5510 -0.6778  0.5524
  172SAPE  C31819485   2.231   3.123   4.259  0.4426  0.1885  0.4794
  172SAPE  H18X19486   2.317   3.053   4.262 -0.0303 -0.4934 -0.8850
  172SAPE  H18Y19487   2.143   3.058   4.280  0.0369  1.1990  2.0284
  172SAPE  H18Z19488   2.231   3.191   4.346  0.0927 -0.3804  0.9358
  173SLPC     N19489   1.112   0.599   6.447  0.3797  0.1495  1.2111
  173SLPC   C1319490   1.029   0.649   6.330 -0.3362  0.3437  0.4712
  173SLPC  H13A19491   0.945   0.583   6.317 -0.1839  0.6834 -4.2028
  173SLPC  H13B19492   0.993   0.747   6.359  0.5745  0.6213  0.7191
  173SLPC  H13C19493   1.079   0.660   6.234  0.3272 -1.2904  0.5984
  173SLPC   C1419494   1.225   0.698   6.453  0.4259 -1.0544 -0.5951
  173SLPC  H14A19495   1.276   0.685   6.548 -2.1016  0.6175  1.1392
  173SLPC  H14B19496   1.286   0.705   6.365 -1.9480 -0.6978 -2.3165
  173SLPC  H14C19497   1.183   0.794   6.481  0.8668 -0.9244 -0.3685
  173SLPC   C1519498   1.171   0.463   6.418  0.0754 -1.4542 -0.1585
  173SLPC  H15A19499   1.240   0.440   6.498  0.4622 -0.2450 -0.1128
  173SLPC  H15B19500   1.087   0.397   6.420  0.0440 -1.4068  1.5575
  173SLPC  H15C19501   1.227   0.460   6.325  0.8206 -1.8624  0.2979
  173SLPC   C1219502   1.036   0.581   6.574 -0.5294 -0.1986  0.2827
  173SLPC  H12A19503   1.105   0.544   6.649  0.6543 -2.4677 -1.7439
  173SLPC  H12B19504   0.955   0.512   6.558 -0.7717  0.2805 -0.6450
  173SLPC   C1119505   0.967   0.703   6.622  0.9330  0.0163  0.1202
  173SLPC  H11A19506   1.030   0.795   6.625 -1.0221  1.4228  0.3141
  173SLPC  H11B19507   0.940   0.676   6.726  0.6058  0.5326  0.1731
  173SLPC     P19508   0.710   0.754   6.598  0.1176  0.0655  0.0328
  173SLPC   O1319509   0.655   0.616   6.630  0.6783 -0.3551 -0.0231
  173SLPC   O1419510   0.726   0.853   6.704  0.0429  0.7655  0.5178
  173SLPC   O1219511   0.852   0.732   6.539  0.3644 -0.1747  0.3702
  173SLPC   O1119512   0.631   0.819   6.481 -0.5793  0.0275 -0.3960
  173SLPC    C119513   0.575   0.751   6.372 -0.1305  0.3491  0.1749
  173SLPC    HA19514   0.578   0.640   6.375  0.7012  0.3107 -1.1938
  173SLPC    HB19515   0.470   0.786   6.359 -0.9159 -2.1724 -0.9070
  173SLPC    C219516   0.665   0.787   6.245  0.0026 -0.2516  0.2829
  173SLPC    HS19517   0.771   0.761   6.265  0.8427 -0.4445 -3.7254
  173SLPC   O2119518   0.653   0.926   6.224 -0.1725 -0.5774 -0.1421
  173SLPC   C2119519   0.753   0.986   6.152  0.1336 -0.2010 -0.1323
  173SLPC   O2219520   0.843   0.930   6.098 -0.2355  0.5273 -0.2505
  173SLPC   C2219521   0.737   1.135   6.153  0.1995  0.2947 -0.3004
  173SLPC   H2R19522   0.630   1.163   6.147  0.6359  2.1111 -0.3911
  173SLPC   H2S19523   0.773   1.162   6.255  2.0149 -2.4121 -0.1301
  173SLPC    C319524   0.615   0.708   6.120 -0.1041 -0.4568  0.3930
  173SLPC    HX19525   0.657   0.754   6.028 -3.2152 -0.9339 -1.4283
  173SLPC    HY19526   0.508   0.735   6.102  0.0577  0.6499  1.0197
  173SLPC   O3119527   0.616   0.569   6.137 -0.1530 -0.4737 -0.0539
  173SLPC   C3119528   0.708   0.501   6.074 -0.7782  0.0653  1.2397
  173SLPC   O3219529   0.778   0.552   5.982 -0.4481  0.2033  0.4003
  173SLPC   C3219530   0.721   0.345   6.107  0.1364 -0.4506  0.4760
  173SLPC   H2X19531   0.669   0.314   6.200  1.5538 -1.9593  0.8301
  173SLPC   H2Y19532   0.831   0.333   6.123 -0.1412 -2.5016  1.1742
  173SLPC   C2319533   0.824   1.210   6.048  0.5798  0.6032 -0.1682
  173SLPC   H3R19534   0.929   1.174   6.042  0.5606  0.4933  0.1490
  173SLPC   H3S19535   0.813   1.317   6.076  3.8034  0.8059  0.7444
  173SLPC   C2419536   0.749   1.186   5.916  0.5380  0.3095 -0.8559
  173SLPC   H4R19537   0.642   1.216   5.916  0.4595  0.2338  1.6726
  173SLPC   H4S19538   0.764   1.082   5.880  1.5626  0.9707 -2.4594
  173SLPC   C2519539   0.816   1.266   5.800 -0.5455 -0.0283 -1.0042
  173SLPC   H5R19540   0.921   1.230   5.792 -0.3770 -0.1349  1.1500
  173SLPC   H5S19541   0.822   1.373   5.826  1.1511 -0.5665  1.0369
  173SLPC   C2619542   0.733   1.258   5.670  0.0976  0.9339 -0.0020
  173SLPC   H6R19543   0.632   1.291   5.702 -1.2659  0.9841 -3.7709
  173SLPC   H6S19544   0.739   1.159   5.620  2.2682  0.5829  0.8501
  173SLPC   C2719545   0.786   1.354   5.559  0.6972  0.8671  0.3459
  173SLPC   H7R19546   0.893   1.325   5.547  0.0123 -1.6099 -0.4319
  173SLPC   H7S19547   0.787   1.459   5.595 -2.6729  1.4164 -0.8284
  173SLPC   C2819548   0.714   1.337   5.425  0.1849 -0.3160  0.0905
  173SLPC   H8R19549   0.714   1.229   5.400 -0.1641  0.0751 -1.8140
  173SLPC   H8S19550   0.767   1.398   5.348 -0.3319  0.8921  0.6659
  173SLPC   C2919551   0.576   1.401   5.449 -0.8264 -0.4827 -0.4962
  173SLPC   H9R19552   0.548   1.430   5.551  0.1336 -0.7310 -0.1515
  173SLPC  C21019553   0.494   1.443   5.350 -0.1250  0.3286 -0.4676
  173SLPC  H10R19554   0.401   1.491   5.385  0.1652 -0.6179  1.7846
  173SLPC  C21119555   0.515   1.408   5.204  0.2012  0.4685  0.0538
  173SLPC  H11R19556   0.611   1.356   5.185  0.3403  0.2674  1.2358
  173SLPC  H11S19557   0.520   1.500   5.141 -1.0098  0.5807  0.0950
  173SLPC  C21219558   0.391   1.340   5.143 -0.0114 -0.6074 -0.6202
  173SLPC  H12R19559   0.297   1.387   5.174 -0.4464 -1.4710 -0.6149
  173SLPC  C21319560   0.385   1.220   5.093 -0.2182 -1.1938 -0.1174
  173SLPC  H13R19561   0.291   1.176   5.057  0.1502 -1.1758 -1.1369
  173SLPC  C21419562   0.499   1.121   5.070 -0.6378 -0.8020 -0.0535
  173SLPC  H14R19563   0.448   1.029   5.105 -0.4776 -1.1824 -0.8046
  173SLPC  H14S19564   0.581   1.146   5.141 -2.3326 -0.3428  1.8616
  173SLPC  C21519565   0.558   1.110   4.929 -0.1048  0.6993 -0.0943
  173SLPC  H15R19566   0.480   1.092   4.852 -0.4484 -1.7597  0.7156
  173SLPC  H15S19567   0.622   1.020   4.917 -1.6950 -0.1958 -3.1698
  173SLPC  C21619568   0.641   1.230   4.885 -0.1889 -0.0651  0.2543
  173SLPC  H16R19569   0.729   1.245   4.951 -0.9355  2.4876  0.7914
  173SLPC  H16S19570   0.579   1.317   4.914 -2.3314 -1.3815 -0.1454
  173SLPC  C21719571   0.714   1.225   4.750 -0.1893  1.2394  0.1493
  173SLPC  H17R19572   0.761   1.124   4.751 -0.5169  1.0845  0.1053
  173SLPC  H17S19573   0.798   1.298   4.755  2.1462 -1.3311  2.9781
  173SLPC  C21819574   0.631   1.251   4.626 -0.0101 -0.2923  0.2869
  173SLPC  H18R19575   0.565   1.338   4.647 -1.9234 -1.7013  0.3656
  173SLPC  H18S19576   0.562   1.170   4.597 -0.0821  0.3366 -1.4193
  173SLPC  H18T19577   0.689   1.256   4.531 -0.7626 -1.4856 -0.2426
  173SLPC   C3319578   0.679   0.263   5.985 -0.6475  0.8705  0.5717
  173SLPC   H3X19579   0.573   0.276   5.953 -0.4140  0.5047 -0.3949
  173SLPC   H3Y19580   0.683   0.160   6.028  0.6987  1.0667  0.9718
  173SLPC   C3419581   0.772   0.259   5.866  0.6021  0.7648 -0.2492
  173SLPC   H4X19582   0.877   0.260   5.905  1.0384  0.2903 -1.3913
  173SLPC   H4Y19583   0.759   0.348   5.800 -1.3496 -0.5478 -1.7386
  173SLPC   C3519584   0.756   0.129   5.781 -0.5283  0.2307 -0.4012
  173SLPC   H5X19585   0.650   0.099   5.766 -0.5036 -0.4518  0.6801
  173SLPC   H5Y19586   0.789   0.050   5.852  0.1195 -0.2311 -1.2054
  173SLPC   C3619587   0.841   0.136   5.652  0.6727 -0.2210  0.0719
  173SLPC   H6X19588   0.948   0.161   5.665  0.3763 -0.0051  2.6298
  173SLPC   H6Y19589   0.788   0.217   5.597 -1.8260 -1.8392 -0.0510
  173SLPC   C3719590   0.813   0.016   5.561  0.1808  0.4618 -0.2000
  173SLPC   H7X19591   0.704  -0.002   5.550  0.3514 -1.6159  0.9344
  173SLPC   H7Y19592   0.861  -0.070   5.612 -1.2861  1.3678  2.9406
  173SLPC   C3819593   0.872   0.035   5.421 -0.5413  0.7795 -0.3706
  173SLPC   H8X19594   0.982   0.019   5.411 -0.8365 -0.2154 -2.5756
  173SLPC   H8Y19595   0.857   0.141   5.390  1.2619  1.0683 -0.3882
  173SLPC   C3919596   0.803  -0.060   5.312  0.1419  0.1074  0.9809
  173SLPC   H9X19597   0.692  -0.050   5.310  0.1249 -0.1814  0.2175
  173SLPC   H9Y19598   0.826  -0.163   5.347 -0.9643 -0.8832 -1.0073
  173SLPC  C31019599   0.862  -0.053   5.170 -0.4768  0.5683 -0.5263
  173SLPC  H10X19600   0.967  -0.087   5.180 -0.5958  0.5884  1.2246
  173SLPC  H10Y19601   0.853   0.050   5.130  0.4140  0.5217 -0.8463
  173SLPC  C31119602   0.789  -0.151   5.073 -0.4616 -0.5265 -0.6938
  173SLPC  H11X19603   0.682  -0.127   5.054 -0.4190  2.4487  2.0429
  173SLPC  H11Y19604   0.794  -0.256   5.109  1.7700 -0.3554 -0.3935
  173SLPC  C31219605   0.853  -0.147   4.945 -0.6252 -0.8370  0.7786
  173SLPC  H12X19606   0.962  -0.156   4.968 -0.2289  2.6506  0.7957
  173SLPC  H12Y19607   0.850  -0.051   4.889  2.4732 -1.1771 -0.1994
  173SLPC  C31319608   0.810  -0.250   4.834 -0.8364  0.0705  1.2957
  173SLPC  H13X19609   0.699  -0.255   4.829 -0.7230 -2.0703 -0.6871
  173SLPC  H13Y19610   0.841  -0.352   4.867  0.1448  0.4126  1.4493
  173SLPC  C31419611   0.873  -0.228   4.694  0.3970  0.0630 -0.4996
  173SLPC  H14X19612   0.823  -0.138   4.651  0.7720  0.7749  0.4986
  173SLPC  H14Y19613   0.859  -0.319   4.632 -1.6805 -0.9099  1.2621
  173SLPC  C31519614   1.019  -0.200   4.686  0.0000 -0.4467 -0.2617
  173SLPC  H15X19615   1.071  -0.288   4.729 -0.7416 -1.3474 -1.1530
  173SLPC  H15Y19616   1.028  -0.112   4.752 -0.6162  1.0171 -2.0487
  173SLPC  C31619617   1.078  -0.157   4.546 -0.1909  0.4023 -0.4033
  173SLPC  H16X19618   1.027  -0.060   4.528 -0.3447  0.7022  1.4522
  173SLPC  H16Y19619   1.052  -0.232   4.467 -1.1192  0.1372  0.1300
  173SLPC  C31719620   1.225  -0.129   4.554  0.6238  0.0200  0.0979
  173SLPC  H17X19621   1.277  -0.224   4.577  2.1231  0.6763 -0.4837
  173SLPC  H17Y19622   1.239  -0.063   4.643  0.0349 -1.2009  1.1294
  173SLPC  C31819623   1.277  -0.038   4.440 -0.1112 -0.0733  0.8803
  173SLPC  H18X19624   1.210   0.048   4.417 -0.3413 -0.6283 -0.6465
  173SLPC  H18Y19625   1.297  -0.087   4.342  0.4008  1.4305  0.1984
  173SLPC  H18Z19626   1.374  -0.009   4.486  1.1625 -1.2097 -0.9262
  174SLPC     N19627   3.948   2.747   6.998  0.1654  0.4477 -0.3568
  174SLPC   C1319628   3.812   2.798   7.000 -0.3155 -1.0686 -0.6546
  174SLPC  H13A19629   3.797   2.855   7.090 -0.8653  1.3576 -2.1664
  174SLPC  H13B19630   3.792   2.866   6.918 -1.1673 -1.0256 -0.4241
  174SLPC  H13C19631   3.750   2.710   6.990  0.7340 -1.8858 -0.0851
  174SLPC   C1419632   3.969   2.665   7.116  0.9258  0.3397 -0.0081
  174SLPC  H14A19633   4.070   2.626   7.124  1.6522  2.4353  3.2153
  174SLPC  H14B19634   3.944   2.714   7.209 -0.7955 -0.4463 -0.0194
  174SLPC  H14C19635   3.900   2.581   7.118 -3.5116  3.6325  0.9523
  174SLPC   C1519636   4.046   2.861   7.002 -0.1497  0.3174 -0.9393
  174SLPC  H15A19637   4.148   2.825   7.009  0.1978  1.0981 -1.7724
  174SLPC  H15B19638   4.031   2.921   6.913 -3.1529  1.9318  0.5323
  174SLPC  H15C19639   4.042   2.918   7.093 -1.3790  0.0891 -0.8438
  174SLPC   C1219640   3.977   2.653   6.878  0.3582 -0.4000 -0.5250
  174SLPC  H12A19641   3.922   2.561   6.892  1.0462 -0.8873 -0.9626
  174SLPC  H12B19642   4.082   2.632   6.890  0.5345 -0.8396 -2.4419
  174SLPC   C1119643   3.951   2.704   6.729 -0.9213 -0.4012  0.1094
  174SLPC  H11A19644   3.994   2.636   6.652 -2.2248 -2.0931  0.7832
  174SLPC  H11B19645   4.003   2.801   6.717  0.0421 -0.7849  1.0709
  174SLPC     P19646   3.710   2.609   6.690  0.2062  0.0294 -0.0594
  174SLPC   O1319647   3.787   2.494   6.636  0.1231  0.4200  0.1430
  174SLPC   O1419648   3.639   2.584   6.816 -0.4782  0.9257 -0.0370
  174SLPC   O1219649   3.813   2.734   6.704 -0.0715  0.1133 -0.2162
  174SLPC   O1119650   3.610   2.662   6.581 -0.1557 -0.7039 -0.5360
  174SLPC    C119651   3.585   2.597   6.454  0.1646  0.8266  0.2909
  174SLPC    HA19652   3.678   2.577   6.396 -0.6128  0.8766 -1.0012
  174SLPC    HB19653   3.544   2.496   6.478  0.4637  0.8712  1.0413
  174SLPC    C219654   3.480   2.677   6.368  0.5625  0.6110  0.0559
  174SLPC    HS19655   3.382   2.663   6.419 -0.5161  1.6088 -1.6881
  174SLPC   O2119656   3.489   2.629   6.240 -0.1007 -0.4631 -0.2657
  174SLPC   C2119657   3.402   2.530   6.201 -0.4974 -0.4228 -0.2065
  174SLPC   O2219658   3.343   2.459   6.280 -0.2038  0.5178 -0.0641
  174SLPC   C2219659   3.386   2.528   6.052  0.2528 -0.0901  0.5000
  174SLPC   H2R19660   3.314   2.609   6.028  1.3243  0.8182  0.2885
  174SLPC   H2S19661   3.480   2.565   6.006 -0.6732  1.1453 -0.4510
  174SLPC    C319662   3.520   2.826   6.379  0.2922  0.2993 -0.8493
  174SLPC    HX19663   3.628   2.831   6.356  0.4732 -2.6600 -0.9840
  174SLPC    HY19664   3.509   2.861   6.484  2.6719 -1.0986 -0.0748
  174SLPC   O3119665   3.430   2.903   6.298  0.0336 -0.1405 -0.0991
  174SLPC   C3119666   3.491   3.001   6.228  0.0652 -0.6973  0.1339
  174SLPC   O3219667   3.608   3.027   6.238  0.1511 -0.4611 -0.5912
  174SLPC   C3219668   3.396   3.077   6.139  0.0425  0.1653  1.4196
  174SLPC   H2X19669   3.389   3.178   6.185  1.5493  1.1585 -0.4016
  174SLPC   H2Y19670   3.292   3.038   6.148 -0.1751 -0.4671 -2.3164
  174SLPC   C2319671   3.346   2.388   5.995  0.2013 -0.3226 -0.3116
  174SLPC   H3R19672   3.241   2.359   6.020  0.6249 -0.5948  1.3152
  174SLPC   H3S19673   3.405   2.304   6.039 -0.5014 -2.5486 -3.3342
  174SLPC   C2419674   3.360   2.386   5.848 -0.3470  0.4241 -0.6374
  174SLPC   H4R19675   3.469   2.399   5.829 -0.3416  1.6646  0.1032
  174SLPC   H4S19676   3.316   2.467   5.786  0.7799 -0.6492 -2.9622
  174SLPC   C2519677   3.325   2.252   5.790  0.3198 -0.6343 -0.3398
  174SLPC   H5R19678   3.217   2.244   5.813 -0.4914  1.4952 -2.8977
  174SLPC   H5S19679   3.367   2.161   5.838 -0.0670 -0.6870 -0.0996
  174SLPC   C2619680   3.332   2.252   5.630 -0.6882  0.7338 -0.5244
  174SLPC   H6R19681   3.430   2.222   5.589 -0.6221  0.7278 -0.3623
  174SLPC   H6S19682   3.311   2.357   5.599 -0.3832  1.2284  0.8539
  174SLPC   C2719683   3.238   2.145   5.564  0.8478 -0.3761 -0.6256
  174SLPC   H7R19684   3.139   2.154   5.612  1.2092 -0.1042  0.0858
  174SLPC   H7S19685   3.275   2.043   5.590  0.2350  0.0507  2.2841
  174SLPC   C2819686   3.231   2.162   5.412 -0.6426  0.6641  0.5733
  174SLPC   H8R19687   3.178   2.257   5.390  0.5500  1.0337 -0.7956
  174SLPC   H8S19688   3.167   2.075   5.384  0.4765 -0.1059  0.3366
  174SLPC   C2919689   3.355   2.153   5.340 -0.3353  0.2790 -0.1336
  174SLPC   H9R19690   3.413   2.062   5.360 -0.5796  0.3913  1.1690
  174SLPC  C21019691   3.397   2.239   5.249 -1.3995 -0.4236 -0.3871
  174SLPC  H10R19692   3.495   2.230   5.199 -1.0347 -2.4102  0.5846
  174SLPC  C21119693   3.316   2.367   5.205  0.1151  0.7414 -0.3559
  174SLPC  H11R19694   3.339   2.449   5.276 -2.3394  2.3174 -1.2784
  174SLPC  H11S19695   3.206   2.357   5.213  0.2353 -0.1577  0.3927
  174SLPC  C21219696   3.351   2.399   5.067  0.0412  0.4178  0.4583
  174SLPC  H12R19697   3.453   2.438   5.053  0.3058  0.5934  2.6314
  174SLPC  C21319698   3.266   2.390   4.962 -0.1994 -0.3331  0.1491
  174SLPC  H13R19699   3.294   2.427   4.862  0.2577 -2.6053 -0.6221
  174SLPC  C21419700   3.118   2.350   4.958 -0.0798 -0.2461 -0.0863
  174SLPC  H14R19701   3.048   2.435   4.968 -0.8232 -0.9050  0.4227
  174SLPC  H14S19702   3.096   2.282   5.043 -0.3181  0.5630  0.5061
  174SLPC  C21519703   3.092   2.258   4.833  0.0822 -0.3616  0.2655
  174SLPC  H15R19704   2.986   2.226   4.841 -0.9476  2.1574 -1.9782
  174SLPC  H15S19705   3.159   2.169   4.825  1.4522  0.6625 -0.0204
  174SLPC  C21619706   3.101   2.317   4.694  0.1743  0.1202  0.3348
  174SLPC  H16R19707   3.205   2.297   4.661 -0.2903 -0.1163 -1.0952
  174SLPC  H16S19708   3.079   2.425   4.688 -1.3987 -0.1565  0.5648
  174SLPC  C21719709   3.003   2.255   4.592  0.3926  0.3665  0.9120
  174SLPC  H17R19710   2.903   2.254   4.641  0.3527 -1.0287  0.8529
  174SLPC  H17S19711   3.033   2.148   4.595 -0.1690  0.2214  1.8027
  174SLPC  C21819712   2.999   2.311   4.452  0.1592  0.5842 -0.0910
  174SLPC  H18R19713   2.962   2.416   4.448 -1.4596  0.0312 -0.3319
  174SLPC  H18S19714   2.922   2.251   4.399  1.0049 -0.4642 -0.1651
  174SLPC  H18T19715   3.101   2.305   4.409 -0.1965  2.6361 -1.3722
  174SLPC   C3319716   3.452   3.091   5.997  0.5280  0.8230  0.7173
  174SLPC   H3X19717   3.495   2.994   5.966  1.3937  1.8231 -1.3889
  174SLPC   H3Y19718   3.539   3.159   6.003  1.4406 -0.1684 -0.6923
  174SLPC   C3419719   3.346   3.141   5.895  0.7417 -0.0214 -0.7151
  174SLPC   H4X19720   3.311   3.240   5.929 -1.6088 -0.5643 -1.3402
  174SLPC   H4Y19721   3.258   3.073   5.888 -0.3392  1.3315 -0.7057
  174SLPC   C3519722   3.384   3.173   5.747  0.2003  0.2179 -0.0253
  174SLPC   H5X19723   3.413   3.077   5.700 -1.0365 -0.9328  1.4908
  174SLPC   H5Y19724   3.462   3.252   5.749  0.0299  0.4126  2.9693
  174SLPC   C3619725   3.273   3.236   5.656  0.7316 -0.0264  0.1752
  174SLPC   H6X19726   3.259   3.333   5.708  0.2664  0.5071 -0.9133
  174SLPC   H6Y19727   3.175   3.183   5.658  0.9581 -0.4488  1.6389
  174SLPC   C3719728   3.327   3.267   5.517  0.7069  0.1048  0.4083
  174SLPC   H7X19729   3.409   3.341   5.532 -0.5036  1.8107 -0.9366
  174SLPC   H7Y19730   3.254   3.317   5.450 -0.8219  0.6293  2.3672
  174SLPC   C3819731   3.367   3.145   5.435  0.1500  0.0001 -0.6323
  174SLPC   H8X19732   3.274   3.083   5.432 -0.5557  0.8572  1.4684
  174SLPC   H8Y19733   3.441   3.088   5.495  1.7795  2.4398 -0.1952
  174SLPC   C3919734   3.432   3.173   5.297 -0.3938 -0.1014 -0.5923
  174SLPC   H9X19735   3.457   3.072   5.259 -0.4357  0.0068 -0.9118
  174SLPC   H9Y19736   3.522   3.234   5.320  0.7856 -2.3859  1.1912
  174SLPC  C31019737   3.330   3.257   5.214 -0.6541  0.6758 -0.0339
  174SLPC  H10X19738   3.336   3.365   5.240  0.9031  0.5808  0.1389
  174SLPC  H10Y19739   3.228   3.217   5.227 -1.3834  2.5637  0.3931
  174SLPC  C31119740   3.373   3.244   5.070  0.2881 -0.4767 -0.3150
  174SLPC  H11X19741   3.387   3.139   5.036  0.7197 -0.2016 -0.9918
  174SLPC  H11Y19742   3.475   3.289   5.066  0.3216 -0.4280  0.8045
  174SLPC  C31219743   3.290   3.318   4.970 -0.1888 -0.4281 -0.0406
  174SLPC  H12X19744   3.314   3.425   4.985  0.6429 -0.4914 -0.8143
  174SLPC  H12Y19745   3.180   3.310   4.984 -0.3679 -2.7782 -2.0140
  174SLPC  C31319746   3.338   3.289   4.830 -0.3282  0.0631 -0.3899
  174SLPC  H13X19747   3.290   3.211   4.768  3.0934 -1.1634 -1.7339
  174SLPC  H13Y19748   3.442   3.261   4.855 -0.5473  0.8560  1.6834
  174SLPC  C31419749   3.331   3.416   4.742  0.2504 -0.5495 -0.1351
  174SLPC  H14X19750   3.389   3.504   4.776  0.6031 -1.2981  1.2821
  174SLPC  H14Y19751   3.224   3.441   4.723  0.9561  2.0245 -1.1191
  174SLPC  C31519752   3.383   3.395   4.600  0.6031 -0.1727 -0.3889
  174SLPC  H15X19753   3.312   3.330   4.545 -2.4896  1.8549  0.9432
  174SLPC  H15Y19754   3.481   3.345   4.613  0.7108  0.4864  1.5615
  174SLPC  C31619755   3.404   3.527   4.534 -0.0945  0.6371  0.0459
  174SLPC  H16X19756   3.502   3.567   4.569  1.3588 -0.8759 -1.9937
  174SLPC  H16Y19757   3.319   3.589   4.569 -1.2070 -0.5297 -0.5108
  174SLPC  C31719758   3.410   3.514   4.383  0.0051 -1.0618  0.8297
  174SLPC  H17X19759   3.421   3.617   4.343 -2.6894 -0.8857  0.3510
  174SLPC  H17Y19760   3.305   3.497   4.351 -0.5625 -1.4910  2.8167
  174SLPC  C31819761   3.509   3.427   4.304  0.1002 -0.2387  0.0338
  174SLPC  H18X19762   3.597   3.481   4.262  1.0603 -0.0683  2.1450
  174SLPC  H18Y19763   3.453   3.378   4.221  0.1012 -0.3123  0.0757
  174SLPC  H18Z19764   3.542   3.344   4.370  1.2002  1.7357  2.0990
  175SLPC     N19765   6.803   5.242   7.287 -0.2711 -0.2909 -1.0622
  175SLPC   C1319766   6.683   5.300   7.364  0.0406 -0.4545  0.3285
  175SLPC  H13A19767   6.602   5.233   7.390 -0.2706 -0.2207 -0.0320
  175SLPC  H13B19768   6.712   5.339   7.460 -0.3477 -1.0589  0.6980
  175SLPC  H13C19769   6.642   5.380   7.304 -0.3058  1.4769  2.9419
  175SLPC   C1419770   6.856   5.134   7.370  0.3203  0.5736 -0.3060
  175SLPC  H14A19771   6.785   5.053   7.372  1.1046 -0.1335 -0.3814
  175SLPC  H14B19772   6.951   5.089   7.345  0.5384  0.4939  0.6201
  175SLPC  H14C19773   6.886   5.157   7.471 -0.4142 -1.7318  0.4942
  175SLPC   C1519774   6.904   5.358   7.287  0.3895  0.2631  0.5317
  175SLPC  H15A19775   6.867   5.441   7.229 -0.3473 -0.9614 -0.8392
  175SLPC  H15B19776   6.920   5.388   7.389  1.3124 -1.3108  0.8750
  175SLPC  H15C19777   7.003   5.328   7.256  0.2408 -1.2401  1.3972
  175SLPC   C1219778   6.771   5.187   7.152  0.2262 -0.7168 -0.0217
  175SLPC  H12A19779   6.721   5.092   7.151 -0.8761 -0.1451  0.0942
  175SLPC  H12B19780   6.863   5.146   7.113 -0.3007 -0.0028 -2.1571
  175SLPC   C1119781   6.713   5.286   7.040  0.7999 -0.0171 -0.2108
  175SLPC  H11A19782   6.624   5.339   7.081  1.8116 -0.2890  2.5740
  175SLPC  H11B19783   6.672   5.214   6.965 -1.2138 -0.5043  1.2740
  175SLPC     P19784   6.923   5.323   6.892  0.3596 -0.0500 -0.0288
  175SLPC   O1319785   7.006   5.443   6.866  0.2543 -0.4972 -0.3070
  175SLPC   O1419786   6.990   5.202   6.945 -0.5825 -0.1999  0.5408
  175SLPC   O1219787   6.812   5.376   6.988  0.6569  0.3966  0.3600
  175SLPC   O1119788   6.846   5.275   6.764  0.4708 -0.2142  0.2093
  175SLPC    C119789   6.743   5.352   6.704  0.3093 -0.2327  0.5514
  175SLPC    HA19790   6.647   5.298   6.721  0.1365 -0.2772 -0.5049
  175SLPC    HB19791   6.727   5.449   6.756  0.3073 -0.6519  1.3500
  175SLPC    C219792   6.778   5.369   6.555 -0.2367  0.4862  0.3554
  175SLPC    HS19793   6.683   5.384   6.499 -0.6340  1.8257  1.3324
  175SLPC   O2119794   6.845   5.253   6.503  0.0075  0.0742 -0.9858
  175SLPC   C2119795   6.783   5.131   6.512 -0.1045  0.2966  0.3094
  175SLPC   O2219796   6.667   5.124   6.556 -0.8269  0.4665 -0.2384
  175SLPC   C2219797   6.862   5.016   6.461 -0.9125  0.5086 -0.0329
  175SLPC   H2R19798   6.932   4.974   6.536 -1.8827 -2.0853 -0.4741
  175SLPC   H2S19799   6.791   4.940   6.423 -1.5391  0.1541  1.7572
  175SLPC    C319800   6.867   5.491   6.536  0.2341 -0.3578 -0.1945
  175SLPC    HX19801   6.967   5.475   6.581 -0.4788 -2.0301  0.9154
  175SLPC    HY19802   6.820   5.570   6.599  0.1007  0.0804 -0.8403
  175SLPC   O3119803   6.855   5.540   6.401  0.1776  0.3384  0.1984
  175SLPC   C3119804   6.953   5.492   6.321 -1.1205  0.0820 -0.4188
  175SLPC   O3219805   7.054   5.437   6.363 -0.0452  0.4859 -0.1568
  175SLPC   C3219806   6.928   5.508   6.170  0.1445 -0.1009  0.5816
  175SLPC   H2X19807   6.900   5.613   6.146 -0.8424 -0.7933 -1.6035
  175SLPC   H2Y19808   6.841   5.442   6.148 -0.0480  0.3651 -0.1056
  175SLPC   C2319809   6.937   5.053   6.333  0.1241  0.2989  0.3479
  175SLPC   H3R19810   7.000   4.968   6.297 -2.1458 -0.7121 -1.5039
  175SLPC   H3S19811   7.013   5.132   6.349  0.2243 -0.1423  2.3833
  175SLPC   C2419812   6.842   5.100   6.219  0.8254 -0.3618  0.0629
  175SLPC   H4R19813   6.810   5.202   6.251 -2.8501 -0.9371 -1.2775
  175SLPC   H4S19814   6.753   5.036   6.205 -0.4806  1.6884 -1.6637
  175SLPC   C2519815   6.911   5.108   6.085 -1.0379  0.3221 -0.1210
  175SLPC   H5R19816   6.939   5.007   6.048 -1.2263  0.0730  0.4104
  175SLPC   H5S19817   7.001   5.170   6.105 -0.1607 -0.7329 -0.6573
  175SLPC   C2619818   6.822   5.168   5.979  0.4757 -0.2816  0.3067
  175SLPC   H6R19819   6.884   5.181   5.888 -0.5633 -0.0887 -0.3805
  175SLPC   H6S19820   6.782   5.267   6.010  0.3884  0.0139 -0.7141
  175SLPC   C2719821   6.708   5.084   5.917 -0.2902  0.3675  0.0546
  175SLPC   H7R19822   6.642   5.036   5.993 -0.4738 -1.1984 -1.0410
  175SLPC   H7S19823   6.765   5.004   5.866  2.1762  2.4866 -0.6920
  175SLPC   C2819824   6.607   5.156   5.825  0.8037 -0.0276 -0.4062
  175SLPC   H8R19825   6.571   5.244   5.883  2.2748 -0.1866  0.8191
  175SLPC   H8S19826   6.519   5.090   5.810 -0.8192  1.7374  0.7716
  175SLPC   C2919827   6.669   5.213   5.703  0.7462  0.5849  0.0027
  175SLPC   H9R19828   6.749   5.286   5.723  0.7664  1.1772 -1.9877
  175SLPC  C21019829   6.616   5.201   5.578  0.0871 -0.6269  0.2932
  175SLPC  H10R19830   6.680   5.239   5.497 -0.1379 -1.2365 -0.1726
  175SLPC  C21119831   6.502   5.118   5.539 -0.0875  0.1967 -0.1591
  175SLPC  H11R19832   6.508   5.019   5.590  1.6550  1.0130  1.3532
  175SLPC  H11S19833   6.513   5.085   5.434 -1.7758 -0.7944 -0.0616
  175SLPC  C21219834   6.373   5.191   5.565  0.2085  0.5443 -0.0199
  175SLPC  H12R19835   6.330   5.170   5.664  1.7520  1.3461  0.8653
  175SLPC  C21319836   6.313   5.267   5.472  0.3807  0.9395 -0.3627
  175SLPC  H13R19837   6.220   5.318   5.501  0.5734  0.1624  1.7834
  175SLPC  C21419838   6.360   5.304   5.336 -0.3160 -0.1855  1.1182
  175SLPC  H14R19839   6.460   5.259   5.317 -0.6288 -0.5542  0.2987
  175SLPC  H14S19840   6.364   5.415   5.328 -0.9729 -0.2407 -0.2924
  175SLPC  C21519841   6.281   5.245   5.216 -0.5268  0.1618  0.0058
  175SLPC  H15R19842   6.308   5.296   5.121  0.0883 -1.4915 -0.7649
  175SLPC  H15S19843   6.171   5.256   5.233 -0.7783 -0.2154 -1.2267
  175SLPC  C21619844   6.295   5.095   5.193  0.1727 -0.9334  0.2645
  175SLPC  H16R19845   6.265   5.049   5.289  0.5666 -0.2087  0.7401
  175SLPC  H16S19846   6.400   5.068   5.170  0.1469 -0.5115 -0.4026
  175SLPC  C21719847   6.210   5.030   5.083  0.3072  0.3304 -0.8285
  175SLPC  H17R19848   6.242   4.924   5.084 -2.0949 -0.5164 -2.7349
  175SLPC  H17S19849   6.230   5.080   4.985  1.7125  0.9645 -0.2447
  175SLPC  C21819850   6.058   5.036   5.094 -0.1343 -0.0391  0.0412
  175SLPC  H18R19851   6.024   5.018   5.198  0.3825 -1.7477 -0.0630
  175SLPC  H18S19852   6.005   4.955   5.040  0.8079  0.8762 -2.3885
  175SLPC  H18T19853   6.024   5.136   5.060  0.8160  1.1194  2.2809
  175SLPC   C3319854   7.054   5.477   6.086  0.7591 -0.0869 -0.0586
  175SLPC   H3X19855   7.072   5.368   6.073  0.5535 -0.1088 -0.1620
  175SLPC   H3Y19856   7.138   5.529   6.136 -0.0473  2.7177 -1.3942
  175SLPC   C3419857   7.044   5.543   5.949 -0.1849 -0.1527  0.1190
  175SLPC   H4X19858   7.146   5.539   5.907  0.8837  0.6591  2.4902
  175SLPC   H4Y19859   7.013   5.648   5.964  0.0296 -0.2140  1.0365
  175SLPC   C3519860   6.947   5.469   5.866  0.2098 -0.2342 -0.7758
  175SLPC   H5X19861   6.847   5.461   5.915 -0.5210 -0.4151 -2.2185
  175SLPC   H5Y19862   6.983   5.364   5.860  1.0968  0.1101 -1.7134
  175SLPC   C3619863   6.927   5.536   5.726 -0.0170 -0.0483 -0.0589
  175SLPC   H6X19864   6.881   5.635   5.746 -0.8121 -0.1902 -1.1136
  175SLPC   H6Y19865   6.854   5.485   5.659  0.4407  0.7342 -1.1913
  175SLPC   C3719866   7.053   5.568   5.644 -0.3556 -0.3983 -0.1434
  175SLPC   H7X19867   7.102   5.470   5.626 -1.3115 -0.7636 -0.8829
  175SLPC   H7Y19868   7.130   5.625   5.699 -0.0830 -0.0502 -0.8779
  175SLPC   C3819869   7.035   5.638   5.510 -0.6041 -0.1649  0.2061
  175SLPC   H8X19870   6.974   5.732   5.511 -1.3447 -0.6218 -0.5267
  175SLPC   H8Y19871   6.972   5.573   5.446 -1.1875  0.0823  0.5123
  175SLPC   C3919872   7.169   5.670   5.443 -0.4146 -0.7024 -0.8395
  175SLPC   H9X19873   7.234   5.580   5.453  0.6987  0.2369  0.7360
  175SLPC   H9Y19874   7.219   5.756   5.491  0.4322  0.6032 -3.8101
  175SLPC  C31019875   7.147   5.706   5.293 -0.4287 -0.3086 -0.6511
  175SLPC  H10X19876   7.082   5.623   5.259 -0.8772 -0.3190  0.1895
  175SLPC  H10Y19877   7.244   5.730   5.246 -1.3096  1.7741 -1.5192
  175SLPC  C31119878   7.056   5.820   5.252  0.1549 -0.6803  0.1301
  175SLPC  H11X19879   7.090   5.911   5.306 -4.0797  0.3823  1.3331
  175SLPC  H11Y19880   6.959   5.791   5.296 -0.0054 -2.3557 -1.2083
  175SLPC  C31219881   7.059   5.843   5.098 -0.4535 -0.0935  0.8073
  175SLPC  H12X19882   7.165   5.859   5.069 -0.3537 -2.2062 -0.2093
  175SLPC  H12Y19883   7.004   5.930   5.057  0.6840  0.4738  0.4555
  175SLPC  C31319884   7.015   5.717   5.023 -0.9545  0.2205  0.1208
  175SLPC  H13X19885   6.910   5.689   5.046 -1.3009  1.3597 -0.0170
  175SLPC  H13Y19886   7.083   5.638   5.062  1.3166  2.4423  0.9059
  175SLPC  C31419887   7.024   5.730   4.870  0.0034  0.2551  0.2387
  175SLPC  H14X19888   7.128   5.734   4.832  0.3984 -1.9273  0.9123
  175SLPC  H14Y19889   6.977   5.828   4.848  0.3926  0.4213  0.1478
  175SLPC  C31519890   6.943   5.624   4.796  0.4497  0.3377 -0.4917
  175SLPC  H15X19891   6.937   5.649   4.687  1.8615  0.1397 -0.6262
  175SLPC  H15Y19892   6.834   5.627   4.819  0.3872  2.1119 -0.8523
  175SLPC  C31619893   6.981   5.479   4.816 -0.3975  0.5638 -0.1800
  175SLPC  H16X19894   6.900   5.405   4.799  0.3833 -0.2915 -0.2472
  175SLPC  H16Y19895   7.016   5.467   4.921 -1.4654 -0.5687  0.0604
  175SLPC  C31719896   7.091   5.426   4.725  0.0488 -0.4808 -0.3108
  175SLPC  H17X19897   7.181   5.490   4.719  0.5914 -1.2706 -0.8430
  175SLPC  H17Y19898   7.046   5.434   4.624  0.5410  1.8108 -0.4035
  175SLPC  C31819899   7.145   5.279   4.737  0.0733 -0.2890 -0.1952
  175SLPC  H18X19900   7.061   5.213   4.708  1.0570 -1.7157  0.0627
  175SLPC  H18Y19901   7.189   5.255   4.837  1.5230 -2.4923 -1.2879
  175SLPC  H18Z19902   7.213   5.272   4.650  1.2589 -1.1420  0.7629
  176SLPC     N19903   1.094   2.067   6.940  0.3141 -0.1202 -0.2877
  176SLPC   C1319904   1.034   2.204   6.955 -0.1883 -0.0200 -0.4763
  176SLPC  H13A19905   0.930   2.188   6.982  0.5310 -2.3858  1.3000
  176SLPC  H13B19906   1.084   2.258   7.034  0.2035 -3.0297  1.5217
  176SLPC  H13C19907   1.034   2.267   6.867 -2.6343 -0.3758 -0.8043
  176SLPC   C1419908   1.121   2.011   7.083 -0.6022  0.0586 -0.1352
  176SLPC  H14A19909   1.028   1.997   7.137 -0.9515  2.2697 -0.0426
  176SLPC  H14B19910   1.168   1.914   7.078 -0.8603 -0.0301 -1.1360
  176SLPC  H14C19911   1.191   2.078   7.130  0.2777  1.5433 -3.2727
  176SLPC   C1519912   1.220   2.071   6.866  0.6153 -0.4267  0.4301
  176SLPC  H15A19913   1.204   2.090   6.761  1.3909 -0.0344  0.3756
  176SLPC  H15B19914   1.281   2.151   6.907  3.1525 -2.0042 -0.0651
  176SLPC  H15C19915   1.273   1.977   6.875  0.5087 -0.3698  1.9347
  176SLPC   C1219916   1.010   1.978   6.852  0.0078  0.6693  0.5232
  176SLPC  H12A19917   1.048   1.877   6.857 -3.1040 -0.5837  0.5748
  176SLPC  H12B19918   1.014   2.001   6.747  0.8339  0.7722  0.5648
  176SLPC   C1119919   0.858   1.963   6.885 -0.5301 -0.1809 -0.2261
  176SLPC  H11A19920   0.859   1.916   6.986 -1.6510  1.7118  0.7219
  176SLPC  H11B19921   0.808   1.893   6.815  0.5065  0.6402 -1.8544
  176SLPC     P19922   0.714   2.160   6.766 -0.1222  0.4660  0.0631
  176SLPC   O1319923   0.576   2.115   6.760  0.0756  0.0527  0.0265
  176SLPC   O1419924   0.733   2.306   6.778  0.6667 -0.3904 -0.1552
  176SLPC   O1219925   0.785   2.082   6.891  0.1112 -0.5754 -0.2865
  176SLPC   O1119926   0.785   2.109   6.641 -0.3280  0.5435 -0.1803
  176SLPC    C119927   0.900   2.165   6.585 -0.5603  0.1858 -0.8055
  176SLPC    HA19928   0.962   2.214   6.663  0.5963 -0.2784 -1.4181
  176SLPC    HB19929   0.958   2.080   6.544  1.4157  0.1266  1.8749
  176SLPC    C219930   0.867   2.272   6.479 -0.4090  0.4657  0.6786
  176SLPC    HS19931   0.831   2.366   6.524 -0.3674  0.6820  0.2680
  176SLPC   O2119932   0.776   2.219   6.383  0.4818 -0.1220 -0.3348
  176SLPC   C2119933   0.703   2.302   6.323 -0.0430  0.1124  0.4454
  176SLPC   O2219934   0.697   2.423   6.345  0.6558 -0.3796  0.3132
  176SLPC   C2219935   0.625   2.220   6.218  0.0128 -0.8652 -0.1559
  176SLPC   H2R19936   0.617   2.112   6.241  1.7576 -1.3668 -1.6116
  176SLPC   H2S19937   0.525   2.268   6.212  1.4043  2.4126  0.5085
  176SLPC    C319938   0.994   2.311   6.391 -0.4981 -0.4231 -0.3339
  176SLPC    HX19939   1.035   2.215   6.353  0.6279 -0.0043 -0.2197
  176SLPC    HY19940   1.072   2.359   6.454  0.9250 -0.8663 -1.7013
  176SLPC   O3119941   0.983   2.414   6.289 -0.3822  0.3180 -0.3102
  176SLPC   C3119942   1.023   2.383   6.165 -0.5691  0.4495  0.6810
  176SLPC   O3219943   1.071   2.276   6.127  0.1780 -0.2431  0.0306
  176SLPC   C3219944   1.017   2.513   6.085 -0.0970 -0.5242  0.3550
  176SLPC   H2X19945   1.121   2.545   6.107  0.4699 -3.1919  2.1758
  176SLPC   H2Y19946   0.934   2.580   6.117 -1.3466 -0.9665 -1.7234
  176SLPC   C2319947   0.695   2.236   6.084 -0.4178  0.1382  0.1846
  176SLPC   H3R19948   0.803   2.212   6.093 -0.3402  0.5903  0.5015
  176SLPC   H3S19949   0.675   2.340   6.048  1.6906  0.5397  0.0312
  176SLPC   C2419950   0.640   2.137   5.981 -0.4850 -0.8300 -0.2740
  176SLPC   H4R19951   0.529   2.135   5.980 -0.5338 -2.2868 -3.1785
  176SLPC   H4S19952   0.682   2.038   6.009  0.1960 -0.3090  0.6434
  176SLPC   C2519953   0.687   2.176   5.846 -0.7711 -0.3504 -0.1844
  176SLPC   H5R19954   0.681   2.080   5.790 -0.3611  0.8657 -2.4452
  176SLPC   H5S19955   0.795   2.201   5.848 -0.5154 -1.4896  1.9465
  176SLPC   C2619956   0.613   2.283   5.775 -0.5020 -0.2053 -0.1459
  176SLPC   H6R19957   0.665   2.325   5.686  0.6114 -1.3890 -0.0771
  176SLPC   H6S19958   0.599   2.364   5.850 -2.2007 -0.1642 -0.4650
  176SLPC   C2719959   0.474   2.242   5.730  0.2603  0.2877 -0.3250
  176SLPC   H7R19960   0.430   2.169   5.801  0.0945 -0.8119 -1.5332
  176SLPC   H7S19961   0.483   2.199   5.628  0.8935 -1.9763  0.6295
  176SLPC   C2819962   0.378   2.364   5.711  0.1834 -0.0076 -0.0970
  176SLPC   H8R19963   0.287   2.325   5.660  0.6226 -0.8199 -0.2731
  176SLPC   H8S19964   0.429   2.446   5.657  0.1334 -0.2443 -0.5055
  176SLPC   C2919965   0.336   2.397   5.854 -0.1535 -0.6231 -0.4210
  176SLPC   H9R19966   0.302   2.315   5.918  1.7889 -0.8600  0.3624
  176SLPC  C21019967   0.323   2.523   5.902  0.3439  0.1497 -0.4783
  176SLPC  H10R19968   0.305   2.535   6.010  1.4334 -1.0961 -0.1205
  176SLPC  C21119969   0.369   2.641   5.821 -0.2386  0.2400 -0.3346
  176SLPC  H11R19970   0.478   2.644   5.797 -0.3806  2.4249 -0.9256
  176SLPC  H11S19971   0.366   2.727   5.891 -0.4660 -2.6598  3.5773
  176SLPC  C21219972   0.285   2.681   5.701 -0.2013  0.6793 -0.2531
  176SLPC  H12R19973   0.181   2.646   5.701 -0.6894  2.0676 -0.2041
  176SLPC  C21319974   0.332   2.732   5.586  0.0207 -1.0500 -0.1638
  176SLPC  H13R19975   0.265   2.746   5.501  2.8844 -0.2629 -2.4503
  176SLPC  C21419976   0.476   2.785   5.575 -0.5195 -0.1687 -0.1954
  176SLPC  H14R19977   0.542   2.706   5.616 -0.8790  0.3003  1.3266
  176SLPC  H14S19978   0.491   2.889   5.611  0.9178 -1.6841  4.2733
  176SLPC  C21519979   0.514   2.795   5.425 -0.0761  0.2428  0.3904
  176SLPC  H15R19980   0.508   2.697   5.373  1.0129  0.2874  0.1479
  176SLPC  H15S19981   0.621   2.818   5.407  0.4722 -1.1182  1.7601
  176SLPC  C21619982   0.428   2.896   5.346 -0.5174 -0.6323  0.2074
  176SLPC  H16R19983   0.441   2.996   5.393  0.4331 -0.3640 -0.5830
  176SLPC  H16S19984   0.322   2.862   5.355 -0.6017 -0.1568  1.1292
  176SLPC  C21719985   0.471   2.910   5.197  0.1153  0.5861  0.0631
  176SLPC  H17R19986   0.430   2.826   5.137 -1.0564  0.4446  1.0147
  176SLPC  H17S19987   0.581   2.902   5.207  0.1762 -0.3265 -1.0968
  176SLPC  C21819988   0.439   3.039   5.114  0.9865  0.3205 -0.0803
  176SLPC  H18R19989   0.433   3.136   5.168 -2.1828 -0.1154  0.5428
  176SLPC  H18S19990   0.334   3.020   5.086  0.9810 -0.2496  0.3304
  176SLPC  H18T19991   0.497   3.048   5.019  2.1675  1.4903  0.7122
  176SLPC   C3319992   1.004   2.477   5.929  0.3010 -0.8121  0.3396
  176SLPC   H3X19993   0.898   2.456   5.901  0.5025 -0.5118 -0.7130
  176SLPC   H3Y19994   1.060   2.388   5.894  1.5113  1.1875 -3.3124
  176SLPC   C3419995   1.046   2.592   5.834  1.3471 -0.0252 -0.2379
  176SLPC   H4X19996   1.148   2.624   5.862  1.4851  2.3195 -2.9831
  176SLPC   H4Y19997   0.980   2.681   5.845 -1.6596 -2.0476 -0.4837
  176SLPC   C3519998   1.044   2.560   5.682  0.1268 -0.5950  0.0625
  176SLPC   H5X19999   1.115   2.476   5.668 -1.2612 -1.4083 -2.8280
  176SLPC   H5Y20000   1.082   2.641   5.616 -0.9501 -1.2840 -1.4543
  176SLPC   C3620001   0.907   2.508   5.632 -0.2428  0.2655  0.0769
  176SLPC   H6X20002   0.825   2.577   5.661 -0.5076 -0.0308  0.0266
  176SLPC   H6Y20003   0.896   2.415   5.691  1.7964  1.5821  2.7888
  176SLPC   C3720004   0.890   2.489   5.480  0.1426 -0.6571  0.0653
  176SLPC   H7X20005   0.978   2.439   5.433 -0.1472 -1.0939 -0.0232
  176SLPC   H7Y20006   0.870   2.592   5.446  1.0290 -0.6030 -0.3216
  176SLPC   C3820007   0.768   2.390   5.432  0.9792 -0.5291  0.0360
  176SLPC   H8X20008   0.672   2.419   5.480 -0.5186 -0.0931 -2.9739
  176SLPC   H8Y20009   0.806   2.291   5.467  1.6421  0.5516  2.6189
  176SLPC   C3920010   0.752   2.383   5.283 -0.5622 -0.4377  0.0665
  176SLPC   H9X20011   0.715   2.284   5.246 -2.3145  0.5897 -1.0962
  176SLPC   H9Y20012   0.851   2.397   5.234 -0.1302  0.7617  1.2527
  176SLPC  C31020013   0.659   2.491   5.217  0.3432  0.4317 -0.0089
  176SLPC  H10X20014   0.693   2.591   5.251  0.2609  0.5849 -0.3678
  176SLPC  H10Y20015   0.561   2.464   5.262 -0.6479 -1.9307 -3.2340
  176SLPC  C31120016   0.648   2.482   5.065 -0.6022  0.0218  0.3682
  176SLPC  H11X20017   0.735   2.434   5.015  0.0293  0.1591  1.3277
  176SLPC  H11Y20018   0.624   2.578   5.015  0.3018  0.2656  0.3841
  176SLPC  C31220019   0.540   2.379   5.025 -0.0730 -0.5992  0.2153
  176SLPC  H12X20020   0.450   2.432   5.064  0.5805  1.4771 -0.9694
  176SLPC  H12Y20021   0.555   2.280   5.075  1.3399 -0.4548  0.0966
  176SLPC  C31320022   0.508   2.353   4.874 -0.1478 -0.7462 -0.5274
  176SLPC  H13X20023   0.595   2.295   4.836 -1.2861 -1.9020 -1.4885
  176SLPC  H13Y20024   0.509   2.447   4.815  1.7520 -0.5971 -0.3262
  176SLPC  C31420025   0.372   2.283   4.850 -0.2135  0.2178 -0.2975
  176SLPC  H14X20026   0.308   2.359   4.899 -2.5925 -1.2073 -1.0394
  176SLPC  H14Y20027   0.366   2.183   4.897  1.7645 -0.2031 -0.8491
  176SLPC  C31520028   0.342   2.260   4.704 -0.2996 -0.5121 -0.0944
  176SLPC  H15X20029   0.402   2.176   4.665  0.0598  0.2456 -1.2352
  176SLPC  H15Y20030   0.380   2.346   4.643 -3.3400  0.4761 -0.7767
  176SLPC  C31620031   0.187   2.259   4.682  0.3670  0.4354 -0.2083
  176SLPC  H16X20032   0.164   2.251   4.573  0.1228 -0.4430 -0.1031
  176SLPC  H16Y20033   0.150   2.355   4.722  2.0827  1.8105 -1.7692
  176SLPC  C31720034   0.120   2.139   4.746 -0.5587  0.4706 -0.7016
  176SLPC  H17X20035   0.096   2.153   4.853  0.9225 -1.1529 -0.0963
  176SLPC  H17Y20036   0.201   2.063   4.761 -0.3132  0.8861  0.1260
  176SLPC  C31820037   0.002   2.080   4.671 -0.0566 -0.0565 -0.1966
  176SLPC  H18X20038   0.015   2.043   4.567 -0.7884 -1.3062  0.1334
  176SLPC  H18Y20039  -0.087   2.145   4.684  1.8452  2.5765  0.5589
  176SLPC  H18Z20040  -0.034   1.991   4.728 -0.7877  1.4168  1.7911
  177SLPC     N20041   6.490   4.592   6.711 -0.0033 -0.6370  0.5726
  177SLPC   C1320042   6.399   4.480   6.751  0.4728 -0.4526 -0.3152
  177SLPC  H13A20043   6.412   4.465   6.857  4.3909  0.1888 -0.5655
  177SLPC  H13B20044   6.294   4.501   6.734 -0.0929 -0.2218  2.8195
  177SLPC  H13C20045   6.431   4.391   6.700 -2.7269 -0.7999 -1.9507
  177SLPC   C1420046   6.610   4.565   6.793 -0.1278  0.2995  0.4371
  177SLPC  H14A20047   6.590   4.591   6.896 -1.2317  1.5328 -0.0551
  177SLPC  H14B20048   6.649   4.467   6.770  1.2305  0.3057  2.4283
  177SLPC  H14C20049   6.686   4.633   6.757  0.6592 -1.3241 -1.0814
  177SLPC   C1520050   6.428   4.722   6.743  0.2088  0.2047  0.1014
  177SLPC  H15A20051   6.416   4.732   6.850 -0.3765  2.5072 -0.1296
  177SLPC  H15B20052   6.484   4.806   6.705 -3.5543  2.2540 -1.4817
  177SLPC  H15C20053   6.327   4.727   6.706  0.0665  1.3941  0.6025
  177SLPC   C1220054   6.526   4.585   6.557  0.4198  0.1230  0.1900
  177SLPC  H12A20055   6.573   4.674   6.519  1.5091 -0.4048  0.2540
  177SLPC  H12B20056   6.432   4.582   6.504  0.1776  0.2812  0.6048
  177SLPC   C1120057   6.612   4.466   6.498  0.0481  0.2986 -1.0171
  177SLPC  H11A20058   6.709   4.472   6.550 -0.3453  2.0126 -0.4088
  177SLPC  H11B20059   6.634   4.488   6.391  0.0946  0.6509 -0.9364
  177SLPC     P20060   6.460   4.283   6.403  0.6178 -0.3803 -0.0403
  177SLPC   O1320061   6.458   4.138   6.416  0.2670  0.2484  0.3821
  177SLPC   O1420062   6.331   4.358   6.411 -0.2532  0.2574  0.2461
  177SLPC   O1220063   6.559   4.335   6.516 -0.3121  0.2267  0.3347
  177SLPC   O1120064   6.528   4.309   6.265 -0.2731 -0.4503  0.1829
  177SLPC    C120065   6.664   4.273   6.234 -0.7980 -0.3344  0.0048
  177SLPC    HA20066   6.719   4.368   6.217  1.1435 -1.1165  1.5134
  177SLPC    HB20067   6.713   4.222   6.320 -1.8244 -1.5334 -0.0958
  177SLPC    C220068   6.663   4.189   6.111  0.3927 -0.3318 -0.1127
  177SLPC    HS20069   6.766   4.161   6.081  0.7331 -1.1850  1.7185
  177SLPC   O2120070   6.600   4.256   6.011  0.3940 -0.9076  0.6880
  177SLPC   C2120071   6.669   4.349   5.948 -0.4185 -0.5223  0.6804
  177SLPC   O2220072   6.779   4.390   5.985  0.5397 -0.0076 -0.0113
  177SLPC   C2220073   6.592   4.400   5.825 -0.0977  0.1131 -0.0675
  177SLPC   H2R20074   6.569   4.320   5.752 -1.9138  0.9014 -0.4022
  177SLPC   H2S20075   6.494   4.449   5.844  0.4167  1.9194 -1.7640
  177SLPC    C320076   6.582   4.058   6.130  0.2944 -0.5683  0.4086
  177SLPC    HX20077   6.478   4.083   6.159  0.9875  0.9492  1.7375
  177SLPC    HY20078   6.633   4.013   6.218  0.4891  0.0717  0.6337
  177SLPC   O3120079   6.585   3.973   6.019  0.3689  0.3650 -0.2354
  177SLPC   C3120080   6.501   3.874   6.007 -0.1255  0.0633  0.2311
  177SLPC   O3220081   6.399   3.846   6.068  0.1495 -0.2934  0.3952
  177SLPC   C3220082   6.550   3.772   5.902  0.1851  0.6792  0.0492
  177SLPC   H2X20083   6.526   3.673   5.945  2.7258  0.5562  1.3476
  177SLPC   H2Y20084   6.660   3.781   5.887  0.0774  0.0056 -1.2969
  177SLPC   C2320085   6.679   4.509   5.759 -0.0726 -0.4579  0.1612
  177SLPC   H3R20086   6.770   4.456   5.721 -0.8150 -0.7515 -1.2879
  177SLPC   H3S20087   6.712   4.583   5.835  1.0225  1.0798 -1.7053
  177SLPC   C2420088   6.608   4.583   5.649 -0.2982  0.5535  0.4524
  177SLPC   H4R20089   6.515   4.636   5.678 -0.6771  0.3363 -0.3268
  177SLPC   H4S20090   6.574   4.501   5.581 -0.0521  0.7125  0.1330
  177SLPC   C2520091   6.704   4.680   5.577  0.6952 -0.2320  0.5939
  177SLPC   H5R20092   6.806   4.634   5.579  1.5794  1.5968 -0.0960
  177SLPC   H5S20093   6.716   4.778   5.629 -0.9372 -0.2639  1.0656
  177SLPC   C2620094   6.670   4.705   5.424  0.0774  0.0414 -0.2971
  177SLPC   H6R20095   6.561   4.710   5.404 -0.3357 -0.9791  1.4756
  177SLPC   H6S20096   6.707   4.618   5.365 -1.1759 -0.4669 -0.3576
  177SLPC   C2720097   6.739   4.827   5.356  1.1493 -0.0952  0.2297
  177SLPC   H7R20098   6.843   4.834   5.395  0.5470  1.8107  1.6617
  177SLPC   H7S20099   6.695   4.926   5.381 -0.6153 -0.9894  0.8941
  177SLPC   C2820100   6.760   4.814   5.202 -0.5389 -0.0769  0.9170
  177SLPC   H8R20101   6.814   4.720   5.179  0.1931  0.6539 -0.4664
  177SLPC   H8S20102   6.818   4.902   5.167  1.2118 -1.3037  0.6250
  177SLPC   C2920103   6.628   4.801   5.139  0.2410  0.4929  0.2834
  177SLPC   H9R20104   6.553   4.871   5.179 -2.9530 -1.5455 -1.6698
  177SLPC  C21020105   6.586   4.723   5.033 -0.5861  0.2159 -0.1904
  177SLPC  H10R20106   6.478   4.730   5.015 -0.7916  1.0514  1.2681
  177SLPC  C21120107   6.667   4.628   4.947 -0.4748 -0.2687 -0.1001
  177SLPC  H11R20108   6.776   4.634   4.970 -0.4165 -2.5487  0.4651
  177SLPC  H11S20109   6.665   4.673   4.846  1.7625  1.1332  0.4022
  177SLPC  C21220110   6.623   4.482   4.938  0.0231 -0.0340 -0.1250
  177SLPC  H12R20111   6.642   4.421   5.028  0.8431 -0.9893 -0.9151
  177SLPC  C21320112   6.552   4.417   4.835 -0.2641  0.4178 -0.5967
  177SLPC  H13R20113   6.510   4.316   4.848  1.7757 -0.2252  1.9563
  177SLPC  C21420114   6.513   4.480   4.703  0.3608 -0.3399  0.2175
  177SLPC  H14R20115   6.466   4.406   4.635 -1.6964 -1.6280  2.8514
  177SLPC  H14S20116   6.593   4.537   4.650  0.6499 -0.0380  0.9736
  177SLPC  C21520117   6.407   4.585   4.737  0.2103  0.2980 -0.3646
  177SLPC  H15R20118   6.384   4.632   4.639  1.8214 -0.2455 -1.0398
  177SLPC  H15S20119   6.454   4.661   4.802  0.6688 -0.6301  0.4275
  177SLPC  C21620120   6.283   4.536   4.817 -0.7033  0.8380  0.5073
  177SLPC  H16R20121   6.327   4.500   4.912 -2.6967 -0.4154  1.0286
  177SLPC  H16S20122   6.227   4.450   4.775  0.6448  0.1692  0.0282
  177SLPC  C21720123   6.191   4.653   4.850 -0.2521 -0.2098 -0.2065
  177SLPC  H17R20124   6.143   4.669   4.751  0.5076  0.0558 -0.5393
  177SLPC  H17S20125   6.252   4.739   4.887  0.7622 -0.7812 -0.5212
  177SLPC  C21820126   6.080   4.618   4.954  0.1290 -0.4886 -0.1781
  177SLPC  H18R20127   6.020   4.706   4.985  0.6015 -0.1733 -0.1530
  177SLPC  H18S20128   6.122   4.585   5.051  0.4780  1.7132  0.4646
  177SLPC  H18T20129   6.013   4.539   4.913  1.0437 -0.8533 -1.0167
  177SLPC   C3320130   6.480   3.790   5.768 -0.4262 -0.3130 -0.8996
  177SLPC   H3X20131   6.370   3.804   5.775 -0.0831  2.2576  0.4649
  177SLPC   H3Y20132   6.506   3.702   5.705  0.5180  0.1489 -1.1790
  177SLPC   C3420133   6.537   3.908   5.688 -0.3879  0.5374 -0.4738
  177SLPC   H4X20134   6.634   3.937   5.733 -0.2668 -1.2242  0.4434
  177SLPC   H4Y20135   6.470   3.996   5.703 -1.4036  0.0371 -1.8516
  177SLPC   C3520136   6.559   3.893   5.536 -0.0780  0.3420  0.2917
  177SLPC   H5X20137   6.477   3.833   5.492  1.3467 -1.8244  0.4763
  177SLPC   H5Y20138   6.649   3.832   5.515  1.2342  1.8133  1.3780
  177SLPC   C3620139   6.563   4.022   5.454 -0.4179  0.4456  0.1970
  177SLPC   H6X20140   6.467   4.074   5.474  0.9630  2.1355  3.0960
  177SLPC   H6Y20141   6.575   3.993   5.347  0.4228 -3.0593  1.1125
  177SLPC   C3720142   6.679   4.119   5.482  0.1825  1.1514 -1.2315
  177SLPC   H7X20143   6.775   4.063   5.473  0.3432  1.2052 -0.0506
  177SLPC   H7Y20144   6.683   4.162   5.585  2.1284 -0.5752 -0.5045
  177SLPC   C3820145   6.677   4.230   5.379  0.1195 -0.7375 -0.8885
  177SLPC   H8X20146   6.753   4.307   5.403 -0.1340 -0.7852  0.1449
  177SLPC   H8Y20147   6.579   4.281   5.389 -0.4105 -1.4873 -2.0688
  177SLPC   C3920148   6.680   4.193   5.227  0.6898  0.6666  0.0382
  177SLPC   H9X20149   6.646   4.276   5.161 -1.2700  0.5297  0.8078
  177SLPC   H9Y20150   6.591   4.133   5.198  3.0467 -2.0829 -2.1229
  177SLPC  C31020151   6.802   4.101   5.193 -0.2866 -0.2652 -0.2606
  177SLPC  H10X20152   6.800   4.007   5.251 -0.1486  0.4151  0.8681
  177SLPC  H10Y20153   6.901   4.147   5.215  0.4563 -1.1054 -1.6671
  177SLPC  C31120154   6.804   4.076   5.042  0.0572 -0.0922 -0.4438
  177SLPC  H11X20155   6.792   4.173   4.988 -3.2525  1.4809  2.6402
  177SLPC  H11Y20156   6.713   4.017   5.018  1.0560 -1.7266 -0.3254
  177SLPC  C31220157   6.917   3.987   4.991  0.0971  0.2598 -0.3956
  177SLPC  H12X20158   6.943   3.918   5.073  1.6406 -0.3695 -1.3610
  177SLPC  H12Y20159   7.010   4.042   4.964  0.3118  0.1631  0.1407
  177SLPC  C31320160   6.868   3.893   4.875 -0.2683 -0.9914  0.6770
  177SLPC  H13X20161   6.771   3.856   4.915 -0.1885 -0.0485  1.7894
  177SLPC  H13Y20162   6.947   3.816   4.862 -0.5818 -1.1380 -0.5026
  177SLPC  C31420163   6.850   3.978   4.745  0.1740 -0.7429  0.3691
  177SLPC  H14X20164   6.947   4.023   4.715  0.4316 -1.6490 -0.2049
  177SLPC  H14Y20165   6.782   4.064   4.761  0.6075 -0.4037  0.4019
  177SLPC  C31520166   6.806   3.892   4.626  0.0902  0.0696 -0.1553
  177SLPC  H15X20167   6.895   3.841   4.583 -1.4339 -1.1867 -1.9774
  177SLPC  H15Y20168   6.773   3.965   4.549 -0.6576  1.5719  1.5095
  177SLPC  C31620169   6.697   3.787   4.643  0.0308  0.3628  0.2769
  177SLPC  H16X20170   6.618   3.838   4.703  0.6896 -0.2415  1.7044
  177SLPC  H16Y20171   6.747   3.709   4.704 -0.0788 -0.3268 -0.4918
  177SLPC  C31720172   6.649   3.703   4.518  0.6693 -0.6844  0.1144
  177SLPC  H17X20173   6.564   3.639   4.552  0.0871  0.3414  0.6498
  177SLPC  H17Y20174   6.728   3.636   4.479  0.2844 -1.5730  0.8176
  177SLPC  C31820175   6.590   3.797   4.411  0.0970  0.0887  0.2864
  177SLPC  H18X20176   6.485   3.830   4.430 -1.1102 -1.4087 -2.9234
  177SLPC  H18Y20177   6.583   3.732   4.321 -0.4691 -0.9715  1.0727
  177SLPC  H18Z20178   6.662   3.880   4.399  1.3001 -0.8411  0.9371
  178SLPC     N20179   4.281   2.104   6.792 -0.6961  0.3928  1.3394
  178SLPC   C1320180   4.253   2.231   6.873 -0.3256 -0.4005  0.6061
  178SLPC  H13A20181   4.311   2.319   6.849  1.1898 -1.0167  1.8902
  178SLPC  H13B20182   4.151   2.265   6.868  0.3742  1.6544 -1.1614
  178SLPC  H13C20183   4.285   2.205   6.972  2.4580 -3.3036 -0.8631
  178SLPC   C1420184   4.184   2.004   6.848 -0.0294  0.0263  0.6725
  178SLPC  H14A20185   4.083   2.041   6.860 -1.0181 -2.0937 -0.6404
  178SLPC  H14B20186   4.169   1.926   6.776 -0.8185 -1.2268  2.1509
  178SLPC  H14C20187   4.219   1.950   6.935 -2.6396 -2.9786  0.0054
  178SLPC   C1520188   4.425   2.054   6.796  0.6392  0.5840 -0.5874
  178SLPC  H15A20189   4.441   1.950   6.770  1.6340  0.5352  0.1368
  178SLPC  H15B20190   4.493   2.111   6.734 -0.7442  1.6458 -1.1675
  178SLPC  H15C20191   4.461   2.073   6.896 -0.5126  0.2400 -0.0915
  178SLPC   C1220192   4.237   2.132   6.646 -0.1072  0.3070 -0.0103
  178SLPC  H12A20193   4.299   2.206   6.598  1.8942 -1.3781 -0.1874
  178SLPC  H12B20194   4.142   2.184   6.652  0.9256  2.3544 -0.4721
  178SLPC   C1120195   4.236   2.022   6.538 -0.1944  1.0666 -0.2681
  178SLPC  H11A20196   4.329   1.962   6.541  0.7981  2.5982  1.3705
  178SLPC  H11B20197   4.222   2.064   6.437 -0.9467 -1.7345 -1.4479
  178SLPC     P20198   3.985   1.929   6.524 -0.4818 -0.1490 -0.1449
  178SLPC   O1320199   3.914   1.841   6.623  0.1676  0.7662 -0.0699
  178SLPC   O1420200   3.933   2.069   6.514  0.5668 -0.0436  0.2369
  178SLPC   O1220201   4.136   1.928   6.569  0.2197  0.3762  0.3664
  178SLPC   O1120202   3.993   1.856   6.384  0.0353 -0.5092 -0.8349
  178SLPC    C120203   4.034   1.717   6.369 -0.1924 -0.2157  0.2824
  178SLPC    HA20204   4.143   1.696   6.370 -0.4032 -1.3789  0.7629
  178SLPC    HB20205   4.009   1.658   6.460  2.3732 -1.3565  0.3302
  178SLPC    C220206   3.989   1.649   6.232 -0.6154 -0.3468 -0.5179
  178SLPC    HS20207   4.020   1.543   6.245 -1.9221 -1.0562 -2.7764
  178SLPC   O2120208   4.059   1.716   6.122 -0.0086 -0.3786  0.3469
  178SLPC   C2120209   4.088   1.638   6.022  0.4717  0.3602 -0.3698
  178SLPC   O2220210   4.069   1.517   6.014 -0.3807  0.3187 -0.3435
  178SLPC   C2220211   4.151   1.717   5.913  0.6320  0.0700  0.1134
  178SLPC   H2R20212   4.120   1.824   5.917 -0.7773 -0.3467  0.6763
  178SLPC   H2S20213   4.261   1.720   5.931  0.6217  0.0051  0.1881
  178SLPC    C320214   3.835   1.649   6.223  0.2071 -0.0991  0.1918
  178SLPC    HX20215   3.806   1.756   6.232  0.5231  0.0138 -0.0955
  178SLPC    HY20216   3.781   1.606   6.310 -1.6903 -1.4239 -1.5562
  178SLPC   O3120217   3.797   1.591   6.093 -0.0669 -0.6596 -0.6397
  178SLPC   C3120218   3.735   1.467   6.095  0.6928  0.2412  0.0103
  178SLPC   O3220219   3.718   1.399   6.196 -0.1775  0.1564 -0.2581
  178SLPC   C3220220   3.684   1.428   5.964 -0.3312 -0.1535 -0.1766
  178SLPC   H2X20221   3.597   1.361   5.978 -1.4718  0.9814 -1.4061
  178SLPC   H2Y20222   3.768   1.369   5.922  0.6333  0.2911  1.0679
  178SLPC   C2320223   4.131   1.661   5.777  0.8092 -0.1066  0.6396
  178SLPC   H3R20224   4.026   1.684   5.748  0.2643 -1.0427  1.8030
  178SLPC   H3S20225   4.127   1.550   5.784 -3.1367 -0.2559 -1.1470
  178SLPC   C2420226   4.243   1.690   5.674  0.5955  0.1092  0.3753
  178SLPC   H4R20227   4.341   1.661   5.718  1.4012 -0.7524 -1.8747
  178SLPC   H4S20228   4.243   1.791   5.629  0.8570 -0.8509 -1.9235
  178SLPC   C2520229   4.230   1.599   5.553  0.0709 -0.5275 -0.0691
  178SLPC   H5R20230   4.212   1.492   5.580  0.7069 -0.4773  0.5672
  178SLPC   H5S20231   4.334   1.605   5.514 -0.0383  0.4515 -0.2271
  178SLPC   C2620232   4.128   1.647   5.448 -0.8192  0.6830 -0.0606
  178SLPC   H6R20233   4.168   1.747   5.419  0.7238  1.1856  3.3705
  178SLPC   H6S20234   4.027   1.640   5.493  0.6245 -1.9370  3.2319
  178SLPC   C2720235   4.133   1.555   5.322 -0.1668 -0.0552  0.7690
  178SLPC   H7R20236   4.091   1.457   5.354 -0.1432 -0.6981 -1.0691
  178SLPC   H7S20237   4.229   1.534   5.271 -1.3133 -1.0856 -1.0718
  178SLPC   C2820238   4.041   1.603   5.209  0.1192  0.5378 -0.2269
  178SLPC   H8R20239   3.965   1.669   5.257 -0.4352  0.5175 -1.0562
  178SLPC   H8S20240   3.975   1.525   5.165  1.0588  0.7135 -2.0204
  178SLPC   C2920241   4.117   1.683   5.105  0.2075  1.1399 -0.1912
  178SLPC   H9R20242   4.122   1.793   5.112  1.7300  1.0036  1.8335
  178SLPC  C21020243   4.191   1.626   5.013 -0.8567 -0.2320 -0.5369
  178SLPC  H10R20244   4.265   1.693   4.967 -0.7144 -0.4457 -0.6236
  178SLPC  C21120245   4.191   1.478   4.983 -0.1942 -0.0077  0.1788
  178SLPC  H11R20246   4.110   1.462   4.908 -1.6980  2.0029  1.2871
  178SLPC  H11S20247   4.156   1.419   5.070  1.2454 -0.8489  0.2212
  178SLPC  C21220248   4.329   1.431   4.940 -0.7180 -0.7852  0.2205
  178SLPC  H12R20249   4.399   1.429   5.024 -0.7686  0.0319  0.2894
  178SLPC  C21320250   4.377   1.416   4.816 -1.0409  0.6056  0.4923
  178SLPC  H13R20251   4.465   1.351   4.813 -1.4146  0.0272  1.4002
  178SLPC  C21420252   4.299   1.421   4.689 -0.2041  0.3658  0.2958
  178SLPC  H14R20253   4.196   1.386   4.711  0.5074 -2.5663 -0.6310
  178SLPC  H14S20254   4.341   1.344   4.621  2.2022  0.5862  1.4246
  178SLPC  C21520255   4.290   1.554   4.616 -0.1570  0.1293 -0.3591
  178SLPC  H15R20256   4.242   1.631   4.680  1.9206 -0.9206  2.7313
  178SLPC  H15S20257   4.236   1.540   4.520  1.3981  1.2947 -1.4742
  178SLPC  C21620258   4.417   1.622   4.575 -0.4727 -0.7119  0.2385
  178SLPC  H16R20259   4.484   1.627   4.663  0.4293 -0.0672 -0.4700
  178SLPC  H16S20260   4.384   1.720   4.534 -0.2446 -1.6900 -2.4961
  178SLPC  C21720261   4.481   1.554   4.458  0.1734  0.2332  0.2150
  178SLPC  H17R20262   4.411   1.525   4.376  0.0683  2.6350 -0.6191
  178SLPC  H17S20263   4.527   1.456   4.484 -2.3102 -0.7184  1.2771
  178SLPC  C21820264   4.581   1.647   4.381  0.9281 -0.3409 -0.7725
  178SLPC  H18R20265   4.645   1.707   4.449 -0.2489  0.2678 -0.1867
  178SLPC  H18S20266   4.510   1.715   4.330  1.6519 -0.2933 -1.7548
  178SLPC  H18T20267   4.639   1.591   4.304  1.4426 -0.3943 -0.3516
  178SLPC   C3320268   3.644   1.538   5.857 -0.1829  0.0197 -0.5068
  178SLPC   H3X20269   3.738   1.596   5.847  0.4583 -0.9848 -0.4910
  178SLPC   H3Y20270   3.556   1.588   5.902 -0.4803 -1.1385  0.2223
  178SLPC   C3420271   3.616   1.485   5.719  0.2643 -0.1523  0.7243
  178SLPC   H4X20272   3.558   1.568   5.673  0.0710  0.0663  1.3503
  178SLPC   H4Y20273   3.553   1.393   5.723  0.8122 -0.4989  2.5895
  178SLPC   C3520274   3.737   1.464   5.624 -0.6729  0.3809  0.7050
  178SLPC   H5X20275   3.825   1.407   5.659 -0.8459 -1.6151 -1.8333
  178SLPC   H5Y20276   3.778   1.566   5.608 -1.3673  0.4491 -0.9117
  178SLPC   C3620277   3.696   1.409   5.489  0.0841  0.3590  0.3163
  178SLPC   H6X20278   3.625   1.479   5.439 -1.5805 -0.5976  1.2268
  178SLPC   H6Y20279   3.641   1.313   5.501  1.1624 -0.1243  1.6059
  178SLPC   C3720280   3.815   1.379   5.401 -0.6223 -0.6388  0.5091
  178SLPC   H7X20281   3.879   1.301   5.448 -0.6586 -1.4675 -0.7497
  178SLPC   H7Y20282   3.870   1.474   5.387  0.3016 -1.4152 -1.5957
  178SLPC   C3820283   3.774   1.306   5.267  0.5529 -0.2500  0.3280
  178SLPC   H8X20284   3.720   1.373   5.197  0.5434 -1.2732 -0.6713
  178SLPC   H8Y20285   3.699   1.226   5.285  2.1075 -1.5540  1.2088
  178SLPC   C3920286   3.893   1.251   5.182 -0.3871  0.1486 -0.2452
  178SLPC   H9X20287   3.922   1.149   5.215 -1.2765  0.0400  0.2226
  178SLPC   H9Y20288   3.979   1.322   5.190 -0.3653  0.1611 -0.5916
  178SLPC  C31020289   3.846   1.235   5.038 -0.3236  1.1222 -0.2498
  178SLPC  H10X20290   3.816   1.333   4.995  1.1761  2.1948  1.0410
  178SLPC  H10Y20291   3.758   1.167   5.045 -0.7970  1.7490  0.0359
  178SLPC  C31120292   3.947   1.171   4.951 -0.1856 -0.8234  0.4692
  178SLPC  H11X20293   3.998   1.076   4.977  1.2031  0.1098  1.2533
  178SLPC  H11Y20294   4.032   1.238   4.979 -1.2407 -0.7373  3.9754
  178SLPC  C31220295   3.907   1.169   4.799 -0.2413 -0.7321  0.4171
  178SLPC  H12X20296   3.884   1.272   4.767 -1.6767 -0.9587  0.6718
  178SLPC  H12Y20297   3.822   1.099   4.784  0.3836 -2.0329  2.4207
  178SLPC  C31320298   4.027   1.139   4.708 -0.3659 -0.1873 -0.7316
  178SLPC  H13X20299   4.034   1.028   4.703 -1.7201 -0.5007  2.1451
  178SLPC  H13Y20300   4.125   1.170   4.749 -0.5745  1.6908 -1.5207
  178SLPC  C31420301   4.006   1.201   4.569  0.2632 -0.1900  0.2382
  178SLPC  H14X20302   3.996   1.309   4.590  2.1219  0.2576 -0.9349
  178SLPC  H14Y20303   3.908   1.164   4.532  0.1236 -1.2928  1.6159
  178SLPC  C31520304   4.109   1.180   4.461  0.5105  1.0550  0.1038
  178SLPC  H15X20305   4.137   1.073   4.447 -0.8937  0.3081  2.5008
  178SLPC  H15Y20306   4.201   1.235   4.491  0.6875 -1.2135  4.5239
  178SLPC  C31620307   4.056   1.228   4.324 -0.1549 -0.0920  0.4228
  178SLPC  H16X20308   4.017   1.331   4.337  1.1788  0.2903  1.7492
  178SLPC  H16Y20309   3.977   1.165   4.277 -0.8799  1.1877 -0.1247
  178SLPC  C31720310   4.172   1.247   4.221  0.0303  0.5100  0.1475
  178SLPC  H17X20311   4.199   1.146   4.182  0.5353 -0.1138  2.0202
  178SLPC  H17Y20312   4.262   1.287   4.273  0.1991 -1.3757  1.3808
  178SLPC  C31820313   4.141   1.345   4.104  0.1456 -0.2546 -0.3432
  178SLPC  H18X20314   4.236   1.375   4.055 -0.9361  3.2500 -0.5516
  178SLPC  H18Y20315   4.089   1.435   4.142 -2.9466 -2.4940  1.1900
  178SLPC  H18Z20316   4.072   1.299   4.030 -0.1599 -0.9437  0.3500
  179SLPC     N20317   3.943   4.576   2.013 -0.7178  0.3197 -0.6577
  179SLPC   C1320318   4.050   4.631   1.924 -0.0981  0.3163 -1.0003
  179SLPC  H13A20319   4.017   4.621   1.822 -1.1364 -0.0297 -0.6440
  179SLPC  H13B20320   4.075   4.734   1.943  2.2511 -0.2447 -0.7436
  179SLPC  H13C20321   4.137   4.567   1.929 -1.3185 -1.6213 -2.7195
  179SLPC   C1420322   3.939   4.421   2.005  0.4582 -0.1271 -1.0698
  179SLPC  H14A20323   4.032   4.380   2.041  0.6692  1.1975 -0.0123
  179SLPC  H14B20324   3.850   4.379   2.050  0.9598  0.3534  0.4215
  179SLPC  H14C20325   3.933   4.391   1.901 -2.4777  1.7147 -1.5529
  179SLPC   C1520326   3.804   4.630   1.972 -0.5923  0.4685  0.6047
  179SLPC  H15A20327   3.731   4.609   2.049 -0.0096  0.1465  1.0824
  179SLPC  H15B20328   3.816   4.737   1.980  1.6402  0.2989  0.1830
  179SLPC  H15C20329   3.765   4.606   1.875  0.1179  2.2268 -0.1710
  179SLPC   C1220330   3.952   4.615   2.157  0.2968 -0.0153  0.5274
  179SLPC  H12A20331   3.861   4.588   2.209  0.1874 -0.3732  0.1482
  179SLPC  H12B20332   3.946   4.723   2.164 -0.3550 -0.1231  2.4244
  179SLPC   C1120333   4.072   4.558   2.235  0.5966 -0.0504 -1.1149
  179SLPC  H11A20334   4.064   4.448   2.232  1.1182 -0.1172 -0.3580
  179SLPC  H11B20335   4.051   4.583   2.342 -0.9590 -1.0433 -1.1579
  179SLPC     P20336   4.251   4.742   2.244  0.0976 -0.0243  0.0912
  179SLPC   O1320337   4.365   4.779   2.162 -0.2796  0.3472  0.5189
  179SLPC   O1420338   4.153   4.849   2.249 -0.2405 -0.0880 -0.2473
  179SLPC   O1220339   4.193   4.605   2.185  0.4305 -0.4693 -0.5641
  179SLPC   O1120340   4.293   4.701   2.392  0.3026  0.4875 -0.2644
  179SLPC    C120341   4.391   4.603   2.410 -0.8086  1.2213  0.4258
  179SLPC    HA20342   4.427   4.560   2.314 -0.4747 -1.3052  1.5875
  179SLPC    HB20343   4.478   4.638   2.470 -0.4356  1.7269 -0.4003
  179SLPC    C220344   4.344   4.486   2.480  0.7505  0.9137  0.4126
  179SLPC    HS20345   4.255   4.446   2.426  2.9458 -0.3425 -2.5500
  179SLPC   O2120346   4.319   4.522   2.611  0.0480 -0.6229  0.0221
  179SLPC   C2120347   4.216   4.465   2.666  0.1954  0.6707 -0.0510
  179SLPC   O2220348   4.126   4.405   2.616  0.2967 -0.0349 -0.2276
  179SLPC   C2220349   4.230   4.481   2.819 -0.0630 -0.6935 -0.3213
  179SLPC   H2R20350   4.280   4.389   2.857  1.1643  0.1922  0.2690
  179SLPC   H2S20351   4.291   4.570   2.845 -0.5942 -0.5123  0.3328
  179SLPC    C320352   4.449   4.369   2.484 -0.1259 -0.2409  0.0891
  179SLPC    HX20353   4.535   4.409   2.542  0.5399 -3.5371  1.6367
  179SLPC    HY20354   4.482   4.357   2.379 -0.0611  0.8213 -0.0219
  179SLPC   O3120355   4.405   4.247   2.543 -0.2524 -0.0390 -0.1657
  179SLPC   C3120356   4.479   4.145   2.493 -0.3223 -0.9567  0.0524
  179SLPC   O3220357   4.576   4.158   2.417  0.0040 -0.3386 -0.1980
  179SLPC   C3220358   4.425   4.011   2.542 -0.4606 -0.4570  0.2667
  179SLPC   H2X20359   4.480   3.931   2.488 -1.8536  0.5546 -2.9090
  179SLPC   H2Y20360   4.321   4.011   2.502 -0.6176  0.4324  0.6457
  179SLPC   C2320361   4.088   4.506   2.879  0.2837 -0.0962 -0.6138
  179SLPC   H3R20362   4.027   4.417   2.853  0.3881 -0.6705  1.0220
  179SLPC   H3S20363   4.051   4.604   2.842  0.0711 -0.4246 -1.2946
  179SLPC   C2420364   4.083   4.515   3.035 -0.0024  0.0678  0.4761
  179SLPC   H4R20365   3.979   4.551   3.052  0.1414  0.6503  0.1538
  179SLPC   H4S20366   4.155   4.593   3.068  0.1748  0.6902 -1.2731
  179SLPC   C2520367   4.118   4.390   3.118  0.7687 -0.4149  0.5541
  179SLPC   H5R20368   4.219   4.354   3.092 -0.3597 -3.6218  0.1647
  179SLPC   H5S20369   4.049   4.307   3.094 -3.3769  2.4346  1.3799
  179SLPC   C2620370   4.108   4.418   3.269 -0.1683  0.3652  0.1416
  179SLPC   H6R20371   4.005   4.447   3.298 -0.7828 -1.5079 -0.0136
  179SLPC   H6S20372   4.179   4.503   3.279 -1.0900  1.2153 -0.4488
  179SLPC   C2720373   4.155   4.298   3.357 -0.5327  0.0340  0.8583
  179SLPC   H7R20374   4.163   4.341   3.460  3.7322 -0.2990  0.8369
  179SLPC   H7S20375   4.254   4.267   3.318 -1.6440  0.7555 -2.9257
  179SLPC   C2820376   4.060   4.177   3.352  1.2492 -0.2660 -0.5090
  179SLPC   H8R20377   4.043   4.151   3.246 -0.6773  0.8570 -0.5278
  179SLPC   H8S20378   3.961   4.216   3.386  0.4520 -1.6201 -1.1995
  179SLPC   C2920379   4.127   4.060   3.428  0.1874 -0.0973  0.4867
  179SLPC   H9R20380   4.207   4.005   3.376 -1.6134 -1.2872 -1.1406
  179SLPC  C21020381   4.105   4.027   3.557 -0.4515 -0.2686 -0.2171
  179SLPC  H10R20382   4.146   3.933   3.597 -0.6154 -0.7530 -1.1789
  179SLPC  C21120383   4.003   4.088   3.646 -0.2146 -0.5957 -0.1228
  179SLPC  H11R20384   4.019   4.197   3.662  0.9029 -0.2951 -2.7623
  179SLPC  H11S20385   4.019   4.043   3.746 -0.8617 -1.0802 -0.2333
  179SLPC  C21220386   3.856   4.073   3.627 -0.2297 -0.3850  0.1964
  179SLPC  H12R20387   3.833   4.016   3.535  0.5638  1.5300 -1.2434
  179SLPC  C21320388   3.760   4.128   3.707  0.3909  0.2886 -0.2661
  179SLPC  H13R20389   3.654   4.116   3.678  0.4987  0.7323 -0.8650
  179SLPC  C21420390   3.776   4.211   3.829  0.1639 -0.2579 -0.0628
  179SLPC  H14R20391   3.723   4.306   3.806 -0.0128 -0.5641 -0.9788
  179SLPC  H14S20392   3.881   4.243   3.840  1.0368 -2.3404 -1.5629
  179SLPC  C21520393   3.712   4.148   3.948 -0.5012  0.4915  0.1647
  179SLPC  H15R20394   3.742   4.042   3.964  0.6034  0.4177 -2.0664
  179SLPC  H15S20395   3.602   4.145   3.929 -0.6628  0.0896  1.0953
  179SLPC  C21620396   3.726   4.228   4.083 -0.3527  0.0437  1.1748
  179SLPC  H16R20397   3.693   4.333   4.067  2.8288  0.9708 -0.0653
  179SLPC  H16S20398   3.833   4.220   4.112 -0.3203 -1.4934  0.7156
  179SLPC  C21720399   3.635   4.183   4.192 -0.2338  0.9131 -0.4895
  179SLPC  H17R20400   3.538   4.236   4.182 -1.3241 -0.7737  0.7370
  179SLPC  H17S20401   3.684   4.206   4.290 -0.4642 -0.7483  0.0385
  179SLPC  C21820402   3.610   4.034   4.205  0.6245  0.2197  0.1144
  179SLPC  H18R20403   3.696   3.980   4.249 -0.8308 -0.4879  2.1918
  179SLPC  H18S20404   3.583   3.974   4.115 -1.2982  1.0313  0.0999
  179SLPC  H18T20405   3.530   4.023   4.280  0.1355  0.1605 -0.4092
  179SLPC   C3320406   4.413   3.984   2.692  1.3221  0.1221 -0.6108
  179SLPC   H3X20407   4.353   3.891   2.699  0.0438  0.8210 -1.8305
  179SLPC   H3Y20408   4.348   4.061   2.739  0.3778 -0.2477 -1.3023
  179SLPC   C3420409   4.542   3.950   2.758 -0.5799 -0.1499  0.1591
  179SLPC   H4X20410   4.604   4.043   2.757 -1.0583  0.1674 -0.2417
  179SLPC   H4Y20411   4.585   3.873   2.691 -1.7105 -2.4537  1.9377
  179SLPC   C3520412   4.539   3.891   2.893  0.0005 -0.0144 -0.3053
  179SLPC   H5X20413   4.454   3.821   2.899  0.3081 -0.3318  0.5548
  179SLPC   H5Y20414   4.626   3.828   2.920 -1.0433 -1.5086 -0.3579
  179SLPC   C3620415   4.521   4.001   2.997  0.5698 -0.4671  1.0124
  179SLPC   H6X20416   4.429   4.063   2.985  0.2005 -1.5450 -5.0268
  179SLPC   H6Y20417   4.609   4.068   3.000  0.7812 -0.7656  1.5509
  179SLPC   C3720418   4.514   3.942   3.138 -0.6395 -0.4401  0.0861
  179SLPC   H7X20419   4.605   3.880   3.158 -1.4049 -1.2006  1.3188
  179SLPC   H7Y20420   4.425   3.877   3.142 -0.0881 -1.4763 -2.4882
  179SLPC   C3820421   4.496   4.044   3.256 -0.5788 -0.2611 -0.5251
  179SLPC   H8X20422   4.402   4.102   3.249  0.0005  0.7116 -0.3692
  179SLPC   H8Y20423   4.571   4.124   3.240 -0.6788 -0.5636 -2.7739
  179SLPC   C3920424   4.512   3.969   3.394 -0.0184 -0.6668 -0.3103
  179SLPC   H9X20425   4.608   3.914   3.395 -0.4533 -1.4408  0.5173
  179SLPC   H9Y20426   4.435   3.890   3.405  0.6193 -1.5509 -1.9603
  179SLPC  C31020427   4.503   4.065   3.516  0.1665  1.1252  0.0598
  179SLPC  H10X20428   4.406   4.118   3.511  0.7417  2.2356  0.2991
  179SLPC  H10Y20429   4.582   4.143   3.511 -0.3573  1.5792 -1.8193
  179SLPC  C31120430   4.499   4.002   3.655  0.0563  0.1985  0.3717
  179SLPC  H11X20431   4.568   3.918   3.679 -1.7391 -2.1091 -1.9566
  179SLPC  H11Y20432   4.403   3.946   3.660 -0.2680  0.6862 -0.2598
  179SLPC  C31220433   4.497   4.099   3.780 -0.3106  0.0199 -0.0673
  179SLPC  H12X20434   4.583   4.168   3.786  1.4976 -2.1917  1.4146
  179SLPC  H12Y20435   4.523   4.036   3.868  4.3845  1.0043 -0.4912
  179SLPC  C31320436   4.369   4.180   3.797  0.5343  0.6167  0.5570
  179SLPC  H13X20437   4.293   4.099   3.792  1.7646 -0.5269 -3.8707
  179SLPC  H13Y20438   4.350   4.250   3.714 -1.0758 -0.1006  0.2742
  179SLPC  C31420439   4.358   4.260   3.926 -0.3600 -0.0803  0.1155
  179SLPC  H14X20440   4.445   4.329   3.931 -0.3725 -0.1041  0.8070
  179SLPC  H14Y20441   4.364   4.192   4.014 -0.9040  1.1820  1.1842
  179SLPC  C31520442   4.227   4.349   3.931 -0.1789  0.3652  0.3492
  179SLPC  H15X20443   4.216   4.373   4.039  1.8828 -0.2833  0.7608
  179SLPC  H15Y20444   4.147   4.291   3.880 -0.4264  2.3804 -1.7349
  179SLPC  C31620445   4.245   4.485   3.850  0.1258  0.2261  0.2389
  179SLPC  H16X20446   4.283   4.452   3.751  0.6969 -0.8674  0.8066
  179SLPC  H16Y20447   4.330   4.546   3.887  2.8749 -1.4033 -2.9177
  179SLPC  C31720448   4.117   4.557   3.828  0.0411 -0.0292  0.0129
  179SLPC  H17X20449   4.137   4.662   3.796  2.7936 -0.9866 -1.8378
  179SLPC  H17Y20450   4.071   4.550   3.928 -1.6126  0.3246 -0.6999
  179SLPC  C31820451   4.026   4.484   3.729 -0.0531  0.5011  0.1368
  179SLPC  H18X20452   4.013   4.379   3.762 -2.1061  0.3153 -1.0967
  179SLPC  H18Y20453   4.080   4.486   3.632  2.9014  0.4859  1.6704
  179SLPC  H18Z20454   3.930   4.538   3.712 -0.5076 -0.3918 -0.1943
  180SLPC     N20455   1.875   4.887   2.314  0.2062 -0.1008 -0.2036
  180SLPC   C1320456   1.849   4.977   2.200 -0.4959 -0.1029  0.0996
  180SLPC  H13A20457   1.911   4.928   2.126  0.0454 -2.4611  1.9868
  180SLPC  H13B20458   1.745   4.970   2.170 -0.2741  1.5122 -1.1841
  180SLPC  H13C20459   1.890   5.076   2.204  0.2859 -0.2087 -2.8597
  180SLPC   C1420460   1.834   4.747   2.279 -0.0160 -0.0418 -0.6133
  180SLPC  H14A20461   1.909   4.702   2.215  1.8107 -0.2157  1.5414
  180SLPC  H14B20462   1.829   4.689   2.370  1.3581  0.2254 -0.3589
  180SLPC  H14C20463   1.740   4.746   2.225 -0.4315 -1.8357  0.0650
  180SLPC   C1520464   1.791   4.932   2.436 -0.7050 -0.2474  0.6729
  180SLPC  H15A20465   1.689   4.952   2.408 -0.2421  0.8948 -0.2707
  180SLPC  H15B20466   1.799   4.863   2.518  0.7670  1.4913  2.0987
  180SLPC  H15C20467   1.827   5.030   2.464  0.6912 -0.9606  1.5337
  180SLPC   C1220468   2.029   4.880   2.333  0.3856 -0.1984  0.3828
  180SLPC  H12A20469   2.065   4.980   2.353 -0.8568 -0.1015  2.4934
  180SLPC  H12B20470   2.076   4.853   2.240 -3.4287  0.3297 -1.9385
  180SLPC   C1120471   2.097   4.795   2.453 -0.2759  0.5440 -0.4589
  180SLPC  H11A20472   2.035   4.830   2.539  0.3709  1.0470 -0.1878
  180SLPC  H11B20473   2.203   4.814   2.479 -0.4945  1.9093 -0.4916
  180SLPC     P20474   2.177   4.563   2.368  0.4453  0.0905 -0.3587
  180SLPC   O1320475   2.117   4.518   2.239 -0.2306  0.5098  0.5032
  180SLPC   O1420476   2.312   4.632   2.367 -0.5056  0.2331 -1.1116
  180SLPC   O1220477   2.071   4.651   2.439 -0.4072 -0.1450  0.5392
  180SLPC   O1120478   2.173   4.437   2.464 -0.1505 -0.5233  0.4354
  180SLPC    C120479   2.240   4.437   2.590  0.0568  0.4582  0.4400
  180SLPC    HA20480   2.279   4.339   2.623 -1.2503  0.1781  1.2042
  180SLPC    HB20481   2.333   4.498   2.591 -0.0831  0.7015 -0.4850
  180SLPC    C220482   2.149   4.484   2.703 -0.2224 -0.1132  0.0688
  180SLPC    HS20483   2.100   4.580   2.674 -0.2095  0.5875  2.2232
  180SLPC   O2120484   2.218   4.491   2.830 -0.0559 -0.1148  0.7077
  180SLPC   C2120485   2.171   4.581   2.919  0.4858 -0.6211 -0.2183
  180SLPC   O2220486   2.090   4.671   2.896 -0.1374  0.9094 -0.2087
  180SLPC   C2220487   2.231   4.539   3.052 -0.7254  0.3581 -0.5628
  180SLPC   H2R20488   2.169   4.451   3.080  1.1190 -0.2296  2.1234
  180SLPC   H2S20489   2.337   4.513   3.033 -0.6032  0.5254 -0.1376
  180SLPC    C320490   2.026   4.387   2.714 -0.2785  0.3262 -0.2716
  180SLPC    HX20491   2.061   4.286   2.743 -2.6152 -0.2070  0.9868
  180SLPC    HY20492   1.979   4.391   2.613 -2.3892 -0.3571  0.6207
  180SLPC   O3120493   1.935   4.426   2.813  0.2213  0.0237 -0.1684
  180SLPC   C3120494   1.829   4.347   2.835 -0.4639 -0.5798 -0.5148
  180SLPC   O3220495   1.795   4.262   2.757 -1.1494  0.0004 -0.0914
  180SLPC   C3220496   1.764   4.391   2.961  0.5628 -0.5933 -0.0351
  180SLPC   H2X20497   1.714   4.489   2.943  0.2667 -0.5978  0.7317
  180SLPC   H2Y20498   1.845   4.397   3.037  1.4077  0.3734 -0.9644
  180SLPC   C2320499   2.219   4.644   3.164  0.3467  0.7660  0.3446
  180SLPC   H3R20500   2.137   4.713   3.134  0.3405  0.4980 -0.2705
  180SLPC   H3S20501   2.312   4.705   3.161  0.0205  1.3004  0.8523
  180SLPC   C2420502   2.193   4.577   3.295 -0.7117 -0.5262 -0.7276
  180SLPC   H4R20503   2.271   4.497   3.295  1.0441  1.0662  0.5722
  180SLPC   H4S20504   2.090   4.536   3.295 -1.2287  0.7426 -1.1801
  180SLPC   C2520505   2.224   4.674   3.411  0.0655 -0.0389  0.2499
  180SLPC   H5R20506   2.156   4.761   3.403  2.1594  1.7237  0.4207
  180SLPC   H5S20507   2.329   4.710   3.405  0.0084  0.2975  1.1285
  180SLPC   C2620508   2.206   4.612   3.550  0.6358  0.1014 -0.0481
  180SLPC   H6R20509   2.101   4.577   3.556  0.9333 -0.7963  0.2040
  180SLPC   H6S20510   2.220   4.690   3.628  0.6682 -1.2709  1.3828
  180SLPC   C2720511   2.294   4.486   3.571  0.1734  0.0782  0.3026
  180SLPC   H7R20512   2.395   4.516   3.534 -0.3833 -0.6127 -1.9720
  180SLPC   H7S20513   2.265   4.404   3.502 -0.2079 -0.9139  1.6116
  180SLPC   C2820514   2.300   4.439   3.715 -0.0403 -0.5268  0.4331
  180SLPC   H8R20515   2.208   4.380   3.737 -0.2760 -0.5193 -0.5099
  180SLPC   H8S20516   2.318   4.521   3.788  0.9445  0.6919 -1.1366
  180SLPC   C2920517   2.409   4.334   3.724  0.1025  0.9588  0.4353
  180SLPC   H9R20518   2.433   4.293   3.625  0.9163 -0.1322  1.0651
  180SLPC  C21020519   2.452   4.281   3.839  0.0721 -0.1090 -0.1028
  180SLPC  H10R20520   2.530   4.204   3.836  0.2721  0.1173 -0.8103
  180SLPC  C21120521   2.415   4.326   3.978  0.2941 -0.2993 -0.4128
  180SLPC  H11R20522   2.305   4.308   3.980  0.1628  0.4852  0.4217
  180SLPC  H11S20523   2.424   4.435   3.999 -1.9543 -0.3722  1.4021
  180SLPC  C21220524   2.496   4.244   4.086  0.9215 -0.4394 -0.6418
  180SLPC  H12R20525   2.600   4.280   4.092  1.1283 -1.1746  3.8153
  180SLPC  C21320526   2.457   4.149   4.177  0.9330  0.1558 -0.0619
  180SLPC  H13R20527   2.534   4.102   4.239  1.4793  0.0710 -0.7996
  180SLPC  C21420528   2.319   4.097   4.201 -0.1271 -0.0536  0.1785
  180SLPC  H14R20529   2.258   4.189   4.201  1.0517  0.7534  0.6751
  180SLPC  H14S20530   2.310   4.052   4.302  2.1446 -1.6825 -0.2593
  180SLPC  C21520531   2.277   3.991   4.097  0.0950  0.3871 -0.3528
  180SLPC  H15R20532   2.274   4.030   3.993 -1.9821  3.3211  0.6712
  180SLPC  H15S20533   2.172   3.969   4.129  0.0526  1.3980  0.2257
  180SLPC  C21620534   2.363   3.870   4.111 -0.0461 -0.0619  0.4295
  180SLPC  H16R20535   2.378   3.847   4.218 -1.0905 -1.0161  0.3862
  180SLPC  H16S20536   2.460   3.883   4.059 -0.4099  1.5616  0.1044
  180SLPC  C21720537   2.297   3.742   4.059  0.6419 -0.2179 -0.3008
  180SLPC  H17R20538   2.257   3.753   3.955 -1.8230 -2.6017  0.2773
  180SLPC  H17S20539   2.201   3.733   4.115  0.8277  0.3041  0.1070
  180SLPC  C21820540   2.388   3.615   4.077  0.3170 -0.3143  0.0361
  180SLPC  H18R20541   2.404   3.606   4.186  0.3875 -1.9278 -0.0951
  180SLPC  H18S20542   2.490   3.628   4.034  1.2611 -1.4893  1.8314
  180SLPC  H18T20543   2.333   3.527   4.039  0.7852  0.0329 -1.5491
  180SLPC   C3320544   1.640   4.302   2.995  0.6474  0.3903 -0.2199
  180SLPC   H3X20545   1.678   4.205   3.033 -1.0700 -0.6229 -0.9479
  180SLPC   H3Y20546   1.575   4.283   2.906 -1.2140 -0.7544  1.3105
  180SLPC   C3420547   1.548   4.371   3.102 -0.0941  0.7183 -0.1614
  180SLPC   H4X20548   1.453   4.411   3.061 -0.9392  1.3923  2.2489
  180SLPC   H4Y20549   1.613   4.442   3.158  0.4163  1.1526 -1.2672
  180SLPC   C3520550   1.487   4.272   3.208  0.4677 -0.1754 -0.2350
  180SLPC   H5X20551   1.573   4.206   3.234  0.6439 -0.1123 -0.6544
  180SLPC   H5Y20552   1.407   4.209   3.163 -1.3622  2.7685 -1.3990
  180SLPC   C3620553   1.431   4.336   3.334  0.3411 -0.6638 -0.7418
  180SLPC   H6X20554   1.382   4.255   3.393  1.2902 -2.3874 -2.2469
  180SLPC   H6Y20555   1.349   4.407   3.309  0.0391 -1.3045 -1.6131
  180SLPC   C3720556   1.536   4.403   3.423 -0.4918  0.2681  0.3366
  180SLPC   H7X20557   1.586   4.477   3.358  2.2336 -1.0134  0.8411
  180SLPC   H7Y20558   1.621   4.333   3.438  1.8011  2.3037 -2.1444
  180SLPC   C3820559   1.481   4.463   3.555  0.3887 -0.3599 -0.1901
  180SLPC   H8X20560   1.467   4.375   3.621 -0.0348 -0.6366 -0.6422
  180SLPC   H8Y20561   1.380   4.503   3.531  0.1753 -1.2709 -0.8259
  180SLPC   C3920562   1.576   4.560   3.637  0.4595  0.0447  0.1292
  180SLPC   H9X20563   1.605   4.640   3.565 -0.3875 -0.1180 -0.4044
  180SLPC   H9Y20564   1.672   4.509   3.659 -0.4321 -1.3555  0.8542
  180SLPC  C31020565   1.505   4.614   3.763  0.0218  0.2958 -0.6832
  180SLPC  H10X20566   1.573   4.647   3.844  1.6518  1.9390 -2.6252
  180SLPC  H10Y20567   1.466   4.516   3.798 -1.7322  0.6540 -1.5272
  180SLPC  C31120568   1.397   4.724   3.744  0.1883  0.2992  0.4235
  180SLPC  H11X20569   1.316   4.692   3.675 -1.4424  4.2363  0.2401
  180SLPC  H11Y20570   1.445   4.812   3.696 -0.4063  0.3487 -0.0875
  180SLPC  C31220571   1.327   4.776   3.866 -0.3776 -0.8597  0.3880
  180SLPC  H12X20572   1.398   4.838   3.924 -1.3968 -1.4691  2.3486
  180SLPC  H12Y20573   1.296   4.700   3.940  1.7470 -1.6039  0.5519
  180SLPC  C31320574   1.204   4.865   3.842  0.1726 -0.5030 -0.0548
  180SLPC  H13X20575   1.130   4.812   3.779  2.7350 -0.3322 -3.4681
  180SLPC  H13Y20576   1.246   4.955   3.793 -0.3437  0.1829  0.7159
  180SLPC  C31420577   1.139   4.919   3.978 -0.1612 -0.0473 -0.1421
  180SLPC  H14X20578   1.226   4.962   4.031  1.4867 -0.3192 -2.4826
  180SLPC  H14Y20579   1.115   4.834   4.045  0.4550  1.5418  2.2373
  180SLPC  C31520580   1.015   5.014   3.958 -0.5279  0.0835 -0.0087
  180SLPC  H15X20581   0.926   4.971   3.908  0.8927 -0.9178 -1.8052
  180SLPC  H15Y20582   1.060   5.095   3.896  0.4255 -0.6290 -0.2771
  180SLPC  C31620583   0.975   5.079   4.088  0.5547  0.3878  0.3395
  180SLPC  H16X20584   0.906   5.164   4.068  0.6672  0.3649 -0.1505
  180SLPC  H16Y20585   1.061   5.126   4.142  1.8174 -2.2601  0.7741
  180SLPC  C31720586   0.890   4.990   4.185 -0.0641 -0.5215 -0.2102
  180SLPC  H17X20587   0.956   4.916   4.237  0.4698 -0.2956 -0.5497
  180SLPC  H17Y20588   0.826   4.926   4.121  2.6909 -1.7943 -1.8738
  180SLPC  C31820589   0.820   5.081   4.286  0.1191  0.3103  0.2268
  180SLPC  H18X20590   0.888   5.155   4.331 -0.2364  0.7862 -0.0100
  180SLPC  H18Y20591   0.786   5.013   4.367  1.1651  0.6205  0.9265
  180SLPC  H18Z20592   0.737   5.127   4.228  0.2935  2.1353  1.3597
  181SLPC     N20593   1.767   3.966   2.024 -0.1143  0.0220  0.2796
  181SLPC   C1320594   1.807   3.979   2.172  0.1881 -0.4785  0.0436
  181SLPC  H13A20595   1.901   4.032   2.179  0.2798 -0.2912 -2.1463
  181SLPC  H13B20596   1.733   4.034   2.230 -1.3583 -0.2508 -2.0334
  181SLPC  H13C20597   1.827   3.894   2.235 -1.3194  0.1608  1.4950
  181SLPC   C1420598   1.886   3.941   1.944 -0.1148  0.0866  0.2059
  181SLPC  H14A20599   1.932   3.852   1.984  0.8174  1.6659  2.9370
  181SLPC  H14B20600   1.869   3.931   1.838 -1.2286  1.0518  0.2649
  181SLPC  H14C20601   1.951   4.025   1.961 -2.6499  2.0534  0.9546
  181SLPC   C1520602   1.727   4.105   1.989  0.3681  0.2337  0.6151
  181SLPC  H15A20603   1.812   4.166   2.016  0.5410  0.4209 -0.3244
  181SLPC  H15B20604   1.720   4.120   1.882 -2.2616 -2.1559  0.3342
  181SLPC  H15C20605   1.638   4.147   2.033 -0.1755  0.9689 -1.1231
  181SLPC   C1220606   1.661   3.861   1.990 -0.4795  0.0808 -0.2283
  181SLPC  H12A20607   1.704   3.766   2.019  0.2549  0.4341 -0.1206
  181SLPC  H12B20608   1.660   3.855   1.882  0.7231 -1.3905 -0.1937
  181SLPC   C1120609   1.521   3.864   2.051 -0.6334 -0.1316 -0.1865
  181SLPC  H11A20610   1.546   3.841   2.156  2.9068  0.0458 -0.8560
  181SLPC  H11B20611   1.462   3.776   2.016  0.8644 -1.7823  1.2556
  181SLPC     P20612   1.355   4.050   2.124  0.0179 -0.2419  0.0935
  181SLPC   O1320613   1.336   4.196   2.126  0.0110 -0.0480 -0.0367
  181SLPC   O1420614   1.225   3.977   2.116  0.0536 -0.6303 -0.9243
  181SLPC   O1220615   1.462   3.991   2.028 -0.0113  0.0312 -0.1559
  181SLPC   O1120616   1.414   4.018   2.268 -0.3130 -0.0015  0.1882
  181SLPC    C120617   1.495   4.091   2.359  0.6413 -0.4201 -0.0703
  181SLPC    HA20618   1.598   4.083   2.317  0.0730 -0.2284 -1.5704
  181SLPC    HB20619   1.465   4.198   2.371 -0.9060 -1.0774  2.9381
  181SLPC    C220620   1.475   4.023   2.503  0.1619  0.6064 -0.1698
  181SLPC    HS20621   1.572   4.043   2.554  2.9695 -3.4518 -3.2820
  181SLPC   O2120622   1.449   3.882   2.506 -0.0780 -0.5956  0.4103
  181SLPC   C2120623   1.549   3.806   2.472  0.3144  0.9738 -0.1709
  181SLPC   O2220624   1.662   3.840   2.464  0.4578  0.1847  0.2220
  181SLPC   C2220625   1.505   3.654   2.442  0.7490 -0.1104 -0.8680
  181SLPC   H2R20626   1.439   3.654   2.352  1.2747 -0.3987 -1.2635
  181SLPC   H2S20627   1.606   3.607   2.431  0.0086 -1.6002 -1.5595
  181SLPC    C320628   1.367   4.092   2.586 -0.5146 -0.1448 -0.1528
  181SLPC    HX20629   1.267   4.073   2.541 -0.6550  0.2065  0.0055
  181SLPC    HY20630   1.376   4.198   2.556 -1.6410 -1.0796 -4.4391
  181SLPC   O3120631   1.379   4.082   2.732  0.4114  0.2169  0.0406
  181SLPC   C3120632   1.273   4.035   2.799  0.3891  0.1337  0.2726
  181SLPC   O3220633   1.169   3.999   2.755 -0.3625 -0.0212 -0.3211
  181SLPC   C3220634   1.296   4.068   2.943 -0.1489 -0.2882 -0.4352
  181SLPC   H2X20635   1.264   4.173   2.959 -1.2760 -0.7567  0.5827
  181SLPC   H2Y20636   1.406   4.070   2.955  0.3618  0.5101 -4.0447
  181SLPC   C2320637   1.420   3.587   2.552  0.1387 -0.5257  0.0875
  181SLPC   H3R20638   1.380   3.488   2.523  0.8071  0.0359 -3.1761
  181SLPC   H3S20639   1.328   3.644   2.576 -0.2310 -1.4949  1.0389
  181SLPC   C2420640   1.493   3.571   2.681  0.0595 -0.3821  0.0793
  181SLPC   H4R20641   1.528   3.670   2.719 -1.6661  0.6595 -0.9015
  181SLPC   H4S20642   1.585   3.509   2.668  2.1096  2.5115 -0.2752
  181SLPC   C2520643   1.405   3.530   2.797 -0.0992  0.1103 -1.0041
  181SLPC   H5R20644   1.363   3.433   2.763 -1.3398  0.1330  0.3375
  181SLPC   H5S20645   1.322   3.600   2.821 -0.0598 -0.9073  2.7414
  181SLPC   C2620646   1.472   3.502   2.938 -0.6995  0.0220  0.0440
  181SLPC   H6R20647   1.536   3.583   2.979 -0.2040 -0.5820  0.4921
  181SLPC   H6S20648   1.536   3.411   2.942 -1.4280 -0.5073 -0.1878
  181SLPC   C2720649   1.355   3.465   3.033  0.3723 -0.1939 -0.5511
  181SLPC   H7R20650   1.301   3.375   2.996 -1.7969  0.4745  0.8128
  181SLPC   H7S20651   1.276   3.541   3.015  1.6912  1.8109  1.4938
  181SLPC   C2820652   1.387   3.460   3.189 -0.2499 -0.2354  0.6413
  181SLPC   H8R20653   1.430   3.560   3.210 -2.0352  1.2345 -2.2071
  181SLPC   H8S20654   1.470   3.386   3.194  0.0242  0.0672  0.6313
  181SLPC   C2920655   1.260   3.417   3.260  0.5108  0.3476 -0.3375
  181SLPC   H9R20656   1.194   3.357   3.195  1.3976 -1.8708  0.6921
  181SLPC  C21020657   1.220   3.443   3.383 -0.1228 -0.9301 -0.0413
  181SLPC  H10R20658   1.129   3.401   3.427  1.0444 -0.7204  2.7946
  181SLPC  C21120659   1.307   3.518   3.478  0.2576  0.1575  0.5989
  181SLPC  H11R20660   1.242   3.569   3.551 -1.2158 -0.3021 -0.3480
  181SLPC  H11S20661   1.363   3.596   3.422  2.1798 -1.7277 -0.2619
  181SLPC  C21220662   1.399   3.411   3.531 -0.2517  0.1251  0.7128
  181SLPC  H12R20663   1.418   3.320   3.472  0.8867  0.8711 -0.1240
  181SLPC  C21320664   1.457   3.419   3.653 -0.0048 -0.6039 -0.0199
  181SLPC  H13R20665   1.533   3.346   3.682 -0.1177 -0.3284  0.9819
  181SLPC  C21420666   1.456   3.532   3.757 -0.2805  0.9532  0.1230
  181SLPC  H14R20667   1.424   3.621   3.699 -1.4362 -0.1758 -1.0506
  181SLPC  H14S20668   1.560   3.557   3.788  0.7361 -3.0535  0.5208
  181SLPC  C21520669   1.376   3.514   3.886 -0.2988  0.0468  0.4762
  181SLPC  H15R20670   1.267   3.505   3.866 -0.3735  0.2746  0.7731
  181SLPC  H15S20671   1.379   3.611   3.940 -2.1840  2.0926 -2.7427
  181SLPC  C21620672   1.432   3.394   3.961  0.8514 -0.3340  0.1857
  181SLPC  H16R20673   1.542   3.411   3.964  0.6724  0.8293  0.8053
  181SLPC  H16S20674   1.405   3.303   3.903 -0.9618  0.7713 -0.8042
  181SLPC  C21720675   1.370   3.389   4.100 -0.7151 -0.0847  0.5015
  181SLPC  H17R20676   1.355   3.479   4.164  0.8555  0.3059  0.3550
  181SLPC  H17S20677   1.441   3.325   4.157  0.9790 -0.2911 -1.6997
  181SLPC  C21820678   1.242   3.315   4.085 -1.0478  0.8889  0.0798
  181SLPC  H18R20679   1.182   3.305   4.178  1.6272 -2.2583  1.6979
  181SLPC  H18S20680   1.255   3.208   4.056  0.0953  1.4868 -1.7742
  181SLPC  H18T20681   1.182   3.367   4.007 -0.0967 -1.0307 -2.0373
  181SLPC   C3320682   1.223   3.966   3.033 -0.5253  0.9283 -0.7196
  181SLPC   H3X20683   1.294   3.881   3.024 -1.7375 -0.3852  1.1326
  181SLPC   H3Y20684   1.125   3.930   2.995 -0.9397  1.9862 -0.6743
  181SLPC   C3420685   1.201   4.018   3.171 -1.1518  0.1469 -0.5374
  181SLPC   H4X20686   1.116   4.088   3.189  0.2177  1.6625  0.3626
  181SLPC   H4Y20687   1.286   4.075   3.214 -0.7828 -0.1535 -0.8632
  181SLPC   C3520688   1.175   3.907   3.267  0.1863 -0.1032 -0.7656
  181SLPC   H5X20689   1.256   3.832   3.261 -0.8394 -1.1735 -1.7671
  181SLPC   H5Y20690   1.080   3.854   3.244 -0.3338  0.3972  0.1686
  181SLPC   C3620691   1.155   3.961   3.409 -0.0501 -0.1094 -0.6592
  181SLPC   H6X20692   1.063   4.024   3.412 -1.9994 -2.7588 -1.1636
  181SLPC   H6Y20693   1.234   4.035   3.432 -2.4000  2.2410  0.4623
  181SLPC   C3720694   1.148   3.852   3.519  0.0105 -0.1662  0.5828
  181SLPC   H7X20695   1.245   3.798   3.520 -1.3117 -3.0363 -3.3506
  181SLPC   H7Y20696   1.064   3.785   3.494 -0.5265 -0.2440  2.4578
  181SLPC   C3820697   1.113   3.909   3.659  0.5814 -0.2182 -0.2430
  181SLPC   H8X20698   1.010   3.951   3.653  0.4173 -0.7851 -2.1647
  181SLPC   H8Y20699   1.185   3.991   3.674  0.8637 -0.1287 -1.9500
  181SLPC   C3920700   1.122   3.799   3.765  0.3971  0.4169 -0.2730
  181SLPC   H9X20701   1.230   3.774   3.760  0.5923  1.4512 -3.2189
  181SLPC   H9Y20702   1.061   3.713   3.728 -1.1042  1.0114  0.7367
  181SLPC  C31020703   1.086   3.827   3.910 -1.0772  1.0444 -0.4089
  181SLPC  H10X20704   0.987   3.878   3.914 -1.0516  1.6306 -3.7872
  181SLPC  H10Y20705   1.154   3.898   3.960  0.5156 -1.1642  0.7149
  181SLPC  C31120706   1.089   3.692   3.992  0.4483  0.2207 -0.2408
  181SLPC  H11X20707   1.190   3.695   4.040  1.0170  0.4702 -1.4272
  181SLPC  H11Y20708   1.087   3.610   3.917  1.3836 -1.9934  2.0049
  181SLPC  C31220709   0.970   3.695   4.092 -0.1402  0.6755 -0.1423
  181SLPC  H12X20710   0.875   3.685   4.035 -0.3797  1.0507  0.1924
  181SLPC  H12Y20711   0.967   3.798   4.134 -1.0795  0.6660 -0.1680
  181SLPC  C31320712   0.979   3.597   4.212  0.3357  0.1157 -0.1224
  181SLPC  H13X20713   1.076   3.608   4.264  0.5402  1.2350 -0.6970
  181SLPC  H13Y20714   0.968   3.495   4.169  0.5397 -1.3987  3.0995
  181SLPC  C31420715   0.861   3.601   4.317  0.0853  0.2396  0.2240
  181SLPC  H14X20716   0.857   3.691   4.382 -0.5716 -0.4612  1.1876
  181SLPC  H14Y20717   0.880   3.517   4.387  0.8236  0.0152 -0.2399
  181SLPC  C31520718   0.717   3.589   4.259 -0.1753  0.0754 -0.1500
  181SLPC  H15X20719   0.709   3.509   4.183 -1.9288 -2.4003  2.4406
  181SLPC  H15Y20720   0.691   3.687   4.215 -0.9925 -0.0530  0.0451
  181SLPC  C31620721   0.617   3.540   4.357  0.1911 -0.1554  0.2877
  181SLPC  H16X20722   0.631   3.602   4.449  0.4900  1.7774 -0.9951
  181SLPC  H16Y20723   0.646   3.436   4.382 -0.2062 -0.5561 -0.8959
  181SLPC  C31720724   0.468   3.545   4.316 -0.3112 -0.2619  0.3443
  181SLPC  H17X20725   0.415   3.507   4.406  0.2049  0.1865  0.8403
  181SLPC  H17Y20726   0.459   3.472   4.233  0.3357 -0.1738  0.1994
  181SLPC  C31820727   0.415   3.681   4.276 -0.2136  0.4923 -0.1236
  181SLPC  H18X20728   0.430   3.755   4.357 -0.3191 -0.8006  1.1357
  181SLPC  H18Y20729   0.306   3.680   4.256 -0.1115  1.4841 -0.8149
  181SLPC  H18Z20730   0.462   3.719   4.183 -1.0477 -0.1002 -0.8020
  182SLPC     N20731   6.373   2.724   2.366  0.1004  0.4004  0.4498
  182SLPC   C1320732   6.436   2.641   2.260  0.3883 -0.0857  0.3598
  182SLPC  H13A20733   6.468   2.548   2.306  1.5946 -0.6642 -1.5465
  182SLPC  H13B20734   6.375   2.624   2.173 -0.0710 -0.5666  0.7666
  182SLPC  H13C20735   6.519   2.695   2.217 -0.1983  0.4063 -0.1735
  182SLPC   C1420736   6.303   2.837   2.306 -0.1069  0.3623  0.4291
  182SLPC  H14A20737   6.232   2.802   2.233 -0.6347  2.1635  0.0185
  182SLPC  H14B20738   6.238   2.886   2.377 -0.3474 -1.0238  1.2113
  182SLPC  H14C20739   6.373   2.905   2.259  1.2305 -0.0046  1.7910
  182SLPC   C1520740   6.478   2.775   2.453  0.0991 -0.2933 -0.2801
  182SLPC  H15A20741   6.551   2.696   2.461 -0.3841 -0.8645 -1.2081
  182SLPC  H15B20742   6.531   2.852   2.400  0.0115 -0.5834 -0.7949
  182SLPC  H15C20743   6.450   2.818   2.548  1.0113  0.6600 -0.4307
  182SLPC   C1220744   6.277   2.635   2.439  1.1180 -0.4175  0.0149
  182SLPC  H12A20745   6.201   2.600   2.370  1.8906  0.7184 -1.4693
  182SLPC  H12B20746   6.227   2.698   2.511 -0.4739 -3.7423  2.0480
  182SLPC   C1120747   6.324   2.518   2.522  0.0641  0.5327  0.6548
  182SLPC  H11A20748   6.249   2.516   2.603 -1.5464  2.0706 -0.6941
  182SLPC  H11B20749   6.424   2.545   2.561  1.0717  0.0310 -1.4560
  182SLPC     P20750   6.231   2.315   2.384  0.2008  0.1098  0.3596
  182SLPC   O1320751   6.134   2.412   2.325  0.3172 -0.0668 -0.3108
  182SLPC   O1420752   6.286   2.221   2.284  0.3881 -0.1472 -0.0469
  182SLPC   O1220753   6.341   2.397   2.454 -0.4042 -0.5177  0.4129
  182SLPC   O1120754   6.167   2.229   2.488 -0.4015  0.1723 -0.3945
  182SLPC    C120755   6.235   2.108   2.535  1.1467 -0.4311 -0.1397
  182SLPC    HA20756   6.170   2.019   2.523  0.6243  0.1698 -2.2265
  182SLPC    HB20757   6.325   2.085   2.475  0.5558 -2.0997 -0.4508
  182SLPC    C220758   6.275   2.114   2.687  0.4556  0.2703 -0.8160
  182SLPC    HS20759   6.331   2.024   2.720  0.3675  0.7220  0.6361
  182SLPC   O2120760   6.158   2.122   2.768  0.1104 -0.3110 -0.6778
  182SLPC   C2120761   6.103   2.011   2.812  0.0228 -1.3891 -0.4575
  182SLPC   O2220762   6.129   1.897   2.782  0.0435  0.0258 -0.8329
  182SLPC   C2220763   5.981   2.056   2.893 -0.7170 -0.5511  0.0912
  182SLPC   H2R20764   5.979   2.167   2.895  0.3532 -0.4642 -1.5220
  182SLPC   H2S20765   5.890   2.028   2.837 -1.4937  0.0635  1.0204
  182SLPC    C320766   6.369   2.228   2.721 -0.6423 -0.8046  0.0908
  182SLPC    HX20767   6.316   2.323   2.699 -0.1878 -0.0566  2.0735
  182SLPC    HY20768   6.454   2.217   2.650 -1.3450 -0.9746 -0.7406
  182SLPC   O3120769   6.419   2.216   2.861 -0.1779 -0.4327  0.3022
  182SLPC   C3120770   6.465   2.327   2.903 -0.3658 -0.4479 -0.2409
  182SLPC   O3220771   6.483   2.429   2.836 -0.6163  0.2781 -0.2847
  182SLPC   C3220772   6.496   2.312   3.057 -0.4291 -0.3034 -0.0288
  182SLPC   H2X20773   6.602   2.278   3.058 -0.2002  0.3792  1.7096
  182SLPC   H2Y20774   6.437   2.235   3.112 -0.9789  0.2732  0.1932
  182SLPC   C2320775   5.972   1.980   3.027 -0.2661  0.1437 -0.4174
  182SLPC   H3R20776   5.998   1.873   3.012 -1.6574 -0.4063  0.7600
  182SLPC   H3S20777   5.865   1.985   3.056  0.3970  0.1095  2.2620
  182SLPC   C2420778   6.061   2.031   3.142 -0.2546  0.2175 -0.3907
  182SLPC   H4R20779   6.043   2.133   3.182  1.0094  0.2431  0.1615
  182SLPC   H4S20780   6.167   2.036   3.108 -0.6183 -0.3369 -1.6796
  182SLPC   C2520781   6.056   1.946   3.270 -0.2482 -0.3332  0.1598
  182SLPC   H5R20782   6.095   1.843   3.254  0.7758  0.0064  0.4020
  182SLPC   H5S20783   5.949   1.933   3.297 -0.3563 -1.7390 -0.8478
  182SLPC   C2620784   6.141   2.000   3.384  0.1091 -0.3677  0.7144
  182SLPC   H6R20785   6.126   2.109   3.399 -0.0181 -0.2429 -0.2219
  182SLPC   H6S20786   6.249   1.983   3.365  0.7563  2.3417  1.5686
  182SLPC   C2720787   6.118   1.923   3.516  0.4435 -0.4824 -0.0577
  182SLPC   H7R20788   6.169   1.825   3.522 -0.8675 -1.1238  1.2300
  182SLPC   H7S20789   6.010   1.898   3.516  0.1821  0.5999 -0.0097
  182SLPC   C2820790   6.145   2.012   3.634 -0.5742  0.1456 -1.3283
  182SLPC   H8R20791   6.134   1.960   3.732 -0.1750 -0.2880 -1.5131
  182SLPC   H8S20792   6.072   2.094   3.652 -0.7478 -0.5049  1.4438
  182SLPC   C2920793   6.295   2.062   3.643  0.5820 -0.5224  0.2731
  182SLPC   H9R20794   6.319   2.148   3.578 -0.3760 -1.1999 -1.0373
  182SLPC  C21020795   6.384   2.031   3.734 -0.0516 -0.3375  1.0888
  182SLPC  H10R20796   6.476   2.091   3.733 -0.1630 -0.1486 -0.4966
  182SLPC  C21120797   6.383   1.937   3.848 -0.2190 -0.2972 -0.6276
  182SLPC  H11R20798   6.289   1.967   3.901 -0.9073  0.6525 -2.2789
  182SLPC  H11S20799   6.469   1.974   3.909 -0.0639 -0.7301 -0.5849
  182SLPC  C21220800   6.379   1.794   3.810 -0.6236 -0.2408  0.2252
  182SLPC  H12R20801   6.308   1.773   3.728  1.4302 -3.1299 -1.0256
  182SLPC  C21320802   6.442   1.692   3.866 -0.2959 -0.5434 -0.1667
  182SLPC  H13R20803   6.423   1.591   3.827  1.4393 -0.8809 -0.2165
  182SLPC  C21420804   6.556   1.702   3.963 -0.3554  0.0055 -0.0417
  182SLPC  H14R20805   6.562   1.807   3.998  2.5543 -0.5914  1.5622
  182SLPC  H14S20806   6.650   1.666   3.916 -0.1465  0.6370 -0.1114
  182SLPC  C21520807   6.540   1.614   4.089 -0.2733  0.7190  0.2434
  182SLPC  H15R20808   6.638   1.635   4.137 -0.0070  0.9499 -0.3870
  182SLPC  H15S20809   6.530   1.508   4.059  1.6219  0.5529  0.0917
  182SLPC  C21620810   6.414   1.669   4.165 -0.1660 -0.2648  0.4974
  182SLPC  H16R20811   6.322   1.669   4.102 -0.8790 -1.6255  1.4810
  182SLPC  H16S20812   6.427   1.774   4.197  1.4357 -0.2316 -0.1865
  182SLPC  C21720813   6.400   1.592   4.292  0.0451  0.3271  0.0737
  182SLPC  H17R20814   6.411   1.484   4.268 -2.7259  0.1513 -0.8106
  182SLPC  H17S20815   6.292   1.600   4.317 -0.2340 -1.4805 -0.4392
  182SLPC  C21820816   6.493   1.620   4.407  0.0813  0.0086  0.1330
  182SLPC  H18R20817   6.599   1.607   4.375  0.0456 -0.1045  0.0619
  182SLPC  H18S20818   6.485   1.552   4.495 -0.5607 -1.8244 -1.2802
  182SLPC  H18T20819   6.474   1.725   4.438  0.0352  0.2980 -0.8465
  182SLPC   C3320820   6.485   2.451   3.131 -0.5673  0.4744 -0.0673
  182SLPC   H3X20821   6.380   2.486   3.128 -0.9830 -0.7654 -1.1073
  182SLPC   H3Y20822   6.534   2.524   3.063 -0.6758  0.0255 -0.6388
  182SLPC   C3420823   6.537   2.461   3.274 -0.6067  0.7230  0.3644
  182SLPC   H4X20824   6.542   2.568   3.302 -1.2501  1.8521 -3.3471
  182SLPC   H4Y20825   6.643   2.432   3.294 -0.8988 -1.0813 -0.4590
  182SLPC   C3520826   6.459   2.378   3.375 -0.1670 -1.1928  0.5755
  182SLPC   H5X20827   6.512   2.284   3.400  0.6552 -0.3527  2.1548
  182SLPC   H5Y20828   6.358   2.364   3.331 -0.7588  0.7303  1.2166
  182SLPC   C3620829   6.439   2.453   3.511 -0.8779  0.1981  0.0636
  182SLPC   H6X20830   6.371   2.400   3.581  0.7392 -0.7370  0.9839
  182SLPC   H6Y20831   6.396   2.554   3.494  1.1361  1.3661  1.4132
  182SLPC   C3720832   6.571   2.489   3.585 -0.0159 -0.1746 -0.0165
  182SLPC   H7X20833   6.624   2.569   3.530  2.1303 -0.0140  2.0998
  182SLPC   H7Y20834   6.639   2.402   3.594  0.6414  0.4232  1.0275
  182SLPC   C3820835   6.548   2.537   3.729  0.4844  0.4204 -0.8138
  182SLPC   H8X20836   6.448   2.585   3.731 -1.0105 -2.4390  0.4653
  182SLPC   H8Y20837   6.620   2.610   3.771 -1.2301  0.2669  2.8671
  182SLPC   C3920838   6.545   2.414   3.828 -0.7497  0.5651  0.7607
  182SLPC   H9X20839   6.652   2.395   3.852 -0.7328 -1.0594 -0.4239
  182SLPC   H9Y20840   6.504   2.323   3.780 -0.9565  1.2258 -0.3676
  182SLPC  C31020841   6.466   2.451   3.963 -0.3559 -0.0350  0.3708
  182SLPC  H10X20842   6.373   2.499   3.924  1.5888  2.5914 -1.4288
  182SLPC  H10Y20843   6.526   2.535   4.003  1.7178 -2.1716  1.9655
  182SLPC  C31120844   6.443   2.336   4.060  0.2369 -0.0587  0.4901
  182SLPC  H11X20845   6.396   2.255   4.000 -0.7905  1.4833 -0.8583
  182SLPC  H11Y20846   6.372   2.360   4.142 -2.4333 -1.4555 -1.2613
  182SLPC  C31220847   6.574   2.290   4.123 -0.1433 -0.0821 -0.2040
  182SLPC  H12X20848   6.614   2.376   4.181  1.5384 -1.5622  0.9620
  182SLPC  H12Y20849   6.649   2.263   4.045 -2.0066 -0.9902 -1.7681
  182SLPC  C31320850   6.564   2.182   4.227  0.4624  0.2887 -0.1165
  182SLPC  H13X20851   6.668   2.174   4.265  0.8064 -1.7844 -1.3152
  182SLPC  H13Y20852   6.536   2.085   4.181  0.7104  0.1863 -0.0524
  182SLPC  C31420853   6.483   2.201   4.355 -0.1754 -0.0939  0.1073
  182SLPC  H14X20854   6.378   2.208   4.320 -0.9351  1.9154  2.5689
  182SLPC  H14Y20855   6.512   2.296   4.404  1.4652 -0.3657 -0.2588
  182SLPC  C31520856   6.501   2.085   4.456  0.7382  0.9321 -0.2665
  182SLPC  H15X20857   6.605   2.065   4.488  0.0777  0.0399  1.4577
  182SLPC  H15Y20858   6.468   1.995   4.398  1.8315 -0.7400  1.5971
  182SLPC  C31620859   6.418   2.100   4.579  0.7907 -0.3489 -0.0873
  182SLPC  H16X20860   6.312   2.102   4.548  1.2023 -1.5947 -1.7268
  182SLPC  H16Y20861   6.444   2.200   4.620 -1.3751 -0.5008  1.7936
  182SLPC  C31720862   6.443   2.001   4.688 -0.6105 -0.6200  0.1652
  182SLPC  H17X20863   6.538   2.023   4.742 -0.5015  0.4602 -0.4383
  182SLPC  H17Y20864   6.442   1.897   4.648  0.0307 -0.3295 -0.6290
  182SLPC  C31820865   6.330   2.009   4.783  0.4649  0.0111 -0.5449
  182SLPC  H18X20866   6.327   2.106   4.836  0.3138  0.7503 -1.8475
  182SLPC  H18Y20867   6.331   1.925   4.856 -0.2482  0.1349 -0.3867
  182SLPC  H18Z20868   6.238   1.992   4.723 -0.0677  2.8731 -0.6888
  183SLPC     N20869   6.765   5.585   2.549  0.3103 -0.3442 -0.2930
  183SLPC   C1320870   6.696   5.686   2.638  0.3295 -0.1734  0.1189
  183SLPC  H13A20871   6.594   5.656   2.657 -0.0311  0.3763 -0.8777
  183SLPC  H13B20872   6.743   5.701   2.734 -0.8403  0.1567  0.6582
  183SLPC  H13C20873   6.700   5.780   2.585  2.2952 -0.3553 -0.1453
  183SLPC   C1420874   6.711   5.586   2.406 -0.1763 -0.0385 -0.4437
  183SLPC  H14A20875   6.734   5.674   2.346 -1.1738 -1.3052 -2.8383
  183SLPC  H14B20876   6.762   5.506   2.355 -1.7677  0.2949 -2.7437
  183SLPC  H14C20877   6.604   5.571   2.407 -0.4474  1.5844 -0.9136
  183SLPC   C1520878   6.730   5.455   2.600 -0.0692 -0.3000  0.3448
  183SLPC  H15A20879   6.623   5.446   2.609 -0.2521  1.9200  1.0156
  183SLPC  H15B20880   6.756   5.373   2.534 -1.9996  0.3187 -1.2854
  183SLPC  H15C20881   6.775   5.418   2.691  0.9147 -1.8142 -0.7149
  183SLPC   C1220882   6.910   5.604   2.539  0.0298 -0.6636 -0.0802
  183SLPC  H12A20883   6.925   5.703   2.499 -0.7023  0.7221  2.8047
  183SLPC  H12B20884   6.959   5.537   2.470  1.3606 -0.3991  0.5657
  183SLPC   C1120885   6.999   5.599   2.664 -0.1757  0.4662 -0.2127
  183SLPC  H11A20886   7.097   5.631   2.621 -0.6175  1.0270 -0.8182
  183SLPC  H11B20887   7.003   5.491   2.691 -3.3014  0.4457  0.5203
  183SLPC     P20888   7.013   5.671   2.909  0.3252  0.3685  0.2137
  183SLPC   O1320889   7.150   5.620   2.910 -1.0742  0.1475  0.0923
  183SLPC   O1420890   6.986   5.796   2.983 -0.1248 -0.1951  0.7332
  183SLPC   O1220891   6.962   5.689   2.765 -0.0226 -0.2676 -0.5468
  183SLPC   O1120892   6.912   5.559   2.966  0.1471 -0.6854  0.1673
  183SLPC    C120893   6.780   5.581   3.005 -0.5063  0.3055 -0.4962
  183SLPC    HA20894   6.731   5.679   2.991 -1.9989 -0.2342  0.6161
  183SLPC    HB20895   6.724   5.504   2.947 -1.3278  0.7065 -0.2541
  183SLPC    C220896   6.752   5.544   3.154 -0.3159  0.1811  0.3976
  183SLPC    HS20897   6.646   5.554   3.184 -0.4811 -0.7287  0.1716
  183SLPC   O2120898   6.838   5.608   3.243 -0.1032  0.6933 -0.1074
  183SLPC   C2120899   6.816   5.737   3.264 -0.1738  0.9049  0.0691
  183SLPC   O2220900   6.715   5.795   3.238  0.5866 -0.4298 -0.1828
  183SLPC   C2220901   6.937   5.799   3.340 -0.7482  0.0622  0.2043
  183SLPC   H2R20902   7.034   5.788   3.286 -0.0351  3.4276  0.5669
  183SLPC   H2S20903   6.915   5.908   3.338 -1.3500 -0.0629 -1.9993
  183SLPC    C320904   6.773   5.395   3.179 -0.1780  0.4562 -0.4078
  183SLPC    HX20905   6.883   5.375   3.177 -0.5770 -2.2987  0.9462
  183SLPC    HY20906   6.725   5.323   3.108  0.9491 -1.4175  0.6471
  183SLPC   O3120907   6.716   5.370   3.305  0.0853  0.0223  0.0209
  183SLPC   C3120908   6.786   5.318   3.401  0.1038 -0.1498 -0.0147
  183SLPC   O3220909   6.905   5.291   3.404 -0.1702  0.3652 -0.4178
  183SLPC   C3220910   6.696   5.287   3.517  0.1694  0.5325  0.1081
  183SLPC   H2X20911   6.658   5.183   3.523  0.1579  0.5048 -0.3988
  183SLPC   H2Y20912   6.612   5.356   3.493  0.6318  0.8067 -0.7795
  183SLPC   C2320913   6.947   5.751   3.490  0.4467  0.2383  0.1631
  183SLPC   H3R20914   6.851   5.736   3.543  1.2705 -0.9039  1.4080
  183SLPC   H3S20915   6.983   5.846   3.535 -0.7770  0.2779  1.0971
  183SLPC   C2420916   7.043   5.626   3.513  0.0747 -0.2623  0.1526
  183SLPC   H4R20917   7.130   5.614   3.445 -0.8936 -0.2605 -1.1347
  183SLPC   H4S20918   6.978   5.539   3.493  0.1654  0.0654 -1.7787
  183SLPC   C2520919   7.090   5.603   3.655 -0.3431  0.6778  0.5763
  183SLPC   H5R20920   7.162   5.686   3.673 -0.5423  1.0951 -0.4837
  183SLPC   H5S20921   7.157   5.514   3.647 -1.1578  0.1985 -1.5498
  183SLPC   C2620922   6.987   5.585   3.763 -0.2076  0.2078 -0.5661
  183SLPC   H6R20923   6.983   5.486   3.812 -1.0811  0.0953 -0.8501
  183SLPC   H6S20924   6.884   5.606   3.727  0.3951  2.2390 -1.2544
  183SLPC   C2720925   7.011   5.690   3.869 -0.4985 -0.7572 -0.3483
  183SLPC   H7R20926   7.041   5.786   3.821 -1.3125 -0.2038  0.2281
  183SLPC   H7S20927   7.100   5.642   3.915 -0.3928  0.1530  0.4238
  183SLPC   C2820928   6.896   5.718   3.964  0.1287 -0.4906 -0.2180
  183SLPC   H8R20929   6.867   5.621   4.011  0.7543 -2.3154 -3.3450
  183SLPC   H8S20930   6.809   5.744   3.900  0.7293  0.8519 -0.5208
  183SLPC   C2920931   6.928   5.835   4.057 -0.1803 -0.0205  0.0023
  183SLPC   H9R20932   6.892   5.936   4.031 -0.6215 -0.3317 -0.6273
  183SLPC  C21020933   7.001   5.835   4.173  0.2959  0.0865  0.4768
  183SLPC  H10R20934   7.021   5.934   4.216 -0.7827 -0.3142  1.9655
  183SLPC  C21120935   7.086   5.715   4.214  0.3983 -0.0830 -0.6551
  183SLPC  H11R20936   7.187   5.718   4.166  0.4094 -2.5164 -0.8839
  183SLPC  H11S20937   7.045   5.621   4.170 -0.4376  0.2549 -0.6143
  183SLPC  C21220938   7.095   5.710   4.365 -0.0477  0.0101  0.3208
  183SLPC  H12R20939   7.057   5.792   4.428 -2.8513 -0.2889 -0.8145
  183SLPC  C21320940   7.146   5.607   4.430 -0.0029  0.5565  0.3993
  183SLPC  H13R20941   7.154   5.622   4.539 -1.6076  2.1452  0.3344
  183SLPC  C21420942   7.200   5.479   4.378 -0.6351  0.3520 -0.4944
  183SLPC  H14R20943   7.156   5.459   4.278 -0.8004 -3.0089  0.1260
  183SLPC  H14S20944   7.158   5.399   4.443 -1.7715  0.6366 -0.8555
  183SLPC  C21520945   7.354   5.472   4.381  0.3648 -0.4886  0.7376
  183SLPC  H15R20946   7.384   5.365   4.371  0.3521 -0.3455 -1.0352
  183SLPC  H15S20947   7.405   5.508   4.473  0.4855  2.2043 -0.3126
  183SLPC  C21620948   7.422   5.538   4.262  0.2869  0.0948 -0.3236
  183SLPC  H16R20949   7.413   5.648   4.272 -1.0176 -0.0061 -0.1880
  183SLPC  H16S20950   7.366   5.503   4.173  1.6636 -1.4095 -0.6503
  183SLPC  C21720951   7.572   5.499   4.249 -0.0914  0.1513 -0.0734
  183SLPC  H17R20952   7.573   5.389   4.232  1.3841 -0.0634  1.1632
  183SLPC  H17S20953   7.637   5.519   4.337  0.7628 -2.0981 -0.1125
  183SLPC  C21820954   7.635   5.577   4.133 -0.2161  1.1685 -0.5194
  183SLPC  H18R20955   7.575   5.574   4.040 -0.1784 -3.2694 -0.5906
  183SLPC  H18S20956   7.734   5.538   4.102 -1.0499 -1.1632 -0.3925
  183SLPC  H18T20957   7.648   5.683   4.165 -1.9510  1.4553 -0.6673
  183SLPC   C3320958   6.763   5.319   3.651 -0.3691 -0.3797 -0.1212
  183SLPC   H3X20959   6.689   5.369   3.717  1.3904  1.6522  0.4531
  183SLPC   H3Y20960   6.850   5.389   3.647 -0.2967 -0.3818  1.0273
  183SLPC   C3420961   6.811   5.188   3.719  0.1311 -0.5538  0.0349
  183SLPC   H4X20962   6.879   5.137   3.647  0.2836 -0.3798  0.0563
  183SLPC   H4Y20963   6.728   5.113   3.723  0.7113 -1.2295 -0.3317
  183SLPC   C3520964   6.891   5.197   3.859 -0.0455  0.0461 -0.4898
  183SLPC   H5X20965   6.949   5.292   3.857 -0.8561  0.7975  3.2996
  183SLPC   H5Y20966   6.942   5.098   3.864  0.4298  0.3160  0.3090
  183SLPC   C3620967   6.803   5.237   3.985  0.4353  0.3015  0.1054
  183SLPC   H6X20968   6.733   5.156   4.016  1.7781 -1.1395 -0.5200
  183SLPC   H6Y20969   6.734   5.318   3.954  0.7976  1.4194  2.0529
  183SLPC   C3720970   6.887   5.288   4.102  0.0442 -0.1609  0.0281
  183SLPC   H7X20971   6.933   5.384   4.070  3.7960 -1.9952 -0.6429
  183SLPC   H7Y20972   6.968   5.213   4.112  0.4177  0.4121  1.4653
  183SLPC   C3820973   6.804   5.301   4.229 -0.9516  0.0706  0.2110
  183SLPC   H8X20974   6.884   5.313   4.305  0.2516 -2.6478 -0.5047
  183SLPC   H8Y20975   6.766   5.203   4.263  0.2523 -0.1510  0.9873
  183SLPC   C3920976   6.703   5.415   4.225  0.5392  0.6478 -0.4169
  183SLPC   H9X20977   6.615   5.396   4.160 -0.5984  0.9815  0.9697
  183SLPC   H9Y20978   6.753   5.506   4.186  1.8610  0.2744  0.3471
  183SLPC  C31020979   6.651   5.437   4.368 -0.4239 -0.8238 -0.9177
  183SLPC  H10X20980   6.740   5.414   4.431 -0.4399  1.8327  0.2107
  183SLPC  H10Y20981   6.572   5.360   4.383 -0.5527 -0.8128 -1.5356
  183SLPC  C31120982   6.596   5.577   4.399 -0.1591  0.2385  0.5303
  183SLPC  H11X20983   6.519   5.601   4.322 -0.1222  0.0526  0.4349
  183SLPC  H11Y20984   6.672   5.657   4.391 -1.3354  1.3429 -0.0444
  183SLPC  C31220985   6.533   5.585   4.538 -0.2061  0.2602 -0.3143
  183SLPC  H12X20986   6.603   5.580   4.624 -1.0403  2.2271  0.5386
  183SLPC  H12Y20987   6.483   5.488   4.555  1.1320 -0.1882  1.2499
  183SLPC  C31320988   6.468   5.731   4.560 -0.6499 -0.2750 -0.3957
  183SLPC  H13X20989   6.373   5.729   4.503 -0.3906 -2.5052 -0.8304
  183SLPC  H13Y20990   6.528   5.812   4.514 -1.9740  0.0304 -1.6145
  183SLPC  C31420991   6.438   5.755   4.714 -0.0896  0.2088  0.5513
  183SLPC  H14X20992   6.531   5.732   4.770 -0.6583 -0.7827  1.1192
  183SLPC  H14Y20993   6.366   5.679   4.750 -0.4506 -0.1194 -0.8128
  183SLPC  C31520994   6.385   5.896   4.724 -0.4707  0.0703 -0.4081
  183SLPC  H15X20995   6.287   5.902   4.673 -0.3865 -2.3143 -0.9668
  183SLPC  H15Y20996   6.455   5.960   4.666  0.3597  2.1746  2.6430
  183SLPC  C31620997   6.373   5.949   4.868  0.8022  0.3157  0.2031
  183SLPC  H16X20998   6.469   5.940   4.923  1.1501  0.1440 -0.4199
  183SLPC  H16Y20999   6.300   5.884   4.920  1.6683 -0.2381  0.7648
  183SLPC  C31721000   6.306   6.089   4.875 -0.0741  0.2053  0.1288
  183SLPC  H17X21001   6.373   6.156   4.817 -0.7529  1.0731  0.3327
  183SLPC  H17Y21002   6.309   6.115   4.983  0.2538 -0.6591  0.3366
  183SLPC  C31821003   6.162   6.089   4.818  0.4333  0.0076  0.2604
  183SLPC  H18X21004   6.098   6.018   4.874 -0.9531  0.3292 -0.8771
  183SLPC  H18Y21005   6.172   6.067   4.709  2.5848  1.6514  0.0396
  183SLPC  H18Z21006   6.106   6.184   4.829 -1.2862 -1.2027  2.8885
  184SLPC     N21007   0.614   6.637   2.572  0.3881  0.0938  0.3597
  184SLPC   C1321008   0.541   6.555   2.674  0.1907  0.3013 -0.3759
  184SLPC  H13A21009   0.602   6.474   2.713 -1.4549 -1.3368 -1.0825
  184SLPC  H13B21010   0.520   6.610   2.764  0.0921  1.5399 -1.1457
  184SLPC  H13C21011   0.451   6.510   2.636  0.2127 -0.7207  0.7078
  184SLPC   C1421012   0.510   6.736   2.517 -0.0027 -0.5085 -0.3146
  184SLPC  H14A21013   0.432   6.693   2.455 -1.1746 -0.7850  1.2833
  184SLPC  H14B21014   0.458   6.793   2.592 -0.1539 -0.1782 -0.6655
  184SLPC  H14C21015   0.548   6.812   2.450  0.7707 -0.4890  0.1417
  184SLPC   C1521016   0.645   6.543   2.459 -0.3700 -0.3175  0.8785
  184SLPC  H15A21017   0.557   6.486   2.433 -0.0321  0.0288 -1.1464
  184SLPC  H15B21018   0.674   6.599   2.372 -2.0605 -1.1014 -0.2418
  184SLPC  H15C21019   0.725   6.471   2.472 -0.6186 -0.8644 -0.4688
  184SLPC   C1221020   0.736   6.701   2.623 -0.3251  0.4186 -0.1288
  184SLPC  H12A21021   0.770   6.772   2.550  0.7677  1.9628  1.7705
  184SLPC  H12B21022   0.810   6.622   2.630 -2.1157 -1.3269 -0.2477
  184SLPC   C1121023   0.724   6.770   2.767 -0.0943 -0.0421  0.4688
  184SLPC  H11A21024   0.828   6.799   2.793  0.2300 -0.5767 -0.1753
  184SLPC  H11B21025   0.695   6.702   2.850 -1.4819 -1.0782 -0.7996
  184SLPC     P21026   0.685   7.021   2.723 -0.4537  0.0195  0.1409
  184SLPC   O1321027   0.804   7.016   2.629 -0.1441 -0.4839 -0.2128
  184SLPC   O1421028   0.575   7.109   2.685 -0.1563  0.0329 -0.0552
  184SLPC   O1221029   0.631   6.878   2.755 -0.6165  0.2998  0.0043
  184SLPC   O1121030   0.740   7.068   2.862  0.0078 -0.2094 -0.6258
  184SLPC    C121031   0.686   7.021   2.983 -0.0940  0.6368  0.6232
  184SLPC    HA21032   0.647   6.918   2.969  0.1029  0.8145 -1.5574
  184SLPC    HB21033   0.767   7.014   3.058 -0.9429  0.5017  1.5553
  184SLPC    C221034   0.570   7.096   3.040 -0.8250  0.4822  0.1137
  184SLPC    HS21035   0.494   7.109   2.960 -1.8414  0.2365  1.0064
  184SLPC   O2121036   0.625   7.216   3.097  0.1343 -0.7473 -0.5195
  184SLPC   C2121037   0.539   7.314   3.104 -0.1640  0.3012  0.0869
  184SLPC   O2221038   0.430   7.325   3.039  0.0187  0.2840  0.3422
  184SLPC   C2221039   0.596   7.419   3.194  0.6519  0.1901 -0.1653
  184SLPC   H2R21040   0.609   7.369   3.292  2.3187  1.2195  0.1842
  184SLPC   H2S21041   0.697   7.441   3.153  0.2884  0.7279 -0.7906
  184SLPC    C321042   0.502   7.002   3.152  0.1126 -0.4985 -0.4132
  184SLPC    HX21043   0.585   6.974   3.221  0.1593 -0.0018 -0.2617
  184SLPC    HY21044   0.473   6.905   3.107 -2.3841 -0.6633  1.3443
  184SLPC   O3121045   0.393   7.072   3.228 -0.9555  0.3318 -0.2311
  184SLPC   C3121046   0.295   6.995   3.268  0.0201  0.3058 -0.0729
  184SLPC   O3221047   0.293   6.874   3.264 -0.1900  0.3459 -0.4269
  184SLPC   C3221048   0.178   7.086   3.314 -0.9151  0.4529  0.6274
  184SLPC   H2X21049   0.133   7.028   3.397  2.5261 -0.1516  2.2244
  184SLPC   H2Y21050   0.103   7.091   3.232 -1.3506  1.3958  1.0673
  184SLPC   C2321051   0.504   7.543   3.200  0.1897  0.1120 -0.0775
  184SLPC   H3R21052   0.398   7.515   3.218  0.4700 -0.3167  0.9767
  184SLPC   H3S21053   0.519   7.609   3.112  0.4903  1.2044  0.7713
  184SLPC   C2421054   0.520   7.638   3.325 -0.2383  0.6654  0.1139
  184SLPC   H4R21055   0.471   7.738   3.325  0.7265  1.1805  1.8291
  184SLPC   H4S21056   0.627   7.665   3.334 -0.2331  0.2664  1.3841
  184SLPC   C2521057   0.472   7.572   3.456  0.4742 -0.4936 -0.2670
  184SLPC   H5R21058   0.513   7.469   3.468  0.2814 -0.2976  2.6385
  184SLPC   H5S21059   0.363   7.558   3.445  0.4036  0.1649 -0.3898
  184SLPC   C2621060   0.512   7.664   3.577  0.5610 -0.2432  0.2627
  184SLPC   H6R21061   0.464   7.762   3.557 -1.0709 -1.3576 -1.7097
  184SLPC   H6S21062   0.621   7.688   3.583  0.7273 -1.1571  1.2876
  184SLPC   C2721063   0.467   7.600   3.712  0.0765  0.3327  0.3868
  184SLPC   H7R21064   0.374   7.543   3.689  1.4026 -1.7550 -0.1474
  184SLPC   H7S21065   0.444   7.676   3.789  1.5157  0.2170  0.9658
  184SLPC   C2821066   0.561   7.496   3.778  0.0049  0.3981 -0.4484
  184SLPC   H8R21067   0.665   7.534   3.785  0.7385 -1.4297 -0.7738
  184SLPC   H8S21068   0.573   7.398   3.727  0.2356  0.3967 -0.3923
  184SLPC   C2921069   0.511   7.466   3.923 -0.9051  0.1730 -0.0293
  184SLPC   H9R21070   0.440   7.383   3.938  0.2332 -1.2561 -1.9598
  184SLPC  C21021071   0.543   7.541   4.029 -0.3140 -0.0557 -0.6406
  184SLPC  H10R21072   0.480   7.528   4.118  3.4022  1.5205  2.5033
  184SLPC  C21121073   0.633   7.664   4.042 -0.2491 -0.2324 -0.5906
  184SLPC  H11R21074   0.679   7.697   3.946  0.5804 -0.2453 -0.2044
  184SLPC  H11S21075   0.713   7.653   4.119  0.0459 -1.0225 -0.9949
  184SLPC  C21221076   0.550   7.785   4.084 -0.1314  0.1365 -0.7984
  184SLPC  H12R21077   0.460   7.822   4.032 -0.8222  0.6454  0.7103
  184SLPC  C21321078   0.566   7.845   4.201  0.3956 -0.1876  0.5254
  184SLPC  H13R21079   0.507   7.936   4.222  1.7482  0.6869  0.6567
  184SLPC  C21421080   0.659   7.815   4.315 -0.5553  0.2426 -0.4468
  184SLPC  H14R21081   0.654   7.890   4.397  1.3088  0.9562 -0.9323
  184SLPC  H14S21082   0.767   7.813   4.288 -0.8844 -0.4046 -1.8109
  184SLPC  C21521083   0.643   7.687   4.398  0.7131  0.4468  0.1991
  184SLPC  H15R21084   0.643   7.599   4.329 -0.2890 -0.3063  1.1255
  184SLPC  H15S21085   0.542   7.693   4.445  1.8612  0.7696  2.7319
  184SLPC  C21621086   0.738   7.674   4.518  0.4796  0.6111 -0.7128
  184SLPC  H16R21087   0.738   7.755   4.594  2.2081 -1.5016  1.6688
  184SLPC  H16S21088   0.839   7.658   4.474  0.5777 -2.3299  0.3656
  184SLPC  C21721089   0.717   7.558   4.602  0.4179  0.2417 -0.1764
  184SLPC  H17R21090   0.730   7.470   4.534  0.1100  0.1436 -0.1081
  184SLPC  H17S21091   0.615   7.560   4.644 -0.4152 -1.4416 -1.9502
  184SLPC  C21821092   0.810   7.542   4.715  0.3078  0.1394  0.6166
  184SLPC  H18R21093   0.910   7.519   4.672  0.6634  2.3394  0.1407
  184SLPC  H18S21094   0.772   7.455   4.773 -0.6066 -0.0267 -0.2012
  184SLPC  H18T21095   0.811   7.636   4.773  2.7739  1.0588 -0.7783
  184SLPC   C3321096   0.220   7.223   3.357 -0.1553  0.2848  1.2275
  184SLPC   H3X21097   0.133   7.294   3.354 -0.3412  0.0847 -2.4362
  184SLPC   H3Y21098   0.301   7.266   3.295 -1.0127  1.1850  0.6988
  184SLPC   C3421099   0.266   7.235   3.514 -0.3017  0.2246  0.6499
  184SLPC   H4X21100   0.301   7.340   3.525  0.1498  0.0567  0.8233
  184SLPC   H4Y21101   0.352   7.167   3.532  0.7327  1.4211  0.3763
  184SLPC   C3521102   0.159   7.210   3.616  0.5493 -0.1071  0.1730
  184SLPC   H5X21103   0.120   7.106   3.617 -0.2619  0.1873 -0.0491
  184SLPC   H5Y21104   0.068   7.270   3.597 -0.1695 -1.2521 -0.0357
  184SLPC   C3621105   0.193   7.254   3.755 -0.5816  0.5576  0.2661
  184SLPC   H6X21106   0.231   7.359   3.757  0.2339  0.2788  2.6138
  184SLPC   H6Y21107   0.269   7.178   3.784  0.6315  0.6677 -2.2681
  184SLPC   C3721108   0.083   7.254   3.861 -0.0364  0.3487  1.0083
  184SLPC   H7X21109   0.040   7.154   3.880  1.4555 -0.6295 -0.4893
  184SLPC   H7Y21110  -0.003   7.318   3.830 -0.1035  0.9616  2.3797
  184SLPC   C3821111   0.114   7.300   3.991 -0.2092 -0.1409 -0.5574
  184SLPC   H8X21112   0.212   7.255   4.015  1.5316 -0.4201 -6.6556
  184SLPC   H8Y21113   0.036   7.264   4.061  0.5553  0.1717  0.4841
  184SLPC   C3921114   0.133   7.450   4.014  0.6589  0.6212 -0.3354
  184SLPC   H9X21115   0.035   7.498   3.994 -1.3670 -3.4650 -1.2630
  184SLPC   H9Y21116   0.203   7.489   3.938  0.4626  0.3340 -0.6667
  184SLPC  C31021117   0.176   7.497   4.156 -0.0540  0.3350  0.3134
  184SLPC  H10X21118   0.281   7.465   4.173  0.2974  0.9501 -0.6345
  184SLPC  H10Y21119   0.119   7.444   4.236 -1.1071  0.8815 -0.0562
  184SLPC  C31121120   0.191   7.645   4.181 -0.0243 -0.2241  0.9081
  184SLPC  H11X21121   0.090   7.681   4.152 -0.5429 -2.4030 -0.2187
  184SLPC  H11Y21122   0.261   7.698   4.113 -0.8778 -1.5497 -1.0893
  184SLPC  C31221123   0.226   7.672   4.331  0.3209  0.5295  0.0523
  184SLPC  H12X21124   0.333   7.642   4.341 -0.0821 -0.0762  5.1644
  184SLPC  H12Y21125   0.168   7.614   4.406 -1.3151  1.5067 -0.4300
  184SLPC  C31321126   0.212   7.819   4.371  0.5062 -0.6681  0.3608
  184SLPC  H13X21127   0.109   7.847   4.340  0.7453 -1.1468 -0.9169
  184SLPC  H13Y21128   0.288   7.882   4.320 -0.0620 -1.4079 -1.4546
  184SLPC  C31421129   0.218   7.843   4.522 -0.0657  0.1208  1.2152
  184SLPC  H14X21130   0.311   7.803   4.566  0.7980 -0.3184 -0.9058
  184SLPC  H14Y21131   0.134   7.779   4.558 -0.2790 -0.0756  0.3857
  184SLPC  C31521132   0.204   7.992   4.562  0.6144  0.0632  0.8816
  184SLPC  H15X21133   0.141   8.042   4.485  2.1154  1.6905  0.6435
  184SLPC  H15Y21134   0.305   8.038   4.556  0.9381 -0.3892  2.3882
  184SLPC  C31621135   0.149   8.022   4.700  0.4085  0.0767  0.1317
  184SLPC  H16X21136   0.216   7.984   4.780 -1.2429 -1.0679  1.0073
  184SLPC  H16Y21137   0.044   7.992   4.718  0.3911 -0.2500 -0.4890
  184SLPC  C31721138   0.147   8.173   4.722  0.3088  0.5486  0.1681
  184SLPC  H17X21139   0.252   8.210   4.720  1.3278 -2.1299 -2.1706
  184SLPC  H17Y21140   0.103   8.196   4.821  1.3906 -1.9594  1.3192
  184SLPC  C31821141   0.065   8.250   4.613  0.1490 -0.4020  0.1437
  184SLPC  H18X21142   0.123   8.261   4.518 -0.2757 -0.8560 -0.1690
  184SLPC  H18Y21143   0.040   8.346   4.663 -1.1826 -0.4757 -0.3433
  184SLPC  H18Z21144  -0.028   8.198   4.584 -0.9951  1.8123 -0.3856
  185POPC     N21145   0.017   6.199   7.189 -0.4512 -0.4400 -0.0132
  185POPC   C1221146   0.031   6.344   7.217 -0.2724  0.1492 -0.3443
  185POPC  H12A21147   0.047   6.359   7.323  0.6080  0.0619 -0.4533
  185POPC  H12B21148  -0.064   6.394   7.203  0.2792  0.9834 -1.3008
  185POPC   C1321149  -0.126   6.166   7.224 -0.1666  0.1218  0.3437
  185POPC  H13A21150  -0.141   6.171   7.331 -2.7870 -1.3267  0.1221
  185POPC  H13B21151  -0.199   6.239   7.192  1.0697  2.1867  1.9742
  185POPC  H13C21152  -0.144   6.062   7.201  0.7713  0.3178 -1.4552
  185POPC   C1421153   0.036   6.172   7.045  0.6684 -0.0312  0.5599
  185POPC  H14A21154   0.102   6.250   7.008  0.8837  0.1268  1.2565
  185POPC  H14B21155   0.070   6.072   7.024  1.2820  0.1321  0.7442
  185POPC  H14C21156  -0.059   6.187   6.997  0.1783  2.5818  2.1804
  185POPC   C1521157   0.115   6.121   7.272  0.0113 -0.2162 -0.3818
  185POPC  H15A21158   0.090   6.017   7.261  1.5356 -0.8023  1.1976
  185POPC  H15B21159   0.106   6.145   7.377 -0.9494  0.8647 -0.6914
  185POPC  H15C21160   0.220   6.128   7.243  0.3093 -0.4817  0.6132
  185POPC   C1121161   0.142   6.426   7.143 -0.0006  0.3537  1.0645
  185POPC  H11A21162   0.229   6.360   7.124 -0.4825  0.1297 -0.5854
  185POPC  H11B21163   0.177   6.515   7.199  0.4540  1.3114 -0.6430
  185POPC     P21164  -0.022   6.566   6.998 -0.5994 -0.5005  0.2632
  185POPC   O1321165   0.039   6.692   7.033  0.5950  0.0014  1.0591
  185POPC   O1421166  -0.143   6.527   7.073  0.0456 -0.2341 -0.3326
  185POPC   O1221167   0.090   6.454   7.006  0.2006  0.1879 -0.2212
  185POPC   O1121168  -0.077   6.570   6.849  0.0759 -0.2223  0.3046
  185POPC    C121169  -0.116   6.447   6.782 -0.1201 -0.5779 -0.6084
  185POPC    HA21170  -0.214   6.460   6.731 -0.9821 -1.7349  0.7101
  185POPC    HB21171  -0.136   6.365   6.853  0.7294 -0.4604 -0.2190
  185POPC    C221172   0.004   6.397   6.694  0.6981  0.6676 -0.3266
  185POPC    HS21173   0.095   6.389   6.756  1.2190  1.8499 -0.9005
  185POPC   O2121174   0.022   6.477   6.571  0.3468 -0.1044 -0.5749
  185POPC   C2121175   0.155   6.503   6.540  0.0375  0.1843 -0.3316
  185POPC   O2221176   0.252   6.456   6.600 -0.2714  0.1217  0.1508
  185POPC   C2221177   0.160   6.605   6.426  0.3753 -0.5528  0.2614
  185POPC   H2R21178   0.260   6.606   6.376 -0.3445 -1.9397 -1.3074
  185POPC   H2S21179   0.134   6.704   6.467  0.9237 -0.3041  0.0265
  185POPC    C321180  -0.028   6.248   6.643  0.1402 -0.3292 -0.2455
  185POPC    HX21181  -0.081   6.260   6.547  0.3455  0.3093 -0.2780
  185POPC    HY21182  -0.099   6.207   6.718  0.9770 -1.1607  0.1119
  185POPC   O3121183   0.090   6.158   6.636  0.3339 -0.0687 -0.7164
  185POPC   C3121184   0.063   6.058   6.549  0.0485 -0.4828  0.0937
  185POPC   O3221185  -0.047   6.043   6.503  0.4017  0.4265  0.2377
  185POPC   C3221186   0.176   5.951   6.554 -0.0731 -0.2750  0.7143
  185POPC   H2X21187   0.154   5.888   6.643 -2.3994 -0.9362 -0.2411
  185POPC   H2Y21188   0.278   5.993   6.545  0.6508 -2.0778 -0.0822
  185POPC   C2321189   0.054   6.562   6.316  1.1672  0.2006 -0.1757
  185POPC   H3R21190   0.034   6.656   6.260 -1.0520 -1.0415 -1.5944
  185POPC   H3S21191  -0.041   6.528   6.363  1.7060  0.8039  1.4389
  185POPC   C2421192   0.104   6.455   6.216  0.1737  0.2483  1.2176
  185POPC   H4R21193   0.189   6.501   6.160 -0.6406  0.9107  0.4871
  185POPC   H4S21194   0.019   6.434   6.147  0.8586  0.0188  0.4190
  185POPC   C2521195   0.140   6.321   6.277  0.3180 -0.1272  0.2131
  185POPC   H5R21196   0.058   6.298   6.348 -2.1550 -0.0062 -2.4250
  185POPC   H5S21197   0.243   6.334   6.319  1.4173 -1.0006 -2.0709
  185POPC   C2621198   0.147   6.201   6.179 -0.2917 -0.6041 -0.4491
  185POPC   H6R21199   0.183   6.104   6.220  1.4551 -1.1622 -3.0746
  185POPC   H6S21200   0.214   6.225   6.094 -2.9334 -1.1084 -2.7890
  185POPC   C2721201   0.008   6.163   6.124  0.3938  0.0130  1.0485
  185POPC   H7R21202  -0.037   6.246   6.065  0.1577 -1.1920 -0.5439
  185POPC   H7S21203  -0.048   6.135   6.215 -0.0565  0.8227  1.0260
  185POPC   C2821204   0.022   6.040   6.036 -0.0171  0.1379 -0.3870
  185POPC   H8R21205   0.079   5.965   6.093 -0.4650  0.8940  1.1226
  185POPC   H8S21206   0.088   6.067   5.951  0.6331  0.0859  0.0930
  185POPC   C2921207  -0.103   5.969   5.979  0.2502  0.1325  0.0553
  185POPC   H9121208  -0.160   5.921   6.060  1.9055 -2.4779 -0.2251
  185POPC  C21021209  -0.160   5.987   5.853 -0.0755 -0.6515 -0.0825
  185POPC  H10121210  -0.252   5.929   5.835  0.5324 -1.5758 -0.3326
  185POPC  C21121211  -0.104   6.069   5.744  0.4901 -0.1044 -0.2711
  185POPC  H11R21212  -0.038   6.152   5.779  0.0929 -0.8655  2.4574
  185POPC  H11S21213  -0.190   6.120   5.695 -0.0962 -0.0578  0.7970
  185POPC  C21221214  -0.013   5.998   5.644  0.3335  1.1262  0.1145
  185POPC  H12R21215  -0.067   5.915   5.593 -0.0135  0.9824  0.7082
  185POPC  H12S21216   0.077   5.946   5.686  0.9405  0.4461 -1.8995
  185POPC  C21321217   0.052   6.083   5.534  0.3053  0.2493  0.8136
  185POPC  H13R21218  -0.022   6.152   5.488  0.2333 -1.1185 -1.2517
  185POPC  H13S21219   0.074   6.019   5.445  1.0074  0.6046  0.7240
  185POPC  C21421220   0.174   6.167   5.572 -0.0957 -0.4348  0.3643
  185POPC  H14R21221   0.259   6.097   5.591  0.9557  0.3407 -1.1819
  185POPC  H14S21222   0.150   6.230   5.660  2.2468 -1.9402  2.2118
  185POPC  C21521223   0.214   6.256   5.454  0.2664 -0.3158 -0.3744
  185POPC  H15R21224   0.190   6.206   5.358 -2.0951 -0.6220  0.2933
  185POPC  H15S21225   0.321   6.286   5.452  0.7256 -1.7792  0.5786
  185POPC  C21621226   0.130   6.383   5.437 -0.4263 -0.1408 -0.7618
  185POPC  H16R21227   0.157   6.449   5.522  2.2308 -0.9069 -0.9105
  185POPC  H16S21228   0.023   6.359   5.451 -0.0961 -0.3563  1.9881
  185POPC  C21721229   0.159   6.465   5.306  0.5835  0.0432  0.4830
  185POPC  H17R21230   0.149   6.394   5.221 -0.3698 -0.6577  1.1558
  185POPC  H17S21231   0.259   6.512   5.311  0.1653  0.8335  3.3252
  185POPC  C21821232   0.060   6.580   5.281  0.0265 -0.2851 -0.2074
  185POPC  H18R21233   0.086   6.626   5.182  1.2355 -1.8468 -0.6480
  185POPC  H18S21234   0.074   6.662   5.355  1.0374  0.6846 -1.4092
  185POPC  H18T21235  -0.045   6.545   5.280 -0.2774  0.5609 -1.8838
  185POPC   C3321236   0.187   5.865   6.424  0.5617  0.4699  0.6702
  185POPC   H3X21237   0.201   5.936   6.340 -0.1868 -1.3856 -1.0972
  185POPC   H3Y21238   0.098   5.804   6.398  2.0224 -1.0822 -0.9301
  185POPC   C3421239   0.306   5.772   6.411 -0.0146 -0.1866  0.4857
  185POPC   H4X21240   0.280   5.701   6.331  0.2961  1.2678 -0.9649
  185POPC   H4Y21241   0.319   5.719   6.508  2.9620  2.5424  1.8192
  185POPC   C3521242   0.449   5.845   6.383 -0.2422 -0.4437 -0.7859
  185POPC   H5X21243   0.529   5.769   6.392  0.3988  0.1816 -1.1883
  185POPC   H5Y21244   0.466   5.921   6.462  0.5272 -1.8278  0.4293
  185POPC   C3621245   0.452   5.913   6.248  0.4855 -0.0528  0.3923
  185POPC   H6X21246   0.518   6.000   6.264 -0.4208  0.5518  0.8979
  185POPC   H6Y21247   0.353   5.953   6.218  1.7584  2.7856 -0.3454
  185POPC   C3721248   0.500   5.816   6.138 -0.1562  0.0450  0.2937
  185POPC   H7X21249   0.441   5.722   6.135  0.3713 -0.4240  2.7358
  185POPC   H7Y21250   0.607   5.794   6.156 -0.1321  0.4140  0.6153
  185POPC   C3821251   0.504   5.878   5.998  0.1445 -0.5728  0.2144
  185POPC   H8X21252   0.578   5.961   5.992  0.4550 -0.7685  1.1016
  185POPC   H8Y21253   0.402   5.922   5.997  0.0527 -0.7768  0.4250
  185POPC   C3921254   0.527   5.777   5.883  0.5420 -0.2657 -0.4053
  185POPC   H9X21255   0.467   5.689   5.915 -0.7242  0.6623 -0.1622
  185POPC   H9Y21256   0.635   5.753   5.873  0.5752  0.2114 -1.3264
  185POPC  C31021257   0.483   5.823   5.744 -0.1969 -0.0233  0.5389
  185POPC  H10X21258   0.375   5.847   5.743 -0.8213 -2.5319  0.3312
  185POPC  H10Y21259   0.506   5.741   5.672 -4.0179 -1.1029  0.3185
  185POPC  C31121260   0.552   5.941   5.683  0.1695  0.8148  0.3404
  185POPC  H11X21261   0.662   5.928   5.676  0.3387  1.8090  0.9744
  185POPC  H11Y21262   0.509   6.038   5.715  2.1600  1.9337 -0.2055
  185POPC  C31221263   0.521   5.936   5.530  0.4910 -0.1898  0.7554
  185POPC  H12X21264   0.411   5.936   5.514  0.3441  0.5173  1.6951
  185POPC  H12Y21265   0.560   5.838   5.494  0.7456 -0.3048  1.3306
  185POPC  C31321266   0.591   6.060   5.466 -0.0047 -0.8625 -0.4228
  185POPC  H13X21267   0.697   6.049   5.498  0.3707  3.8480  0.6208
  185POPC  H13Y21268   0.544   6.149   5.513  0.1435 -1.2814  0.5345
  185POPC  C31421269   0.586   6.057   5.310 -0.6893  0.4716  0.4442
  185POPC  H14X21270   0.614   5.952   5.285 -2.3341 -0.3151  1.7452
  185POPC  H14Y21271   0.664   6.128   5.274  0.2890  0.0156  1.5856
  185POPC  C31521272   0.458   6.097   5.243  0.9668  0.1738 -0.1082
  185POPC  H15X21273   0.438   6.207   5.251  0.4723 -0.0044  1.4008
  185POPC  H15Y21274   0.372   6.052   5.298  1.0387  1.7070  1.3427
  185POPC  C31621275   0.458   6.050   5.101 -0.7198 -0.1309 -0.8279
  185POPC  H16X21276   0.532   6.113   5.047  1.5779  0.2647  2.4475
  185POPC  H16Y21277   0.356   6.077   5.068  0.0715  1.3747 -2.1955
  185POPC  H16Z21278   0.482   5.942   5.087  0.2955  0.1630 -1.4780
  186POPC     N21279   2.613   6.828   7.186  0.8141  0.1576 -0.1203
  186POPC   C1221280   2.649   6.804   7.040 -0.5941  0.2588 -0.3962
  186POPC  H12A21281   2.747   6.758   7.034 -0.8602 -0.1155 -2.5444
  186POPC  H12B21282   2.653   6.903   6.997  1.8421  0.4707  0.1396
  186POPC   C1321283   2.614   6.698   7.262 -0.3861  0.4124  0.4242
  186POPC  H13A21284   2.521   6.650   7.237  0.7544 -0.7910 -1.8451
  186POPC  H13B21285   2.694   6.631   7.232 -1.8719 -1.0074 -0.5125
  186POPC  H13C21286   2.625   6.704   7.369 -0.0065  0.0135  0.4119
  186POPC   C1421287   2.729   6.908   7.249 -0.4060  0.8424  0.4074
  186POPC  H14A21288   2.699   6.920   7.352 -0.1439 -1.2060  0.7593
  186POPC  H14B21289   2.816   6.848   7.268 -0.0527  0.7691 -1.3465
  186POPC  H14C21290   2.747   7.006   7.207  1.5056 -0.1351 -1.2156
  186POPC   C1521291   2.485   6.908   7.207  0.4606  0.8045 -0.0238
  186POPC  H15A21292   2.410   6.856   7.149  1.2955 -1.3321  0.6953
  186POPC  H15B21293   2.502   7.008   7.169 -1.1076  0.6705 -1.1635
  186POPC  H15C21294   2.458   6.913   7.311  3.3609 -1.6874  1.0162
  186POPC   C1121295   2.568   6.698   6.959 -0.1932 -0.0102 -0.1556
  186POPC  H11A21296   2.588   6.602   7.010  2.2525 -0.2625 -1.4670
  186POPC  H11B21297   2.619   6.701   6.861  0.2947 -2.8838 -0.0545
  186POPC     P21298   2.318   6.648   6.986  0.4345 -0.0532  0.0083
  186POPC   O1321299   2.212   6.728   7.053  0.6236  0.6199  0.6014
  186POPC   O1421300   2.359   6.527   7.060 -0.0186 -0.4588  0.6265
  186POPC   O1221301   2.434   6.748   6.953  0.3075 -0.3208 -0.7680
  186POPC   O1121302   2.278   6.609   6.843 -0.0939 -0.2407  0.2730
  186POPC    C121303   2.253   6.473   6.806  0.1856 -0.4469 -0.0883
  186POPC    HA21304   2.177   6.478   6.724  1.0895  1.1536 -0.8800
  186POPC    HB21305   2.216   6.409   6.889  1.9746 -0.2576  0.8900
  186POPC    C221306   2.383   6.400   6.752  0.3483  0.7294 -0.2354
  186POPC    HS21307   2.438   6.379   6.846  0.3811  0.3864 -0.3320
  186POPC   O2121308   2.450   6.498   6.676  0.5808 -0.2610 -0.1003
  186POPC   C2121309   2.569   6.476   6.640 -0.7045  1.1983  0.3869
  186POPC   O2221310   2.629   6.366   6.654  0.0331 -0.4172  0.6723
  186POPC   C2221311   2.627   6.597   6.580  0.0930 -0.3185 -0.2079
  186POPC   H2R21312   2.707   6.640   6.643 -0.3331  1.9976 -1.1374
  186POPC   H2S21313   2.558   6.683   6.569  0.5709 -0.0253 -1.0599
  186POPC    C321314   2.351   6.265   6.671 -0.2199 -0.7393  0.6067
  186POPC    HX21315   2.266   6.213   6.720 -1.6595  1.6585  0.8137
  186POPC    HY21316   2.433   6.191   6.687 -1.4535 -2.6581 -1.3489
  186POPC   O3121317   2.336   6.276   6.529 -0.8593  0.0844  0.5746
  186POPC   C3121318   2.212   6.278   6.492 -0.3441 -0.8361  0.0796
  186POPC   O3221319   2.112   6.283   6.563 -0.0501  0.0337 -0.1803
  186POPC   C3221320   2.205   6.288   6.342 -0.3847  0.3717 -0.5366
  186POPC   H2X21321   2.284   6.218   6.307  1.3839  2.0865 -0.1097
  186POPC   H2Y21322   2.250   6.384   6.309  0.8489  0.1172  0.3472
  186POPC   C2321323   2.683   6.564   6.438  0.1729 -0.5384  0.1413
  186POPC   H3R21324   2.764   6.491   6.461  1.3271  0.5701 -0.3179
  186POPC   H3S21325   2.728   6.653   6.389  2.0993 -1.2041  0.5814
  186POPC   C2421326   2.590   6.501   6.337  0.0961 -0.2087 -0.2014
  186POPC   H4R21327   2.525   6.580   6.292  3.1700  1.3482 -2.2366
  186POPC   H4S21328   2.527   6.421   6.380 -0.1482 -0.0584 -0.2754
  186POPC   C2521329   2.662   6.425   6.221 -0.5971 -0.1450  0.6424
  186POPC   H5R21330   2.584   6.393   6.148  0.2937 -0.2029 -0.3082
  186POPC   H5S21331   2.712   6.332   6.253  1.0442  0.4786  0.0021
  186POPC   C2621332   2.774   6.504   6.147 -0.2613  0.1275  0.0982
  186POPC   H6R21333   2.846   6.537   6.225  0.3407 -0.2742 -0.2801
  186POPC   H6S21334   2.723   6.588   6.095  0.7567  0.5722 -0.2166
  186POPC   C2721335   2.838   6.418   6.040 -0.4018  0.0807 -0.0170
  186POPC   H7R21336   2.775   6.428   5.948 -3.2062 -0.8576  1.6640
  186POPC   H7S21337   2.823   6.310   6.065 -0.1414 -0.2588 -1.2629
  186POPC   C2821338   2.989   6.445   6.017  0.1566  0.3205  0.0011
  186POPC   H8R21339   3.026   6.374   5.940 -0.5366  1.1356 -1.1126
  186POPC   H8S21340   3.035   6.427   6.116 -2.4199 -1.6275  0.9550
  186POPC   C2921341   3.005   6.585   5.977  0.1311 -0.6644 -1.5139
  186POPC   H9121342   3.007   6.647   6.067 -0.9006 -2.1714 -0.4137
  186POPC  C21021343   2.991   6.642   5.862 -0.0234 -0.7050  0.3297
  186POPC  H10121344   2.996   6.751   5.845  0.6713 -0.8194 -0.2235
  186POPC  C21121345   2.961   6.560   5.736  0.1520 -0.3177  0.1497
  186POPC  H11R21346   2.863   6.596   5.699  1.4967  2.6715 -0.8112
  186POPC  H11S21347   2.950   6.451   5.758  0.7419  0.0010  2.2535
  186POPC  C21221348   3.054   6.576   5.617 -0.0874  0.5508  0.1366
  186POPC  H12R21349   3.159   6.573   5.652 -0.8060 -1.4905  2.4552
  186POPC  H12S21350   3.034   6.673   5.568  0.2272  0.9053  0.7002
  186POPC  C21321351   3.041   6.454   5.520 -0.0000  1.3305  0.1634
  186POPC  H13R21352   3.018   6.358   5.571  2.1251  1.0248  0.6089
  186POPC  H13S21353   3.138   6.436   5.470 -0.5919  0.5020 -0.7252
  186POPC  C21421354   2.928   6.467   5.418  0.1901 -0.1597 -0.3306
  186POPC  H14R21355   2.832   6.498   5.463 -0.3138 -2.8930  0.6928
  186POPC  H14S21356   2.904   6.370   5.369 -1.4404 -0.1870  0.4803
  186POPC  C21521357   2.978   6.563   5.305  0.6916  0.2380  0.3601
  186POPC  H15R21358   3.077   6.526   5.268  1.8138  0.5479  2.8304
  186POPC  H15S21359   2.997   6.663   5.349  0.8102  1.0426 -1.4610
  186POPC  C21621360   2.871   6.578   5.188 -0.3083 -0.2865  0.0318
  186POPC  H16R21361   2.915   6.658   5.125 -0.9351  1.1547  1.3551
  186POPC  H16S21362   2.777   6.616   5.234 -0.6282 -0.2507 -0.6346
  186POPC  C21721363   2.850   6.452   5.110 -0.8744  0.3033  0.3763
  186POPC  H17R21364   2.787   6.379   5.167 -0.1473 -1.4216 -0.9408
  186POPC  H17S21365   2.944   6.397   5.091 -0.6438  0.2090  1.6704
  186POPC  C21821366   2.772   6.477   4.981  0.2923 -0.5220 -0.0973
  186POPC  H18R21367   2.744   6.385   4.926 -0.0153 -0.1490 -0.5724
  186POPC  H18S21368   2.841   6.537   4.918 -0.7029 -1.2453 -1.9512
  186POPC  H18T21369   2.678   6.532   5.006  0.0054 -1.5870  1.3323
  186POPC   C3321370   2.064   6.252   6.291 -0.0323  0.8621 -0.3935
  186POPC   H3X21371   2.006   6.346   6.297 -2.6375 -0.6242 -0.8672
  186POPC   H3Y21372   2.023   6.171   6.355  1.6507 -0.2028 -0.5771
  186POPC   C3421373   2.064   6.189   6.154 -0.1680  0.1357  0.0350
  186POPC   H4X21374   2.141   6.110   6.143  1.7740  1.9987 -0.4935
  186POPC   H4Y21375   2.112   6.268   6.093 -2.5964  0.2364 -1.8845
  186POPC   C3521376   1.935   6.162   6.082  0.3674  0.8194 -0.1775
  186POPC   H5X21377   1.874   6.254   6.079  0.1586  0.6789 -0.3047
  186POPC   H5Y21378   1.878   6.089   6.145  1.9510  0.1747  0.5564
  186POPC   C3621379   1.946   6.106   5.940 -0.3600 -0.3385  0.0875
  186POPC   H6X21380   1.941   5.995   5.951 -1.2643 -0.2002  1.4088
  186POPC   H6Y21381   2.046   6.128   5.897  0.7701 -2.2081  1.5550
  186POPC   C3721382   1.833   6.151   5.841  0.0378 -0.1786  0.7535
  186POPC   H7X21383   1.833   6.262   5.838  0.4479 -0.1688  1.0542
  186POPC   H7Y21384   1.735   6.129   5.890 -1.9973 -0.2145 -2.9251
  186POPC   C3821385   1.839   6.084   5.703  0.3813 -0.4257  0.1345
  186POPC   H8X21386   1.828   5.975   5.717  1.4093 -0.5702 -0.0616
  186POPC   H8Y21387   1.940   6.107   5.663  0.5210 -1.7831 -0.3367
  186POPC   C3921388   1.753   6.139   5.594  0.0405 -0.2765  0.3322
  186POPC   H9X21389   1.770   6.248   5.580  0.9643 -0.5180 -0.5547
  186POPC   H9Y21390   1.648   6.141   5.631 -0.2106  0.7447 -0.4313
  186POPC  C31021391   1.770   6.060   5.461  0.3964 -0.3151  0.2337
  186POPC  H10X21392   1.758   5.951   5.476  0.5099 -0.4571 -0.6333
  186POPC  H10Y21393   1.871   6.077   5.419  0.9136  1.2606  1.9750
  186POPC  C31121394   1.663   6.099   5.360 -0.1362 -0.4413  0.2961
  186POPC  H11X21395   1.676   6.207   5.339 -1.0625 -0.4392 -0.3393
  186POPC  H11Y21396   1.564   6.091   5.411  1.4642  0.5041  3.8566
  186POPC  C31221397   1.659   6.017   5.230 -0.2206 -0.0052  0.1786
  186POPC  H12X21398   1.657   5.907   5.247 -0.7052  0.0652  0.6189
  186POPC  H12Y21399   1.751   6.045   5.175  0.0239 -1.4514 -0.1910
  186POPC  C31321400   1.542   6.047   5.137 -0.9201  0.1365 -0.0102
  186POPC  H13X21401   1.579   6.128   5.070 -2.4306  1.0875  0.2450
  186POPC  H13Y21402   1.448   6.081   5.186 -0.9598  1.2894 -0.8658
  186POPC  C31421403   1.513   5.926   5.047 -0.0705  0.4497 -0.2396
  186POPC  H14X21404   1.496   5.834   5.105 -1.5275 -0.4076 -1.9336
  186POPC  H14Y21405   1.605   5.915   4.985 -0.1303  1.0909 -0.4583
  186POPC  C31521406   1.394   5.935   4.953 -0.0623  0.0232 -0.4279
  186POPC  H15X21407   1.406   6.026   4.890 -0.2700  1.7823  1.9328
  186POPC  H15Y21408   1.303   5.938   5.016 -0.7142 -0.9894 -1.2952
  186POPC  C31621409   1.372   5.810   4.863  0.5459 -0.4386 -0.1023
  186POPC  H16X21410   1.372   5.715   4.920  2.7483  0.1705  1.0580
  186POPC  H16Y21411   1.448   5.810   4.782  0.0196 -2.5854 -0.6343
  186POPC  H16Z21412   1.277   5.834   4.811  1.1075  0.8482 -0.5854
  187POPC     N21413   6.772   1.136   2.157 -0.4610  0.3578  0.2093
  187POPC   C1221414   6.901   1.183   2.222  0.0719 -0.4902 -0.1565
  187POPC  H12A21415   6.978   1.107   2.212  0.6181  0.1108 -0.5951
  187POPC  H12B21416   6.902   1.186   2.330  1.1162 -1.1663 -0.1226
  187POPC   C1321417   6.672   1.240   2.157 -0.8185  0.6305 -0.2191
  187POPC  H13A21418   6.707   1.317   2.089  0.6334  0.0103 -0.2072
  187POPC  H13B21419   6.578   1.219   2.108 -0.2820 -2.1083 -0.1766
  187POPC  H13C21420   6.672   1.291   2.253  1.3741  1.9534 -0.8483
  187POPC   C1421421   6.794   1.086   2.021 -0.2915  0.0289  0.3916
  187POPC  H14A21422   6.808   1.177   1.964  1.3894  0.4682  1.4498
  187POPC  H14B21423   6.876   1.016   2.013 -0.6310 -0.3828  0.4733
  187POPC  H14C21424   6.703   1.044   1.979 -0.8444  0.7448  0.8438
  187POPC   C1521425   6.726   1.013   2.238  0.5564  0.0876  0.9140
  187POPC  H15A21426   6.704   1.045   2.338  0.7873  0.0246  0.9866
  187POPC  H15B21427   6.806   0.940   2.240  0.3749 -0.0946  2.2280
  187POPC  H15C21428   6.640   0.973   2.187  0.8853  0.3002  0.1723
  187POPC   C1121429   6.975   1.311   2.166 -1.1918  0.2083  0.1135
  187POPC  H11A21430   7.004   1.288   2.061  0.4690 -0.9025  0.7813
  187POPC  H11B21431   7.076   1.332   2.207 -0.0015 -1.5833 -1.7062
  187POPC     P21432   6.876   1.499   2.303  0.5249 -0.1241  0.3739
  187POPC   O1321433   6.783   1.425   2.382  0.0377  0.4777 -0.6016
  187POPC   O1421434   6.838   1.637   2.267 -0.0898  0.1261 -0.2566
  187POPC   O1221435   6.896   1.426   2.168 -0.6481 -0.0967  0.8630
  187POPC   O1121436   7.015   1.497   2.360  0.2265 -0.2479 -0.1072
  187POPC    C121437   7.076   1.581   2.450  0.1186  0.7069 -0.0002
  187POPC    HA21438   7.036   1.683   2.429 -1.7437 -0.7528 -5.1396
  187POPC    HB21439   7.185   1.582   2.427  0.1329 -1.9828 -0.4219
  187POPC    C221440   7.054   1.526   2.589  0.4666 -0.7182  0.0811
  187POPC    HS21441   6.948   1.539   2.621  0.6633  0.0669  0.4284
  187POPC   O2121442   7.136   1.613   2.665 -0.2371 -0.5914 -0.1853
  187POPC   C2121443   7.081   1.729   2.700 -0.2345 -1.1157  0.0198
  187POPC   O2221444   6.968   1.762   2.661  0.1530 -0.1862 -0.2178
  187POPC   C2221445   7.171   1.810   2.790  0.3306  0.1593  0.0314
  187POPC   H2R21446   7.211   1.893   2.728 -0.5018 -0.0524 -0.8177
  187POPC   H2S21447   7.255   1.747   2.828 -1.2545 -2.1522 -0.0653
  187POPC    C321448   7.098   1.373   2.596  0.4508 -0.0895 -0.1463
  187POPC    HX21449   7.195   1.363   2.542 -0.1637  2.7038 -1.9831
  187POPC    HY21450   7.023   1.326   2.529 -1.0505  1.4085  0.4241
  187POPC   O3121451   7.107   1.318   2.729 -0.4867  0.5793 -0.5057
  187POPC   C3121452   6.991   1.317   2.800  0.0079 -0.3677  0.7293
  187POPC   O3221453   6.884   1.315   2.745  0.5903  0.0776 -0.4420
  187POPC   C3221454   7.012   1.314   2.955 -0.5756  0.3897  0.1159
  187POPC   H2X21455   7.064   1.220   2.986 -1.6833  0.5696  2.7871
  187POPC   H2Y21456   6.910   1.316   2.999 -0.9003 -0.7623 -0.5332
  187POPC   C2321457   7.093   1.862   2.905  0.6255 -0.1292 -0.9998
  187POPC   H3R21458   7.030   1.782   2.950  0.3867 -0.5480 -2.0519
  187POPC   H3S21459   7.023   1.937   2.862  3.3733  2.1031 -1.9302
  187POPC   C2421460   7.181   1.929   3.015  0.2189 -1.0475  0.4309
  187POPC   H4R21461   7.156   2.037   3.025  2.3446 -0.5444  0.7228
  187POPC   H4S21462   7.285   1.915   2.977  0.1297 -3.0163  0.8152
  187POPC   C2521463   7.168   1.872   3.153 -0.3189 -0.0812  0.0463
  187POPC   H5R21464   7.202   1.767   3.145 -1.2493 -0.2655 -2.8626
  187POPC   H5S21465   7.060   1.875   3.180  0.2124 -0.0886  2.3434
  187POPC   C2621466   7.257   1.942   3.259  0.1934  0.2276 -0.6375
  187POPC   H6R21467   7.219   2.046   3.259  1.7403  0.8305  0.3753
  187POPC   H6S21468   7.367   1.930   3.247  0.2576 -1.5704  1.1216
  187POPC   C2721469   7.226   1.883   3.402  0.1003  0.7578  0.3679
  187POPC   H7R21470   7.302   1.806   3.428  0.4018  1.7482  2.6703
  187POPC   H7S21471   7.126   1.835   3.401  0.0315  0.8917  0.8377
  187POPC   C2821472   7.237   1.990   3.510  0.6216 -0.1425 -0.8340
  187POPC   H8R21473   7.187   1.951   3.602  1.0822  0.9523 -0.0931
  187POPC   H8S21474   7.175   2.076   3.476  1.3242  0.6457 -0.1753
  187POPC   C2921475   7.378   2.029   3.537 -0.7265 -0.5710 -0.9697
  187POPC   H9121476   7.450   2.020   3.455  0.7842  0.8025  0.1482
  187POPC  C21021477   7.427   2.094   3.648  0.2935 -0.4866 -0.3548
  187POPC  H10121478   7.525   2.144   3.646 -0.0227  0.1402 -2.4706
  187POPC  C21121479   7.358   2.105   3.779  0.1500  0.0647  0.6215
  187POPC  H11R21480   7.247   2.105   3.771  0.1122 -1.1357  0.9821
  187POPC  H11S21481   7.383   2.209   3.808 -1.9581  1.0803 -0.8612
  187POPC  C21221482   7.389   1.990   3.880  1.2936 -0.4416 -0.0774
  187POPC  H12R21483   7.377   1.897   3.821 -2.1603 -0.9209  1.1237
  187POPC  H12S21484   7.316   1.979   3.963 -0.5209  1.3994 -1.3222
  187POPC  C21321485   7.527   2.005   3.940  0.7361  0.5109 -0.2464
  187POPC  H13R21486   7.606   1.980   3.865  0.1226 -2.0822 -0.1239
  187POPC  H13S21487   7.536   1.924   4.014  0.1733  1.7216  1.1932
  187POPC  C21421488   7.559   2.135   4.022 -0.6960  0.0854 -0.1510
  187POPC  H14R21489   7.464   2.171   4.068 -0.0890  0.3888  0.8874
  187POPC  H14S21490   7.606   2.220   3.969  0.6215 -0.4275  0.1526
  187POPC  C21521491   7.652   2.096   4.136  0.3545  0.5436  0.4913
  187POPC  H15R21492   7.735   2.041   4.087 -0.6766 -1.2835  0.7030
  187POPC  H15S21493   7.598   2.027   4.204 -1.0076  1.0310 -0.0654
  187POPC  C21621494   7.694   2.218   4.217  0.1293  0.5700  0.2214
  187POPC  H16R21495   7.596   2.264   4.245  0.3696  0.7052  0.8527
  187POPC  H16S21496   7.765   2.280   4.158 -0.6542  0.7450 -0.5586
  187POPC  C21721497   7.751   2.186   4.353  0.3538  0.0261  0.4193
  187POPC  H17R21498   7.763   2.286   4.401 -2.0520 -0.2844  1.8235
  187POPC  H17S21499   7.852   2.143   4.338  0.7979  1.2548 -0.2098
  187POPC  C21821500   7.655   2.112   4.446 -0.3276  0.0417  1.0283
  187POPC  H18R21501   7.699   2.108   4.548  2.8426 -1.3773 -0.2868
  187POPC  H18S21502   7.633   2.011   4.406  0.3608  0.7540 -1.3469
  187POPC  H18T21503   7.558   2.167   4.443 -0.5578 -0.3740  0.6830
  187POPC   C3321504   7.090   1.439   3.007 -0.1424  0.2361 -0.4315
  187POPC   H3X21505   7.035   1.535   3.011 -0.8750 -0.1686  3.1013
  187POPC   H3Y21506   7.184   1.446   2.948  0.7451  0.4900  0.9611
  187POPC   C3421507   7.146   1.427   3.153  0.7692  0.1654  0.2247
  187POPC   H4X21508   7.189   1.526   3.182 -1.4437  1.5303 -0.9025
  187POPC   H4Y21509   7.227   1.353   3.167  1.3848  1.2564  3.3197
  187POPC   C3521510   7.021   1.414   3.248  0.6976 -0.6739  0.5284
  187POPC   H5X21511   6.963   1.323   3.222  0.0121  0.1064 -0.7732
  187POPC   H5Y21512   6.960   1.505   3.236  2.7691  0.5981 -1.0735
  187POPC   C3621513   7.049   1.404   3.397 -0.5654 -0.6226  0.1470
  187POPC   H6X21514   7.135   1.335   3.411  0.9607  0.8651 -1.1977
  187POPC   H6Y21515   6.962   1.359   3.448 -1.1830  0.6561  0.2655
  187POPC   C3721516   7.093   1.532   3.464  0.7119 -0.4352 -0.4346
  187POPC   H7X21517   7.010   1.605   3.455  1.0924 -0.0429 -0.8581
  187POPC   H7Y21518   7.174   1.572   3.399 -0.9118  0.1731 -2.1879
  187POPC   C3821519   7.139   1.498   3.605 -0.1152 -0.1415 -0.0828
  187POPC   H8X21520   7.244   1.464   3.600 -0.3917 -0.8217 -2.4490
  187POPC   H8Y21521   7.085   1.407   3.638  3.4019 -2.6305 -0.6167
  187POPC   C3921522   7.138   1.614   3.706  0.1018  0.4923 -0.1137
  187POPC   H9X21523   7.033   1.650   3.710 -0.4394 -0.9216 -0.7642
  187POPC   H9Y21524   7.206   1.697   3.676 -1.3283  1.4117 -0.9696
  187POPC  C31021525   7.178   1.566   3.845  0.0629  0.4541  0.0430
  187POPC  H10X21526   7.285   1.540   3.830  0.2399  1.6001 -0.8445
  187POPC  H10Y21527   7.125   1.474   3.876  1.6120 -0.0674  1.2506
  187POPC  C31121528   7.164   1.676   3.953 -0.1567  0.4746  0.6479
  187POPC  H11X21529   7.223   1.765   3.923  1.2354 -0.7469 -0.4125
  187POPC  H11Y21530   7.218   1.631   4.038  1.0269  2.1038  0.8064
  187POPC  C31221531   7.018   1.719   3.997  0.5236 -0.5663  0.1930
  187POPC  H12X21532   6.950   1.631   3.988  0.6400 -0.5045 -2.1371
  187POPC  H12Y21533   6.979   1.774   3.908 -0.7044 -3.0956 -0.9242
  187POPC  C31321534   6.999   1.773   4.138  0.1547  0.7174  0.1628
  187POPC  H13X21535   7.090   1.834   4.161 -0.7075  1.6851  1.1066
  187POPC  H13Y21536   6.996   1.694   4.216  2.3128  2.4898  2.1912
  187POPC  C31421537   6.874   1.860   4.142  0.2431  0.1108  0.2920
  187POPC  H14X21538   6.783   1.805   4.110  0.8626 -0.6657 -0.1625
  187POPC  H14Y21539   6.894   1.933   4.061  2.0319 -2.3840 -1.6892
  187POPC  C31521540   6.834   1.925   4.277 -0.6393  0.0094 -0.9269
  187POPC  H15X21541   6.732   1.967   4.279  0.2557  2.3984  1.7777
  187POPC  H15Y21542   6.902   2.011   4.294  0.7116 -1.3226  0.9083
  187POPC  C31621543   6.856   1.823   4.393  0.2508  0.5904  0.1394
  187POPC  H16X21544   6.814   1.860   4.489 -0.0651 -0.1864  0.3137
  187POPC  H16Y21545   6.957   1.785   4.418 -0.7129 -1.4535  1.1247
  187POPC  H16Z21546   6.801   1.727   4.380  2.2332 -0.6201  0.3615
  188POPC     N21547   5.746   6.316   2.581  0.3663 -0.1821 -0.0811
  188POPC   C1221548   5.829   6.391   2.687  0.5822  0.3913 -0.2501
  188POPC  H12A21549   5.887   6.461   2.629  0.8317 -0.3937 -0.9618
  188POPC  H12B21550   5.904   6.325   2.728 -0.9709 -1.4185 -0.1652
  188POPC   C1321551   5.668   6.201   2.650 -0.0376 -0.4870 -0.0995
  188POPC  H13A21552   5.610   6.152   2.574 -0.4451  0.3934 -0.3783
  188POPC  H13B21553   5.727   6.143   2.719 -2.8607 -1.1921  1.9081
  188POPC  H13C21554   5.592   6.239   2.717  0.5750 -0.2539  0.4701
  188POPC   C1421555   5.641   6.403   2.523  0.5642  0.4281 -0.7463
  188POPC  H14A21556   5.574   6.350   2.457  0.7624 -2.1536  0.9948
  188POPC  H14B21557   5.582   6.454   2.598  1.0039  1.0088 -0.7879
  188POPC  H14C21558   5.690   6.479   2.463  0.1207  1.2153 -0.1342
  188POPC   C1521559   5.822   6.249   2.472  0.6587  0.0913  0.3716
  188POPC  H15A21560   5.894   6.318   2.430  1.0222 -0.2655  0.4034
  188POPC  H15B21561   5.759   6.211   2.394  1.7654  1.6619 -1.3776
  188POPC  H15C21562   5.880   6.166   2.510  1.0470 -0.5827 -1.6079
  188POPC   C1121563   5.758   6.454   2.806 -0.1692  0.3047 -0.5877
  188POPC  H11A21564   5.834   6.478   2.883 -1.1768  1.9133 -0.0535
  188POPC  H11B21565   5.687   6.382   2.850  0.2720  1.1047  1.5272
  188POPC     P21566   5.772   6.713   2.767 -0.0242  0.4517 -0.1853
  188POPC   O1321567   5.680   6.826   2.764 -0.3405  0.3925  0.3969
  188POPC   O1421568   5.860   6.698   2.647  0.6467  0.3453  0.4421
  188POPC   O1221569   5.692   6.574   2.785  0.3875  0.1242  0.7863
  188POPC   O1121570   5.863   6.702   2.890 -0.1682  0.1011 -0.2047
  188POPC    C121571   5.943   6.816   2.935 -0.0609  0.8118 -0.1778
  188POPC    HA21572   5.884   6.876   3.008 -0.1343 -0.6803  1.0382
  188POPC    HB21573   5.958   6.893   2.856 -1.7035  1.9074  0.5127
  188POPC    C221574   6.074   6.775   3.012 -0.2179 -0.4036 -0.2793
  188POPC    HS21575   6.137   6.724   2.937  0.4018  1.0586 -0.7946
  188POPC   O2121576   6.032   6.682   3.118  0.0224 -0.0926 -0.0583
  188POPC   C2121577   6.114   6.573   3.125  0.2518  0.2645 -0.1451
  188POPC   O2221578   6.230   6.569   3.086 -0.1116  0.0998  0.1264
  188POPC   C2221579   6.045   6.460   3.189  0.2767  0.1857 -0.3568
  188POPC   H2R21580   6.057   6.376   3.118  1.0593  1.9947 -2.5200
  188POPC   H2S21581   5.935   6.471   3.201  0.1038 -1.0084 -0.7449
  188POPC    C321582   6.160   6.893   3.061  0.7417  0.4302 -0.5031
  188POPC    HX21583   6.166   6.970   2.981 -0.2406  1.7298  0.6284
  188POPC    HY21584   6.261   6.853   3.083  0.7416 -0.0614 -1.3625
  188POPC   O3121585   6.111   6.964   3.180 -0.1665  0.2834 -0.2736
  188POPC   C3121586   6.156   6.917   3.294  0.0136  0.2520  0.0854
  188POPC   O3221587   6.220   6.813   3.302 -0.5506 -0.0858 -0.5971
  188POPC   C3221588   6.109   6.994   3.414 -0.0812  0.0514  0.5827
  188POPC   H2X21589   6.006   7.033   3.403 -0.0769  0.2444  1.2006
  188POPC   H2Y21590   6.172   7.086   3.424  1.2451 -0.7538 -0.0149
  188POPC   C2321591   6.104   6.412   3.316 -0.1952 -0.4592 -0.1393
  188POPC   H3R21592   6.215   6.415   3.318 -0.1988 -0.0584  2.4803
  188POPC   H3S21593   6.056   6.312   3.328 -0.7053 -0.0417  1.5257
  188POPC   C2421594   6.048   6.506   3.423 -0.3663  0.0724  0.4492
  188POPC   H4R21595   5.943   6.534   3.398 -1.1278  0.1682  3.3913
  188POPC   H4S21596   6.110   6.597   3.429  1.1790 -1.0280  2.3992
  188POPC   C2521597   6.046   6.430   3.554 -0.3575  0.7254 -0.2532
  188POPC   H5R21598   6.146   6.381   3.554 -0.1923  1.0576 -0.1501
  188POPC   H5S21599   5.963   6.356   3.547 -1.3607  1.6916  0.8911
  188POPC   C2621600   6.042   6.519   3.676 -0.5541 -0.3413 -0.1978
  188POPC   H6R21601   5.962   6.596   3.678 -0.7908 -0.5881  1.7425
  188POPC   H6S21602   6.143   6.564   3.687 -0.4706 -0.8063  1.1743
  188POPC   C2721603   6.014   6.438   3.805 -0.6010  0.6664 -0.2705
  188POPC   H7R21604   5.935   6.365   3.779  0.0333 -0.9072  1.9643
  188POPC   H7S21605   5.982   6.507   3.885  0.8655  1.1139 -0.0450
  188POPC   C2821606   6.149   6.375   3.858  0.1234 -0.6235 -0.7820
  188POPC   H8R21607   6.214   6.465   3.860 -1.2379  0.4063  1.6544
  188POPC   H8S21608   6.198   6.320   3.775  1.1798 -0.5977 -0.1950
  188POPC   C2921609   6.120   6.292   3.986 -0.5100  0.3494 -0.8483
  188POPC   H9121610   6.025   6.236   3.990 -0.6983  0.7051 -0.3092
  188POPC  C21021611   6.194   6.289   4.096  0.5382 -0.9302  0.1226
  188POPC  H10121612   6.167   6.233   4.187  0.6406 -1.8515 -0.4100
  188POPC  C21121613   6.326   6.365   4.122 -0.0679  0.5981  1.1141
  188POPC  H11R21614   6.355   6.426   4.033  0.3388 -0.6865  0.3280
  188POPC  H11S21615   6.414   6.299   4.136  0.7561  1.2337 -0.7705
  188POPC  C21221616   6.321   6.457   4.249  0.3230  1.0434  0.0684
  188POPC  H12R21617   6.232   6.522   4.236 -0.2489  0.6798  1.9366
  188POPC  H12S21618   6.406   6.526   4.231  0.1344  1.0046 -1.0732
  188POPC  C21321619   6.316   6.375   4.384 -0.0595  0.2556  0.2768
  188POPC  H13R21620   6.389   6.292   4.388 -0.8053 -0.3868  0.8546
  188POPC  H13S21621   6.216   6.328   4.378  0.0533  0.1416 -0.8246
  188POPC  C21421622   6.332   6.464   4.496  0.5224  0.5377  0.4091
  188POPC  H14R21623   6.280   6.561   4.476  0.5182  0.4192 -0.1507
  188POPC  H14S21624   6.439   6.493   4.489  0.3491  0.7670 -1.9674
  188POPC  C21521625   6.301   6.411   4.640 -0.3788 -0.5731  0.0760
  188POPC  H15R21626   6.385   6.343   4.666 -0.1731 -0.4595 -0.2833
  188POPC  H15S21627   6.202   6.360   4.645 -0.8342  0.3383  0.5773
  188POPC  C21621628   6.311   6.519   4.750 -0.1601  0.6829 -0.4143
  188POPC  H16R21629   6.278   6.488   4.852 -3.5206  0.2473 -1.4983
  188POPC  H16S21630   6.229   6.593   4.739  0.7622  2.1448  1.8479
  188POPC  C21721631   6.444   6.584   4.777 -0.1455  0.8030  0.4841
  188POPC  H17R21632   6.424   6.654   4.861 -1.0846 -2.0436  2.7776
  188POPC  H17S21633   6.469   6.642   4.685  0.2524 -0.4870 -0.2437
  188POPC  C21821634   6.563   6.502   4.827 -0.5008  0.9956 -0.1267
  188POPC  H18R21635   6.589   6.414   4.764 -0.2175  0.9205  0.0910
  188POPC  H18S21636   6.536   6.474   4.931 -1.2020  2.2601  0.0465
  188POPC  H18T21637   6.652   6.568   4.841 -0.0765  0.7401 -1.4163
  188POPC   C3321638   6.109   6.909   3.546  0.3007  0.7294 -0.1164
  188POPC   H3X21639   6.194   6.838   3.547 -0.4066 -0.1456 -0.4973
  188POPC   H3Y21640   6.025   6.838   3.526 -0.0801  1.1290  0.0447
  188POPC   C3421641   6.094   6.984   3.678 -0.6258  0.2736 -0.0394
  188POPC   H4X21642   6.012   7.058   3.673  0.0980  1.0172 -1.7104
  188POPC   H4Y21643   6.190   7.041   3.678  0.9432 -2.2238  0.8819
  188POPC   C3521644   6.080   6.897   3.802 -0.0267 -0.6714  0.8373
  188POPC   H5X21645   6.182   6.855   3.815  0.4162  0.2937  0.5151
  188POPC   H5Y21646   6.008   6.817   3.775 -0.2069 -0.3879  0.4767
  188POPC   C3621647   6.035   6.974   3.925 -0.5150 -0.8936  0.1177
  188POPC   H6X21648   5.933   7.016   3.920 -0.7588 -1.5210 -0.3100
  188POPC   H6Y21649   6.104   7.056   3.955 -1.0010 -0.3339 -0.2897
  188POPC   C3721650   6.027   6.896   4.055 -0.5255  1.3802  0.0616
  188POPC   H7X21651   5.970   6.954   4.131 -2.6562 -0.8394  0.2626
  188POPC   H7Y21652   6.132   6.874   4.085 -0.9687 -0.0603  0.6240
  188POPC   C3821653   5.975   6.751   4.043 -0.1224 -0.7291 -0.0702
  188POPC   H8X21654   6.046   6.684   3.989 -1.6006 -0.6066 -2.3312
  188POPC   H8Y21655   5.877   6.746   3.989  0.3788  2.1068 -1.4787
  188POPC   C3921656   5.952   6.682   4.179 -0.1271 -0.1181 -0.0022
  188POPC   H9X21657   5.897   6.752   4.247 -0.5142 -0.6131  0.1989
  188POPC   H9Y21658   6.053   6.667   4.222 -0.0978  2.0206  0.8047
  188POPC  C31021659   5.891   6.544   4.167  0.1027  0.5943 -0.2364
  188POPC  H10X21660   5.955   6.483   4.099  2.0627  2.0560  0.2010
  188POPC  H10Y21661   5.791   6.539   4.119  0.0149 -0.5061  0.0142
  188POPC  C31121662   5.904   6.469   4.305  0.9293 -0.3503 -0.0909
  188POPC  H11X21663   6.012   6.450   4.325  0.9707  0.3330  0.4038
  188POPC  H11Y21664   5.870   6.365   4.290  3.0624 -1.2705  1.0170
  188POPC  C31221665   5.833   6.534   4.425  1.1525  0.2626  0.5470
  188POPC  H12X21666   5.727   6.559   4.403  0.8233  1.2839  2.9692
  188POPC  H12Y21667   5.891   6.627   4.441  0.4162  1.1259 -1.5612
  188POPC  C31321668   5.834   6.448   4.550 -1.1092 -0.1513  0.5590
  188POPC  H13X21669   5.940   6.433   4.581 -1.0300 -0.0356  0.3445
  188POPC  H13Y21670   5.791   6.347   4.536  0.0436 -0.8792  1.9836
  188POPC  C31421671   5.760   6.518   4.667 -0.0684 -0.1024 -0.1569
  188POPC  H14X21672   5.793   6.622   4.686  1.1496 -0.4912 -0.0329
  188POPC  H14Y21673   5.779   6.464   4.762  0.4242  1.0683  0.4331
  188POPC  C31521674   5.598   6.512   4.670 -0.3125  0.0338 -0.2041
  188POPC  H15X21675   5.566   6.554   4.572  0.9644 -0.8132 -1.0058
  188POPC  H15Y21676   5.578   6.584   4.752 -0.8990 -1.3969  0.9585
  188POPC  C31621677   5.550   6.366   4.691 -0.3511 -0.5330  0.0581
  188POPC  H16X21678   5.592   6.301   4.611  2.8222  0.8598  0.4384
  188POPC  H16Y21679   5.439   6.361   4.700 -0.6449  0.3895 -2.3735
  188POPC  H16Z21680   5.600   6.338   4.786  2.2875 -2.0260 -1.6583
  189SAPI   C1221681   2.438   5.554   7.038 -0.4874  0.2511  0.6108
  189SAPI    H221682   2.423   5.599   6.937 -1.5805  0.2081  0.7445
  189SAPI    O221683   2.311   5.574   7.100 -0.1363 -0.1897 -0.0729
  189SAPI   HO221684   2.258   5.622   7.036 -0.2815 -0.6296 -0.2806
  189SAPI   C1321685   2.483   5.406   7.017 -0.6450 -0.6130  0.2658
  189SAPI    H321686   2.587   5.399   6.978 -0.8615  0.2770 -0.5194
  189SAPI    O321687   2.396   5.338   6.928  0.2311 -0.6550 -0.0240
  189SAPI   HO321688   2.439   5.340   6.842 -1.1780  2.1684 -0.7713
  189SAPI   C1421689   2.479   5.333   7.154 -0.0358 -0.1025  0.4860
  189SAPI    H421690   2.373   5.333   7.187 -0.3738 -1.5000 -0.5067
  189SAPI    O421691   2.531   5.203   7.150  0.3394 -0.0808  0.2968
  189SAPI   HO421692   2.556   5.169   7.063 -0.1825 -2.1198  0.8924
  189SAPI   C1521693   2.571   5.409   7.253  0.7957 -0.2379  0.1565
  189SAPI    H521694   2.672   5.374   7.221  0.1225 -1.7363 -0.3599
  189SAPI    O521695   2.547   5.368   7.391  0.3241 -0.2473 -0.2986
  189SAPI   HO521696   2.626   5.380   7.443 -0.4003  2.2699  0.4003
  189SAPI   C1621697   2.575   5.565   7.250  0.3812 -0.4759  0.1800
  189SAPI    H621698   2.505   5.612   7.322  1.5798  3.2736 -0.8806
  189SAPI    O621699   2.701   5.612   7.291 -0.4087  0.5363 -0.1259
  189SAPI   HO621700   2.686   5.704   7.312 -0.4367  0.6430 -0.5959
  189SAPI   C1121701   2.545   5.626   7.112  0.0583 -0.0043 -0.1266
  189SAPI    H121702   2.632   5.607   7.045 -1.7838 -0.2632 -2.6138
  189SAPI     P21703   2.599   5.879   7.038 -0.1642 -0.3105 -0.0410
  189SAPI   O1321704   2.746   5.856   7.046  0.2166  0.0749 -0.3356
  189SAPI   O1421705   2.552   6.013   7.079  0.5154  0.1296  0.0054
  189SAPI   O1221706   2.516   5.767   7.132 -1.1898 -0.0127 -0.2191
  189SAPI   O1121707   2.537   5.847   6.898 -0.4413 -0.3033  0.1322
  189SAPI    C121708   2.399   5.885   6.861 -0.1452 -0.1243  0.2427
  189SAPI    HA21709   2.332   5.811   6.910 -1.1943  0.6196 -0.0399
  189SAPI    HB21710   2.383   5.993   6.880 -1.0048  0.6196 -3.6989
  189SAPI    C221711   2.361   5.857   6.714  0.2565  0.0253 -0.1184
  189SAPI    HS21712   2.380   5.749   6.696 -1.2472  0.1657 -3.2081
  189SAPI   O2121713   2.440   5.938   6.629  0.5695  0.4943 -0.4106
  189SAPI   C2121714   2.471   5.883   6.511 -0.0336 -0.4913  0.1161
  189SAPI   O2221715   2.434   5.774   6.468 -0.4263 -0.3043  0.1942
  189SAPI   C2221716   2.556   5.986   6.422 -0.2974 -0.3738 -0.2535
  189SAPI   H2R21717   2.559   6.082   6.478  2.5644 -1.0282  0.9003
  189SAPI   H2S21718   2.658   5.944   6.408 -0.1751  0.6767 -3.5072
  189SAPI    C321719   2.207   5.871   6.674 -0.0136  0.0970 -0.3768
  189SAPI    HX21720   2.198   5.977   6.643 -0.1628  0.5865  1.2475
  189SAPI    HY21721   2.144   5.853   6.764  0.0413  2.3101  0.1572
  189SAPI   O3121722   2.165   5.776   6.573 -0.0882  0.0585 -0.0093
  189SAPI   C3121723   2.118   5.819   6.457  0.3116 -0.1191 -0.4098
  189SAPI   O3221724   2.100   5.937   6.430  0.6652 -0.3849 -0.7096
  189SAPI   C3221725   2.084   5.701   6.366 -0.4658  0.5698  0.0051
  189SAPI   H2X21726   1.984   5.667   6.399 -0.6317 -0.0930 -1.1444
  189SAPI   H2Y21727   2.153   5.616   6.387  1.1640  1.8098 -0.0902
  189SAPI   C2321728   2.486   5.994   6.285 -0.1608  0.4318 -0.6779
  189SAPI   H3R21729   2.382   6.016   6.316  0.2858 -0.1227  1.4020
  189SAPI   H3S21730   2.492   5.891   6.244  1.0806  0.4643 -0.6314
  189SAPI   C2421731   2.547   6.095   6.188  0.3299  0.3218  1.0230
  189SAPI   H4R21732   2.556   6.193   6.240 -0.5892  0.1860  1.4537
  189SAPI   H4S21733   2.476   6.097   6.103  1.3248 -1.7121  0.0661
  189SAPI   C2521734   2.687   6.060   6.140  0.6219 -0.6144  0.5012
  189SAPI   H5R21735   2.754   6.051   6.227 -0.9757 -1.6165  1.6752
  189SAPI   C2621736   2.736   6.051   6.018  0.1683  0.1756 -0.0836
  189SAPI   H6R21737   2.846   6.043   6.008  0.1230 -1.9976  0.5035
  189SAPI   C2721738   2.660   6.081   5.892 -0.3631  0.5691 -0.2794
  189SAPI   H7R21739   2.590   6.166   5.910  0.6275  1.5290 -0.8093
  189SAPI   H7S21740   2.596   5.994   5.864  1.0845 -0.3307 -0.8901
  189SAPI   C2821741   2.758   6.097   5.775 -0.0209 -0.1185 -0.1734
  189SAPI   H8R21742   2.830   6.014   5.763  1.0803  0.4817  1.8794
  189SAPI   C2921743   2.759   6.195   5.682  0.4283  0.0124 -0.1176
  189SAPI   H9R21744   2.843   6.203   5.612  0.6988 -1.4984  0.0085
  189SAPI  C21021745   2.662   6.307   5.671  0.4055 -0.0193  0.2426
  189SAPI  H10R21746   2.711   6.384   5.609 -0.6196 -1.1234 -2.0964
  189SAPI  H10S21747   2.646   6.353   5.771 -2.0774  1.9900 -0.9501
  189SAPI  C21121748   2.531   6.264   5.612  0.2232 -0.2970 -0.1216
  189SAPI  H11R21749   2.452   6.242   5.686  2.2984 -0.6615  2.1269
  189SAPI  C21221750   2.500   6.252   5.483 -0.2583 -0.6119  0.4633
  189SAPI  H12R21751   2.403   6.216   5.448  0.3043 -0.7369 -1.0580
  189SAPI  C21321752   2.603   6.264   5.374  0.7742 -1.0621 -0.0573
  189SAPI  H13R21753   2.705   6.233   5.405  1.0942  1.1837  1.3280
  189SAPI  H13S21754   2.627   6.371   5.353  0.6596 -1.1950 -0.9349
  189SAPI  C21421755   2.567   6.199   5.242  0.1073 -0.0516 -0.4576
  189SAPI  H14R21756   2.626   6.111   5.215 -0.0536 -1.0369  2.1210
  189SAPI  C21521757   2.479   6.252   5.154 -0.1601  0.3800 -0.4420
  189SAPI  H15R21758   2.453   6.191   5.066  0.4916  1.2459 -1.2539
  189SAPI  C21621759   2.382   6.363   5.181  0.3766 -0.1300  0.1167
  189SAPI  H16R21760   2.403   6.402   5.283  1.0215  0.1806 -0.1290
  189SAPI  H16S21761   2.279   6.322   5.180  0.3830 -0.1491  0.2832
  189SAPI  C21721762   2.380   6.474   5.080  0.5334 -0.3940  0.1117
  189SAPI  H17R21763   2.383   6.442   4.973  2.5174  0.8656 -0.2589
  189SAPI  H17S21764   2.469   6.536   5.100  0.2690 -0.5382  1.9196
  189SAPI  C21821765   2.264   6.577   5.102 -0.1079  0.8643 -0.7305
  189SAPI  H18R21766   2.278   6.621   5.203 -1.8974  0.5003 -0.2995
  189SAPI  H18S21767   2.162   6.534   5.092  0.0595  0.1023  0.6016
  189SAPI  C21921768   2.262   6.694   5.000 -0.0137  0.0553  0.3861
  189SAPI  H19R21769   2.243   6.644   4.903  2.9809 -1.1943  0.3391
  189SAPI  H19S21770   2.350   6.762   5.004  0.1659 -0.0497 -1.1803
  189SAPI  C22021771   2.143   6.794   5.031 -0.1639  0.0164 -0.6216
  189SAPI  H20R21772   2.123   6.877   4.960 -0.3852  2.0557  1.7071
  189SAPI  H20S21773   2.166   6.847   5.126  0.6395 -0.1198 -0.7254
  189SAPI  H20T21774   2.057   6.725   5.035  1.9012 -2.9667 -2.9502
  189SAPI   C3321775   2.101   5.727   6.212 -0.2808 -0.1257 -0.0893
  189SAPI   H3X21776   2.076   5.833   6.193 -0.3290  0.5657  3.2027
  189SAPI   H3Y21777   2.035   5.652   6.164  0.2036 -0.1851 -0.6658
  189SAPI   C3421778   2.243   5.687   6.160  0.5247 -0.2048  0.0944
  189SAPI   H4X21779   2.248   5.581   6.127  0.8472  0.4201 -2.0656
  189SAPI   H4Y21780   2.317   5.710   6.239 -0.0366 -2.5350  1.3938
  189SAPI   C3521781   2.273   5.787   6.042 -0.0043 -0.0115  0.1840
  189SAPI   H5X21782   2.382   5.796   6.023 -0.2051  1.2449 -0.4549
  189SAPI   H5Y21783   2.250   5.890   6.076 -4.1191 -0.6945 -0.0346
  189SAPI   C3621784   2.212   5.768   5.901  0.2974  0.1603 -0.8491
  189SAPI   H6X21785   2.102   5.765   5.917  0.6053  1.2025  1.8934
  189SAPI   H6Y21786   2.245   5.673   5.854  1.1455  0.2494 -0.4449
  189SAPI   C3721787   2.240   5.878   5.803  0.3470  0.2071  0.0230
  189SAPI   H7X21788   2.344   5.916   5.816  0.1625  0.4167  0.9688
  189SAPI   H7Y21789   2.176   5.960   5.842 -1.2654 -0.6955 -0.6174
  189SAPI   C3821790   2.184   5.845   5.666 -0.8983  0.4796 -0.6239
  189SAPI   H8X21791   2.088   5.789   5.675 -0.2732 -0.2659  4.2717
  189SAPI   H8Y21792   2.260   5.773   5.628 -0.7881  0.4987 -0.4353
  189SAPI   C3921793   2.181   5.959   5.559  0.3537 -0.3208 -0.1229
  189SAPI   H9X21794   2.291   5.971   5.543  0.7132 -1.8913  0.9693
  189SAPI   H9Y21795   2.126   6.049   5.593 -1.4989 -1.0108 -1.1484
  189SAPI  C31021796   2.116   5.904   5.431 -0.4205  0.0961 -0.0924
  189SAPI  H10X21797   2.007   5.912   5.448 -0.2882  1.9692  0.0618
  189SAPI  H10Y21798   2.150   5.804   5.397 -0.0674 -1.0128  3.2264
  189SAPI  C31121799   2.142   5.994   5.305 -0.0790  0.2575 -0.0551
  189SAPI  H11X21800   2.252   6.014   5.306 -0.4305  2.9951  3.3428
  189SAPI  H11Y21801   2.084   6.087   5.325  1.5224  1.1720  0.5709
  189SAPI  C31221802   2.090   5.931   5.181  0.2391  0.2740  0.3034
  189SAPI  H12X21803   2.001   5.865   5.190  0.7953 -0.3605  1.3853
  189SAPI  H12Y21804   2.170   5.867   5.139 -0.7547  0.2320 -1.6426
  189SAPI  C31321805   2.058   6.039   5.072  0.3136  0.5645 -0.0436
  189SAPI  H13X21806   2.156   6.086   5.050  1.3667 -0.1069  2.8285
  189SAPI  H13Y21807   1.994   6.115   5.120 -0.6509  0.9795 -1.8810
  189SAPI  C31421808   1.980   5.993   4.946 -0.0384  0.1210 -0.0011
  189SAPI  H14X21809   1.902   5.922   4.980 -2.3210  2.0835 -0.7630
  189SAPI  H14Y21810   2.044   5.922   4.891 -2.8959 -1.8775 -1.0054
  189SAPI  C31521811   1.921   6.113   4.869 -0.3899  0.6874  0.1590
  189SAPI  H15X21812   1.868   6.170   4.949 -0.0595  2.0102 -0.5341
  189SAPI  H15Y21813   1.855   6.095   4.781 -0.0884  1.1930 -0.1758
  189SAPI  C31621814   2.032   6.200   4.796 -0.4386 -0.0113  0.4666
  189SAPI  H16X21815   2.091   6.134   4.729  0.2374  1.3663 -0.3571
  189SAPI  H16Y21816   2.104   6.244   4.868  1.5426  0.4788 -1.6749
  189SAPI  C31721817   1.986   6.323   4.713 -0.0084 -0.3395  0.2973
  189SAPI  H17X21818   1.925   6.381   4.785 -0.0354  1.7021 -1.2961
  189SAPI  H17Y21819   1.914   6.291   4.635  1.8314 -1.3800 -1.0811
  189SAPI  C31821820   2.098   6.415   4.654  0.2714 -0.1790 -0.0574
  189SAPI  H18X21821   2.061   6.517   4.628 -1.1530  0.0099  2.4256
  189SAPI  H18Y21822   2.154   6.376   4.566 -0.8557  0.9708 -1.3495
  189SAPI  H18Z21823   2.171   6.441   4.733  0.5566 -1.4441  0.1162
  190SAPI   C1221824   1.916   2.882   6.693 -0.0144 -0.2246 -0.0467
  190SAPI    H221825   2.011   2.907   6.643  1.0547  0.4171  2.1532
  190SAPI    O221826   1.813   2.947   6.616 -0.2862 -0.0911  0.1040
  190SAPI   HO221827   1.819   3.042   6.622  0.5716  0.1629 -3.0982
  190SAPI   C1321828   1.897   2.736   6.699 -0.5598  0.8641  0.0132
  190SAPI    H321829   1.973   2.692   6.767 -1.8791 -0.0218  0.9860
  190SAPI    O321830   1.909   2.665   6.573  0.3078 -0.0577  0.0867
  190SAPI   HO321831   1.836   2.690   6.516 -0.2195  0.3970  0.9550
  190SAPI   C1421832   1.766   2.700   6.773 -0.5967  0.8201 -0.6638
  190SAPI    H421833   1.683   2.731   6.706  0.3930  0.8766 -1.9144
  190SAPI    O421834   1.750   2.554   6.793 -0.2358  0.3766 -0.0201
  190SAPI   HO421835   1.714   2.506   6.718  1.4234  1.5926 -1.6709
  190SAPI   C1521836   1.733   2.790   6.899  0.2298  0.2149  0.5433
  190SAPI    H521837   1.768   2.737   6.991 -2.2033 -1.1474  0.7510
  190SAPI    O521838   1.595   2.794   6.918  0.1677 -0.6050 -0.3823
  190SAPI   HO521839   1.561   2.710   6.951 -1.4456 -0.0607 -0.5688
  190SAPI   C1621840   1.796   2.929   6.901  0.6180 -0.2570  0.6241
  190SAPI    H621841   1.721   2.995   6.852  0.1823 -1.8823 -0.9970
  190SAPI    O621842   1.801   2.981   7.033 -0.0393 -0.1619  0.2700
  190SAPI   HO621843   1.859   3.055   7.013 -2.0194  1.4849  0.3211
  190SAPI   C1121844   1.935   2.935   6.834  0.3038 -0.0813  0.6145
  190SAPI    H121845   2.014   2.875   6.885  0.0907 -0.3142  0.6704
  190SAPI     P21846   2.121   3.125   6.885 -0.0545 -0.1980  0.3034
  190SAPI   O1321847   2.134   3.056   7.013 -0.2558  0.2976  0.1569
  190SAPI   O1421848   2.118   3.268   6.876  0.4614 -0.6101  0.3782
  190SAPI   O1221849   1.980   3.074   6.824  0.5701 -0.2076  0.0311
  190SAPI   O1121850   2.236   3.072   6.785  0.5920  0.5721  0.2499
  190SAPI    C121851   2.260   3.151   6.667  0.1601  0.7561  0.0646
  190SAPI    HA21852   2.164   3.174   6.616 -0.1747 -0.5105  0.0785
  190SAPI    HB21853   2.329   3.235   6.686  1.8487  0.0404 -2.3157
  190SAPI    C221854   2.334   3.063   6.563  0.4559  0.3040 -0.4580
  190SAPI    HS21855   2.333   3.126   6.471 -0.3099  0.2296 -0.5025
  190SAPI   O2121856   2.257   2.940   6.543 -0.1095 -0.3437 -0.5966
  190SAPI   C2121857   2.264   2.893   6.420  0.0639  0.0152 -0.4942
  190SAPI   O2221858   2.329   2.943   6.330  0.4721 -0.7048 -0.3184
  190SAPI   C2221859   2.168   2.778   6.392  0.0747 -0.0913  0.4695
  190SAPI   H2R21860   2.148   2.723   6.486 -0.8220 -0.1549  0.2515
  190SAPI   H2S21861   2.066   2.815   6.369  0.2704 -0.1613 -0.5831
  190SAPI    C321862   2.479   3.033   6.613  0.4029  0.1242 -0.3893
  190SAPI    HX21863   2.460   3.001   6.717 -1.5354 -1.4470 -1.1813
  190SAPI    HY21864   2.543   3.124   6.621 -0.0718  0.3219  2.0050
  190SAPI   O3121865   2.547   2.918   6.547  0.2798 -0.4170 -0.1106
  190SAPI   C3121866   2.616   2.953   6.438 -0.3215 -0.3653  0.1347
  190SAPI   O3221867   2.628   3.071   6.401  0.0315 -0.6833 -0.0290
  190SAPI   C3221868   2.667   2.827   6.369  0.4005  0.0849 -0.3279
  190SAPI   H2X21869   2.596   2.743   6.379  1.2726 -0.4544  2.2137
  190SAPI   H2Y21870   2.755   2.797   6.430  0.0533  0.6283  0.4621
  190SAPI   C2321871   2.231   2.680   6.285 -0.1322 -0.2900 -0.7665
  190SAPI   H3R21872   2.204   2.584   6.332 -1.2658 -0.7786 -2.3262
  190SAPI   H3S21873   2.341   2.692   6.276  0.0302  0.6575  1.7737
  190SAPI   C2421874   2.157   2.682   6.150  0.1690 -0.0087  0.1161
  190SAPI   H4R21875   2.049   2.683   6.179 -0.7073  0.2773 -2.8032
  190SAPI   H4S21876   2.178   2.590   6.091 -1.3879  0.3749 -1.0970
  190SAPI   C2521877   2.198   2.794   6.061 -0.1257 -0.4766 -0.2618
  190SAPI   H5R21878   2.243   2.879   6.114  0.6975 -3.0771  3.6621
  190SAPI   C2621879   2.191   2.793   5.924 -0.1578  0.0664  0.2107
  190SAPI   H6R21880   2.223   2.883   5.869  0.8266  0.5763  1.5554
  190SAPI   C2721881   2.109   2.694   5.836  0.1852  0.1262  0.3064
  190SAPI   H7R21882   2.148   2.591   5.847  0.8648  0.1296 -1.7835
  190SAPI   H7S21883   2.131   2.720   5.731 -0.3488  0.4390  0.2724
  190SAPI   C2821884   1.962   2.708   5.853  0.6312  0.9458 -0.0546
  190SAPI   H8R21885   1.933   2.750   5.951 -1.0510 -0.2187 -0.0090
  190SAPI   C2921886   1.865   2.661   5.771 -0.4526  0.1377 -0.1513
  190SAPI   H9R21887   1.761   2.688   5.793 -0.7136 -1.0594  0.1626
  190SAPI  C21021888   1.907   2.585   5.641 -0.1442 -0.5629 -0.5885
  190SAPI  H10R21889   1.875   2.481   5.662  0.1491 -0.1981  1.9852
  190SAPI  H10S21890   2.017   2.569   5.635 -0.0934 -0.2135 -0.6296
  190SAPI  C21121891   1.860   2.639   5.510 -0.0674 -0.4434  0.7697
  190SAPI  H11R21892   1.786   2.719   5.518 -0.6691 -0.9656  0.5526
  190SAPI  C21221893   1.883   2.572   5.395  0.5466 -0.3472 -0.8291
  190SAPI  H12R21894   1.839   2.608   5.301  0.6345 -0.5794 -0.9614
  190SAPI  C21321895   1.951   2.440   5.385 -0.0800  0.5776 -0.2706
  190SAPI  H13R21896   2.011   2.425   5.477 -0.7826  1.2142  0.2972
  190SAPI  H13S21897   2.016   2.434   5.295 -2.0207 -1.1462 -1.6575
  190SAPI  C21421898   1.849   2.321   5.378 -0.5603 -0.4627 -0.2873
  190SAPI  H14R21899   1.777   2.323   5.295  0.5091  2.7655 -1.3008
  190SAPI  C21521900   1.859   2.209   5.454  0.3322 -0.4971  0.3053
  190SAPI  H15R21901   1.774   2.139   5.442 -0.8995  0.8307  0.9704
  190SAPI  C21621902   1.944   2.186   5.576 -0.4236 -0.3363  0.0844
  190SAPI  H16R21903   1.979   2.280   5.623  2.4820 -0.3896 -1.7304
  190SAPI  H16S21904   2.034   2.129   5.546 -0.4710  0.3135 -1.4296
  190SAPI  C21721905   1.875   2.099   5.689  0.6813  0.0047 -0.6816
  190SAPI  H17R21906   1.862   1.994   5.656 -1.9447  0.1765 -0.3985
  190SAPI  H17S21907   1.776   2.143   5.713  0.4592 -1.1747  0.6881
  190SAPI  C21821908   1.955   2.098   5.813 -0.1343 -0.5465 -0.0291
  190SAPI  H18R21909   1.907   2.050   5.901 -0.1404 -3.1114 -1.3434
  190SAPI  H18S21910   1.972   2.205   5.836  1.5631 -0.8995  0.5274
  190SAPI  C21921911   2.103   2.029   5.795 -0.4413 -0.7408  0.0499
  190SAPI  H19R21912   2.157   2.052   5.890 -1.2459  1.9743 -0.0759
  190SAPI  H19S21913   2.165   2.062   5.709  0.9270 -2.3971  0.3381
  190SAPI  C22021914   2.097   1.874   5.793  0.5708 -0.3010 -0.1675
  190SAPI  H20R21915   2.031   1.841   5.876 -0.0086 -1.9479 -1.2111
  190SAPI  H20S21916   2.193   1.821   5.812 -0.2102 -1.6820  0.1153
  190SAPI  H20T21917   2.045   1.838   5.701 -2.1699  0.7147  0.8597
  190SAPI   C3321918   2.712   2.847   6.224  0.0657  0.3810  1.0889
  190SAPI   H3X21919   2.737   2.744   6.191 -1.7265  0.4858 -0.7879
  190SAPI   H3Y21920   2.806   2.907   6.228  1.0886 -1.0904  0.1226
  190SAPI   C3421921   2.608   2.906   6.133 -0.4190 -0.2075  0.0923
  190SAPI   H4X21922   2.598   3.014   6.160 -1.0144  0.2221 -1.7012
  190SAPI   H4Y21923   2.509   2.857   6.142 -0.0690 -1.5292 -2.3996
  190SAPI   C3521924   2.649   2.906   5.985  0.6696  0.8033  0.0679
  190SAPI   H5X21925   2.740   2.970   5.986  0.5803  0.9253  0.3956
  190SAPI   H5Y21926   2.566   2.963   5.937  1.1177 -0.7572 -2.7601
  190SAPI   C3621927   2.649   2.762   5.922  0.0216  0.2590 -0.8723
  190SAPI   H6X21928   2.552   2.719   5.956 -0.4798  0.3458 -2.1435
  190SAPI   H6Y21929   2.729   2.701   5.970 -1.0070  1.8650  3.3151
  190SAPI   C3721930   2.655   2.781   5.770  0.2378  0.2414 -0.0357
  190SAPI   H7X21931   2.765   2.777   5.754  0.4202 -0.6328  1.3125
  190SAPI   H7Y21932   2.613   2.881   5.745  1.2964  0.8662  0.6274
  190SAPI   C3821933   2.592   2.663   5.690 -0.0875 -0.2126 -0.2796
  190SAPI   H8X21934   2.599   2.578   5.761 -0.7205  0.8693  1.1203
  190SAPI   H8Y21935   2.645   2.641   5.594 -0.4971 -1.5356 -0.2192
  190SAPI   C3921936   2.442   2.690   5.657  0.5007  0.2853  0.3053
  190SAPI   H9X21937   2.389   2.740   5.741  1.2484  1.8043 -0.0814
  190SAPI   H9Y21938   2.391   2.597   5.624 -1.0063  1.0370  0.4367
  190SAPI  C31021939   2.425   2.780   5.536 -0.5252 -0.6849  0.4630
  190SAPI  H10X21940   2.491   2.726   5.465 -1.0762 -2.7247  1.4286
  190SAPI  H10Y21941   2.461   2.881   5.566 -0.1334 -1.2781  2.1631
  190SAPI  C31121942   2.290   2.776   5.482 -0.1808 -0.1910 -0.1375
  190SAPI  H11X21943   2.223   2.842   5.541 -0.3522  1.6573 -2.2675
  190SAPI  H11Y21944   2.241   2.677   5.494 -1.4305  0.4846  0.4573
  190SAPI  C31221945   2.271   2.824   5.342 -0.1206 -0.2003  0.0645
  190SAPI  H12X21946   2.326   2.755   5.275 -2.0450 -1.3720 -0.3677
  190SAPI  H12Y21947   2.321   2.921   5.320 -0.0499 -0.3742 -0.5537
  190SAPI  C31321948   2.124   2.839   5.294 -0.3517 -0.9594  0.0336
  190SAPI  H13X21949   2.087   2.939   5.327  4.3893  0.2060  2.7124
  190SAPI  H13Y21950   2.061   2.761   5.342 -1.8739 -0.1167 -0.5168
  190SAPI  C31421951   2.094   2.833   5.146  0.0933  0.0519 -0.1803
  190SAPI  H14X21952   2.147   2.924   5.111 -0.6078  0.3835 -0.3935
  190SAPI  H14Y21953   1.984   2.846   5.135  0.2607  1.3431 -0.3950
  190SAPI  C31521954   2.138   2.707   5.078 -0.1868  0.6930  0.5456
  190SAPI  H15X21955   2.085   2.622   5.124  1.5348 -2.0088 -2.1287
  190SAPI  H15Y21956   2.249   2.701   5.078 -0.2134  0.2049 -0.0850
  190SAPI  C31621957   2.103   2.702   4.928 -0.0357 -0.4384 -0.0683
  190SAPI  H16X21958   2.160   2.618   4.882 -0.5985 -0.9871  0.2142
  190SAPI  H16Y21959   2.145   2.794   4.884 -0.7389 -0.2596 -0.3675
  190SAPI  C31721960   1.953   2.696   4.901  0.2021  0.7506  0.5767
  190SAPI  H17X21961   1.901   2.787   4.935 -0.5576 -0.0132  1.5147
  190SAPI  H17Y21962   1.912   2.606   4.953  0.6018 -1.3221 -2.4179
  190SAPI  C31821963   1.923   2.675   4.752 -0.1179 -0.1321 -0.9918
  190SAPI  H18X21964   1.973   2.757   4.695 -0.2648  0.6931  0.0319
  190SAPI  H18Y21965   1.814   2.694   4.749  0.3045  2.9958  0.0848
  190SAPI  H18Z21966   1.952   2.574   4.716  0.9799  0.0894 -0.7587
  191SAPI   C1221967   4.305   5.317   2.231 -0.0669  0.8613  0.3853
  191SAPI    H221968   4.341   5.309   2.336 -1.3352  0.4310  0.8125
  191SAPI    O221969   4.422   5.340   2.147 -0.1424  0.2169 -0.3062
  191SAPI   HO221970   4.431   5.436   2.153 -0.9322  0.3752 -1.2170
  191SAPI   C1321971   4.236   5.188   2.192  0.1330 -0.0662  0.7518
  191SAPI    H321972   4.147   5.183   2.258 -0.6169 -0.6308 -0.2530
  191SAPI    O321973   4.314   5.071   2.224  0.4379  0.0399  0.2391
  191SAPI   HO321974   4.263   4.990   2.227  1.3130 -0.5294  0.1362
  191SAPI   C1421975   4.188   5.187   2.043 -0.2197 -0.8530 -0.5397
  191SAPI    H421976   4.280   5.177   1.982  0.7508  0.3679  0.6541
  191SAPI    O421977   4.094   5.081   2.017 -0.1883 -0.5975 -0.4422
  191SAPI   HO421978   4.015   5.108   1.969  0.3193 -0.2845 -1.1263
  191SAPI   C1521979   4.142   5.331   2.003 -0.4083 -0.2201 -0.0448
  191SAPI    H521980   4.033   5.321   2.025 -0.4619 -0.4347 -0.3917
  191SAPI    O521981   4.146   5.348   1.859 -0.4181  0.0952  0.0687
  191SAPI   HO521982   4.061   5.330   1.818 -0.2824  1.2935 -0.7888
  191SAPI   C1621983   4.171   5.452   2.082  0.1776 -1.2126  0.5331
  191SAPI    H621984   4.253   5.500   2.025 -0.4473 -2.2124 -1.2766
  191SAPI    O621985   4.063   5.553   2.078 -0.4770  0.3191  0.2504
  191SAPI   HO621986   3.994   5.515   2.133  0.9176 -2.6864  0.1384
  191SAPI   C1121987   4.218   5.434   2.221 -0.4504 -0.6878 -0.4533
  191SAPI    H121988   4.129   5.417   2.285 -0.6500 -2.1869 -1.1039
  191SAPI     P21989   4.247   5.630   2.402 -0.2730 -0.0582  0.3084
  191SAPI   O1321990   4.104   5.618   2.425 -0.3449  0.7050 -0.0338
  191SAPI   O1421991   4.314   5.759   2.400 -0.0140 -0.5615 -0.4399
  191SAPI   O1221992   4.292   5.550   2.270 -0.6107  0.3834  0.1616
  191SAPI   O1121993   4.319   5.536   2.510 -0.3804 -0.5946  0.3401
  191SAPI    C121994   4.465   5.533   2.531 -0.3949 -0.1818 -0.0398
  191SAPI    HA21995   4.515   5.492   2.441 -0.2041  0.9685 -0.4630
  191SAPI    HB21996   4.497   5.638   2.548 -1.1949  0.0722 -0.0724
  191SAPI    C221997   4.516   5.448   2.658  0.1479 -0.9397 -0.8252
  191SAPI    HS21998   4.627   5.449   2.659  0.1406 -0.1097 -0.2866
  191SAPI   O2121999   4.477   5.305   2.656 -0.0851 -0.4017 -0.0636
  191SAPI   C2122000   4.532   5.240   2.551 -0.2855  0.1648 -0.5239
  191SAPI   O2222001   4.621   5.283   2.479 -0.8074 -0.2059 -0.2202
  191SAPI   C2222002   4.479   5.102   2.546  0.8339  0.2959  0.4949
  191SAPI   H2R22003   4.432   5.077   2.644 -3.5075  0.7993 -1.1931
  191SAPI   H2S22004   4.399   5.119   2.470  0.4865  3.1685  1.3591
  191SAPI    C322005   4.469   5.494   2.798 -0.8914 -0.5546  0.0094
  191SAPI    HX22006   4.358   5.495   2.808 -0.9451  1.1084 -0.4739
  191SAPI    HY22007   4.510   5.597   2.803 -1.9968 -0.0713 -0.5090
  191SAPI   O3122008   4.527   5.427   2.912  0.2162  0.0750 -0.7559
  191SAPI   C3122009   4.657   5.441   2.931 -0.3214 -0.0494 -0.5997
  191SAPI   O3222010   4.732   5.509   2.861  0.2337 -0.2437 -0.1147
  191SAPI   C3222011   4.683   5.377   3.064 -0.7129 -0.3322 -0.2025
  191SAPI   H2X22012   4.756   5.294   3.052  0.1604  0.7287 -3.1882
  191SAPI   H2Y22013   4.593   5.327   3.107 -0.9373  1.0556  1.0343
  191SAPI   C2322014   4.566   4.996   2.485  0.0083 -0.5379  0.4667
  191SAPI   H3R22015   4.629   5.032   2.401 -1.5470 -0.5727 -0.7683
  191SAPI   H3S22016   4.511   4.910   2.440 -2.9148  1.4041  0.1088
  191SAPI   C2422017   4.657   4.943   2.602  0.0687  0.6858 -0.6327
  191SAPI   H4R22018   4.709   5.027   2.652 -0.1863 -0.1154  1.0350
  191SAPI   H4S22019   4.716   4.867   2.546 -0.9317 -0.5694 -0.0177
  191SAPI   C2522020   4.580   4.857   2.702  0.0377  0.1586 -0.9933
  191SAPI   H5R22021   4.529   4.768   2.662 -0.8065  0.2772 -0.2208
  191SAPI   C2622022   4.579   4.879   2.834 -0.9924  0.3784 -0.1702
  191SAPI   H6R22023   4.513   4.816   2.895 -0.5013 -0.3908 -0.4286
  191SAPI   C2722024   4.634   4.996   2.916  0.0963 -0.1449  0.1810
  191SAPI   H7R22025   4.580   4.999   3.013 -0.6438  0.8992 -0.2485
  191SAPI   H7S22026   4.598   5.088   2.864 -0.5308  0.5989  1.8572
  191SAPI   C2822027   4.785   4.985   2.943  0.2310 -0.0963 -0.5052
  191SAPI   H8R22028   4.848   5.002   2.855  1.2244 -0.3392  0.1510
  191SAPI   C2922029   4.834   4.949   3.060 -0.2662  1.0516 -0.7931
  191SAPI   H9R22030   4.944   4.946   3.067 -0.0368  0.9910 -3.4151
  191SAPI  C21022031   4.754   4.907   3.185 -0.3902  0.3738 -0.2710
  191SAPI  H10R22032   4.807   4.830   3.244 -0.4592  2.1248  2.2506
  191SAPI  H10S22033   4.670   4.855   3.136  0.1593 -0.1264 -0.7016
  191SAPI  C21122034   4.716   5.017   3.278  0.8292 -0.5475 -0.3046
  191SAPI  H11R22035   4.730   5.115   3.231 -0.5898 -0.0443  0.2640
  191SAPI  C21222036   4.694   5.000   3.408  0.4386 -0.3969 -0.1265
  191SAPI  H12R22037   4.667   5.086   3.471 -1.3182  0.5837 -2.0906
  191SAPI  C21322038   4.688   4.858   3.472  1.4372  0.2604 -0.5448
  191SAPI  H13R22039   4.791   4.824   3.494  0.8350 -2.4825 -1.6217
  191SAPI  H13S22040   4.647   4.786   3.399  1.2206  1.1249 -1.3054
  191SAPI  C21422041   4.599   4.870   3.598 -0.4689  0.0590  0.9414
  191SAPI  H14R22042   4.491   4.851   3.590 -0.1517 -1.7632  0.7071
  191SAPI  C21522043   4.650   4.894   3.719  0.5550 -0.3644 -0.0648
  191SAPI  H15R22044   4.582   4.890   3.805  0.8795 -0.5437  0.1858
  191SAPI  C21622045   4.795   4.908   3.750  0.9905 -0.0992  0.3730
  191SAPI  H16R22046   4.856   4.928   3.659 -0.6835 -1.3834 -1.0913
  191SAPI  H16S22047   4.835   4.817   3.801  1.0683 -0.3884 -0.1990
  191SAPI  C21722048   4.828   5.016   3.848  0.1184  0.6717  0.6996
  191SAPI  H17R22049   4.822   5.115   3.797 -0.2251  0.4204  0.2531
  191SAPI  H17S22050   4.934   5.011   3.882 -0.8512  1.9330  4.4698
  191SAPI  C21822051   4.762   5.014   3.990 -0.4705  0.3151  0.0587
  191SAPI  H18R22052   4.766   4.911   4.033 -0.2757 -0.3675 -1.5123
  191SAPI  H18S22053   4.656   5.043   3.979 -0.9031 -0.0515  2.6461
  191SAPI  C21922054   4.829   5.103   4.104  0.4197  0.1285  0.2887
  191SAPI  H19R22055   4.821   5.206   4.061  1.2877  0.1675  0.1985
  191SAPI  H19S22056   4.938   5.082   4.107  1.0743  2.7882 -0.9695
  191SAPI  C22022057   4.769   5.083   4.246  0.7838  0.0621 -0.9004
  191SAPI  H20R22058   4.774   5.172   4.312 -1.4197  0.7155 -1.5263
  191SAPI  H20S22059   4.828   5.000   4.291  0.6096  1.4199  2.0319
  191SAPI  H20T22060   4.664   5.051   4.230  1.3652 -1.6701 -1.5544
  191SAPI   C3322061   4.737   5.490   3.169  0.2341 -0.2850 -0.3924
  191SAPI   H3X22062   4.651   5.561   3.162  0.8082  0.4279 -0.3665
  191SAPI   H3Y22063   4.825   5.544   3.128  0.8504 -0.3033  0.8620
  191SAPI   C3422064   4.769   5.438   3.307  0.0634 -1.0544  0.4272
  191SAPI   H4X22065   4.833   5.513   3.358 -0.3568 -0.6484  0.3677
  191SAPI   H4Y22066   4.844   5.359   3.289  2.5468  1.6252 -2.0423
  191SAPI   C3522067   4.646   5.389   3.380  0.2560 -0.2005 -0.4365
  191SAPI   H5X22068   4.606   5.296   3.334  0.4887 -0.9096  0.7544
  191SAPI   H5Y22069   4.556   5.453   3.381  0.3712 -0.0312 -0.6897
  191SAPI   C3622070   4.670   5.355   3.527 -0.0161  0.1461 -0.1183
  191SAPI   H6X22071   4.713   5.444   3.577 -0.0965  0.1509 -0.0579
  191SAPI   H6Y22072   4.733   5.263   3.532 -0.0460  0.0336 -1.4379
  191SAPI   C3722073   4.542   5.329   3.612 -1.1781  0.0267 -0.1769
  191SAPI   H7X22074   4.498   5.228   3.591  0.4803 -0.5964 -0.8121
  191SAPI   H7Y22075   4.472   5.413   3.593  0.3125  1.5377  0.7736
  191SAPI   C3822076   4.581   5.311   3.766  0.0198  0.9220 -0.1005
  191SAPI   H8X22077   4.679   5.259   3.764 -1.1637 -1.4338 -0.5462
  191SAPI   H8Y22078   4.509   5.244   3.818  0.2280  0.7357 -0.0534
  191SAPI   C3922079   4.575   5.441   3.840  0.5612  0.8472  0.2882
  191SAPI   H9X22080   4.477   5.485   3.813 -0.9328 -1.4254  1.7050
  191SAPI   H9Y22081   4.655   5.511   3.807 -0.5439  1.4241 -1.2742
  191SAPI  C31022082   4.574   5.420   3.993 -0.4838  0.1536  0.5299
  191SAPI  H10X22083   4.677   5.386   4.014 -0.9640 -3.0008 -1.6009
  191SAPI  H10Y22084   4.496   5.342   3.999 -0.0394 -0.3479 -0.1556
  191SAPI  C31122085   4.560   5.543   4.081 -0.2656 -0.1661 -0.2921
  191SAPI  H11X22086   4.463   5.587   4.048 -0.5757  0.2396  1.1112
  191SAPI  H11Y22087   4.641   5.616   4.062 -0.5039 -0.1111 -1.1746
  191SAPI  C31222088   4.567   5.513   4.232 -0.1503 -0.0734 -0.5519
  191SAPI  H12X22089   4.555   5.611   4.282 -1.4559 -0.0650 -0.8470
  191SAPI  H12Y22090   4.667   5.478   4.263  0.0066  0.7539 -0.0987
  191SAPI  C31322091   4.472   5.403   4.284 -0.4326  0.1576 -0.0817
  191SAPI  H13X22092   4.520   5.304   4.264  1.7822 -0.1362  4.9693
  191SAPI  H13Y22093   4.372   5.405   4.236 -0.0285 -0.7104 -1.0125
  191SAPI  C31422094   4.455   5.426   4.436  0.3450  0.2895 -0.3057
  191SAPI  H14X22095   4.384   5.512   4.438 -1.1469 -0.9115  0.9634
  191SAPI  H14Y22096   4.545   5.441   4.498  1.2830 -2.2440 -0.9269
  191SAPI  C31522097   4.386   5.310   4.507  0.2750  0.6663  0.5072
  191SAPI  H15X22098   4.288   5.289   4.457  2.2651 -1.0596 -3.0876
  191SAPI  H15Y22099   4.365   5.336   4.613 -2.8169 -0.5607  0.3016
  191SAPI  C31622100   4.459   5.173   4.491 -0.4152  0.0092 -0.1443
  191SAPI  H16X22101   4.565   5.174   4.525 -0.3968 -0.7515 -0.1783
  191SAPI  H16Y22102   4.457   5.144   4.384  1.4728  0.5844 -0.3846
  191SAPI  C31722103   4.384   5.064   4.570 -0.0282 -0.1883  0.0281
  191SAPI  H17X22104   4.278   5.057   4.538 -0.3039  2.8544 -0.0362
  191SAPI  H17Y22105   4.373   5.096   4.675 -2.0718  0.7775 -0.4333
  191SAPI  C31822106   4.462   4.932   4.569  0.0207 -0.5122 -0.1067
  191SAPI  H18X22107   4.458   4.892   4.465 -1.0013  0.7731 -0.6031
  191SAPI  H18Y22108   4.415   4.861   4.640 -1.7143  0.0411 -0.6472
  191SAPI  H18Z22109   4.568   4.953   4.594  0.7491 -3.6464 -0.1710
  192SAPI   C1222110   0.745   5.115   2.604 -0.1305 -0.1326  0.7824
  192SAPI    H222111   0.714   5.222   2.614  0.7462  0.2148 -0.1196
  192SAPI    O222112   0.638   5.041   2.662  0.1426  0.0594 -0.1841
  192SAPI   HO222113   0.601   5.096   2.731 -0.1208 -2.1891  1.5796
  192SAPI   C1322114   0.753   5.119   2.453 -0.0724  0.1245 -0.1276
  192SAPI    H322115   0.848   5.171   2.425  0.5738 -0.2632  1.2383
  192SAPI    O322116   0.636   5.178   2.397  0.6201  0.0148 -0.2881
  192SAPI   HO322117   0.556   5.146   2.439  0.2644 -0.2513 -1.1439
  192SAPI   C1422118   0.780   4.973   2.407 -0.7093 -0.3763 -0.0612
  192SAPI    H422119   0.687   4.918   2.433  0.5881 -0.9028  4.3656
  192SAPI    O422120   0.808   4.964   2.267  0.8898 -0.2936  0.8005
  192SAPI   HO422121   0.768   4.885   2.229 -1.4510  1.2007 -0.0945
  192SAPI   C1522122   0.883   4.906   2.492  0.1510  0.0622 -0.2088
  192SAPI    H522123   0.977   4.927   2.437 -0.1467  3.0257  0.2209
  192SAPI    O522124   0.866   4.764   2.485  0.6898 -0.0486 -0.3357
  192SAPI   HO522125   0.955   4.727   2.486  0.2250 -1.2476  1.2549
  192SAPI   C1622126   0.908   4.947   2.640  0.2097 -0.1456  0.5149
  192SAPI    H622127   0.837   4.886   2.700 -0.9767  1.1108  0.4318
  192SAPI    O622128   1.040   4.912   2.681 -0.5341 -0.3320 -0.0113
  192SAPI   HO622129   1.058   4.975   2.751  1.7315  1.4116 -1.9884
  192SAPI   C1122130   0.882   5.088   2.669 -0.0585 -0.4499  0.7248
  192SAPI    H122131   0.955   5.154   2.619  0.0716  1.9246  3.7681
  192SAPI     P22132   0.907   5.267   2.865  0.3725  0.0777 -0.2758
  192SAPI   O1322133   0.832   5.285   2.993 -0.0855 -0.3446  0.7149
  192SAPI   O1422134   0.865   5.365   2.761  0.3368  0.2321 -0.0127
  192SAPI   O1222135   0.889   5.116   2.810  0.0972  0.2466 -0.0688
  192SAPI   O1122136   1.066   5.279   2.888  0.0310 -0.0489  0.0547
  192SAPI    C122137   1.116   5.229   3.013 -0.0869 -0.2387  0.4652
  192SAPI    HA22138   1.045   5.220   3.098 -0.4771 -0.7028  0.1007
  192SAPI    HB22139   1.154   5.125   3.000  1.8099  0.2554  1.7554
  192SAPI    C222140   1.235   5.313   3.054 -0.8104 -0.4610  0.2737
  192SAPI    HS22141   1.305   5.318   2.967  1.8210 -3.5481  2.0000
  192SAPI   O2122142   1.303   5.249   3.161 -0.3251  0.5001 -0.1908
  192SAPI   C2122143   1.438   5.240   3.154 -1.0645 -0.5856 -0.2146
  192SAPI   O2222144   1.513   5.276   3.063  0.1394 -0.0589 -1.0835
  192SAPI   C2222145   1.494   5.204   3.296 -0.2357 -1.0783  0.4357
  192SAPI   H2R22146   1.414   5.142   3.342 -1.6450 -2.3880 -3.3994
  192SAPI   H2S22147   1.593   5.155   3.284  0.1432 -0.0529 -0.8492
  192SAPI    C322148   1.196   5.451   3.101  0.3615 -0.2804 -0.3660
  192SAPI    HX22149   1.128   5.432   3.187  0.1694 -0.2293 -0.5057
  192SAPI    HY22150   1.138   5.500   3.019  0.6613  0.8909  0.0985
  192SAPI   O3122151   1.309   5.532   3.141 -0.5514 -0.1702 -0.5187
  192SAPI   C3122152   1.374   5.593   3.045 -1.0161 -0.6817 -0.1956
  192SAPI   O3222153   1.357   5.584   2.923  0.0226  0.1938 -0.2446
  192SAPI   C3222154   1.474   5.690   3.105 -0.8257  0.2128 -0.6032
  192SAPI   H2X22155   1.481   5.776   3.034  2.3038 -0.0695 -0.7616
  192SAPI   H2Y22156   1.569   5.634   3.112 -1.6379 -1.0063  1.2316
  192SAPI   C2322157   1.529   5.335   3.374 -0.5168 -0.2132 -0.4693
  192SAPI   H3R22158   1.446   5.410   3.369  0.1140  0.4436 -1.4941
  192SAPI   H3S22159   1.620   5.384   3.334  0.2540 -0.1846  1.2409
  192SAPI   C2422160   1.561   5.309   3.522 -0.1713  1.3399 -0.8377
  192SAPI   H4R22161   1.596   5.403   3.568  2.3863  0.2145 -0.2936
  192SAPI   H4S22162   1.652   5.244   3.522 -0.4017  0.9841  0.5773
  192SAPI   C2522163   1.436   5.257   3.599 -0.9327 -0.3207  0.0712
  192SAPI   H5R22164   1.340   5.292   3.557 -0.2187  2.1935  0.3719
  192SAPI   C2622165   1.433   5.174   3.708 -0.0879  0.4191  0.0719
  192SAPI   H6R22166   1.333   5.168   3.753 -0.3211  1.9704 -0.1703
  192SAPI   C2722167   1.545   5.115   3.789  0.2054  0.3432  0.5616
  192SAPI   H7R22168   1.623   5.084   3.716 -0.4855 -0.2527  0.0729
  192SAPI   H7S22169   1.508   5.027   3.846 -0.4023  0.7540  0.8066
  192SAPI   C2822170   1.601   5.225   3.880  0.2186  0.3056 -0.9409
  192SAPI   H8R22171   1.672   5.301   3.845  0.3177  0.9646  0.6281
  192SAPI   C2922172   1.540   5.247   3.999 -0.1972 -0.7251  0.2467
  192SAPI   H9R22173   1.576   5.332   4.059  0.6370 -0.0275 -1.1976
  192SAPI  C21022174   1.426   5.157   4.057 -0.0475 -0.1808  0.2384
  192SAPI  H10R22175   1.463   5.052   4.067 -3.0966 -1.3709  0.1136
  192SAPI  H10S22176   1.336   5.157   3.992 -1.2838  2.0467  1.8218
  192SAPI  C21122177   1.362   5.208   4.183  0.9792 -0.1223 -0.1260
  192SAPI  H11R22178   1.332   5.312   4.163  1.6481 -0.3291 -2.5208
  192SAPI  C21222179   1.348   5.150   4.301 -0.2091  0.5899  0.1117
  192SAPI  H12R22180   1.290   5.206   4.376 -1.3790 -1.3653  0.7455
  192SAPI  C21322181   1.386   5.014   4.337  0.0070 -0.3097  0.3693
  192SAPI  H13R22182   1.438   5.015   4.435 -1.6458 -2.2342  1.3401
  192SAPI  H13S22183   1.472   4.981   4.274 -1.4057 -2.0280 -0.7527
  192SAPI  C21422184   1.273   4.918   4.332 -0.0418  0.2318 -0.0575
  192SAPI  H14R22185   1.185   4.956   4.276  0.1373 -0.9866 -1.2092
  192SAPI  C21522186   1.261   4.800   4.394  0.4053  0.2997  0.1708
  192SAPI  H15R22187   1.172   4.735   4.385 -1.0041  1.8930  1.8554
  192SAPI  C21622188   1.373   4.733   4.464 -0.4325  0.1549 -0.3808
  192SAPI  H16R22189   1.353   4.732   4.574  1.8656  0.2768  0.0821
  192SAPI  H16S22190   1.470   4.786   4.460 -0.4778  0.1698 -1.4697
  192SAPI  C21722191   1.387   4.592   4.408  0.7487  0.4655 -0.4902
  192SAPI  H17R22192   1.288   4.542   4.413  0.7070  0.5752 -0.2066
  192SAPI  H17S22193   1.454   4.525   4.467  1.8561  0.6676 -1.4791
  192SAPI  C21822194   1.440   4.590   4.268 -0.2623 -0.5089 -0.1095
  192SAPI  H18R22195   1.479   4.692   4.247 -2.1399  0.3172  0.1706
  192SAPI  H18S22196   1.368   4.578   4.184 -0.0381 -1.6991 -0.1438
  192SAPI  C21922197   1.554   4.486   4.241  1.1101  0.8654 -0.1312
  192SAPI  H19R22198   1.508   4.388   4.265  1.2189  1.3008  2.0935
  192SAPI  H19S22199   1.632   4.504   4.318  0.1070 -0.5469  1.2832
  192SAPI  C22022200   1.609   4.493   4.096 -0.1308 -0.1349 -0.2536
  192SAPI  H20R22201   1.692   4.421   4.077  1.6432  1.6177  0.4566
  192SAPI  H20S22202   1.653   4.595   4.086  2.0556 -0.9802  0.1768
  192SAPI  H20T22203   1.532   4.490   4.017 -0.6801 -1.3799  0.3111
  192SAPI   C3322204   1.464   5.732   3.258 -0.2739 -0.3491 -0.5404
  192SAPI   H3X22205   1.466   5.641   3.321 -0.6943 -0.4546 -0.6745
  192SAPI   H3Y22206   1.369   5.785   3.282 -1.2533 -2.7188  1.1192
  192SAPI   C3422207   1.576   5.827   3.304 -0.5807 -0.6522  0.3458
  192SAPI   H4X22208   1.571   5.912   3.233  3.1126 -2.6816 -2.7483
  192SAPI   H4Y22209   1.678   5.787   3.288  0.3183  1.2040  1.1694
  192SAPI   C3522210   1.552   5.880   3.446  0.2398  0.1048  0.1047
  192SAPI   H5X22211   1.583   5.802   3.518 -0.1975 -1.4306 -1.2976
  192SAPI   H5Y22212   1.447   5.910   3.466  0.2668 -0.7450  1.6364
  192SAPI   C3622213   1.637   6.004   3.476  0.5193 -0.5581 -0.0394
  192SAPI   H6X22214   1.618   6.037   3.581  2.5529 -1.0578  0.5396
  192SAPI   H6Y22215   1.608   6.085   3.406  1.4777  1.5205  1.8380
  192SAPI   C3722216   1.787   5.978   3.468 -0.4736 -0.7879  0.4467
  192SAPI   H7X22217   1.814   5.955   3.363  3.2478  1.2810  0.7732
  192SAPI   H7Y22218   1.822   5.888   3.522  0.2079  0.5504  2.3210
  192SAPI   C3822219   1.861   6.107   3.497  0.5303 -0.3874  0.0184
  192SAPI   H8X22220   1.818   6.179   3.570  3.5968  1.5304  0.0991
  192SAPI   H8Y22221   1.866   6.162   3.401  0.1503 -1.7313 -0.7972
  192SAPI   C3922222   1.995   6.086   3.569 -0.0150  0.3062  0.3062
  192SAPI   H9X22223   2.051   6.180   3.587 -0.4165  0.6022  0.0199
  192SAPI   H9Y22224   2.062   6.013   3.520  0.5390 -0.4993  2.1713
  192SAPI  C31022225   1.965   6.024   3.704 -0.2681  0.1320 -0.1906
  192SAPI  H10X22226   1.909   5.928   3.705  1.8833 -1.1925  0.7922
  192SAPI  H10Y22227   1.907   6.094   3.769 -2.1882 -1.1297 -0.4673
  192SAPI  C31122228   2.105   6.006   3.773  0.7220 -0.5055 -0.1602
  192SAPI  H11X22229   2.151   6.104   3.798 -0.2953 -0.2408  0.8129
  192SAPI  H11Y22230   2.168   5.952   3.699  1.4581 -1.4500  1.1064
  192SAPI  C31222231   2.111   5.919   3.905 -0.1804  0.2876 -0.0145
  192SAPI  H12X22232   2.060   5.823   3.882 -1.3892  0.6975  0.8363
  192SAPI  H12Y22233   2.053   5.968   3.986  1.0908  0.7962  0.6122
  192SAPI  C31322234   2.256   5.902   3.945  0.3917  0.1236 -0.4324
  192SAPI  H13X22235   2.290   6.005   3.965 -0.8760  0.7072 -1.1504
  192SAPI  H13Y22236   2.325   5.869   3.865  3.9603  1.0897  1.9788
  192SAPI  C31422237   2.273   5.825   4.076 -0.2487 -0.2239 -0.6693
  192SAPI  H14X22238   2.377   5.821   4.114 -0.2104  0.4220 -0.6963
  192SAPI  H14Y22239   2.233   5.722   4.064  1.2421 -0.9781  0.5839
  192SAPI  C31522240   2.196   5.902   4.195  0.1071  0.1733  0.1242
  192SAPI  H15X22241   2.090   5.881   4.170  0.1680 -0.7654  0.6167
  192SAPI  H15Y22242   2.209   6.012   4.182  2.6677  0.0225  0.7461
  192SAPI  C31622243   2.241   5.856   4.335 -0.0672  0.4788  0.0399
  192SAPI  H16X22244   2.336   5.906   4.362  0.7229 -0.9212 -0.0801
  192SAPI  H16Y22245   2.263   5.747   4.340 -0.0273  0.5344  2.7265
  192SAPI  C31722246   2.138   5.881   4.441  0.5116 -0.0475 -0.5966
  192SAPI  H17X22247   2.062   5.802   4.424 -0.3243  0.8984 -1.3409
  192SAPI  H17Y22248   2.081   5.975   4.426 -0.3155 -0.3967  0.1892
  192SAPI  C31822249   2.191   5.871   4.586  0.1978 -0.0136 -0.5558
  192SAPI  H18X22250   2.292   5.916   4.595  0.2146 -0.1885  0.1830
  192SAPI  H18Y22251   2.190   5.769   4.630  0.3850  0.3955  0.4263
  192SAPI  H18Z22252   2.128   5.939   4.647 -0.2513 -1.5476  0.7795
  193SOD    SOD22253   5.153   1.357   1.509 -0.3378 -0.1177  0.3794
  194SOD    SOD22254   3.103   4.598   7.596  0.1864 -0.7297  0.0288
  195SOD    SOD22255   5.751   0.819   1.564 -0.0617 -0.1790  0.3704
  196SOD    SOD22256   3.108   5.618   7.204  0.0340  0.0099  0.6269
  197SOD    SOD22257   5.049   5.929   8.224 -0.4396 -0.2991 -0.1762
  198SOD    SOD22258   1.339   3.203   6.280  0.3427  0.1935  0.2088
  199SOD    SOD22259   0.436   6.175   2.004 -0.0912 -0.0992  0.1567
  200SOD    SOD22260   0.514   0.707   7.645 -0.4415 -0.4922  0.1919
  201SOD    SOD22261   3.209   4.003   1.372 -0.0574 -0.2104 -0.1074
  202SOD    SOD22262   2.040   4.088   0.757  0.2087 -0.5605 -0.1798
  203SOD    SOD22263   0.047   0.672   0.225 -0.1389 -0.0499  0.1431
  204SOD    SOD22264   6.112   4.496   7.779 -0.1710  0.2506  0.3251
  205SOD    SOD22265   4.913   6.249   1.631 -0.2650 -0.2852 -0.4258
  206SOD    SOD22266   0.324   0.910   1.914  0.3330  0.1696  0.4558
  207SOD    SOD22267   3.984   1.081   0.002 -0.3014  0.2347 -0.3402
  208SOD    SOD22268   3.543   0.793   7.763 -0.3856 -0.2869  0.6718
  209SOD    SOD22269   0.278   5.237   1.042 -0.3939  0.0394 -0.3775
  210SOD    SOD22270   3.023   1.950   6.813 -0.2599  0.2909  0.1858
  211SOD    SOD22271   0.268   6.553   2.934  0.5344 -0.0144 -0.0336
  212SOD    SOD22272   5.138   4.268   2.028 -0.3397  0.2182  0.0867
  213SOD    SOD22273   2.662   1.488   1.615 -0.1200 -0.1231 -0.2209
  214SOD    SOD22274   5.110   5.071   6.837 -0.1211  0.1262  0.1052
  215SOD    SOD22275   2.132   2.976   1.814 -0.1861  0.0984  0.1254
  216SOD    SOD22276   6.860   1.746   2.076  0.0707 -0.3459 -0.0573
  217SOD    SOD22277   2.064   2.584   7.703 -0.0478 -0.6485  0.0475
  218SOD    SOD22278   1.168   3.953   0.379  0.0104 -0.1440  0.2708
  219SOD    SOD22279   4.833   3.633   7.126 -0.2649 -0.1831  0.1972
  220SOD    SOD22280   4.580   5.767   0.813 -0.4151 -0.4473  0.0233
  221SOD    SOD22281   0.670   0.763   2.539 -0.1529  0.2456 -0.2884
  222SOD    SOD22282   3.520   0.918   0.537  0.2417  0.3722 -0.2129
  223SOD    SOD22283   4.764   5.540   7.293 -1.0029 -0.2188 -0.2203
  224SOD    SOD22284   5.684   4.965   2.143  0.2638  0.0086  0.0010
  225SOD    SOD22285   5.429   4.330   0.828 -0.1414 -0.1222  0.0017
  226SOD    SOD22286   1.778   5.728   0.630 -0.2999  0.2113  0.0062
  227SOD    SOD22287   0.403   2.478   1.875  0.3704  0.0423 -0.0235
  228SOD    SOD22288   3.757   1.382   7.158 -0.0027  0.1209 -0.7098
  229SOD    SOD22289   2.104   4.254   1.504 -0.0450  0.7884 -0.5677
  230SOD    SOD22290   3.918   6.680   8.433 -0.1538 -0.0115  0.1949
  231SOD    SOD22291   6.013   1.656   7.499 -0.4518 -0.5575 -0.0150
  232SOD    SOD22292   4.307   3.075   0.028  0.2329  0.1372  0.2222
  233SOD    SOD22293   2.285   6.379   7.230 -0.1423  0.0152 -0.2214
  234CLA    CLA22294   6.613   5.976   1.780 -0.0486  0.0402 -0.1885
  235CLA    CLA22295   0.255   5.221   8.457 -0.1972 -0.1543 -0.1958
  236CLA    CLA22296   3.202   1.041   1.559  0.2058 -0.0176 -0.0140
  237CLA    CLA22297   0.253   0.498   1.634 -0.2701  0.0915  0.0136
  238CLA    CLA22298   2.396   2.027   0.318  0.1445 -0.0260  0.0336
  239CLA    CLA22299   4.418   2.404   7.227  0.3570 -0.0412  0.2449
  240CLA    CLA22300   0.357   2.522   1.433  0.1360 -0.1238  0.1412
  241CLA    CLA22301   1.124   4.016   0.945  0.7828 -0.1388 -0.3072
  242CLA    CLA22302   5.413   0.618   0.122  0.1949 -0.1631 -0.2140
  243CLA    CLA22303   5.985   4.334   1.786  0.1142 -0.2404  0.1424
  244CLA    CLA22304   3.358   1.271   7.356 -0.3004 -0.3371 -0.0035
  245CLA    CLA22305   0.585   1.426   1.701  0.0383  0.0325 -0.1325
  246CLA    CLA22306   5.698   2.069   8.426  0.2910  0.0803  0.2301
  247CLA    CLA22307   1.203   1.098   1.981 -0.2404 -0.0062 -0.2247
  248CLA    CLA22308   4.159   6.123   8.221  0.0997 -0.0034  0.0437
  249CLA    CLA22309   3.489   5.199   8.492 -0.3295 -0.1802  0.3254
  250CLA    CLA22310   2.532   0.609   0.601 -0.0626 -0.3361 -0.0320
  251TIP3   OH222311   0.040   4.106   7.460 -0.1154  0.5424  0.4952
  251TIP3    H122312   0.067   4.178   7.402  0.8907  0.3191  0.6596
  251TIP3    H222313   0.107   4.038   7.447 -0.5938 -0.0301  0.9544
  252TIP3   OH222314   2.043   0.518   1.387  0.3996 -0.3287 -0.0211
  252TIP3    H122315   1.988   0.522   1.465  1.1035 -1.5781  0.5746
  252TIP3    H222316   2.127   0.483   1.418  1.5840  1.5846 -0.8811
  253TIP3   OH222317   4.530   6.755   1.252  0.4936  0.6318 -0.4387
  253TIP3    H122318   4.583   6.831   1.229 -1.4686  2.4559  0.7989
  253TIP3    H222319   4.592   6.695   1.294  1.9821  1.7598 -0.9348
  254TIP3   OH222320   0.360   6.609   7.526 -0.0365 -0.3798 -0.3566
  254TIP3    H122321   0.370   6.614   7.431 -0.1722 -0.1159 -0.3579
  254TIP3    H222322   0.332   6.696   7.552 -1.6462 -0.8865 -0.2781
  255TIP3   OH222323   2.938   1.435   8.140  0.0393  0.4004 -0.1419
  255TIP3    H122324   2.861   1.388   8.172 -0.4793  1.1240 -0.3157
  255TIP3    H222325   2.987   1.370   8.090  0.2574 -0.4395  1.1075
  256TIP3   OH222326   6.369   1.650   8.378  0.0864 -0.0308 -0.4118
  256TIP3    H122327   6.408   1.563   8.366 -0.0030 -0.1765  0.3437
  256TIP3    H222328   6.411   1.685   8.456  1.8262  1.5644 -1.9440
  257TIP3   OH222329   4.649   3.017   6.842 -0.6359  0.2122  0.5692
  257TIP3    H122330   4.554   3.026   6.834 -0.6093  0.1218  0.0843
  257TIP3    H222331   4.680   3.102   6.872 -0.9468  0.0038  1.5200
  258TIP3   OH222332   1.657   0.723   2.584  0.7462  0.1866  0.1189
  258TIP3    H122333   1.563   0.740   2.595  1.0572  1.8419  0.6022
  258TIP3    H222334   1.662   0.636   2.546 -0.9614 -0.2473  0.8081
  259TIP3   OH222335   5.816   0.719   2.356  0.4219 -0.4806  0.2297
  259TIP3    H122336   5.749   0.782   2.330  0.6379 -0.2670  0.1828
  259TIP3    H222337   5.768   0.638   2.375  0.1677 -0.3680  0.0666
  260TIP3   OH222338   4.642   1.393   2.250  0.4956  0.7522 -0.0539
  260TIP3    H122339   4.602   1.315   2.289  1.7971 -0.7948 -1.6340
  260TIP3    H222340   4.596   1.466   2.290 -0.6441 -0.8098  1.6618
  261TIP3   OH222341   3.150   4.315   1.744 -0.0416 -0.7285 -0.3924
  261TIP3    H122342   3.206   4.370   1.688 -0.7071  1.3048  0.8606
  261TIP3    H222343   3.203   4.299   1.822 -1.0910  1.2354  0.8165
  262TIP3   OH222344   3.267   3.989   6.817 -0.0432  0.1872 -0.2911
  262TIP3    H122345   3.198   3.995   6.751 -0.5382  1.1805  0.2942
  262TIP3    H222346   3.290   4.080   6.836 -0.2002 -0.0618  1.1926
  263TIP3   OH222347   5.926   3.893   1.977  0.5429 -0.0477 -0.1501
  263TIP3    H122348   6.005   3.942   2.000  0.2918 -1.0464  3.5041
  263TIP3    H222349   5.909   3.837   2.053 -2.6580 -1.2491 -1.5478
  264TIP3   OH222350   0.548   2.635   2.400  0.2418  0.0275  0.0939
  264TIP3    H122351   0.494   2.693   2.454 -0.7871 -0.9081  0.0917
  264TIP3    H222352   0.636   2.644   2.437 -0.3291 -0.1480  1.5538
  265TIP3   OH222353   2.757   4.465   2.324 -0.1860 -0.7377 -0.2949
  265TIP3    H122354   2.744   4.410   2.400  1.4842 -0.5504  0.1649
  265TIP3    H222355   2.690   4.534   2.332 -1.0538 -1.6089  0.1215
  266TIP3   OH222356   4.929   1.029   2.473 -0.0347  0.6448  0.7904
  266TIP3    H122357   4.891   0.945   2.499  2.2753 -0.3019  1.3497
  266TIP3    H222358   4.943   1.075   2.555  0.4765  0.7652  0.6380
  267TIP3   OH222359   0.915   2.824   0.089 -0.4066  0.4478 -0.3704
  267TIP3    H122360   0.881   2.790   0.006 -0.3796 -1.3113  0.3134
  267TIP3    H222361   0.876   2.768   0.156  2.0090 -0.1748  0.6142
  268TIP3   OH222362   6.783   5.720   8.112 -0.4797 -0.5292 -0.6013
  268TIP3    H122363   6.863   5.701   8.162  0.6308  2.0544 -1.1847
  268TIP3    H222364   6.790   5.814   8.093 -2.8885 -0.5865 -2.0891
  269TIP3   OH222365   6.171   6.029   1.922  0.3094  0.1215 -0.0895
  269TIP3    H122366   6.115   6.052   1.996 -1.4623 -2.9757 -0.2880
  269TIP3    H222367   6.135   6.078   1.848  0.5353  1.3262  0.5713
  270TIP3   OH222368   3.039   4.419   7.741  0.1659 -0.4570 -0.2333
  270TIP3    H122369   2.962   4.387   7.694  0.7213  0.6714 -2.0029
  270TIP3    H222370   3.012   4.423   7.833 -1.0736 -2.3991 -0.4764
  271TIP3   OH222371   0.933   4.078   0.530 -0.1092  0.2041 -0.1797
  271TIP3    H122372   0.976   4.152   0.487 -0.7177  0.4584 -0.3578
  271TIP3    H222373   0.873   4.044   0.463 -1.5251  0.9829  0.6478
  272TIP3   OH222374   4.396   4.923   6.989 -0.1288 -0.9564  0.1766
  272TIP3    H122375   4.359   4.972   7.063 -0.1492  0.5554 -0.7689
  272TIP3    H222376   4.377   4.832   7.009 -1.8051 -0.4567  1.1430
  273TIP3   OH222377   0.896   1.159   7.294  0.0562 -0.1561  0.2195
  273TIP3    H122378   0.892   1.208   7.376 -1.0135 -0.4155  0.3406
  273TIP3    H222379   0.837   1.085   7.307  0.6303 -0.7538 -0.4384
  274TIP3   OH222380   6.508   0.775   0.490  0.2911 -0.1470  0.3437
  274TIP3    H122381   6.459   0.811   0.564 -1.8794 -0.5428 -0.8311
  274TIP3    H222382   6.599   0.801   0.508 -0.3227  0.7978  2.5103
  275TIP3   OH222383   6.109   4.533   1.491  0.2407  0.0237 -0.4984
  275TIP3    H122384   6.105   4.477   1.568  1.8008 -0.2164 -0.5650
  275TIP3    H222385   6.160   4.483   1.427  2.4694  1.8364 -0.2422
  276TIP3   OH222386   6.015   0.030   0.975 -0.3124 -0.0067 -0.5410
  276TIP3    H122387   5.974   0.116   0.961  1.5039  0.9373 -0.2413
  276TIP3    H222388   6.030  -0.004   0.886  1.8572  1.4386 -0.7843
  277TIP3   OH222389   0.062   4.719   0.175 -0.2521  0.1338 -0.0298
  277TIP3    H122390   0.107   4.656   0.231 -1.4872  0.2778  1.1579
  277TIP3    H222391   0.059   4.676   0.089  2.9319  0.4999 -0.4475
  278TIP3   OH222392   6.401   3.280   0.663 -0.5900  0.0967 -0.1669
  278TIP3    H122393   6.492   3.276   0.633 -1.2360 -3.1668 -2.1560
  278TIP3    H222394   6.400   3.225   0.742 -0.7373  0.5444  0.1425
  279TIP3   OH222395   5.775   5.902   1.765 -0.4182 -0.4766  0.0654
  279TIP3    H122396   5.731   5.895   1.849 -1.6220  0.7834 -0.4260
  279TIP3    H222397   5.715   5.863   1.702 -0.8547  1.1566 -0.5925
  280TIP3   OH222398   6.617   5.952   6.661  0.3726  1.0372 -0.3284
  280TIP3    H122399   6.685   5.967   6.595  1.0060 -0.2079  0.0105
  280TIP3    H222400   6.564   6.031   6.659  0.9864  1.4453 -1.6130
  281TIP3   OH222401   4.737   3.425   0.315 -0.8251 -0.2015 -0.1914
  281TIP3    H122402   4.799   3.374   0.368 -0.9774  0.4367  0.6145
  281TIP3    H222403   4.783   3.506   0.294 -0.6893 -0.5323 -1.2296
  282TIP3   OH222404   6.594   5.711   7.421 -0.4203  0.1495  0.2604
  282TIP3    H122405   6.656   5.647   7.456 -1.1439 -0.0562  1.1864
  282TIP3    H222406   6.640   5.795   7.430  1.0922 -0.3009 -2.2132
  283TIP3   OH222407   5.204   4.007   7.138 -0.0535 -0.2685 -0.7025
  283TIP3    H122408   5.294   4.027   7.111 -0.1671  1.4669  0.0288
  283TIP3    H222409   5.158   4.091   7.131 -1.5407 -1.0640 -0.7532
  284TIP3   OH222410   2.909   0.972   7.577 -0.5114  0.2911  0.1764
  284TIP3    H122411   2.890   1.066   7.575 -1.2486  0.1914  1.2905
  284TIP3    H222412   2.829   0.933   7.612 -0.1301 -0.7345 -0.0705
  285TIP3   OH222413   5.431   4.279   7.315  0.1427 -0.1395 -0.5010
  285TIP3    H122414   5.452   4.205   7.258 -0.2202 -1.4028  0.9357
  285TIP3    H222415   5.423   4.240   7.403 -3.3066  0.9644 -0.1638
  286TIP3   OH222416   0.795   3.946   2.414 -0.3207  0.2062 -0.0272
  286TIP3    H122417   0.856   3.873   2.416  0.1146  0.5724  0.4438
  286TIP3    H222418   0.735   3.930   2.487  0.2774  0.7285  0.5970
  287TIP3   OH222419   3.147   1.453   7.822  0.6135  0.2691 -0.1909
  287TIP3    H122420   3.087   1.521   7.853  1.5253  1.1371 -0.2750
  287TIP3    H222421   3.211   1.500   7.768  2.0364 -0.4159  0.8132
  288TIP3   OH222422   1.902   3.982   0.911  0.0363  0.2891  0.2707
  288TIP3    H122423   1.905   3.980   1.006 -1.9997 -1.6557  0.3925
  288TIP3    H222424   1.957   3.909   0.883 -0.9777 -0.4498  0.1111
  289TIP3   OH222425   6.609   2.660   0.266  0.3338 -0.3323 -0.0112
  289TIP3    H122426   6.630   2.658   0.360 -0.4008 -2.6907  0.1582
  289TIP3    H222427   6.561   2.742   0.255  2.0924  0.9392  1.2536
  290TIP3   OH222428   3.485   4.500   1.978 -0.1473 -0.4814  0.0757
  290TIP3    H122429   3.546   4.538   1.914 -0.3111  2.3542  1.4658
  290TIP3    H222430   3.532   4.505   2.061 -1.4207 -0.3820  0.8084
  291TIP3   OH222431   3.686   2.509   0.100  0.1262  0.0500  0.2557
  291TIP3    H122432   3.677   2.581   0.039 -1.4152 -0.1357  0.2216
  291TIP3    H222433   3.728   2.548   0.178 -2.6296  1.5499  1.1003
  292TIP3   OH222434   4.126   4.093   1.849  0.3644  0.0461  0.1469
  292TIP3    H122435   4.062   4.041   1.800 -0.6004  2.3168 -1.1402
  292TIP3    H222436   4.209   4.077   1.804  0.1694 -0.7270  0.0527
  293TIP3   OH222437   1.994   6.206   7.877 -0.5369 -0.1165 -0.1177
  293TIP3    H122438   1.926   6.180   7.814 -0.5206 -0.7031  0.0968
  293TIP3    H222439   1.970   6.160   7.957  0.3814 -0.7201 -0.1712
  294TIP3   OH222440   5.202   4.275   0.721  0.4691 -0.4418 -0.1119
  294TIP3    H122441   5.272   4.241   0.666 -1.6083 -1.3434 -2.3409
  294TIP3    H222442   5.129   4.289   0.662 -1.7023 -0.8155  2.3062
  295TIP3   OH222443   5.734   6.641   1.255  0.6576  0.7198 -0.0709
  295TIP3    H122444   5.765   6.678   1.172  0.6004  0.4555 -0.2108
  295TIP3    H222445   5.814   6.621   1.304  0.9487 -2.8731 -1.6624
  296TIP3   OH222446   3.094   5.344   1.713 -0.5187 -0.5528 -0.3662
  296TIP3    H122447   3.122   5.430   1.743 -3.1784 -0.2923  1.8178
  296TIP3    H222448   3.117   5.285   1.785 -1.1996 -1.1559 -0.6333
  297TIP3   OH222449   6.639   0.546   6.465  0.0163  0.5496 -0.5276
  297TIP3    H122450   6.632   0.470   6.523  0.5671  0.4797 -0.5426
  297TIP3    H222451   6.550   0.579   6.458 -0.0716  0.5188  0.3111
  298TIP3   OH222452   4.002   4.307   1.663 -0.3608  0.0677 -0.1284
  298TIP3    H122453   4.047   4.243   1.718 -1.1853 -0.3274  0.1116
  298TIP3    H222454   4.065   4.378   1.652  0.3319 -0.4878  0.1472
  299TIP3   OH222455   6.646   5.502   1.113  0.1840 -0.0514  0.3893
  299TIP3    H122456   6.581   5.539   1.173 -0.7075 -0.1308 -0.4968
  299TIP3    H222457   6.619   5.411   1.103 -0.0737  0.1307 -0.6435
  300TIP3   OH222458   2.019   3.348   0.700  0.0721  0.4328  0.0685
  300TIP3    H122459   2.107   3.372   0.671  0.0237  0.9106  0.3078
  300TIP3    H222460   1.965   3.353   0.620  0.1563  0.6618  0.0261
  301TIP3   OH222461   4.469   6.078   1.763  0.1446  0.6906  0.2439
  301TIP3    H122462   4.403   6.015   1.731  0.8649 -0.3901  0.8290
  301TIP3    H222463   4.443   6.095   1.854 -0.4410  1.8049 -0.1082
  302TIP3   OH222464   3.479   5.160   8.129  0.0487  0.5309 -0.3369
  302TIP3    H122465   3.479   5.245   8.175 -0.0569  0.0071  0.6618
  302TIP3    H222466   3.449   5.181   8.041 -1.2089  1.3552  0.2452
  303TIP3   OH222467   6.488   1.751   0.459  0.3652 -0.2046 -1.0484
  303TIP3    H122468   6.458   1.842   0.453  1.5947  0.1648 -2.3282
  303TIP3    H222469   6.460   1.722   0.545  0.9281  1.7770 -0.1291
  304TIP3   OH222470   2.715   1.226   8.178  0.2354  0.4472  0.5646
  304TIP3    H122471   2.772   1.149   8.169  0.4120  0.1789  3.2639
  304TIP3    H222472   2.634   1.201   8.135 -0.2320 -1.8759  2.6416
  305TIP3   OH222473   2.533   4.801   7.021 -0.2427  0.5239 -0.1019
  305TIP3    H122474   2.600   4.791   7.088 -1.3876 -0.2951  0.9627
  305TIP3    H222475   2.454   4.827   7.069 -0.7691  1.2191 -1.2908
  306TIP3   OH222476   3.037   5.258   0.919 -0.7309  0.1137 -0.4381
  306TIP3    H122477   3.104   5.282   0.855 -0.8492  2.0884  0.1272
  306TIP3    H222478   2.969   5.213   0.867  0.7490 -1.5169 -1.0898
  307TIP3   OH222479   0.937   4.583   8.511 -0.0945 -0.3488 -0.0038
  307TIP3    H122480   0.981   4.667   8.492 -1.3536  0.9704  2.4130
  307TIP3    H222481   0.878   4.570   8.437  0.4028  0.7020 -0.6195
  308TIP3   OH222482   1.203   5.404   0.883 -0.4529  0.1327 -0.4069
  308TIP3    H122483   1.160   5.324   0.914  0.4486  0.0917  0.7995
  308TIP3    H222484   1.206   5.461   0.959  0.7787  0.4847 -0.6966
  309TIP3   OH222485   6.190   4.798   8.465  0.3473  0.4435  0.5235
  309TIP3    H122486   6.175   4.872   8.524  0.4538 -0.8048  2.1704
  309TIP3    H222487   6.276   4.765   8.490  1.1958  0.9125 -1.5372
  310TIP3   OH222488   3.266   6.519   1.991 -0.1936 -0.2990 -0.1605
  310TIP3    H122489   3.241   6.430   2.015 -0.6644  0.3995  2.1643
  310TIP3    H222490   3.217   6.575   2.051  1.2649  1.4762 -0.5402
  311TIP3   OH222491   6.851   6.733   2.332  0.2884 -0.0152  0.0353
  311TIP3    H122492   6.781   6.793   2.356  0.7936  0.2007  1.0156
  311TIP3    H222493   6.926   6.789   2.315  0.6810 -0.3439  0.6520
  312TIP3   OH222494   0.277   6.770   1.072  0.1704 -0.0004 -0.1705
  312TIP3    H122495   0.245   6.785   0.982 -0.5427 -1.3387 -0.1604
  312TIP3    H222496   0.205   6.724   1.115  1.0280 -0.5343  0.7051
  313TIP3   OH222497   1.115   4.885   1.458 -0.0787 -0.2475 -0.4839
  313TIP3    H122498   1.059   4.949   1.502  0.9010  0.2509  0.0704
  313TIP3    H222499   1.082   4.800   1.486  0.0690  0.0598  0.6441
  314TIP3   OH222500   6.677   3.343   6.916  0.0541 -0.0950 -0.3681
  314TIP3    H122501   6.656   3.252   6.935  1.7469 -0.3010  0.7090
  314TIP3    H222502   6.729   3.340   6.835 -0.5431  0.0140 -0.7653
  315TIP3   OH222503   5.315   2.402   7.174 -0.3489  0.7156 -0.2545
  315TIP3    H122504   5.346   2.324   7.221  0.6477  0.6717 -0.9533
  315TIP3    H222505   5.220   2.399   7.184 -0.4637 -1.3024 -1.3334
  316TIP3   OH222506   0.591   4.078   8.088  0.2559  0.2339 -0.5750
  316TIP3    H122507   0.626   3.997   8.126 -0.0207  0.5439  0.3672
  316TIP3    H222508   0.545   4.049   8.009  0.0580 -0.5460 -0.1845
  317TIP3   OH222509   3.050   2.394   8.486  0.3624 -0.1683  0.4408
  317TIP3    H122510   2.979   2.441   8.441  0.0904 -1.5199 -0.6164
  317TIP3    H222511   3.005   2.330   8.541  0.7489 -0.2468  0.6668
  318TIP3   OH222512   5.483   3.762   7.280  0.0261 -0.0247 -0.4418
  318TIP3    H122513   5.416   3.772   7.213  0.6857  0.4265 -1.0558
  318TIP3    H222514   5.457   3.822   7.350 -0.1359  0.2654 -0.7476
  319TIP3   OH222515   2.949   0.128   8.019  0.0657 -0.5216  0.2221
  319TIP3    H122516   2.907   0.053   7.976 -3.2272  0.3350  1.5738
  319TIP3    H222517   2.875   0.178   8.055  2.2977  1.9210  1.7123
  320TIP3   OH222518   1.945   4.852   1.688  0.2160 -0.2285 -0.0699
  320TIP3    H122519   1.896   4.785   1.642 -0.5997  1.2958 -1.5234
  320TIP3    H222520   1.883   4.890   1.750 -0.8711  2.3074 -2.5247
  321TIP3   OH222521   2.612   1.543   7.995  0.7592  0.0331  0.5050
  321TIP3    H122522   2.570   1.457   7.983 -0.6810  0.7835 -0.1314
  321TIP3    H222523   2.646   1.565   7.908 -0.1937  0.7466  0.2987
  322TIP3   OH222524   4.689   4.187   0.711 -0.4748  0.1550 -0.5501
  322TIP3    H122525   4.656   4.182   0.801 -0.6699 -0.3547 -0.6476
  322TIP3    H222526   4.766   4.131   0.710 -0.4277  0.2225 -0.6809
  323TIP3   OH222527   2.805   2.958   1.932 -0.0309  0.2411  0.4871
  323TIP3    H122528   2.745   2.910   1.990 -0.6039 -0.8286 -0.9229
  323TIP3    H222529   2.770   3.047   1.929 -1.2899 -0.2450  0.0853
  324TIP3   OH222530   3.101   2.462   7.366 -0.4218  0.3255 -0.5737
  324TIP3    H122531   3.171   2.493   7.309  0.3883 -1.7372 -0.7972
  324TIP3    H222532   3.021   2.476   7.316  0.2754 -1.5868 -2.3761
  325TIP3   OH222533   0.912   4.196   2.284 -0.2768 -0.6737 -0.0256
  325TIP3    H122534   0.834   4.246   2.305  0.1251 -0.2583  0.4983
  325TIP3    H222535   0.912   4.123   2.345 -0.3206 -0.7465 -0.1116
  326TIP3   OH222536   3.880   3.640   7.160  0.2069 -0.4216 -0.5726
  326TIP3    H122537   3.786   3.644   7.146  0.2608  0.3386 -0.7196
  326TIP3    H222538   3.918   3.653   7.073  0.4599 -0.1724 -0.4248
  327TIP3   OH222539   0.246   6.114   0.638 -0.2252  0.2134  0.2656
  327TIP3    H122540   0.169   6.167   0.618 -0.4160 -0.2710 -0.3058
  327TIP3    H222541   0.232   6.032   0.591  1.3264  0.6679 -1.1002
  328TIP3   OH222542   6.245   1.859   6.518 -0.0228 -0.1690  0.1775
  328TIP3    H122543   6.336   1.830   6.515 -0.1823 -0.8358  1.1747
  328TIP3    H222544   6.215   1.834   6.605 -0.7495  1.3500  0.3901
  329TIP3   OH222545   6.560   6.278   8.364 -0.0376  0.0992 -0.0955
  329TIP3    H122546   6.591   6.188   8.375  0.4334  0.1615 -0.8069
  329TIP3    H222547   6.621   6.331   8.415  0.1543  0.0833 -0.3056
  330TIP3   OH222548   0.058   5.890   2.595 -0.1051  0.3893  0.1975
  330TIP3    H122549   0.018   5.966   2.638 -1.2847 -0.0251 -0.1129
  330TIP3    H222550   0.057   5.822   2.663  0.5188  0.5141  0.3327
  331TIP3   OH222551   4.784   6.409   7.834 -0.3182 -0.2841  0.4228
  331TIP3    H122552   4.846   6.387   7.903 -0.8156 -1.1879  0.6081
  331TIP3    H222553   4.811   6.355   7.760  0.7234  1.2992 -0.3962
  332TIP3   OH222554   1.906   1.786   1.137 -0.2271  0.4874  0.5101
  332TIP3    H122555   1.909   1.746   1.050 -0.7724  1.1837  0.1634
  332TIP3    H222556   1.838   1.737   1.184 -1.0591  1.1446  0.0097
  333TIP3   OH222557   4.121   3.659   0.290 -0.2981 -0.3384 -0.7979
  333TIP3    H122558   4.057   3.727   0.311 -0.4424 -0.8938  0.7394
  333TIP3    H222559   4.190   3.705   0.242 -0.9873  0.6280 -0.8932
  334TIP3   OH222560   6.033   6.820   7.868  0.0610  0.2370  0.0040
  334TIP3    H122561   5.971   6.888   7.896  0.6428 -0.2597  2.7706
  334TIP3    H222562   5.981   6.740   7.863 -0.0331  0.3174 -0.3790
  335TIP3   OH222563   2.865   3.568   1.382 -0.3199  0.0078 -0.2781
  335TIP3    H122564   2.790   3.512   1.404 -1.0494  0.9034 -0.4488
  335TIP3    H222565   2.851   3.592   1.291 -1.2199  2.2653  0.3903
  336TIP3   OH222566   2.022   1.732   2.519 -0.3058 -0.2835  0.0263
  336TIP3    H122567   2.099   1.678   2.533  0.5616  1.1738  1.0736
  336TIP3    H222568   1.948   1.671   2.529  0.6014 -1.1612  1.7989
  337TIP3   OH222569   0.030   4.094   6.821  0.1614  0.0952  0.1506
  337TIP3    H122570  -0.027   4.019   6.807 -1.2448  0.9085  1.3088
  337TIP3    H222571   0.035   4.137   6.736 -1.3659  0.2709  0.1288
  338TIP3   OH222572   3.341   1.708   0.015 -0.3522  0.3799 -0.4462
  338TIP3    H122573   3.344   1.733   0.107  0.6244 -0.7578 -0.1431
  338TIP3    H222574   3.262   1.653   0.007  0.9229 -1.6990  0.3485
  339TIP3   OH222575   2.656   0.182   7.528 -0.0129  0.1009 -0.0701
  339TIP3    H122576   2.712   0.242   7.478 -0.9039  1.1843  0.1897
  339TIP3    H222577   2.575   0.231   7.541 -0.8736 -1.2746 -0.0795
  340TIP3   OH222578   2.449   4.772   0.455 -0.7722  0.1665  0.2862
  340TIP3    H122579   2.519   4.708   0.470 -0.9659 -0.4337 -1.2346
  340TIP3    H222580   2.383   4.750   0.521  0.4959  0.8575  1.8704
  341TIP3   OH222581   3.238   4.784   8.484  0.1566 -0.5042 -0.1157
  341TIP3    H122582   3.316   4.806   8.432 -0.8738  0.0183 -1.4865
  341TIP3    H222583   3.219   4.693   8.462  0.8008 -0.8911  0.8262
  342TIP3   OH222584   5.649   4.590   8.530 -0.1373  0.4282 -0.0165
  342TIP3    H122585   5.702   4.639   8.466  0.2048 -1.2300 -1.0495
  342TIP3    H222586   5.712   4.538   8.580 -0.5534  0.5427  0.6406
  343TIP3   OH222587   6.548   6.105   0.780 -0.3599 -0.2659  0.4539
  343TIP3    H122588   6.530   6.041   0.711  0.1323  1.5675 -1.4918
  343TIP3    H222589   6.462   6.132   0.811 -0.6119 -0.7312  0.1703
  344TIP3   OH222590   5.015   4.251   7.379 -0.2743  0.1666 -0.0733
  344TIP3    H122591   5.045   4.218   7.294  2.7230 -0.1702  0.9980
  344TIP3    H222592   4.977   4.175   7.422  0.7983 -0.3654 -0.0462
  345TIP3   OH222593   2.724   1.503   0.787  0.1429  0.4389 -0.1209
  345TIP3    H122594   2.740   1.596   0.772 -1.6056  0.5931 -1.2745
  345TIP3    H222595   2.657   1.501   0.855  1.5730 -0.0744  1.3434
  346TIP3   OH222596   0.722   3.695   7.236 -0.1110  0.6822  0.2632
  346TIP3    H122597   0.777   3.645   7.175  0.5329  1.1719  0.4253
  346TIP3    H222598   0.700   3.632   7.305  0.1425  0.4386  0.1259
  347TIP3   OH222599   6.781   0.992   0.964 -0.4072 -0.2534  0.5280
  347TIP3    H122600   6.706   0.951   1.008 -1.4739 -0.9481 -1.7367
  347TIP3    H222601   6.755   1.083   0.951 -0.5956 -0.3309  0.3453
  348TIP3   OH222602   2.799   2.856   0.019  0.1482  0.2222 -0.2734
  348TIP3    H122603   2.769   2.878   0.108 -1.5548 -0.6229 -0.6135
  348TIP3    H222604   2.745   2.910  -0.039 -0.2129 -0.7700 -0.8756
  349TIP3   OH222605   1.835   2.195   7.768  0.1916 -0.0909 -0.2813
  349TIP3    H122606   1.814   2.110   7.729 -0.2924 -0.5845  0.9948
  349TIP3    H222607   1.902   2.176   7.833 -0.6012  0.3441  0.6820
  350TIP3   OH222608   4.449   6.858   7.798 -0.0569  0.3367  0.3645
  350TIP3    H122609   4.526   6.856   7.740  0.1029 -0.1644  0.5945
  350TIP3    H222610   4.449   6.774   7.842 -0.2569  0.6628  1.0055
  351TIP3   OH222611   5.018   3.539   7.219 -0.0370 -0.1811 -0.9748
  351TIP3    H122612   5.084   3.549   7.288 -0.2325 -1.7036 -0.5287
  351TIP3    H222613   5.055   3.472   7.160 -0.9481 -0.6677 -1.0020
  352TIP3   OH222614   0.280   3.976   8.406 -0.1079 -0.6742 -0.5104
  352TIP3    H122615   0.200   3.926   8.419 -0.8956 -0.1111 -2.7238
  352TIP3    H222616   0.255   4.046   8.345  1.6393  0.6578  0.1984
  353TIP3   OH222617   6.830   0.019   2.880  0.1148  0.4254  0.7097
  353TIP3    H122618   6.874   0.103   2.865 -2.1000  1.4720 -0.3940
  353TIP3    H222619   6.850  -0.003   2.971  1.5640  1.6082  0.7170
  354TIP3   OH222620   3.669   0.820   2.032  0.8300 -0.7594 -0.0061
  354TIP3    H122621   3.719   0.822   2.113 -1.2550  1.2137  1.3351
  354TIP3    H222622   3.597   0.759   2.049  0.2672 -0.1880 -0.2750
  355TIP3   OH222623   2.589   1.705   1.127 -0.2589  0.2361 -0.0300
  355TIP3    H122624   2.578   1.763   1.052 -0.2220  0.3752  0.0722
  355TIP3    H222625   2.537   1.628   1.105 -0.9360  0.6243  0.1643
  356TIP3   OH222626   3.671   0.750   0.442  0.7048  0.5605  0.2435
  356TIP3    H122627   3.766   0.755   0.452  0.7231  0.3709  0.1739
  356TIP3    H222628   3.647   0.666   0.481  0.3331  1.4202  1.9710
  357TIP3   OH222629   3.274   0.798   7.793  0.3937  0.2505 -0.7558
  357TIP3    H122630   3.204   0.830   7.851  0.6051  0.3662 -0.5634
  357TIP3    H222631   3.285   0.706   7.819 -0.7382 -0.2244 -1.8210
  358TIP3   OH222632   6.231   6.582   0.921  0.0452  0.0089  0.4683
  358TIP3    H122633   6.172   6.585   0.846 -0.7905 -0.8204  1.0637
  358TIP3    H222634   6.274   6.667   0.922 -0.5092  0.3152 -0.4757
  359TIP3   OH222635   1.700   1.506   0.653 -0.3389 -0.2642  0.7621
  359TIP3    H122636   1.698   1.579   0.714 -0.3513 -0.8474  1.4701
  359TIP3    H222637   1.683   1.429   0.707 -3.6842 -0.5289 -0.4219
  360TIP3   OH222638   2.605   3.825   1.404 -0.0009  0.4138  0.1028
  360TIP3    H122639   2.614   3.762   1.334  0.1988 -0.1279  0.6064
  360TIP3    H222640   2.679   3.807   1.462  1.2151  2.3807 -0.7186
  361TIP3   OH222641   4.814   5.365   6.935 -0.3343  0.1747 -0.3502
  361TIP3    H122642   4.736   5.349   6.882 -1.2752  1.8993  0.4163
  361TIP3    H222643   4.887   5.348   6.876 -1.2431 -1.7357 -1.0135
  362TIP3   OH222644   0.876   1.435   8.094 -0.0999 -0.1266 -0.1163
  362TIP3    H122645   0.844   1.453   8.182 -0.4418  0.8699 -0.4315
  362TIP3    H222646   0.843   1.508   8.041  1.6226  0.2669 -0.7048
  363TIP3   OH222647   0.108   0.579   1.379 -0.5002 -0.0182 -0.6205
  363TIP3    H122648   0.118   0.547   1.469 -1.4801  1.3627  0.0152
  363TIP3    H222649   0.163   0.657   1.375  0.3628 -0.6464 -1.5696
  364TIP3   OH222650   6.763   4.637   1.528 -0.0954 -0.0199  0.3801
  364TIP3    H122651   6.828   4.620   1.596  0.5981 -0.4729 -0.3834
  364TIP3    H222652   6.706   4.703   1.567  1.2287  0.9194  0.8165
  365TIP3   OH222653   2.254   1.863   1.114  0.8656 -0.4521 -0.3831
  365TIP3    H122654   2.340   1.868   1.072  0.2617 -0.0357 -1.6043
  365TIP3    H222655   2.206   1.938   1.079 -0.0757 -0.8183  0.1026
  366TIP3   OH222656   5.616   3.900   1.461 -0.2759  0.3610 -0.3134
  366TIP3    H122657   5.691   3.958   1.475 -0.9442  1.2759 -0.4766
  366TIP3    H222658   5.638   3.820   1.510  1.6509 -0.1430 -1.8693
  367TIP3   OH222659   6.462   0.856   7.105 -0.0059 -0.2389  0.2907
  367TIP3    H122660   6.478   0.950   7.119  0.8586 -0.5846  1.9414
  367TIP3    H222661   6.490   0.840   7.015 -2.9540  1.6181 -1.0977
  368TIP3   OH222662   4.346   5.815   7.208 -0.2300 -0.6478  0.4306
  368TIP3    H122663   4.411   5.860   7.262 -0.6589 -0.9487  1.2093
  368TIP3    H222664   4.291   5.768   7.270 -0.1484 -1.7875 -0.3371
  369TIP3   OH222665   5.244   5.941   1.160 -0.1817  0.4481  0.0995
  369TIP3    H122666   5.162   5.989   1.153 -0.5722 -0.1618  0.5057
  369TIP3    H222667   5.270   5.924   1.069 -0.1187  1.2742 -0.0481
  370TIP3   OH222668   6.644   3.140   0.082  0.6834  0.1581  0.0623
  370TIP3    H122669   6.721   3.094   0.116 -0.5233 -1.8326  0.2472
  370TIP3    H222670   6.670   3.170  -0.005  1.5245 -0.8779 -0.0595
  371TIP3   OH222671   5.226   6.833   0.081 -0.2694 -0.4276 -0.3387
  371TIP3    H122672   5.226   6.913   0.027 -1.8145 -0.5579 -0.5817
  371TIP3    H222673   5.294   6.778   0.042 -0.6383 -0.0870 -1.5023
  372TIP3   OH222674   1.983   2.308   1.099  0.4984 -0.1449  0.5200
  372TIP3    H122675   2.022   2.393   1.116 -1.7986  0.8434  1.2010
  372TIP3    H222676   1.938   2.319   1.015 -1.9129  0.1897  1.7694
  373TIP3   OH222677   1.768   5.249   1.137  0.6115  0.4698  0.4824
  373TIP3    H122678   1.734   5.172   1.183  0.9487 -0.9122 -1.4775
  373TIP3    H222679   1.858   5.259   1.169  0.4749  0.2525  0.9491
  374TIP3   OH222680   1.598   2.450   1.983  0.4434  0.7392 -0.8315
  374TIP3    H122681   1.622   2.423   2.071  0.8486 -0.1322 -1.1963
  374TIP3    H222682   1.502   2.443   1.981  0.4274  0.8147 -0.4536
  375TIP3   OH222683   2.065   1.869   7.275  0.2299  0.7128  0.2139
  375TIP3    H122684   2.157   1.876   7.252  0.4626 -0.5073  0.6736
  375TIP3    H222685   2.040   1.780   7.248 -1.2788  1.5606 -1.4555
  376TIP3   OH222686   0.190   0.868   1.245 -0.6056  0.1897 -0.0788
  376TIP3    H122687   0.210   0.952   1.203  0.4342  0.0755  0.1559
  376TIP3    H222688   0.207   0.802   1.178  1.7243 -0.0436  0.6582
  377TIP3   OH222689   5.862   6.344   1.242 -0.3619  0.2462 -0.3571
  377TIP3    H122690   5.807   6.266   1.253  0.9991 -0.6004  0.6844
  377TIP3    H222691   5.921   6.343   1.317  0.3720  1.7372 -0.8709
  378TIP3   OH222692   0.770   6.712   1.527  0.2585  0.1943 -0.2761
  378TIP3    H122693   0.780   6.729   1.434  1.9915 -0.8141 -0.3154
  378TIP3    H222694   0.815   6.785   1.570  0.8433 -0.1563 -0.2799
  379TIP3   OH222695   6.654   4.244   1.413  0.0526  0.2280 -0.4604
  379TIP3    H122696   6.648   4.324   1.464  2.3306  0.8020 -0.9545
  379TIP3    H222697   6.685   4.178   1.475  0.6487  0.3734 -0.5981
  380TIP3   OH222698   5.473   6.029   0.836  0.3346 -0.2124  0.1743
  380TIP3    H122699   5.445   6.119   0.856  0.2787 -0.2394  0.2165
  380TIP3    H222700   5.522   6.001   0.913 -0.0002 -0.3668  0.3310
  381TIP3   OH222701   6.399   4.591   0.749  0.3737  0.3919  0.4420
  381TIP3    H122702   6.344   4.668   0.765  1.5420  1.9630 -2.2641
  381TIP3    H222703   6.488   4.622   0.760  0.8556 -0.7866  0.0536
  382TIP3   OH222704   6.569   1.652   2.365  0.8790 -0.6074  0.1242
  382TIP3    H122705   6.522   1.587   2.313 -0.2763 -1.6733  2.3904
  382TIP3    H222706   6.654   1.611   2.383  0.2814 -1.3744  1.2616
  383TIP3   OH222707   5.007   3.127   1.095  0.3896 -0.0523  0.1651
  383TIP3    H122708   5.064   3.156   1.023 -0.1316  1.3904  0.2833
  383TIP3    H222709   4.922   3.112   1.053 -0.4845  2.7787  0.6968
  384TIP3   OH222710   4.996   4.197   0.537  0.1158 -0.0141  0.2731
  384TIP3    H122711   4.908   4.235   0.528  1.0543  2.7248  1.8248
  384TIP3    H222712   5.015   4.162   0.450 -2.0323  0.3474 -0.4131
  385TIP3   OH222713   2.691   6.747   8.077 -0.4634 -1.1159  0.1511
  385TIP3    H122714   2.630   6.675   8.092  0.8177 -2.2356  0.1712
  385TIP3    H222715   2.770   6.722   8.125  0.1791  0.0761 -0.2402
  386TIP3   OH222716   2.189   6.185   7.383 -0.2659 -0.4200  0.3403
  386TIP3    H122717   2.187   6.198   7.478 -0.5525  2.0780  0.0717
  386TIP3    H222718   2.227   6.098   7.371 -0.6512 -0.9872  2.7395
  387TIP3   OH222719   5.328   3.983   0.162  0.4354  0.0361 -0.3682
  387TIP3    H122720   5.361   3.962   0.075  0.6755  0.4285 -0.3721
  387TIP3    H222721   5.405   4.016   0.210  0.4650 -0.8232  0.2088
  388TIP3   OH222722   1.324   0.362   8.459 -0.0118  0.0699 -0.3362
  388TIP3    H122723   1.369   0.331   8.381  1.1640 -0.4013  0.4928
  388TIP3    H222724   1.379   0.333   8.532 -2.0041 -1.1053  0.7909
  389TIP3   OH222725   3.351   0.310   0.064  0.2287  0.0958  0.1791
  389TIP3    H122726   3.328   0.217   0.068  1.6934 -0.4708 -2.3279
  389TIP3    H222727   3.369   0.334   0.155  0.3838 -2.2224  0.8294
  390TIP3   OH222728   4.039   4.779   6.891 -0.1216 -0.3263 -0.1286
  390TIP3    H122729   3.953   4.817   6.873  0.7830  1.5309 -0.7817
  390TIP3    H222730   4.062   4.732   6.811  0.6283  1.5508 -1.0832
  391TIP3   OH222731   2.834   4.531   8.559 -0.0529 -0.5462 -0.5571
  391TIP3    H122732   2.852   4.459   8.499 -0.1227 -0.5975 -0.5165
  391TIP3    H222733   2.848   4.610   8.507 -1.0209 -0.5902 -0.9193
  392TIP3   OH222734   5.531   2.160   1.587 -0.2814  0.1611 -0.7477
  392TIP3    H122735   5.495   2.210   1.660 -0.8404 -0.2394 -0.7501
  392TIP3    H222736   5.523   2.069   1.613 -0.1556  0.0296 -1.1609
  393TIP3   OH222737   0.225   4.837   0.482 -0.2245 -0.0624  0.0780
  393TIP3    H122738   0.229   4.766   0.418  1.7803  1.2098 -1.3108
  393TIP3    H222739   0.161   4.899   0.447 -0.6380 -0.3033  0.3852
  394TIP3   OH222740   2.457   4.694   1.284  0.3709 -0.1684  0.2462
  394TIP3    H122741   2.401   4.757   1.328 -0.7909 -0.2245 -1.1016
  394TIP3    H222742   2.546   4.720   1.310 -0.2324 -0.6390  3.1507
  395TIP3   OH222743   1.701   3.809   6.511  0.3278 -0.6163 -0.0278
  395TIP3    H122744   1.724   3.841   6.598  3.0224 -0.3665 -0.7393
  395TIP3    H222745   1.605   3.805   6.511  0.2382 -0.5531  2.8874
  396TIP3   OH222746   2.313   5.698   7.541 -0.0959 -0.2106 -0.6336
  396TIP3    H122747   2.404   5.716   7.565 -0.5503 -1.3273  2.2621
  396TIP3    H222748   2.313   5.605   7.515 -0.7586 -0.9579  1.8192
  397TIP3   OH222749   6.177   3.774   7.355 -0.0866  0.4289  0.3487
  397TIP3    H122750   6.117   3.700   7.343  3.2622 -2.7088  0.8714
  397TIP3    H222751   6.231   3.749   7.430  2.1426  2.7506 -0.3215
  398TIP3   OH222752   5.476   5.098   7.874  0.5338 -0.1940  0.3600
  398TIP3    H122753   5.545   5.161   7.895 -0.2825  1.1811 -0.8717
  398TIP3    H222754   5.521   5.028   7.826  1.1967  0.2953  0.2505
  399TIP3   OH222755   0.603   6.875   0.914  0.1520 -0.2673 -0.4495
  399TIP3    H122756   0.649   6.912   0.839 -0.5143 -0.8474 -1.1651
  399TIP3    H222757   0.533   6.937   0.932  0.6720  0.1780  0.0921
  400TIP3   OH222758   2.754   5.964   0.962 -0.3604 -0.0450 -0.7506
  400TIP3    H122759   2.740   6.023   0.888  0.2954  1.3273  0.1676
  400TIP3    H222760   2.781   6.022   1.033  0.2219 -1.4661  0.2228
  401TIP3   OH222761   1.626   3.229   1.821 -0.2720  0.2403 -0.4867
  401TIP3    H122762   1.550   3.269   1.862 -1.6612 -1.4820 -1.2613
  401TIP3    H222763   1.642   3.282   1.743 -0.9919  0.3197 -0.5855
  402TIP3   OH222764   3.409   1.863   0.713  0.1834 -0.2332  0.3055
  402TIP3    H122765   3.346   1.803   0.753  0.4432 -0.3965  0.4688
  402TIP3    H222766   3.391   1.947   0.754 -1.7017  0.3564 -1.4954
  403TIP3   OH222767   3.596   2.087   0.026 -0.0503  0.9260 -0.8655
  403TIP3    H122768   3.533   2.040  -0.028  0.7540 -0.8961 -0.3031
  403TIP3    H222769   3.575   2.061   0.116  1.5314  0.1604 -0.6801
  404TIP3   OH222770   5.564   4.214   0.098  0.4291  0.4486 -0.2441
  404TIP3    H122771   5.625   4.206   0.025  0.6109  1.6339 -0.2383
  404TIP3    H222772   5.506   4.286   0.073 -0.3097  0.0255  0.2196
  405TIP3   OH222773   5.713   4.021   7.554 -0.0142 -0.0885 -0.2067
  405TIP3    H122774   5.775   4.075   7.602  0.2239 -1.1181  0.6983
  405TIP3    H222775   5.746   3.931   7.566 -2.0501 -0.7515  0.9364
  406TIP3   OH222776   4.922   5.583   0.300 -0.1672 -0.4494  0.4334
  406TIP3    H122777   4.833   5.616   0.285 -0.8495 -1.4991  1.9260
  406TIP3    H222778   4.975   5.627   0.234 -1.7884  0.2260 -0.4864
  407TIP3   OH222779   5.118   1.371   0.844  0.4158 -0.6785  0.1310
  407TIP3    H122780   5.191   1.331   0.892  0.1222 -0.8411  0.4503
  407TIP3    H222781   5.040   1.326   0.878  0.1625 -0.4550 -0.1525
  408TIP3   OH222782   0.203   0.416   8.388 -0.0301 -0.0646 -0.1000
  408TIP3    H122783   0.120   0.436   8.344 -0.3722 -1.2773 -0.0307
  408TIP3    H222784   0.190   0.330   8.427 -0.3160  1.5685  3.8396
  409TIP3   OH222785   0.702   5.638   0.414 -0.6520  0.0251 -0.1667
  409TIP3    H122786   0.685   5.556   0.459 -1.8057  1.2651  1.7757
  409TIP3    H222787   0.650   5.703   0.461  1.0656  2.0739 -0.9359
  410TIP3   OH222788   2.486   2.525   6.895 -0.1649  0.2043  0.2564
  410TIP3    H122789   2.535   2.553   6.818 -0.6371 -0.4801 -0.3052
  410TIP3    H222790   2.399   2.504   6.863 -0.5867  0.5978  1.1072
  411TIP3   OH222791   1.529   4.659   0.871 -0.0998 -0.4078  0.5678
  411TIP3    H122792   1.459   4.645   0.806  0.8360  0.0462 -0.5740
  411TIP3    H222793   1.529   4.754   0.885 -0.5232 -0.5368  1.5243
  412TIP3   OH222794   5.860   5.594   0.337 -0.1793 -0.1509  0.0923
  412TIP3    H122795   5.890   5.550   0.258 -0.4457 -0.1280 -0.0223
  412TIP3    H222796   5.886   5.536   0.409  0.8856  0.2680  0.0604
  413TIP3   OH222797   6.802   6.086   2.683  0.4523 -0.2840  0.0159
  413TIP3    H122798   6.712   6.114   2.668  0.9965  0.7386 -1.5920
  413TIP3    H222799   6.799   6.039   2.766 -0.9705  2.6096  1.7411
  414TIP3   OH222800   3.886   5.251   1.027  0.4314 -0.1112  0.0238
  414TIP3    H122801   3.914   5.342   1.015  0.8894 -0.2777 -0.1819
  414TIP3    H222802   3.792   5.257   1.041  0.6676  0.5412  1.5750
  415TIP3   OH222803   5.687   4.430   6.390  0.2214 -0.3159 -0.3353
  415TIP3    H122804   5.653   4.511   6.428 -0.7316 -1.1262  0.5827
  415TIP3    H222805   5.630   4.362   6.423  0.2483 -1.2497 -2.0840
  416TIP3   OH222806   3.495   1.772   1.778 -0.3923  0.5016  0.5584
  416TIP3    H122807   3.460   1.858   1.801  1.8604  0.8600  3.2028
  416TIP3    H222808   3.576   1.791   1.731 -0.2881 -0.2195  0.4358
  417TIP3   OH222809   1.560   2.330   1.695 -0.2115  0.2069  0.3552
  417TIP3    H122810   1.577   2.348   1.787  0.5017 -0.9110  0.4590
  417TIP3    H222811   1.489   2.266   1.696  0.7810 -0.9454  0.2174
  418TIP3   OH222812   5.158   0.763   0.976 -0.0769  0.3507 -0.0705
  418TIP3    H122813   5.139   0.844   0.928  2.5417 -0.3065 -2.4936
  418TIP3    H222814   5.134   0.693   0.915 -1.2108 -0.7433  1.5381
  419TIP3   OH222815   2.884   5.082   7.398 -0.4476 -0.5602 -0.1962
  419TIP3    H122816   2.957   5.060   7.341  0.0785 -0.2276  0.3305
  419TIP3    H222817   2.819   5.122   7.340  0.2870  0.2465 -0.4959
  420TIP3   OH222818   5.269   6.517   0.698  0.0410 -0.5742  0.0494
  420TIP3    H122819   5.272   6.541   0.790  0.7500 -1.7184  0.3381
  420TIP3    H222820   5.216   6.586   0.657 -2.5654 -1.4391  1.7314
  421TIP3   OH222821   3.307   3.550   8.031 -0.1508 -0.2719  0.1371
  421TIP3    H122822   3.247   3.483   7.999 -0.5968  0.0883  0.2053
  421TIP3    H222823   3.371   3.561   7.961 -0.0265 -0.8263  0.1599
  422TIP3   OH222824   4.475   5.932   2.518  0.7249 -0.4805  0.3506
  422TIP3    H122825   4.536   5.887   2.576 -0.2199 -1.7629  0.3760
  422TIP3    H222826   4.429   5.862   2.472 -0.2251  0.4759 -0.1919
  423TIP3   OH222827   6.292   1.353   1.306  0.4544  0.0343 -0.2829
  423TIP3    H122828   6.331   1.312   1.383  1.4888 -0.7059 -1.1536
  423TIP3    H222829   6.256   1.279   1.256 -1.6926  0.6555  0.2490
  424TIP3   OH222830   2.349   4.481   6.618 -0.3845  0.6167  0.0252
  424TIP3    H122831   2.352   4.514   6.528  0.9176 -0.8331 -0.5269
  424TIP3    H222832   2.416   4.532   6.664 -1.2803  1.5867  0.2713
  425TIP3   OH222833   4.999   3.434   1.200 -0.3396  0.5534  0.2348
  425TIP3    H122834   4.998   3.342   1.173 -2.2379  0.2794  1.0436
  425TIP3    H222835   5.047   3.433   1.283  0.4076  0.4534 -0.1888
  426TIP3   OH222836   5.164   3.684   1.758 -0.1466 -0.0669 -0.0647
  426TIP3    H122837   5.198   3.773   1.749 -1.4937  0.2955 -2.3933
  426TIP3    H222838   5.116   3.686   1.842  1.6424  0.7102  0.9959
  427TIP3   OH222839   6.137   2.458   1.303 -0.2809  0.0499 -0.2250
  427TIP3    H122840   6.080   2.479   1.377  0.1086 -0.8803  0.3555
  427TIP3    H222841   6.199   2.394   1.338 -0.6108 -1.0383 -1.5631
  428TIP3   OH222842   4.076   3.099   0.007 -0.1132  0.0568  0.3160
  428TIP3    H122843   4.067   3.195   0.003  1.2878  0.1859 -0.5164
  428TIP3    H222844   4.029   3.067  -0.070 -0.9020  0.0270  0.7966
  429TIP3   OH222845   1.264   4.935   8.268  0.0971  0.0396  0.3782
  429TIP3    H122846   1.344   4.972   8.305 -0.0741 -0.1954  0.9882
  429TIP3    H222847   1.287   4.914   8.177 -0.0083  2.3129 -0.2324
  430TIP3   OH222848   4.167   4.428   0.947  0.1544  0.4811  0.0120
  430TIP3    H122849   4.224   4.354   0.969 -0.9181 -0.4002 -0.0866
  430TIP3    H222850   4.129   4.454   1.031 -1.0939 -0.4793 -0.2265
  431TIP3   OH222851   1.693   0.418   1.029 -0.3786 -0.1651 -0.4834
  431TIP3    H122852   1.775   0.418   1.079 -1.2058 -3.1680  1.1662
  431TIP3    H222853   1.644   0.493   1.062  0.9706  0.5871 -0.1567
  432TIP3   OH222854   5.024   6.139   8.132 -0.2089  0.3022  0.3032
  432TIP3    H122855   5.119   6.147   8.127 -0.3143  1.1425 -0.4658
  432TIP3    H222856   4.991   6.188   8.057 -1.1108 -2.9216 -1.6006
  433TIP3   OH222857   6.523   6.006   0.527  0.0030 -0.0796  0.0392
  433TIP3    H122858   6.563   5.920   0.515  0.2519  0.2590 -1.7453
  433TIP3    H222859   6.587   6.068   0.490 -0.6181  0.7891  0.3793
  434TIP3   OH222860   1.689   1.134   0.466  0.4824 -0.1068  0.3360
  434TIP3    H122861   1.783   1.128   0.481  0.5631  0.3752  0.0432
  434TIP3    H222862   1.670   1.228   0.467  0.3610 -0.0591 -1.7409
  435TIP3   OH222863   1.925   1.643   7.933 -0.4757 -0.6184 -0.2209
  435TIP3    H122864   1.989   1.700   7.975  0.5443 -1.0241 -1.1565
  435TIP3    H222865   1.877   1.700   7.873 -1.3790 -0.2055  0.8687
  436TIP3   OH222866   6.535   6.079   2.069  0.6008  0.1541  0.5296
  436TIP3    H122867   6.588   6.060   1.992  2.0161 -0.5478  1.6431
  436TIP3    H222868   6.461   6.129   2.035  0.0800 -1.8799 -1.5955
  437TIP3   OH222869   3.715   2.074   1.301  0.5445 -0.0817  0.2932
  437TIP3    H122870   3.674   2.112   1.379 -0.7905  1.5031 -1.0734
  437TIP3    H222871   3.692   1.981   1.304 -0.1190  0.0992  1.4105
  438TIP3   OH222872   2.435   4.413   8.399  0.5446 -0.1190 -0.4036
  438TIP3    H122873   2.438   4.472   8.324  0.3538  1.1865  0.5762
  438TIP3    H222874   2.470   4.465   8.472 -0.3992 -0.9313  0.6695
  439TIP3   OH222875   2.195   6.812   8.527 -0.4545 -0.2237 -0.0130
  439TIP3    H122876   2.270   6.772   8.571 -0.4717  0.8241  1.0062
  439TIP3    H222877   2.223   6.821   8.436 -0.0964 -1.6386 -0.0605
  440TIP3   OH222878   3.713   3.345   0.312  0.3366  0.0546  0.1427
  440TIP3    H122879   3.677   3.321   0.397  1.2847  0.9690  0.8278
  440TIP3    H222880   3.805   3.366   0.330  0.7153 -0.3571 -1.2187
  441TIP3   OH222881   2.681   0.058   0.219  0.5304  0.0763 -0.1708
  441TIP3    H122882   2.595   0.055   0.259  1.2364 -1.2072  1.3577
  441TIP3    H222883   2.676  -0.005   0.147 -0.0296  0.5721 -0.5685
  442TIP3   OH222884   1.649   3.713   1.084 -0.0851 -0.2233  0.0861
  442TIP3    H122885   1.590   3.686   1.013 -0.5410  2.8531 -0.8685
  442TIP3    H222886   1.735   3.680   1.058 -0.1625  1.1949 -2.1839
  443TIP3   OH222887   6.676   1.235   8.531  0.2615  0.5363  0.2555
  443TIP3    H122888   6.595   1.193   8.558  0.6736 -1.0708 -0.8826
  443TIP3    H222889   6.648   1.315   8.486 -0.5868  0.9633  1.5125
  444TIP3   OH222890   5.166   6.460   2.966 -0.6875  0.5249  0.1138
  444TIP3    H122891   5.099   6.486   2.902 -1.0912  0.1897  0.4013
  444TIP3    H222892   5.248   6.487   2.925 -0.8935 -0.1723 -0.7947
  445TIP3   OH222893   1.493   3.741   7.042 -0.1708 -0.5465 -0.3329
  445TIP3    H122894   1.503   3.820   6.988 -0.6114 -0.7907 -0.7788
  445TIP3    H222895   1.399   3.732   7.054 -0.0300  0.2735  1.6428
  446TIP3   OH222896   5.246   2.843   0.553  0.2504  0.5059 -0.2024
  446TIP3    H122897   5.317   2.825   0.491 -0.6091  0.2693 -1.1532
  446TIP3    H222898   5.285   2.830   0.639  1.6291  1.3804 -0.6608
  447TIP3   OH222899   2.780   2.588   0.477 -0.2586  0.1053  0.0281
  447TIP3    H122900   2.728   2.664   0.504 -2.2143 -0.2387 -2.3513
  447TIP3    H222901   2.835   2.621   0.406  0.0424 -0.3593  0.0461
  448TIP3   OH222902   0.151   0.558   6.748 -0.1419  0.0255 -0.0648
  448TIP3    H122903   0.111   0.493   6.691 -0.3792  1.4040 -1.5369
  448TIP3    H222904   0.229   0.587   6.701 -0.5537  1.4806  0.1137
  449TIP3   OH222905   0.105   0.812   6.868 -0.1127  0.0802  0.0464
  449TIP3    H122906   0.111   0.814   6.964  0.7592  0.0736 -0.0019
  449TIP3    H222907   0.133   0.724   6.844 -1.9606 -0.5173 -0.1376
  450TIP3   OH222908   2.239   1.112   7.608  0.0697 -0.2401  0.2179
  450TIP3    H122909   2.172   1.084   7.545  0.0534  1.1502 -0.4132
  450TIP3    H222910   2.318   1.123   7.556  0.2776  0.1050  0.6015
  451TIP3   OH222911   2.120   3.635   2.229  0.1680 -0.3740  0.3670
  451TIP3    H122912   2.043   3.615   2.176  0.7764  2.6239 -1.9591
  451TIP3    H222913   2.084   3.674   2.309 -0.7364 -0.6367  0.1002
  452TIP3   OH222914   4.193   0.171   0.116 -0.9379  0.5350 -0.9885
  452TIP3    H122915   4.128   0.227   0.159 -0.2586 -0.6321  1.7736
  452TIP3    H222916   4.185   0.086   0.160  0.0053 -0.7375 -3.0916
  453TIP3   OH222917   0.780   6.652   0.728 -0.2404  0.4355 -0.2198
  453TIP3    H122918   0.713   6.700   0.776 -1.9931 -0.5497 -1.5505
  453TIP3    H222919   0.862   6.675   0.771 -1.4170  1.7184  1.4573
  454TIP3   OH222920   1.965   1.477   8.177 -0.0991  0.0070 -0.2687
  454TIP3    H122921   2.036   1.418   8.151 -1.1152 -0.9217 -1.0498
  454TIP3    H222922   1.925   1.504   8.094  0.3837  1.8944  0.0628
  455TIP3   OH222923   4.138   1.998   6.190  0.2658 -0.1616 -0.0194
  455TIP3    H122924   4.088   2.079   6.198 -0.2477 -0.5958  1.4443
  455TIP3    H222925   4.077   1.929   6.219  1.5475 -0.7586  1.3964
  456TIP3   OH222926   3.414   2.730   1.436  0.5900 -0.6280 -0.1559
  456TIP3    H122927   3.388   2.803   1.379 -0.2327 -0.2440  0.6908
  456TIP3    H222928   3.435   2.772   1.520  1.2169 -1.2535  0.0120
  457TIP3   OH222929   0.053   3.251   1.673 -0.3109 -0.0994  0.1613
  457TIP3    H122930  -0.019   3.300   1.635 -1.2170 -1.1163  0.4914
  457TIP3    H222931   0.046   3.164   1.635  0.4045 -0.3704  0.6160
  458TIP3   OH222932   0.473   0.660   0.863 -0.4027  0.4055 -0.5338
  458TIP3    H122933   0.543   0.625   0.919 -1.1243 -0.9822 -0.4510
  458TIP3    H222934   0.455   0.747   0.898  0.2952  0.2086  0.3498
  459TIP3   OH222935   0.953   5.326   8.266  0.4521 -0.1777  0.5322
  459TIP3    H122936   0.892   5.394   8.295 -0.8437 -0.3094 -1.5999
  459TIP3    H222937   1.033   5.374   8.243 -0.1371  0.5496 -0.0869
  460TIP3   OH222938   6.443   3.996   1.615 -0.2151 -0.6332  0.1822
  460TIP3    H122939   6.373   4.061   1.615  0.7789  0.4656 -0.0153
  460TIP3    H222940   6.495   4.016   1.692  1.1441  0.0012 -0.8430
  461TIP3   OH222941   1.561   4.301   8.318  0.2711  0.0633  0.2128
  461TIP3    H122942   1.501   4.341   8.380  2.2845 -0.4699  2.6717
  461TIP3    H222943   1.582   4.216   8.355  0.9268 -0.6619 -1.6695
  462TIP3   OH222944   3.886   5.816   0.676  0.2649 -0.5008  0.2582
  462TIP3    H122945   3.855   5.852   0.759  0.0350 -1.3329  0.5351
  462TIP3    H222946   3.865   5.884   0.612 -2.7746 -1.2518  0.3059
  463TIP3   OH222947   5.280   1.621   1.944 -0.3502  0.4795 -0.4659
  463TIP3    H122948   5.370   1.593   1.958 -0.8197 -1.0651 -0.3276
  463TIP3    H222949   5.239   1.615   2.031 -0.5209  1.4504 -0.4704
  464TIP3   OH222950   6.693   4.885   7.921 -0.1997 -0.2022 -0.0293
  464TIP3    H122951   6.724   4.960   7.871 -1.1684 -0.2831 -0.7818
  464TIP3    H222952   6.612   4.859   7.877 -0.0408 -1.4958  0.4088
  465TIP3   OH222953   5.484   1.279   0.043 -0.2645 -0.5781 -0.1010
  465TIP3    H122954   5.424   1.267   0.117 -2.5619 -0.8124 -1.8884
  465TIP3    H222955   5.488   1.374   0.030 -2.7239 -0.6196 -1.7703
  466TIP3   OH222956   2.940   6.388   0.234  0.3237 -0.0311 -0.5270
  466TIP3    H122957   2.963   6.367   0.143 -3.4019  0.3642 -1.7371
  466TIP3    H222958   2.908   6.478   0.231 -0.4449 -0.2127  1.0440
  467TIP3   OH222959   5.397   5.112   2.092  0.3681  0.2071 -0.5311
  467TIP3    H122960   5.336   5.047   2.126 -0.2704  1.8272  1.6365
  467TIP3    H222961   5.366   5.196   2.128  0.2842  2.0258 -4.3352
  468TIP3   OH222962   4.521   6.314   7.966  0.1998  0.7069  0.1137
  468TIP3    H122963   4.477   6.365   8.034 -1.1699  1.0985 -1.0035
  468TIP3    H222964   4.604   6.359   7.951  0.3297  0.8496  1.2223
  469TIP3   OH222965   0.987   1.273   7.790  0.1463  0.0188 -0.4888
  469TIP3    H122966   1.082   1.280   7.781  0.1852  0.0419 -0.0703
  469TIP3    H222967   0.974   1.211   7.862 -0.1509  0.1692 -0.4115
  470TIP3   OH222968   2.611   2.496   8.355 -0.8072  0.3465 -0.3115
  470TIP3    H122969   2.591   2.430   8.421  0.7820  2.0264  2.0348
  470TIP3    H222970   2.527   2.518   8.316 -1.8518 -0.5962  1.3052
  471TIP3   OH222971   2.542   4.216   0.333 -0.3357  0.5636 -0.0386
  471TIP3    H122972   2.541   4.269   0.412 -1.8321 -1.9100  1.7393
  471TIP3    H222973   2.473   4.253   0.278  0.4981  2.1027 -0.0756
  472TIP3   OH222974   0.298   1.755   0.623 -0.2435 -0.3487 -0.0525
  472TIP3    H122975   0.234   1.773   0.691 -0.5733  0.2756 -0.5126
  472TIP3    H222976   0.258   1.789   0.543  2.2077  3.8017  0.1980
  473TIP3   OH222977   4.309   3.356   0.877 -0.5709 -0.2652  0.0157
  473TIP3    H122978   4.233   3.339   0.933 -0.4662  0.0427  0.2517
  473TIP3    H222979   4.304   3.450   0.859  1.1368  0.2710  2.0536
  474TIP3   OH222980   2.432   5.666   8.472  0.4402  0.6770 -0.5575
  474TIP3    H122981   2.413   5.575   8.449 -1.0271  1.1339 -1.2736
  474TIP3    H222982   2.511   5.688   8.421 -1.0357  0.7396 -2.9754
  475TIP3   OH222983   1.567   1.095   1.693  0.4074 -0.0905  0.2351
  475TIP3    H122984   1.524   1.174   1.725 -0.4380  0.5117 -2.1840
  475TIP3    H222985   1.519   1.071   1.613  1.6819 -2.0887 -0.0181
  476TIP3   OH222986   4.075   2.681   2.183 -0.4994  0.4045  0.6642
  476TIP3    H122987   4.024   2.616   2.232 -0.2290  1.0426  1.8248
  476TIP3    H222988   4.142   2.710   2.245 -0.6478  1.8288  0.1846
  477TIP3   OH222989   6.077   3.972   2.389  0.3676  0.1292  0.1552
  477TIP3    H122990   6.128   3.935   2.461  1.2368  0.0015 -0.5115
  477TIP3    H222991   6.138   4.033   2.346  0.8724 -1.9378 -2.2495
  478TIP3   OH222992   6.674   6.531   1.957 -0.7703  0.4013 -0.1008
  478TIP3    H122993   6.759   6.574   1.968 -0.7593  0.3471  0.0217
  478TIP3    H222994   6.657   6.537   1.863  0.1629 -1.0594 -0.3981
  479TIP3   OH222995   1.892   1.810   2.125  0.3590  0.4374  0.4346
  479TIP3    H122996   1.977   1.767   2.137  0.2978  0.0251 -0.5277
  479TIP3    H222997   1.869   1.792   2.034 -0.7148  0.6331  0.6559
  480TIP3   OH222998   3.591   2.609   7.203 -0.1792  0.6850 -0.4899
  480TIP3    H122999   3.660   2.554   7.166  1.6676  1.3024  1.7920
  480TIP3    H223000   3.512   2.556   7.194  1.3737 -2.1078  0.8982
  481TIP3   OH223001   3.177   3.160   0.537  0.0240 -0.0215  0.7870
  481TIP3    H123002   3.192   3.114   0.620  0.9999 -0.3339  0.4587
  481TIP3    H223003   3.245   3.228   0.535 -0.4674  0.4705  0.5809
  482TIP3   OH223004   4.874   0.529   1.782 -0.3541 -0.0119 -0.1697
  482TIP3    H123005   4.811   0.541   1.853  1.4713 -0.6475  1.6635
  482TIP3    H223006   4.853   0.444   1.743 -1.1561  0.1866 -0.1724
  483TIP3   OH223007   5.550   0.622   2.288  0.3354 -0.0145 -0.0425
  483TIP3    H123008   5.637   0.582   2.292  0.4044  0.2355  1.9490
  483TIP3    H223009   5.490   0.548   2.280  0.6667 -0.2414 -0.5086
  484TIP3   OH223010   2.030   5.758   1.667 -0.1424 -0.1596  0.8078
  484TIP3    H123011   1.958   5.788   1.722  1.0090  1.3059  1.6065
  484TIP3    H223012   2.032   5.821   1.595 -0.5253 -1.0236  0.0297
  485TIP3   OH223013   4.099   0.544   7.276  0.6421  0.3120 -0.2244
  485TIP3    H123014   4.123   0.625   7.231 -1.9374  0.3750 -1.6892
  485TIP3    H223015   4.150   0.476   7.234 -0.3286  0.6405 -2.0322
  486TIP3   OH223016   4.947   4.048   1.092  0.4869  0.3449 -0.1813
  486TIP3    H123017   4.951   4.131   1.046  0.1216  0.0196 -0.8178
  486TIP3    H223018   4.961   3.982   1.024  0.8333 -0.1153  0.3214
  487TIP3   OH223019   6.349   4.334   0.827 -0.2798  0.2667 -0.1747
  487TIP3    H123020   6.256   4.340   0.849  0.1188  0.5924  1.5157
  487TIP3    H223021   6.381   4.424   0.829 -0.1371  0.2991 -1.9216
  488TIP3   OH223022   1.806   5.813   0.869 -0.5150  0.3719  0.0693
  488TIP3    H123023   1.817   5.777   0.957 -0.9424  0.8571  0.3249
  488TIP3    H223024   1.770   5.901   0.883 -0.1687  0.6239 -0.5722
  489TIP3   OH223025   5.627   4.581   1.313  0.3417  0.2423  0.0984
  489TIP3    H123026   5.610   4.507   1.371  2.0752  1.3503  2.1554
  489TIP3    H223027   5.720   4.575   1.293 -0.0304  0.4254 -1.8820
  490TIP3   OH223028   3.789   0.003   2.378  0.2300 -0.3740  0.0092
  490TIP3    H123029   3.744  -0.019   2.460 -1.2587 -0.2551 -0.7240
  490TIP3    H223030   3.848   0.074   2.401 -1.0707  0.5191  0.7657
  491TIP3   OH223031   6.139   2.802   2.031  0.5000 -0.1855 -0.8819
  491TIP3    H123032   6.112   2.800   1.939 -0.0381  1.7851 -0.7955
  491TIP3    H223033   6.177   2.888   2.043  1.6551 -0.8562  0.4704
  492TIP3   OH223034   1.889   3.602   0.549 -0.2535  0.2845 -0.0768
  492TIP3    H123035   1.969   3.641   0.583 -0.8487  1.1945  0.3124
  492TIP3    H223036   1.820   3.664   0.572 -0.7336  0.8824 -2.8342
  493TIP3   OH223037   2.065   4.098   7.120 -0.1851 -0.5840  0.4251
  493TIP3    H123038   2.075   4.180   7.071 -2.5730  0.4529  1.4698
  493TIP3    H223039   2.145   4.049   7.103  1.4617  2.0771 -0.0559
  494TIP3   OH223040   2.433   6.399   1.050  0.1521 -1.0109 -0.2517
  494TIP3    H123041   2.462   6.371   1.137 -0.9763 -0.6657  0.2572
  494TIP3    H223042   2.431   6.318   0.999 -0.5258 -1.4515  0.4536
  495TIP3   OH223043   0.344   0.131   6.512  0.3777  0.0695 -0.0254
  495TIP3    H123044   0.295   0.194   6.460  1.3681  0.9885  0.1086
  495TIP3    H223045   0.428   0.174   6.528  2.0031 -2.1984 -1.8575
  496TIP3   OH223046   1.392   0.981   1.510 -0.2677  0.0054  0.1963
  496TIP3    H123047   1.345   0.940   1.438 -2.5077  3.1904 -0.4044
  496TIP3    H223048   1.346   0.952   1.589 -0.9516  0.2528 -0.1048
  497TIP3   OH223049   3.899   0.119   6.505 -0.5332  0.5965  0.2541
  497TIP3    H123050   3.942   0.132   6.589  0.0923 -0.7965  0.1850
  497TIP3    H223051   3.852   0.201   6.489  3.0685  2.8000 -0.2604
  498TIP3   OH223052   0.644   3.878   0.141 -0.8614 -0.4189 -0.3231
  498TIP3    H123053   0.559   3.842   0.116 -1.0452  0.8027 -1.5927
  498TIP3    H223054   0.627   3.928   0.221 -1.3580 -0.1401 -0.5977
  499TIP3   OH223055   0.911   4.748   1.831 -0.1344 -0.4344 -0.1087
  499TIP3    H123056   0.943   4.712   1.914  0.3099 -0.1022 -0.1289
  499TIP3    H223057   0.991   4.771   1.783 -0.4006 -0.1232 -0.4049
  500TIP3   OH223058   4.454   6.701   7.483  0.2397  0.1565  0.5631
  500TIP3    H123059   4.447   6.662   7.570  0.9942 -2.8085 -0.5752
  500TIP3    H223060   4.401   6.644   7.427  1.8047  0.4500 -1.3394
  501TIP3   OH223061   2.984   0.157   0.166 -0.3356  0.2581  0.1318
  501TIP3    H123062   3.012   0.197   0.249  1.4692 -0.9487  0.1641
  501TIP3    H223063   2.904   0.110   0.188 -0.3897  0.7255  0.9803
  502TIP3   OH223064   1.819   2.029   8.245 -0.2121  0.3128 -0.1676
  502TIP3    H123065   1.788   2.074   8.166 -0.8285 -0.4706 -0.3849
  502TIP3    H223066   1.836   1.940   8.217 -2.2752 -0.5122  0.9604
  503TIP3   OH223067   5.912   6.417   0.652  0.0562 -0.3426  0.1278
  503TIP3    H123068   5.873   6.331   0.668 -1.0559  0.1881  0.3911
  503TIP3    H223069   6.002   6.409   0.683 -0.2489 -1.2007  0.8256
  504TIP3   OH223070   3.542   4.067   2.414 -0.2505 -0.0631 -0.2904
  504TIP3    H123071   3.559   4.161   2.425  0.8525 -0.2686 -0.1190
  504TIP3    H223072   3.586   4.044   2.332 -0.5093 -0.4365 -0.3282
  505TIP3   OH223073   0.637   1.764   7.457  0.5380  0.0987  0.1833
  505TIP3    H123074   0.689   1.693   7.493 -0.7899 -1.2640 -0.4570
  505TIP3    H223075   0.611   1.817   7.533  1.0670 -0.4194  0.7321
  506TIP3   OH223076   4.059   0.993   1.130 -0.0136 -0.1599 -0.2039
  506TIP3    H123077   3.971   1.015   1.161 -0.8385  0.3536 -2.6478
  506TIP3    H223078   4.080   1.062   1.066  1.7858 -0.7771 -0.3429
  507TIP3   OH223079   3.647   3.017   1.483 -0.3120 -0.4949 -0.4348
  507TIP3    H123080   3.743   3.012   1.483 -0.2548 -0.0669  1.4629
  507TIP3    H223081   3.618   2.930   1.511 -0.3227  0.2028  1.9680
  508TIP3   OH223082   4.815   6.412   1.034  0.1586  0.2185 -0.2933
  508TIP3    H123083   4.857   6.432   1.118 -0.8179 -1.0191  0.5274
  508TIP3    H223084   4.856   6.331   1.005 -1.1709 -0.6538  0.2031
  509TIP3   OH223085   2.007   0.144   7.291 -0.5305  0.2400  0.0147
  509TIP3    H123086   1.917   0.176   7.280 -0.8516  0.1141  1.9242
  509TIP3    H223087   2.029   0.103   7.207 -2.3721 -0.0089 -0.3806
  510TIP3   OH223088   3.843   3.000   8.067  0.0255 -0.0967  0.0374
  510TIP3    H123089   3.912   3.010   8.000 -0.0110  0.6086  0.1041
  510TIP3    H223090   3.879   2.935   8.128  0.2073 -0.4837 -0.4712
  511TIP3   OH223091   1.585   1.693   7.807  0.8617 -0.4618 -0.1194
  511TIP3    H123092   1.671   1.726   7.781  1.1521 -0.7341  0.4570
  511TIP3    H223093   1.604   1.607   7.847  0.5792  0.3541  1.9011
  512TIP3   OH223094   5.021   6.381   0.741  0.4084 -0.5226  0.6607
  512TIP3    H123095   5.026   6.312   0.808  1.4971 -0.5231  0.5953
  512TIP3    H223096   5.112   6.409   0.729  0.2922 -0.7819 -1.0908
  513TIP3   OH223097   0.439   2.959   7.566  0.4072  0.0195 -0.0195
  513TIP3    H123098   0.402   2.983   7.481 -0.0608 -1.1337 -0.1594
  513TIP3    H223099   0.420   3.034   7.622 -0.2131  0.3524 -0.6561
  514TIP3   OH223100   0.102   0.671   7.417 -0.1264  0.7947 -0.6604
  514TIP3    H123101   0.056   0.716   7.488 -0.0668 -0.0446 -0.0756
  514TIP3    H223102   0.057   0.587   7.410  0.0908  0.7363 -1.3968
  515TIP3   OH223103   4.500   6.094   7.248  0.3997 -0.2013  0.0091
  515TIP3    H123104   4.579   6.145   7.263  0.5739 -0.6342  0.5893
  515TIP3    H223105   4.522   6.005   7.277 -1.2402  0.3051  3.4162
  516TIP3   OH223106   2.716   6.345   6.907  0.8430 -0.0818 -0.3350
  516TIP3    H123107   2.807   6.318   6.920  1.1901  0.6152 -1.2296
  516TIP3    H223108   2.706   6.352   6.812  0.6762  2.5555 -0.1978
  517TIP3   OH223109   6.056   3.210   0.373 -0.2231  0.1581 -0.2687
  517TIP3    H123110   5.986   3.275   0.378 -0.7450 -0.4778  1.6151
  517TIP3    H223111   6.012   3.126   0.384  0.6314 -0.4168 -1.0623
  518TIP3   OH223112   0.060   1.409   1.495 -0.2436 -0.1684  0.3260
  518TIP3    H123113   0.041   1.481   1.555  3.2747 -0.5954  2.1975
  518TIP3    H223114   0.101   1.451   1.420 -1.3562  0.0303 -0.1927
  519TIP3   OH223115   1.600   4.882   2.007 -0.5339  0.0467 -0.3034
  519TIP3    H123116   1.555   4.897   1.924 -0.6375 -2.3209 -0.7434
  519TIP3    H223117   1.598   4.787   2.019  2.7771 -0.0498  0.5431
  520TIP3   OH223118   2.585   5.777   7.573 -0.0207  0.2379  0.2775
  520TIP3    H123119   2.571   5.744   7.662 -5.3284  0.9029  0.0510
  520TIP3    H223120   2.647   5.849   7.583 -2.2633  1.9339  4.0339
  521TIP3   OH223121   1.140   0.611   6.942 -0.5579  0.1085 -0.5564
  521TIP3    H123122   1.224   0.599   6.985  0.9361 -0.2346 -3.3643
  521TIP3    H223123   1.075   0.599   7.012  1.6665 -0.1140  1.5838
  522TIP3   OH223124   2.785   2.104   1.302 -0.2261 -0.4044  0.1381
  522TIP3    H123125   2.796   2.092   1.397  1.1143  0.1163  0.0671
  522TIP3    H223126   2.842   2.178   1.281 -2.7220  1.4322 -0.6250
  523TIP3   OH223127   0.881   1.844   1.739 -0.2133 -0.1182  0.6010
  523TIP3    H123128   0.792   1.852   1.774  0.0254  0.2517  1.1438
  523TIP3    H223129   0.887   1.754   1.708 -0.8682 -0.0658  0.3131
  524TIP3   OH223130   2.521   5.470   3.318 -0.0042 -0.1897 -0.3718
  524TIP3    H123131   2.462   5.522   3.372  0.6752 -0.2488  0.4424
  524TIP3    H223132   2.571   5.534   3.267  0.8915 -0.0249  0.6911
  525TIP3   OH223133   2.827   5.220   0.388  0.4552  0.2614 -0.2445
  525TIP3    H123134   2.834   5.275   0.466 -0.4033  1.4987 -0.9901
  525TIP3    H223135   2.807   5.132   0.422  0.3539  0.7208  0.9269
  526TIP3   OH223136   4.535   2.514   1.173  0.1765  0.5329 -0.1308
  526TIP3    H123137   4.522   2.607   1.190 -0.2420  0.2440  1.2904
  526TIP3    H223138   4.465   2.490   1.113  1.2689  1.4577 -1.8536
  527TIP3   OH223139   0.723   1.654   0.844 -0.7002 -0.1243 -0.3218
  527TIP3    H123140   0.752   1.566   0.868 -0.1624 -0.3700 -1.7690
  527TIP3    H223141   0.761   1.711   0.912  1.3678 -0.7008 -0.9249
  528TIP3   OH223142   1.322   4.594   7.579 -0.2078 -0.0319  0.1634
  528TIP3    H123143   1.253   4.538   7.543  1.3493 -2.9571  1.3916
  528TIP3    H223144   1.277   4.648   7.644 -1.7700  0.0657 -0.9486
  529TIP3   OH223145   1.238   2.488   7.033  0.8785  0.2915 -0.5818
  529TIP3    H123146   1.285   2.415   6.994  0.0294 -1.3386  1.2631
  529TIP3    H223147   1.307   2.545   7.069  1.5348 -0.9863  0.2659
  530TIP3   OH223148   4.391   4.770   7.741 -0.6004  0.2125  0.2366
  530TIP3    H123149   4.426   4.736   7.658  0.4520  1.2333  0.2461
  530TIP3    H223150   4.468   4.797   7.790 -1.2877  0.5813  1.1310
  531TIP3   OH223151   1.397   1.800   8.252 -0.0847  0.3980  0.2203
  531TIP3    H123152   1.335   1.769   8.318  0.5137 -1.1423  0.0831
  531TIP3    H223153   1.342   1.825   8.177 -0.6107 -0.0920  0.4349
  532TIP3   OH223154   5.510   1.149   7.377 -0.6247 -0.2429 -0.4605
  532TIP3    H123155   5.599   1.148   7.341 -0.8752 -0.5690 -1.0872
  532TIP3    H223156   5.453   1.150   7.301 -1.1723  1.1224 -0.0623
  533TIP3   OH223157   2.423   0.095   1.590 -0.0432  0.3128  0.5036
  533TIP3    H123158   2.504   0.146   1.589 -0.1015  0.4212  0.9552
  533TIP3    H223159   2.363   0.145   1.645  0.6348 -1.3184  2.8898
  534TIP3   OH223160   2.753   2.207   7.027 -0.7861 -0.0450 -0.1993
  534TIP3    H123161   2.797   2.276   7.076 -2.8080 -0.1535  1.9645
  534TIP3    H223162   2.666   2.200   7.068 -1.2828 -2.6666 -1.4659
  535TIP3   OH223163   4.883   3.857   0.304 -0.1816  0.3700  0.4103
  535TIP3    H123164   4.973   3.886   0.289 -0.0270  0.1604  0.9372
  535TIP3    H223165   4.887   3.803   0.383 -0.8038  0.5300  0.5581
  536TIP3   OH223166   2.251   4.456   1.856 -0.2918  0.1599  0.4250
  536TIP3    H123167   2.205   4.534   1.826 -1.3226 -0.4805  0.2961
  536TIP3    H223168   2.249   4.396   1.781 -0.3597 -0.3522  0.8279
  537TIP3   OH223169   1.418   4.894   0.218  0.3838  0.6969  0.3455
  537TIP3    H123170   1.383   4.833   0.283  0.8845  0.6638  0.5946
  537TIP3    H223171   1.355   4.965   0.215  0.2546  0.6003  0.7287
  538TIP3   OH223172   2.245   5.618   1.142  0.5334  0.8143  0.2124
  538TIP3    H123173   2.341   5.611   1.139  0.6099  1.3970  1.0129
  538TIP3    H223174   2.223   5.676   1.070  0.9106  1.7989  0.8731
  539TIP3   OH223175   6.427   1.930   8.042 -0.4335  0.2218 -0.4383
  539TIP3    H123176   6.385   1.923   8.128 -1.0908 -1.6723 -0.8761
  539TIP3    H223177   6.483   2.008   8.049 -0.4422  0.0889  1.7019
  540TIP3   OH223178   4.851   6.831   7.110  0.3857 -0.6423  0.0665
  540TIP3    H123179   4.914   6.776   7.064 -1.5826 -2.4966 -0.5797
  540TIP3    H223180   4.771   6.779   7.112 -1.2209  1.7064  0.6237
  541TIP3   OH223181   1.678   1.699   7.433 -0.7696 -0.5392 -0.8823
  541TIP3    H123182   1.713   1.664   7.351  0.1334  0.3718 -0.9040
  541TIP3    H223183   1.653   1.789   7.413  0.0989 -0.0800 -0.0192
  542TIP3   OH223184   6.733   0.931   7.763 -0.1381 -0.3706  0.8097
  542TIP3    H123185   6.815   0.910   7.717 -0.6130 -1.1831  0.2957
  542TIP3    H223186   6.670   0.867   7.728 -1.3955  1.2413  0.0125
  543TIP3   OH223187   2.455   6.656   0.925 -0.4659  0.0108  0.3278
  543TIP3    H123188   2.488   6.638   0.837 -0.5934  0.9431  0.0748
  543TIP3    H223189   2.428   6.571   0.960 -1.1570 -0.2611 -0.8376
  544TIP3   OH223190   1.184   3.727   2.122  0.5961  0.4109 -0.1528
  544TIP3    H123191   1.162   3.699   2.033  0.7310  2.6386 -0.9481
  544TIP3    H223192   1.187   3.822   2.117  0.3700  0.6080  2.3206
  545TIP3   OH223193   5.482   0.036   1.139  0.0571 -0.0859  0.0069
  545TIP3    H123194   5.550   0.033   1.207  0.6308 -1.4487 -0.6055
  545TIP3    H223195   5.416  -0.026   1.169 -0.4707  0.5083  0.1034
  546TIP3   OH223196   6.879   5.313   2.836  0.0344  0.2473  0.5377
  546TIP3    H123197   6.962   5.271   2.812  0.1327 -0.4523  1.9565
  546TIP3    H223198   6.905   5.395   2.877 -0.0858  0.9461 -0.7374
  547TIP3   OH223199   4.869   2.424   8.345  0.0092  0.1166 -0.3785
  547TIP3    H123200   4.888   2.330   8.351  0.0636  0.0883 -0.9232
  547TIP3    H223201   4.883   2.445   8.253 -0.4067  0.5774 -0.3388
  548TIP3   OH223202   5.095   4.623   0.999  0.2580 -0.1959 -0.3683
  548TIP3    H123203   5.087   4.548   0.940 -0.5552 -0.3921 -0.0198
  548TIP3    H223204   5.005   4.641   1.027  0.6396 -0.1917  0.9244
  549TIP3   OH223205   5.300   5.645   0.375  0.2192  0.1515 -0.0799
  549TIP3    H123206   5.348   5.687   0.302  0.3560  0.6328  0.2792
  549TIP3    H223207   5.262   5.719   0.423  0.9262 -0.0957  0.8872
  550TIP3   OH223208   3.905   1.657   8.207  0.8578 -0.0166  0.0951
  550TIP3    H123209   3.904   1.654   8.303  2.0941 -0.7879  0.1079
  550TIP3    H223210   3.892   1.566   8.181  1.7717 -0.0009 -0.4410
  551TIP3   OH223211   0.722   0.329   7.471  0.3323  0.2519  0.1245
  551TIP3    H123212   0.716   0.302   7.379  2.0028  2.6653 -0.8227
  551TIP3    H223213   0.790   0.273   7.508 -0.4885 -0.8699 -0.0186
  552TIP3   OH223214   5.043   4.321   1.667 -0.1854 -0.2290  0.0912
  552TIP3    H123215   5.067   4.229   1.652 -1.7130 -0.6227 -0.1071
  552TIP3    H223216   4.982   4.319   1.740 -0.1692  0.6426  0.1430
  553TIP3   OH223217   6.197   5.401   1.970  0.0509  0.6651 -0.0075
  553TIP3    H123218   6.282   5.373   2.005  0.7386  2.1125 -0.4307
  553TIP3    H223219   6.217   5.429   1.880 -0.5289  2.6030  0.4330
  554TIP3   OH223220   2.192   5.286   8.187 -0.2614  0.2099 -0.4764
  554TIP3    H123221   2.099   5.268   8.187 -0.5349  1.2248  1.8274
  554TIP3    H223222   2.204   5.350   8.258  1.9755  1.2084 -1.6452
  555TIP3   OH223223   1.920   5.354   0.278  1.2611  0.4015  0.1661
  555TIP3    H123224   1.957   5.267   0.294  1.8767  0.0907 -2.4401
  555TIP3    H223225   1.826   5.340   0.273  1.5013 -1.1243 -4.5320
  556TIP3   OH223226   3.703   4.923   1.994  0.0227  0.0348  0.2474
  556TIP3    H123227   3.615   4.917   1.958  0.6089 -1.1605 -1.0925
  556TIP3    H223228   3.747   4.990   1.943  0.0414  0.2753  0.5764
  557TIP3   OH223229   5.317   2.792   7.739  0.3086 -0.1723  0.0384
  557TIP3    H123230   5.399   2.776   7.786 -0.5144 -0.1499  1.5440
  557TIP3    H223231   5.337   2.865   7.680  1.5137 -0.5370 -0.0307
  558TIP3   OH223232   1.245   5.862   1.368  0.2653  0.1183  0.1358
  558TIP3    H123233   1.307   5.789   1.369 -0.3292 -0.3896  0.6161
  558TIP3    H223234   1.263   5.907   1.285  1.1162 -0.1512  0.1633
  559TIP3   OH223235   0.477   6.868   1.655  1.2314  0.3642  0.1624
  559TIP3    H123236   0.478   6.798   1.590 -0.4305  1.7773 -1.4900
  559TIP3    H223237   0.568   6.897   1.660  2.3196 -2.8376  2.0977
  560TIP3   OH223238   0.067   5.925   8.245  0.3529 -0.3430 -0.0101
  560TIP3    H123239   0.127   5.997   8.263 -0.4484  0.2588  0.3103
  560TIP3    H223240   0.002   5.961   8.186 -0.9377 -0.3232  1.3506
  561TIP3   OH223241   3.927   1.081   8.180  0.4032  0.3674  0.2448
  561TIP3    H123242   4.001   1.088   8.241  0.1486 -0.0145  0.6083
  561TIP3    H223243   3.851   1.104   8.233  0.3835  1.9919 -0.4496
  562TIP3   OH223244   0.929   5.379   7.508 -0.5197 -1.0622 -0.5251
  562TIP3    H123245   0.998   5.436   7.540 -0.7435 -0.7553 -0.5800
  562TIP3    H223246   0.951   5.363   7.416  0.3019 -2.2121 -0.1482
  563TIP3   OH223247   0.211   4.620   0.679  0.3007 -0.4440 -0.3120
  563TIP3    H123248   0.179   4.624   0.589 -1.7080  1.1695  0.3972
  563TIP3    H223249   0.203   4.710   0.711  4.5355 -0.1314  0.3939
  564TIP3   OH223250   1.812   1.166   2.304  0.2700  0.3462  0.2726
  564TIP3    H123251   1.816   1.143   2.211 -1.5941  1.5443 -0.1615
  564TIP3    H223252   1.720   1.158   2.327  0.8066 -0.7278  2.2771
  565TIP3   OH223253   6.821   1.155   7.935  0.1132 -0.1914 -0.4368
  565TIP3    H123254   6.779   1.198   7.861 -1.2134 -1.6679 -0.5986
  565TIP3    H223255   6.912   1.143   7.907 -0.0866  0.3135 -1.3480
  566TIP3   OH223256   2.954   5.772   2.061 -0.7901 -0.5572  0.7811
  566TIP3    H123257   2.867   5.801   2.034 -1.4138 -1.5839  1.6098
  566TIP3    H223258   2.937   5.702   2.124  0.6426 -2.3790 -0.7626
  567TIP3   OH223259   3.580   3.973   7.441 -0.5149  0.0477  0.0737
  567TIP3    H123260   3.568   4.027   7.519  0.4183  1.8191 -0.9278
  567TIP3    H223261   3.527   4.017   7.374  1.1355  0.4094 -1.0469
  568TIP3   OH223262   5.170   2.475   7.474 -0.2347  0.1176 -0.6989
  568TIP3    H123263   5.086   2.501   7.434 -0.1880  2.1585  0.4379
  568TIP3    H223264   5.204   2.555   7.513  2.8630 -0.3692 -2.1047
  569TIP3   OH223265   1.288   6.287   1.702  0.0876  0.2144  0.2754
  569TIP3    H123266   1.328   6.211   1.745 -0.3283 -0.4829 -0.5520
  569TIP3    H223267   1.231   6.250   1.635  0.8013  1.2828 -0.9622
  570TIP3   OH223268   2.034   0.435   0.738  0.3080 -0.0906 -0.1611
  570TIP3    H123269   1.974   0.509   0.733  0.7329  0.3617  1.1181
  570TIP3    H223270   2.085   0.440   0.657 -0.3507  0.4019 -0.5598
  571TIP3   OH223271   0.235   1.408   6.458  0.1902 -0.1417 -0.2435
  571TIP3    H123272   0.185   1.326   6.462  0.4696 -0.4465 -1.9520
  571TIP3    H223273   0.177   1.474   6.496 -0.9102 -0.7669 -0.7841
  572TIP3   OH223274   2.801   4.443   6.886  0.0740  0.6678  0.3387
  572TIP3    H123275   2.787   4.372   6.823  1.1672  1.6910 -1.1025
  572TIP3    H223276   2.750   4.417   6.962 -2.7956  0.2362 -1.5857
  573TIP3   OH223277   1.491   1.574   1.705  0.2476  0.3856 -0.2011
  573TIP3    H123278   1.524   1.608   1.788 -2.2160  1.1087  0.5725
  573TIP3    H223279   1.488   1.479   1.718  2.0835  0.2880 -0.3633
  574TIP3   OH223280   2.497   4.657   7.350  0.0540 -0.6914  0.2161
  574TIP3    H123281   2.476   4.598   7.423 -1.9952 -1.4460 -0.9163
  574TIP3    H223282   2.413   4.673   7.307  0.1393  4.4285  1.3758
  575TIP3   OH223283   4.215   0.357   7.143 -0.4867  0.5301 -0.2172
  575TIP3    H123284   4.227   0.378   7.050 -0.6692  0.7960 -0.1816
  575TIP3    H223285   4.295   0.390   7.185  0.2228 -0.8187 -0.4681
  576TIP3   OH223286   4.627   3.862   0.569  0.3281  0.5947 -0.0496
  576TIP3    H123287   4.683   3.907   0.506  2.0088 -0.6831  0.4438
  576TIP3    H223288   4.591   3.788   0.521 -0.1510  0.8505 -0.0904
  577TIP3   OH223289   4.574   1.586   8.297  0.6026 -0.5950  0.3961
  577TIP3    H123290   4.524   1.667   8.300  1.1502 -0.0829 -1.8165
  577TIP3    H223291   4.513   1.518   8.325  0.2399  0.5793  2.6351
  578TIP3   OH223292   3.199   6.316   7.683  0.0758  0.3825 -0.3052
  578TIP3    H123293   3.213   6.274   7.768 -1.5046 -0.7640 -0.5624
  578TIP3    H223294   3.284   6.352   7.660  0.0874  2.7864  2.8070
  579TIP3   OH223295   2.315   3.431   0.620 -0.0873  0.0371  0.3915
  579TIP3    H123296   2.290   3.378   0.696 -2.9478 -0.5759 -0.8355
  579TIP3    H223297   2.411   3.439   0.627 -0.1401 -0.5759  3.6087
  580TIP3   OH223298   1.970   4.749   8.221 -0.1072 -0.3266 -0.2774
  580TIP3    H123299   2.005   4.837   8.208 -0.9588  0.6436  3.1344
  580TIP3    H223300   2.045   4.696   8.246 -0.1199  0.4073  1.4403
  581TIP3   OH223301   2.741   1.071   0.691  0.4501  0.1058 -0.4500
  581TIP3    H123302   2.715   1.048   0.781  1.4481 -1.9924 -0.6360
  581TIP3    H223303   2.677   1.028   0.636  1.3953 -0.9439 -0.7750
  582TIP3   OH223304   4.414   6.073   1.350 -0.3344 -0.2593 -0.1119
  582TIP3    H123305   4.359   6.110   1.280  1.7779  3.2969 -0.1329
  582TIP3    H223306   4.469   6.010   1.306 -0.1284  0.7700 -1.4008
  583TIP3   OH223307   1.683   2.004   7.205 -0.6523  0.1259  0.0054
  583TIP3    H123308   1.621   1.932   7.219  1.1218 -1.1991  1.5078
  583TIP3    H223309   1.746   1.969   7.141  0.8847 -0.1692  1.6084
  584TIP3   OH223310   3.751   1.992   0.617 -0.3069  0.2332 -0.5431
  584TIP3    H123311   3.731   1.904   0.650  0.4018  0.8650  1.7818
  584TIP3    H223312   3.829   2.018   0.665  1.3012  1.0140 -3.3793
  585TIP3   OH223313   0.501   2.198   7.108  0.0065  0.0946  0.3455
  585TIP3    H123314   0.578   2.162   7.151  0.4351 -1.3283 -1.4907
  585TIP3    H223315   0.522   2.289   7.092  0.8659 -0.0154  0.8254
  586TIP3   OH223316   6.194   6.749   8.250  0.1433 -0.0784 -0.1740
  586TIP3    H123317   6.241   6.730   8.169  0.3224  0.3069 -0.1615
  586TIP3    H223318   6.222   6.837   8.275  0.3239 -0.3092  0.4752
  587TIP3   OH223319   2.961   3.890   6.989  0.2151  0.0228 -0.3221
  587TIP3    H123320   2.904   3.896   6.913 -0.0644 -1.5265 -0.2685
  587TIP3    H223321   2.996   3.978   7.000 -0.5782  0.5189 -1.5863
  588TIP3   OH223322   2.055   0.027   2.140 -0.3449 -0.3183  0.3347
  588TIP3    H123323   2.074   0.056   2.229 -0.7030 -2.0073  1.0102
  588TIP3    H223324   1.963   0.051   2.126  0.4595  2.5189 -0.7121
  589TIP3   OH223325   2.141   3.174   8.166 -0.3832  0.1455 -0.2177
  589TIP3    H123326   2.117   3.231   8.093  2.1008  1.9054  0.2341
  589TIP3    H223327   2.093   3.210   8.241 -0.8872 -0.0443 -0.4402
  590TIP3   OH223328   2.538   3.877   0.331  0.2646  0.4320  0.4199
  590TIP3    H123329   2.617   3.856   0.382  0.8406  0.1058 -0.5845
  590TIP3    H223330   2.572   3.907   0.247 -0.6881  0.4998  0.0572
  591TIP3   OH223331   4.405   5.375   1.716  0.2002 -0.6357  0.0982
  591TIP3    H123332   4.326   5.357   1.768 -0.8741  1.8566 -0.5262
  591TIP3    H223333   4.385   5.456   1.669  2.5284 -0.8364 -1.3977
  592TIP3   OH223334   3.467   4.533   7.246  0.1123  0.3889  0.1907
  592TIP3    H123335   3.507   4.589   7.180 -0.6486 -0.1750 -0.7681
  592TIP3    H223336   3.505   4.563   7.329 -0.1288  2.1904 -0.3023
  593TIP3   OH223337   5.493   2.322   0.806 -0.5861  0.0739  0.3448
  593TIP3    H123338   5.569   2.301   0.860 -0.4402 -1.2490 -0.3215
  593TIP3    H223339   5.531   2.352   0.723 -0.8058  1.6137  0.7857
  594TIP3   OH223340   6.712   1.789   7.481  0.6572  0.2474  0.1914
  594TIP3    H123341   6.715   1.708   7.532  1.0756  0.2715  0.2067
  594TIP3    H223342   6.769   1.773   7.406  0.3327  0.3439 -0.0820
  595TIP3   OH223343   6.093   0.760   8.236  0.4832  0.1363  0.7387
  595TIP3    H123344   6.007   0.728   8.208  0.0689 -0.3096  2.3887
  595TIP3    H223345   6.125   0.810   8.161 -0.3542 -1.2927 -0.6539
  596TIP3   OH223346   4.447   4.917   1.160  0.0715  0.0608  0.0112
  596TIP3    H123347   4.428   4.824   1.152  0.1431  0.0360  0.1300
  596TIP3    H223348   4.369   4.954   1.202  0.7355 -0.2214  1.5305
  597TIP3   OH223349   2.579   6.324   7.451  0.2406 -0.0249 -0.3945
  597TIP3    H123350   2.573   6.354   7.361  0.4366 -0.6612 -0.6260
  597TIP3    H223351   2.586   6.228   7.444  0.1982 -0.0841  0.2928
  598TIP3   OH223352   4.744   4.215   0.029  0.0349 -0.5907  0.1478
  598TIP3    H123353   4.673   4.233   0.090 -0.0356 -0.4719  0.0305
  598TIP3    H223354   4.716   4.136  -0.018  0.0495 -0.6309  0.2061
  599TIP3   OH223355   6.702   4.981   1.621 -0.5683  0.0430 -0.4151
  599TIP3    H123356   6.751   4.943   1.547 -1.7459 -0.0967 -1.1525
  599TIP3    H223357   6.614   4.995   1.586 -0.4231  2.6901  0.0718
  600TIP3   OH223358   6.013   5.811   7.798 -0.4562  0.2250  0.3361
  600TIP3    H123359   6.072   5.858   7.858  0.4183 -2.0998  1.4471
  600TIP3    H223360   6.069   5.744   7.758 -1.3984  0.7448 -1.9587
  601TIP3   OH223361   1.478   5.907   7.625  0.0807  0.2641 -0.0983
  601TIP3    H123362   1.497   5.903   7.531  1.6441 -1.4803  0.2345
  601TIP3    H223363   1.523   5.987   7.654  1.0925 -0.1270 -0.5441
  602TIP3   OH223364   0.493   4.408   0.880 -0.2712 -0.2971  0.7503
  602TIP3    H123365   0.406   4.430   0.915  0.2596  1.8851  0.8167
  602TIP3    H223366   0.542   4.377   0.956 -0.4438  0.1938  1.0650
  603TIP3   OH223367   3.064   5.954   6.719  0.5182  0.8683 -0.1301
  603TIP3    H123368   3.003   6.022   6.749  1.1325  1.2058  0.3648
  603TIP3    H223369   3.025   5.922   6.637  0.2566  1.8591 -0.4065
  604TIP3   OH223370   4.618   5.892   0.615  0.1936 -0.3981 -0.1472
  604TIP3    H123371   4.561   5.967   0.601  0.5004 -0.3987 -1.5242
  604TIP3    H223372   4.707   5.926   0.605  0.4030 -0.6463  0.7603
  605TIP3   OH223373   2.276   3.948   6.774  1.0977 -0.1688  0.2069
  605TIP3    H123374   2.370   3.941   6.756  1.1087 -0.2702  0.3014
  605TIP3    H223375   2.237   3.965   6.688  1.2410  0.2669  0.2270
  606TIP3   OH223376   4.538   6.306   7.468  0.6384 -0.0178  0.0108
  606TIP3    H123377   4.591   6.226   7.467 -1.4748 -1.5210  0.1647
  606TIP3    H223378   4.598   6.375   7.496  2.2560 -1.7864  1.1330
  607TIP3   OH223379   6.647   2.776   7.022  0.4610  0.0060  0.0377
  607TIP3    H123380   6.730   2.814   6.994 -0.3029  0.9982 -0.9537
  607TIP3    H223381   6.614   2.729   6.946 -0.5001  0.7329 -0.0188
  608TIP3   OH223382   5.939   4.559   7.637  0.0113 -0.4923  0.1516
  608TIP3    H123383   5.960   4.586   7.548 -0.2650  0.7994  0.4649
  608TIP3    H223384   5.859   4.508   7.629 -1.6435  2.0002 -0.0486
  609TIP3   OH223385   6.207   6.063   7.751  0.2732 -0.1723  0.2127
  609TIP3    H123386   6.234   6.062   7.659 -1.6231  0.2176 -0.3719
  609TIP3    H223387   6.141   6.132   7.757  0.2269 -0.3077  1.8450
  610TIP3   OH223388   2.328   1.032   7.221  0.0027 -0.2033 -0.1092
  610TIP3    H123389   2.278   1.107   7.253  1.8764  1.2367 -0.3619
  610TIP3    H223390   2.262   0.968   7.196 -1.6627  1.1831  0.5394
  611TIP3   OH223391   4.153   5.627   1.692  0.4523 -0.5103 -0.4722
  611TIP3    H123392   4.102   5.704   1.719 -0.7989 -0.3078 -3.1187
  611TIP3    H223393   4.121   5.557   1.749 -0.5059  0.2899  0.0121
  612TIP3   OH223394   0.618   6.666   3.089  0.2262 -0.1640  0.3301
  612TIP3    H123395   0.695   6.661   3.147 -0.0753 -2.4992  0.6138
  612TIP3    H223396   0.642   6.612   3.014 -0.8590 -0.3071  0.0806
  613TIP3   OH223397   2.751   3.756   1.187 -0.0087 -0.2507 -0.0958
  613TIP3    H123398   2.747   3.850   1.172 -0.1803 -0.2192  0.1325
  613TIP3    H223399   2.689   3.719   1.124  0.4240 -0.2555 -0.5238
  614TIP3   OH223400   5.347   5.861   1.389  0.2255 -0.0932  0.1510
  614TIP3    H123401   5.414   5.802   1.356  0.8030  0.3702  0.4784
  614TIP3    H223402   5.314   5.906   1.311  0.6272  0.0096  0.0364
  615TIP3   OH223403   2.825   4.062   1.511  0.1744 -0.5262  0.1633
  615TIP3    H123404   2.809   4.031   1.422 -1.9854  1.3797 -0.2110
  615TIP3    H223405   2.820   3.982   1.565  0.5695 -1.5790 -1.3075
  616TIP3   OH223406   5.174   3.227   7.983 -0.4464 -0.7109  0.0763
  616TIP3    H123407   5.107   3.236   7.916 -0.8518  2.0644  0.7078
  616TIP3    H223408   5.219   3.312   7.983  2.4970 -2.1441  0.3061
  617TIP3   OH223409   3.164   6.306   1.451 -0.0444 -0.0509  0.8133
  617TIP3    H123410   3.188   6.240   1.517 -0.5136 -1.1614 -0.1024
  617TIP3    H223411   3.195   6.269   1.368  2.0785  2.0942  0.5670
  618TIP3   OH223412   4.252   1.284   2.252  0.2234 -0.3351 -0.5571
  618TIP3    H123413   4.157   1.278   2.245 -0.0463  1.6863  0.7008
  618TIP3    H223414   4.272   1.244   2.337  0.1654  1.5202  0.3766
  619TIP3   OH223415   0.810   2.411   0.140  0.1022 -0.0119  0.3663
  619TIP3    H123416   0.772   2.438   0.056 -2.0302  0.5678  1.4344
  619TIP3    H223417   0.844   2.323   0.123 -0.5716 -0.0372 -1.0316
  620TIP3   OH223418   2.878   1.670   8.411  0.0793  0.1679 -0.1460
  620TIP3    H123419   2.862   1.764   8.419 -1.6222  0.0429 -1.3645
  620TIP3    H223420   2.796   1.635   8.374  0.7677 -1.7508  0.0184
  621TIP3   OH223421   5.093   4.786   2.503 -0.3609  0.6077  0.6413
  621TIP3    H123422   5.029   4.771   2.434  0.2208  2.3638 -0.3318
  621TIP3    H223423   5.174   4.807   2.457  0.1360  1.4675  1.8369
  622TIP3   OH223424   4.852   3.604   6.481  0.0031 -0.1083  0.0277
  622TIP3    H123425   4.799   3.683   6.482 -0.1102 -0.1715 -0.4696
  622TIP3    H223426   4.818   3.551   6.553  0.8153  0.7584  1.0668
  623TIP3   OH223427   0.390   6.382   1.432  0.3996  0.5736 -0.2576
  623TIP3    H123428   0.430   6.301   1.400  1.0480  0.8225 -0.1071
  623TIP3    H223429   0.406   6.382   1.526  0.3700  0.8546 -0.2505
  624TIP3   OH223430   0.453   3.085   8.136 -0.3761  0.2891 -0.4317
  624TIP3    H123431   0.464   3.142   8.059 -0.8321  0.1312 -0.6177
  624TIP3    H223432   0.361   3.060   8.133  0.0501 -1.3163 -0.9577
  625TIP3   OH223433   6.724   6.572   0.766  0.1063 -0.7783  0.2393
  625TIP3    H123434   6.673   6.645   0.731 -1.0275 -1.2408  0.8976
  625TIP3    H223435   6.664   6.498   0.765  0.8020 -1.3629  0.9317
  626TIP3   OH223436   2.115   1.908   0.376 -0.3961  0.1857  0.1165
  626TIP3    H123437   2.059   1.914   0.299 -0.4548 -1.2882  0.0145
  626TIP3    H223438   2.196   1.953   0.351  0.0013 -1.1888 -1.2195
  627TIP3   OH223439   4.207   6.866   6.737  0.2687 -0.3320  0.0601
  627TIP3    H123440   4.201   6.789   6.794  0.7571 -0.9864 -0.7554
  627TIP3    H223441   4.300   6.881   6.725  0.1755 -0.1593 -0.5016
  628TIP3   OH223442   3.299   4.071   8.421  0.2753  0.6001 -0.3618
  628TIP3    H123443   3.262   4.144   8.471 -1.4993  0.0630 -0.8092
  628TIP3    H223444   3.241   4.062   8.345  0.0887 -1.6489 -0.0129
  629TIP3   OH223445   4.850   6.308   0.561 -0.1065 -0.1386  0.1941
  629TIP3    H123446   4.886   6.350   0.638 -3.1412  0.9142  1.1718
  629TIP3    H223447   4.907   6.336   0.489  0.3436  2.3243  1.4300
  630TIP3   OH223448   5.687   3.131   0.666  0.1788 -0.3019 -0.0010
  630TIP3    H123449   5.730   3.093   0.743  0.8468  2.4400  1.0985
  630TIP3    H223450   5.595   3.139   0.692  0.4278  0.7395  0.5823
  631TIP3   OH223451   6.368   0.524   1.651  0.2581 -0.1395 -0.6885
  631TIP3    H123452   6.386   0.526   1.557 -0.8968 -0.9065 -0.9441
  631TIP3    H223453   6.454   0.518   1.692  0.7862  0.3878 -1.6808
  632TIP3   OH223454   2.451   2.013   1.802 -0.1258  0.3351  0.0960
  632TIP3    H123455   2.474   2.088   1.856 -0.8194 -0.2876  1.2972
  632TIP3    H223456   2.356   2.017   1.792  0.1029  1.3805 -2.5599
  633TIP3   OH223457   4.773   6.103   7.454 -0.1161  0.6524 -0.2883
  633TIP3    H123458   4.818   6.085   7.372  1.4609 -1.0801  0.8861
  633TIP3    H223459   4.761   6.018   7.495 -1.2920  1.4244  1.0866
  634TIP3   OH223460   0.808   3.788   1.017 -0.5047 -0.1977 -0.3314
  634TIP3    H123461   0.890   3.821   0.981 -0.2377  1.0480  1.2650
  634TIP3    H223462   0.740   3.830   0.965 -0.1359  1.4691  0.4665
  635TIP3   OH223463   4.637   1.400   0.262 -0.1509 -0.0666  0.3117
  635TIP3    H123464   4.716   1.420   0.213 -1.0926 -0.4789 -1.4320
  635TIP3    H223465   4.605   1.485   0.293 -0.9810  0.5587 -2.0955
  636TIP3   OH223466   3.894   6.430   1.028 -0.1993 -0.0903 -0.6167
  636TIP3    H123467   3.906   6.484   0.950 -1.4476 -0.4411 -1.0874
  636TIP3    H223468   3.900   6.340   0.995  0.8422 -0.2475 -0.0223
  637TIP3   OH223469   3.202   2.653   1.724  0.1293 -0.5276 -0.2913
  637TIP3    H123470   3.179   2.601   1.647  1.2355  1.1712 -1.8322
  637TIP3    H223471   3.121   2.699   1.747  0.3662  0.8955 -2.0595
  638TIP3   OH223472   3.756   1.047   0.567 -0.5340 -0.3808  0.2935
  638TIP3    H123473   3.812   0.995   0.623  0.5354  0.1571 -0.2510
  638TIP3    H223474   3.816   1.101   0.516 -1.4793 -0.6127 -1.1337
  639TIP3   OH223475   5.375   5.922   2.064 -0.0658  0.0817  0.2272
  639TIP3    H123476   5.394   6.014   2.083 -0.6671  0.3143 -0.2918
  639TIP3    H223477   5.281   5.913   2.078 -0.0031 -0.4730  0.3324
  640TIP3   OH223478   1.994   3.691   6.910  0.0485 -0.1405  0.0294
  640TIP3    H123479   1.985   3.725   6.821 -1.5687 -0.3543  0.0809
  640TIP3    H223480   1.977   3.767   6.966  1.3897  0.0710  0.1863
  641TIP3   OH223481   1.663   6.826   1.463 -0.3988 -0.5043 -0.1564
  641TIP3    H123482   1.626   6.909   1.491 -0.4969 -0.0246 -1.6395
  641TIP3    H223483   1.587   6.770   1.445 -0.3562 -0.4630 -0.4671
  642TIP3   OH223484   5.069   3.716   2.053  0.3272  0.1964  0.0472
  642TIP3    H123485   5.057   3.621   2.050  0.8106  0.1487 -0.7862
  642TIP3    H223486   5.074   3.737   2.146 -0.1969 -0.5336  0.2528
  643TIP3   OH223487   4.786   4.937   0.189  0.0076 -0.1054 -0.1394
  643TIP3    H123488   4.742   4.897   0.114 -0.9792 -0.1321  0.4302
  643TIP3    H223489   4.778   5.031   0.174  1.6480 -0.0841 -1.0910
  644TIP3   OH223490   1.060   2.933   8.248 -0.0852 -0.1367 -0.5026
  644TIP3    H123491   1.013   2.876   8.309 -2.2525  0.6662 -1.3103
  644TIP3    H223492   0.997   3.002   8.226  1.7059  1.3822 -1.2189
  645TIP3   OH223493   4.119   5.839   7.579 -0.0154 -0.0448 -0.7197
  645TIP3    H123494   4.129   5.749   7.610 -0.3868  0.1763  0.0625
  645TIP3    H223495   4.025   5.851   7.570  0.1022 -0.4617 -3.0600
  646TIP3   OH223496   2.875   2.487   7.179 -0.6988 -0.2096 -0.6973
  646TIP3    H123497   2.916   2.546   7.115 -0.4274 -0.7798 -1.0534
  646TIP3    H223498   2.815   2.544   7.228 -0.8083  0.2661 -1.3651
  647TIP3   OH223499   0.484   1.166   7.170  0.0745 -0.0500  0.0546
  647TIP3    H123500   0.518   1.217   7.096 -1.5237  0.8060 -0.1301
  647TIP3    H223501   0.411   1.116   7.132 -2.8765  2.7608  1.5756
  648TIP3   OH223502   4.530   3.598   8.029 -0.2042  1.0275  0.0219
  648TIP3    H123503   4.585   3.626   8.101  0.7912  0.9917 -0.6968
  648TIP3    H223504   4.589   3.548   7.972 -1.2617 -0.0489 -0.1652
  649TIP3   OH223505   0.635   3.563   0.624 -0.0284  0.3658  0.8314
  649TIP3    H123506   0.594   3.490   0.672  0.0809  0.0803  0.4969
  649TIP3    H223507   0.717   3.526   0.591 -0.0137  0.6160  0.5848
  650TIP3   OH223508   3.893   2.433   0.835  0.2249  0.0839  0.0939
  650TIP3    H123509   3.894   2.363   0.769 -1.1061  1.1464 -1.1309
  650TIP3    H223510   3.838   2.399   0.906 -0.5390 -0.0964 -0.5621
  651TIP3   OH223511   6.656   1.308   2.590 -0.6933 -1.2096 -0.1986
  651TIP3    H123512   6.721   1.314   2.660  0.2120 -2.8900 -0.8269
  651TIP3    H223513   6.688   1.367   2.522 -1.1767 -0.1436  0.4795
  652TIP3   OH223514   1.347   2.029   7.358 -0.8626  0.0210 -0.5568
  652TIP3    H123515   1.356   1.939   7.391  1.4041  0.2446 -0.4407
  652TIP3    H223516   1.264   2.060   7.395 -0.3378 -1.0911  1.7037
  653TIP3   OH223517   0.130   3.075   7.523 -0.4426 -0.2150  0.3383
  653TIP3    H123518   0.078   3.149   7.492  1.7384  1.4157  0.3673
  653TIP3    H223519   0.212   3.114   7.553  1.0938 -2.7259 -0.3097
  654TIP3   OH223520   5.791   1.698   1.058 -0.3513  0.5333 -0.2776
  654TIP3    H123521   5.777   1.651   1.140  1.3100 -1.6020 -1.1049
  654TIP3    H223522   5.832   1.780   1.084 -1.8236  0.8626  1.1360
  655TIP3   OH223523   3.491   4.974   1.838  0.4641  0.0648  0.2217
  655TIP3    H123524   3.413   5.027   1.854  0.6114  0.1809  0.5536
  655TIP3    H223525   3.498   4.969   1.743  0.4882  0.7014  0.1883
  656TIP3   OH223526   2.083   3.126   0.839  0.2123 -0.1018  0.4818
  656TIP3    H123527   2.033   3.166   0.767  2.2120  0.1562 -0.8199
  656TIP3    H223528   2.167   3.171   0.838  1.1332 -1.7165  1.4813
  657TIP3   OH223529   2.037   6.406   0.928  0.1543  0.0048  0.2300
  657TIP3    H123530   1.949   6.369   0.939  0.9428 -1.3798  2.2968
  657TIP3    H223531   2.041   6.476   0.993  0.7297 -0.2095  0.4248
  658TIP3   OH223532   0.061   3.804   8.352 -0.1712  0.4973 -0.0235
  658TIP3    H123533   0.125   3.741   8.386 -1.1831 -0.2558  0.5403
  658TIP3    H223534   0.058   3.786   8.258 -0.3882 -0.2491  0.1162
  659TIP3   OH223535   0.243   3.621   2.249  0.5357 -0.2341  0.7653
  659TIP3    H123536   0.288   3.551   2.202 -0.6457 -0.7576  0.3805
  659TIP3    H223537   0.157   3.585   2.270 -1.0617  1.8765 -1.5864
  660TIP3   OH223538   3.492   0.915   1.463 -0.0428 -0.2378  0.3454
  660TIP3    H123539   3.412   0.936   1.510 -0.0197 -0.2941  0.4105
  660TIP3    H223540   3.554   0.890   1.531  0.1629  0.2205  0.3321
  661TIP3   OH223541   4.418   4.837   1.709 -0.7205  0.4026 -0.2422
  661TIP3    H123542   4.365   4.826   1.788  0.8126  0.1364  0.7863
  661TIP3    H223543   4.425   4.931   1.697  1.6227  0.5998  1.8310
  662TIP3   OH223544   0.577   0.419   2.351 -0.0885 -0.5560 -0.1491
  662TIP3    H123545   0.505   0.472   2.316 -0.2855 -0.6813  0.0639
  662TIP3    H223546   0.621   0.477   2.413  0.4705 -0.2187 -0.8571
  663TIP3   OH223547   2.623   6.309   1.540  0.2620  0.0113 -1.0215
  663TIP3    H123548   2.596   6.368   1.470 -1.2455  1.2631  0.5309
  663TIP3    H223549   2.678   6.363   1.597 -0.1617 -0.3901 -0.2103
  664TIP3   OH223550   4.519   0.768   8.261  0.0909 -0.4584 -0.0034
  664TIP3    H123551   4.451   0.701   8.259  1.3585 -1.7924 -0.4501
  664TIP3    H223552   4.594   0.727   8.218  1.0085  1.1619 -0.0314
  665TIP3   OH223553   1.205   1.335   8.256 -0.0503 -0.4922 -0.1751
  665TIP3    H123554   1.178   1.340   8.348 -0.3349 -1.1364 -0.2213
  665TIP3    H223555   1.297   1.309   8.259 -0.1385 -0.7948 -0.0777
  666TIP3   OH223556   6.774   4.224   8.400 -0.4159 -0.1836 -0.0771
  666TIP3    H123557   6.682   4.203   8.416  0.2930 -2.9099  1.1828
  666TIP3    H223558   6.780   4.242   8.307 -2.1461 -0.5711 -0.2831
  667TIP3   OH223559   6.035   3.031   7.221  0.0796 -0.2291 -0.1031
  667TIP3    H123560   6.061   3.035   7.313  0.1852 -2.1224 -0.0159
  667TIP3    H223561   5.962   3.092   7.214  1.0312  1.0791  0.8754
  668TIP3   OH223562   2.393   1.877   7.342  0.0188 -0.0301  0.1032
  668TIP3    H123563   2.431   1.883   7.429 -1.6249 -0.7125  0.9030
  668TIP3    H223564   2.416   1.960   7.300 -0.7073  1.0976  1.8331
  669TIP3   OH223565   2.041   1.518   1.155  0.0719 -0.0030  0.4561
  669TIP3    H123566   1.999   1.474   1.229 -0.1359  0.4402  0.6076
  669TIP3    H223567   2.027   1.611   1.172 -0.5871  0.0831 -0.4977
  670TIP3   OH223568   0.343   6.051   7.468  0.0811 -0.4116 -0.2474
  670TIP3    H123569   0.401   6.120   7.438 -0.7969  0.8489  0.8293
  670TIP3    H223570   0.336   6.064   7.562 -3.1364  0.5120 -0.4960
  671TIP3   OH223571   2.875   0.178   0.976 -0.0817  0.2538  0.1459
  671TIP3    H123572   2.917   0.159   0.892  3.0139  0.1423  1.6032
  671TIP3    H223573   2.865   0.273   0.976  0.9596  0.3728  0.0854
  672TIP3   OH223574   5.027   3.208   8.255  0.4796  0.0936 -0.0699
  672TIP3    H123575   5.012   3.197   8.161  0.7256 -0.4273 -0.0508
  672TIP3    H223576   4.939   3.205   8.294  0.2708  1.4607 -0.3845
  673TIP3   OH223577   4.771   2.859   1.022  0.3779  0.0817  0.4506
  673TIP3    H123578   4.778   2.945   0.982 -2.4083 -0.4829 -1.5140
  673TIP3    H223579   4.836   2.806   0.977  1.7421  0.9722  1.3057
  674TIP3   OH223580   1.722   4.041   1.423 -0.0743 -0.3307 -0.1997
  674TIP3    H123581   1.762   3.954   1.425  0.6870 -0.0255 -1.3610
  674TIP3    H223582   1.660   4.037   1.351 -0.0773  0.0800 -0.2227
  675TIP3   OH223583   5.088   4.725   1.816 -0.6289 -0.5805 -0.0760
  675TIP3    H123584   4.997   4.702   1.795 -0.8512 -0.9547  1.1744
  675TIP3    H223585   5.082   4.813   1.855 -0.2622  0.0047 -1.3010
  676TIP3   OH223586   4.505   3.558   1.973  0.4872  0.1033 -0.3991
  676TIP3    H123587   4.428   3.543   1.918 -0.8165  0.5216  1.2255
  676TIP3    H223588   4.573   3.503   1.934 -0.8057 -0.7795 -1.5189
  677TIP3   OH223589   0.365   2.096   1.541 -0.4880  0.0052  0.1351
  677TIP3    H123590   0.453   2.082   1.577 -0.4628  1.0079  0.4869
  677TIP3    H223591   0.309   2.039   1.593 -0.1960  0.1417  0.6082
  678TIP3   OH223592   3.877   2.900   6.494 -0.0111  0.0497 -0.4556
  678TIP3    H123593   3.921   2.849   6.426  1.9571  0.7587  0.1964
  678TIP3    H223594   3.873   2.841   6.569 -1.3420 -0.4239 -0.8773
  679TIP3   OH223595   6.222   2.995   1.092 -0.1566 -0.0984 -0.1748
  679TIP3    H123596   6.259   2.929   1.152  1.0907 -0.0153 -0.8178
  679TIP3    H223597   6.280   3.071   1.103  0.9743 -0.5549 -2.4811
  680TIP3   OH223598   2.413   2.392   7.131  0.4527  0.3613  0.4876
  680TIP3    H123599   2.424   2.451   7.206  1.0517  1.4121 -0.3861
  680TIP3    H223600   2.444   2.443   7.056 -0.3313 -0.5775 -0.5151
  681TIP3   OH223601   3.059   6.440   0.488 -0.3802 -0.2957  0.7122
  681TIP3    H123602   3.018   6.400   0.411  0.9205 -3.8185  1.6909
  681TIP3    H223603   2.986   6.485   0.532 -2.3603 -2.7896  0.2214
  682TIP3   OH223604   5.964   1.765   7.038  0.2485  0.1144 -0.0088
  682TIP3    H123605   6.048   1.799   7.005  0.2678  1.4795  1.3277
  682TIP3    H223606   5.898   1.821   6.996  0.0805 -0.1688 -0.1223
  683TIP3   OH223607   1.936   6.129   0.686 -0.6709 -0.1971  0.0292
  683TIP3    H123608   1.928   6.097   0.775 -1.7565  0.1504  0.0723
  683TIP3    H223609   2.030   6.127   0.668 -0.5541 -1.4975  0.7081
  684TIP3   OH223610   2.072   4.391   6.466  0.0952 -0.4076 -0.1263
  684TIP3    H123611   1.996   4.347   6.427  0.1951 -0.0424 -0.7452
  684TIP3    H223612   2.095   4.458   6.402  0.3622  0.0990  0.5033
  685TIP3   OH223613   2.865   0.986   8.224 -0.0029  0.0025 -0.0175
  685TIP3    H123614   2.843   0.939   8.305  1.2851 -0.1926  0.2433
  685TIP3    H223615   2.869   0.917   8.158  2.4853 -0.4313  0.4809
  686TIP3   OH223616   6.863   0.257   7.119 -0.4721 -0.1333  0.1869
  686TIP3    H123617   6.843   0.241   7.026 -0.3698 -1.6111  0.3855
  686TIP3    H223618   6.811   0.191   7.165 -0.1000  0.2409  1.1500
  687TIP3   OH223619   0.644   0.178   1.920 -0.5589  0.1865  0.8196
  687TIP3    H123620   0.671   0.219   2.002 -0.5429 -0.4883  1.1630
  687TIP3    H223621   0.613   0.250   1.866  0.6941  0.8221  0.9085
  688TIP3   OH223622   4.117   3.190   8.110  0.2167  0.4201 -0.3394
  688TIP3    H123623   4.042   3.214   8.056 -0.1239 -1.0631 -0.5607
  688TIP3    H223624   4.192   3.232   8.067 -0.1146 -0.3366 -1.6859
  689TIP3   OH223625   6.452   2.814   1.198 -0.1101  0.4975 -0.7244
  689TIP3    H123626   6.537   2.790   1.233 -0.1221  0.2965 -0.8296
  689TIP3    H223627   6.470   2.847   1.110 -0.1769  0.0898 -0.8964
  690TIP3   OH223628   2.873   1.082   0.452 -0.0220  0.7553  0.3870
  690TIP3    H123629   2.830   1.102   0.534 -0.8508  0.4943  0.0249
  690TIP3    H223630   2.840   1.147   0.390 -0.1713  0.3366  0.0200
  691TIP3   OH223631   6.406   1.701   7.867 -0.2766  0.0129  0.1114
  691TIP3    H123632   6.377   1.611   7.884 -1.0043  0.1336 -0.4506
  691TIP3    H223633   6.396   1.745   7.951 -1.6001  0.0081 -0.0220
  692TIP3   OH223634   5.508   2.070   2.401 -0.1384 -0.3382 -0.1903
  692TIP3    H123635   5.474   2.149   2.357  1.9100  0.5240 -0.3365
  692TIP3    H223636   5.567   2.104   2.468  0.5712 -1.7611 -0.0771
  693TIP3   OH223637   4.495   1.177   7.973 -0.3406  0.5291 -0.0506
  693TIP3    H123638   4.456   1.258   7.941  0.6227  1.4679  1.0894
  693TIP3    H223639   4.585   1.200   7.997 -0.2141 -0.7387  0.8282
  694TIP3   OH223640   3.512   3.008   8.388 -0.7556  0.0267  0.2212
  694TIP3    H123641   3.476   3.064   8.457 -1.7766  0.9381 -0.9857
  694TIP3    H223642   3.604   2.998   8.410 -0.7769  1.3533  1.0288
  695TIP3   OH223643   1.554   2.127   6.883 -0.2278  0.5557 -0.5342
  695TIP3    H123644   1.599   2.127   6.799  1.6860  1.3312  0.4241
  695TIP3    H223645   1.508   2.211   6.885  0.2569  0.8245 -0.5470
  696TIP3   OH223646   2.659   6.366   7.707 -0.0321  0.7890  0.1801
  696TIP3    H123647   2.726   6.430   7.683  1.2561 -0.4172  0.4358
  696TIP3    H223648   2.627   6.332   7.623  0.7834  0.2878  0.0583
  697TIP3   OH223649   4.096   3.924   0.991  0.0926  0.2395 -0.2652
  697TIP3    H123650   4.066   4.004   0.949 -2.1486 -0.6269 -0.4863
  697TIP3    H223651   4.191   3.925   0.982 -0.0614  1.7849 -2.2265
  698TIP3   OH223652   2.348   6.825   0.578  0.0804  0.1330 -0.5075
  698TIP3    H123653   2.281   6.830   0.646  0.5551 -0.5463  0.0292
  698TIP3    H223654   2.356   6.915   0.545 -0.6285  0.3392 -0.1344
  699TIP3   OH223655   4.252   5.143   0.057  0.2819  0.2976  0.4306
  699TIP3    H123656   4.268   5.148  -0.037  1.2997  0.1869  0.5835
  699TIP3    H223657   4.262   5.050   0.077 -1.5714  0.0528  0.3941
  700TIP3   OH223658   3.899   3.168   0.869 -0.2470 -0.2404  0.1165
  700TIP3    H123659   3.924   3.252   0.906  0.1929 -0.1348 -0.4271
  700TIP3    H223660   3.976   3.112   0.883 -0.8803 -0.8522  1.3725
  701TIP3   OH223661   1.757   3.497   7.549 -0.5064  0.5319 -0.2057
  701TIP3    H123662   1.807   3.565   7.594  0.2821 -0.3343  0.2764
  701TIP3    H223663   1.800   3.489   7.464 -1.2615  1.3507 -0.6809
  702TIP3   OH223664   0.269   4.193   7.133 -0.2668  0.6902  0.1846
  702TIP3    H123665   0.198   4.252   7.156 -0.2794  0.2179  1.4181
  702TIP3    H223666   0.233   4.105   7.147  0.7020  0.4503  1.3565
  703TIP3   OH223667   3.377   2.955   0.383 -0.0078 -0.0122 -0.1391
  703TIP3    H123668   3.332   3.011   0.446 -2.4339 -1.3432 -0.5502
  703TIP3    H223669   3.363   2.999   0.298 -1.3447 -0.8185 -0.3735
  704TIP3   OH223670   1.083   0.395   2.087  0.1921  0.1163  0.6216
  704TIP3    H123671   1.049   0.342   2.159 -0.8119  0.3377  0.3176
  704TIP3    H223672   1.122   0.331   2.027 -1.2175 -0.3293  0.1456
  705TIP3   OH223673   0.141   2.569   0.168  0.1267 -0.0826 -0.3386
  705TIP3    H123674   0.195   2.607   0.098  1.4319 -0.7290  0.2733
  705TIP3    H223675   0.204   2.548   0.238 -0.8510 -1.3173  0.2087
  706TIP3   OH223676   0.591   2.408   7.769  0.1451 -0.2547 -0.0473
  706TIP3    H123677   0.527   2.360   7.717 -0.2098 -0.1125  0.2520
  706TIP3    H223678   0.542   2.482   7.805  1.1380  1.5207 -2.1280
  707TIP3   OH223679   1.659   2.547   7.933  0.6922 -0.4849 -0.1251
  707TIP3    H123680   1.688   2.509   8.016 -1.4310 -0.7313  0.5711
  707TIP3    H223681   1.590   2.487   7.903 -3.4421  2.9853  1.4285
  708TIP3   OH223682   5.497   2.342   1.235  0.3965 -0.2246  0.3477
  708TIP3    H123683   5.563   2.273   1.239 -0.2430 -0.7919  1.7972
  708TIP3    H223684   5.545   2.422   1.260  0.3694 -0.7782  2.2526
  709TIP3   OH223685   5.454   3.055   2.370 -0.6288 -0.1467 -0.2372
  709TIP3    H123686   5.410   2.971   2.356 -0.0107 -0.7593  1.2894
  709TIP3    H223687   5.531   3.052   2.314  0.1667 -1.2408  0.8723
  710TIP3   OH223688   0.507   4.132   8.489 -0.0293  0.7153 -1.0121
  710TIP3    H123689   0.443   4.087   8.435  1.4319 -0.4909 -1.8274
  710TIP3    H223690   0.472   4.126   8.578 -0.7361 -0.4961 -1.3464
  711TIP3   OH223691   2.856   2.906   6.692  0.0151  0.2746  0.1919
  711TIP3    H123692   2.906   2.825   6.691 -0.5646 -0.1155  1.1825
  711TIP3    H223693   2.922   2.975   6.689  0.5341 -0.2275 -0.1621
  712TIP3   OH223694   4.164   0.377   2.597 -0.4371 -0.0297 -0.1049
  712TIP3    H123695   4.157   0.444   2.530 -0.7604 -0.7753 -0.8295
  712TIP3    H223696   4.080   0.380   2.643  0.1496  1.1629  0.9473
  713TIP3   OH223697   1.091   1.394   0.612  0.3325 -1.0643 -0.0025
  713TIP3    H123698   1.105   1.301   0.630  1.1180 -1.1445 -0.9397
  713TIP3    H223699   1.068   1.397   0.519 -1.5744 -0.4809  0.4380
  714TIP3   OH223700   6.644   6.705   7.578  0.8540  0.4699 -0.6380
  714TIP3    H123701   6.650   6.682   7.485  0.0062 -0.6868 -0.4305
  714TIP3    H223702   6.678   6.794   7.583  2.8029 -0.1521 -1.7523
  715TIP3   OH223703   0.695   1.060   1.674 -0.6220  0.0968  0.0567
  715TIP3    H123704   0.783   1.070   1.710 -0.2319  0.2871 -0.9155
  715TIP3    H223705   0.653   1.145   1.689  0.4260  1.0957 -2.2137
  716TIP3   OH223706   4.826   4.106   1.687  0.7115 -0.1846  0.3902
  716TIP3    H123707   4.919   4.085   1.697  1.4149  2.6218  0.3766
  716TIP3    H223708   4.820   4.152   1.604 -0.4814  0.7340  0.9612
  717TIP3   OH223709   6.460   1.029   1.693 -0.0259 -0.3011  1.0813
  717TIP3    H123710   6.503   0.991   1.616 -1.0642  1.7404 -0.6206
  717TIP3    H223711   6.529   1.080   1.736 -0.1935  1.4697 -0.6014
  718TIP3   OH223712   0.522   4.286   7.661  0.1724 -0.1376 -0.0143
  718TIP3    H123713   0.534   4.348   7.733  0.2191  0.3653 -0.4473
  718TIP3    H223714   0.488   4.340   7.589 -0.6760 -0.7827 -0.1134
  719TIP3   OH223715   4.538   4.884   6.341 -0.8578  0.2604  0.4152
  719TIP3    H123716   4.625   4.846   6.337 -0.1810  1.7780 -0.3774
  719TIP3    H223717   4.483   4.825   6.290 -0.4658 -1.0594  1.4711
  720TIP3   OH223718   6.170   2.899   1.764  0.3545  0.0448  0.2611
  720TIP3    H123719   6.103   2.928   1.702 -0.5008  2.0763  2.0254
  720TIP3    H223720   6.238   2.965   1.758  0.4605  0.0205  1.1823
  721TIP3   OH223721   1.642   0.965   0.703  0.5117 -0.2733  0.2672
  721TIP3    H123722   1.691   0.892   0.666  0.6776 -0.2236  0.3836
  721TIP3    H223723   1.632   1.027   0.631  0.3886 -0.4023  0.1742
  722TIP3   OH223724   2.798   6.649   7.549 -0.2253  0.2371  0.0362
  722TIP3    H123725   2.835   6.582   7.607 -0.6667 -2.1415 -2.2138
  722TIP3    H223726   2.865   6.717   7.544 -0.0024  0.3591  2.8829
  723TIP3   OH223727   3.220   6.763   7.559 -0.4490 -0.2362 -0.3342
  723TIP3    H123728   3.148   6.818   7.589  1.2304  1.0864  1.5371
  723TIP3    H223729   3.267   6.816   7.495  1.1411  0.6188  1.4328
  724TIP3   OH223730   1.566   2.422   8.482 -0.3576  0.0447 -0.0714
  724TIP3    H123731   1.521   2.398   8.401  2.5074  0.8270 -2.0443
  724TIP3    H223732   1.599   2.339   8.516 -0.6948 -0.1751 -0.2705
  725TIP3   OH223733   5.704   3.689   1.643 -0.0476 -0.5626 -0.0540
  725TIP3    H123734   5.671   3.715   1.729  1.7607 -1.8308  1.1065
  725TIP3    H223735   5.798   3.707   1.647 -0.0456  0.1824 -2.1220
  726TIP3   OH223736   3.520   1.018   7.676 -0.7553  0.5080  0.1060
  726TIP3    H123737   3.511   1.112   7.687 -2.3838  0.6111 -1.7098
  726TIP3    H223738   3.528   1.005   7.582  2.5602 -0.9825  0.4288
  727TIP3   OH223739   4.413   5.223   7.349 -0.6117  0.1427  0.0663
  727TIP3    H123740   4.482   5.270   7.395 -1.1837  1.4747 -0.3918
  727TIP3    H223741   4.388   5.281   7.277 -1.6691 -0.6626 -0.2469
  728TIP3   OH223742   3.165   5.983   8.338  0.3338 -0.0065 -0.4415
  728TIP3    H123743   3.197   5.895   8.357  1.0870  0.3640  0.0302
  728TIP3    H223744   3.114   5.973   8.257  2.4077 -0.4691 -1.7596
  729TIP3   OH223745   0.195   5.716   1.565 -0.6111 -0.0255  0.4827
  729TIP3    H123746   0.180   5.745   1.655 -1.0502 -1.6959  0.9650
  729TIP3    H223747   0.115   5.671   1.540 -1.5349  2.5257 -1.6908
  730TIP3   OH223748   6.460   0.935   0.715  0.1376 -0.3192  0.2339
  730TIP3    H123749   6.425   0.963   0.800 -0.3836 -2.2625  0.6936
  730TIP3    H223750   6.553   0.917   0.732  0.0498 -0.6396  0.3793
  731TIP3   OH223751   0.374   2.833   7.790  0.1998 -0.0541 -0.3708
  731TIP3    H123752   0.332   2.916   7.811 -0.5355 -0.6852  0.7398
  731TIP3    H223753   0.415   2.847   7.704 -1.6762  0.8148 -1.1644
  732TIP3   OH223754   5.295   6.282   8.401 -0.3611  0.5928 -0.0465
  732TIP3    H123755   5.381   6.302   8.365  0.3200 -0.7367  0.7470
  732TIP3    H223756   5.289   6.336   8.480 -0.5283  1.1348 -0.4206
  733TIP3   OH223757   3.524   1.492   0.143  0.1881 -0.1516  0.1199
  733TIP3    H123758   3.579   1.558   0.186 -2.9072  1.2443  2.2644
  733TIP3    H223759   3.448   1.540   0.112 -0.5404 -2.2024 -1.5467
  734TIP3   OH223760   6.311   1.547   6.873 -0.4985 -0.1316 -0.3899
  734TIP3    H123761   6.352   1.606   6.809 -1.0092 -0.4165 -0.9930
  734TIP3    H223762   6.384   1.494   6.906  0.3589  2.2117  1.7577
  735TIP3   OH223763   1.214   3.733   7.072 -0.1081 -0.2535  0.0797
  735TIP3    H123764   1.157   3.749   7.148  1.7833 -0.7826  1.7088
  735TIP3    H223765   1.216   3.817   7.026  2.1540  1.6129  3.1618
  736TIP3   OH223766   5.074   4.988   1.928 -0.2014 -0.0201  0.0480
  736TIP3    H123767   5.053   5.079   1.950 -0.5688  0.1431 -0.9506
  736TIP3    H223768   5.043   4.937   2.003 -0.3838  0.6347  0.4192
  737TIP3   OH223769   0.597   5.613   1.525 -0.2925  0.0202  0.7213
  737TIP3    H123770   0.689   5.632   1.506 -0.8480  0.5306 -1.6815
  737TIP3    H223771   0.601   5.543   1.591  1.8698 -1.6730 -1.0294
  738TIP3   OH223772   4.582   5.753   1.055 -0.9064  0.0233 -1.0940
  738TIP3    H123773   4.637   5.681   1.084 -0.4828 -0.1431 -2.2361
  738TIP3    H223774   4.548   5.792   1.135 -2.0269 -2.1115 -0.4583
  739TIP3   OH223775   5.430   6.584   1.501  0.0993  0.0506 -0.2736
  739TIP3    H123776   5.457   6.583   1.409  1.7103  0.1216  0.1696
  739TIP3    H223777   5.508   6.611   1.548 -1.6289  3.9227  0.8192
  740TIP3   OH223778   4.856   1.638   2.551 -0.8075  0.3277 -0.5712
  740TIP3    H123779   4.852   1.731   2.570 -0.9913 -0.0428  1.3909
  740TIP3    H223780   4.788   1.599   2.606 -0.2567 -1.0326 -0.8135
  741TIP3   OH223781   0.180   3.249   0.390  0.1077  0.2596  0.1297
  741TIP3    H123782   0.134   3.293   0.319 -2.0402 -0.3170  1.0914
  741TIP3    H223783   0.235   3.318   0.429  2.1429  0.3515 -2.6146
  742TIP3   OH223784   2.140   4.421   7.590  0.3689  0.4227 -0.1048
  742TIP3    H123785   2.168   4.379   7.509  0.1852 -0.3465  0.2212
  742TIP3    H223786   2.046   4.401   7.596 -0.1623  2.4105 -0.8520
  743TIP3   OH223787   4.082   0.376   6.696  0.0010  0.1516  0.4016
  743TIP3    H123788   4.166   0.378   6.649  0.0486 -0.3360  0.4676
  743TIP3    H223789   4.039   0.458   6.671  0.1035 -0.0215 -0.3600
  744TIP3   OH223790   2.193   2.910   1.005 -0.1930  0.1692 -0.3328
  744TIP3    H123791   2.117   2.852   0.998  0.1533 -0.1143 -2.0833
  744TIP3    H223792   2.163   2.993   0.967  0.4295 -0.0149 -1.2432
  745TIP3   OH223793   0.534   5.634   6.672  0.1152  0.2829 -0.4526
  745TIP3    H123794   0.570   5.622   6.760 -2.6479  2.1414  1.0864
  745TIP3    H223795   0.461   5.572   6.667 -1.1270  1.6891 -0.5036
  746TIP3   OH223796   6.520   2.866   0.939 -0.1522  0.3841 -0.2754
  746TIP3    H123797   6.612   2.876   0.915  0.0533 -0.6648  0.0164
  746TIP3    H223798   6.483   2.810   0.870 -1.1048  2.4154 -1.5377
  747TIP3   OH223799   0.335   0.122   8.304  0.2082 -0.0854  0.0291
  747TIP3    H123800   0.385   0.041   8.293 -0.7018 -0.7552  0.6491
  747TIP3    H223801   0.401   0.190   8.321  0.8301 -1.2296  2.5463
  748TIP3   OH223802   1.706   1.819   8.061  0.0708 -0.2865  0.5185
  748TIP3    H123803   1.688   1.740   8.011  0.5063 -1.2189  1.7777
  748TIP3    H223804   1.734   1.787   8.147  0.4701  1.2310  0.9850
  749TIP3   OH223805   6.416   5.338   2.906  0.2068 -0.1864 -0.2464
  749TIP3    H123806   6.344   5.314   2.847 -1.5465 -0.6168  1.9378
  749TIP3    H223807   6.492   5.291   2.872 -0.0379  1.5347 -3.5958
  750TIP3   OH223808   6.479   4.339   2.051  0.3178  0.3198  0.7522
  750TIP3    H123809   6.387   4.329   2.077 -0.1915  0.4962 -0.8745
  750TIP3    H223810   6.486   4.429   2.019  0.5744 -0.2005 -0.7804
  751TIP3   OH223811   3.705   4.829   7.439 -0.4801 -0.2527 -0.6441
  751TIP3    H123812   3.742   4.867   7.519 -0.3077 -0.1293 -0.7819
  751TIP3    H223813   3.612   4.822   7.457 -0.2922 -1.3345  0.0256
  752TIP3   OH223814   5.053   2.844   1.932  0.4701 -0.4111  0.6930
  752TIP3    H123815   5.009   2.892   2.002 -3.3859 -1.0886 -1.0103
  752TIP3    H223816   5.108   2.910   1.889 -0.3531  1.0682  1.8095
  753TIP3   OH223817   3.523   3.805   7.811 -0.6568 -0.0752 -0.1439
  753TIP3    H123818   3.616   3.789   7.799 -0.5987  0.9560 -1.3693
  753TIP3    H223819   3.480   3.736   7.761 -0.6153 -1.5704  1.8085
  754TIP3   OH223820   0.465   4.324   8.081 -0.2459  0.4506 -0.0300
  754TIP3    H123821   0.509   4.246   8.113  0.0767  0.5370 -0.2561
  754TIP3    H223822   0.527   4.363   8.019 -0.3064  1.0071  0.2567
  755TIP3   OH223823   4.409   3.137   8.203  0.1542 -0.1280 -0.3822
  755TIP3    H123824   4.445   3.225   8.191 -0.4644  0.0781 -0.7412
  755TIP3    H223825   4.333   3.134   8.146  1.4226 -1.6438 -2.1021
  756TIP3   OH223826   1.641   5.289   1.693 -0.2444 -0.7513 -0.9284
  756TIP3    H123827   1.573   5.291   1.761 -2.8251 -1.3209 -3.3217
  756TIP3    H223828   1.688   5.207   1.707  0.3763 -0.1150  1.0701
  757TIP3   OH223829   5.453   0.051   0.301  0.1965  0.3504  0.0389
  757TIP3    H123830   5.505   0.074   0.224  0.3432 -0.2394 -0.0420
  757TIP3    H223831   5.471  -0.042   0.316  0.8604  0.6527  1.3061
  758TIP3   OH223832   4.963   1.129   0.282 -0.2287 -0.2308  0.2631
  758TIP3    H123833   4.883   1.168   0.317  0.0705 -1.6736  2.7260
  758TIP3    H223834   4.940   1.038   0.265  0.1121  0.0297 -1.9636
  759TIP3   OH223835   6.417   6.353   7.753  0.1403 -0.2697  0.2677
  759TIP3    H123836   6.492   6.334   7.697 -1.1789 -0.6446 -1.4553
  759TIP3    H223837   6.408   6.448   7.751  0.6337 -0.2159  0.5825
  760TIP3   OH223838   6.816   4.312   2.386 -0.3140 -0.6277  0.1794
  760TIP3    H123839   6.877   4.239   2.390  0.9484  0.3672 -0.3556
  760TIP3    H223840   6.731   4.274   2.408  0.0158 -2.6065 -1.6906
  761TIP3   OH223841   3.728   0.857   0.168 -0.2642  0.6429  0.3962
  761TIP3    H123842   3.680   0.869   0.250 -0.4104  0.7944  0.2888
  761TIP3    H223843   3.819   0.847   0.195 -0.1093  2.1396  0.4850
  762TIP3   OH223844   3.147   0.629   2.429  0.1370 -0.2780 -0.1475
  762TIP3    H123845   3.113   0.717   2.447 -0.6093 -0.5689 -0.0641
  762TIP3    H223846   3.140   0.583   2.513  0.1421 -0.5351 -0.2862
  763TIP3   OH223847   2.643   4.457   0.712 -0.1688 -0.2659  0.3210
  763TIP3    H123848   2.569   4.461   0.652  0.9193 -0.8376 -1.1247
  763TIP3    H223849   2.614   4.399   0.783 -1.2404 -0.1474 -0.0135
  764TIP3   OH223850   0.707   0.658   1.409  0.3350 -0.2844  0.2787
  764TIP3    H123851   0.618   0.652   1.443 -0.3163  1.4499 -0.9912
  764TIP3    H223852   0.762   0.622   1.479 -1.4145 -2.4590  0.6433
  765TIP3   OH223853   3.399   5.352   6.248  0.5957 -0.4774 -0.8688
  765TIP3    H123854   3.315   5.326   6.284 -0.1309  1.6166 -0.9254
  765TIP3    H223855   3.388   5.444   6.223  3.3380  0.3610  0.5505
  766TIP3   OH223856   3.961   6.440   7.367  0.2575  0.0699 -0.2394
  766TIP3    H123857   3.940   6.393   7.286  0.6062 -0.7642  0.1373
  766TIP3    H223858   3.962   6.372   7.434 -0.8904  0.8761  0.6329
  767TIP3   OH223859   1.741   6.216   1.331 -0.6912 -1.0593  0.1308
  767TIP3    H123860   1.737   6.130   1.373  1.8564 -0.6397  1.3910
  767TIP3    H223861   1.814   6.210   1.270 -0.3853  0.2594  0.3357
  768TIP3   OH223862   0.118   4.299   8.460  1.2091  0.9162 -0.2142
  768TIP3    H123863   0.031   4.272   8.433 -0.1393  1.8068  2.7528
  768TIP3    H223864   0.177   4.248   8.405 -1.1637 -1.0669 -1.1395
  769TIP3   OH223865   0.131   5.105   0.412 -0.1171  0.3043  0.5279
  769TIP3    H123866   0.125   5.151   0.329 -0.6075 -2.0869 -0.8752
  769TIP3    H223867   0.041   5.075   0.429  0.2985 -0.7599  0.9466
  770TIP3   OH223868   0.291   4.533   8.149  0.6447  0.2931  0.3747
  770TIP3    H123869   0.351   4.463   8.123 -1.3941 -1.7388  0.8147
  770TIP3    H223870   0.292   4.532   8.245  1.3891  1.6513  0.4119
  771TIP3   OH223871   3.029   5.648   8.370  0.1243  0.5801 -0.4621
  771TIP3    H123872   3.030   5.556   8.397 -1.0252  0.3167 -1.2563
  771TIP3    H223873   3.118   5.678   8.384  0.2448 -0.3260  0.9286
  772TIP3   OH223874   6.640   4.995   6.800 -0.4458  0.1431 -0.0872
  772TIP3    H123875   6.733   4.972   6.802 -1.1717 -3.4525 -0.6234
  772TIP3    H223876   6.631   5.052   6.724  0.8912 -2.2452 -2.1890
  773TIP3   OH223877   2.181   6.642   0.280 -0.4640 -0.0548  0.0205
  773TIP3    H123878   2.168   6.553   0.249 -1.3994  0.3171 -0.6792
  773TIP3    H223879   2.248   6.678   0.221  1.0623 -0.7412  1.2418
  774TIP3   OH223880   5.242   0.563   6.841  0.4832 -0.3119 -0.0272
  774TIP3    H123881   5.240   0.511   6.921 -0.4065 -0.6461 -0.2563
  774TIP3    H223882   5.187   0.515   6.779 -0.9556  1.2370 -0.0257
  775TIP3   OH223883   5.224   1.551   0.659 -0.4884 -0.3537  0.0294
  775TIP3    H123884   5.303   1.555   0.713  0.1230 -2.4807 -0.6058
  775TIP3    H223885   5.169   1.485   0.702 -1.8884  0.9643  0.3620
  776TIP3   OH223886   4.498   6.302   8.372 -0.1538  0.2321 -0.6896
  776TIP3    H123887   4.448   6.352   8.306  0.2339 -0.0491 -1.2059
  776TIP3    H223888   4.547   6.238   8.320  0.0611 -0.0733 -0.1067
  777TIP3   OH223889   2.148   3.430   7.157 -0.2041 -0.8822  0.2910
  777TIP3    H123890   2.147   3.519   7.121 -0.4173 -0.0793  2.1944
  777TIP3    H223891   2.235   3.397   7.137 -0.1225 -0.2638 -0.4325
  778TIP3   OH223892   3.878   4.583   7.078  0.2033 -0.4471 -0.1317
  778TIP3    H123893   3.924   4.560   6.998 -0.3940 -0.6120 -0.4332
  778TIP3    H223894   3.861   4.677   7.070  1.0111 -0.2549  0.2592
  779TIP3   OH223895   3.457   3.572   1.458  0.1655  0.0436  0.2366
  779TIP3    H123896   3.490   3.528   1.379  0.5026  1.1745 -0.2615
  779TIP3    H223897   3.384   3.517   1.486 -0.0593 -0.2965 -0.9496
  780TIP3   OH223898   1.290   5.237   2.093 -0.2034  0.0364  0.1802
  780TIP3    H123899   1.259   5.311   2.042  0.5704 -0.1938 -0.6419
  780TIP3    H223900   1.210   5.190   2.118 -0.6297  0.5419 -0.2116
  781TIP3   OH223901   6.863   0.098   2.422 -0.1045  0.6163 -0.2833
  781TIP3    H123902   6.897   0.059   2.503  1.0358  0.7075 -0.6966
  781TIP3    H223903   6.783   0.143   2.449 -0.6634 -0.7594  0.4807
  782TIP3   OH223904   3.717   1.220   7.944 -0.2560 -0.2837 -0.1052
  782TIP3    H123905   3.663   1.159   7.995  0.2493 -0.2529  0.4757
  782TIP3    H223906   3.766   1.164   7.884  0.7434 -0.5411  0.9160
  783TIP3   OH223907   5.618   4.226   1.365 -0.3013 -0.1145 -0.2575
  783TIP3    H123908   5.578   4.284   1.429  0.4359  0.0630  0.0542
  783TIP3    H223909   5.577   4.141   1.381  0.2029 -0.1812  0.7727
  784TIP3   OH223910   1.282   3.675   8.161 -0.1940  0.6665  0.1246
  784TIP3    H123911   1.188   3.658   8.153 -0.2795 -0.2491  2.3548
  784TIP3    H223912   1.288   3.758   8.208  0.0988  0.6745  0.0756
  785TIP3   OH223913   4.648   5.578   0.716 -0.2561  0.5073 -0.3770
  785TIP3    H123914   4.718   5.576   0.651 -0.1050 -1.3295 -0.2316
  785TIP3    H223915   4.604   5.493   0.706 -1.5157  1.0151  0.5485
  786TIP3   OH223916   5.432   4.423   1.212 -0.4061 -0.1677  0.8783
  786TIP3    H123917   5.499   4.471   1.164 -0.6795 -1.4245 -0.8700
  786TIP3    H223918   5.479   4.349   1.251 -0.2711  0.5968  2.2365
  787TIP3   OH223919   0.514   0.650   2.662 -0.3630  0.7436  0.0573
  787TIP3    H123920   0.426   0.661   2.696 -1.0336 -0.2546 -1.2267
  787TIP3    H223921   0.546   0.570   2.703 -1.3441 -0.7149 -1.8400
  788TIP3   OH223922   2.393   5.354   3.101 -0.1459  0.2045  0.0310
  788TIP3    H123923   2.413   5.395   3.017  0.2456 -1.6822 -0.8504
  788TIP3    H223924   2.464   5.382   3.158 -0.0556  0.9785 -0.4447
  789TIP3   OH223925   3.657   4.853   1.288 -0.0598  0.2175 -0.2662
  789TIP3    H123926   3.682   4.927   1.344  0.2940 -0.7659  0.9137
  789TIP3    H223927   3.569   4.875   1.257  0.2867  1.4146 -0.4366
  790TIP3   OH223928   5.986   5.805   2.005 -0.3704 -0.2702  0.6251
  790TIP3    H123929   6.055   5.850   1.957  0.0771 -1.5539  0.0187
  790TIP3    H223930   6.031   5.734   2.050 -1.2776 -1.0501  0.3251
  791TIP3   OH223931   0.649   0.775   8.017  0.5015 -0.2133 -0.1991
  791TIP3    H123932   0.654   0.868   7.994  1.1294 -0.6993 -2.2386
  791TIP3    H223933   0.739   0.750   8.035  0.1588 -0.1219  1.9404
  792TIP3   OH223934   4.926   5.455   1.429 -0.3604  0.0953 -0.3379
  792TIP3    H123935   5.018   5.465   1.453 -0.0882 -2.4893  0.0063
  792TIP3    H223936   4.879   5.507   1.494  0.7882  0.0985  0.5255
  793TIP3   OH223937   6.903   3.280   7.764  0.2854 -0.3461  0.4031
  793TIP3    H123938   6.889   3.187   7.748  0.4977  0.0182 -2.4382
  793TIP3    H223939   6.917   3.318   7.677  1.2514  2.1829  1.5413
  794TIP3   OH223940   6.858   6.317   8.201 -0.4003 -0.2346  0.2151
  794TIP3    H123941   6.773   6.312   8.245 -0.7404  0.4632 -0.3447
  794TIP3    H223942   6.854   6.399   8.151  0.8042  0.0717  0.6020
  795TIP3   OH223943   2.718   0.988   0.144 -0.1424 -0.0056  0.0569
  795TIP3    H123944   2.745   1.055   0.207 -0.1245 -0.0646  0.1124
  795TIP3    H223945   2.624   1.004   0.132 -0.3016 -0.4467  0.6543
  796TIP3   OH223946   6.282   4.973   7.916 -0.5431  0.4106 -0.5141
  796TIP3    H123947   6.364   4.951   7.960 -0.1244 -3.0605 -2.6565
  796TIP3    H223948   6.309   5.000   7.828 -1.6113 -0.0288 -0.9928
  797TIP3   OH223949   0.212   5.653   0.793  0.0221  0.6400  0.2814
  797TIP3    H123950   0.280   5.658   0.860 -0.2337  0.4790  0.5553
  797TIP3    H223951   0.140   5.705   0.828 -0.3715  0.0037  0.4416
  798TIP3   OH223952   4.852   5.049   7.996 -0.0657 -0.0167  0.2129
  798TIP3    H123953   4.915   5.092   7.939  1.0658  1.4429  2.3887
  798TIP3    H223954   4.895   4.968   8.024 -0.0151 -0.0120  0.1480
  799TIP3   OH223955   4.210   0.737   8.089  0.0713 -0.0906 -0.1271
  799TIP3    H123956   4.292   0.719   8.041 -0.8365 -0.4286 -1.6186
  799TIP3    H223957   4.224   0.697   8.174  0.7713 -1.8321 -1.0053
  800TIP3   OH223958   1.099   6.493   0.065  0.1280  0.4971 -0.4578
  800TIP3    H123959   1.058   6.414   0.030  2.3817 -0.4968 -1.1002
  800TIP3    H223960   1.140   6.464   0.146  0.7088  1.0623 -0.5394
  801TIP3   OH223961   0.833   3.628   1.643 -0.1729 -0.0817  0.5814
  801TIP3    H123962   0.790   3.574   1.577  0.3921  0.9087 -0.6421
  801TIP3    H223963   0.791   3.604   1.726 -0.6208 -1.6420 -0.0662
  802TIP3   OH223964   5.458   0.361   0.662 -0.3721 -0.3857 -0.2138
  802TIP3    H123965   5.499   0.448   0.660 -2.2450  0.5345 -1.2859
  802TIP3    H223966   5.524   0.303   0.623  0.2002  0.9121 -1.2690
  803TIP3   OH223967   5.158   3.301   7.578 -0.3693 -0.3293  0.2536
  803TIP3    H123968   5.122   3.334   7.660 -0.0024 -0.5539  0.5078
  803TIP3    H223969   5.083   3.263   7.532 -1.3014  2.8820 -1.1045
  804TIP3   OH223970   1.155   0.852   1.436  0.7165 -0.0954 -0.1688
  804TIP3    H123971   1.129   0.769   1.477  2.6855 -0.1482  1.1107
  804TIP3    H223972   1.074   0.902   1.429 -0.1493 -1.2501  1.1378
  805TIP3   OH223973   3.840   0.442   7.907  0.0562 -0.4767  0.4662
  805TIP3    H123974   3.909   0.437   7.841  1.0498  0.3928  1.3972
  805TIP3    H223975   3.760   0.415   7.861  1.0926 -2.0909 -0.4870
  806TIP3   OH223976   1.635   2.336   0.999 -0.2937 -0.2283  0.4889
  806TIP3    H123977   1.556   2.285   1.012 -0.4437 -0.3683 -0.8230
  806TIP3    H223978   1.634   2.401   1.069 -2.7074  1.1592 -0.7086
  807TIP3   OH223979   6.209   3.259   0.149  0.0950  0.0026 -0.2092
  807TIP3    H123980   6.143   3.238   0.215  0.0734 -1.0646 -0.5542
  807TIP3    H223981   6.229   3.175   0.107  0.3165  0.5996 -1.3565
  808TIP3   OH223982   1.504   3.144   6.633  0.2247 -0.0347 -0.0764
  808TIP3    H123983   1.453   3.218   6.665  2.1930  1.3078  0.1351
  808TIP3    H223984   1.595   3.168   6.651  0.9541 -2.4061 -0.2443
  809TIP3   OH223985   3.569   6.908   7.940  0.2845  0.1248 -0.0692
  809TIP3    H123986   3.481   6.942   7.927  0.2568  0.0892  0.0202
  809TIP3    H223987   3.568   6.820   7.901 -0.1407 -0.4539  1.1911
  810TIP3   OH223988   5.093   0.517   0.844 -0.0669  0.4383  0.3399
  810TIP3    H123989   5.088   0.477   0.757 -1.3019 -0.4823  0.8107
  810TIP3    H223990   5.158   0.465   0.891 -1.2804 -0.7279  0.7780
  811TIP3   OH223991   1.674   5.284   0.630  0.1043 -0.2230 -0.1877
  811TIP3    H123992   1.715   5.273   0.716 -2.1751 -0.4090  0.9692
  811TIP3    H223993   1.594   5.231   0.636 -0.4064  0.2589 -2.2210
  812TIP3   OH223994   3.850   1.040   7.780  0.1024  0.2502  0.1419
  812TIP3    H123995   3.799   0.962   7.759  0.0554  0.3010  0.0681
  812TIP3    H223996   3.906   1.013   7.853  1.7392 -0.5459 -1.3236
  813TIP3   OH223997   3.497   4.349   0.039  0.5869 -0.5666 -0.5502
  813TIP3    H123998   3.514   4.263   0.077  0.8852 -0.0974  0.4274
  813TIP3    H223999   3.413   4.375   0.077 -0.0894 -0.9047 -1.7526
  814TIP3   OH224000   4.737   4.939   0.461 -0.2030 -0.3592 -0.2912
  814TIP3    H124001   4.743   4.936   0.365  1.8065 -0.7974 -0.2112
  814TIP3    H224002   4.751   5.031   0.483  0.7647 -0.4676 -0.3917
  815TIP3   OH224003   5.538   4.070   1.846  0.1548  0.0182 -0.2581
  815TIP3    H124004   5.521   4.048   1.938  1.2743  0.0806 -0.0254
  815TIP3    H224005   5.632   4.085   1.842 -0.1035  1.5897 -1.0859
  816TIP3   OH224006   4.104   6.812   2.576 -0.4587 -0.2578  0.4847
  816TIP3    H124007   4.079   6.720   2.588 -0.6204 -0.6940 -2.4696
  816TIP3    H224008   4.195   6.816   2.603 -0.5876 -1.1561  1.1007
  817TIP3   OH224009   3.244   5.673   2.379 -0.2286 -0.0596  0.3208
  817TIP3    H124010   3.167   5.630   2.416 -0.1047  0.2645  0.9686
  817TIP3    H224011   3.296   5.699   2.455  1.1632 -1.4118 -0.1099
  818TIP3   OH224012   3.045   0.619   2.062 -0.2588  0.6448 -0.7731
  818TIP3    H124013   2.973   0.570   2.100  0.4436 -0.5871 -0.9952
  818TIP3    H224014   3.017   0.711   2.067 -1.1018  0.3353  0.6895
  819TIP3   OH224015   3.079   1.801   6.048  0.2999 -0.4540  0.0867
  819TIP3    H124016   3.004   1.746   6.026  1.2222 -0.6899 -2.8370
  819TIP3    H224017   3.155   1.747   6.028  1.2954  0.1496  2.0112
  820TIP3   OH224018   4.857   4.350   1.179 -0.3395  0.2916 -0.0756
  820TIP3    H124019   4.910   4.384   1.252 -0.0748  0.0903 -0.1758
  820TIP3    H224020   4.921   4.318   1.116 -0.5674  0.5408 -0.4359
  821TIP3   OH224021   3.758   3.801   1.580 -0.5861  0.2103  0.4301
  821TIP3    H124022   3.703   3.724   1.567  1.8647 -2.0201  1.9882
  821TIP3    H224023   3.833   3.787   1.522 -0.7149  2.1909 -0.2897
  822TIP3   OH224024   3.838   0.912   7.438 -0.1362  0.0207 -0.0823
  822TIP3    H124025   3.796   0.998   7.446 -0.4022 -0.2698  2.7453
  822TIP3    H224026   3.925   0.931   7.402 -0.2034  1.4964  0.4498
  823TIP3   OH224027   0.893   6.132   0.759  0.8980 -0.0103 -0.3272
  823TIP3    H124028   0.949   6.209   0.774  1.3315 -0.2868 -0.5159
  823TIP3    H224029   0.903   6.113   0.665  0.1824  0.1746 -0.4418
  824TIP3   OH224030   5.805   0.425   7.702 -0.7393  0.3943 -0.1425
  824TIP3    H124031   5.716   0.447   7.672 -0.3756  1.6864 -0.3206
  824TIP3    H224032   5.805   0.446   7.795  0.0291  2.6094 -0.6010
  825TIP3   OH224033   6.495   6.198   7.964  0.4112 -0.5154  0.9639
  825TIP3    H124034   6.425   6.229   7.905  0.3197 -1.0479  0.7795
  825TIP3    H224035   6.551   6.274   7.977  0.8156 -0.5626 -0.3723
  826TIP3   OH224036   2.853   2.349   0.561 -0.2984  0.0117  0.4672
  826TIP3    H124037   2.801   2.427   0.544 -0.3397 -0.3036 -0.9947
  826TIP3    H224038   2.932   2.381   0.605 -0.9070  0.7051  1.0655
  827TIP3   OH224039   6.675   2.866   8.473 -0.8178  0.4013 -0.1002
  827TIP3    H124040   6.762   2.861   8.434 -0.6706  1.3465  0.0725
  827TIP3    H224041   6.624   2.800   8.426 -0.2063  0.3577 -0.7231
  828TIP3   OH224042   4.697   0.922   2.212 -0.1263 -0.2137  0.2275
  828TIP3    H124043   4.653   1.001   2.180  1.8156  0.5642 -0.6923
  828TIP3    H224044   4.696   0.931   2.308  1.7314  1.9865  0.1306
  829TIP3   OH224045   0.408   5.733   1.400 -0.0121 -0.2733  0.0831
  829TIP3    H124046   0.473   5.676   1.441  0.7393 -0.2696 -1.0660
  829TIP3    H224047   0.340   5.744   1.467  1.1216 -0.3378  1.2819
  830TIP3   OH224048   1.124   3.947   0.142 -0.0457  0.1862  0.1080
  830TIP3    H124049   1.045   3.897   0.122 -0.4433  0.5701  0.6984
  830TIP3    H224050   1.141   3.998   0.063  0.0882 -0.5103 -0.3230
  831TIP3   OH224051   4.254   2.566   6.984 -0.0858 -0.1196 -0.1794
  831TIP3    H124052   4.292   2.519   7.058  2.3755  1.8538 -0.0643
  831TIP3    H224053   4.316   2.554   6.912 -0.8946  0.5378 -1.0236
  832TIP3   OH224054   1.223   4.344   2.334 -0.1031  0.3161  0.1279
  832TIP3    H124055   1.276   4.422   2.350 -0.9108  0.9276 -0.1348
  832TIP3    H224056   1.266   4.300   2.261 -0.6389  1.4672 -0.9257
  833TIP3   OH224057   5.481   3.508   1.251  0.3859 -0.0492 -0.3638
  833TIP3    H124058   5.419   3.447   1.212  1.9219 -0.9805 -1.4255
  833TIP3    H224059   5.536   3.454   1.308  0.9656  0.5495 -0.3410
  834TIP3   OH224060   4.725   3.750   7.652 -0.2328 -0.0196  0.2051
  834TIP3    H124061   4.664   3.791   7.713 -1.4460 -1.0343 -0.2760
  834TIP3    H224062   4.704   3.789   7.567 -0.6023 -0.7859 -0.0585
  835TIP3   OH224063   3.743   1.672   0.966 -0.0572 -0.0396  0.0585
  835TIP3    H124064   3.702   1.691   0.882  0.4521  0.9370  0.0211
  835TIP3    H224065   3.716   1.582   0.986 -0.1866 -0.2796 -1.1404
  836TIP3   OH224066   1.097   2.463   1.599  0.5652 -0.0551  0.1022
  836TIP3    H124067   1.173   2.491   1.547  0.8512  0.1233  0.6066
  836TIP3    H224068   1.034   2.431   1.534  0.3653  1.4279 -0.4867
  837TIP3   OH224069   6.087   5.824   2.357  0.1812 -0.2928 -0.1398
  837TIP3    H124070   6.134   5.823   2.441  0.8544 -1.0946 -0.5185
  837TIP3    H224071   6.155   5.815   2.291 -0.5207 -2.1509 -0.6753
  838TIP3   OH224072   4.777   4.765   6.368 -0.5421  0.3585  0.8594
  838TIP3    H124073   4.839   4.787   6.438  0.4484 -3.6594  1.5168
  838TIP3    H224074   4.824   4.701   6.314 -2.7758  0.2061 -1.0658
  839TIP3   OH224075   4.323   1.991   7.491 -0.2059 -0.2850 -0.2551
  839TIP3    H124076   4.263   1.974   7.564  0.3447  2.4477  0.9410
  839TIP3    H224077   4.409   1.999   7.531  0.1025  1.3157 -1.1420
  840TIP3   OH224078   4.194   1.686   6.681  0.5878  0.3031  0.4724
  840TIP3    H124079   4.286   1.696   6.703  1.6908 -0.8829 -2.9232
  840TIP3    H224080   4.174   1.761   6.625  0.6260 -1.1730 -1.6635
  841TIP3   OH224081   2.775   5.912   7.366  0.3884  0.4754  0.6492
  841TIP3    H124082   2.863   5.927   7.399 -0.2230  1.6062  1.8145
  841TIP3    H224083   2.770   5.964   7.286  0.7656  0.3947  0.5695
  842TIP3   OH224084   5.362   2.455   6.601 -0.0792 -0.9429  0.6107
  842TIP3    H124085   5.412   2.510   6.540  0.0658 -3.2691 -1.5304
  842TIP3    H224086   5.423   2.441   6.674  0.2262  0.8413  0.7695
  843TIP3   OH224087   6.846   1.738   1.415 -0.2900 -0.1539  0.0503
  843TIP3    H124088   6.904   1.675   1.372 -1.0344 -0.9220  0.1364
  843TIP3    H224089   6.904   1.806   1.447  0.8081 -1.7370  1.6513
  844TIP3   OH224090   6.719   1.015   2.525  0.0849  0.0849  0.2555
  844TIP3    H124091   6.638   0.964   2.529 -0.1033  0.1144 -2.0142
  844TIP3    H224092   6.699   1.094   2.576 -1.0917 -0.1820  0.2361
  845TIP3   OH224093   3.991   4.936   1.723  0.0205 -0.6042 -0.1386
  845TIP3    H124094   4.085   4.942   1.739 -0.0727  0.8443  0.0040
  845TIP3    H224095   3.954   5.013   1.767 -1.2855 -1.3531  0.1351
  846TIP3   OH224096   1.442   0.210   2.334 -0.4772 -0.0283  0.1386
  846TIP3    H124097   1.494   0.190   2.412  1.6135 -0.6585 -1.3554
  846TIP3    H224098   1.445   0.130   2.282 -2.3346  0.1867 -0.3836
  847TIP3   OH224099   2.777   6.456   1.721 -0.1660 -0.8261  0.3591
  847TIP3    H124100   2.842   6.401   1.765 -0.1001 -0.1426  1.1522
  847TIP3    H224101   2.726   6.494   1.792  0.0975  0.5106 -0.1288
  848TIP3   OH224102   5.697   0.644   0.281 -0.1111  0.5073  0.7145
  848TIP3    H124103   5.631   0.614   0.219  1.9719 -1.0490 -0.9218
  848TIP3    H224104   5.753   0.568   0.296  1.4441  1.7821  1.8185
  849TIP3   OH224105   5.900   1.472   1.993  0.2768  0.0961 -0.2826
  849TIP3    H124106   5.828   1.489   1.932 -0.2921 -0.4370  0.2268
  849TIP3    H224107   5.894   1.543   2.057  1.1691  0.9307 -1.0873
  850TIP3   OH224108   5.484   5.103   8.152 -0.5833 -1.1153  0.2656
  850TIP3    H124109   5.456   5.068   8.068 -0.9636 -0.9033  0.3027
  850TIP3    H224110   5.523   5.188   8.131 -2.4834 -0.1349  0.5017
  851TIP3   OH224111   6.330   2.350   2.020  0.5338  0.0389 -0.1632
  851TIP3    H124112   6.254   2.409   2.017  0.4218 -0.1207 -0.5795
  851TIP3    H224113   6.327   2.313   2.108 -0.8278 -1.1859 -0.6743
  852TIP3   OH224114   4.752   2.386   2.114 -0.1595  0.0917 -0.2567
  852TIP3    H124115   4.812   2.399   2.188  0.0747 -1.0858 -0.2256
  852TIP3    H224116   4.809   2.361   2.041 -0.5363 -0.2995 -0.4202
  853TIP3   OH224117   4.356   6.563   0.127  0.0750 -0.5546 -0.3515
  853TIP3    H124118   4.322   6.599   0.045  2.3753 -1.7356 -1.9425
  853TIP3    H224119   4.309   6.480   0.138  1.2250 -1.4265 -1.6889
  854TIP3   OH224120   6.460   6.360   0.296 -0.1085 -0.1503  0.1224
  854TIP3    H124121   6.527   6.294   0.279 -0.2473 -0.6350  1.3797
  854TIP3    H224122   6.497   6.441   0.260  0.6746 -0.6306 -0.1723
  855TIP3   OH224123   4.076   1.386   0.630 -0.8737 -0.1360  0.0699
  855TIP3    H124124   4.097   1.472   0.593 -2.0332  0.4759  0.7735
  855TIP3    H224125   4.144   1.328   0.596  1.7139  1.6186  1.8439
  856TIP3   OH224126   2.699   3.195   1.530  0.5753  0.2536 -0.2551
  856TIP3    H124127   2.690   3.160   1.441  1.3801  0.8227 -0.5728
  856TIP3    H224128   2.655   3.130   1.586  0.1938 -0.1865 -1.0436
  857TIP3   OH224129   5.850   5.686   2.326  0.6112  0.1679  0.4253
  857TIP3    H124130   5.928   5.742   2.327  1.3959 -0.8930  0.4510
  857TIP3    H224131   5.776   5.747   2.323  1.4618  1.1821 -0.4646
  858TIP3   OH224132   2.419   5.977   1.724  0.4189  0.1915 -0.0652
  858TIP3    H124133   2.459   5.890   1.722 -2.4981 -1.2527  0.2735
  858TIP3    H224134   2.410   5.998   1.817 -1.5753 -0.5284 -0.0580
  859TIP3   OH224135   1.798   6.399   0.211  0.1546  0.1410 -0.2483
  859TIP3    H124136   1.849   6.441   0.282  0.3414  0.2093 -0.4207
  859TIP3    H224137   1.709   6.397   0.244  0.1672  0.5520 -0.1759
  860TIP3   OH224138   1.397   2.500   1.480 -0.1814  0.8185 -0.2246
  860TIP3    H124139   1.408   2.581   1.531  0.0662  0.9620 -0.5044
  860TIP3    H224140   1.425   2.431   1.540 -1.4364  0.8254  0.4039
  861TIP3   OH224141   3.828   3.306   7.214 -0.0845  0.8611 -0.2033
  861TIP3    H124142   3.835   3.401   7.205  0.4651  0.7211 -1.4536
  861TIP3    H224143   3.750   3.283   7.164 -0.7156  0.7264  0.8087
  862TIP3   OH224144   2.625   0.597   7.362 -0.1213  0.1371 -0.4473
  862TIP3    H124145   2.593   0.507   7.351 -1.4062  0.5803 -0.4895
  862TIP3    H224146   2.635   0.629   7.273 -0.4953  0.3119 -0.4285
  863TIP3   OH224147   3.559   2.182   0.695  0.6507  0.1722 -0.3592
  863TIP3    H124148   3.624   2.112   0.691  0.2739 -0.1785 -0.3748
  863TIP3    H224149   3.582   2.241   0.624  0.3922 -0.4401 -0.9590
  864TIP3   OH224150   4.252   6.221   7.161  0.0034 -0.0240 -0.3198
  864TIP3    H124151   4.341   6.201   7.189  0.4652  1.5448 -0.5456
  864TIP3    H224152   4.254   6.315   7.141 -1.4306 -0.1748 -1.3455
  865TIP3   OH224153   3.576   3.259   7.965  0.3593 -0.3435  0.3491
  865TIP3    H124154   3.608   3.245   8.055  1.2084  2.3239  0.5482
  865TIP3    H224155   3.569   3.171   7.928  1.9676 -1.3997  2.3623
  866TIP3   OH224156   6.235   2.490   7.635 -0.3378 -0.2345 -0.6875
  866TIP3    H124157   6.262   2.473   7.545  2.0102  1.5310 -0.4340
  866TIP3    H224158   6.178   2.567   7.629 -1.7832 -1.2877 -0.8078
  867TIP3   OH224159   2.741   5.352   7.559 -0.6995  0.2360  0.4241
  867TIP3    H124160   2.701   5.266   7.567 -0.5631 -0.1230 -1.9802
  867TIP3    H224161   2.835   5.335   7.566 -0.6771  0.1989  0.0427
  868TIP3   OH224162   5.487   1.541   0.819 -0.5044 -0.0295  0.2192
  868TIP3    H124163   5.446   1.467   0.864 -0.8879  0.5566  0.8523
  868TIP3    H224164   5.578   1.540   0.848 -0.2585 -0.8171 -0.5216
  869TIP3   OH224165   0.167   5.629   7.060 -0.9808 -0.5163  0.8081
  869TIP3    H124166   0.152   5.569   6.987 -0.4303  1.0823 -0.6803
  869TIP3    H224167   0.215   5.702   7.022 -2.9295  1.6206  2.2003
  870TIP3   OH224168   3.511   3.774   6.395  0.5089  0.0144  0.2696
  870TIP3    H124169   3.549   3.861   6.378 -0.8749  0.2424 -1.9536
  870TIP3    H224170   3.466   3.751   6.314 -2.3928 -1.1281  2.0776
  871TIP3   OH224171   2.514   6.231   7.898  0.1140  0.1396  0.2025
  871TIP3    H124172   2.497   6.149   7.851  1.3042 -1.2798  2.0762
  871TIP3    H224173   2.560   6.286   7.835 -1.0288 -0.4564 -1.2197
  872TIP3   OH224174   1.622   6.689   7.561 -0.2088 -0.0964  0.3822
  872TIP3    H124175   1.707   6.658   7.531  0.0329 -1.1384  2.0104
  872TIP3    H224176   1.615   6.778   7.526  2.2256  0.6104  1.4354
  873TIP3   OH224177   3.684   5.309   7.776 -0.2740  0.7634  0.4961
  873TIP3    H124178   3.605   5.268   7.811 -0.7420 -0.3145 -1.6529
  873TIP3    H224179   3.662   5.402   7.769 -1.3895  0.4782 -0.0693
  874TIP3   OH224180   4.832   2.222   0.716 -0.7128 -0.0446 -0.1551
  874TIP3    H124181   4.776   2.197   0.789  0.1141 -0.1790  0.4526
  874TIP3    H224182   4.788   2.188   0.639 -0.4552 -1.9845  0.4906
  875TIP3   OH224183   2.114   5.472   1.940 -0.7016  0.5971 -0.5225
  875TIP3    H124184   2.033   5.499   1.983  0.5050  0.1254  2.2947
  875TIP3    H224185   2.148   5.552   1.900 -2.8583  0.6445 -2.4838
  876TIP3   OH224186   5.944   1.513   7.648 -0.2395 -0.4035 -1.1293
  876TIP3    H124187   5.986   1.428   7.644  0.3892 -0.0701 -1.9112
  876TIP3    H224188   5.878   1.504   7.717  0.8646 -1.0316 -0.1211
  877TIP3   OH224189   2.905   0.823   8.459  0.4187 -0.2420  0.1120
  877TIP3    H124190   2.913   0.729   8.477 -0.8874 -0.3573  0.1622
  877TIP3    H224191   2.891   0.863   8.545 -1.7672 -0.3375 -0.1496
  878TIP3   OH224192   0.824   6.098   8.555  0.9291  0.9586  0.2752
  878TIP3    H124193   0.912   6.060   8.552  1.1953  1.6362 -1.4253
  878TIP3    H224194   0.777   6.043   8.619  1.9511 -0.7959 -0.4059
  879TIP3   OH224195   4.146   5.273   6.416  0.2191  0.2380  0.3613
  879TIP3    H124196   4.058   5.247   6.390  0.6625 -0.0204 -0.9404
  879TIP3    H224197   4.204   5.214   6.369  1.0911 -0.3151  2.0391
  880TIP3   OH224198   5.880   4.316   1.499 -0.2922 -0.5268 -0.0365
  880TIP3    H124199   5.918   4.355   1.578 -1.2917 -0.6028  0.4960
  880TIP3    H224200   5.870   4.390   1.439 -1.1324 -0.1525  0.5520
  881TIP3   OH224201   4.800   0.270   1.687 -0.6686  0.0815  0.2580
  881TIP3    H124202   4.786   0.176   1.697  0.1882  0.0744  1.7090
  881TIP3    H224203   4.777   0.288   1.595  0.6564 -1.8207 -0.5217
  882TIP3   OH224204   1.854   3.810   1.342 -0.5134  0.1539  0.0236
  882TIP3    H124205   1.919   3.770   1.400 -0.9973 -0.8551 -0.1136
  882TIP3    H224206   1.801   3.737   1.310 -1.8438  0.9602  0.2865
  883TIP3   OH224207   2.598   5.375   1.447 -0.0854  0.0977 -0.2233
  883TIP3    H124208   2.625   5.285   1.433  0.3802  0.1700  0.1957
  883TIP3    H224209   2.502   5.372   1.445 -0.0755 -0.4445  0.0690
  884TIP3   OH224210   4.791   1.119   0.005  0.1942  0.2755  0.0195
  884TIP3    H124211   4.802   1.034   0.049  1.0789 -0.1510 -0.9994
  884TIP3    H224212   4.703   1.148   0.032  0.8487  0.2639  2.4344
  885TIP3   OH224213   3.285   2.262   6.436  1.1597 -0.1016 -0.5251
  885TIP3    H124214   3.302   2.345   6.391  2.4744 -0.0284  0.0601
  885TIP3    H224215   3.291   2.284   6.529 -0.2793 -0.5059 -0.3064
  886TIP3   OH224216   5.771   0.773   7.415 -0.4499  0.1500 -0.2546
  886TIP3    H124217   5.835   0.704   7.399 -1.5319 -1.1790  0.7959
  886TIP3    H224218   5.789   0.839   7.349  0.1887 -1.4773 -1.7921
  887TIP3   OH224219   6.798   5.894   7.532  0.2928  0.1430 -0.2104
  887TIP3    H124220   6.843   5.853   7.459 -1.5006  0.2545 -1.4538
  887TIP3    H224221   6.828   5.985   7.531  1.9184 -0.3537  0.6038
  888TIP3   OH224222   6.051   5.144   7.176  0.0237 -0.0193 -0.2960
  888TIP3    H124223   6.128   5.125   7.230 -0.2912 -1.5187 -0.3369
  888TIP3    H224224   6.079   5.123   7.086 -0.5217 -0.8754 -0.2714
  889TIP3   OH224225   6.404   5.225   1.725 -0.1334 -0.3945 -0.3316
  889TIP3    H124226   6.414   5.186   1.812 -1.7282  0.9859  0.5323
  889TIP3    H224227   6.373   5.153   1.670  0.3064 -1.1413  0.3776
  890TIP3   OH224228   4.131   0.696   1.101  0.1520  0.1990 -0.1107
  890TIP3    H124229   4.159   0.657   1.019 -2.8935 -1.3505 -0.5600
  890TIP3    H224230   4.150   0.790   1.092  0.3557 -0.0187 -2.3742
  891TIP3   OH224231   5.981   2.162   7.034 -0.0395  0.4079  0.0932
  891TIP3    H124232   6.018   2.149   6.947  0.4612  0.2601  0.3241
  891TIP3    H224233   5.922   2.088   7.046  0.9668 -0.3636  0.4360
  892TIP3   OH224234   6.745   1.041   0.290 -0.0347 -0.1463  0.0556
  892TIP3    H124235   6.758   1.039   0.195  2.2149  1.3381  0.2496
  892TIP3    H224236   6.672   1.101   0.303 -1.4794 -1.6458 -0.7594
  893TIP3   OH224237   5.782   3.130   7.013  0.7770  0.0689  0.0503
  893TIP3    H124238   5.727   3.081   7.074  0.4862  0.2259 -0.0842
  893TIP3    H224239   5.726   3.144   6.937  1.8445 -2.2036 -1.2837
  894TIP3   OH224240   0.805   2.963   2.506  0.5288  0.0281 -0.0418
  894TIP3    H124241   0.813   2.868   2.502 -0.4753 -0.0477 -0.4232
  894TIP3    H224242   0.894   2.995   2.488  0.7542 -0.8190 -0.4954
  895TIP3   OH224243   0.633   5.494   7.323 -0.1114 -0.0693 -0.7085
  895TIP3    H124244   0.653   5.556   7.393  0.8510  0.6987 -1.6322
  895TIP3    H224245   0.538   5.500   7.312 -0.3240 -0.4229  0.7014
  896TIP3   OH224246   1.503   1.547   0.218 -0.0855 -0.3279  0.5939
  896TIP3    H124247   1.475   1.504   0.299 -0.2994  1.8110  1.7489
  896TIP3    H224248   1.476   1.488   0.148 -0.7678 -1.8019  2.0480
  897TIP3   OH224249   3.879   4.350   1.001  0.0815 -0.0806  0.3385
  897TIP3    H124250   3.917   4.319   0.919  0.8344  1.3606  0.1091
  897TIP3    H224251   3.845   4.437   0.981  1.7575  1.0215  1.9117
  898TIP3   OH224252   2.511   3.264   7.304  0.1081 -0.3315 -0.0032
  898TIP3    H124253   2.529   3.284   7.212  0.0382 -1.0058 -0.1708
  898TIP3    H224254   2.443   3.196   7.301  0.3401 -0.5942  0.5365
  899TIP3   OH224255   2.387   4.694   6.318 -0.0480  0.0649 -0.1524
  899TIP3    H124256   2.467   4.722   6.275  0.8368  0.3194  1.5487
  899TIP3    H224257   2.398   4.600   6.333 -0.4363 -0.0623 -0.6242
  900TIP3   OH224258   0.587   1.503   1.182 -0.1845 -0.5484 -0.0188
  900TIP3    H124259   0.681   1.518   1.174 -0.3697  0.5510 -0.2816
  900TIP3    H224260   0.565   1.531   1.271 -0.4615  0.3745 -0.3664
  901TIP3   OH224261   0.886   1.708   7.257  0.2100  0.1807  0.0278
  901TIP3    H124262   0.903   1.789   7.305 -0.4107  0.6115 -0.4540
  901TIP3    H224263   0.925   1.639   7.310  0.7227  0.7960  0.4595
  902TIP3   OH224264   2.077   6.680   7.281 -0.1687 -0.0389 -0.1167
  902TIP3    H124265   2.113   6.699   7.194  0.0732 -2.8799 -0.7463
  902TIP3    H224266   2.134   6.728   7.342 -0.1577  1.7577 -1.4551
  903TIP3   OH224267   2.458   4.448   1.459  0.5671  0.3181 -0.4793
  903TIP3    H124268   2.369   4.420   1.436  1.5921 -1.3257 -2.8191
  903TIP3    H224269   2.446   4.532   1.502 -2.2016 -0.4738  0.4747
  904TIP3   OH224270   5.564   6.425   0.438 -0.5269 -0.2022 -0.0187
  904TIP3    H124271   5.586   6.445   0.529  2.4837  2.5602 -1.1665
  904TIP3    H224272   5.628   6.358   0.413  0.7574  1.2652 -0.8561
  905TIP3   OH224273   6.031   6.300   0.344  0.1986 -0.3315 -0.2947
  905TIP3    H124274   6.070   6.387   0.342 -0.2981 -0.0547  0.8346
  905TIP3    H224275   6.102   6.243   0.375 -0.1084  0.0947  1.3150
  906TIP3   OH224276   2.724   0.898   6.923 -0.5283  0.4011 -0.1972
  906TIP3    H124277   2.691   0.957   6.991 -0.5736  0.5334 -0.3317
  906TIP3    H224278   2.793   0.848   6.966 -1.1952 -0.1808  0.2017
  907TIP3   OH224279   0.434   1.519   8.224 -0.2025  0.0651  0.4390
  907TIP3    H124280   0.369   1.581   8.257 -1.1510 -0.4935 -0.3188
  907TIP3    H224281   0.441   1.539   8.131  2.3815  1.5831  0.8591
  908TIP3   OH224282   4.444   4.229   8.467  0.5625  0.4661 -0.3726
  908TIP3    H124283   4.386   4.196   8.399  1.8460 -1.8456 -0.4497
  908TIP3    H224284   4.413   4.186   8.547  0.2650  1.6623  0.1775
  909TIP3   OH224285   2.588   4.707   8.395  0.0505 -0.1100  0.8431
  909TIP3    H124286   2.516   4.761   8.362 -0.5660 -1.2724  0.2316
  909TIP3    H224287   2.587   4.720   8.490 -0.0526  0.9778  0.7027
  910TIP3   OH224288   1.278   5.024   0.539  0.2346  0.4822 -0.2673
  910TIP3    H124289   1.196   5.037   0.586 -0.5121  1.9397 -1.8518
  910TIP3    H224290   1.279   5.093   0.473  2.3402 -0.0358 -0.8654
  911TIP3   OH224291   3.882   6.295   2.134 -0.2400  0.0396  0.2449
  911TIP3    H124292   3.803   6.335   2.097 -0.1440  0.0385  0.0427
  911TIP3    H224293   3.883   6.325   2.225 -0.4108  0.1351  0.2156
  912TIP3   OH224294   0.098   2.007   1.134 -0.3213 -0.2580 -0.3559
  912TIP3    H124295   0.042   2.048   1.068 -0.1447  0.2532 -0.1888
  912TIP3    H224296   0.098   2.068   1.207  2.6726  1.1525 -1.3784
  913TIP3   OH224297   1.426   4.997   1.825 -0.4408  0.4138 -0.6382
  913TIP3    H124298   1.412   5.091   1.814  0.4764  0.5311 -0.8928
  913TIP3    H224299   1.338   4.960   1.829 -0.9119  0.9290 -3.6780
  914TIP3   OH224300   6.121   3.609   1.824  0.2162 -0.3723  0.1838
  914TIP3    H124301   6.174   3.573   1.753 -1.0543  1.8327 -2.0386
  914TIP3    H224302   6.174   3.679   1.862  0.3085 -0.5745  0.4326
  915TIP3   OH224303   0.935   4.649   8.138 -0.4314  0.3113 -0.2916
  915TIP3    H124304   0.902   4.659   8.228 -0.0295 -1.2965  0.0672
  915TIP3    H224305   1.030   4.643   8.148 -0.3884  0.0435 -0.8174
  916TIP3   OH224306   2.983   3.142   0.747  0.1686 -0.7869  0.6702
  916TIP3    H124307   3.030   3.063   0.774  2.4100  0.0511 -0.5549
  916TIP3    H224308   3.048   3.212   0.752 -1.2217  0.6246 -0.1646
  917TIP3   OH224309   2.155   6.200   0.075  0.1772  0.4756 -0.2940
  917TIP3    H124310   2.213   6.170   0.005  0.2303  1.2836 -0.6032
  917TIP3    H224311   2.214   6.236   0.141  0.2667 -1.9511  1.0382
  918TIP3   OH224312   0.853   3.440   0.900  0.1029  0.3351  0.2513
  918TIP3    H124313   0.834   3.363   0.954  1.5314  0.6321  1.2288
  918TIP3    H224314   0.776   3.496   0.910  0.2475  0.2946  1.8694
  919TIP3   OH224315   6.744   2.569   2.482 -0.1368 -0.2320  0.1247
  919TIP3    H124316   6.700   2.486   2.464 -0.4629 -0.2402  0.8987
  919TIP3    H224317   6.699   2.603   2.559  0.0077  0.6565 -0.1760
  920TIP3   OH224318   2.030   4.688   7.124  0.6227  0.3974  0.2514
  920TIP3    H124319   2.111   4.640   7.142  2.2558  3.1355  0.6416
  920TIP3    H224320   1.981   4.684   7.206 -0.0473 -1.7895 -0.1615
  921TIP3   OH224321   3.597   5.675   0.716 -0.1848 -0.1664  0.0221
  921TIP3    H124322   3.610   5.600   0.774 -1.3972  0.6250  1.3851
  921TIP3    H224323   3.637   5.749   0.763 -3.2452  0.9538  1.0787
  922TIP3   OH224324   5.125   4.439   7.581  0.2784 -0.3376 -0.3846
  922TIP3    H124325   5.066   4.397   7.518 -0.3524 -0.3334  0.1829
  922TIP3    H224326   5.067   4.469   7.651  0.9768 -0.4177  0.2377
  923TIP3   OH224327   6.536   6.128   2.676  0.3721  0.6427  0.4208
  923TIP3    H124328   6.533   6.039   2.712  0.1436  0.9574  1.1952
  923TIP3    H224329   6.472   6.177   2.727 -1.5100  0.6404 -1.7522
  924TIP3   OH224330   1.725   6.497   0.911  0.3420  0.9243  0.0459
  924TIP3    H124331   1.685   6.475   0.995  2.0633  0.0310  0.6646
  924TIP3    H224332   1.672   6.570   0.879 -1.3384  0.2488  1.1258
  925TIP3   OH224333   6.035   4.383   2.280 -0.2429  0.1050 -0.0272
  925TIP3    H124334   6.022   4.465   2.328  0.7871 -0.4445  1.2787
  925TIP3    H224335   5.983   4.319   2.328  0.2741 -0.3245 -0.0238
  926TIP3   OH224336   2.518   4.215   7.452 -0.1682  0.0702  0.3406
  926TIP3    H124337   2.453   4.283   7.473  0.2925  1.1039 -1.4065
  926TIP3    H224338   2.467   4.143   7.416 -0.4192  0.7282 -0.6701
  927TIP3   OH224339   6.338   4.105   7.551 -0.3216 -0.0283 -0.2892
  927TIP3    H124340   6.252   4.074   7.523 -0.6279  0.2578  0.3138
  927TIP3    H224341   6.377   4.030   7.598  0.0478 -0.3894 -1.1571
  928TIP3   OH224342   5.202   2.853   0.197  0.0779  0.3444 -0.1613
  928TIP3    H124343   5.272   2.801   0.157 -0.1293  0.7340 -1.0618
  928TIP3    H224344   5.132   2.791   0.213  0.7578 -0.1357  1.1320
  929TIP3   OH224345   6.587   3.791   1.309 -0.3809  0.9619  0.2408
  929TIP3    H124346   6.672   3.811   1.348  0.0685 -0.4851  0.0782
  929TIP3    H224347   6.563   3.869   1.260  1.2848  1.0697 -0.4417
  930TIP3   OH224348   5.892   0.860   1.738  0.3554  0.1709 -0.0316
  930TIP3    H124349   5.929   0.772   1.744 -0.4546 -0.1981 -0.2905
  930TIP3    H224350   5.901   0.895   1.827 -0.9793 -0.8810  0.5643
  931TIP3   OH224351   4.058   0.528   7.531 -0.1076 -0.4374  0.3125
  931TIP3    H124352   4.128   0.462   7.523  0.4705  0.1860  0.0945
  931TIP3    H224353   4.040   0.555   7.441  0.6024  0.6500  0.4750
  932TIP3   OH224354   3.684   0.268   7.164  0.1059  0.2082 -0.1775
  932TIP3    H124355   3.665   0.192   7.219  0.4156 -0.3838 -0.8647
  932TIP3    H224356   3.642   0.341   7.208  2.2742  0.2134  2.1454
  933TIP3   OH224357   2.101   5.876   0.738  0.1186 -0.6448  0.4035
  933TIP3    H124358   2.194   5.856   0.729  0.1187 -0.1114 -1.1021
  933TIP3    H224359   2.057   5.793   0.719  0.2469 -0.3384 -1.4285
  934TIP3   OH224360   0.922   3.524   8.264  0.3348  0.1594 -0.3736
  934TIP3    H124361   0.916   3.619   8.278  0.7165 -0.0064  1.0896
  934TIP3    H224362   0.853   3.488   8.320 -0.4999 -0.3998 -1.7026
  935TIP3   OH224363   6.661   5.329   1.585 -0.6403 -0.2487  0.6866
  935TIP3    H124364   6.635   5.238   1.600  1.7451 -1.1804 -0.2979
  935TIP3    H224365   6.588   5.367   1.537 -0.9749 -2.1695 -0.4246
  936TIP3   OH224366   4.840   3.271   0.549 -0.1308 -0.2913  0.1403
  936TIP3    H124367   4.911   3.320   0.590  0.5346 -0.1624 -1.1037
  936TIP3    H224368   4.821   3.200   0.610  0.4058  0.2377  0.9397
  937TIP3   OH224369   2.598   6.215   8.397  0.1571  0.1678 -0.3605
  937TIP3    H124370   2.641   6.204   8.312 -0.8545 -1.4322 -0.7196
  937TIP3    H224371   2.505   6.200   8.379 -0.0485 -0.4372  1.0503
  938TIP3   OH224372   0.025   3.776   0.333 -0.5574 -0.4078 -0.2525
  938TIP3    H124373   0.052   3.722   0.258  0.7800 -0.7360  0.4232
  938TIP3    H224374   0.097   3.839   0.344 -1.7099  1.0019 -0.5112
  939TIP3   OH224375   5.612   4.341   0.341  0.1331  0.1076 -0.1153
  939TIP3    H124376   5.546   4.407   0.360  0.3074  0.1415  0.3775
  939TIP3    H224377   5.593   4.313   0.251  0.3594  1.1654 -0.4974
  940TIP3   OH224378   3.137   2.064   8.460 -0.7354  0.7523  0.5574
  940TIP3    H124379   3.054   2.025   8.432  0.0079 -0.5160  0.0357
  940TIP3    H224380   3.143   2.146   8.411 -0.7903 -0.0861 -0.9243
  941TIP3   OH224381   5.655   5.895   2.329  0.1182  0.0608 -0.1443
  941TIP3    H124382   5.639   5.988   2.311  0.4814  0.0350 -0.6305
  941TIP3    H224383   5.580   5.867   2.381  0.8198  1.0397  1.4714
  942TIP3   OH224384   2.088   4.194   7.863  0.7814 -0.2394  0.4708
  942TIP3    H124385   2.067   4.172   7.772 -0.6828  0.3810  0.6373
  942TIP3    H224386   2.003   4.202   7.907  1.3025  2.3320  1.2137
  943TIP3   OH224387   6.333   0.162   0.571  0.0566 -0.2769 -0.0308
  943TIP3    H124388   6.323   0.173   0.666 -1.0946 -0.5308 -0.1022
  943TIP3    H224389   6.358   0.070   0.561  2.1915  0.2536  0.1272
  944TIP3   OH224390   2.070   3.994   8.295 -0.4860  0.0702 -0.2945
  944TIP3    H124391   2.127   4.003   8.372 -1.8486 -0.2547  0.7971
  944TIP3    H224392   2.116   4.040   8.225  1.7660 -1.3148  0.1706
  945TIP3   OH224393   3.083   1.582   2.498 -0.2673  0.0315  0.0583
  945TIP3    H124394   3.003   1.538   2.527 -1.2694  0.1560 -2.2544
  945TIP3    H224395   3.065   1.675   2.511  0.5338 -0.0279  1.8436
  946TIP3   OH224396   2.460   6.598   1.801 -0.1945  0.5750 -0.1482
  946TIP3    H124397   2.504   6.526   1.846 -0.4952 -0.6822 -1.7752
  946TIP3    H224398   2.503   6.677   1.835 -0.0544 -0.3058  1.9045
  947TIP3   OH224399   2.213   6.838   7.991 -0.3986 -0.3325  0.0597
  947TIP3    H124400   2.305   6.860   7.980 -0.3678 -0.0687  0.7697
  947TIP3    H224401   2.171   6.920   8.018 -0.8179 -0.4747 -0.1523
  948TIP3   OH224402   6.049   5.091   7.956  0.4861 -0.1151 -0.1935
  948TIP3    H124403   6.120   5.156   7.965  0.3906 -0.0831  0.3275
  948TIP3    H224404   6.089   5.009   7.984  0.4706 -0.1945 -0.4077
  949TIP3   OH224405   3.622   3.202   0.062 -0.1227 -0.5353  0.1811
  949TIP3    H124406   3.542   3.244   0.031  1.2139  1.4986 -0.7471
  949TIP3    H224407   3.666   3.269   0.114  1.3164 -1.3403  0.0694
  950TIP3   OH224408   5.691   1.021   0.915 -0.1377  0.7064 -0.2867
  950TIP3    H124409   5.607   0.988   0.883  0.9335 -0.9059 -1.6345
  950TIP3    H224410   5.676   1.115   0.929 -2.2242  0.4081 -0.1945
  951TIP3   OH224411   4.509   1.046   7.287  0.2556  0.0421 -0.1457
  951TIP3    H124412   4.436   1.004   7.333 -0.0428  0.9508  0.2338
  951TIP3    H224413   4.468   1.111   7.231  0.6797 -0.4836 -1.0921
  952TIP3   OH224414   6.171   6.193   1.579  0.7255  0.5359  0.5020
  952TIP3    H124415   6.254   6.146   1.588 -0.1349 -1.1854 -0.0742
  952TIP3    H224416   6.155   6.230   1.666  0.5761 -1.8457  1.5689
  953TIP3   OH224417   1.020   5.864   7.409 -0.0663 -0.3676  0.4640
  953TIP3    H124418   0.990   5.784   7.365 -0.0446 -0.8182  1.2483
  953TIP3    H224419   0.959   5.931   7.379 -0.2844 -0.7439  0.0436
  954TIP3   OH224420   4.107   5.341   0.785 -0.6525  0.0099  0.6225
  954TIP3    H124421   4.087   5.416   0.842 -0.5663 -0.1626  0.8805
  954TIP3    H224422   4.022   5.316   0.749 -0.4074  1.6558 -1.2589
  955TIP3   OH224423   4.755   6.071   2.070  0.2767  0.4323 -0.6021
  955TIP3    H124424   4.676   6.084   2.122  0.2604 -0.0895 -0.4912
  955TIP3    H224425   4.825   6.061   2.135  0.1990 -0.6078 -0.6631
  956TIP3   OH224426   1.719   1.459   2.043 -0.5754 -0.4926 -0.0860
  956TIP3    H124427   1.650   1.404   2.080 -0.5791 -0.5491 -0.1755
  956TIP3    H224428   1.766   1.493   2.119 -0.5810 -0.6094 -0.0303
  957TIP3   OH224429   1.610   3.500   1.694  0.1630 -0.6430  0.0967
  957TIP3    H124430   1.581   3.490   1.785  0.3060  2.4827  0.5948
  957TIP3    H224431   1.695   3.543   1.700 -0.0393  0.0614 -1.5395
  958TIP3   OH224432   0.588   0.678   0.601 -0.5558  0.3593  0.1743
  958TIP3    H124433   0.532   0.659   0.676 -1.7317  0.9334 -0.5367
  958TIP3    H224434   0.655   0.608   0.603 -1.2884 -0.3408  1.0333
  959TIP3   OH224435   6.198   2.545   0.681 -0.1691 -0.3659 -0.6232
  959TIP3    H124436   6.122   2.488   0.691  1.0431 -2.0404 -0.5013
  959TIP3    H224437   6.234   2.523   0.596  0.4332  0.1001 -0.4979
  960TIP3   OH224438   0.973   5.175   1.969 -0.1264  0.1817 -0.3948
  960TIP3    H124439   0.952   5.268   1.962 -2.2113 -0.3050 -1.4071
  960TIP3    H224440   0.889   5.131   1.960  1.1206 -1.9306 -2.7174
  961TIP3   OH224441   3.952   4.061   0.177 -0.6904 -0.3844 -0.1386
  961TIP3    H124442   4.016   4.009   0.225  1.4876  1.6770 -0.6205
  961TIP3    H224443   3.904   3.998   0.124  0.9479 -2.0389  0.2464
  962TIP3   OH224444   0.528   1.389   6.461  0.2655  0.3799 -0.1931
  962TIP3    H124445   0.440   1.424   6.474  0.4685  1.0976 -0.7280
  962TIP3    H224446   0.514   1.295   6.445 -0.5420  0.7365 -1.7692
  963TIP3   OH224447   6.291   4.659   8.113 -0.1471 -0.0366  0.2756
  963TIP3    H124448   6.287   4.581   8.058  0.6234  0.5387 -0.6262
  963TIP3    H224449   6.381   4.690   8.105 -0.5788  1.2496  0.1765
  964TIP3   OH224450   1.071   2.891   7.581  0.0846  0.6212 -0.4302
  964TIP3    H124451   1.141   2.829   7.603 -0.9108 -0.4940 -0.3098
  964TIP3    H224452   1.046   2.929   7.665 -0.4668 -0.1014 -0.2571
  965TIP3   OH224453   2.465   6.619   7.609 -0.0087 -0.2846 -0.2125
  965TIP3    H124454   2.559   6.601   7.598 -0.0778 -0.5835 -0.3278
  965TIP3    H224455   2.450   6.612   7.703  0.6484  2.5915  0.2066
  966TIP3   OH224456   1.941   0.222   7.760 -0.6931  0.2520 -0.1622
  966TIP3    H124457   1.848   0.211   7.741 -0.3056 -0.7034 -1.7369
  966TIP3    H224458   1.985   0.178   7.687  0.9930  0.8738  0.4402
  967TIP3   OH224459   4.853   0.788   0.520 -0.0129 -0.5121 -0.2152
  967TIP3    H124460   4.792   0.785   0.446  0.7185  0.4314 -0.8764
  967TIP3    H224461   4.797   0.798   0.597 -0.6960  1.0227 -0.8735
  968TIP3   OH224462   0.495   2.709   6.922  0.1618 -0.1723  0.8060
  968TIP3    H124463   0.449   2.625   6.919 -0.6076  0.2407  0.8449
  968TIP3    H224464   0.575   2.694   6.873 -1.2385 -0.1841 -1.6655
  969TIP3   OH224465   3.746   4.420   1.269 -0.0566 -0.0189  0.3791
  969TIP3    H124466   3.803   4.443   1.342  1.9022 -5.2420  0.9521
  969TIP3    H224467   3.806   4.398   1.198 -1.5246 -1.4392 -0.4951
  970TIP3   OH224468   5.668   2.694   0.691  0.4468 -0.0756  0.5898
  970TIP3    H124469   5.698   2.642   0.765  0.8565 -0.3603  0.2281
  970TIP3    H224470   5.735   2.762   0.681  2.1658 -1.9160 -1.5092
  971TIP3   OH224471   0.791   4.761   0.393  0.2571 -0.1034 -0.1629
  971TIP3    H124472   0.782   4.845   0.348  0.4241 -0.7411 -1.4393
  971TIP3    H224473   0.808   4.784   0.485  2.1044  1.3178 -0.7877
  972TIP3   OH224474   2.088   2.522   1.383 -0.5072  0.0959 -0.1401
  972TIP3    H124475   2.088   2.618   1.379 -0.6929  0.0757 -0.6733
  972TIP3    H224476   2.020   2.501   1.448 -0.3234  0.3306  0.1275
  973TIP3   OH224477   4.698   1.793   8.542 -0.0219  0.1145 -0.5009
  973TIP3    H124478   4.737   1.876   8.571 -0.3120 -0.0890  0.5182
  973TIP3    H224479   4.764   1.727   8.562 -0.2672 -0.0439 -0.2050
  974TIP3   OH224480   2.928   5.770   0.560 -0.1385 -0.5924 -0.1261
  974TIP3    H124481   2.927   5.681   0.594  2.5217 -0.7167 -0.1691
  974TIP3    H224482   2.979   5.820   0.624 -0.4177  0.5916 -0.7927
  975TIP3   OH224483   1.571   1.313   1.270 -0.4351  0.8703 -0.5432
  975TIP3    H124484   1.565   1.218   1.257  0.0577  0.5754  1.1343
  975TIP3    H224485   1.480   1.342   1.273 -0.6017  0.3686 -0.5929
  976TIP3   OH224486   5.772   5.024   1.871 -0.0097  0.2911 -0.1805
  976TIP3    H124487   5.691   5.066   1.843  1.0620  0.7887 -2.7979
  976TIP3    H224488   5.785   4.952   1.809  1.0621 -0.4106  0.7998
  977TIP3   OH224489   4.106   4.992   7.186 -0.2319  0.4986 -0.0208
  977TIP3    H124490   4.085   4.911   7.140  0.7218  0.4269 -0.3524
  977TIP3    H224491   4.184   4.972   7.237  0.8457  1.5595 -1.1802
  978TIP3   OH224492   2.925   6.193   0.623 -0.5285 -0.3931  0.4350
  978TIP3    H124493   2.888   6.247   0.694  0.8497  0.0191  0.8683
  978TIP3    H224494   2.978   6.254   0.573 -0.3220 -1.0037 -0.0898
  979TIP3   OH224495   1.536   1.278   2.170  0.4762 -0.3895  0.0761
  979TIP3    H124496   1.531   1.195   2.123 -0.4089  0.2661 -1.0582
  979TIP3    H224497   1.454   1.283   2.219 -0.5029  0.7287 -1.5533
  980TIP3   OH224498   4.319   6.607   1.042 -0.1746  0.2785 -0.0835
  980TIP3    H124499   4.352   6.644   1.123  0.9968 -0.3147 -0.2753
  980TIP3    H224500   4.387   6.625   0.977 -0.7498  0.0759 -0.7625
  981TIP3   OH224501   2.199   3.122   1.635 -1.0325 -0.1459  0.4080
  981TIP3    H124502   2.197   3.216   1.653 -0.6594 -0.1111  0.2745
  981TIP3    H224503   2.280   3.108   1.586 -1.2775 -0.4802  0.0893
  982TIP3   OH224504   6.520   2.903   0.142  0.7329  0.1117 -0.0265
  982TIP3    H124505   6.530   2.998   0.152  2.0789 -0.0455  0.3544
  982TIP3    H224506   6.587   2.878   0.078  1.7765 -0.8137  1.3483
  983TIP3   OH224507   0.906   3.188   7.038  0.6647 -0.3694  0.0390
  983TIP3    H124508   0.888   3.177   6.944  0.1314  0.1364  0.0741
  983TIP3    H224509   0.861   3.115   7.080 -0.3662  0.2375  0.0223
  984TIP3   OH224510   1.991   3.334   0.998 -0.1735 -0.2590  0.0483
  984TIP3    H124511   2.080   3.363   1.015 -0.2829  1.0881 -1.5299
  984TIP3    H224512   1.999   3.271   0.927 -0.6063  1.0371 -1.1825
  985TIP3   OH224513   0.182   4.544   8.547 -0.0113 -0.4551 -0.0427
  985TIP3    H124514   0.265   4.531   8.594  1.0074  0.4902 -1.4976
  985TIP3    H224515   0.163   4.458   8.509  0.3052 -0.6769  0.2803
  986TIP3   OH224516   4.599   4.818   0.936 -0.4813 -0.4285 -0.3053
  986TIP3    H124517   4.559   4.886   0.990  1.9605 -0.1102  1.2625
  986TIP3    H224518   4.592   4.851   0.847 -2.2599  0.2878  0.0518
  987TIP3   OH224519   1.925   1.129   1.809  0.3757  0.0303 -0.0497
  987TIP3    H124520   1.864   1.202   1.791 -0.9425 -1.3061 -1.3460
  987TIP3    H224521   1.951   1.099   1.722  1.9552 -0.2288  0.4868
  988TIP3   OH224522   6.591   2.384   1.896  0.1756 -0.6700  0.2464
  988TIP3    H124523   6.506   2.351   1.925  0.2976 -0.4478  0.8682
  988TIP3    H224524   6.614   2.328   1.821 -1.6123  0.7827 -1.4896
  989TIP3   OH224525   2.024   3.240   8.453  0.2041  0.3909  0.1676
  989TIP3    H124526   2.035   3.163   8.509  0.3317 -0.0438 -0.4463
  989TIP3    H224527   1.930   3.254   8.449  0.2466  1.2199  1.5460
  990TIP3   OH224528   2.412   5.917   2.373  0.4875 -0.5143 -0.4042
  990TIP3    H124529   2.453   5.999   2.346 -1.4625  0.2004 -1.4060
  990TIP3    H224530   2.407   5.866   2.292  0.4412 -1.0576 -0.0632
  991TIP3   OH224531   2.555   3.669   8.550 -0.5347  0.1226 -0.3494
  991TIP3    H124532   2.527   3.598   8.492 -0.0905  0.3630 -0.8719
  991TIP3    H224533   2.545   3.748   8.497 -0.7145  0.4145  0.1186
  992TIP3   OH224534   0.746   4.162   6.613 -0.4138 -0.0991 -0.3507
  992TIP3    H124535   0.736   4.137   6.705  1.9665  2.8210  0.8720
  992TIP3    H224536   0.824   4.115   6.583 -0.9505 -0.7337 -0.7665
  993TIP3   OH224537   6.499   2.617   6.827  0.3070  0.9001  0.1982
  993TIP3    H124538   6.404   2.620   6.838  0.1694 -1.1092 -0.1804
  993TIP3    H224539   6.513   2.621   6.733  0.4887 -0.3968  0.1548
  994TIP3   OH224540   3.364   6.512   1.381  0.3191  0.7219  0.2395
  994TIP3    H124541   3.364   6.560   1.463  0.7298 -1.0038  1.3022
  994TIP3    H224542   3.294   6.447   1.391  0.1591  0.6881 -0.9181
  995TIP3   OH224543   1.037   1.945   1.419 -0.3347  0.5971  0.0915
  995TIP3    H124544   1.015   2.027   1.374  0.9535  0.8891 -0.0658
  995TIP3    H224545   1.066   1.973   1.506 -0.4157  0.2555  0.2294
  996TIP3   OH224546   3.405   3.429   1.876 -0.0815 -0.5250  0.5063
  996TIP3    H124547   3.427   3.336   1.881 -0.3449 -0.5670  0.9534
  996TIP3    H224548   3.462   3.471   1.940  0.6532 -0.2506 -0.3022
  997TIP3   OH224549   1.051   2.892   0.515  0.3754  0.4890  0.4098
  997TIP3    H124550   1.110   2.964   0.491  1.3577 -0.8460 -1.5277
  997TIP3    H224551   1.086   2.817   0.467 -2.2800 -0.6279  0.0821
  998TIP3   OH224552   2.642   0.345   6.833 -0.5312  0.1524  0.3139
  998TIP3    H124553   2.641   0.360   6.928  0.7038  0.2388  0.3185
  998TIP3    H224554   2.692   0.264   6.823  0.2730  0.7261 -0.3439
  999TIP3   OH224555   4.166   3.744   6.993  0.1088  0.4535  0.2035
  999TIP3    H124556   4.086   3.739   6.939  0.6717  1.0324 -0.7111
  999TIP3    H224557   4.137   3.784   7.075 -0.7099 -0.1654  0.2290
 1000TIP3   OH224558   0.297   4.815   8.108 -0.5856 -0.1903  0.1338
 1000TIP3    H124559   0.286   4.725   8.139 -1.1924  0.0109  0.5360
 1000TIP3    H224560   0.384   4.840   8.138 -0.4795 -0.5823  0.1655
 1001TIP3   OH224561   1.276   4.628   0.130 -0.2126  0.0554 -0.0085
 1001TIP3    H124562   1.185   4.650   0.150 -0.3678 -0.5761  0.0204
 1001TIP3    H224563   1.302   4.690   0.063 -0.9574 -0.3252 -0.6690
 1002TIP3   OH224564   2.760   4.116   1.853 -0.3423  0.5875  0.0071
 1002TIP3    H124565   2.733   4.046   1.912 -0.3903 -0.3624 -1.0975
 1002TIP3    H224566   2.831   4.161   1.899 -0.7262  0.2049  0.9849
 1003TIP3   OH224567   0.734   1.553   0.139  0.3277 -0.3628 -0.4172
 1003TIP3    H124568   0.661   1.517   0.188  1.0272  1.3226  2.0302
 1003TIP3    H224569   0.698   1.570   0.052 -1.1643 -2.7861 -0.3624
 1004TIP3   OH224570   0.222   5.859   2.063 -0.4108  0.8881  0.1995
 1004TIP3    H124571   0.164   5.817   2.125  1.9595 -0.5023  1.6473
 1004TIP3    H224572   0.253   5.937   2.107  0.3824  0.5166  0.3249
 1005TIP3   OH224573   0.978   1.110   1.162 -0.1960  0.5673 -0.3107
 1005TIP3    H124574   1.008   1.165   1.235 -0.3498  0.3102 -0.0533
 1005TIP3    H224575   0.913   1.052   1.201  0.9065 -0.7024 -0.2786
 1006TIP3   OH224576   2.332   0.693   1.479 -0.2389 -0.0456 -0.1814
 1006TIP3    H124577   2.240   0.714   1.496 -0.6015 -0.1709 -1.7848
 1006TIP3    H224578   2.354   0.745   1.401  0.9352 -0.2982 -0.0357
 1007TIP3   OH224579   5.442   2.634   8.090 -0.5175 -0.1117 -0.2624
 1007TIP3    H124580   5.530   2.596   8.088 -0.9187 -1.0621  0.1471
 1007TIP3    H224581   5.444   2.701   8.021  0.7226  0.3319  0.1779
 1008TIP3   OH224582   2.040   5.444   1.202 -0.0236 -0.0893 -0.2449
 1008TIP3    H124583   2.096   5.519   1.185 -0.4103 -0.0729 -1.5652
 1008TIP3    H224584   2.098   5.368   1.195 -0.0587 -0.0431 -1.1799
 1009TIP3   OH224585   3.575   6.596   8.147  0.0385 -0.3498  0.1248
 1009TIP3    H124586   3.481   6.586   8.160  0.1555 -1.9328 -0.1083
 1009TIP3    H224587   3.604   6.652   8.219 -1.1109  0.3777  0.0421
 1010TIP3   OH224588   6.350   2.418   7.404 -0.4864 -0.5386 -0.0676
 1010TIP3    H124589   6.299   2.407   7.323 -0.8414  0.7812 -0.0334
 1010TIP3    H224590   6.423   2.356   7.394 -1.8772 -2.2115 -0.2662
 1011TIP3   OH224591   1.395   2.420   0.478 -0.0276  0.6460 -0.1400
 1011TIP3    H124592   1.342   2.355   0.431 -2.2550  0.8840  1.8399
 1011TIP3    H224593   1.458   2.452   0.413 -1.0955 -1.0123 -2.1079
 1012TIP3   OH224594   3.293   0.721   2.035  0.1216 -0.0708  0.3901
 1012TIP3    H124595   3.317   0.781   2.105 -0.0964 -0.4815  0.8209
 1012TIP3    H224596   3.206   0.690   2.058  1.1362 -2.3851  1.4504
 1013TIP3   OH224597   1.883   5.502   2.099  0.3635 -0.2864  0.3938
 1013TIP3    H124598   1.878   5.596   2.116  0.6765 -0.5241  1.9287
 1013TIP3    H224599   1.813   5.464   2.153 -2.2455 -0.6957 -2.8884
 1014TIP3   OH224600   6.549   0.627   0.764 -0.2740  0.2462 -0.4679
 1014TIP3    H124601   6.499   0.678   0.828  0.1761  2.6091 -1.8651
 1014TIP3    H224602   6.605   0.570   0.817 -0.3234  1.6792  1.2330
 1015TIP3   OH224603   1.755   5.044   1.802  0.3272 -0.0822  0.1463
 1015TIP3    H124604   1.663   5.036   1.827  0.5305 -0.3653  0.8449
 1015TIP3    H224605   1.792   5.107   1.865  1.1401 -1.7618  1.4494
 1016TIP3   OH224606   0.089   0.318   0.901 -0.3797  0.4614 -0.3468
 1016TIP3    H124607   0.007   0.293   0.944 -0.1091  0.7053  0.3318
 1016TIP3    H224608   0.148   0.244   0.918 -0.4173  0.3450 -0.7194
 1017TIP3   OH224609   1.980   6.173   1.213 -0.0892 -0.1760 -0.0411
 1017TIP3    H124610   2.026   6.240   1.263  0.9770 -0.6900 -0.2840
 1017TIP3    H224611   2.049   6.110   1.189 -0.7082 -0.3765 -1.4182
 1018TIP3   OH224612   3.095   0.405   1.277 -0.1224 -0.4323  0.2028
 1018TIP3    H124613   3.045   0.386   1.356  1.9215  0.9078  1.9238
 1018TIP3    H224614   3.109   0.500   1.279  2.4398 -0.7204 -0.1469
 1019TIP3   OH224615   3.416   5.610   0.223 -0.0691  0.1496  0.1992
 1019TIP3    H124616   3.476   5.617   0.297  0.5849  0.4480 -0.3539
 1019TIP3    H224617   3.353   5.681   0.236  1.5301  1.8403 -0.8526
 1020TIP3   OH224618   2.408   0.289   7.539 -0.2206  0.2748 -0.0155
 1020TIP3    H124619   2.350   0.305   7.465 -0.6734  0.7833  0.4409
 1020TIP3    H224620   2.420   0.375   7.579  0.9123  0.1900 -0.1410
 1021TIP3   OH224621   1.703   0.210   0.597  0.1003 -0.3402  0.1274
 1021TIP3    H124622   1.648   0.261   0.656  1.3616 -0.5025  1.4813
 1021TIP3    H224623   1.782   0.191   0.647  0.9335 -1.0629 -1.3881
 1022TIP3   OH224624   3.457   1.691   8.345  0.1772 -0.1226 -0.3540
 1022TIP3    H124625   3.410   1.743   8.280  0.0437  0.5595  0.2823
 1022TIP3    H224626   3.431   1.728   8.429  0.4677 -0.8955  0.0912
 1023TIP3   OH224627   5.728   4.331   7.893  0.6638 -0.0660  0.5201
 1023TIP3    H124628   5.711   4.267   7.962 -0.1514 -0.1370  0.2608
 1023TIP3    H224629   5.694   4.414   7.928  1.7981  0.2719  0.8933
 1024TIP3   OH224630   0.067   4.806   7.141  0.3500 -0.0365 -0.2296
 1024TIP3    H124631   0.107   4.890   7.118  0.6142  0.2531  1.1848
 1024TIP3    H224632   0.079   4.751   7.063 -1.1922  1.6934 -1.7486
 1025TIP3   OH224633   6.317   5.289   7.313  0.2414  0.0722 -0.2347
 1025TIP3    H124634   6.358   5.287   7.226  0.1943  0.2017 -0.2581
 1025TIP3    H224635   6.250   5.357   7.307  0.2975  0.1409 -0.0700
 1026TIP3   OH224636   0.974   4.052   2.063 -0.0972 -0.0279  0.1776
 1026TIP3    H124637   0.926   4.082   2.140 -0.4050  0.6994 -0.2846
 1026TIP3    H224638   1.065   4.052   2.089 -0.2696 -0.6529  0.8160
 1027TIP3   OH224639   5.677   4.383   1.782 -0.3941  0.0280 -0.0827
 1027TIP3    H124640   5.627   4.357   1.705 -0.4562  2.0890 -0.8039
 1027TIP3    H224641   5.762   4.339   1.772 -1.1664 -1.5222 -0.1108
 1028TIP3   OH224642   2.876   2.213   0.031  0.0574 -0.4810  0.3455
 1028TIP3    H124643   2.854   2.122   0.016 -1.9183 -0.1573  0.9726
 1028TIP3    H224644   2.862   2.226   0.125 -0.4063  0.6291  0.1403
 1029TIP3   OH224645   0.900   3.097   0.624  0.3952 -0.3050  0.4008
 1029TIP3    H124646   0.939   3.023   0.579 -0.5498 -0.4887 -0.1446
 1029TIP3    H224647   0.942   3.097   0.711  0.9835 -0.9818  0.1272
 1030TIP3   OH224648   6.318   3.430   2.596 -0.3171 -0.6233  0.3832
 1030TIP3    H124649   6.246   3.387   2.642 -2.2331  0.8262 -1.0892
 1030TIP3    H224650   6.308   3.402   2.505 -0.5612  1.4559 -0.2873
 1031TIP3   OH224651   2.453   5.992   7.743 -0.6723 -0.5034  0.4118
 1031TIP3    H124652   2.369   5.949   7.757 -0.8208 -0.1497  0.6141
 1031TIP3    H224653   2.463   5.996   7.648 -1.8529  1.3044  0.3086
 1032TIP3   OH224654   1.734   2.997   8.433 -0.3095 -0.0747 -0.3423
 1032TIP3    H124655   1.676   2.921   8.446  0.3631 -0.3603  1.2192
 1032TIP3    H224656   1.790   2.997   8.510  1.7401  0.2387 -1.7683
 1033TIP3   OH224657   4.870   2.215   0.333 -0.2262  0.0935  0.7182
 1033TIP3    H124658   4.947   2.254   0.290 -1.1539  1.4877  0.2652
 1033TIP3    H224659   4.795   2.259   0.293 -1.2484 -0.7945  1.5990
 1034TIP3   OH224660   5.639   5.450   1.376 -0.0825  0.1412  0.2796
 1034TIP3    H124661   5.602   5.382   1.320  1.2998 -0.1243 -0.3409
 1034TIP3    H224662   5.631   5.415   1.465  1.2873 -1.1801 -0.0851
 1035TIP3   OH224663   1.799   5.241   2.000  0.3845 -0.6312 -0.2007
 1035TIP3    H124664   1.835   5.330   2.006  0.1447 -0.4347 -1.4802
 1035TIP3    H224665   1.723   5.243   2.058 -1.2660  0.8719 -2.2418
 1036TIP3   OH224666   6.525   1.209   0.344  0.3215  0.0536  0.6021
 1036TIP3    H124667   6.447   1.166   0.381 -0.3823 -1.7839 -2.6046
 1036TIP3    H224668   6.507   1.303   0.353 -1.1508 -0.3136  2.0365
 1037TIP3   OH224669   2.391   1.008   0.948 -0.6058 -0.1425 -0.1421
 1037TIP3    H124670   2.342   0.936   0.908  0.9737 -1.5731  0.3663
 1037TIP3    H224671   2.478   0.971   0.964 -0.6419  0.8889  3.0419
 1038TIP3   OH224672   2.377   2.106   1.369 -0.1206 -0.2618 -0.0764
 1038TIP3    H124673   2.391   2.055   1.448 -0.4183 -1.2176 -0.6287
 1038TIP3    H224674   2.414   2.053   1.299 -1.4727 -0.2636 -0.8147
 1039TIP3   OH224675   1.903   4.418   0.223 -0.7983 -0.2535  0.0361
 1039TIP3    H124676   1.982   4.377   0.257 -1.2569 -1.1924  0.0064
 1039TIP3    H224677   1.851   4.437   0.301  0.0094  1.6235  0.1757
 1040TIP3   OH224678   5.182   6.305   0.229  0.3854 -0.6498  0.6867
 1040TIP3    H124679   5.219   6.343   0.309 -1.1220 -0.9549  1.5784
 1040TIP3    H224680   5.253   6.252   0.192  1.2519 -0.1427  1.5701
 1041TIP3   OH224681   1.327   6.285   7.631  0.2450 -0.2319 -0.3749
 1041TIP3    H124682   1.385   6.342   7.580 -0.0630  0.5436  0.1322
 1041TIP3    H224683   1.292   6.223   7.567  1.7904 -0.8589 -0.6586
 1042TIP3   OH224684   0.923   2.592   0.944 -0.3802  0.0250  0.0175
 1042TIP3    H124685   0.931   2.658   0.875 -2.2048 -1.1365 -1.4095
 1042TIP3    H224686   0.969   2.515   0.909 -1.8052 -0.7592 -0.2242
 1043TIP3   OH224687   2.878   6.045   6.893 -0.0421  0.1893 -0.1941
 1043TIP3    H124688   2.860   5.967   6.945 -1.0729 -0.6096 -1.6539
 1043TIP3    H224689   2.954   6.085   6.934 -0.2084 -0.9405  1.2926
 1044TIP3   OH224690   0.702   4.338   2.080 -0.0242 -0.1016  0.4196
 1044TIP3    H124691   0.632   4.403   2.076  0.3900  0.3157 -0.1128
 1044TIP3    H224692   0.658   4.255   2.063 -0.6017 -0.0033  1.3790
 1045TIP3   OH224693   6.887   2.549   7.160  0.7051  0.2323 -0.4213
 1045TIP3    H124694   6.810   2.606   7.166  0.4288 -0.0157 -1.4261
 1045TIP3    H224695   6.960   2.604   7.188 -0.0727 -0.1772  2.9214
 1046TIP3   OH224696   1.895   2.629   7.571  0.0657 -0.0055 -0.1559
 1046TIP3    H124697   1.845   2.554   7.539 -1.1218 -0.1543  1.8952
 1046TIP3    H224698   1.858   2.704   7.524 -1.1766 -0.2883  0.3267
 1047TIP3   OH224699   2.253   4.041   0.815 -0.6540  0.3821  0.1470
 1047TIP3    H124700   2.292   3.988   0.746 -1.6008 -0.4519  0.2306
 1047TIP3    H224701   2.313   4.032   0.889 -0.8112 -0.6131  0.1681
 1048TIP3   OH224702   5.469   1.619   7.362 -0.5560 -0.2884 -0.3853
 1048TIP3    H124703   5.426   1.704   7.351 -0.7981 -0.4792 -0.9720
 1048TIP3    H224704   5.504   1.621   7.451 -1.7006 -0.0873  0.0828
 1049TIP3   OH224705   2.563   3.541   0.609 -0.6860  0.7051 -0.4513
 1049TIP3    H124706   2.559   3.632   0.581  0.2685  0.5260 -1.1845
 1049TIP3    H224707   2.626   3.540   0.681 -0.8440  0.6493 -0.3113
 1050TIP3   OH224708   3.900   5.983   8.094 -0.0965 -0.0021  0.1403
 1050TIP3    H124709   3.862   5.920   8.156  0.1442  0.2349  0.5295
 1050TIP3    H224710   3.984   6.007   8.133 -1.3832  2.7314  1.4999
 1051TIP3   OH224711   4.225   3.187   0.679  0.3256  0.8727 -0.0664
 1051TIP3    H124712   4.274   3.107   0.698 -0.9724 -0.1915 -0.9483
 1051TIP3    H224713   4.243   3.244   0.753  0.2051 -0.7678  1.3048
 1052TIP3   OH224714   5.035   6.379   8.001 -0.3374 -0.4934 -0.4292
 1052TIP3    H124715   5.047   6.385   8.096  0.0539 -1.9832 -0.3633
 1052TIP3    H224716   5.123   6.385   7.965 -0.4136 -0.7076 -0.6511
 1053TIP3   OH224717   4.017   0.450   0.897 -0.1819  0.6995 -0.0012
 1053TIP3    H124718   3.980   0.362   0.905  1.3418  0.1273  1.3381
 1053TIP3    H224719   4.003   0.490   0.983 -1.1392  1.9074 -0.6919
 1054TIP3   OH224720   2.254   3.574   8.007  0.0082 -0.3753  0.3835
 1054TIP3    H124721   2.291   3.610   8.088 -0.1721 -1.5599  1.0083
 1054TIP3    H224722   2.207   3.648   7.968 -0.0770  0.1665  1.4606
 1055TIP3   OH224723   4.728   1.967   8.035 -0.0465  0.5435 -0.4900
 1055TIP3    H124724   4.821   1.983   8.047 -0.2115  1.2944 -0.1527
 1055TIP3    H224725   4.687   2.003   8.114 -0.7239  1.2771 -1.1660
 1056TIP3   OH224726   5.776   0.542   8.259 -0.6312 -0.0325 -0.1725
 1056TIP3    H124727   5.713   0.477   8.288  1.4772 -1.9749  0.3519
 1056TIP3    H224728   5.729   0.593   8.192 -2.5636 -1.6829 -0.1611
 1057TIP3   OH224729   6.794   5.011   0.481 -0.1706  0.4773 -0.9508
 1057TIP3    H124730   6.761   4.924   0.459  3.1817 -0.3988 -3.3124
 1057TIP3    H224731   6.736   5.071   0.433 -0.1313 -0.7456 -2.6328
 1058TIP3   OH224732   6.576   2.207   7.440  0.3980 -0.1335  1.1310
 1058TIP3    H124733   6.598   2.134   7.499  0.6753 -1.0704 -0.0742
 1058TIP3    H224734   6.661   2.237   7.407  0.1813 -0.8241 -0.1438
 1059TIP3   OH224735   0.310   3.595   8.403  0.0372  0.3168 -0.4596
 1059TIP3    H124736   0.402   3.619   8.413 -0.1930  1.8369 -1.6328
 1059TIP3    H224737   0.301   3.573   8.310 -0.9613  1.0355 -0.5517
 1060TIP3   OH224738   1.816   1.987   0.862 -0.2678  0.3525  0.1370
 1060TIP3    H124739   1.854   1.912   0.816 -0.2152 -0.0599  0.8307
 1060TIP3    H224740   1.883   2.055   0.858 -0.6884  0.7160 -1.3402
 1061TIP3   OH224741   5.020   0.534   2.038 -0.3794 -0.5079 -0.8405
 1061TIP3    H124742   5.001   0.572   1.952 -0.7350  0.2139 -0.4499
 1061TIP3    H224743   5.053   0.447   2.018 -1.0824 -0.5964 -1.6784
 1062TIP3   OH224744   4.337   0.622   0.522 -0.5780 -0.2837  0.0675
 1062TIP3    H124745   4.267   0.670   0.479 -1.0936  0.3117  1.5503
 1062TIP3    H224746   4.318   0.530   0.502 -1.8005 -0.1359  0.4845
 1063TIP3   OH224747   2.339   3.912   7.060  0.0322 -0.0394 -0.1342
 1063TIP3    H124748   2.346   3.912   6.964  2.6329 -1.6389 -0.0260
 1063TIP3    H224749   2.295   3.829   7.080  0.0406  0.0139  0.0976
 1064TIP3   OH224750   4.724   2.131   8.256  0.5536 -0.3400 -0.7018
 1064TIP3    H124751   4.735   2.093   8.343 -0.8357 -0.5523 -0.5875
 1064TIP3    H224752   4.664   2.205   8.270  0.3763 -0.3355 -1.4607
 1065TIP3   OH224753   6.429   0.984   0.983 -0.0341  0.1366  0.3955
 1065TIP3    H124754   6.506   1.003   1.037  0.4646  1.1128 -0.6019
 1065TIP3    H224755   6.371   0.933   1.040  1.1441 -0.2158  1.3181
 1066TIP3   OH224756   6.498   3.879   7.651  0.1488  0.4464 -0.3279
 1066TIP3    H124757   6.583   3.904   7.615 -0.5263  0.8976 -1.6619
 1066TIP3    H224758   6.482   3.791   7.616 -0.7744  1.1165 -1.6684
 1067TIP3   OH224759   1.523   2.841   6.578  0.1933  0.1529 -0.2956
 1067TIP3    H124760   1.560   2.927   6.600 -1.4945  0.6597  0.7506
 1067TIP3    H224761   1.576   2.810   6.505  0.3908  2.4366 -1.1988
 1068TIP3   OH224762   5.709   4.124   8.074 -0.6457 -0.7481  0.1641
 1068TIP3    H124763   5.804   4.109   8.078 -0.1516  2.2103  2.1189
 1068TIP3    H224764   5.678   4.105   8.162 -1.2979  1.2507  0.4092
 1069TIP3   OH224765   5.394   4.179   8.008  0.2466  0.3276  0.3923
 1069TIP3    H124766   5.355   4.155   8.092  0.6348  0.9988  0.7630
 1069TIP3    H224767   5.455   4.107   7.989 -0.8521 -0.5322 -0.0004
 1070TIP3   OH224768   3.141   1.449   0.836 -0.0986  0.0683  0.4208
 1070TIP3    H124769   3.146   1.525   0.894  1.2155 -0.5849  1.2079
 1070TIP3    H224770   3.198   1.471   0.763 -2.2258  1.1516 -1.0328
 1071TIP3   OH224771   0.870   6.904   2.382  0.1108 -0.3040 -0.2837
 1071TIP3    H124772   0.849   6.945   2.466  0.9883  0.1973 -0.2955
 1071TIP3    H224773   0.942   6.843   2.403 -0.0209 -0.5653 -0.5800
 1072TIP3   OH224774   2.631   0.801   8.372  0.3462 -0.4012 -0.2099
 1072TIP3    H124775   2.614   0.709   8.352  1.5202 -0.7757  0.4266
 1072TIP3    H224776   2.721   0.802   8.404 -0.4097  0.5976  2.1023
 1073TIP3   OH224777   3.089   3.978   8.278 -0.1740 -0.1508 -0.3171
 1073TIP3    H124778   3.094   3.908   8.213  0.3926 -1.0911  0.7054
 1073TIP3    H224779   2.996   4.003   8.279  0.0387  1.0619 -2.6393
 1074TIP3   OH224780   3.761   0.041   0.252  0.5004  0.0308 -0.0969
 1074TIP3    H124781   3.666   0.041   0.239  0.3770  1.2096  0.6897
 1074TIP3    H224782   3.791   0.125   0.217  1.3991 -0.6944 -1.1635
 1075TIP3   OH224783   6.344   3.839   0.282  0.4476 -0.0737  0.3266
 1075TIP3    H124784   6.422   3.787   0.302  0.9271  0.0513 -1.1251
 1075TIP3    H224785   6.363   3.879   0.198 -0.6065  1.1267  0.6311
 1076TIP3   OH224786   5.635   6.170   7.546 -0.4576 -0.2936  0.0981
 1076TIP3    H124787   5.698   6.112   7.505  0.4899 -0.5416  1.8044
 1076TIP3    H224788   5.573   6.112   7.590 -0.0711 -0.0397  0.9996
 1077TIP3   OH224789   0.327   1.184   6.836  0.8048  0.7180  0.5535
 1077TIP3    H124790   0.395   1.246   6.812  1.4834  0.4296  1.6463
 1077TIP3    H224791   0.369   1.098   6.832  0.0103  0.3532 -0.4789
 1078TIP3   OH224792   2.904   6.148   8.206  1.0792 -0.4704  0.5047
 1078TIP3    H124793   2.968   6.109   8.147  2.8770 -1.7217  3.0878
 1078TIP3    H224794   2.941   6.232   8.231  0.6283 -0.2168  0.3402
 1079TIP3   OH224795   3.432   1.193   8.515  0.4381 -0.1318 -0.0441
 1079TIP3    H124796   3.352   1.245   8.513  0.1412 -0.5302  0.9181
 1079TIP3    H224797   3.414   1.120   8.456  0.0130 -0.3227  0.3146
 1080TIP3   OH224798   5.606   4.018   7.836 -0.6066  0.1352 -0.6200
 1080TIP3    H124799   5.670   4.007   7.906 -0.4760  0.9652 -0.6020
 1080TIP3    H224800   5.607   4.111   7.816 -1.2397  0.0371 -1.1668
 1081TIP3   OH224801   5.292   1.697   7.872  0.3080 -0.2801  0.1115
 1081TIP3    H124802   5.366   1.757   7.863  0.8843 -0.7471  1.5546
 1081TIP3    H224803   5.323   1.616   7.832 -0.1588  0.0996 -1.0584
 1082TIP3   OH224804   3.463   2.827   7.847 -0.0898  0.2378 -0.2142
 1082TIP3    H124805   3.393   2.888   7.870  1.2404  1.2091  1.6636
 1082TIP3    H224806   3.471   2.770   7.924  0.8693 -0.1313 -0.5689
 1083TIP3   OH224807   1.016   0.333   7.600  0.5792  0.8348  0.0793
 1083TIP3    H124808   1.083   0.265   7.596  0.9634  1.2122  0.0641
 1083TIP3    H224809   1.036   0.392   7.527  1.9816  2.5295  1.7172
 1084TIP3   OH224810   1.669   3.486   0.213 -0.0959  0.6596 -0.0026
 1084TIP3    H124811   1.646   3.437   0.291 -0.2983  1.2736  0.3270
 1084TIP3    H224812   1.761   3.509   0.226  0.5908 -1.2573 -1.0353
 1085TIP3   OH224813   0.580   4.808   1.485  0.1386  0.5975  0.1183
 1085TIP3    H124814   0.487   4.822   1.505 -0.0348  1.7601 -1.3055
 1085TIP3    H224815   0.624   4.809   1.570 -1.2560 -1.1535  0.9483
 1086TIP3   OH224816   6.722   3.907   6.793  0.0370 -0.0587 -0.0034
 1086TIP3    H124817   6.684   3.929   6.707  1.6129  2.2545 -0.2012
 1086TIP3    H224818   6.650   3.921   6.854 -0.7129 -0.3103 -0.7977
 1087TIP3   OH224819   1.868   5.756   2.154  0.4702 -0.1763 -0.1256
 1087TIP3    H124820   1.947   5.771   2.205 -0.0218  1.8748  0.1014
 1087TIP3    H224821   1.804   5.818   2.190  0.0663  1.3153 -3.1301
 1088TIP3   OH224822   2.754   0.750   8.088 -1.3877 -0.6400 -1.2770
 1088TIP3    H124823   2.780   0.668   8.047 -3.2574 -0.6894 -2.4833
 1088TIP3    H224824   2.671   0.731   8.132 -0.3359 -0.1199  1.1103
 1089TIP3   OH224825   1.721   5.054   0.277  0.3931  0.5381  0.5941
 1089TIP3    H124826   1.759   4.993   0.213 -0.5144 -1.0551  1.5136
 1089TIP3    H224827   1.688   4.998   0.347 -1.3781  2.0211  1.0251
 1090TIP3   OH224828   5.628   2.215   7.186 -0.0877  0.2455 -0.3427
 1090TIP3    H124829   5.680   2.270   7.244 -0.1795 -0.4381  0.4156
 1090TIP3    H224830   5.544   2.204   7.233 -0.1106 -0.4339 -0.5243
 1091TIP3   OH224831   5.190   1.728   6.920 -0.3006 -0.1581  0.3232
 1091TIP3    H124832   5.239   1.696   6.844 -1.1748 -1.4222  0.2584
 1091TIP3    H224833   5.099   1.710   6.898 -0.5718 -0.4350  1.6240
 1092TIP3   OH224834   3.966   6.035   7.805 -0.7988  0.0743 -0.2463
 1092TIP3    H124835   4.059   6.040   7.781 -1.0526 -1.4427 -1.7462
 1092TIP3    H224836   3.963   5.969   7.874 -0.8840 -0.7724 -1.0457
 1093TIP3   OH224837   1.522   6.065   1.532 -0.3821  0.6234 -0.3199
 1093TIP3    H124838   1.449   6.084   1.474 -1.3284  0.1646  0.7005
 1093TIP3    H224839   1.566   5.990   1.492  0.0047  1.3632 -1.3319
 1094TIP3   OH224840   0.434   1.363   0.925  0.7891  0.5467  0.6347
 1094TIP3    H124841   0.455   1.436   0.867 -0.1695  0.6953  0.4600
 1094TIP3    H224842   0.391   1.299   0.868  0.5174  0.3772  1.0284
 1095TIP3   OH224843   5.613   5.048   1.515 -0.3765  0.5083 -0.0680
 1095TIP3    H124844   5.590   4.988   1.444  0.6613  1.5391 -1.3227
 1095TIP3    H224845   5.553   5.025   1.586 -0.8832 -1.1098 -0.9730
 1096TIP3   OH224846   6.523   6.546   1.007 -0.1381 -0.0131  0.3624
 1096TIP3    H124847   6.484   6.461   1.031  1.4032 -1.1943 -1.1035
 1096TIP3    H224848   6.448   6.605   1.000 -1.7269 -2.0752 -1.9574
 1097TIP3   OH224849   3.076   5.915   7.817  0.0202  0.4893  0.0783
 1097TIP3    H124850   3.159   5.919   7.769  0.1328 -0.0469  0.2220
 1097TIP3    H224851   3.052   5.823   7.816 -0.5460  0.6357  0.0921
 1098TIP3   OH224852   3.299   1.557   1.736 -0.0781  0.2011 -0.4274
 1098TIP3    H124853   3.222   1.614   1.728 -0.3705 -0.2424 -0.8578
 1098TIP3    H224854   3.374   1.617   1.737 -0.4239  0.6356 -0.0846
 1099TIP3   OH224855   0.728   5.362   2.237 -0.1811 -0.1220 -0.1931
 1099TIP3    H124856   0.676   5.284   2.259 -0.7114 -0.0941 -1.3074
 1099TIP3    H224857   0.743   5.405   2.321 -1.1886 -0.6175  0.2514
 1100TIP3   OH224858   3.404   3.281   8.487  0.8318  0.6817  0.1200
 1100TIP3    H124859   3.351   3.356   8.513  1.7386  2.1881 -2.0526
 1100TIP3    H224860   3.420   3.294   8.393  0.7407 -2.4477 -0.4351
 1101TIP3   OH224861   6.005   4.570   1.022 -0.2886  0.0535  0.1626
 1101TIP3    H124862   6.052   4.493   0.990 -0.0401 -0.3358  1.4136
 1101TIP3    H224863   5.970   4.611   0.943  0.3907 -0.8038 -0.6089
 1102TIP3   OH224864   5.584   2.549   1.473  0.2314  0.1481  0.1252
 1102TIP3    H124865   5.663   2.514   1.432  0.3562  1.2186 -0.5827
 1102TIP3    H224866   5.536   2.590   1.401  0.6473  2.4209  1.0705
 1103TIP3   OH224867   3.757   6.795   7.083  0.0243 -0.4864 -0.6431
 1103TIP3    H124868   3.845   6.796   7.122  0.4942 -0.8756 -1.6507
 1103TIP3    H224869   3.727   6.705   7.095  0.6191 -0.9027 -2.1020
 1104TIP3   OH224870   0.802   0.556   1.184 -0.2868 -0.1849  0.0957
 1104TIP3    H124871   0.732   0.507   1.143 -0.3568 -1.2294  1.4236
 1104TIP3    H224872   0.762   0.599   1.259  0.2448  0.1699  0.1897
 1105TIP3   OH224873   2.336   0.652   0.351 -0.2321 -0.4588 -0.3064
 1105TIP3    H124874   2.395   0.699   0.293  1.5346 -1.9984  0.1286
 1105TIP3    H224875   2.390   0.630   0.427 -1.4946 -1.5154  0.3227
 1106TIP3   OH224876   3.018   2.020   7.381  0.1326 -0.3168 -0.1676
 1106TIP3    H124877   2.938   1.970   7.396  0.9610 -1.4042  0.8422
 1106TIP3    H224878   3.021   2.083   7.454  2.6595 -3.6430  2.9845
 1107TIP3   OH224879   2.146   2.030   1.745  0.2877  0.4750 -0.4946
 1107TIP3    H124880   2.108   2.037   1.657 -0.7089 -0.6696 -0.1797
 1107TIP3    H224881   2.125   2.114   1.786  0.9996  1.1319 -1.4267
 1108TIP3   OH224882   3.682   1.182   8.323  0.2324 -0.0343  0.2740
 1108TIP3    H124883   3.671   1.258   8.381  1.7990 -0.2467  0.9000
 1108TIP3    H224884   3.699   1.109   8.381  1.3689 -0.3438 -0.4118
 1109TIP3   OH224885   4.447   2.165   7.786 -0.0442 -0.3670  0.0928
 1109TIP3    H124886   4.407   2.251   7.770 -1.4707 -1.1709 -0.8762
 1109TIP3    H224887   4.373   2.104   7.785  0.8584 -1.5428  1.4291
 1110TIP3   OH224888   0.130   2.951   7.163 -0.1349 -0.1891 -0.2811
 1110TIP3    H124889   0.055   3.009   7.178 -0.8339 -0.6269 -1.8264
 1110TIP3    H224890   0.139   2.947   7.067  0.4183 -1.9286 -0.2029
 1111TIP3   OH224891   3.677   2.357   1.036 -0.6011  0.0498  0.0935
 1111TIP3    H124892   3.613   2.300   1.079 -0.2403 -0.7921 -0.4759
 1111TIP3    H224893   3.624   2.421   0.988 -1.0104  0.6618  1.3000
 1112TIP3   OH224894   6.315   1.609   0.093  0.7343 -0.0041 -0.3239
 1112TIP3    H124895   6.245   1.611   0.028 -0.0042 -0.5176  0.4455
 1112TIP3    H224896   6.281   1.556   0.165  1.3394  0.9525  0.7113
 1113TIP3   OH224897   1.313   5.948   7.846 -0.2914 -0.4297 -0.1879
 1113TIP3    H124898   1.343   5.922   7.759  0.5687 -0.4707  0.1105
 1113TIP3    H224899   1.352   6.035   7.859 -0.5739 -0.3428  0.0837
 1114TIP3   OH224900   4.556   5.858   7.403 -0.2065  0.1819  0.4622
 1114TIP3    H124901   4.511   5.893   7.479 -0.4403  1.7126 -0.3368
 1114TIP3    H224902   4.563   5.764   7.420  1.7143  0.7297  3.3659
 1115TIP3   OH224903   6.110   3.764   8.062  1.1597 -0.0308  0.1251
 1115TIP3    H124904   6.103   3.668   8.066 -0.2885 -0.0067 -0.9084
 1115TIP3    H224905   6.193   3.784   8.107  2.5788 -1.9288 -1.4341
 1116TIP3   OH224906   1.226   2.533   8.474  0.0997 -0.4223 -1.0927
 1116TIP3    H124907   1.217   2.619   8.431  1.0841 -0.0839 -0.6551
 1116TIP3    H224908   1.141   2.491   8.462 -0.8936  1.1935 -0.0831
 1117TIP3   OH224909   4.851   0.499   7.710  0.8124 -0.4670 -0.0399
 1117TIP3    H124910   4.771   0.455   7.739 -0.8342  1.3173 -1.6296
 1117TIP3    H224911   4.833   0.525   7.620  2.5515  1.4549  0.0956
 1118TIP3   OH224912   5.793   0.694   8.503 -0.3371  0.2513 -0.1137
 1118TIP3    H124913   5.801   0.680   8.408  0.3673  2.3725 -0.4286
 1118TIP3    H224914   5.699   0.699   8.518 -0.4940 -0.9910 -0.5208
 1119TIP3   OH224915   6.297   5.859   8.444 -0.5956 -0.0666  0.8577
 1119TIP3    H124916   6.352   5.807   8.384 -1.4345  1.9044 -1.8380
 1119TIP3    H224917   6.358   5.891   8.511  0.6233 -1.5499  0.5061
 1120TIP3   OH224918   1.224   1.608   1.105 -0.5493  0.3243 -0.3660
 1120TIP3    H124919   1.149   1.667   1.101 -0.7126  0.1277 -0.2150
 1120TIP3    H224920   1.232   1.573   1.016 -1.5446 -0.7783 -0.0452
 1121TIP3   OH224921   0.263   2.926   1.788  0.4854 -0.3758 -0.1423
 1121TIP3    H124922   0.289   2.867   1.717  0.5574 -0.4211 -0.0785
 1121TIP3    H224923   0.185   2.887   1.825  0.6590 -0.5488  0.0432
 1122TIP3   OH224924   0.630   1.715   0.351  0.1348 -0.3562 -0.0310
 1122TIP3    H124925   0.546   1.759   0.340  0.2258  0.0950  0.9766
 1122TIP3    H224926   0.652   1.683   0.263 -0.7427  0.1380 -0.4433
 1123TIP3   OH224927   6.053   5.713   2.889 -0.2664 -0.2041 -0.0091
 1123TIP3    H124928   6.042   5.798   2.847  1.3109 -0.4310 -0.9970
 1123TIP3    H224929   5.994   5.655   2.841 -0.1111 -0.0067 -0.4442
 1124TIP3   OH224930   2.264   5.190   7.515  0.6670  0.6495 -0.3615
 1124TIP3    H124931   2.258   5.274   7.468 -1.0458 -0.5053 -2.3832
 1124TIP3    H224932   2.344   5.150   7.481  2.2314  1.9454  1.5982
 1125TIP3   OH224933   6.442   5.356   0.632  0.1561 -0.4301  0.2911
 1125TIP3    H124934   6.424   5.374   0.725  0.3711 -0.9282  0.4337
 1125TIP3    H224935   6.533   5.327   0.630  0.0740 -0.6752 -0.0374
 1126TIP3   OH224936   5.206   6.105   1.869  0.0147  0.9080 -0.5014
 1126TIP3    H124937   5.259   6.059   1.804  0.0620  0.6515 -0.2781
 1126TIP3    H224938   5.269   6.158   1.918 -0.0304  1.1620 -0.7115
 1127TIP3   OH224939   5.814   3.746   7.552  0.0769  0.1262  0.1714
 1127TIP3    H124940   5.811   3.686   7.478  0.7108  1.1712 -0.7118
 1127TIP3    H224941   5.734   3.726   7.602 -1.6105  0.9758 -2.0399
 1128TIP3   OH224942   6.908   0.821   8.478  0.0446  0.0810 -0.2926
 1128TIP3    H124943   6.998   0.788   8.477  0.1115  0.2605 -0.3329
 1128TIP3    H224944   6.865   0.775   8.406 -0.4303 -1.4305  0.9066
 1129TIP3   OH224945   6.547   4.271   0.623 -0.5746  0.1251  0.0893
 1129TIP3    H124946   6.500   4.230   0.550 -0.8590 -1.0498  0.8961
 1129TIP3    H224947   6.477   4.297   0.683 -0.3609  1.3796 -0.1819
 1130TIP3   OH224948   1.207   3.313   0.736  0.4150  0.1708  0.1957
 1130TIP3    H124949   1.269   3.333   0.806 -0.3109  1.1976  0.5673
 1130TIP3    H224950   1.151   3.390   0.731  0.2973  0.0278 -1.3590
 1131TIP3   OH224951   2.912   5.520   1.277  0.1175 -0.1159  0.3508
 1131TIP3    H124952   2.862   5.545   1.200 -0.6232 -1.2789  0.4261
 1131TIP3    H224953   2.906   5.595   1.336 -0.3125  0.3164 -0.2347
 1132TIP3   OH224954   3.739   2.100   1.788  0.2637 -0.0676  0.0696
 1132TIP3    H124955   3.738   2.010   1.822  0.9437  0.4460  1.5478
 1132TIP3    H224956   3.670   2.145   1.837 -1.7753 -0.3137 -2.3856
 1133TIP3   OH224957   2.450   3.806   6.591  0.1672  0.1164  0.1190
 1133TIP3    H124958   2.537   3.801   6.552 -0.1632 -1.3832 -0.4870
 1133TIP3    H224959   2.390   3.777   6.522 -0.4029 -3.0369  1.7031
 1134TIP3   OH224960   5.103   5.673   0.136 -0.0031 -0.2330  0.1014
 1134TIP3    H124961   5.154   5.592   0.127  1.0826  0.3661  0.6651
 1134TIP3    H224962   5.038   5.668   0.066  1.1013 -0.8407 -0.9133
 1135TIP3   OH224963   5.336   5.160   7.549  0.3515 -0.1039  0.0454
 1135TIP3    H124964   5.322   5.241   7.598  0.6065 -0.1095  0.1269
 1135TIP3    H224965   5.312   5.182   7.459  0.1842 -0.0079  0.1115
 1136TIP3   OH224966   4.266   5.808   0.475 -0.2913  0.0847 -0.2922
 1136TIP3    H124967   4.199   5.760   0.426 -0.4427  0.1557 -0.1578
 1136TIP3    H224968   4.341   5.811   0.416 -0.7928  1.0125 -0.8977
 1137TIP3   OH224969   1.824   6.753   7.927  0.0882  1.1715 -0.1180
 1137TIP3    H124970   1.852   6.662   7.934  0.1149  1.3478  3.4464
 1137TIP3    H224971   1.891   6.794   7.872 -0.3139 -0.9984 -2.4113
 1138TIP3   OH224972   6.085   0.802   0.123  0.2647  0.0556  0.4960
 1138TIP3    H124973   6.127   0.825   0.040 -1.5728  1.8299 -0.0258
 1138TIP3    H224974   6.089   0.707   0.127  0.1442 -0.0896 -1.7842
 1139TIP3   OH224975   2.090   2.531   0.207  0.6773  0.2506  0.1700
 1139TIP3    H124976   2.112   2.467   0.274 -0.1848 -0.4037 -0.1616
 1139TIP3    H224977   2.151   2.513   0.135  1.9251  1.2600  0.9268
 1140TIP3   OH224978   6.592   3.196   1.373  0.5439  0.0631  0.3381
 1140TIP3    H124979   6.528   3.220   1.306 -0.7391  2.8347  2.3125
 1140TIP3    H224980   6.677   3.207   1.330 -0.2320  0.7450 -1.1036
 1141TIP3   OH224981   0.863   5.685   1.444  0.8166  0.0561  0.3888
 1141TIP3    H124982   0.909   5.647   1.369  1.1719 -0.4591  0.8594
 1141TIP3    H224983   0.854   5.778   1.422  2.3701  0.2354  0.4223
 1142TIP3   OH224984   6.207   4.332   8.442  0.3578  0.3432  0.4428
 1142TIP3    H124985   6.216   4.423   8.414  0.7486 -0.1191 -1.0439
 1142TIP3    H224986   6.113   4.321   8.457  0.2965  0.9679  0.5727
 1143TIP3   OH224987   3.585   6.541   0.878  0.0500  0.1070 -0.3911
 1143TIP3    H124988   3.548   6.460   0.841 -1.4227  0.2658  0.6472
 1143TIP3    H224989   3.620   6.514   0.963 -0.0954  0.4754 -0.2142
 1144TIP3   OH224990   6.067   4.481   8.227 -0.4284 -0.0291  0.3143
 1144TIP3    H124991   6.116   4.562   8.214 -1.3223  0.9131  2.3575
 1144TIP3    H224992   5.992   4.489   8.168 -0.1278  0.2857 -0.0306
 1145TIP3   OH224993   0.842   1.558   1.311 -0.6148 -0.1499 -0.9514
 1145TIP3    H124994   0.928   1.562   1.353 -0.2026 -1.8876 -1.5831
 1145TIP3    H224995   0.788   1.509   1.373 -1.1342  0.7662 -0.6475
 1146TIP3   OH224996   0.758   6.439   1.951  0.1440  0.3760  0.2941
 1146TIP3    H124997   0.737   6.460   1.860 -0.5447 -1.5967 -0.0499
 1146TIP3    H224998   0.852   6.424   1.951  0.1806  0.5880 -0.0305
 1147TIP3   OH224999   2.629   3.970   2.039  0.4103  0.1068  0.1942
 1147TIP3    H125000   2.638   3.877   2.060 -2.1548 -0.2445  0.0033
 1147TIP3    H225001   2.535   3.985   2.037  0.7754  2.9689  1.1805
 1148TIP3   OH225002   3.241   5.742   6.646 -0.5180 -0.0800 -0.1337
 1148TIP3    H125003   3.212   5.679   6.580  0.8314 -0.6868 -0.1812
 1148TIP3    H225004   3.171   5.807   6.650 -1.2370 -0.7686 -1.1849
 1149TIP3   OH225005   4.696   5.032   1.559 -0.9437 -0.0933  0.4518
 1149TIP3    H125006   4.781   5.027   1.602 -1.4340  1.4501  1.6981
 1149TIP3    H225007   4.717   5.043   1.466  0.2214  0.2481  0.7344
 1150TIP3   OH225008   1.456   2.379   6.862  0.1242 -0.0462 -0.4749
 1150TIP3    H125009   1.381   2.414   6.815  0.5944  1.6379 -0.0225
 1150TIP3    H225010   1.524   2.444   6.852  0.7323 -0.3648  1.2049
 1151TIP3   OH225011   2.920   3.230   0.000  0.2761 -0.0814  0.4647
 1151TIP3    H125012   2.910   3.324   0.011  2.7876  0.3555 -0.3224
 1151TIP3    H225013   2.952   3.199   0.085  2.9824  0.4494 -0.2741
 1152TIP3   OH225014   2.823   0.191   0.540 -0.1192 -0.3534 -0.3963
 1152TIP3    H125015   2.874   0.269   0.562 -1.6574  0.1548  1.6400
 1152TIP3    H225016   2.756   0.222   0.479 -0.9557  0.0560  0.6903
 1153TIP3   OH225017   5.483   2.314   8.241  0.5011  0.5311 -0.3911
 1153TIP3    H125018   5.545   2.250   8.274 -0.0927 -0.4660 -1.1397
 1153TIP3    H225019   5.406   2.263   8.217 -1.2609  1.8985  1.9699
 1154TIP3   OH225020   0.190   2.782   0.450 -0.0669  0.2589  0.1567
 1154TIP3    H125021   0.154   2.755   0.534  1.4557 -0.4079  0.6294
 1154TIP3    H225022   0.211   2.700   0.406  0.8591  0.6224 -0.0938
 1155TIP3   OH225023   1.728   0.854   8.399 -0.1012  0.7466  0.2019
 1155TIP3    H125024   1.753   0.769   8.362  0.0223  0.8540  0.0413
 1155TIP3    H225025   1.802   0.911   8.381 -0.8174  1.3186 -1.1031
 1156TIP3   OH225026   0.892   6.863   7.891  0.7536 -0.0751  0.9313
 1156TIP3    H125027   0.966   6.914   7.859  0.2537  0.8595  1.2335
 1156TIP3    H225028   0.874   6.900   7.978 -0.2563 -0.0818  0.7353
 1157TIP3   OH225029   0.589   4.446   1.176 -0.0674  0.4296  0.0278
 1157TIP3    H125030   0.573   4.528   1.223 -2.4299 -1.2031  2.3475
 1157TIP3    H225031   0.680   4.425   1.195  0.6642  2.5284 -0.7916
 1158TIP3   OH225032   1.335   2.659   1.887  0.2361  0.3142 -0.2713
 1158TIP3    H125033   1.399   2.596   1.920  0.6952  1.2841  0.7503
 1158TIP3    H225034   1.260   2.652   1.946  0.0400  0.3052 -0.5162
 1159TIP3   OH225035   3.858   6.468   0.260  0.2398 -0.6480 -0.0506
 1159TIP3    H125036   3.914   6.486   0.335 -0.0702 -2.8030  0.7613
 1159TIP3    H225037   3.777   6.516   0.279  0.5916 -0.2190  0.3976
 1160TIP3   OH225038   6.257   1.837   2.025 -0.6165 -0.4335 -0.3894
 1160TIP3    H125039   6.192   1.814   1.958 -1.6405  0.2038  0.3528
 1160TIP3    H225040   6.267   1.758   2.078 -0.6431 -0.5970 -0.6297
 1161TIP3   OH225041   6.334   1.838   2.374  0.2109 -0.4783  0.0395
 1161TIP3    H125042   6.364   1.901   2.309  0.7739  2.1771  2.6965
 1161TIP3    H225043   6.404   1.773   2.379  1.7195  1.0989  0.2760
 1162TIP3   OH225044   1.918   3.344   6.421  0.0582 -0.0251 -0.3275
 1162TIP3    H125045   1.889   3.311   6.505 -1.2975 -0.1093 -0.8043
 1162TIP3    H225046   1.864   3.422   6.405 -0.6930 -0.7721 -1.7017
 1163TIP3   OH225047   4.315   1.174   7.176  0.8001  0.5035  0.0896
 1163TIP3    H125048   4.272   1.211   7.099  1.7898 -1.2606 -1.3576
 1163TIP3    H225049   4.248   1.179   7.245 -1.2159 -0.6980 -1.6655
 1164TIP3   OH225050   3.566   5.274   1.083 -0.7041 -0.0218  0.0196
 1164TIP3    H125051   3.528   5.319   1.158 -1.1957  0.1179 -0.3104
 1164TIP3    H225052   3.509   5.198   1.068 -1.9610  1.1692 -1.6016
 1165TIP3   OH225053   3.340   5.006   0.534  0.6310  0.3042 -0.4413
 1165TIP3    H125054   3.397   4.952   0.479 -0.1251  0.0445 -0.9989
 1165TIP3    H225055   3.273   5.039   0.473 -0.0655  0.2363  0.2777
 1166TIP3   OH225056   6.276   2.397   0.459  0.1436 -0.4581 -0.0987
 1166TIP3    H125057   6.216   2.325   0.442 -0.3993  0.0102 -0.1745
 1166TIP3    H225058   6.296   2.433   0.373  1.0938 -1.0539 -0.1404
 1167TIP3   OH225059   5.462   4.180   2.426  0.7233 -0.2339 -0.1842
 1167TIP3    H125060   5.460   4.198   2.520  0.4021 -0.8501 -0.0718
 1167TIP3    H225061   5.474   4.085   2.419 -0.6173 -0.3815 -0.7533
 1168TIP3   OH225062   5.198   2.164   1.408  0.6768 -0.2000  0.1218
 1168TIP3    H125063   5.212   2.138   1.499  0.2690  0.7669  0.4678
 1168TIP3    H225064   5.206   2.259   1.408  0.5033 -0.1731 -0.8299
 1169TIP3   OH225065   6.313   2.709   0.085  0.1686 -0.4435 -0.1358
 1169TIP3    H125066   6.389   2.767   0.096  0.8638 -0.8545 -2.2252
 1169TIP3    H225067   6.239   2.769   0.079  0.0909 -0.0781  3.0093
 1170TIP3   OH225068   2.034   2.206   1.911 -0.6484 -0.2630  0.4563
 1170TIP3    H125069   2.067   2.232   1.997 -1.5418 -1.7597  1.2808
 1170TIP3    H225070   1.970   2.274   1.889  0.6760  0.9749  0.2211
 1171TIP3   OH225071   6.893   2.366   7.703 -0.4295 -0.7107 -0.0118
 1171TIP3    H125072   6.976   2.399   7.737 -0.4782  1.3190 -1.6268
 1171TIP3    H225073   6.918   2.301   7.637 -0.2265 -1.6515  0.9674
 1172TIP3   OH225074   4.281   2.557   1.964  0.1688 -0.1549 -0.0072
 1172TIP3    H125075   4.304   2.644   1.932  0.7568 -0.0692  0.6171
 1172TIP3    H225076   4.222   2.572   2.038 -1.7632 -0.3697 -1.4316
 1173TIP3   OH225077   6.017   2.284   7.716  0.8388  0.3698 -0.7000
 1173TIP3    H125078   6.031   2.193   7.687  0.6656  0.4104 -0.9185
 1173TIP3    H225079   6.105   2.322   7.720  1.1714 -0.4755  1.6646
 1174TIP3   OH225080   5.373   2.441   2.033  0.1668  0.5118 -0.1301
 1174TIP3    H125081   5.345   2.450   2.124 -1.1917  0.4980 -0.5209
 1174TIP3    H225082   5.442   2.507   2.022 -0.5332  1.3877  0.5803
 1175TIP3   OH225083   6.472   2.325   1.620  0.2269  0.4641  0.3305
 1175TIP3    H125084   6.418   2.330   1.698  1.6534  1.9044  1.2779
 1175TIP3    H225085   6.544   2.266   1.645  0.0638 -0.0096 -0.3001
 1176TIP3   OH225086   2.776   2.444   1.243  0.0738  0.1807 -0.3010
 1176TIP3    H125087   2.847   2.380   1.240 -2.3316 -2.7264  0.7543
 1176TIP3    H225088   2.759   2.465   1.151  0.0382 -1.7806 -0.7782
 1177TIP3   OH225089   0.962   0.918   7.881 -0.3570 -0.1216  0.2830
 1177TIP3    H125090   1.045   0.949   7.918 -0.7489  1.2913  0.0217
 1177TIP3    H225091   0.894   0.960   7.935 -0.9706  2.7347 -2.4513
 1178TIP3   OH225092   6.864   2.993   1.548  0.2524  0.2290 -0.2972
 1178TIP3    H125093   6.855   2.964   1.639  0.1694 -2.3370 -1.0323
 1178TIP3    H225094   6.774   2.991   1.514  0.0374  2.7684 -0.0840
 1179TIP3   OH225095   5.228   5.221   7.913 -0.2977 -0.2070 -0.0857
 1179TIP3    H125096   5.315   5.216   7.873 -0.0037 -0.1420  0.5287
 1179TIP3    H225097   5.168   5.189   7.846  0.4671 -2.7119  0.2994
 1180TIP3   OH225098   6.046   3.809   7.616 -0.7245  0.2406 -0.1346
 1180TIP3    H125099   5.954   3.784   7.604 -1.6916  3.4933 -0.6255
 1180TIP3    H225100   6.087   3.792   7.531 -0.8601 -1.0897  0.0429
 1181TIP3   OH225101   4.354   1.389   0.527  0.4744  0.0207 -0.4959
 1181TIP3    H125102   4.417   1.447   0.485  1.5833  0.2824  1.4267
 1181TIP3    H225103   4.329   1.434   0.608  0.3992 -1.5890  0.4179
 1182TIP3   OH225104   1.355   1.934   0.301 -0.1533  0.4437 -0.0828
 1182TIP3    H125105   1.366   1.858   0.357  0.0959  0.5247 -0.0157
 1182TIP3    H225106   1.421   1.923   0.232 -1.5611 -0.5096 -1.3469
 1183TIP3   OH225107   5.562   0.360   0.165 -0.2138  0.8134  0.2044
 1183TIP3    H125108   5.538   0.438   0.116 -1.5531 -0.3685 -1.1175
 1183TIP3    H225109   5.606   0.304   0.101  1.0470  0.6020  1.2152
 1184TIP3   OH225110   3.821   0.934   8.479 -0.3558  0.2748  0.7617
 1184TIP3    H125111   3.801   0.903   8.568 -1.2577 -1.1651  0.1008
 1184TIP3    H225112   3.817   0.855   8.425 -0.1799  1.1784 -0.6224
 1185TIP3   OH225113   1.783   2.055   1.986  0.4019  0.3175 -0.2908
 1185TIP3    H125114   1.759   2.101   2.067  1.5238  0.7327 -0.1855
 1185TIP3    H225115   1.878   2.066   1.979  0.3902 -0.1770 -1.3859
 1186TIP3   OH225116   2.115   2.854   0.519  0.2923 -0.8211 -0.3231
 1186TIP3    H125117   2.074   2.939   0.503  0.6718 -0.5927 -0.1016
 1186TIP3    H225118   2.138   2.822   0.433  0.9612 -0.2860 -0.3543
 1187TIP3   OH225119   0.567   2.740   6.123 -0.3869 -0.2681 -0.2115
 1187TIP3    H125120   0.477   2.771   6.117 -0.0638  0.7591 -0.0373
 1187TIP3    H225121   0.607   2.798   6.189  0.3532 -0.8171 -0.1679
 1188TIP3   OH225122   0.488   1.167   7.905  0.7901 -0.0054  0.3478
 1188TIP3    H125123   0.450   1.201   7.986  1.2496 -0.4854  0.7775
 1188TIP3    H225124   0.426   1.101   7.875  1.0801 -0.5158  0.8422
 1189TIP3   OH225125   3.319   1.041   0.552 -0.2285  0.8249  0.2945
 1189TIP3    H125126   3.267   1.104   0.601  0.0717  1.7590 -0.5675
 1189TIP3    H225127   3.255   0.981   0.513 -0.5735  1.2679  0.1829
 1190TIP3   OH225128   6.118   2.592   7.027  0.3389 -0.2271  0.1184
 1190TIP3    H125129   6.170   2.524   7.071 -0.0299 -0.2594  0.5148
 1190TIP3    H225130   6.077   2.548   6.953  0.2512 -0.3900  0.2646
 1191TIP3   OH225131   0.237   3.353   1.447 -0.1192 -0.4861 -0.4608
 1191TIP3    H125132   0.231   3.273   1.500  0.9272 -0.1326  0.2181
 1191TIP3    H225133   0.317   3.396   1.477 -1.2009  1.3612 -0.0483
 1192TIP3   OH225134   5.097   4.069   1.651  0.4147 -0.9423 -0.9887
 1192TIP3    H125135   5.114   4.013   1.576  2.8553 -0.3065 -0.9777
 1192TIP3    H225136   5.165   4.046   1.715 -0.9539 -0.7321  0.6348
 1193TIP3   OH225137   1.533   4.382   0.637  0.6332 -0.4088 -0.0945
 1193TIP3    H125138   1.581   4.407   0.716 -0.0269  1.0102 -0.1074
 1193TIP3    H225139   1.495   4.297   0.658 -0.2711  0.3406  1.4910
 1194TIP3   OH225140   3.329   6.157   0.726 -0.0004  0.1759 -0.4443
 1194TIP3    H125141   3.418   6.125   0.738  0.2540 -0.3624 -3.0421
 1194TIP3    H225142   3.333   6.207   0.644 -1.7545  1.5790  0.2553
 1195TIP3   OH225143   4.890   5.642   1.917  0.4764  0.0365 -0.1761
 1195TIP3    H125144   4.941   5.722   1.904  0.9577 -0.1892  0.2750
 1195TIP3    H225145   4.849   5.625   1.833  0.5436  0.6444 -0.3331
 1196TIP3   OH225146   3.678   2.315   8.468 -0.1294  0.0004  0.5788
 1196TIP3    H125147   3.686   2.390   8.528 -0.1465  1.2058 -0.8801
 1196TIP3    H225148   3.635   2.247   8.520 -0.6836  1.2159  1.7529
 1197TIP3   OH225149   3.686   4.310   7.377 -0.3643  0.2557 -0.5531
 1197TIP3    H125150   3.610   4.367   7.378  0.3132  1.1656 -0.3324
 1197TIP3    H225151   3.761   4.368   7.368  0.5206 -0.3605  1.8059
 1198TIP3   OH225152   5.766   6.815   8.127 -0.2053 -0.0903  0.1955
 1198TIP3    H125153   5.819   6.894   8.114  1.9822 -0.8829  3.2194
 1198TIP3    H225154   5.682   6.847   8.160 -0.0841  1.0307 -0.5406
 1199TIP3   OH225155   4.571   1.710   7.671  0.3098  0.0618  0.4458
 1199TIP3    H125156   4.564   1.708   7.766 -0.2614 -1.1107  0.3928
 1199TIP3    H225157   4.554   1.802   7.648  2.0132  0.6985  1.5601
 1200TIP3   OH225158   1.440   2.389   7.869  0.3785 -0.0415 -0.3183
 1200TIP3    H125159   1.351   2.423   7.881  0.8043  1.3740 -0.9055
 1200TIP3    H225160   1.428   2.304   7.827 -0.6868  0.4071 -0.9744
 1201TIP3   OH225161   0.407   0.655   6.925  0.1576 -0.1407 -0.4684
 1201TIP3    H125162   0.326   0.675   6.972 -0.7709 -0.5517 -1.8313
 1201TIP3    H225163   0.430   0.737   6.881  0.5332 -0.0086 -0.0392
 1202TIP3   OH225164   3.856   4.419   6.723  0.4240 -0.0767 -0.0029
 1202TIP3    H125165   3.879   4.456   6.638 -0.4471 -1.0748 -0.7044
 1202TIP3    H225166   3.934   4.432   6.776  1.9125 -1.5333 -1.6734
 1203TIP3   OH225167   3.498   1.950   1.510 -0.2601 -0.3650  0.4331
 1203TIP3    H125168   3.409   1.948   1.547 -0.5218 -2.4616 -0.1498
 1203TIP3    H225169   3.529   2.039   1.525 -1.6306 -0.1932  2.6167
 1204TIP3   OH225170   3.830   0.685   8.071 -0.2537  0.1494  0.4040
 1204TIP3    H125171   3.842   0.609   8.014 -0.5873  1.3065 -1.2857
 1204TIP3    H225172   3.901   0.744   8.047 -0.2973  0.5965  1.3386
 1205TIP3   OH225173   6.798   3.232   0.541  0.7738  0.1592  0.8021
 1205TIP3    H125174   6.738   3.158   0.542 -1.5528  1.9415  0.5991
 1205TIP3    H225175   6.864   3.209   0.476  0.0989 -1.6955  0.7174
 1206TIP3   OH225176   6.739   1.349   6.566 -0.1921 -0.2213 -0.4324
 1206TIP3    H125177   6.660   1.339   6.513  0.2913 -2.0821 -0.8704
 1206TIP3    H225178   6.796   1.406   6.513 -1.3039  1.3595  0.0151
 1207TIP3   OH225179   4.077   0.989   6.915  0.0802 -0.3134 -0.1320
 1207TIP3    H125180   4.050   0.971   6.825 -0.7998  0.7728 -0.1104
 1207TIP3    H225181   4.129   1.069   6.909 -1.6945  0.9534  0.5242
 1208TIP3   OH225182   3.314   4.808   8.122 -0.1302 -0.1784  0.1876
 1208TIP3    H125183   3.360   4.840   8.200  1.4006  1.0011 -1.1281
 1208TIP3    H225184   3.311   4.884   8.064 -1.4606 -0.9736 -0.8378
 1209TIP3   OH225185   6.157   5.619   8.049 -0.0415  0.2073 -0.0773
 1209TIP3    H125186   6.127   5.710   8.049 -0.5882  0.0417 -1.3272
 1209TIP3    H225187   6.218   5.613   7.975  0.7344 -0.2224  0.5721
 1210TIP3   OH225188   1.546   1.298   7.770 -0.3782  0.0372 -0.0319
 1210TIP3    H125189   1.581   1.370   7.823 -0.5046 -0.1771  0.3445
 1210TIP3    H225190   1.533   1.336   7.684 -0.1103  0.3740  0.0731
 1211TIP3   OH225191   5.263   1.915   7.096  0.1713  0.3624 -0.4338
 1211TIP3    H125192   5.242   1.831   7.055 -0.2925  0.0049  0.5013
 1211TIP3    H225193   5.178   1.956   7.112  0.3762  0.7848 -0.4271
 1212TIP3   OH225194   4.553   2.364   7.517 -0.1482  0.8024 -0.0724
 1212TIP3    H125195   4.629   2.317   7.483  0.2044  0.8697  0.6066
 1212TIP3    H225196   4.498   2.380   7.440  1.0150  1.6820 -0.7524
 1213TIP3   OH225197   3.615   3.384   7.650  0.1991 -0.3664 -0.1115
 1213TIP3    H125198   3.673   3.336   7.709  0.7204  1.4950  0.9675
 1213TIP3    H225199   3.597   3.322   7.579 -0.3225 -2.6587  1.8609
 1214TIP3   OH225200   4.889   6.498   1.933  0.1661  0.3764 -0.1355
 1214TIP3    H125201   4.860   6.527   2.019 -0.2627 -0.8578  0.1594
 1214TIP3    H225202   4.984   6.492   1.940  0.1815  0.8486  0.0647
 1215TIP3   OH225203   5.203   0.331   8.310  0.0177 -0.7548  0.2152
 1215TIP3    H125204   5.215   0.425   8.293 -0.1076 -1.2642 -3.8244
 1215TIP3    H225205   5.207   0.323   8.405 -1.0979  3.4744  0.8553
 1216TIP3   OH225206   2.955   2.652   0.688  0.0129 -0.1285  0.4688
 1216TIP3    H125207   2.884   2.614   0.635 -1.0219 -2.3298  3.1695
 1216TIP3    H225208   3.032   2.602   0.663  0.2148  0.8292 -0.9516
 1217TIP3   OH225209   4.369   6.766   8.128 -0.1330  0.1723  0.1441
 1217TIP3    H125210   4.392   6.772   8.220 -1.9638 -1.2127  0.7495
 1217TIP3    H225211   4.452   6.759   8.082  0.7482 -0.8563  1.8351
 1218TIP3   OH225212   4.638   5.639   6.873  0.3505  0.1091 -0.4356
 1218TIP3    H125213   4.563   5.681   6.914  0.3106  0.4189 -0.8256
 1218TIP3    H225214   4.616   5.546   6.871  0.2376  0.1237 -0.0028
 1219TIP3   OH225215   4.495   0.077   0.532 -0.0601  0.4836  0.2934
 1219TIP3    H125216   4.484   0.088   0.437  0.8769  4.6103  0.4726
 1219TIP3    H225217   4.415   0.032   0.560 -2.0573  2.2294 -2.0996
 1220TIP3   OH225218   1.883   2.867   7.261 -0.3648  0.1883 -0.1423
 1220TIP3    H125219   1.904   2.960   7.271 -1.1852  0.4585 -0.7731
 1220TIP3    H225220   1.848   2.860   7.172  0.8138 -0.9483 -0.5352
 1221TIP3   OH225221   0.386   2.988   7.287  0.1174  0.4056  0.2690
 1221TIP3    H125222   0.447   2.928   7.244 -0.7674 -1.1295  1.0459
 1221TIP3    H225223   0.303   2.974   7.242  0.1524  1.9964 -0.3523
 1222TIP3   OH225224   0.134   1.870   2.135  0.0617  0.1599  0.5010
 1222TIP3    H125225   0.154   1.961   2.111  0.4833  0.5586  2.2446
 1222TIP3    H225226   0.212   1.840   2.180 -0.3965 -0.8114  0.6631
 1223TIP3   OH225227   2.480   4.850   0.064 -0.4119  1.2118 -0.2133
 1223TIP3    H125228   2.538   4.916   0.025  1.0229  1.7626  2.5769
 1223TIP3    H225229   2.422   4.900   0.121 -0.9407  0.2619  0.1051
 1224TIP3   OH225230   2.658   5.151   2.148 -0.0536 -0.1191  0.5224
 1224TIP3    H125231   2.564   5.160   2.161  0.0589 -1.1733  2.4435
 1224TIP3    H225232   2.669   5.062   2.113  0.1180  0.7304 -1.7660
 1225TIP3   OH225233   5.042   3.957   1.404  0.2879 -0.3462  0.0082
 1225TIP3    H125234   5.028   3.986   1.314  0.6462 -0.9795 -0.2564
 1225TIP3    H225235   5.093   3.876   1.396 -1.7869 -1.7945  0.6485
 1226TIP3   OH225236   5.124   6.639   1.909  0.0970 -0.1679  0.3278
 1226TIP3    H125237   5.096   6.723   1.945 -0.5827  0.1931 -0.9782
 1226TIP3    H225238   5.167   6.661   1.826  0.2911 -1.0781  0.1752
 1227TIP3   OH225239   2.105   0.798   1.058  0.2097 -0.0909  0.1413
 1227TIP3    H125240   2.075   0.847   0.982 -0.2043  0.0527  0.3951
 1227TIP3    H225241   2.079   0.707   1.040  0.5310 -0.1343 -0.1019
 1228TIP3   OH225242   2.491   4.120   8.504 -0.1550  0.6510 -0.1105
 1228TIP3    H125243   2.555   4.119   8.575 -1.1641 -0.4823  0.8300
 1228TIP3    H225244   2.498   4.207   8.466  0.1869  1.3921  1.5841
 1229TIP3   OH225245   4.607   0.093   1.223  0.6034 -0.0192  0.1738
 1229TIP3    H125246   4.578   0.150   1.294 -0.7802 -0.2396 -0.1829
 1229TIP3    H225247   4.602   0.148   1.145  0.3525 -0.3031 -0.0112
 1230TIP3   OH225248   0.120   2.156   1.357  0.4220  0.7998 -0.0820
 1230TIP3    H125249   0.124   2.105   1.438  2.0871  0.4082 -0.3697
 1230TIP3    H225250   0.179   2.230   1.372 -0.5109  1.6284 -0.3672
 1231TIP3   OH225251   5.029   4.484   0.438  0.4314 -0.2282  0.0579
 1231TIP3    H125252   5.051   4.391   0.439 -0.4699 -0.4959  2.4148
 1231TIP3    H225253   4.935   4.487   0.459 -0.4419  1.1388 -3.2841
 1232TIP3   OH225254   2.151   5.470   6.612 -0.1312  0.4332 -0.4594
 1232TIP3    H125255   2.059   5.497   6.614 -0.2829  0.0082 -1.1349
 1232TIP3    H225256   2.199   5.547   6.639 -0.5417  1.4702 -2.4688
 1233TIP3   OH225257   0.182   6.383   1.221 -0.2031 -0.0043 -0.1779
 1233TIP3    H125258   0.155   6.311   1.278  0.9013 -0.1847  0.1376
 1233TIP3    H225259   0.269   6.406   1.252 -1.0416  2.3703  0.6110
 1234TIP3   OH225260   3.775   2.021   8.123 -0.5898 -0.6492 -0.7392
 1234TIP3    H125261   3.720   2.097   8.141  0.2513 -0.2172  0.0949
 1234TIP3    H225262   3.715   1.946   8.126 -1.2045 -0.1503 -0.3123
 1235TIP3   OH225263   1.946   6.898   0.056 -0.2309 -0.1767 -0.6797
 1235TIP3    H125264   2.037   6.882   0.032  0.1432 -0.8805  1.0940
 1235TIP3    H225265   1.940   6.871   0.148 -1.6898  1.9377 -0.0885
 1236TIP3   OH225266   1.406   2.750   7.306  0.2187 -0.3144  0.2213
 1236TIP3    H125267   1.406   2.836   7.348 -0.8830 -0.8618  1.4295
 1236TIP3    H225268   1.372   2.691   7.373 -0.3596 -1.4620 -1.0345
 1237TIP3   OH225269   4.279   3.516   1.826 -0.5020  0.0551  0.0115
 1237TIP3    H125270   4.227   3.435   1.829 -0.1400 -0.1979 -0.5123
 1237TIP3    H225271   4.239   3.568   1.756 -1.5201  0.8831  1.1577
 1238TIP3   OH225272   4.189   2.546   7.717  0.0163 -0.2999 -0.0519
 1238TIP3    H125273   4.276   2.583   7.700 -0.2893  0.5685  0.2027
 1238TIP3    H225274   4.190   2.461   7.673  1.5986 -1.0780  1.3774
 1239TIP3   OH225275   3.739   3.942   0.041 -0.7391 -0.7313  0.2299
 1239TIP3    H125276   3.767   3.851   0.052  1.9600 -0.0913 -0.5225
 1239TIP3    H225277   3.690   3.942  -0.041 -1.2458 -1.5755  0.5130
 1240TIP3   OH225278   3.012   0.881   2.130 -0.0651  0.1745  0.0151
 1240TIP3    H125279   3.030   0.956   2.074  1.4433  0.1167  0.3898
 1240TIP3    H225280   2.966   0.917   2.206  2.0312  1.0053  0.9534
 1241TIP3   OH225281   5.913   2.145   1.395 -0.3276 -0.2040  0.4999
 1241TIP3    H125282   5.853   2.077   1.426 -0.5833 -0.4111 -0.4279
 1241TIP3    H225283   6.000   2.111   1.417 -0.4315 -1.0408 -0.3312
 1242TIP3   OH225284   3.971   0.172   0.944 -0.3207  0.2857  0.1125
 1242TIP3    H125285   3.977   0.222   1.026 -2.9260  1.4070 -0.3039
 1242TIP3    H225286   3.943   0.085   0.971 -1.2698  0.6808  0.4348
 1243TIP3   OH225287   4.766   1.269   7.929 -0.2851 -0.1272  0.2801
 1243TIP3    H125288   4.771   1.207   7.856 -0.2891 -0.3258  0.4478
 1243TIP3    H225289   4.845   1.321   7.922 -0.6984  0.4236 -0.3778
 1244TIP3   OH225290   2.376   5.961   8.088 -0.1422  0.4206 -0.3429
 1244TIP3    H125291   2.327   5.882   8.113 -1.4796  1.8444  1.8423
 1244TIP3    H225292   2.462   5.929   8.064 -0.5812 -1.6984  0.6710
 1245TIP3   OH225293   2.556   6.264   2.555  0.2389  0.4480  0.6559
 1245TIP3    H125294   2.478   6.257   2.610  0.2159  0.7460  0.6595
 1245TIP3    H225295   2.523   6.255   2.466  0.2921 -0.1686  0.6903
 1246TIP3   OH225296   1.191   2.076   0.770 -0.0010 -0.3644  0.3999
 1246TIP3    H125297   1.276   2.094   0.730  0.4025 -0.0381  1.3555
 1246TIP3    H225298   1.207   2.088   0.864 -1.1628 -0.0480  0.5682
 1247TIP3   OH225299   0.446   1.802   8.134  0.0523 -0.0537  0.0093
 1247TIP3    H125300   0.518   1.761   8.086  0.9263 -3.1091  3.4379
 1247TIP3    H225301   0.369   1.783   8.081  0.9685 -3.1066 -0.4730
 1248TIP3   OH225302   1.487   0.022   1.829  0.4058 -0.6908  0.5229
 1248TIP3    H125303   1.549   0.065   1.888  1.1550 -1.9584  0.6780
 1248TIP3    H225304   1.502  -0.071   1.843  1.3734 -1.0602 -2.4494
 1249TIP3   OH225305   4.138   2.368   2.341 -0.4166  0.0675  0.5057
 1249TIP3    H125306   4.193   2.439   2.373  1.4370 -0.7482 -0.7449
 1249TIP3    H225307   4.108   2.324   2.421  0.3977  0.7934  1.2325
 1250TIP3   OH225308   6.050   4.224   7.115 -0.0219 -0.5399  0.6509
 1250TIP3    H125309   6.111   4.225   7.041 -2.4306 -1.7694 -1.5273
 1250TIP3    H225310   6.077   4.149   7.168  1.7753  0.3893  1.1098
 1251TIP3   OH225311   5.957   2.155   0.078 -0.0164  0.6176  0.1448
 1251TIP3    H125312   5.866   2.162   0.050 -0.1419 -0.8536  0.1139
 1251TIP3    H225313   6.007   2.163  -0.003 -0.1039  1.4167  0.1606
 1252TIP3   OH225314   4.730   6.230   7.202  0.3736  0.0693  0.2958
 1252TIP3    H125315   4.693   6.243   7.115 -0.8932 -0.2073  0.7653
 1252TIP3    H225316   4.791   6.303   7.214 -0.0579  0.5691 -0.4967
 1253TIP3   OH225317   4.966   2.743   0.698 -0.3877  0.5366 -0.0758
 1253TIP3    H125318   5.043   2.791   0.667 -0.2612  0.6088  0.3370
 1253TIP3    H225319   4.984   2.728   0.791  0.6365 -2.2199 -0.5898
 1254TIP3   OH225320   0.055   5.228   1.878  0.1512 -0.1749 -0.0317
 1254TIP3    H125321   0.105   5.308   1.863 -0.1887 -0.0796 -0.6832
 1254TIP3    H225322  -0.030   5.258   1.909 -0.5217 -0.1955 -1.7587
 1255TIP3   OH225323   5.318   5.383   8.129 -0.3412 -0.1501 -0.0462
 1255TIP3    H125324   5.321   5.307   8.071 -0.3783 -0.7795  0.7565
 1255TIP3    H225325   5.311   5.346   8.217  1.6425  0.7274  0.5310
 1256TIP3   OH225326   0.222   1.242   1.656  0.5789 -0.2172  0.4818
 1256TIP3    H125327   0.161   1.280   1.592  0.7976 -1.4332 -0.5030
 1256TIP3    H225328   0.276   1.182   1.604  1.2523 -0.6985  1.6974
 1257TIP3   OH225329   5.399   5.652   8.126 -0.2233  0.1747  0.5139
 1257TIP3    H125330   5.484   5.670   8.086 -1.0665  0.7520 -1.1098
 1257TIP3    H225331   5.392   5.556   8.126  0.1740  0.1442  0.0796
 1258TIP3   OH225332   1.832   6.398   0.627  0.3586 -0.2317 -0.3241
 1258TIP3    H125333   1.788   6.428   0.706 -1.0250 -0.8719 -0.8131
 1258TIP3    H225334   1.856   6.308   0.645 -0.4760 -0.5672 -0.8053
 1259TIP3   OH225335   4.689   4.012   2.062 -0.2580  0.0122 -0.1934
 1259TIP3    H125336   4.637   3.987   1.986  1.1592 -0.0057 -1.2060
 1259TIP3    H225337   4.635   4.075   2.109 -1.0693  0.2099 -1.3462
 1260TIP3   OH225338   2.071   1.414   8.449 -0.0822  0.2013 -0.3669
 1260TIP3    H125339   2.015   1.464   8.508 -1.4615 -0.0275 -1.4349
 1260TIP3    H225340   2.015   1.394   8.374  1.5739  0.3534 -1.6916
 1261TIP3   OH225341   0.306   3.206   7.743 -0.3767  0.0408 -0.0694
 1261TIP3    H125342   0.349   3.232   7.824  0.6705  0.0009 -0.5989
 1261TIP3    H225343   0.213   3.201   7.766 -0.2767  1.4447  0.7509
 1262TIP3   OH225344   5.448   6.221   1.161  0.0215  0.5687  0.3605
 1262TIP3    H125345   5.378   6.177   1.210  1.0191 -1.6268 -0.1010
 1262TIP3    H225346   5.413   6.230   1.073  0.1505 -0.1245  0.2368
 1263TIP3   OH225347   2.458   4.999   2.430 -0.0738  0.6806  0.2093
 1263TIP3    H125348   2.525   4.953   2.481 -0.4562  1.1257  1.1420
 1263TIP3    H225349   2.410   5.051   2.495 -0.8559  0.9318 -0.5473
 1264TIP3   OH225350   3.592   4.050   6.666 -0.5859  0.2201 -0.3874
 1264TIP3    H125351   3.628   4.048   6.577  0.0978  0.9263 -0.1358
 1264TIP3    H225352   3.666   4.026   6.722  0.0750  3.3565  0.2831
 1265TIP3   OH225353   1.156   0.074   7.825  0.2235 -0.8369  0.1371
 1265TIP3    H125354   1.154  -0.003   7.769 -1.2874  0.0677 -1.1229
 1265TIP3    H225355   1.206   0.139   7.776 -0.0038 -0.4403  0.4254
 1266TIP3   OH225356   2.298   3.682   7.181  0.1300  0.0265 -0.0956
 1266TIP3    H125357   2.373   3.649   7.230  0.2369  1.3229  0.6681
 1266TIP3    H225358   2.246   3.730   7.245 -1.3620 -0.8082 -0.6160
 1267TIP3   OH225359   0.341   1.018   8.264 -0.1264 -0.1777  0.5126
 1267TIP3    H125360   0.337   1.091   8.202  0.2424  0.6131  1.3944
 1267TIP3    H225361   0.324   0.941   8.210  1.6066  0.3126 -0.8636
 1268TIP3   OH225362   0.982   2.523   0.579  0.3216  0.0954  0.6015
 1268TIP3    H125363   1.000   2.431   0.600  0.3165 -0.1718 -0.5387
 1268TIP3    H225364   1.066   2.558   0.551  0.2049  0.2821  0.4847
 1269TIP3   OH225365   6.231   2.319   7.041  0.2097 -0.5136 -0.0077
 1269TIP3    H125366   6.153   2.267   7.061  1.3624 -2.5501 -0.5574
 1269TIP3    H225367   6.213   2.356   6.954 -0.3177 -0.6121  0.0580
 1270TIP3   OH225368   1.116   3.930   2.372 -0.4876  0.4610  0.0308
 1270TIP3    H125369   1.125   3.931   2.277  0.2230  2.3201  0.0858
 1270TIP3    H225370   1.206   3.932   2.405 -0.7181 -0.4817  0.7708
 1271TIP3   OH225371   1.606   2.873   7.587 -0.8480 -0.6300  0.1227
 1271TIP3    H125372   1.645   2.802   7.535 -0.3626 -0.9479  0.9092
 1271TIP3    H225373   1.547   2.918   7.525  0.2946 -0.5134 -0.9219
 1272TIP3   OH225374   4.990   1.993   7.118  0.1522 -0.0389 -0.1691
 1272TIP3    H125375   4.962   1.929   7.052  0.6414 -0.2951 -0.1303
 1272TIP3    H225376   4.956   1.959   7.200 -0.5821  0.3539 -0.2926
 1273TIP3   OH225377   1.118   0.984   8.343  0.3539 -0.1057 -0.2219
 1273TIP3    H125378   1.140   1.044   8.415  0.0403 -0.9961  0.6377
 1273TIP3    H225379   1.191   0.991   8.283  1.6769 -0.9164  1.2206
 1274TIP3   OH225380   1.810   1.132   0.862 -0.4581 -0.1683 -0.5591
 1274TIP3    H125381   1.791   1.045   0.827  2.1765 -1.8252  1.6198
 1274TIP3    H225382   1.888   1.160   0.814  0.4886 -0.4583  0.7238
 1275TIP3   OH225383   3.987   4.468   0.369 -0.0150  0.1083 -0.1334
 1275TIP3    H125384   4.080   4.489   0.363  0.0611  0.2130  1.2107
 1275TIP3    H225385   3.945   4.553   0.379 -0.3411  0.1207 -1.4012
 1276TIP3   OH225386   0.829   0.592   2.021  0.4398  0.0822  0.2937
 1276TIP3    H125387   0.811   0.680   2.054  0.8127 -0.1020  1.0023
 1276TIP3    H225388   0.742   0.551   2.014  0.3220  0.2745  0.6148
 1277TIP3   OH225389   4.779   0.610   2.487 -0.2248  0.5053 -0.1230
 1277TIP3    H125390   4.828   0.557   2.424 -0.1370 -0.4641  0.7324
 1277TIP3    H225391   4.697   0.561   2.501 -0.7163  1.2656 -0.2932
 1278TIP3   OH225392   2.965   3.626   0.102 -0.1826 -0.2740 -0.0502
 1278TIP3    H125393   3.018   3.686   0.049  0.5703  0.6807  1.7048
 1278TIP3    H225394   2.939   3.557   0.041  2.2243 -0.2441 -1.2192
 1279TIP3   OH225395   3.231   2.503   1.059  0.2865 -0.1260  0.5058
 1279TIP3    H125396   3.274   2.553   0.990  0.4783  0.1292  0.8095
 1279TIP3    H225397   3.179   2.437   1.012  0.9605 -0.3961  0.1367
 1280TIP3   OH225398   1.963   1.289   7.483 -0.2959  0.2450  0.0309
 1280TIP3    H125399   1.957   1.276   7.578  0.3916 -1.2813 -0.1080
 1280TIP3    H225400   1.878   1.264   7.449  0.3916 -2.2809 -0.0229
 1281TIP3   OH225401   2.922   5.633   6.797  0.1341 -0.0551 -0.0170
 1281TIP3    H125402   2.844   5.578   6.811 -0.1675  1.1003  4.0338
 1281TIP3    H225403   2.890   5.707   6.747 -0.9557 -0.4813  0.0078
 1282TIP3   OH225404   6.522   5.083   2.003 -0.0798  0.1892 -0.8849
 1282TIP3    H125405   6.604   5.065   1.957 -0.9825 -2.3779 -1.6917
 1282TIP3    H225406   6.480   4.997   2.012 -1.6523  1.0904  1.5347
 1283TIP3   OH225407   5.416   0.497   1.486  0.1784  0.9616 -0.3354
 1283TIP3    H125408   5.498   0.547   1.477 -0.0178  0.9943 -2.7840
 1283TIP3    H225409   5.417   0.437   1.411 -1.0808 -0.5191  0.7829
 1284TIP3   OH225410   5.154   0.559   1.534  0.4074  0.3421  0.2521
 1284TIP3    H125411   5.242   0.554   1.497 -0.7382 -0.8596 -2.5851
 1284TIP3    H225412   5.139   0.472   1.572 -0.2439 -0.1773 -1.1264
 1285TIP3   OH225413   1.967   5.461   0.933 -0.0958  0.1171  0.1338
 1285TIP3    H125414   1.874   5.466   0.957 -0.0558 -2.5471  1.2810
 1285TIP3    H225415   2.012   5.443   1.016  1.6503  2.5213 -0.1909
 1286TIP3   OH225416   3.467   5.534   1.628 -0.1646  0.3709 -0.3291
 1286TIP3    H125417   3.393   5.521   1.569 -1.9237 -0.9979  1.9835
 1286TIP3    H225418   3.456   5.624   1.660  0.1751  0.7381 -1.2000
 1287TIP3   OH225419   5.306   1.138   7.185  0.0170 -0.3755 -0.5482
 1287TIP3    H125420   5.256   1.145   7.104  0.6664 -1.2126 -1.0371
 1287TIP3    H225421   5.266   1.066   7.233  0.1633 -0.4421 -0.5237
 1288TIP3   OH225422   1.366   5.367   7.320 -0.0050  0.5085 -0.3346
 1288TIP3    H125423   1.446   5.316   7.326 -0.8781 -0.8689  0.2785
 1288TIP3    H225424   1.338   5.358   7.229  0.7936  1.4479 -0.6892
 1289TIP3   OH225425   4.225   6.170   6.665  0.4940 -0.2262  0.1406
 1289TIP3    H125426   4.157   6.121   6.712  0.7601 -1.4511 -0.7180
 1289TIP3    H225427   4.180   6.247   6.631  0.0402  0.1048  1.4161
 1290TIP3   OH225428   0.604   6.359   7.559  0.4540  0.5948 -0.1615
 1290TIP3    H125429   0.575   6.435   7.509 -0.5092  0.2153 -0.1987
 1290TIP3    H225430   0.675   6.393   7.615  0.4573  1.3741 -0.6206
 1291TIP3   OH225431   4.243   4.349   8.281  0.6554  0.1404  0.3572
 1291TIP3    H125432   4.280   4.421   8.332  0.6907  0.9835 -0.8252
 1291TIP3    H225433   4.187   4.392   8.216  0.1567 -0.9372  0.0575
 1292TIP3   OH225434   2.336   2.494   0.456 -0.3890  0.2432 -0.3269
 1292TIP3    H125435   2.303   2.405   0.442 -0.7657 -0.1356  2.4099
 1292TIP3    H225436   2.425   2.493   0.420  0.1847 -1.7382  1.0128
 1293TIP3   OH225437   1.997   4.282   1.959  0.1920 -0.1941 -0.0354
 1293TIP3    H125438   2.009   4.373   1.987  0.2725  0.5294 -2.2533
 1293TIP3    H225439   2.083   4.242   1.972  0.3461  0.2337  0.2965
 1294TIP3   OH225440   4.172   2.521   1.224 -0.1732  0.6430 -0.3092
 1294TIP3    H125441   4.076   2.516   1.223 -0.1396 -0.7768  1.0615
 1294TIP3    H225442   4.191   2.614   1.233 -1.5046  0.7402  2.4853
 1295TIP3   OH225443   4.855   0.484   2.265 -0.1249 -0.2369 -0.3943
 1295TIP3    H125444   4.791   0.497   2.195 -0.2332 -1.8456 -0.6179
 1295TIP3    H225445   4.938   0.475   2.220 -0.0136 -0.0741 -0.2233
 1296TIP3   OH225446   4.584   1.372   0.757  0.1866  0.3124 -0.0234
 1296TIP3    H125447   4.490   1.387   0.753 -0.1517 -1.7003 -0.7432
 1296TIP3    H225448   4.623   1.459   0.745 -1.5522  1.3246  1.2648
 1297TIP3   OH225449   1.508   6.205   1.121  0.0632  0.5902  1.0726
 1297TIP3    H125450   1.507   6.275   1.056  0.1996 -0.7878 -0.4727
 1297TIP3    H225451   1.599   6.203   1.153  0.8742 -0.7756 -1.0902
 1298TIP3   OH225452   1.840   1.817   1.510  0.5462 -0.2282 -0.3029
 1298TIP3    H125453   1.819   1.904   1.545 -0.0820 -0.0366 -1.1369
 1298TIP3    H225454   1.756   1.782   1.481  0.9760 -0.5995 -1.1380
 1299TIP3   OH225455   0.330   3.618   7.157 -0.0429  0.2046 -0.3337
 1299TIP3    H125456   0.410   3.668   7.177 -0.6724  2.5691 -3.1136
 1299TIP3    H225457   0.355   3.527   7.170  3.2623  0.8151 -1.4694
 1300TIP3   OH225458   4.547   2.293   0.790  0.0815  0.1840  0.1367
 1300TIP3    H125459   4.500   2.266   0.869  0.3779 -0.1772  0.1969
 1300TIP3    H225460   4.565   2.211   0.744  2.4146  0.0596  1.1121
 1301TIP3   OH225461   6.754   1.891   2.286 -0.0947  0.7393  0.7776
 1301TIP3    H125462   6.732   1.798   2.285 -0.2283  0.7596 -0.3673
 1301TIP3    H225463   6.770   1.911   2.378 -0.1900 -0.3814  1.0591
 1302TIP3   OH225464   1.049   1.978   8.428  0.0840 -0.0748  0.4546
 1302TIP3    H125465   1.001   1.936   8.500 -0.1944  1.7099  1.3784
 1302TIP3    H225466   1.138   1.987   8.461  1.2767 -3.6820 -1.3844
 1303TIP3   OH225467   4.152   4.771   7.639  0.2109  0.1088 -0.0390
 1303TIP3    H125468   4.224   4.742   7.694  0.6476  0.2794 -0.5119
 1303TIP3    H225469   4.162   4.721   7.558 -0.3514 -0.0486 -0.0167
 1304TIP3   OH225470   1.081   4.225   0.289 -0.1629 -0.8342 -0.4021
 1304TIP3    H125471   1.056   4.253   0.202 -0.0472 -0.3688 -0.2843
 1304TIP3    H225472   1.133   4.297   0.324 -1.8998 -0.1063  0.8250
 1305TIP3   OH225473   1.153   6.452   8.143  0.9531  0.2287  0.0808
 1305TIP3    H125474   1.151   6.500   8.061  1.8884  0.8931  0.4242
 1305TIP3    H225475   1.197   6.511   8.204 -1.2869  0.4908  1.5453
 1306TIP3   OH225476   6.902   5.182   2.547  0.1881 -0.1925  0.0034
 1306TIP3    H125477   6.916   5.092   2.517  1.7835  0.7507 -2.3282
 1306TIP3    H225478   6.952   5.186   2.629 -0.6720 -1.6348  0.6551
 1307TIP3   OH225479   5.850   5.405   0.543 -0.3796  0.1275  0.3773
 1307TIP3    H125480   5.796   5.377   0.616  0.2487 -0.1643  0.7409
 1307TIP3    H225481   5.848   5.331   0.482  0.7395 -0.4895  1.0369
 1308TIP3   OH225482   6.833   0.040   1.094 -0.1484  0.7302  0.3476
 1308TIP3    H125483   6.859   0.047   1.186  0.4049  0.6343  0.2044
 1308TIP3    H225484   6.822  -0.054   1.079 -2.3663  0.8615  0.8748
 1309TIP3   OH225485   1.994   1.131   8.059 -0.3430 -0.1483 -0.4737
 1309TIP3    H125486   2.003   1.194   7.988 -0.7469  0.0753 -0.3289
 1309TIP3    H225487   2.069   1.072   8.049 -0.6384 -0.3824 -1.3540
 1310TIP3   OH225488   2.209   1.666   7.110  0.1364  0.0930  0.1503
 1310TIP3    H125489   2.163   1.729   7.054  0.3601 -0.3688 -0.5647
 1310TIP3    H225490   2.302   1.680   7.092  0.1637 -1.5299 -1.2828
 1311TIP3   OH225491   3.427   6.269   1.564 -0.2721 -0.4071  0.1024
 1311TIP3    H125492   3.410   6.304   1.651  0.7689 -0.7737  0.4642
 1311TIP3    H225493   3.379   6.186   1.562 -1.4192  0.2341 -0.1842
 1312TIP3   OH225494   3.480   0.015   0.281  0.0785 -0.5602 -0.2704
 1312TIP3    H125495   3.420   0.036   0.210 -1.4200 -2.6137  0.3061
 1312TIP3    H225496   3.425  -0.022   0.349  1.4523  1.2842  2.0263
 1313TIP3   OH225497   6.018   6.204   7.550 -0.6287  0.5548  0.1099
 1313TIP3    H125498   5.985   6.292   7.571 -1.1980  0.5252 -0.6291
 1313TIP3    H225499   5.940   6.154   7.527 -0.2135  0.1041 -0.3483
 1314TIP3   OH225500   5.461   2.696   0.072 -0.3717  0.0660 -0.0159
 1314TIP3    H125501   5.469   2.620   0.015 -2.2253 -0.9409  0.9769
 1314TIP3    H225502   5.440   2.769   0.012  0.2056 -0.4281 -0.8440
 1315TIP3   OH225503   5.482   6.668   0.079  0.0212  0.1645  0.4211
 1315TIP3    H125504   5.472   6.684   0.173  0.3811 -0.1512  0.5167
 1315TIP3    H225505   5.574   6.643   0.069  0.2623  1.2368 -0.1639
 1316TIP3   OH225506   5.586   6.154   2.297  0.1141  0.3937 -0.4940
 1316TIP3    H125507   5.602   6.186   2.208  1.5000  0.9182 -0.0854
 1316TIP3    H225508   5.515   6.209   2.330  0.5432  1.1474 -0.7999
 1317TIP3   OH225509   5.023   5.153   7.485 -0.5820  0.1228 -0.6982
 1317TIP3    H125510   5.021   5.094   7.410 -2.7210  1.2070 -1.5828
 1317TIP3    H225511   5.074   5.228   7.457  0.0730 -0.2213 -0.4401
 1318TIP3   OH225512   1.207   5.740   2.192 -0.2265 -0.4684 -0.6393
 1318TIP3    H125513   1.138   5.769   2.132 -0.6942  0.6144  0.3933
 1318TIP3    H225514   1.271   5.697   2.135 -0.8792  0.1113 -1.8531
 1319TIP3   OH225515   0.365   0.202   7.413  0.0290 -0.7142  0.2308
 1319TIP3    H125516   0.368   0.145   7.337  0.1508 -1.3274  0.6873
 1319TIP3    H225517   0.455   0.232   7.425 -0.0619 -0.3089 -0.0952
 1320TIP3   OH225518   0.101   1.177   6.511  0.0459 -0.6387 -0.4112
 1320TIP3    H125519   0.008   1.187   6.493  0.0741  0.0246 -0.2430
 1320TIP3    H225520   0.107   1.172   6.607  0.2070 -0.3542 -0.4044
 1321TIP3   OH225521   0.418   0.494   6.586  0.0469  0.5699 -0.4789
 1321TIP3    H125522   0.397   0.585   6.565  2.4101  1.2305 -0.3337
 1321TIP3    H225523   0.502   0.499   6.632 -1.1771 -1.4657  2.2280
 1322TIP3   OH225524   1.042   5.508   0.645 -0.2676  0.1263 -0.3735
 1322TIP3    H125525   1.043   5.439   0.578  0.0524 -0.8324  0.5820
 1322TIP3    H225526   1.113   5.485   0.704  0.2148  1.6177 -0.3291
 1323TIP3   OH225527   2.015   3.267   0.258 -0.4217 -0.1001  0.0335
 1323TIP3    H125528   2.110   3.281   0.264 -0.1937 -1.0125 -0.9507
 1323TIP3    H225529   1.987   3.323   0.185 -0.6287  0.1293  0.2903
 1324TIP3   OH225530   4.665   0.476   0.430  0.0501 -0.3337 -0.2853
 1324TIP3    H125531   4.618   0.411   0.482 -1.1348  0.4903 -0.2647
 1324TIP3    H225532   4.753   0.479   0.468 -1.0004  0.8821  2.3426
 1325TIP3   OH225533   4.414   3.901   0.990 -1.2220 -0.0681 -0.3144
 1325TIP3    H125534   4.410   3.870   1.080  1.0942 -2.1277 -0.8051
 1325TIP3    H225535   4.473   3.976   0.992  0.4360 -1.3088 -0.3053
 1326TIP3   OH225536   3.556   5.133   7.557 -0.0109  0.0564 -0.5684
 1326TIP3    H125537   3.497   5.137   7.483  0.9714 -1.9202 -1.5269
 1326TIP3    H225538   3.594   5.221   7.562 -0.1199  0.2468 -2.3983
 1327TIP3   OH225539   0.564   2.510   7.256  0.0467 -0.5266 -0.5265
 1327TIP3    H125540   0.584   2.471   7.171  0.4764 -3.0337  0.6396
 1327TIP3    H225541   0.617   2.460   7.319 -0.4060  1.1122  1.2507
 1328TIP3   OH225542   2.734   4.376   7.400 -0.0603  0.1295  0.1517
 1328TIP3    H125543   2.660   4.323   7.427  0.9053 -0.3992  1.8700
 1328TIP3    H225544   2.712   4.404   7.311 -0.5921 -3.1881 -0.9093
 1329TIP3   OH225545   6.518   5.160   0.916  0.2081  0.2256 -0.0940
 1329TIP3    H125546   6.554   5.184   1.001  1.1983  2.8935 -1.1532
 1329TIP3    H225547   6.579   5.094   0.882  1.4770  1.2494  0.1200
 1330TIP3   OH225548   2.938   4.967   7.047 -0.3158  0.3076  0.2739
 1330TIP3    H125549   2.955   4.929   7.133 -0.8671 -0.2990  0.1240
 1330TIP3    H225550   2.903   4.894   6.995 -1.5888  1.0599  0.0363
 1331TIP3   OH225551   0.326   0.680   1.853  0.2814 -0.6922  0.5958
 1331TIP3    H125552   0.254   0.656   1.911 -1.3211 -0.5362 -1.2546
 1331TIP3    H225553   0.318   0.621   1.778  0.9981  0.4842 -0.4516
 1332TIP3   OH225554   0.534   3.522   1.444  0.2592  0.3216  0.6892
 1332TIP3    H125555   0.546   3.593   1.381  2.1303 -0.2079  0.3537
 1332TIP3    H225556   0.547   3.562   1.530 -0.2071  0.6608  0.6005
 1333TIP3   OH225557   1.220   6.771   1.629 -0.0813  0.1534 -0.1538
 1333TIP3    H125558   1.306   6.756   1.590 -0.6799 -2.4882 -0.7033
 1333TIP3    H225559   1.162   6.784   1.554 -0.6146 -1.2257 -0.0238
 1334TIP3   OH225560   3.310   2.370   8.533  0.4718  0.1141 -0.7166
 1334TIP3    H125561   3.224   2.408   8.519  0.0853  0.7374  2.4327
 1334TIP3    H225562   3.366   2.410   8.467 -0.9486  2.4719 -0.5904
 1335TIP3   OH225563   3.424   3.257   0.569 -0.0371  0.0701  0.1225
 1335TIP3    H125564   3.494   3.201   0.602 -1.2113  0.1969  3.2172
 1335TIP3    H225565   3.430   3.337   0.623 -0.9194  1.2050 -1.3910
 1336TIP3   OH225566   0.583   0.188   6.992 -0.1948  0.2449  0.1797
 1336TIP3    H125567   0.518   0.225   6.932 -0.7440  0.7577  1.0622
 1336TIP3    H225568   0.645   0.142   6.936 -1.5957 -0.7018 -0.6787
 1337TIP3   OH225569   0.372   4.980   0.190 -0.0084  0.4367  0.6053
 1337TIP3    H125570   0.431   4.915   0.152 -0.5050 -0.5574  1.4737
 1337TIP3    H225571   0.285   4.957   0.156 -0.2602  0.3242  1.3035
 1338TIP3   OH225572   3.160   3.597   6.301 -0.6685  0.2344 -0.1585
 1338TIP3    H125573   3.215   3.568   6.229  0.5842  1.4421  0.2759
 1338TIP3    H225574   3.120   3.678   6.270 -1.2096  0.0321 -0.0009
 1339TIP3   OH225575   6.572   4.288   2.499 -0.1264 -0.2568 -0.4205
 1339TIP3    H125576   6.481   4.306   2.476 -0.4756 -2.4102 -0.9404
 1339TIP3    H225577   6.573   4.195   2.524  2.3219 -1.0106 -2.7856
 1340TIP3   OH225578   1.466   1.145   0.265  0.6851  0.0665 -0.2130
 1340TIP3    H125579   1.514   1.111   0.189 -0.3370  2.9160 -2.2695
 1340TIP3    H225580   1.535   1.177   0.324  1.4588  0.8616 -1.4981
 1341TIP3   OH225581   6.695   5.779   6.363 -0.0391 -0.5710 -0.5334
 1341TIP3    H125582   6.760   5.801   6.430 -0.4577  1.0771 -0.6058
 1341TIP3    H225583   6.705   5.685   6.349  1.2551 -0.6311  0.5715
 1342TIP3   OH225584   3.254   5.695   1.192 -0.1772 -0.2033  0.0413
 1342TIP3    H125585   3.172   5.733   1.160  0.1205  0.1922 -0.2673
 1342TIP3    H225586   3.243   5.601   1.179 -2.0508 -0.5897  3.3728
 1343TIP3   OH225587   3.112   5.009   0.697 -0.3685  0.0606  0.0572
 1343TIP3    H125588   3.058   4.955   0.638  0.7286 -1.2065  0.1747
 1343TIP3    H225589   3.201   4.998   0.664  0.0322  0.7914  0.8825
 1344TIP3   OH225590   3.058   4.836   7.544  0.2039  0.1160  0.4538
 1344TIP3    H125591   3.050   4.855   7.451  2.7087  0.0425  0.1605
 1344TIP3    H225592   2.971   4.853   7.580 -0.8578 -0.0155 -1.9054
 1345TIP3   OH225593   1.434   5.705   1.622  0.3826 -0.0926  0.4969
 1345TIP3    H125594   1.423   5.629   1.679 -0.6936 -0.0743  0.3308
 1345TIP3    H225595   1.526   5.700   1.593  0.7953 -0.3777  1.8154
 1346TIP3   OH225596   1.284   0.268   7.697 -0.5513 -0.1333 -0.1948
 1346TIP3    H125597   1.344   0.281   7.624 -2.5702 -0.7993 -2.0802
 1346TIP3    H225598   1.253   0.356   7.720 -0.1758  0.0492 -0.3905
 1347TIP3   OH225599   1.932   3.068   1.708  0.3960 -0.2939 -0.7453
 1347TIP3    H125600   1.963   3.137   1.649 -1.4118  2.2041  1.0174
 1347TIP3    H225601   1.840   3.056   1.682  0.6398 -1.9858 -0.9097
 1348TIP3   OH225602   2.531   5.660   1.161  0.3802 -0.3822 -0.0268
 1348TIP3    H125603   2.516   5.566   1.167 -1.1427 -0.1823 -0.3396
 1348TIP3    H225604   2.603   5.668   1.099 -0.1966 -1.3046 -0.8496
 1349TIP3   OH225605   1.056   1.337   7.149 -0.1321  0.5724 -1.1640
 1349TIP3    H125606   1.048   1.313   7.056 -1.0824 -1.8247 -0.5298
 1349TIP3    H225607   0.995   1.279   7.194 -0.7587  2.6479  0.8711
 1350TIP3   OH225608   2.526   1.077   7.732  0.0040  0.1844  0.2187
 1350TIP3    H125609   2.610   1.122   7.742  0.1054  0.4635 -1.5027
 1350TIP3    H225610   2.507   1.083   7.638 -1.7797 -0.1764  0.5212
 1351TIP3   OH225611   6.190   6.771   1.552 -0.6332 -0.2716 -0.2846
 1351TIP3    H125612   6.130   6.839   1.583  0.3792  0.7941 -0.5934
 1351TIP3    H225613   6.276   6.812   1.556 -0.0425 -1.4290 -0.8244
 1352TIP3   OH225614   1.939   0.977   2.552 -0.0473 -0.2247 -0.0045
 1352TIP3    H125615   1.858   0.960   2.504  0.9347 -1.7846 -1.2278
 1352TIP3    H225616   1.972   0.890   2.574  1.6034  0.3554 -0.0556
 1353TIP3   OH225617   3.309   1.770   0.283  0.2030  0.4098  0.3166
 1353TIP3    H125618   3.395   1.808   0.298  0.3403  0.4690 -0.5872
 1353TIP3    H225619   3.249   1.828   0.330  0.4993  1.2324 -0.3067
 1354TIP3   OH225620   1.292   6.285   1.260  0.7369 -0.5500 -0.0805
 1354TIP3    H125621   1.262   6.373   1.237  1.6500 -0.3428 -0.5244
 1354TIP3    H225622   1.372   6.273   1.208  0.0522 -2.0447 -0.8297
 1355TIP3   OH225623   1.001   5.774   1.902 -0.2706  0.4055  0.3039
 1355TIP3    H125624   1.090   5.740   1.910 -0.8146 -0.6866  2.4924
 1355TIP3    H225625   0.964   5.726   1.828  1.0978  1.3266 -1.0475
 1356TIP3   OH225626   1.253   1.744   0.118  0.1936 -0.5565 -0.5496
 1356TIP3    H125627   1.340   1.713   0.144  0.5021  0.6663 -0.0801
 1356TIP3    H225628   1.200   1.664   0.112  1.7991 -1.5752 -2.7667
 1357TIP3   OH225629   4.646   3.801   1.226 -0.0926 -0.3341  0.1636
 1357TIP3    H125630   4.556   3.809   1.256  0.0339 -1.0748  0.7742
 1357TIP3    H225631   4.676   3.892   1.215 -0.2780 -0.0134  1.9270
 1358TIP3   OH225632   5.705   1.116   8.439 -0.3599 -0.5874  0.3913
 1358TIP3    H125633   5.775   1.104   8.503  0.9581 -1.4853 -1.1503
 1358TIP3    H225634   5.730   1.061   8.365 -2.5275 -0.6464 -0.3667
 1359TIP3   OH225635   6.276   3.642   7.765  0.6282  0.2911  0.0048
 1359TIP3    H125636   6.316   3.706   7.824 -0.0242  0.2109  0.5483
 1359TIP3    H225637   6.196   3.684   7.734  1.1406  0.4706 -1.1150
 1360TIP3   OH225638   6.611   2.413   1.196  0.4478 -0.7335  0.1978
 1360TIP3    H125639   6.568   2.451   1.272 -1.4892 -1.4421 -0.4783
 1360TIP3    H225640   6.634   2.324   1.223  1.2954 -0.4369  0.4778
 1361TIP3   OH225641   0.020   4.419   1.378 -0.2603  0.3745 -0.1207
 1361TIP3    H125642  -0.037   4.368   1.320 -2.0212  1.0107  1.0062
 1361TIP3    H225643  -0.039   4.472   1.431  1.1960 -0.7050  2.8165
 1362TIP3   OH225644   0.965   0.140   0.550  0.6641 -0.6397  0.2693
 1362TIP3    H125645   1.013   0.218   0.579  0.0282  0.3944 -1.3482
 1362TIP3    H225646   1.026   0.067   0.567  2.4173  0.5175 -0.7831
 1363TIP3   OH225647   1.009   3.764   8.086  0.1145 -0.1535 -0.0630
 1363TIP3    H125648   1.042   3.854   8.096 -1.1248  0.2408  0.7852
 1363TIP3    H225649   1.006   3.749   7.992 -1.2074  1.3161 -0.2923
 1364TIP3   OH225650   5.938   2.207   0.439  0.6693  0.0299  0.0229
 1364TIP3    H125651   6.023   2.221   0.399  1.0208  0.2200  0.8259
 1364TIP3    H225652   5.914   2.117   0.415  0.6159  0.3098 -1.0556
 1365TIP3   OH225653   5.921   0.545   0.984 -0.0076 -0.0339  0.1067
 1365TIP3    H125654   5.871   0.613   0.938 -0.4841 -0.5546 -0.1659
 1365TIP3    H225655   5.940   0.582   1.070  0.2679  0.6785 -0.2550
 1366TIP3   OH225656   4.939   1.182   0.937 -0.3420  0.5473  0.5749
 1366TIP3    H125657   4.871   1.117   0.956 -1.9210  1.5274 -1.3562
 1366TIP3    H225658   4.916   1.257   0.993  0.4721  0.1047  1.5310
 1367TIP3   OH225659   5.144   3.301   7.133 -0.1626  0.3417  0.0902
 1367TIP3    H125660   5.170   3.267   7.048  1.4346  0.1150  0.6293
 1367TIP3    H225661   5.061   3.258   7.152  0.2989 -0.9088 -0.6129
 1368TIP3   OH225662   0.365   2.415   6.848 -0.6049 -0.1320 -0.2044
 1368TIP3    H125663   0.278   2.432   6.884 -0.7770  0.7188 -0.9640
 1368TIP3    H225664   0.351   2.352   6.778 -0.8960  1.3033 -1.4864
 1369TIP3   OH225665   0.627   5.412   0.606 -0.5664 -0.3847 -0.1829
 1369TIP3    H125666   0.638   5.324   0.569 -2.2166 -0.8046  0.2627
 1369TIP3    H225667   0.533   5.426   0.609 -0.3591  1.1749  0.3349
 1370TIP3   OH225668   1.690   2.022   0.248 -0.6071 -0.0412  0.2475
 1370TIP3    H125669   1.654   1.935   0.235 -0.6185 -0.0114  0.0749
 1370TIP3    H225670   1.784   2.011   0.239 -0.6270  0.0077 -0.0191
 1371TIP3   OH225671   5.970   2.764   0.844 -0.2304  0.3983 -0.3039
 1371TIP3    H125672   6.057   2.759   0.804 -0.9191  0.5091 -1.8965
 1371TIP3    H225673   5.955   2.678   0.881  0.6430  0.4462  0.1867
 1372TIP3   OH225674   5.257   6.322   7.858 -0.2773 -0.2601 -0.1031
 1372TIP3    H125675   5.301   6.360   7.782 -0.0738  0.2502  0.2624
 1372TIP3    H225676   5.227   6.236   7.828 -0.0801 -0.1214 -0.7161
 1373TIP3   OH225677   1.766   0.612   7.375 -0.2930 -0.6787 -1.2944
 1373TIP3    H125678   1.695   0.635   7.434  0.8721 -2.0064  0.7166
 1373TIP3    H225679   1.829   0.683   7.385  0.4049 -1.4546 -0.0458
 1374TIP3   OH225680   5.673   0.313   0.443  0.2660 -0.2627  0.4935
 1374TIP3    H125681   5.679   0.218   0.455 -0.0068 -0.3509 -0.0165
 1374TIP3    H225682   5.655   0.324   0.349 -3.2871  0.1345  1.0991
 1375TIP3   OH225683   6.075   6.092   1.330  0.2125  0.7917  0.1025
 1375TIP3    H125684   6.019   6.021   1.359  0.8659  0.2878  0.1614
 1375TIP3    H225685   6.096   6.141   1.409 -1.1908  1.7727 -0.0969
 1376TIP3   OH225686   2.976   2.928   1.396  0.2245 -0.2670 -0.1524
 1376TIP3    H125687   2.915   2.874   1.346 -0.2670 -1.2497  1.4248
 1376TIP3    H225688   2.976   2.889   1.483  0.8146  1.5438  0.7053
 1377TIP3   OH225689   1.409   5.868   0.334  0.2662 -0.0872 -0.7686
 1377TIP3    H125690   1.332   5.921   0.313 -0.1622  1.2470  3.3054
 1377TIP3    H225691   1.373   5.790   0.375  0.9884  0.4053  0.8817
 1378TIP3   OH225692   0.779   4.065   6.868 -0.6224  0.0507 -0.0190
 1378TIP3    H125693   0.695   4.063   6.914 -0.5958  0.8451  0.0830
 1378TIP3    H225694   0.840   4.021   6.928 -0.9612 -0.5205 -0.0890
 1379TIP3   OH225695   4.692   4.626   0.698 -0.0051  0.1625 -0.1975
 1379TIP3    H125696   4.661   4.577   0.774 -0.3253  0.2101 -0.2946
 1379TIP3    H225697   4.630   4.699   0.690  0.5403  0.6524  0.0212
 1380TIP3   OH225698   5.048   5.260   7.099 -0.5652 -0.6511 -0.3157
 1380TIP3    H125699   4.966   5.296   7.065 -0.7636  0.2915  1.0467
 1380TIP3    H225700   5.098   5.235   7.022 -1.5382  0.1495 -1.2284
 1381TIP3   OH225701   6.224   0.909   8.413 -0.3630 -0.3024  0.0931
 1381TIP3    H125702   6.248   0.991   8.370 -1.6591  1.0822  1.8166
 1381TIP3    H225703   6.173   0.861   8.348  1.0612 -0.1105 -1.1995
 1382TIP3   OH225704   4.918   6.874   0.041  0.1290 -0.3165 -0.6456
 1382TIP3    H125705   4.863   6.801   0.069 -0.4344  0.1083 -0.6368
 1382TIP3    H225706   5.005   6.852   0.074 -0.2848 -0.3865  0.4263
 1383TIP3   OH225707   3.635   4.692   8.032 -0.1951  0.8378 -0.3192
 1383TIP3    H125708   3.624   4.777   8.073 -0.7754  0.5433  0.1558
 1383TIP3    H225709   3.653   4.632   8.104 -1.6244  0.2473 -0.4175
 1384TIP3   OH225710   6.348   2.153   1.807 -0.0764  0.2399 -0.5575
 1384TIP3    H125711   6.278   2.149   1.741 -0.0863 -0.0734 -0.5317
 1384TIP3    H225712   6.317   2.217   1.871 -0.2271  0.2885 -0.6787
 1385TIP3   OH225713   2.242   1.245   1.665 -0.0352  0.5254 -0.6418
 1385TIP3    H125714   2.203   1.282   1.586  1.1578  0.4227 -1.3001
 1385TIP3    H225715   2.262   1.321   1.720  2.5149  0.9524 -2.0393
 1386TIP3   OH225716   0.249   0.910   2.138  0.3346 -0.6760 -0.3172
 1386TIP3    H125717   0.310   0.946   2.202  0.3941  1.6583 -1.5575
 1386TIP3    H225718   0.186   0.861   2.190  0.5586  0.8509  1.5250
 1387TIP3   OH225719   2.766   6.841   1.287  0.2199 -0.6318 -0.1290
 1387TIP3    H125720   2.712   6.767   1.259 -1.0655  0.2242 -0.0057
 1387TIP3    H225721   2.849   6.830   1.241 -0.7703 -0.8925 -1.9173
 1388TIP3   OH225722   6.313   3.831   1.862  0.0127  0.2587 -0.5652
 1388TIP3    H125723   6.380   3.802   1.800  2.6665  2.0446  1.2220
 1388TIP3    H225724   6.340   3.795   1.946 -1.3753  0.9276  0.2083
 1389TIP3   OH225725   3.204   2.388   1.855  0.0357 -0.0903 -0.1024
 1389TIP3    H125726   3.221   2.482   1.852 -0.8581  0.0538 -1.1181
 1389TIP3    H225727   3.243   2.359   1.938 -3.3036  1.9323  2.4483
 1390TIP3   OH225728   0.931   1.946   8.166 -0.2652  0.1781  0.0020
 1390TIP3    H125729   0.943   2.012   8.098 -2.1265  0.1805 -0.3826
 1390TIP3    H225730   0.977   1.982   8.242  0.1965  1.0950 -0.6816
 1391TIP3   OH225731   2.149   0.834   0.372  1.2572 -0.1041 -0.0942
 1391TIP3    H125732   2.152   0.868   0.282  0.8519 -0.1942 -0.1438
 1391TIP3    H225733   2.196   0.751   0.367 -0.4233 -1.0668 -0.6613
 1392TIP3   OH225734   3.584   1.480   7.310  0.2232  0.0447 -0.1621
 1392TIP3    H125735   3.635   1.516   7.383 -0.2993 -0.0360  0.2515
 1392TIP3    H225736   3.513   1.433   7.352 -0.8617  1.1267 -0.7219
 1393TIP3   OH225737   3.782   5.474   8.038 -0.2946 -0.5484 -0.3244
 1393TIP3    H125738   3.731   5.399   8.006 -1.0173 -0.3179  0.2534
 1393TIP3    H225739   3.760   5.480   8.131  2.3161 -1.6314  0.4388
 1394TIP3   OH225740   3.992   4.979   6.587 -0.2009 -0.6486 -0.3543
 1394TIP3    H125741   3.951   5.055   6.628  2.0785  0.2896  0.3612
 1394TIP3    H225742   3.986   4.995   6.493  1.3580  1.1135 -0.2105
 1395TIP3   OH225743   4.067   2.868   8.224 -0.1511  0.2428  0.4069
 1395TIP3    H125744   4.073   2.789   8.277 -1.3965 -0.1841 -0.0598
 1395TIP3    H225745   4.154   2.878   8.186 -0.1200 -1.2383  0.0237
 1396TIP3   OH225746   2.482   6.150   2.911 -0.2329 -0.0654  0.2873
 1396TIP3    H125747   2.436   6.203   2.846 -1.8734 -1.2941  0.3901
 1396TIP3    H225748   2.412   6.112   2.965  0.9771 -0.9154  1.3174
 1397TIP3   OH225749   3.563   4.307   7.838  0.0383  0.3803 -0.1791
 1397TIP3    H125750   3.528   4.262   7.915  0.0261 -1.1251 -1.0205
 1397TIP3    H225751   3.560   4.241   7.768  0.4278  1.5770 -1.3722
 1398TIP3   OH225752   3.913   2.341   8.158 -0.2765 -0.1378  0.1200
 1398TIP3    H125753   3.827   2.362   8.123 -0.8655  0.2416  1.7014
 1398TIP3    H225754   3.896   2.286   8.235  0.9241 -0.5793  0.1029
 1399TIP3   OH225755   6.405   4.856   0.903  0.1164  0.0558 -0.3232
 1399TIP3    H125756   6.428   4.791   0.969 -0.8299  1.1264  1.1196
 1399TIP3    H225757   6.487   4.903   0.886  0.4348 -0.4335 -0.1559
 1400TIP3   OH225758   0.738   3.572   0.294 -0.1153 -0.0291 -0.2813
 1400TIP3    H125759   0.651   3.598   0.324  0.5143  1.4791  0.3615
 1400TIP3    H225760   0.769   3.511   0.361 -0.4240 -0.0667 -0.1705
 1401TIP3   OH225761   2.898   4.582   1.359  0.2861  0.8640 -0.2375
 1401TIP3    H125762   2.838   4.512   1.382 -0.5716  1.2982 -1.0467
 1401TIP3    H225763   2.970   4.539   1.312  0.4944  0.3667  0.5335
 1402TIP3   OH225764   2.868   3.641   8.249  0.0229  0.0464 -0.2742
 1402TIP3    H125765   2.942   3.581   8.239 -0.2993 -0.3113 -0.5250
 1402TIP3    H225766   2.863   3.686   8.165 -1.4389 -1.5337 -1.0823
 1403TIP3   OH225767   4.691   4.669   1.275 -0.4479 -0.1701  0.1950
 1403TIP3    H125768   4.633   4.594   1.262 -0.3235 -0.3510  0.6557
 1403TIP3    H225769   4.656   4.713   1.353 -2.0972  1.7541 -1.5240
 1404TIP3   OH225770   0.776   0.292   8.004  0.4808 -0.0590 -0.6443
 1404TIP3    H125771   0.761   0.209   8.051 -0.2363  0.1126 -0.5523
 1404TIP3    H225772   0.709   0.351   8.039  1.7739  0.9591  0.2240
 1405TIP3   OH225773   6.541   1.369   6.365  0.1905 -0.0876  0.4501
 1405TIP3    H125774   6.498   1.449   6.395  0.8075 -0.5755  2.8978
 1405TIP3    H225775   6.476   1.300   6.382  0.9401 -0.5058  1.7579
 1406TIP3   OH225776   4.715   1.159   0.361 -0.0925 -0.3027 -0.2099
 1406TIP3    H125777   4.700   1.249   0.330 -2.1060 -0.9391 -1.2976
 1406TIP3    H225778   4.742   1.169   0.452 -2.2109  1.4024  0.3243
 1407TIP3   OH225779   1.014   1.273   6.622 -0.1106  0.5327 -0.2856
 1407TIP3    H125780   0.970   1.320   6.551  0.2774 -0.6604 -1.3399
 1407TIP3    H225781   0.994   1.181   6.607  4.4906 -0.4322 -2.2214
 1408TIP3   OH225782   2.680   1.238   1.594  0.3229  0.1260  0.3739
 1408TIP3    H125783   2.755   1.239   1.536  0.7015 -0.3961  0.8362
 1408TIP3    H225784   2.612   1.190   1.546  0.3465  0.4365  0.0321
 1409TIP3   OH225785   3.883   0.730   0.969 -0.4918 -0.1152 -0.1501
 1409TIP3    H125786   3.832   0.703   1.045 -0.3036 -0.8633 -0.2809
 1409TIP3    H225787   3.970   0.750   1.004 -0.0216 -1.7368 -0.3387
 1410TIP3   OH225788   0.921   5.066   1.189  0.0416 -0.2528  0.2525
 1410TIP3    H125789   0.858   5.006   1.228 -0.3975 -0.0314 -0.1156
 1410TIP3    H225790   1.005   5.040   1.227  0.3262 -2.9131 -1.9246
 1411TIP3   OH225791   0.452   2.072   0.329  0.1436  0.1871 -0.1957
 1411TIP3    H125792   0.450   2.134   0.401 -1.1778  0.9750 -0.8778
 1411TIP3    H225793   0.361   2.042   0.320  0.7057 -1.7030 -0.0140
 1412TIP3   OH225794   1.669   2.681   0.993 -0.5336 -0.5488 -0.2526
 1412TIP3    H125795   1.719   2.610   0.953 -1.0693 -1.0606 -0.0374
 1412TIP3    H225796   1.590   2.638   1.027 -1.8794  0.4433 -1.9568
 1413TIP3   OH225797   5.241   5.379   0.388 -0.1462  0.2334 -0.1997
 1413TIP3    H125798   5.273   5.465   0.361 -2.0985  0.6523 -1.3974
 1413TIP3    H225799   5.317   5.336   0.427  1.0725  2.1993 -0.2694
 1414TIP3   OH225800   5.609   0.101   0.638  0.9010 -0.2826  0.4192
 1414TIP3    H125801   5.648   0.033   0.582 -1.9663 -1.0343 -0.8725
 1414TIP3    H225802   5.643   0.082   0.725  1.2415 -2.5967 -0.1244
 1415TIP3   OH225803   5.674   4.395   7.365 -0.2044  0.2870 -0.0745
 1415TIP3    H125804   5.664   4.415   7.458  0.6369 -0.3454  0.1703
 1415TIP3    H225805   5.587   4.369   7.336 -0.4340  0.2877  0.5936
 1416TIP3   OH225806   0.001   4.246   6.582 -0.2476  0.5402  0.6492
 1416TIP3    H125807   0.059   4.322   6.578 -0.3153  0.5496 -0.7265
 1416TIP3    H225808   0.007   4.207   6.495 -2.3537  0.5539  0.4595
 1417TIP3   OH225809   1.834   0.497   0.443  0.0497  0.0122 -0.2179
 1417TIP3    H125810   1.848   0.519   0.351 -1.6415 -0.2602 -0.5749
 1417TIP3    H225811   1.812   0.404   0.443 -0.5267  0.1378  0.3931
 1418TIP3   OH225812   0.059   5.604   7.784  0.0069  0.3695 -0.4305
 1418TIP3    H125813  -0.034   5.616   7.804  0.0806  1.5380 -0.7032
 1418TIP3    H225814   0.103   5.613   7.868 -0.1171 -0.1270 -0.3092
 1419TIP3   OH225815   5.802   4.098   1.839  0.0648  0.2382 -0.2388
 1419TIP3    H125816   5.871   4.164   1.834  0.9232 -0.6088  0.0477
 1419TIP3    H225817   5.844   4.024   1.883 -1.3234  0.0814  0.8742
 1420TIP3   OH225818   2.396   6.710   0.112  0.1886  0.0362  0.3793
 1420TIP3    H125819   2.473   6.655   0.117  1.1602  1.3971  1.0227
 1420TIP3    H225820   2.413   6.783   0.172 -1.7181  0.2336  0.7729
 1421TIP3   OH225821   3.923   6.649   7.535 -0.1098  0.3082 -0.6575
 1421TIP3    H125822   3.828   6.662   7.529 -0.6191 -2.0397  0.9251
 1421TIP3    H225823   3.943   6.584   7.468 -0.1568 -1.2884  0.8164
 1422TIP3   OH225824   4.118   6.868   0.806  0.0829 -0.1876  0.5594
 1422TIP3    H125825   4.070   6.901   0.881 -0.2058 -0.3060  0.4292
 1422TIP3    H225826   4.208   6.897   0.820 -0.3110  1.4072  0.0087
 1423TIP3   OH225827   0.261   6.336   2.000  0.1168 -0.7365 -0.4843
 1423TIP3    H125828   0.193   6.383   2.048 -1.0287 -2.0190 -0.7930
 1423TIP3    H225829   0.213   6.277   1.942  1.4758 -0.0668 -2.3837
 1424TIP3   OH225830   4.943   0.839   2.075  0.7730  0.2879 -0.2768
 1424TIP3    H125831   4.996   0.776   2.122  0.2089 -2.0345 -2.5373
 1424TIP3    H225832   4.868   0.854   2.132  1.4395 -0.2366  0.7721
 1425TIP3   OH225833   1.693   1.625   1.213  0.2787  0.2602 -0.1459
 1425TIP3    H125834   1.673   1.660   1.300  0.4033  0.5314 -0.2261
 1425TIP3    H225835   1.658   1.535   1.215 -0.5849  0.5844 -0.1472
 1426TIP3   OH225836   5.059   6.537   8.231  0.1180  0.3690 -0.2637
 1426TIP3    H125837   4.990   6.570   8.289 -0.2661 -0.1274 -0.4366
 1426TIP3    H225838   5.136   6.591   8.253 -0.4882  1.3778 -0.5369
 1427TIP3   OH225839   5.477   5.449   0.185  0.2867  0.3258 -0.4849
 1427TIP3    H125840   5.561   5.479   0.151  2.1323 -1.0298  2.4479
 1427TIP3    H225841   5.447   5.522   0.240  0.7593 -0.0738  0.3193
 1428TIP3   OH225842   2.588   1.818   8.473  0.1228 -0.2823  0.2180
 1428TIP3    H125843   2.542   1.734   8.472 -2.5634  1.0816  0.6380
 1428TIP3    H225844   2.564   1.859   8.390  1.4163  0.1059  0.0142
 1429TIP3   OH225845   2.989   6.742   7.210 -0.3317  0.1917 -0.3682
 1429TIP3    H125846   2.958   6.668   7.262 -1.2178 -0.2508 -1.4594
 1429TIP3    H225847   2.964   6.719   7.120 -0.8833  1.9414 -0.7008
 1430TIP3   OH225848   2.512   2.770   2.346  0.0795 -0.3584  0.5456
 1430TIP3    H125849   2.599   2.743   2.375  0.3657 -0.3823 -0.3081
 1430TIP3    H225850   2.473   2.811   2.423  0.8452 -0.3498  0.9408
 1431TIP3   OH225851   0.754   1.046   8.025 -0.2083  0.0028  0.2523
 1431TIP3    H125852   0.822   1.096   8.071 -0.0602  0.1580 -0.1314
 1431TIP3    H225853   0.676   1.101   8.028  0.2148  0.7190 -1.0337
 1432TIP3   OH225854   2.017   3.972   0.561  0.0953  0.6298 -0.0730
 1432TIP3    H125855   2.083   3.966   0.492 -0.8832  1.0305 -1.0711
 1432TIP3    H225856   1.933   3.957   0.516 -0.7678  2.8653  0.6332
 1433TIP3   OH225857   5.978   1.232   2.318  0.7911  0.0191 -0.2733
 1433TIP3    H125858   6.003   1.283   2.395  0.3312  0.6182 -0.5136
 1433TIP3    H225859   5.882   1.237   2.316  0.6387 -1.8548  0.3771
 1434TIP3   OH225860   3.571   5.885   0.117 -0.3603  0.9365 -0.2001
 1434TIP3    H125861   3.638   5.824   0.149 -0.5539  0.0035 -1.4991
 1434TIP3    H225862   3.619   5.947   0.062 -0.5790  0.1580 -1.2788
 1435TIP3   OH225863   3.350   0.752   0.514  0.3517 -0.0462  0.4193
 1435TIP3    H125864   3.320   0.718   0.430  2.1103  0.9645 -0.6712
 1435TIP3    H225865   3.334   0.680   0.575  0.2656 -1.3260 -1.0319
 1436TIP3   OH225866   0.942   4.541   0.335 -0.4261  0.4125  0.3642
 1436TIP3    H125867   0.889   4.618   0.355  0.4888  1.1813 -0.1005
 1436TIP3    H225868   0.881   4.467   0.343 -1.4372  1.2215  0.3107
 1437TIP3   OH225869   1.842   4.588   2.576 -0.0764 -0.6102 -0.0863
 1437TIP3    H125870   1.856   4.635   2.658 -3.9123  0.8942 -0.1198
 1437TIP3    H225871   1.924   4.598   2.528  1.2705  0.9309  2.3602
 1438TIP3   OH225872   0.526   5.049   2.071  0.6962  0.0865 -0.0682
 1438TIP3    H125873   0.459   5.037   2.004 -0.1265  2.8814  0.1232
 1438TIP3    H225874   0.476   5.061   2.152  1.5639 -0.6167  0.5842
 1439TIP3   OH225875   4.779   2.705   1.567 -0.4707 -0.2848  0.4793
 1439TIP3    H125876   4.728   2.635   1.527 -1.2975  0.3945  0.3117
 1439TIP3    H225877   4.724   2.783   1.558  1.2887  0.8619 -1.2647
 1440TIP3   OH225878   5.506   3.101   0.196 -0.0007 -0.1925 -0.3140
 1440TIP3    H125879   5.523   3.147   0.278  0.5392 -0.8784 -0.0302
 1440TIP3    H225880   5.411   3.109   0.183 -0.0082  0.4082  0.0782
 1441TIP3   OH225881   2.387   2.988   8.225  0.1333  0.0617  0.6546
 1441TIP3    H125882   2.375   2.924   8.155 -0.2262 -0.4288  1.1561
 1441TIP3    H225883   2.299   3.020   8.243  0.4228  1.5071 -0.3215
 1442TIP3   OH225884   0.289   5.525   6.709  0.3011 -0.3656 -0.6238
 1442TIP3    H125885   0.220   5.487   6.763  0.0623  1.0393  0.1104
 1442TIP3    H225886   0.299   5.464   6.635  0.2526 -2.0473  0.6951
 1443TIP3   OH225887   0.227   5.399   0.437 -1.2025 -0.4446  0.1498
 1443TIP3    H125888   0.148   5.360   0.475 -1.6762  1.2275  1.0162
 1443TIP3    H225889   0.271   5.439   0.512 -0.0778 -0.4417 -0.4993
 1444TIP3   OH225890   0.785   0.193   7.736 -0.2070  0.5437  0.0268
 1444TIP3    H125891   0.866   0.232   7.704  1.6597 -2.2692  0.9493
 1444TIP3    H225892   0.770   0.233   7.821  1.3004 -0.2141  0.6792
 1445TIP3   OH225893   0.285   0.586   0.290  0.7064 -0.0049  1.0562
 1445TIP3    H125894   0.244   0.644   0.354  0.7340 -0.6272  1.6477
 1445TIP3    H225895   0.376   0.615   0.286  0.4392  0.8190  0.3791
 1446TIP3   OH225896   0.272   0.253   1.348 -0.2246 -0.2734 -0.3208
 1446TIP3    H125897   0.355   0.222   1.385 -0.7257  0.1125  1.1879
 1446TIP3    H225898   0.259   0.339   1.388 -2.3818 -1.1976  1.1744
 1447TIP3   OH225899   3.855   3.717   0.061  0.4506  0.6257  0.1859
 1447TIP3    H125900   3.843   3.636   0.012  0.5519  0.7927 -0.1165
 1447TIP3    H225901   3.950   3.726   0.070  0.4652  1.0692 -0.3847
 1448TIP3   OH225902   3.173   3.734   0.698 -0.6094  0.4553 -0.3233
 1448TIP3    H125903   3.176   3.828   0.681 -0.0515  0.4670 -0.1686
 1448TIP3    H225904   3.127   3.698   0.622  0.5142  0.6853 -1.1368
 1449TIP3   OH225905   2.994   4.604   0.701  0.4453  0.1486 -0.0213
 1449TIP3    H125906   2.910   4.643   0.676 -0.0407 -1.6422 -1.4069
 1449TIP3    H225907   2.996   4.612   0.796 -0.8789  1.0372 -0.0365
 1450TIP3   OH225908   2.556   5.136   1.043 -0.0432  0.9070  0.5428
 1450TIP3    H125909   2.486   5.145   0.978  0.0090  2.1486  0.6340
 1450TIP3    H225910   2.529   5.062   1.097  0.5344 -0.9841 -1.6238
 1451TIP3   OH225911   0.608   2.836   1.604 -0.6697 -0.5865 -0.1219
 1451TIP3    H125912   0.704   2.841   1.610 -0.6468 -1.2926  0.2451
 1451TIP3    H225913   0.585   2.900   1.537 -0.1290  1.2885  1.3909
 1452TIP3   OH225914   6.195   1.254   7.953  0.5959 -0.0518 -0.3560
 1452TIP3    H125915   6.111   1.234   7.912  1.0398 -0.5777 -1.0262
 1452TIP3    H225916   6.185   1.223   8.043 -0.3897  1.1315 -0.0356
 1453TIP3   OH225917   0.914   3.101   1.319  0.2885 -0.5557 -0.6860
 1453TIP3    H125918   0.842   3.159   1.345  1.7044  0.4257  1.2769
 1453TIP3    H225919   0.960   3.150   1.251 -0.0606 -0.5761 -0.9438
 1454TIP3   OH225920   4.606   6.181   2.508 -0.0344  0.3201  0.2428
 1454TIP3    H125921   4.555   6.105   2.533 -1.7313  1.5743  0.7319
 1454TIP3    H225922   4.666   6.196   2.582 -1.7933  1.2189  1.5504
 1455TIP3   OH225923   0.865   3.191   0.275  0.0134 -0.0149  0.1439
 1455TIP3    H125924   0.820   3.268   0.240  0.5172  0.5951  0.8261
 1455TIP3    H225925   0.950   3.191   0.231 -0.2521 -0.5927 -0.3854
 1456TIP3   OH225926   5.327   3.601   0.692  0.5336 -0.5088  0.3604
 1456TIP3    H125927   5.399   3.596   0.755  1.2315  1.8719 -0.1407
 1456TIP3    H225928   5.359   3.661   0.625  0.2824 -3.7702 -2.9747
 1457TIP3   OH225929   6.175   0.855   1.403  0.1525  0.5151 -0.3124
 1457TIP3    H125930   6.172   0.845   1.498  1.3488 -2.6799 -0.4976
 1457TIP3    H225931   6.093   0.816   1.372 -1.0101  3.0068 -0.6076
 1458TIP3   OH225932   4.495   6.077   6.630  0.0567 -0.5682  0.4713
 1458TIP3    H125933   4.519   6.115   6.715  3.7072 -0.6535 -0.3565
 1458TIP3    H225934   4.414   6.122   6.606  0.4271  1.5389  2.7232
 1459TIP3   OH225935   1.918   2.776   1.131 -0.2368 -0.0661  0.0570
 1459TIP3    H125936   1.900   2.811   1.219 -0.5107 -1.4431  0.5845
 1459TIP3    H225937   1.832   2.774   1.088 -0.5788 -1.8482  0.7347
 1460TIP3   OH225938   3.650   2.202   1.538 -0.2386 -0.1485  0.6717
 1460TIP3    H125939   3.628   2.295   1.538  1.7817  0.3579  0.0338
 1460TIP3    H225940   3.690   2.187   1.624  0.6134 -0.1175  0.2878
 1461TIP3   OH225941   6.249   5.010   2.064  0.5432  0.3155  0.5626
 1461TIP3    H125942   6.285   4.927   2.095  0.6893 -0.3690 -1.3187
 1461TIP3    H225943   6.325   5.064   2.044  0.4865  0.1503 -0.1177
 1462TIP3   OH225944   2.413   0.951   8.327  0.5669 -0.1566  0.1704
 1462TIP3    H125945   2.448   0.965   8.238  0.6121 -0.7729  0.0905
 1462TIP3    H225946   2.453   0.870   8.356 -0.9202 -0.9861  0.0118
 1463TIP3   OH225947   2.164   3.895   7.993 -0.2414  0.0437 -0.1250
 1463TIP3    H125948   2.068   3.892   8.000 -0.2681  1.0581  0.1533
 1463TIP3    H225949   2.185   3.988   7.996  0.7203 -0.1357 -0.7661
 1464TIP3   OH225950   2.682   1.308   6.925  0.0042 -0.0175  0.3995
 1464TIP3    H125951   2.771   1.280   6.906 -0.0701 -0.3750  0.5816
 1464TIP3    H225952   2.657   1.363   6.850  0.0551 -0.6398 -0.0750
 1465TIP3   OH225953   4.329   0.579   0.060 -0.0695  0.0421 -0.1803
 1465TIP3    H125954   4.325   0.513   0.130  2.1602 -2.7379 -2.3883
 1465TIP3    H225955   4.423   0.596   0.049 -0.4719  1.7743 -1.3160
 1466TIP3   OH225956   3.333   3.131   0.198 -0.0232 -0.4635 -0.3025
 1466TIP3    H125957   3.311   3.111   0.107  2.1054 -1.1926 -0.7104
 1466TIP3    H225958   3.358   3.224   0.196  0.2240 -0.5339 -0.5022
 1467TIP3   OH225959   0.742   3.060   0.019 -0.0795  0.2173  0.3005
 1467TIP3    H125960   0.819   3.015   0.054 -0.7981 -0.7665  0.6619
 1467TIP3    H225961   0.752   3.151   0.048 -0.4558 -0.4629  2.8137
 1468TIP3   OH225962   0.361   1.478   0.455  0.3372 -0.0104  0.1485
 1468TIP3    H125963   0.408   1.553   0.491  1.0497  0.0143 -0.7930
 1468TIP3    H225964   0.277   1.515   0.426  0.3657  0.2625  0.4055
 1469TIP3   OH225965   0.650   6.245   1.556  0.4138 -0.4915 -0.3415
 1469TIP3    H125966   0.732   6.210   1.591  0.5888  1.3556  1.2534
 1469TIP3    H225967   0.665   6.250   1.461  1.7523 -1.1419 -0.1869
 1470TIP3   OH225968   0.194   4.693   1.447 -0.2703  0.1065  0.8462
 1470TIP3    H125969   0.269   4.722   1.499 -0.5175 -0.0466  1.3019
 1470TIP3    H225970   0.147   4.634   1.506  0.3590 -1.4366 -0.1280
 1471TIP3   OH225971   0.590   3.090   2.374  0.1230 -0.1811 -0.7682
 1471TIP3    H125972   0.651   3.046   2.433  0.5990  0.4250 -0.8039
 1471TIP3    H225973   0.607   3.183   2.386  1.2606 -0.0431 -2.9287
 1472TIP3   OH225974   6.722   3.546   0.169 -0.0663  0.1775  0.3466
 1472TIP3    H125975   6.656   3.543   0.100 -1.0210 -0.3417  1.2467
 1472TIP3    H225976   6.671   3.557   0.249  0.9899  0.3133  1.0129
 1473TIP3   OH225977   0.918   2.168   1.313  0.5458 -0.7377  0.3381
 1473TIP3    H125978   0.874   2.145   1.231  0.9296  0.1853 -0.1378
 1473TIP3    H225979   0.929   2.263   1.309  2.4963 -0.9132  0.4776
 1474TIP3   OH225980   5.999   3.591   7.159  0.4285  0.1740  0.1464
 1474TIP3    H125981   6.061   3.518   7.152 -0.2708 -0.3140 -1.1374
 1474TIP3    H225982   6.030   3.656   7.095  0.8719  0.9025  1.0671
 1475TIP3   OH225983   2.980   2.868   1.729  0.2156 -0.2464 -0.2939
 1475TIP3    H125984   2.946   2.929   1.794 -0.7435  0.3729 -1.3311
 1475TIP3    H225985   2.918   2.796   1.728  1.1896 -1.1313  0.7198
 1476TIP3   OH225986   6.880   4.959   0.064 -0.3362 -0.0872  0.0445
 1476TIP3    H125987   6.911   4.878   0.103  0.6161 -0.5011 -1.5011
 1476TIP3    H225988   6.805   4.933   0.009 -0.6554  0.2362  0.3161
 1477TIP3   OH225989   2.443   2.183   0.906  0.3327  0.4012 -0.2354
 1477TIP3    H125990   2.448   2.278   0.919 -1.5473  0.4388  0.5996
 1477TIP3    H225991   2.462   2.146   0.993 -0.1243  0.0850 -0.2652
 1478TIP3   OH225992   2.159   1.969   8.353 -0.5461 -0.2563  0.1348
 1478TIP3    H125993   2.069   1.937   8.358 -0.6688  0.0938  0.1433
 1478TIP3    H225994   2.209   1.907   8.407 -0.8993 -0.0036  0.7599
 1479TIP3   OH225995   3.087   0.369   0.362 -0.5785  0.6902 -0.4571
 1479TIP3    H125996   3.113   0.461   0.365 -0.8076  0.7600 -0.6086
 1479TIP3    H225997   3.054   0.351   0.450  1.3984  0.1761  0.2244
 1480TIP3   OH225998   4.325   6.779   1.741 -0.1654  0.4629 -0.5453
 1480TIP3    H125999   4.404   6.832   1.735 -0.3505  0.9229  0.7871
 1480TIP3    H226000   4.310   6.768   1.835  2.1155 -5.2741 -0.4485
 1481TIP3   OH226001   4.480   0.108   0.257 -0.3244  0.6633  0.1444
 1481TIP3    H126002   4.413   0.119   0.189 -1.2306  0.8914  1.0558
 1481TIP3    H226003   4.499   0.014   0.256 -0.7653  0.5719 -0.0315
 1482TIP3   OH226004   5.681   2.490   1.746 -0.3514  0.2031 -0.4996
 1482TIP3    H126005   5.722   2.552   1.806 -0.4990 -0.3501  0.1851
 1482TIP3    H226006   5.647   2.544   1.675 -2.8874  1.2494  1.3958
 1483TIP3   OH226007   4.204   1.623   8.175 -0.7914 -0.0627 -0.4136
 1483TIP3    H126008   4.199   1.528   8.173  1.3746 -0.2803  0.6487
 1483TIP3    H226009   4.115   1.652   8.194 -1.1964 -1.9838  0.9436
 1484TIP3   OH226010   4.785   6.534   6.920  0.4461 -0.3940 -0.0709
 1484TIP3    H126011   4.879   6.532   6.936  0.7349 -0.1608 -1.6001
 1484TIP3    H226012   4.751   6.597   6.984  1.4792  0.3703 -0.2499
 1485TIP3   OH226013   0.170   2.716   7.273 -0.1564  0.0098  0.2873
 1485TIP3    H126014   0.165   2.800   7.228 -2.1670  0.4603  1.2357
 1485TIP3    H226015   0.134   2.732   7.360  0.3728 -1.6213  0.8655
 1486TIP3   OH226016   6.168   5.378   7.613 -0.2506  0.1027  0.4679
 1486TIP3    H126017   6.113   5.370   7.691  2.5006 -0.8834  2.4607
 1486TIP3    H226018   6.143   5.303   7.559  0.4559 -1.5337  2.2934
 1487TIP3   OH226019   2.314   4.259   1.655  0.1607 -0.0025  0.0884
 1487TIP3    H126020   2.401   4.292   1.631  0.9764 -1.7549  0.4666
 1487TIP3    H226021   2.332   4.182   1.708 -1.6442  0.1675  1.0151
 1488TIP3   OH226022   5.427   6.573   7.941 -0.0477  0.3965 -0.0994
 1488TIP3    H126023   5.469   6.571   8.027  2.6848 -0.9392 -1.3478
 1488TIP3    H226024   5.404   6.481   7.923  1.2885  0.3206 -1.6036
 1489TIP3   OH226025   5.878   0.435   0.045  0.3301 -0.4252  0.7659
 1489TIP3    H126026   5.957   0.467   0.088 -0.0751  1.0287  0.4752
 1489TIP3    H226027   5.849   0.508  -0.010 -0.7590 -1.2273  0.2346
 1490TIP3   OH226028   6.092   5.077   7.564 -0.1716  0.0236 -0.2379
 1490TIP3    H126029   6.017   5.054   7.619 -1.0232 -0.1997 -1.4414
 1490TIP3    H226030   6.160   5.016   7.589 -0.9255 -0.8337 -0.2222
 1491TIP3   OH226031   4.211   3.393   7.280 -0.7657 -0.1754 -0.0241
 1491TIP3    H126032   4.270   3.466   7.301  2.8169 -2.6514 -0.6496
 1491TIP3    H226033   4.186   3.408   7.189  0.2542  0.0637 -0.2724
 1492TIP3   OH226034   0.628   1.950   2.331 -0.2208 -0.4603 -0.2613
 1492TIP3    H126035   0.702   1.891   2.318  0.9151  0.4603  1.6294
 1492TIP3    H226036   0.664   2.038   2.318 -0.6909  0.0609  1.6459
 1493TIP3   OH226037   6.557   4.130   1.847  0.3798  0.0664  0.0332
 1493TIP3    H126038   6.629   4.169   1.897 -0.4935  0.5286  0.9573
 1493TIP3    H226039   6.480   4.144   1.901 -0.8738  1.8595 -2.0607
 1494TIP3   OH226040   6.270   3.200   7.728 -0.1190  0.1367  0.1108
 1494TIP3    H126041   6.236   3.120   7.767 -0.1324  0.5779  1.0301
 1494TIP3    H226042   6.282   3.260   7.802  1.6697  0.3561 -0.3135
 1495TIP3   OH226043   5.774   6.638   0.750  0.1039 -0.1419  0.1354
 1495TIP3    H126044   5.685   6.635   0.713  0.8048 -0.0005 -1.6459
 1495TIP3    H226045   5.822   6.571   0.702  1.1518  0.2719  0.5906
 1496TIP3   OH226046   3.618   4.559   1.736 -0.3373 -0.2599 -0.0871
 1496TIP3    H126047   3.555   4.582   1.667  0.5110 -0.7619 -1.0569
 1496TIP3    H226048   3.649   4.472   1.712  2.0345  0.6651 -0.6660
 1497TIP3   OH226049   6.822   2.941   0.139 -0.8383 -0.4278  0.3078
 1497TIP3    H126050   6.887   2.992   0.188  0.0244 -0.8753 -0.3330
 1497TIP3    H226051   6.873   2.873   0.095 -1.5910 -0.1921 -1.0119
 1498TIP3   OH226052   6.885   6.070   1.877  0.3187  0.2630 -1.2795
 1498TIP3    H126053   6.871   6.104   1.965 -0.7025  0.1217 -1.3756
 1498TIP3    H226054   6.797   6.058   1.841  0.7210  0.7669 -2.4945
 1499TIP3   OH226055   6.694   2.688   1.233  1.0721 -0.3044 -0.0137
 1499TIP3    H126056   6.686   2.619   1.299  0.2448 -0.6804 -0.5004
 1499TIP3    H226057   6.725   2.643   1.154  4.1664  0.4472  0.6155
 1500TIP3   OH226058   1.214   2.488   8.009  0.4000 -0.0363  0.3690
 1500TIP3    H126059   1.227   2.582   8.020  1.1829 -0.2878  1.8397
 1500TIP3    H226060   1.142   2.467   8.069  1.7330 -0.7158  1.7912
 1501TIP3   OH226061   5.639   5.682   7.207 -0.9263  0.3570 -0.4106
 1501TIP3    H126062   5.701   5.712   7.274 -0.4161 -4.1621  1.5007
 1501TIP3    H226063   5.694   5.661   7.131 -1.0250  2.0114 -0.9772
 1502TIP3   OH226064   2.782   6.462   8.491 -0.6094  0.1191 -0.1427
 1502TIP3    H126065   2.770   6.430   8.402  0.9095  0.8281 -0.6308
 1502TIP3    H226066   2.875   6.482   8.498 -0.6338 -0.1772  1.7035
 1503TIP3   OH226067   3.124   5.073   8.166 -0.1627 -0.0883  0.0767
 1503TIP3    H126068   3.036   5.043   8.191 -1.2216 -0.1106 -3.1956
 1503TIP3    H226069   3.161   5.000   8.115  1.9939 -0.2453  1.7219
 1504TIP3   OH226070   3.384   5.673   7.834 -1.1015  0.6447 -0.1059
 1504TIP3    H126071   3.412   5.761   7.808 -0.8381  0.5300 -0.2174
 1504TIP3    H226072   3.339   5.639   7.756 -0.3534  0.3184 -0.4035
 1505TIP3   OH226073   5.051   1.267   1.317 -0.1468 -0.3714  0.5710
 1505TIP3    H126074   5.020   1.177   1.303  0.7338 -0.6247  0.2255
 1505TIP3    H226075   4.977   1.321   1.288 -0.5676 -0.9766  0.4764
 1506TIP3   OH226076   3.288   4.304   0.955  0.0193  0.1167  0.0712
 1506TIP3    H126077   3.303   4.253   0.875  0.4132 -0.4598  0.5144
 1506TIP3    H226078   3.364   4.363   0.960  0.2611 -0.2134  0.3035
 1507TIP3   OH226079   4.999   2.345   2.233 -0.6990  0.5876 -0.0913
 1507TIP3    H126080   4.969   2.321   2.146 -2.0327  0.4906  0.3728
 1507TIP3    H226081   5.091   2.369   2.221 -0.4417 -0.8413 -1.2641
 1508TIP3   OH226082   0.566   1.911   1.845  0.1252 -0.7619  0.2610
 1508TIP3    H126083   0.498   1.872   1.900  0.0606  0.5888  1.1914
 1508TIP3    H226084   0.599   1.985   1.897 -2.0863  2.6215 -2.6737
 1509TIP3   OH226085   4.112   0.783   7.120  0.1677  0.6304  0.3392
 1509TIP3    H126086   4.088   0.846   7.053 -2.4471  0.4728  0.9918
 1509TIP3    H226087   4.115   0.834   7.201 -0.3624  0.2199  0.6255
 1510TIP3   OH226088   3.930   0.768   0.471  0.1663  0.3428  0.3915
 1510TIP3    H126089   4.005   0.822   0.447 -0.2534 -0.2655 -2.6085
 1510TIP3    H226090   3.969   0.693   0.516  0.9787  1.6696  2.0161
 1511TIP3   OH226091   4.533   2.725   0.112  0.2166  0.3617 -0.2713
 1511TIP3    H126092   4.582   2.772   0.044  0.8851  0.0082 -0.0474
 1511TIP3    H226093   4.587   2.732   0.190 -0.9051  1.3875  0.4356
 1512TIP3   OH226094   3.623   3.237   7.415 -0.1885  0.0846 -0.3835
 1512TIP3    H126095   3.619   3.144   7.393  0.5581  0.0958 -0.5907
 1512TIP3    H226096   3.713   3.263   7.395  0.3809  0.2326  2.1484
 1513TIP3   OH226097   6.043   3.173   2.293 -0.2516  0.6252  0.0614
 1513TIP3    H126098   6.079   3.161   2.205  0.0608 -1.0452  0.3871
 1513TIP3    H226099   5.968   3.232   2.280 -2.8429 -2.7698 -2.0616
 1514TIP3   OH226100   0.954   6.451   2.546 -0.0690  0.6195 -0.2172
 1514TIP3    H126101   0.969   6.444   2.640  2.2141  0.8784 -0.5121
 1514TIP3    H226102   1.006   6.380   2.508 -0.1880  1.1090 -1.3426
 1515TIP3   OH226103   4.376   5.496   0.381 -0.0795  0.0449 -0.5878
 1515TIP3    H126104   4.420   5.411   0.384 -0.1297  0.0315 -0.1985
 1515TIP3    H226105   4.325   5.500   0.462  0.4515  0.7260 -0.2784
 1516TIP3   OH226106   5.376   6.263   2.706  0.0781 -0.5426 -0.0596
 1516TIP3    H126107   5.331   6.218   2.778 -1.9699 -0.4992 -1.2348
 1516TIP3    H226108   5.375   6.355   2.731 -1.1452 -0.4575 -0.3760
 1517TIP3   OH226109   4.469   3.125   2.527  0.0412  0.2094 -0.2640
 1517TIP3    H126110   4.477   3.206   2.477 -0.5696  1.8287  2.0994
 1517TIP3    H226111   4.539   3.129   2.591 -0.1059 -1.0620 -0.0084
 1518TIP3   OH226112   1.448   6.235   7.936 -0.6893  0.1851 -0.3687
 1518TIP3    H126113   1.478   6.203   7.851 -0.8734 -1.6600  0.2102
 1518TIP3    H226114   1.510   6.304   7.959  0.0550 -0.0919 -1.4691
 1519TIP3   OH226115   5.427   5.760   7.703 -0.2795  0.0207 -0.1192
 1519TIP3    H126116   5.415   5.752   7.608 -0.7224 -3.2196  0.0805
 1519TIP3    H226117   5.349   5.721   7.741  0.1566  0.7059  1.5985
 1520TIP3   OH226118   6.607   3.667   7.929 -0.3439 -0.1674  0.3379
 1520TIP3    H126119   6.658   3.591   7.902  1.0811  0.9197 -0.1231
 1520TIP3    H226120   6.596   3.656   8.024  1.3177 -0.1150  0.5649
 1521TIP3   OH226121   5.486   6.192   1.728  0.1348  0.7852  0.1287
 1521TIP3    H126122   5.532   6.196   1.644 -1.8867 -0.9080 -1.2015
 1521TIP3    H226123   5.420   6.261   1.723 -0.2265  0.4489  0.1333
 1522TIP3   OH226124   3.739   3.844   7.634 -0.0281 -0.4367  0.0720
 1522TIP3    H126125   3.762   3.937   7.641  0.2338 -0.4242 -0.8732
 1522TIP3    H226126   3.672   3.840   7.566 -0.7551 -0.8265  0.8010
 1523TIP3   OH226127   0.718   3.777   7.569  0.5994  0.4613  0.2363
 1523TIP3    H126128   0.707   3.833   7.492 -1.9982 -0.5334 -0.1993
 1523TIP3    H226129   0.724   3.689   7.533  0.9383  0.1081  1.1252
 1524TIP3   OH226130   6.580   0.288   0.481  0.6592  0.7645  0.4235
 1524TIP3    H126131   6.509   0.225   0.488  1.2245 -0.1743 -1.4968
 1524TIP3    H226132   6.537   0.371   0.461  0.0411  0.3917  0.1882
 1525TIP3   OH226133   0.405   3.315   1.863 -0.0515  0.1377  0.7953
 1525TIP3    H126134   0.348   3.273   1.928  1.7861 -2.8234  0.6946
 1525TIP3    H226135   0.488   3.327   1.909  0.2418  1.3259 -0.0042
 1526TIP3   OH226136   1.225   2.143   8.123  0.6449  0.2268 -0.5358
 1526TIP3    H126137   1.149   2.168   8.070  1.5265 -1.6781 -2.9145
 1526TIP3    H226138   1.294   2.202   8.093  1.8261 -2.4265 -3.6597
 1527TIP3   OH226139   2.527   1.165   1.374  0.0829  0.4640 -0.3238
 1527TIP3    H126140   2.617   1.165   1.340 -0.3122 -0.3014 -1.4407
 1527TIP3    H226141   2.490   1.247   1.339  0.6203  1.2960  0.9816
 1528TIP3   OH226142   6.027   5.444   7.340 -0.2639 -0.2546  0.2099
 1528TIP3    H126143   5.986   5.477   7.260 -0.5487 -1.5127 -0.1833
 1528TIP3    H226144   5.966   5.379   7.373  0.6632 -0.9927  0.5006
 1529TIP3   OH226145   3.369   4.856   0.911 -0.0356  0.4693  0.3224
 1529TIP3    H126146   3.436   4.829   0.848 -1.0703  0.9593 -1.0630
 1529TIP3    H226147   3.293   4.801   0.889 -0.3435  0.4730  1.3244
 1530TIP3   OH226148   5.433   3.783   7.777  0.3743 -0.1524  0.4335
 1530TIP3    H126149   5.469   3.871   7.781  0.1887  0.0091 -1.0055
 1530TIP3    H226150   5.508   3.727   7.755  0.5988 -0.4515  1.8587
 1531TIP3   OH226151   4.554   1.853   0.749 -0.4428  0.1073  0.1777
 1531TIP3    H126152   4.554   1.816   0.838  0.1234  2.3504  1.1737
 1531TIP3    H226153   4.568   1.946   0.762 -1.3949  0.6541 -2.2514
 1532TIP3   OH226154   0.330   1.556   2.192 -0.2242 -0.0839  0.5063
 1532TIP3    H126155   0.387   1.585   2.263 -0.4170 -0.2059  0.7128
 1532TIP3    H226156   0.245   1.541   2.235 -0.8598  1.6396 -0.0633
 1533TIP3   OH226157   6.106   3.294   2.746  0.0757  0.2606  0.2690
 1533TIP3    H126158   6.032   3.284   2.806  0.4558  0.7904  0.8437
 1533TIP3    H226159   6.121   3.206   2.712 -0.0824 -0.0751  1.0347
 1534TIP3   OH226160   1.619   5.563   0.632 -0.2927  0.0390 -0.2141
 1534TIP3    H126161   1.618   5.468   0.635 -1.2384  0.0417  0.2218
 1534TIP3    H226162   1.526   5.588   0.638 -0.0886  0.9747 -0.7089
 1535TIP3   OH226163   3.821   5.025   1.534 -0.1232 -0.4538  0.1918
 1535TIP3    H126164   3.881   4.992   1.467  0.4785  0.7485  0.1059
 1535TIP3    H226165   3.871   5.021   1.616  0.4748  1.4246 -0.0230
 1536TIP3   OH226166   2.030   1.397   7.842 -0.4390 -0.1230  0.0125
 1536TIP3    H126167   1.958   1.368   7.786  1.7697 -0.7312 -2.7909
 1536TIP3    H226168   2.003   1.482   7.874 -3.7098 -1.6564  1.8379
 1537TIP3   OH226169   0.218   6.419   8.211 -0.0631  0.5863 -0.5338
 1537TIP3    H126170   0.248   6.417   8.120  0.4912 -1.0020 -0.3374
 1537TIP3    H226171   0.127   6.389   8.207 -0.2138  1.0358 -0.6069
 1538TIP3   OH226172   5.149   6.682   0.312 -0.5106 -0.5617  0.1471
 1538TIP3    H126173   5.073   6.735   0.338 -1.8907 -2.4114  0.1066
 1538TIP3    H226174   5.191   6.732   0.242 -1.2569  0.8417  0.6643
 1539TIP3   OH226175   0.101   4.123   1.783  0.1816 -0.2993  0.3308
 1539TIP3    H126176   0.111   4.073   1.703 -1.2460  1.6397 -1.1631
 1539TIP3    H226177   0.158   4.199   1.771  1.6679 -1.0324  2.1817
 1540TIP3   OH226178   3.775   1.617   6.592 -0.0971 -0.3030  0.4439
 1540TIP3    H126179   3.832   1.692   6.610 -0.0282 -0.1814 -0.2267
 1540TIP3    H226180   3.836   1.546   6.571 -0.1732 -0.4400  0.6809
 1541TIP3   OH226181   0.774   4.173   7.711  0.0458  0.3304 -0.3870
 1541TIP3    H126182   0.794   4.080   7.721 -0.4972  0.2919  0.4339
 1541TIP3    H226183   0.680   4.175   7.691  0.5136  0.5811 -2.9014
 1542TIP3   OH226184   0.394   2.551   6.316 -0.6252  0.0893  0.5833
 1542TIP3    H126185   0.486   2.526   6.308 -1.1971 -1.7195 -1.1609
 1542TIP3    H226186   0.389   2.637   6.274 -0.1730 -1.0805 -2.0833
 1543TIP3   OH226187   4.884   2.917   7.881  0.3073 -0.2646 -0.5382
 1543TIP3    H126188   4.864   3.008   7.905 -2.1655 -0.5197 -1.3611
 1543TIP3    H226189   4.854   2.865   7.956  1.3196 -0.4525 -0.2511
 1544TIP3   OH226190   6.750   4.331   8.144 -0.2957  0.2219 -0.3014
 1544TIP3    H126191   6.751   4.425   8.161 -0.3297 -0.2266  2.7741
 1544TIP3    H226192   6.657   4.308   8.145 -0.2718  0.1144 -0.7037
 1545TIP3   OH226193   3.631   4.005   6.381 -0.4011  0.1486  0.2385
 1545TIP3    H126194   3.601   4.093   6.358 -0.1417  0.5466  1.3536
 1545TIP3    H226195   3.715   3.996   6.335 -1.3592 -0.3298 -1.5236
 1546TIP3   OH226196   1.076   1.553   7.380  0.3793  0.2410 -0.5669
 1546TIP3    H126197   1.075   1.460   7.357 -1.0718 -0.2746  1.2303
 1546TIP3    H226198   1.107   1.554   7.471  0.1692  1.4965 -0.4936
 1547TIP3   OH226199   2.267   4.274   1.345 -0.3546 -0.1403 -0.1525
 1547TIP3    H126200   2.243   4.220   1.269  0.7768  1.3637 -1.6637
 1547TIP3    H226201   2.345   4.233   1.380 -0.5721 -0.5456 -0.1407
 1548TIP3   OH226202   0.561   5.326   1.396 -0.4420  0.1379 -0.1964
 1548TIP3    H126203   0.548   5.404   1.449 -0.9593  0.2570 -0.4952
 1548TIP3    H226204   0.602   5.263   1.456 -1.3669  0.1442  0.4510
 1549TIP3   OH226205   6.366   4.569   7.625 -0.1557 -0.3946 -0.2342
 1549TIP3    H126206   6.395   4.480   7.603 -0.9920 -1.1423  1.5007
 1549TIP3    H226207   6.315   4.597   7.549  1.3221 -0.7827 -1.4303
 1550TIP3   OH226208   1.510   5.288   1.945  0.6891  0.0732 -0.3132
 1550TIP3    H126209   1.417   5.266   1.956  0.9981 -1.2718 -0.1957
 1550TIP3    H226210   1.534   5.331   2.027  0.1646  0.4620 -0.3580
 1551TIP3   OH226211   4.948   3.843   7.171  0.3775  0.2360 -0.3534
 1551TIP3    H126212   5.025   3.898   7.161 -0.7317  2.2589  1.4016
 1551TIP3    H226213   4.961   3.798   7.254  0.4271 -0.7509 -0.8832
 1552TIP3   OH226214   2.414   4.387   0.554  0.2516  0.4704 -0.3257
 1552TIP3    H126215   2.391   4.330   0.627  0.4451 -1.4910 -1.7372
 1552TIP3    H226216   2.334   4.435   0.535  0.1126  0.7893  0.9217
 1553TIP3   OH226217   6.876   0.407   8.256 -0.2528  0.5118 -0.0130
 1553TIP3    H126218   6.792   0.453   8.246 -0.8311 -0.8852 -2.2072
 1553TIP3    H226219   6.854   0.329   8.307 -0.4246 -0.0740 -0.9497
 1554TIP3   OH226220   4.673   3.787   7.028 -0.0808  0.0570  0.3649
 1554TIP3    H126221   4.656   3.754   6.940  0.8080 -0.3659  0.3462
 1554TIP3    H226222   4.617   3.865   7.035 -0.5509 -0.2003 -0.3771
 1555TIP3   OH226223   5.366   4.725   8.396  0.1697  0.4420 -0.2148
 1555TIP3    H126224   5.381   4.818   8.410  1.5462 -0.0045  1.7065
 1555TIP3    H226225   5.324   4.694   8.476  1.4753 -0.9023  0.0108
 1556TIP3   OH226226   3.285   2.196   8.162 -0.6642  0.2265 -0.0338
 1556TIP3    H126227   3.379   2.177   8.169 -0.1446  2.4746 -0.0838
 1556TIP3    H226228   3.260   2.162   8.076  0.2174  0.0868 -0.2422
 1557TIP3   OH226229   1.024   0.684   7.698 -0.1409 -0.6350  0.6970
 1557TIP3    H126230   0.983   0.646   7.777 -1.7362 -0.0819  0.1857
 1557TIP3    H226231   1.007   0.778   7.706 -0.2120 -0.5656 -0.2534
 1558TIP3   OH226232   6.858   1.481   8.095 -0.4365 -0.3797  0.1093
 1558TIP3    H126233   6.883   1.395   8.129 -0.5834 -2.5392 -4.4065
 1558TIP3    H226234   6.938   1.515   8.056 -0.6621  1.0136  0.8213
 1559TIP3   OH226235   0.814   4.092   0.268  0.2778 -0.0471  0.1091
 1559TIP3    H126236   0.783   4.178   0.241 -0.5294 -0.7593 -1.3146
 1559TIP3    H226237   0.843   4.049   0.187 -3.0837 -2.6117  0.0446
 1560TIP3   OH226238   5.140   3.448   1.463 -0.2631 -0.7582 -0.0815
 1560TIP3    H126239   5.077   3.392   1.506  0.9970 -0.6128  2.1096
 1560TIP3    H226240   5.209   3.461   1.528  0.4280  1.7474 -1.1799
 1561TIP3   OH226241   2.098   4.981   8.139  0.0481 -0.1197 -0.1221
 1561TIP3    H126242   2.185   4.971   8.102  0.1285 -0.2766  0.1026
 1561TIP3    H226243   2.071   5.069   8.114 -0.0747 -0.3750 -0.9107
 1562TIP3   OH226244   0.459   1.940   8.385  0.0474 -0.2991  0.3454
 1562TIP3    H126245   0.527   2.008   8.380 -0.3194  0.1315  1.1132
 1562TIP3    H226246   0.453   1.906   8.295 -0.4224  1.3398 -0.2818
 1563TIP3   OH226247   3.820   2.020   0.322 -0.2871 -0.4220  0.1991
 1563TIP3    H126248   3.832   1.932   0.285  0.6708 -0.0619 -0.3777
 1563TIP3    H226249   3.768   2.005   0.401 -0.4366 -1.4698 -0.0745
 1564TIP3   OH226250   4.464   0.116   2.306 -0.1070 -0.8966  0.3269
 1564TIP3    H126251   4.404   0.149   2.373 -1.4490 -0.9885 -0.7837
 1564TIP3    H226252   4.473   0.023   2.325 -0.8479 -1.0148  0.1326
 1565TIP3   OH226253   6.277   2.046   0.059 -0.2839  0.0552  0.9484
 1565TIP3    H126254   6.361   2.077   0.095  0.1341  0.4588 -0.3175
 1565TIP3    H226255   6.257   2.107  -0.011 -2.0666  0.4281  1.7190
 1566TIP3   OH226256   1.315   2.746   1.280 -0.2999  0.1909  0.0392
 1566TIP3    H126257   1.222   2.732   1.260 -0.8132 -0.5034  2.5316
 1566TIP3    H226258   1.319   2.747   1.376  1.9889  2.2508  0.0339
 1567TIP3   OH226259   1.129   6.653   2.158 -0.2553 -0.7930 -0.0169
 1567TIP3    H126260   1.170   6.568   2.140 -0.8285 -1.4823  1.7367
 1567TIP3    H226261   1.053   6.656   2.100  1.8686  0.3049 -2.9930
 1568TIP3   OH226262   1.758   4.476   0.827  0.5673 -0.1893  0.1497
 1568TIP3    H126263   1.692   4.544   0.832  0.2257 -0.5203  0.1542
 1568TIP3    H226264   1.788   4.466   0.918  0.3608 -0.3006  0.2050
 1569TIP3   OH226265   3.814   1.227   7.306  0.3700 -0.2946  0.1984
 1569TIP3    H126266   3.909   1.222   7.293  0.6174 -1.3674  2.1577
 1569TIP3    H226267   3.802   1.223   7.400 -1.7089 -2.0514 -0.0625
 1570TIP3   OH226268   0.810   5.888   8.334  0.4448  0.4572 -0.0931
 1570TIP3    H126269   0.763   5.824   8.387 -0.1940 -0.6075 -1.8731
 1570TIP3    H226270   0.873   5.927   8.394 -0.7731 -0.1079  1.6428
 1571TIP3   OH226271   1.614   6.653   0.110  0.5070 -0.1716 -0.4508
 1571TIP3    H126272   1.550   6.690   0.171  1.4467  0.5547  0.1245
 1571TIP3    H226273   1.663   6.589   0.162  1.1954  0.3202 -0.4889
 1572TIP3   OH226274   2.690   6.896   0.899  0.6266 -0.1199 -0.4116
 1572TIP3    H126275   2.745   6.950   0.956  2.8979  0.7135 -3.2059
 1572TIP3    H226276   2.601   6.911   0.931  1.2157  4.5015 -0.3385
 1573TIP3   OH226277   5.328   3.334   0.564  0.8979 -0.1043 -0.0853
 1573TIP3    H126278   5.363   3.306   0.648 -0.8133 -1.3160  0.2772
 1573TIP3    H226279   5.279   3.413   0.584  0.0340 -0.6939  0.1882
 1574TIP3   OH226280   5.140   2.466   0.618 -0.5316 -0.2069  0.1889
 1574TIP3    H126281   5.192   2.541   0.646  0.3948 -0.3503 -1.0696
 1574TIP3    H226282   5.105   2.430   0.700 -2.3394  2.4892  0.7387
 1575TIP3   OH226283   0.239   6.663   8.052 -0.0720  0.3408 -0.1133
 1575TIP3    H126284   0.230   6.751   8.014  2.3055  0.7303  0.1155
 1575TIP3    H226285   0.307   6.621   8.000 -0.2937 -0.9433  0.5928
 1576TIP3   OH226286   0.052   5.969   2.316 -0.0693  0.0642 -0.1838
 1576TIP3    H126287   0.100   5.937   2.393 -1.1536  0.1322  0.5365
 1576TIP3    H226288   0.006   5.891   2.283  0.3121  0.0585 -0.7036
 1577TIP3   OH226289   5.818   1.890   1.509 -0.4518  0.2540 -0.1482
 1577TIP3    H126290   5.730   1.916   1.482 -0.5548 -0.3767 -0.4372
 1577TIP3    H226291   5.804   1.829   1.581 -0.2838 -0.4560 -0.7073
 1578TIP3   OH226292   6.419   1.279   1.047 -0.1415 -0.2309 -0.4917
 1578TIP3    H126293   6.388   1.309   1.133  1.4448  0.1817 -0.0439
 1578TIP3    H226294   6.401   1.185   1.047  0.0296 -0.2669  0.3663
 1579TIP3   OH226295   3.910   1.668   7.662  0.0698 -0.4236 -0.4705
 1579TIP3    H126296   3.857   1.714   7.727 -1.6877 -1.0562 -1.3721
 1579TIP3    H226297   3.933   1.734   7.598 -0.3697 -0.3016 -0.5051
 1580TIP3   OH226298   2.849   1.447   1.042  0.1659  0.2303  0.5979
 1580TIP3    H126299   2.917   1.455   0.975 -0.2665 -0.1440  0.1142
 1580TIP3    H226300   2.838   1.353   1.054  0.8952  0.2877  1.8692
 1581TIP3   OH226301   1.576   0.084   0.919 -0.3840 -0.2843 -0.2582
 1581TIP3    H126302   1.524   0.163   0.911  0.9037  0.5954 -0.2450
 1581TIP3    H226303   1.593   0.056   0.829  1.3912  1.0026 -0.3708
 1582TIP3   OH226304   2.756   1.361   7.178 -0.3063 -0.8056  0.3932
 1582TIP3    H126305   2.720   1.318   7.101  1.3451 -0.7445 -0.4524
 1582TIP3    H226306   2.817   1.298   7.215  0.5236 -0.0401  0.3797
 1583TIP3   OH226307   6.770   1.368   1.863  0.4942 -0.8888 -0.7842
 1583TIP3    H126308   6.740   1.343   1.776  1.5047  0.1949 -1.4731
 1583TIP3    H226309   6.844   1.426   1.847  0.3950 -0.2814  0.8003
 1584TIP3   OH226310   0.416   4.386   7.429 -0.3681  0.1298 -0.1374
 1584TIP3    H126311   0.372   4.342   7.356 -2.0357 -0.3253  1.0898
 1584TIP3    H226312   0.369   4.469   7.439  0.4640  0.6118 -0.1741
 1585TIP3   OH226313   1.477   0.616   7.612  0.1174  0.0477  0.2410
 1585TIP3    H126314   1.394   0.665   7.609  1.1724  1.9193  0.1130
 1585TIP3    H226315   1.486   0.589   7.704 -0.3043  0.4286  0.3956
 1586TIP3   OH226316   3.665   1.691   0.707 -0.0107  0.1934  0.7592
 1586TIP3    H126317   3.674   1.604   0.668 -0.1474  0.9222 -0.9674
 1586TIP3    H226318   3.574   1.715   0.690  0.3307  1.1325  0.2002
 1587TIP3   OH226319   4.370   3.010   1.583  0.5366  0.8007 -0.7274
 1587TIP3    H126320   4.321   3.061   1.648  2.1006  1.9281 -0.3658
 1587TIP3    H226321   4.304   2.982   1.520 -0.9264  0.3132  0.9134
 1588TIP3   OH226322   0.927   1.517   0.376  0.4613 -0.1202 -0.3531
 1588TIP3    H126323   0.865   1.505   0.305  0.6577 -2.5362 -0.2098
 1588TIP3    H226324   0.873   1.541   0.452 -0.2620 -1.5054 -0.3964
 1589TIP3   OH226325   2.129   6.158   7.654 -0.1011 -0.1245 -0.1474
 1589TIP3    H126326   2.135   6.223   7.724  1.1096  0.9573 -1.1902
 1589TIP3    H226327   2.156   6.076   7.695  0.2939  0.4214  0.7204
 1590TIP3   OH226328   1.762   6.793   2.405  0.6081  0.4189 -0.2451
 1590TIP3    H126329   1.799   6.738   2.336  0.3436  0.8205 -0.7067
 1590TIP3    H226330   1.795   6.754   2.487  2.7755  1.2403 -0.6470
 1591TIP3   OH226331   3.193   6.826   0.874 -0.5588  0.5580  0.2217
 1591TIP3    H126332   3.112   6.868   0.845 -1.4508 -0.2444  1.4422
 1591TIP3    H226333   3.231   6.788   0.795 -0.5142  2.3096 -0.6457
 1592TIP3   OH226334   4.188   5.502   0.570  0.1732 -0.0294 -0.0641
 1592TIP3    H126335   4.100   5.525   0.539 -0.1806 -2.4639 -1.0571
 1592TIP3    H226336   4.172   5.459   0.655  0.2410 -1.4477 -0.7353
 1593TIP3   OH226337   3.566   4.794   7.086  0.5641 -0.0210 -0.0794
 1593TIP3    H126338   3.533   4.766   7.001 -1.4633  0.8580  0.3297
 1593TIP3    H226339   3.661   4.798   7.076  0.3277  1.0003 -2.6008
 1594TIP3   OH226340   5.394   0.991   2.444  0.3398 -0.8892  0.1047
 1594TIP3    H126341   5.386   0.900   2.473 -0.8121 -0.9265 -0.2766
 1594TIP3    H226342   5.318   1.005   2.387  0.0399  0.5583  0.8080
 1595TIP3   OH226343   6.011   1.726   1.376  0.1019 -0.1253  0.4964
 1595TIP3    H126344   5.948   1.789   1.410 -0.1980  0.0028 -0.2757
 1595TIP3    H226345   6.073   1.779   1.326 -0.5855 -0.5154 -0.7944
 1596TIP3   OH226346   1.704   6.836   0.714  0.1811 -0.0751 -0.5709
 1596TIP3    H126347   1.767   6.767   0.735  0.3711  0.1752 -0.3272
 1596TIP3    H226348   1.755   6.901   0.666  0.5670  1.0562  1.2955
 1597TIP3   OH226349   0.351   3.554   8.133 -0.2538  0.4345  0.4387
 1597TIP3    H126350   0.386   3.633   8.090  3.9695 -0.8735  0.9641
 1597TIP3    H226351   0.301   3.510   8.064  0.4679  1.7565 -1.0139
 1598TIP3   OH226352   3.429   2.691   6.954 -0.6739  0.1777  0.2418
 1598TIP3    H126353   3.471   2.769   6.919 -0.8067  0.5878  0.9663
 1598TIP3    H226354   3.478   2.618   6.916 -2.1238  0.5109 -2.4568
 1599TIP3   OH226355   1.097   5.647   7.957  0.3387 -0.0338  0.4348
 1599TIP3    H126356   1.047   5.574   7.919  0.4758 -0.2028  0.5764
 1599TIP3    H226357   1.090   5.717   7.892  1.1923 -0.5653 -0.2601
 1600TIP3   OH226358   1.367   1.304   7.191  0.2028  0.6320 -0.2953
 1600TIP3    H126359   1.329   1.331   7.107 -0.3819  0.1539 -0.1963
 1600TIP3    H226360   1.325   1.220   7.209  1.6495 -0.1331 -0.3865
 1601TIP3   OH226361   6.575   1.287   8.167  0.4616 -0.0044  0.2996
 1601TIP3    H126362   6.633   1.213   8.184  0.2800  0.0107  1.0341
 1601TIP3    H226363   6.596   1.315   8.078  2.3477  0.7010  0.9308
 1602TIP3   OH226364   5.123   5.603   1.055 -0.1812 -0.4202 -1.0948
 1602TIP3    H126365   5.175   5.555   0.990  0.5447 -0.4999 -0.4753
 1602TIP3    H226366   5.164   5.581   1.139 -0.1729  0.8451 -0.7442
 1603TIP3   OH226367   5.789   1.899   0.635 -0.1441 -0.0187  0.0919
 1603TIP3    H126368   5.772   1.948   0.555  1.0652  2.4214  1.2391
 1603TIP3    H226369   5.703   1.888   0.675 -0.4682  0.9446 -0.3241
 1604TIP3   OH226370   5.250   0.582   8.230 -0.1400 -0.2934  0.4614
 1604TIP3    H126371   5.235   0.658   8.285  0.1183  1.7557 -2.1074
 1604TIP3    H226372   5.185   0.589   8.160  0.2999 -2.1007 -0.2045
 1605TIP3   OH226373   1.330   1.745   7.780 -0.0749  0.6914 -0.7119
 1605TIP3    H126374   1.422   1.728   7.800 -0.2408 -0.7869 -1.1237
 1605TIP3    H226375   1.299   1.795   7.855  0.7270  0.0265  0.0934
 1606TIP3   OH226376   3.976   1.185   1.521 -0.0881  0.3967  0.1349
 1606TIP3    H126377   4.023   1.146   1.447 -2.1595  1.5445 -1.9070
 1606TIP3    H226378   3.975   1.115   1.587  1.1739 -0.9557 -1.1773
 1607TIP3   OH226379   0.925   6.914   1.040 -0.1655 -0.7211  0.8971
 1607TIP3    H126380   0.919   7.003   1.074  1.1238 -1.1365  2.3890
 1607TIP3    H226381   0.886   6.917   0.953 -0.2791  1.2590  0.9899
 1608TIP3   OH226382   1.299   4.274   8.052  0.1975  0.1677 -0.3414
 1608TIP3    H126383   1.270   4.273   7.961  0.8755 -3.2104 -0.6427
 1608TIP3    H226384   1.394   4.262   8.047  0.1479 -0.9427  0.7780
 1609TIP3   OH226385   6.070   5.989   0.589 -0.0016 -0.0424 -0.0577
 1609TIP3    H126386   6.082   6.033   0.505 -0.8191 -1.4408 -0.9391
 1609TIP3    H226387   6.106   5.902   0.577 -0.3330 -0.3417  0.9701
 1610TIP3   OH226388   4.914   6.205   7.659  0.1648 -0.1734  0.1075
 1610TIP3    H126389   4.861   6.165   7.590  1.4212 -1.3810 -0.1812
 1610TIP3    H226390   5.000   6.219   7.619  0.6309 -0.0045  1.1468
 1611TIP3   OH226391   5.565   4.861   1.307  0.1105 -0.3977 -0.3103
 1611TIP3    H126392   5.480   4.887   1.274 -0.4876 -0.9784  0.6890
 1611TIP3    H226393   5.566   4.765   1.299  0.0276 -0.5449  1.0545
 1612TIP3   OH226394   2.501   3.734   8.270  0.1435 -0.4161  0.1305
 1612TIP3    H126395   2.509   3.679   8.191  0.7541  0.4573 -0.4343
 1612TIP3    H226396   2.410   3.723   8.297 -0.9510  1.5210 -2.4095
 1613TIP3   OH226397   2.827   5.050   5.958  0.3506 -0.5579  0.2364
 1613TIP3    H126398   2.883   5.117   5.997  0.5676  0.8068 -2.1909
 1613TIP3    H226399   2.751   5.099   5.924 -0.4662 -1.8371  0.1636
 1614TIP3   OH226400   4.385   0.431   7.598  0.4420  0.1902 -0.4819
 1614TIP3    H126401   4.326   0.372   7.550  1.5618 -1.3405 -0.0513
 1614TIP3    H226402   4.404   0.384   7.679 -0.7970  2.3710  1.1928
 1615TIP3   OH226403   0.424   3.350   7.142 -0.2051 -0.0521 -0.3417
 1615TIP3    H126404   0.498   3.294   7.165  0.0070  0.6157  0.6948
 1615TIP3    H226405   0.353   3.290   7.123  0.7403 -0.7330 -1.9165
 1616TIP3   OH226406   3.419   6.706   7.342 -0.3888  0.7928 -1.2291
 1616TIP3    H126407   3.388   6.796   7.330 -1.1515  0.4523 -2.0145
 1616TIP3    H226408   3.373   6.656   7.274  0.4685 -0.0906 -1.1875
 1617TIP3   OH226409   0.904   3.888   1.336  0.0257 -0.2128 -0.0442
 1617TIP3    H126410   0.949   3.919   1.257 -1.4090  1.7399 -0.1798
 1617TIP3    H226411   0.923   3.956   1.401 -2.3944  0.5662 -0.0412
 1618TIP3   OH226412   0.248   0.123   1.095 -0.1341  0.1229 -0.4249
 1618TIP3    H126413   0.211   0.035   1.099  1.9285 -0.9101 -1.9179
 1618TIP3    H226414   0.236   0.158   1.183 -0.9969 -1.6474  0.2191
 1619TIP3   OH226415   6.135   4.843   2.478  0.2061 -0.8651  0.2330
 1619TIP3    H126416   6.109   4.917   2.423 -1.3318 -1.1432  0.5344
 1619TIP3    H226417   6.177   4.883   2.555 -0.8322 -0.2821  0.5102
 1620TIP3   OH226418   5.702   1.941   0.952 -0.5840 -0.4618 -0.1356
 1620TIP3    H126419   5.724   1.853   0.982  0.8891  0.3291  1.2610
 1620TIP3    H226420   5.628   1.928   0.893  0.8032 -2.8414 -1.5462
 1621TIP3   OH226421   2.962   5.725   7.064 -0.0608 -0.3102  0.4101
 1621TIP3    H126422   2.881   5.774   7.076 -0.8687 -1.5386  0.1954
 1621TIP3    H226423   2.970   5.716   6.969  1.0089  0.8563  0.3642
 1622TIP3   OH226424   0.338   5.953   2.532 -0.6104  0.4863  0.1158
 1622TIP3    H126425   0.341   5.936   2.626 -1.5076 -1.1200 -0.1110
 1622TIP3    H226426   0.291   6.036   2.524  1.0877  1.6037  1.1402
 1623TIP3   OH226427   0.421   3.500   6.557 -0.1682  0.1557  0.2306
 1623TIP3    H126428   0.462   3.582   6.529  0.9110  0.8481  3.4269
 1623TIP3    H226429   0.461   3.433   6.502 -0.7364  1.6289 -2.1432
 1624TIP3   OH226430   4.507   3.832   7.873 -0.4879  0.8913  0.4644
 1624TIP3    H126431   4.413   3.832   7.853 -0.4094 -1.2281 -0.1597
 1624TIP3    H226432   4.520   3.752   7.924  0.9876  1.1689  0.5534
 1625TIP3   OH226433   0.970   6.031   1.847 -0.3414 -0.1485 -0.2105
 1625TIP3    H126434   0.957   5.936   1.852 -0.1220 -0.3455 -2.3254
 1625TIP3    H226435   1.007   6.055   1.932 -3.4752 -1.3899  1.6563
 1626TIP3   OH226436   6.385   2.764   7.322 -0.1041 -0.4867 -0.3009
 1626TIP3    H126437   6.357   2.676   7.345  2.3369 -1.0024  1.0850
 1626TIP3    H226438   6.328   2.822   7.371 -0.1858 -1.3954  0.7105
 1627TIP3   OH226439   4.303   5.877   1.727 -0.1398 -0.3278  0.3498
 1627TIP3    H126440   4.278   5.871   1.820 -0.1804 -1.3918  0.2861
 1627TIP3    H226441   4.289   5.789   1.693  1.7431 -0.4738 -0.1928
 1628TIP3   OH226442   6.475   5.608   7.911 -0.3287  0.2555 -0.6138
 1628TIP3    H126443   6.570   5.610   7.909 -0.3140  2.2825 -0.0506
 1628TIP3    H226444   6.450   5.546   7.842  1.3808 -0.5009 -0.5844
 1629TIP3   OH226445   6.349   0.229   2.018 -0.2996 -0.1246  0.8903
 1629TIP3    H126446   6.392   0.174   2.082 -0.9432 -0.7588  0.7905
 1629TIP3    H226447   6.358   0.318   2.052  0.8632 -0.2660  0.9785
 1630TIP3   OH226448   0.126   5.023   0.715  0.2042  0.6337  0.9733
 1630TIP3    H126449   0.078   5.103   0.697 -0.6292  0.0928  0.7766
 1630TIP3    H226450   0.111   4.967   0.639 -0.7480 -0.4269  1.8970
 1631TIP3   OH226451   5.005   3.056   2.693 -0.0414  0.2078 -0.0231
 1631TIP3    H126452   5.066   3.109   2.643 -0.2064 -0.3346 -0.8265
 1631TIP3    H226453   4.976   2.988   2.632  0.5416 -1.1130  1.1084
 1632TIP3   OH226454   4.651   0.280   7.463 -0.4141 -0.2349  0.2298
 1632TIP3    H126455   4.717   0.328   7.414  1.9068 -2.3496  1.0205
 1632TIP3    H226456   4.632   0.203   7.409  0.7748 -1.6265  1.6743
 1633TIP3   OH226457   3.860   5.293   6.988  0.1139 -0.1390  0.1013
 1633TIP3    H126458   3.817   5.237   7.052  0.7592 -0.8589 -0.0751
 1633TIP3    H226459   3.869   5.377   7.033 -0.6766 -0.2312  0.4492
 1634TIP3   OH226460   3.257   0.946   1.872  0.1421 -0.1520 -0.8968
 1634TIP3    H126461   3.204   0.873   1.903 -0.9991  0.5066 -1.2370
 1634TIP3    H226462   3.233   0.955   1.780 -0.2685  1.0902 -0.6849
 1635TIP3   OH226463   0.467   1.495   0.189 -0.2981 -0.2181  0.1055
 1635TIP3    H126464   0.412   1.452   0.255  0.6033 -1.3119  0.1780
 1635TIP3    H226465   0.412   1.563   0.152 -1.6109 -1.1179  0.3553
 1636TIP3   OH226466   1.232   5.020   1.216  0.3356 -0.5773 -0.1299
 1636TIP3    H126467   1.248   5.097   1.270  1.2206 -0.3104 -0.7502
 1636TIP3    H226468   1.280   4.949   1.260 -1.8995 -1.2318  1.4230
 1637TIP3   OH226469   6.684   1.692   1.928 -0.1297  0.4310  0.2692
 1637TIP3    H126470   6.669   1.710   1.836 -2.0409  0.8971  0.6240
 1637TIP3    H226471   6.617   1.628   1.952  0.1760  0.4970  1.3774
 1638TIP3   OH226472   6.153   4.754   7.758  0.6985 -0.0790  0.0628
 1638TIP3    H126473   6.179   4.783   7.670  1.2235  1.2643  0.6358
 1638TIP3    H226474   6.230   4.771   7.812  0.3743 -0.8934  0.8067
 1639TIP3   OH226475   1.087   3.503   1.062 -0.1097 -0.1337  0.0513
 1639TIP3    H126476   1.009   3.509   1.006  0.4622  0.4927 -0.6971
 1639TIP3    H226477   1.086   3.585   1.112  1.0231  0.7593 -1.2807
 1640TIP3   OH226478   5.980   4.118   8.051  0.3181  0.1529 -0.6456
 1640TIP3    H126479   6.058   4.119   8.107  1.8926 -0.1214 -2.7437
 1640TIP3    H226480   5.985   4.035   8.005 -1.7389 -0.2760 -0.2127
 1641TIP3   OH226481   4.939   0.894   7.218 -0.0308 -0.1450 -0.1531
 1641TIP3    H126482   4.904   0.805   7.208  0.5214 -0.3524 -0.2679
 1641TIP3    H226483   4.877   0.949   7.170  0.3113 -0.6257 -1.1978
 1642TIP3   OH226484   6.297   3.018   0.798 -0.1912 -0.1361  0.5847
 1642TIP3    H126485   6.270   2.968   0.875  0.9870 -1.8352 -0.0598
 1642TIP3    H226486   6.215   3.055   0.764 -1.3493 -2.7024  0.3550
 1643TIP3   OH226487   2.734   5.957   0.494  0.5449  0.1262 -0.4591
 1643TIP3    H126488   2.748   6.006   0.413  2.2553  0.2574 -0.1298
 1643TIP3    H226489   2.815   5.907   0.506  0.4132  0.2700  1.2838
 1644TIP3   OH226490   4.946   4.030   0.777  0.0685 -0.2519  0.3282
 1644TIP3    H126491   5.000   4.108   0.769 -0.8181  0.3704  0.3120
 1644TIP3    H226492   5.008   3.960   0.796  0.8844  0.4342  0.2341
 1645TIP3   OH226493   0.666   5.581   1.890 -0.7107  0.2023  0.1566
 1645TIP3    H126494   0.604   5.644   1.852 -3.2646 -0.1886  3.2564
 1645TIP3    H226495   0.642   5.577   1.983  1.0352 -3.4513  0.6063
 1646TIP3   OH226496   5.235   4.900   2.182 -0.1090  0.7927  0.2745
 1646TIP3    H126497   5.270   4.872   2.267  0.2233 -1.3066 -0.5048
 1646TIP3    H226498   5.141   4.887   2.189  0.1087 -1.5595 -0.3657
 1647TIP3   OH226499   1.001   2.720   7.942  0.2070 -0.1649 -0.4965
 1647TIP3    H126500   1.029   2.702   7.852  0.1866  1.5032 -0.8659
 1647TIP3    H226501   1.083   2.725   7.992  0.3234  0.3790 -0.7295
 1648TIP3   OH226502   6.656   3.209   1.756 -0.1383  0.0699 -0.3328
 1648TIP3    H126503   6.625   3.119   1.744  0.7097  0.1211 -4.1516
 1648TIP3    H226504   6.608   3.260   1.690  0.3823  2.1840  0.8417
 1649TIP3   OH226505   0.809   4.640   7.897  1.1401 -0.1794 -0.1916
 1649TIP3    H126506   0.769   4.726   7.909 -1.9888 -1.6863  1.3956
 1649TIP3    H226507   0.861   4.627   7.976 -0.6597 -0.7717  0.9644
 1650TIP3   OH226508   5.606   5.157   7.552  0.3745 -0.1976  0.0880
 1650TIP3    H126509   5.605   5.076   7.603  0.5987  1.1080  2.2923
 1650TIP3    H226510   5.514   5.178   7.538  0.3009 -1.3863 -1.5405
 1651TIP3   OH226511   2.349   1.693   1.319 -0.0895  0.0567  0.1595
 1651TIP3    H126512   2.262   1.720   1.289 -0.7875 -0.8442  1.2804
 1651TIP3    H226513   2.405   1.769   1.302 -1.0494  0.5906 -0.7403
 1652TIP3   OH226514   0.877   6.712   7.593  0.2899 -0.3314 -0.6472
 1652TIP3    H126515   0.927   6.793   7.586 -1.5317  0.8436 -0.5893
 1652TIP3    H226516   0.934   6.653   7.643  1.5153  1.0208 -0.3874
 1653TIP3   OH226517   4.113   2.003   8.150 -0.5183 -0.3834  0.1062
 1653TIP3    H126518   4.198   1.976   8.184 -1.1897 -1.6668  0.8373
 1653TIP3    H226519   4.125   2.094   8.125  0.9052 -0.3710  0.7432
 1654TIP3   OH226520   3.267   4.974   0.146  0.4551  0.3308  0.2365
 1654TIP3    H126521   3.255   4.899   0.089 -1.1607  1.7778 -1.4485
 1654TIP3    H226522   3.321   5.035   0.095 -1.1173  1.7065  0.1258
 1655TIP3   OH226523   6.044   3.100   0.799  0.1105  0.5301 -0.2002
 1655TIP3    H126524   6.013   3.183   0.764  3.2406  1.7296 -0.4134
 1655TIP3    H226525   5.999   3.091   0.883 -0.5392  2.2791 -0.3310
 1656TIP3   OH226526   0.930   0.147   1.821  0.1148 -0.3531 -0.1763
 1656TIP3    H126527   1.004   0.206   1.803 -0.5376  0.3546 -0.6078
 1656TIP3    H226528   0.917   0.152   1.915  0.0872  0.1819 -0.2048
 1657TIP3   OH226529   5.672   3.779   1.908 -0.1298 -0.2007 -0.0783
 1657TIP3    H126530   5.602   3.805   1.969  0.0593  1.8538 -0.6595
 1657TIP3    H226531   5.747   3.832   1.934  1.1222 -2.0017  0.2066
 1658TIP3   OH226532   5.858   6.035   6.858  0.5487  0.3684  0.4005
 1658TIP3    H126533   5.916   6.110   6.842  1.4173 -0.4809 -0.5797
 1658TIP3    H226534   5.888   5.999   6.941  1.1559  0.2023  0.1163
 1659TIP3   OH226535   3.486   6.590   6.685  0.0861  0.0422  0.5831
 1659TIP3    H126536   3.412   6.572   6.627 -0.8239 -1.2649  2.0501
 1659TIP3    H226537   3.545   6.516   6.673 -0.2911 -0.4454  1.5183
 1660TIP3   OH226538   1.059   0.975   6.370  0.1224  0.2107 -0.0047
 1660TIP3    H126539   1.105   0.932   6.298 -1.7166  0.2299 -1.2624
 1660TIP3    H226540   1.084   1.067   6.362 -0.1294  0.2269 -0.6891
 1661TIP3   OH226541   5.279   2.234   0.502 -0.1452  0.3809 -0.5168
 1661TIP3    H126542   5.359   2.283   0.523 -0.2306  0.6726 -0.8487
 1661TIP3    H226543   5.210   2.301   0.500 -0.6696 -0.0547  1.1706
 1662TIP3   OH226544   0.283   2.584   2.219  0.4764  0.6069  0.7452
 1662TIP3    H126545   0.194   2.555   2.198  0.3370  1.9662 -0.7514
 1662TIP3    H226546   0.283   2.594   2.314 -1.5756  2.3553  0.6421
 1663TIP3   OH226547   2.253   3.990   6.244 -0.0517 -0.3347  0.0884
 1663TIP3    H126548   2.288   3.922   6.186 -0.5097  0.5029 -1.2085
 1663TIP3    H226549   2.299   4.070   6.218 -0.7854  0.1929  0.3854
 1664TIP3   OH226550   2.387   3.077   1.422  0.4052 -0.4247 -0.0742
 1664TIP3    H126551   2.458   3.053   1.482 -1.2186 -1.4922  1.5341
 1664TIP3    H226552   2.399   3.019   1.347 -0.7277 -3.2514  1.7442
 1665TIP3   OH226553   2.031   6.567   1.154 -0.4538 -0.0469 -0.0712
 1665TIP3    H126554   2.020   6.487   1.206 -0.6679  0.1016  0.1129
 1665TIP3    H226555   1.982   6.634   1.202 -1.3454 -0.0910 -0.8892
 1666TIP3   OH226556   5.537   1.539   8.545 -0.7826  0.2477  0.0367
 1666TIP3    H126557   5.583   1.611   8.501 -0.7485  0.8952  1.1028
 1666TIP3    H226558   5.451   1.574   8.566 -0.1279  0.6481  2.2449
 1667TIP3   OH226559   2.487   3.924   0.717 -0.9858 -0.7641 -0.2077
 1667TIP3    H126560   2.431   3.957   0.647 -1.5806  0.3037  0.7397
 1667TIP3    H226561   2.576   3.950   0.691 -1.0247 -1.5105 -1.1743
 1668TIP3   OH226562   2.401   4.439   1.141 -0.1742 -0.3803  0.2583
 1668TIP3    H126563   2.423   4.523   1.181  0.2067 -0.0010 -0.7247
 1668TIP3    H226564   2.326   4.407   1.191 -2.5921  2.1589 -1.4871
 1669TIP3   OH226565   5.340   1.921   2.240  0.7940 -1.0517  0.0109
 1669TIP3    H126566   5.385   1.958   2.316 -1.4416 -0.3799  1.0903
 1669TIP3    H226567   5.354   1.985   2.171  0.0294  0.0701  0.8492
 1670TIP3   OH226568   2.992   0.940   0.756 -0.1537 -0.0045 -0.2684
 1670TIP3    H126569   3.032   1.026   0.756 -0.7143  0.3041 -2.2998
 1670TIP3    H226570   2.900   0.956   0.734 -0.5399 -1.0212  0.5088
 1671TIP3   OH226571   1.206   1.240   2.294 -0.5610 -0.3724  0.1541
 1671TIP3    H126572   1.197   1.199   2.208 -0.5109 -2.0433  0.9051
 1671TIP3    H226573   1.170   1.175   2.355 -0.3297  0.6573  1.4210
 1672TIP3   OH226574   1.399   0.669   1.677 -0.0559  0.1162 -0.2528
 1672TIP3    H126575   1.375   0.745   1.730  1.2993 -0.9049  1.9778
 1672TIP3    H226576   1.477   0.696   1.629 -0.3522  0.5339 -0.5058
 1673TIP3   OH226577   2.849   6.481   7.237 -0.0699  0.0766  0.4185
 1673TIP3    H126578   2.895   6.453   7.158  0.4953  0.9798  0.4136
 1673TIP3    H226579   2.817   6.400   7.277  1.5293 -0.5787  0.4160
 1674TIP3   OH226580   1.595   1.809   0.717  0.0769  0.3622  0.1270
 1674TIP3    H126581   1.517   1.824   0.770 -0.7619  1.2918 -1.3035
 1674TIP3    H226582   1.668   1.824   0.778 -0.8368  2.2099  0.8671
 1675TIP3   OH226583   3.633   6.201   1.771  0.4374  0.0732 -0.6566
 1675TIP3    H126584   3.609   6.245   1.689  0.4845  0.2346 -0.5839
 1675TIP3    H226585   3.719   6.238   1.793 -0.2841  1.2619  0.3352
 1676TIP3   OH226586   2.405   1.013   1.562 -0.0319 -0.2114 -0.2352
 1676TIP3    H126587   2.357   1.085   1.602  0.3118  0.0748 -0.3323
 1676TIP3    H226588   2.445   1.051   1.484  0.5194 -0.3845 -0.0442
 1677TIP3   OH226589   5.143   0.725   0.182 -0.4089  0.1549  0.3994
 1677TIP3    H126590   5.203   0.653   0.163  0.5841  1.0491  0.0419
 1677TIP3    H226591   5.193   0.804   0.162 -0.9743  1.0032  2.1270
 1678TIP3   OH226592   0.532   4.725   1.236 -0.6513  0.0069 -0.1048
 1678TIP3    H126593   0.593   4.799   1.232  0.1571 -0.4596  1.9393
 1678TIP3    H226594   0.521   4.709   1.330 -2.7441 -0.9271 -0.4558
 1679TIP3   OH226595   6.439   3.566   1.363 -0.3188  0.0376  0.2621
 1679TIP3    H126596   6.493   3.644   1.350 -1.7697  1.1248  0.5221
 1679TIP3    H226597   6.429   3.529   1.276  1.4642 -0.6391  0.3098
 1680TIP3   OH226598   1.795   0.988   7.492  0.2039 -0.0880  0.2123
 1680TIP3    H126599   1.799   0.984   7.587 -0.5196  0.6824  0.2899
 1680TIP3    H226600   1.703   0.973   7.471  0.2009  0.5900 -0.3045
 1681TIP3   OH226601   3.709   6.043   0.372 -0.1929 -0.5993 -0.2057
 1681TIP3    H126602   3.723   5.962   0.324  0.2693  0.4597 -1.9387
 1681TIP3    H226603   3.700   6.110   0.304 -0.8431  0.7661  1.1682
 1682TIP3   OH226604   5.262   5.087   7.024 -0.1931 -0.0147  0.3412
 1682TIP3    H126605   5.338   5.142   7.043 -2.2298  2.6413  1.4717
 1682TIP3    H226606   5.216   5.080   7.108 -1.6399 -0.8257 -0.4777
 1683TIP3   OH226607   6.637   5.901   8.310 -0.3692  0.9351 -0.3315
 1683TIP3    H126608   6.704   5.908   8.242  1.3012 -0.4555  1.0735
 1683TIP3    H226609   6.555   5.917   8.263  0.7722  1.0370 -2.4637
 1684TIP3   OH226610   0.657   4.287   0.079  0.0937 -0.1761  0.2487
 1684TIP3    H126611   0.626   4.260  -0.007  0.2343 -0.3044  0.2384
 1684TIP3    H226612   0.606   4.232   0.140 -0.3143  0.2137  0.2664
 1685TIP3   OH226613   3.802   3.193   7.801  0.0675  0.2974  0.1803
 1685TIP3    H126614   3.735   3.134   7.767  0.9738  0.3052 -1.7607
 1685TIP3    H226615   3.877   3.136   7.820 -0.4037  0.2954  2.2741
 1686TIP3   OH226616   1.820   0.627   0.705  0.5265  0.2015 -0.0733
 1686TIP3    H126617   1.731   0.616   0.740  0.7471  1.7435  1.0432
 1686TIP3    H226618   1.817   0.583   0.620 -0.4443 -2.4149  1.1962
 1687TIP3   OH226619   0.675   0.505   6.872  0.0903 -0.0154  0.4858
 1687TIP3    H126620   0.670   0.550   6.788  0.9070  1.9689  1.4453
 1687TIP3    H226621   0.598   0.535   6.920  0.8918  0.7915  1.3106
 1688TIP3   OH226622   1.880   4.770   2.787  0.4144 -0.2730 -0.5727
 1688TIP3    H126623   1.948   4.718   2.828  0.8459  0.8117  0.1479
 1688TIP3    H226624   1.891   4.858   2.825 -1.3091 -0.0477 -0.5083
 1689TIP3   OH226625   1.000   5.983   2.510  0.3211 -0.2330  0.3175
 1689TIP3    H126626   0.948   6.046   2.459 -1.4666  0.4413  2.7914
 1689TIP3    H226627   1.088   6.021   2.512 -0.3471  1.3933  0.4123
 1690TIP3   OH226628   5.342   4.160   1.339 -0.3055  0.0011  0.0593
 1690TIP3    H126629   5.373   4.135   1.426 -1.4208 -0.0698  0.4591
 1690TIP3    H226630   5.327   4.077   1.294  0.7643  0.0397 -0.4071
 1691TIP3   OH226631   3.719   6.761   2.689  0.3556 -0.5174 -0.2922
 1691TIP3    H126632   3.731   6.686   2.632  0.5394 -0.4119 -0.3923
 1691TIP3    H226633   3.636   6.799   2.662 -0.2926 -1.3373  0.5019
 1692TIP3   OH226634   3.264   4.748   6.692  0.0851  0.2414  0.6421
 1692TIP3    H126635   3.246   4.841   6.679 -0.0025  0.4452  2.1251
 1692TIP3    H226636   3.356   4.739   6.667  0.3567  0.9179  1.3482
 1693TIP3   OH226637   2.933   4.228   1.037  0.1607 -0.0644  0.0207
 1693TIP3    H126638   2.903   4.270   0.956 -2.0347  1.5673  1.5440
 1693TIP3    H226639   2.995   4.290   1.075  0.5376 -0.4319  0.0123
 1694TIP3   OH226640   5.577   6.579   7.243 -0.3184 -0.1247 -0.1028
 1694TIP3    H126641   5.558   6.668   7.214  0.9096  0.5773  1.1254
 1694TIP3    H226642   5.599   6.531   7.163  0.0346  0.9598 -0.6697
 1695TIP3   OH226643   0.473   6.577   2.133 -0.2034  0.2088  0.6952
 1695TIP3    H126644   0.397   6.543   2.179 -0.4724 -2.6939 -1.6156
 1695TIP3    H226645   0.450   6.572   2.040  1.6674  2.2783  0.0122
 1696TIP3   OH226646   2.783   0.381   1.217 -0.2418 -0.1400 -0.3457
 1696TIP3    H126647   2.803   0.357   1.307  1.0882  1.9738 -0.0146
 1696TIP3    H226648   2.776   0.297   1.170 -0.2123 -1.2389  1.5390
 1697TIP3   OH226649   5.904   3.148   0.074 -0.1002 -0.0671  0.6917
 1697TIP3    H126650   5.901   3.076   0.137 -2.0518 -1.1474 -0.5252
 1697TIP3    H226651   5.828   3.201   0.094 -0.5373 -0.2169 -0.4755
 1698TIP3   OH226652   5.050   4.234   7.075  0.1981 -0.4184  0.4996
 1698TIP3    H126653   5.108   4.245   7.000 -1.1951  0.5831 -0.4821
 1698TIP3    H226654   4.973   4.286   7.054 -0.9601 -1.4723  1.8874
 1699TIP3   OH226655   3.222   4.552   1.897  0.1593 -0.0813  0.5068
 1699TIP3    H126656   3.218   4.640   1.937 -1.1087 -0.2700  0.8265
 1699TIP3    H226657   3.301   4.514   1.934 -0.4921  0.0887  2.2006
 1700TIP3   OH226658   6.299   6.842   0.326  0.2580  0.1096 -0.4574
 1700TIP3    H126659   6.311   6.796   0.242 -3.5276 -0.9821 -0.5875
 1700TIP3    H226660   6.237   6.912   0.306 -1.5449 -0.8014  1.5049
 1701TIP3   OH226661   3.141   1.109   0.128 -0.1846  0.5960  0.0730
 1701TIP3    H126662   3.063   1.104   0.072  0.9599  0.5258 -1.5967
 1701TIP3    H226663   3.182   1.192   0.105  1.1805 -0.1740 -0.4275
 1702TIP3   OH226664   6.665   3.189   8.057 -0.0025  0.5012  0.4532
 1702TIP3    H126665   6.573   3.196   8.081 -0.3856  1.6915 -1.1770
 1702TIP3    H226666   6.670   3.111   8.002  0.1754 -0.1251  1.3356
 1703TIP3   OH226667   3.610   5.427   7.202 -0.5112 -0.2291 -0.5823
 1703TIP3    H126668   3.675   5.497   7.198  0.5940 -1.1646  0.2097
 1703TIP3    H226669   3.601   5.409   7.296 -0.7443 -1.1581 -0.7713
 1704TIP3   OH226670   3.593   3.314   1.389 -0.1080 -0.1475  0.8118
 1704TIP3    H126671   3.634   3.247   1.444  1.9969 -0.3934 -0.9356
 1704TIP3    H226672   3.603   3.281   1.300 -1.2292  1.3740  0.0892
 1705TIP3   OH226673   6.823   1.062   8.346 -0.1603 -0.0844 -0.0389
 1705TIP3    H126674   6.862   0.985   8.388 -2.6084 -1.2422  0.2659
 1705TIP3    H226675   6.775   1.106   8.417  1.6174  2.1220 -0.0700
 1706TIP3   OH226676   6.803   0.996   2.794 -0.1509  0.7245 -0.2583
 1706TIP3    H126677   6.766   0.918   2.835  1.0874  0.1863 -0.0896
 1706TIP3    H226678   6.779   0.989   2.702  0.5228 -0.2506 -0.3820
 1707TIP3   OH226679   1.874   3.398   7.180  0.1465 -0.2261 -0.0092
 1707TIP3    H126680   1.826   3.480   7.168 -0.5596 -0.4698  1.0649
 1707TIP3    H226681   1.966   3.424   7.173 -0.0811  0.5647 -0.2379
 1708TIP3   OH226682   0.233   1.922   0.002  0.1712  0.0771 -0.1069
 1708TIP3    H126683   0.160   1.876  -0.039  0.3703  0.5767 -1.0599
 1708TIP3    H226684   0.296   1.935  -0.068  0.5711  0.8763  0.3758
 1709TIP3   OH226685   6.727   4.660   1.261 -0.4746 -0.4237  0.2566
 1709TIP3    H126686   6.815   4.664   1.224 -0.9594 -1.1837 -1.0113
 1709TIP3    H226687   6.742   4.656   1.356  0.9542 -2.4773  0.0156
 1710TIP3   OH226688   2.072   3.769   0.808  0.3563 -0.1682 -0.6003
 1710TIP3    H126689   2.092   3.759   0.715  0.1534  1.3266 -0.8285
 1710TIP3    H226690   2.156   3.759   0.853  0.7363  0.7815 -1.0934
 1711TIP3   OH226691   1.733   2.743   0.622  0.1278 -0.0555  0.1023
 1711TIP3    H126692   1.668   2.686   0.663  0.0551  1.5610  2.4307
 1711TIP3    H226693   1.785   2.685   0.567 -1.5126 -1.8809  0.3918
 1712TIP3   OH226694   2.411   2.038   0.010  0.0566  0.2451  0.1632
 1712TIP3    H126695   2.473   1.967  -0.008 -1.9093 -1.5917  0.2558
 1712TIP3    H226696   2.415   2.050   0.105 -0.2462 -0.3705  0.2556
 1713TIP3   OH226697   1.424   0.853   6.981  0.1165  0.3166 -0.2522
 1713TIP3    H126698   1.394   0.939   7.011 -0.5820  0.0654 -0.2114
 1713TIP3    H226699   1.474   0.872   6.901 -2.4880  0.5220 -1.9393
 1714TIP3   OH226700   1.058   3.253   1.126  0.4380  0.4602 -0.3177
 1714TIP3    H126701   1.021   3.220   1.044 -0.9439  0.8850  0.1119
 1714TIP3    H226702   1.086   3.342   1.105 -0.5468  0.8196 -0.1790
 1715TIP3   OH226703   2.184   3.718   6.444  0.0752  0.1636  0.6555
 1715TIP3    H126704   2.178   3.811   6.425 -0.6897 -0.0415 -0.1444
 1715TIP3    H226705   2.185   3.676   6.358  0.2459 -0.5748  1.0143
 1716TIP3   OH226706   4.525   4.502   8.413 -0.0855  0.2692 -0.3270
 1716TIP3    H126707   4.477   4.532   8.491 -1.0842  0.0064 -0.8317
 1716TIP3    H226708   4.490   4.415   8.395 -0.9207  0.9079 -1.9238
 1717TIP3   OH226709   1.900   2.467   7.830  0.0702  0.1450 -0.4149
 1717TIP3    H126710   1.891   2.371   7.827  0.4617  0.0997 -0.1917
 1717TIP3    H226711   1.812   2.498   7.854  0.0125 -0.1766 -0.1901
 1718TIP3   OH226712   1.596   3.157   0.993  0.3717 -0.2383  0.1062
 1718TIP3    H126713   1.521   3.124   1.042  0.9157  0.2092  1.2658
 1718TIP3    H226714   1.672   3.117   1.035  0.8071 -0.5623 -0.9521
 1719TIP3   OH226715   1.687   1.477   8.432  0.2489  0.4591  0.2144
 1719TIP3    H126716   1.732   1.516   8.507  0.2454  0.3278  0.2851
 1719TIP3    H226717   1.710   1.384   8.436 -0.5719  0.2661  0.6424
 1720TIP3   OH226718   4.775   0.553   8.303  0.1473  0.1844 -0.3472
 1720TIP3    H126719   4.794   0.488   8.371 -2.9210  1.2829  1.7897
 1720TIP3    H226720   4.741   0.502   8.230  0.2351 -0.8012  0.2850
 1721TIP3   OH226721   5.526   6.879   8.271  0.3645  0.2723 -0.7651
 1721TIP3    H126722   5.519   6.925   8.355  0.3085  1.3472 -1.3431
 1721TIP3    H226723   5.470   6.929   8.212  0.6592 -0.2850 -1.5236
 1722TIP3   OH226724   4.910   3.347   0.847 -0.8019  0.2084  0.1244
 1722TIP3    H126725   4.995   3.386   0.827 -0.3560 -1.4255 -1.4575
 1722TIP3    H226726   4.846   3.405   0.806 -0.5098  1.6279  1.6099
 1723TIP3   OH226727   5.322   3.677   8.043 -0.0731  0.0137 -0.6318
 1723TIP3    H126728   5.227   3.666   8.036 -0.0435  0.3411 -1.6858
 1723TIP3    H226729   5.346   3.726   7.965  0.7166  1.5923  0.5508
 1724TIP3   OH226730   2.339   5.660   0.570  0.0309 -0.0129 -0.0376
 1724TIP3    H126731   2.263   5.692   0.522  0.5453 -1.3494 -1.8402
 1724TIP3    H226732   2.402   5.636   0.502  0.3026 -3.2303  1.1756
 1725TIP3   OH226733   2.727   2.268   6.766 -0.0977 -0.5485  0.1292
 1725TIP3    H126734   2.686   2.205   6.708  0.5064 -1.2301  0.4264
 1725TIP3    H226735   2.707   2.236   6.854  0.3976 -0.4499  0.2809
 1726TIP3   OH226736   4.017   5.406   7.833  0.5915  0.5246 -0.4184
 1726TIP3    H126737   4.011   5.311   7.824 -2.7167  0.8157 -2.7801
 1726TIP3    H226738   3.956   5.428   7.904  2.9225  0.8516  1.6287
 1727TIP3   OH226739   5.820   3.351   1.186  0.0907  0.1459 -0.1058
 1727TIP3    H126740   5.845   3.409   1.115  1.4208 -1.1312 -0.7232
 1727TIP3    H226741   5.895   3.292   1.198 -0.9280 -1.0285  0.9303
 1728TIP3   OH226742   1.946   1.175   1.103 -0.3617 -0.1500 -0.3467
 1728TIP3    H126743   1.907   1.201   1.020  0.6084  1.0947 -0.4526
 1728TIP3    H226744   1.902   1.229   1.169 -0.5630 -0.5449 -0.1572
 1729TIP3   OH226745   4.845   5.584   7.076  0.0599 -0.7196 -0.0130
 1729TIP3    H126746   4.785   5.638   7.024 -0.3904 -0.9736  0.2381
 1729TIP3    H226747   4.848   5.500   7.031  0.3948 -0.6439 -0.1400
 1730TIP3   OH226748   1.427   5.003   0.973 -0.2148 -0.0576  0.4660
 1730TIP3    H126749   1.371   5.009   1.050 -1.2110 -3.0326  0.0767
 1730TIP3    H226750   1.507   4.960   1.005 -0.6992 -1.4568 -0.1483
 1731TIP3   OH226751   1.822   3.581   7.838 -0.5755 -0.5379  0.1350
 1731TIP3    H126752   1.841   3.674   7.824  1.9277 -1.0104  0.0570
 1731TIP3    H226753   1.756   3.580   7.907  1.7897  1.2605  2.6310
 1732TIP3   OH226754   1.025   2.666   6.396  0.4649 -0.1042 -0.4720
 1732TIP3    H126755   1.094   2.604   6.420  0.8316  0.4788  0.0165
 1732TIP3    H226756   0.970   2.618   6.334 -0.5893 -1.7355  1.5851
 1733TIP3   OH226757   0.301   1.586   8.527  0.1830 -0.4643 -0.5242
 1733TIP3    H126758   0.286   1.494   8.504 -0.5540  0.3848 -4.0621
 1733TIP3    H226759   0.393   1.601   8.506  0.2880 -0.3520  0.0003
 1734TIP3   OH226760   1.012   5.315   0.426  0.3091 -0.1113  0.1215
 1734TIP3    H126761   0.958   5.302   0.348 -0.3346 -0.6543  0.6448
 1734TIP3    H226762   1.102   5.304   0.394  0.0561 -0.3090 -0.5519
 1735TIP3   OH226763   4.242   1.533   7.253  0.1198  0.8191  0.1509
 1735TIP3    H126764   4.245   1.620   7.214 -0.1685  0.0962 -1.6180
 1735TIP3    H226765   4.330   1.519   7.288  0.5842  1.2957 -0.7932
 1736TIP3   OH226766   0.685   4.440   7.395  0.2266 -0.1545 -0.0347
 1736TIP3    H126767   0.722   4.513   7.445 -0.2054 -0.6404  1.0263
 1736TIP3    H226768   0.592   4.441   7.416  0.1089 -0.6227 -0.5164
 1737TIP3   OH226769   5.518   5.516   7.835  0.5497 -0.0341  0.4640
 1737TIP3    H126770   5.553   5.594   7.878 -0.5021  0.3899  0.5938
 1737TIP3    H226771   5.507   5.542   7.744  1.3163 -0.4258  0.2559
 1738TIP3   OH226772   4.763   5.364   2.275  0.4062 -0.1615  0.3230
 1738TIP3    H126773   4.706   5.347   2.350 -1.0348 -0.6704 -0.8500
 1738TIP3    H226774   4.852   5.351   2.309 -0.1304  0.8192  2.2323
 1739TIP3   OH226775   3.291   3.654   2.288 -0.0361 -0.2588  0.5122
 1739TIP3    H126776   3.357   3.688   2.348  0.8934 -0.2929 -0.4507
 1739TIP3    H226777   3.330   3.573   2.254 -0.0531  0.2968 -0.9141
 1740TIP3   OH226778   6.693   4.173   2.110  0.1838  0.7065 -0.3383
 1740TIP3    H126779   6.642   4.096   2.137  0.6052  0.3069 -0.6661
 1740TIP3    H226780   6.628   4.234   2.076  0.0905 -0.6233 -2.7401
 1741TIP3   OH226781   5.910   3.327   0.682 -0.2917  0.0708 -0.1381
 1741TIP3    H126782   5.816   3.312   0.679 -0.5174  1.1568  0.7638
 1741TIP3    H226783   5.924   3.409   0.635  0.1905 -0.0383 -0.1961
 1742TIP3   OH226784   1.171   1.691   1.895  0.0966  0.0035  0.4806
 1742TIP3    H126785   1.121   1.762   1.935  0.3627  0.0529  0.7337
 1742TIP3    H226786   1.211   1.730   1.818 -0.4027 -0.0856  0.1725
 1743TIP3   OH226787   4.859   1.156   7.699  0.0337  0.5468  0.2545
 1743TIP3    H126788   4.809   1.142   7.619 -0.5275  1.1692  0.4843
 1743TIP3    H226789   4.906   1.238   7.685 -0.6095  1.0300  0.8111
 1744TIP3   OH226790   5.978   3.912   6.770  0.2146 -0.5035 -0.2608
 1744TIP3    H126791   5.913   3.972   6.736 -2.6598 -1.5030  2.8965
 1744TIP3    H226792   5.974   3.836   6.712  0.4713  0.4217 -1.5362
 1745TIP3   OH226793   6.377   2.505   0.242  0.0162  0.0013 -0.0689
 1745TIP3    H126794   6.465   2.541   0.254 -0.0741  0.3226 -0.3532
 1745TIP3    H226795   6.327   2.577   0.203 -0.1282 -0.4748 -0.7782
 1746TIP3   OH226796   0.453   0.203   0.945  0.3892  0.2480 -0.2179
 1746TIP3    H126797   0.437   0.295   0.926 -1.6259  0.1131  0.5873
 1746TIP3    H226798   0.394   0.183   1.018  2.0107 -1.2589  0.7701
 1747TIP3   OH226799   4.547   5.170   0.348  0.5651 -0.1232  0.5534
 1747TIP3    H126800   4.452   5.164   0.351  0.5767 -0.1068  1.4675
 1747TIP3    H226801   4.568   5.180   0.256 -0.3259 -0.0291  0.3514
 1748TIP3   OH226802   3.500   6.683   1.632 -0.0233 -0.7120 -0.3880
 1748TIP3    H126803   3.591   6.711   1.639  0.1876 -1.2504 -0.9277
 1748TIP3    H226804   3.462   6.739   1.564  0.1136 -1.0177 -0.7159
 1749TIP3   OH226805   4.330   6.184   7.780 -0.6867  0.6432 -0.0646
 1749TIP3    H126806   4.401   6.222   7.832  0.4627 -1.4200 -0.0298
 1749TIP3    H226807   4.271   6.257   7.764  0.6624  2.0976  1.2161
 1750TIP3   OH226808   1.960   1.948   7.510  0.0621 -0.1584  0.6753
 1750TIP3    H126809   2.031   1.912   7.563  0.6397  1.4189  1.0237
 1750TIP3    H226810   1.986   1.933   7.420  1.4025  1.3720  0.7745
 1751TIP3   OH226811   3.041   0.332   1.989  0.1653  0.3647  0.1936
 1751TIP3    H126812   3.046   0.394   1.916  0.5890  0.1488  0.0364
 1751TIP3    H226813   3.077   0.379   2.064  0.9528  0.1489 -0.0375
 1752TIP3   OH226814   5.873   5.250   7.453 -0.0592  0.0770  0.2737
 1752TIP3    H126815   5.944   5.203   7.496 -1.1189 -1.4604  0.4258
 1752TIP3    H226816   5.800   5.247   7.515 -1.0225 -0.5397 -0.8414
 1753TIP3   OH226817   5.725   3.950   8.312 -0.0461  0.0026 -0.0909
 1753TIP3    H126818   5.791   3.975   8.377 -1.2413 -0.7638  1.4946
 1753TIP3    H226819   5.767   3.882   8.260  0.3602 -0.6956  1.0922
 1754TIP3   OH226820   6.684   1.084   1.501  0.3034  0.2503  0.4198
 1754TIP3    H126821   6.728   1.043   1.575  0.3121  1.0155  0.8433
 1754TIP3    H226822   6.741   1.065   1.426  2.2000  2.4480  1.1835
 1755TIP3   OH226823   5.438   1.561   1.669  0.6278  0.8197 -0.0398
 1755TIP3    H126824   5.344   1.577   1.672  0.7417  1.4422  0.3465
 1755TIP3    H226825   5.446   1.466   1.660 -0.0415  0.8408 -0.9143
 1756TIP3   OH226826   2.101   5.788   2.302 -0.3428  0.2212  0.0041
 1756TIP3    H126827   2.058   5.766   2.384 -1.6793  0.5196 -0.5911
 1756TIP3    H226828   2.163   5.857   2.325 -1.0525  0.6449  0.6868
 1757TIP3   OH226829   5.094   0.973   1.815  0.3766 -0.2189 -0.0075
 1757TIP3    H126830   5.059   0.888   1.842  2.1033 -1.0645 -0.2744
 1757TIP3    H226831   5.160   0.993   1.881 -0.6369  1.3752  0.5533
 1758TIP3   OH226832   0.015   4.847   7.432 -0.1740 -0.6637 -0.2931
 1758TIP3    H126833   0.018   4.754   7.457 -2.7042 -1.0678 -1.1430
 1758TIP3    H226834   0.010   4.845   7.336  1.4869  0.4874 -0.4446
 1759TIP3   OH226835   2.730   4.386   8.012  0.3502  0.0077 -0.9410
 1759TIP3    H126836   2.821   4.363   7.993  0.2811  0.3528 -1.7299
 1759TIP3    H226837   2.735   4.453   8.080  0.7230  0.6757 -1.6247
 1760TIP3   OH226838   4.678   1.261   8.328 -0.4523  0.2276 -0.7524
 1760TIP3    H126839   4.760   1.261   8.279  0.0158 -0.3823 -0.0013
 1760TIP3    H226840   4.690   1.194   8.396 -0.3717  2.2070  1.3196
 1761TIP3   OH226841   6.625   2.905   1.669  0.1920  0.0272 -0.0451
 1761TIP3    H126842   6.548   2.916   1.612  0.2378  0.9606  0.0638
 1761TIP3    H226843   6.592   2.859   1.746  0.1991 -1.5881 -0.9644
 1762TIP3   OH226844   0.685   2.583   0.600 -0.0062 -0.3826 -0.4047
 1762TIP3    H126845   0.711   2.515   0.662 -1.6316 -1.4957 -0.8780
 1762TIP3    H226846   0.750   2.578   0.530  0.1090 -1.1971 -0.2482
 1763TIP3   OH226847   5.860   4.143   7.750 -0.6208  0.2556 -0.1213
 1763TIP3    H126848   5.881   4.070   7.809  0.1959 -0.5905 -1.4147
 1763TIP3    H226849   5.838   4.215   7.809 -0.7292 -0.8131  1.2083
 1764TIP3   OH226850   5.348   0.509   1.980 -0.8777  0.2128  0.1612
 1764TIP3    H126851   5.278   0.553   1.932 -0.0555  1.0148 -0.3562
 1764TIP3    H226852   5.307   0.432   2.019 -1.4349 -0.9999 -2.5702
 1765TIP3   OH226853   0.245   6.148   8.348 -0.5579  0.4646 -0.0763
 1765TIP3    H126854   0.248   6.236   8.310  1.1629  0.7145  0.5520
 1765TIP3    H226855   0.328   6.138   8.393 -1.0156 -1.2332  0.4891
 1766TIP3   OH226856   6.297   0.445   1.152  0.1251  0.3248 -0.6505
 1766TIP3    H126857   6.341   0.400   1.224 -0.9389 -0.1823 -0.2938
 1766TIP3    H226858   6.339   0.532   1.149  1.0947 -0.1164 -0.3094
 1767TIP3   OH226859   2.638   2.829   0.569  0.2597 -0.0161  0.2591
 1767TIP3    H126860   2.699   2.878   0.514 -0.4114 -0.0422 -0.5384
 1767TIP3    H226861   2.670   2.841   0.658 -0.0563  2.1729  0.1445
 1768TIP3   OH226862   5.873   6.832   1.487 -0.0441 -0.2943  0.2324
 1768TIP3    H126863   5.914   6.753   1.453 -0.4171 -1.3261  2.0858
 1768TIP3    H226864   5.933   6.863   1.555 -0.4252  0.4331  0.2522
 1769TIP3   OH226865   5.849   2.374   6.865 -0.2297 -1.1044 -0.6879
 1769TIP3    H126866   5.780   2.360   6.801  0.0996  0.7358 -1.4980
 1769TIP3    H226867   5.819   2.329   6.944 -3.2735  1.0854 -0.4246
 1770TIP3   OH226868   5.338   1.078   1.555  0.3387  0.4960  0.0774
 1770TIP3    H126869   5.310   0.991   1.528  2.0909 -0.2473  0.4767
 1770TIP3    H226870   5.263   1.114   1.602 -0.5744 -0.6080 -0.4852
 1771TIP3   OH226871   0.674   6.860   7.296  0.5512  0.4328 -0.2178
 1771TIP3    H126872   0.680   6.890   7.387  0.6593  1.0399 -0.4258
 1771TIP3    H226873   0.607   6.914   7.256  0.2709 -0.0536 -0.4204
 1772TIP3   OH226874   1.089   3.688   6.740  0.0708  0.4278  0.1335
 1772TIP3    H126875   1.168   3.740   6.723  0.1195  0.3458  0.1105
 1772TIP3    H226876   1.100   3.609   6.687 -0.4847  0.8587 -0.6447
 1773TIP3   OH226877   6.735   2.319   0.181 -0.4845  0.2950 -0.0642
 1773TIP3    H126878   6.826   2.291   0.181 -1.1875 -2.2733 -0.7635
 1773TIP3    H226879   6.736   2.405   0.139  1.4986 -0.1035 -0.9352
 1774TIP3   OH226880   0.483   5.295   0.893 -0.3750 -0.5881  0.3736
 1774TIP3    H126881   0.569   5.254   0.900 -0.1911 -0.5184 -1.0837
 1774TIP3    H226882   0.488   5.346   0.812 -0.3026  3.0527  2.4437
 1775TIP3   OH226883   0.468   1.197   7.440  0.0400 -0.2973  0.3198
 1775TIP3    H126884   0.480   1.155   7.356 -0.6442 -2.1346  1.1014
 1775TIP3    H226885   0.470   1.291   7.420  1.6468 -0.6410 -1.4627
 1776TIP3   OH226886   4.936   3.043   1.350  0.1511 -0.1305 -0.4095
 1776TIP3    H126887   4.966   3.061   1.261 -0.5987 -0.9182 -0.8389
 1776TIP3    H226888   4.965   2.954   1.367  0.0074 -0.0989  0.0136
 1777TIP3   OH226889   6.376   6.147   1.258 -0.0169 -0.6433  0.1953
 1777TIP3    H126890   6.286   6.142   1.290 -0.1412  0.8395  0.1715
 1777TIP3    H226891   6.372   6.211   1.187  1.2143  0.1694  0.8232
 1778TIP3   OH226892   3.571   6.275   0.934  0.0666 -0.3234 -0.8508
 1778TIP3    H126893   3.498   6.274   0.996  1.2247  1.6148  0.6433
 1778TIP3    H226894   3.627   6.202   0.961  0.5792  0.5216  0.4740
 1779TIP3   OH226895   0.166   6.307   1.653 -0.2133 -0.4474 -0.1251
 1779TIP3    H126896   0.106   6.338   1.585 -0.4646 -0.0780  0.2592
 1779TIP3    H226897   0.153   6.212   1.655 -0.6512 -0.3891 -0.1697
 1780TIP3   OH226898   3.080   4.932   7.273 -0.5543 -0.4183 -0.3339
 1780TIP3    H126899   3.097   4.998   7.206  0.6405 -0.1978  0.1637
 1780TIP3    H226900   3.154   4.871   7.267 -0.6464 -0.6310  0.4929
 1781TIP3   OH226901   0.838   5.166   0.718 -0.2337 -0.2491  0.3738
 1781TIP3    H126902   0.931   5.143   0.717 -0.4936 -1.4007  0.1456
 1781TIP3    H226903   0.821   5.204   0.632 -0.0730 -0.5252  0.2177
 1782TIP3   OH226904   3.043   0.011   1.474  0.1662  0.1073  0.5804
 1782TIP3    H126905   3.060  -0.009   1.566  2.0337 -1.5807 -0.0411
 1782TIP3    H226906   2.949   0.028   1.470 -0.2796 -1.4660  2.5364
 1783TIP3   OH226907   4.918   1.439   1.534 -0.3022 -0.1633  0.4359
 1783TIP3    H126908   4.869   1.511   1.495  0.8411  1.6754  2.2251
 1783TIP3    H226909   4.861   1.404   1.601 -1.1436 -1.4844 -0.8955
 1784TIP3   OH226910   2.414   0.784   7.831  0.4350 -0.0168 -0.0793
 1784TIP3    H126911   2.447   0.764   7.919  1.1229  1.4961  0.0281
 1784TIP3    H226912   2.331   0.828   7.847  0.1217 -0.5459 -0.2305
 1785TIP3   OH226913   3.791   4.812   8.249 -0.0555 -0.3852  0.0645
 1785TIP3    H126914   3.731   4.859   8.307  1.0007 -0.3573  1.1744
 1785TIP3    H226915   3.785   4.721   8.278  2.0106 -0.0815  1.6856
 1786TIP3   OH226916   6.492   2.958   1.926  0.1771  0.5080  0.6149
 1786TIP3    H126917   6.428   3.019   1.889 -0.5604 -1.2895 -1.2672
 1786TIP3    H226918   6.504   2.989   2.016  0.1767  3.6315 -0.3229
 1787TIP3   OH226919   6.006   4.714   2.151 -0.2495  0.0165 -0.5468
 1787TIP3    H126920   5.992   4.808   2.146 -0.0049  0.0104 -1.4349
 1787TIP3    H226921   5.988   4.681   2.063 -0.7688 -0.8369 -0.1439
 1788TIP3   OH226922   6.651   5.741   2.025 -0.7432  0.3833  0.3811
 1788TIP3    H126923   6.602   5.818   1.996 -2.0021 -1.1260 -1.8610
 1788TIP3    H226924   6.653   5.684   1.948  0.0870 -1.8534  1.9514
 1789TIP3   OH226925   4.928   0.856   0.798 -0.0105 -0.1165 -0.0231
 1789TIP3    H126926   4.969   0.889   0.718  1.0790 -1.0266  0.1442
 1789TIP3    H226927   4.838   0.836   0.772  0.1664  0.1508 -0.8703
 1790TIP3   OH226928   0.456   1.582   0.783 -0.6160 -0.1093  0.1911
 1790TIP3    H126929   0.409   1.643   0.726  1.1148  1.1440  0.0221
 1790TIP3    H226930   0.534   1.631   0.811  1.5566 -2.6625 -0.9925
 1791TIP3   OH226931   2.338   6.171   8.297 -0.1867  0.3659 -1.0200
 1791TIP3    H126932   2.392   6.106   8.251 -1.5541 -0.9736 -0.8224
 1791TIP3    H226933   2.265   6.187   8.237  0.2222  1.8887 -1.1378
 1792TIP3   OH226934   1.836   1.265   7.708 -0.4380  0.0525  0.5960
 1792TIP3    H126935   1.742   1.281   7.698 -0.5553 -0.6995  0.3888
 1792TIP3    H226936   1.841   1.178   7.748  0.1308  1.1282  3.0724
 1793TIP3   OH226937   1.338   0.470   1.096  0.1313 -0.2742 -0.1906
 1793TIP3    H126938   1.314   0.458   1.004  0.4098 -1.0744 -0.1609
 1793TIP3    H226939   1.257   0.496   1.139  0.1060  0.6200 -0.7490
 1794TIP3   OH226940   4.839   5.941   1.345 -0.2852  0.2851 -0.3732
 1794TIP3    H126941   4.800   5.868   1.393 -2.0876  0.3996 -1.5751
 1794TIP3    H226942   4.908   5.902   1.292  0.5535 -0.1025  0.9631
 1795TIP3   OH226943   1.738   1.996   1.153 -0.4119 -0.4815  0.2074
 1795TIP3    H126944   1.745   1.988   1.058 -1.3166 -0.6634  0.1401
 1795TIP3    H226945   1.797   1.930   1.188 -0.1139 -0.4508 -0.2344
 1796TIP3   OH226946   1.112   4.366   2.560  0.2161  0.0978  0.2311
 1796TIP3    H126947   1.156   4.345   2.478 -1.7011 -0.2264 -0.7687
 1796TIP3    H226948   1.147   4.451   2.585  1.1378  0.0069 -0.6953
 1797TIP3   OH226949   5.954   0.824   0.585  0.5358 -0.1080 -0.1021
 1797TIP3    H126950   5.954   0.846   0.492 -1.2642 -0.4324 -0.2002
 1797TIP3    H226951   5.996   0.738   0.589 -0.0573 -0.4296 -0.7004
 1798TIP3   OH226952   6.454   3.665   1.654  0.2010  0.2729 -0.1536
 1798TIP3    H126953   6.399   3.672   1.576  0.9324  0.0606 -0.6961
 1798TIP3    H226954   6.522   3.731   1.642 -0.2149  0.8929  0.7598
 1799TIP3   OH226955   2.802   5.463   2.072 -0.2761  0.2634 -0.2869
 1799TIP3    H126956   2.830   5.500   1.988 -0.7122  1.4411  0.0693
 1799TIP3    H226957   2.831   5.527   2.137  0.9730 -1.1205  0.5858
 1800TIP3   OH226958   5.397   0.903   7.951 -0.1869  0.0889  0.4267
 1800TIP3    H126959   5.350   0.884   8.032 -1.2341 -0.2964 -0.2583
 1800TIP3    H226960   5.334   0.949   7.896  0.2694 -0.3263 -0.4700
 1801TIP3   OH226961   0.680   5.141   0.481 -0.1021 -0.0163  0.2810
 1801TIP3    H126962   0.599   5.131   0.431 -0.2284  0.7668  0.3099
 1801TIP3    H226963   0.744   5.087   0.436 -0.9762 -1.7523  1.0422
 1802TIP3   OH226964   2.007   2.800   1.942  0.1078  0.9572 -0.1664
 1802TIP3    H126965   1.920   2.813   1.904  0.1449  1.8579  0.0283
 1802TIP3    H226966   2.003   2.713   1.982  0.2927 -0.3704 -2.8147
 1803TIP3   OH226967   1.194   6.250   8.418  0.3123  0.8414  0.1515
 1803TIP3    H126968   1.135   6.264   8.344  0.9876  0.7953 -0.3971
 1803TIP3    H226969   1.244   6.331   8.425 -0.4804  1.2772  1.2489
 1804TIP3   OH226970   5.349   6.191   7.254 -0.0927 -0.1230 -0.2186
 1804TIP3    H126971   5.258   6.185   7.225 -0.5909 -1.8419  1.5282
 1804TIP3    H226972   5.356   6.277   7.296 -1.6770 -0.9850  1.9551
 1805TIP3   OH226973   2.667   4.006   6.882 -0.2039  0.1273  0.4069
 1805TIP3    H126974   2.750   3.998   6.836  0.5848 -1.3545  1.9953
 1805TIP3    H226975   2.631   3.917   6.884 -1.1363  0.4955  0.9898
 1806TIP3   OH226976   3.640   1.809   7.463  0.2872 -0.4845  0.1699
 1806TIP3    H126977   3.683   1.881   7.510  1.1299 -0.7706 -0.1476
 1806TIP3    H226978   3.553   1.843   7.442  0.6745  0.4501  0.0199
 1807TIP3   OH226979   5.861   5.305   8.065  0.0325 -0.1254  0.1143
 1807TIP3    H126980   5.865   5.261   8.149  2.6605 -1.8365 -0.7731
 1807TIP3    H226981   5.905   5.246   8.004 -0.6132  1.6062 -2.2116
 1808TIP3   OH226982   4.853   1.943   1.777 -0.3422  0.3414  0.0154
 1808TIP3    H126983   4.808   2.003   1.718 -1.9193 -1.1004 -0.3307
 1808TIP3    H226984   4.850   1.859   1.732  1.4670 -0.0936  0.6570
 1809TIP3   OH226985   5.824   6.611   0.438  0.2613  0.0344 -0.9949
 1809TIP3    H126986   5.851   6.607   0.347  0.7658  0.2609 -0.8562
 1809TIP3    H226987   5.858   6.531   0.477 -1.6462 -1.0700 -1.4427
 1810TIP3   OH226988   4.725   1.809   1.986  0.2022  0.0053  0.0537
 1810TIP3    H126989   4.647   1.864   1.985 -0.3417 -0.7627 -0.3858
 1810TIP3    H226990   4.787   1.854   1.928 -0.5513 -0.2841 -0.9954
 1811TIP3   OH226991   6.671   2.016   7.604  0.2549 -0.6186 -0.0924
 1811TIP3    H126992   6.766   2.019   7.613  0.4105  2.0122 -1.5270
 1811TIP3    H226993   6.651   1.924   7.585  2.4420 -1.2874  0.5774
 1812TIP3   OH226994   5.474   5.953   0.570 -0.5598 -0.2044  0.2864
 1812TIP3    H126995   5.379   5.957   0.556 -0.5430  0.0189  0.2329
 1812TIP3    H226996   5.486   5.982   0.660 -0.3246  2.3480 -0.5078
 1813TIP3   OH226997   2.168   6.212   0.547  0.4513 -0.4929 -0.7248
 1813TIP3    H126998   2.115   6.269   0.491  0.9714  2.0899  1.2056
 1813TIP3    H226999   2.196   6.269   0.619  3.4727 -2.4607 -0.1563
 1814TIP3   OH227000   2.395   4.982   0.850 -0.5046  0.3207 -0.4720
 1814TIP3    H127001   2.333   4.997   0.779 -0.0587  0.0107 -0.9249
 1814TIP3    H227002   2.341   4.947   0.922 -0.7991 -0.3224 -0.9955
 1815TIP3   OH227003   0.771   0.546   2.539  0.3768 -0.2868 -0.2937
 1815TIP3    H127004   0.816   0.469   2.508 -0.5491 -0.7280 -0.5912
 1815TIP3    H227005   0.732   0.520   2.623 -0.0702 -0.2079 -0.4694
 1816TIP3   OH227006   2.568   5.750   1.813 -0.1470 -0.1091 -0.4469
 1816TIP3    H127007   2.630   5.716   1.749  0.1314 -1.8221  0.6664
 1816TIP3    H227008   2.489   5.696   1.802  0.0633 -0.7479  0.9123
 1817TIP3   OH227009   3.778   0.317   0.371  0.6903 -0.4505 -0.3372
 1817TIP3    H127010   3.762   0.400   0.416 -1.5719 -0.9312 -0.1587
 1817TIP3    H227011   3.806   0.257   0.440  0.5318 -0.3083 -0.1468
 1818TIP3   OH227012   4.169   3.522   8.410  0.5317 -0.2213  0.0592
 1818TIP3    H127013   4.088   3.550   8.367  0.2552 -0.4330  0.4301
 1818TIP3    H227014   4.229   3.596   8.400 -0.1524  0.4771  0.9337
 1819TIP3   OH227015   4.759   4.946   8.332  0.2876  0.1741 -0.0864
 1819TIP3    H127016   4.728   4.902   8.411  0.6242 -0.9606 -0.5647
 1819TIP3    H227017   4.700   5.020   8.321 -0.1504 -0.0226  0.8776
 1820TIP3   OH227018   6.476   2.035   2.220 -0.3416 -0.0469 -0.2364
 1820TIP3    H127019   6.481   2.014   2.127  2.7491  2.2868 -0.7817
 1820TIP3    H227020   6.425   2.117   2.223 -0.1574  0.0584  0.0687
 1821TIP3   OH227021   3.956   6.336   8.186  0.3086 -0.2186 -0.3993
 1821TIP3    H127022   4.004   6.257   8.212  0.1291 -0.8920 -2.0034
 1821TIP3    H227023   3.986   6.354   8.097  0.0626  1.3204 -0.1953
 1822TIP3   OH227024   0.358   0.317   0.270  0.1231 -0.2335 -0.6725
 1822TIP3    H127025   0.336   0.409   0.286  0.5589 -0.4774  1.6456
 1822TIP3    H227026   0.435   0.320   0.213  0.9625  0.8823  0.4813
 1823TIP3   OH227027   5.902   2.621   8.401 -0.3757 -0.2216 -0.8411
 1823TIP3    H127028   5.818   2.610   8.446 -0.5814 -0.2580 -1.2250
 1823TIP3    H227029   5.961   2.559   8.445 -0.4045  0.1919 -0.2178
 1824TIP3   OH227030   3.855   5.183   6.747 -0.3528 -0.3554  0.4488
 1824TIP3    H127031   3.787   5.240   6.711 -0.3032 -0.2002  0.6004
 1824TIP3    H227032   3.869   5.215   6.836  0.7697  0.3982  0.0257
 1825TIP3   OH227033   3.971   6.738   7.275  0.0508 -0.6512 -0.3479
 1825TIP3    H127034   3.956   6.644   7.276 -3.7961 -0.1973 -0.4869
 1825TIP3    H227035   3.979   6.762   7.367 -1.9045 -0.8197 -0.1023
 1826TIP3   OH227036   6.394   6.459   1.279  0.4928 -0.0384  1.1700
 1826TIP3    H127037   6.387   6.483   1.371  1.0288  1.3379  0.8911
 1826TIP3    H227038   6.304   6.449   1.249  0.3113 -0.2815  1.7972
 1827TIP3   OH227039   2.800   6.165   7.199  0.7060 -0.1388  0.8026
 1827TIP3    H127040   2.720   6.145   7.150  0.0954  0.7281  1.3994
 1827TIP3    H227041   2.856   6.212   7.137  0.9136 -1.0665  0.2764
 1828TIP3   OH227042   3.674   0.710   7.357  0.2194 -0.3841 -0.6640
 1828TIP3    H127043   3.730   0.633   7.356  1.3847  0.4341 -0.0131
 1828TIP3    H227044   3.733   0.784   7.369 -1.1231  0.3203  2.8238
 1829TIP3   OH227045   5.578   0.344   1.743  0.0352 -0.0709  0.2779
 1829TIP3    H127046   5.595   0.421   1.798  0.9188 -0.0481 -0.0102
 1829TIP3    H227047   5.520   0.376   1.674  1.2399  0.6254 -0.4606
 1830TIP3   OH227048   3.688   3.251   6.879  0.2816 -0.1713 -0.1784
 1830TIP3    H127049   3.762   3.207   6.837  1.1303  1.3985 -0.4020
 1830TIP3    H227050   3.658   3.315   6.815 -0.3694  0.1742  0.4545
 1831TIP3   OH227051   3.082   3.870   2.229 -0.3470  0.1249 -0.7854
 1831TIP3    H127052   3.001   3.844   2.274 -0.2850 -2.8545 -2.1593
 1831TIP3    H227053   3.141   3.796   2.242  0.3673  0.0149 -3.9857
 1832TIP3   OH227054   1.281   0.277   8.027 -0.3099 -0.3356 -1.2798
 1832TIP3    H127055   1.196   0.236   8.044 -1.0190  1.1272 -1.1339
 1832TIP3    H227056   1.267   0.331   7.949 -0.0008  1.1814 -0.3397
 1833TIP3   OH227057   0.823   4.995   0.254  0.5881 -0.1793  0.1039
 1833TIP3    H127058   0.769   4.975   0.177 -0.7811 -2.3074  1.5007
 1833TIP3    H227059   0.842   5.089   0.246 -1.9166  0.3040 -1.3663
 1834TIP3   OH227060   2.358   5.810   2.616  0.2627  0.9262  0.1833
 1834TIP3    H127061   2.428   5.794   2.680  1.2945 -0.4359 -1.2173
 1834TIP3    H227062   2.402   5.856   2.545 -0.3672  0.4468 -0.5218
 1835TIP3   OH227063   4.463   1.513   1.229  0.3292  0.1319  0.1869
 1835TIP3    H127064   4.434   1.465   1.151 -0.1072 -0.2692  0.5881
 1835TIP3    H227065   4.384   1.520   1.283  0.4901  0.9258  0.3325
 1836TIP3   OH227066   1.748   4.243   6.781  0.0146 -0.4015 -0.0493
 1836TIP3    H127067   1.773   4.273   6.869 -0.2386  1.9707 -0.7116
 1836TIP3    H227068   1.655   4.221   6.790  0.0517 -0.4191  0.3409
 1837TIP3   OH227069   0.041   0.697   8.238  0.4983  0.0813 -0.1304
 1837TIP3    H127070  -0.015   0.626   8.269  0.8603 -0.5754 -0.9453
 1837TIP3    H227071  -0.007   0.733   8.163  0.9518 -0.1918 -0.5534
 1838TIP3   OH227072   1.726   1.188   8.063  0.1596 -0.4636  0.0767
 1838TIP3    H127073   1.813   1.154   8.045 -0.6001 -2.8530  0.5097
 1838TIP3    H227074   1.677   1.112   8.094 -1.9320  0.9232  0.3647
 1839TIP3   OH227075   0.341   5.268   6.981  0.2018 -0.0620 -0.5392
 1839TIP3    H127076   0.253   5.257   6.945  0.9986 -0.3544 -2.4828
 1839TIP3    H227077   0.333   5.238   7.072 -1.9456  0.9783 -0.3135
 1840TIP3   OH227078   5.922   0.878   0.333  0.1757  0.3203 -0.1861
 1840TIP3    H127079   5.850   0.822   0.307  1.6717 -2.2245  0.7802
 1840TIP3    H227080   5.990   0.863   0.267  1.1846 -0.3144  0.9508
 1841TIP3   OH227081   3.686   0.059   1.436 -0.1534 -0.5888 -0.2830
 1841TIP3    H127082   3.646   0.119   1.499  0.0361 -1.2156  0.4478
 1841TIP3    H227083   3.739   0.116   1.380 -1.3423  0.1373 -0.7130
 1842TIP3   OH227084   0.204   3.983   1.487 -0.2461  0.4383 -0.2277
 1842TIP3    H127085   0.216   4.070   1.525 -2.2582 -0.1074  1.8976
 1842TIP3    H227086   0.205   3.997   1.393  0.1261  2.6378  0.0616
 1843TIP3   OH227087   2.749   0.394   8.281 -0.7092  1.1734 -0.4109
 1843TIP3    H127088   2.683   0.362   8.343  0.0109  0.2278 -0.1137
 1843TIP3    H227089   2.740   0.337   8.205  1.2971 -0.5500  0.5356
 1844TIP3   OH227090   4.687   3.866   0.841  0.4835  0.0117 -0.0619
 1844TIP3    H127091   4.758   3.930   0.844 -1.4903  2.3799 -0.4551
 1844TIP3    H227092   4.661   3.863   0.749  0.4508 -1.3051 -0.0290
 1845TIP3   OH227093   6.273   1.446   7.783  0.2089  0.4567  0.1981
 1845TIP3    H127094   6.253   1.393   7.860  1.2222 -0.4280 -0.1198
 1845TIP3    H227095   6.188   1.474   7.750 -0.2159  1.4953  2.0629
 1846TIP3   OH227096   6.592   6.581   8.284 -0.5209  0.0144  0.1910
 1846TIP3    H127097   6.612   6.674   8.293 -0.9020  0.2172 -0.9668
 1846TIP3    H227098   6.498   6.578   8.267  0.0601 -0.2176 -4.0496
 1847TIP3   OH227099   1.077   3.743   0.796 -0.1199  0.5355  0.0120
 1847TIP3    H127100   1.143   3.683   0.829 -0.0704  0.2483 -0.5954
 1847TIP3    H227101   1.094   3.826   0.841  1.1091  0.6657 -0.6605
 1848TIP3   OH227102   3.311   0.111   8.312  0.1583 -0.2608 -0.5563
 1848TIP3    H127103   3.363   0.185   8.282 -0.0580  1.9436  3.7290
 1848TIP3    H227104   3.221   0.144   8.311 -0.0641 -0.7943  0.3447
 1849TIP3   OH227105   1.255   4.804   2.196  0.1734  0.3951 -0.0593
 1849TIP3    H127106   1.307   4.745   2.142 -0.7283  0.6211 -1.2130
 1849TIP3    H227107   1.292   4.795   2.284  0.5782 -1.2686 -0.3602
 1850TIP3   OH227108   6.791   0.179   8.392 -0.3749 -0.5269 -0.1583
 1850TIP3    H127109   6.874   0.133   8.408 -0.6817 -1.3427 -0.8282
 1850TIP3    H227110   6.730   0.140   8.454 -0.5520 -0.7746 -0.4887
 1851TIP3   OH227111   0.209   0.143   6.789  0.4867 -0.5012  0.0475
 1851TIP3    H127112   0.122   0.183   6.781  0.4712 -0.8403 -2.0493
 1851TIP3    H227113   0.262   0.211   6.830  0.0552  1.1407 -1.9076
 1852TIP3   OH227114   5.063   4.905   8.130  0.3401  0.5674  0.0989
 1852TIP3    H127115   5.066   4.986   8.180  2.1358  0.1601  0.7439
 1852TIP3    H227116   5.029   4.840   8.192  0.0685  0.5778 -0.0373
 1853TIP3   OH227117   3.671   1.906   6.673  0.0602 -0.2228  0.1219
 1853TIP3    H127118   3.762   1.901   6.644  0.3437 -0.2356  0.9756
 1853TIP3    H227119   3.654   1.999   6.685  1.0878 -0.3212  3.2642
 1854TIP3   OH227120   2.056   4.355   6.990  0.3062 -0.3568  0.5568
 1854TIP3    H127121   2.084   4.347   6.899 -1.1322 -1.2787  0.1617
 1854TIP3    H227122   2.125   4.408   7.032  1.6375 -0.9869 -0.7508
 1855TIP3   OH227123   0.844   6.080   1.398  0.0845  0.3248 -0.0824
 1855TIP3    H127124   0.840   6.161   1.348 -1.0298  0.1708 -0.2704
 1855TIP3    H227125   0.823   6.011   1.335  2.2958 -0.2786 -0.2249
 1856TIP3   OH227126   1.905   5.186   7.806  0.4572 -0.1911  0.6522
 1856TIP3    H127127   1.910   5.233   7.722  1.4972  1.5159  1.5986
 1856TIP3    H227128   1.890   5.095   7.782 -1.9359  0.5988 -1.3090
 1857TIP3   OH227129   6.906   5.396   8.414 -0.3051 -0.3085 -0.0983
 1857TIP3    H127130   6.919   5.484   8.379 -1.9833 -0.2749 -0.7284
 1857TIP3    H227131   6.988   5.350   8.394 -0.0413  0.6235 -1.2946
 1858TIP3   OH227132   6.239   4.327   1.351 -0.4216  0.4735  0.7721
 1858TIP3    H127133   6.316   4.384   1.357  1.7739 -1.5387 -3.6447
 1858TIP3    H227134   6.269   4.244   1.388 -0.5205 -0.2410 -0.7003
 1859TIP3   OH227135   2.850   5.243   7.050  0.0102 -0.6272  0.1132
 1859TIP3    H127136   2.909   5.168   7.055 -0.3394 -0.8369  1.7973
 1859TIP3    H227137   2.775   5.212   7.000 -0.1967 -1.4625  0.9285
 1860TIP3   OH227138   4.538   4.619   8.161 -0.1214 -0.3905  0.2826
 1860TIP3    H127139   4.473   4.689   8.149 -0.0796 -0.7552 -2.8238
 1860TIP3    H227140   4.527   4.592   8.252 -0.4992  3.2462  1.5000
 1861TIP3   OH227141   6.076   2.570   1.012 -0.1516  0.1477  0.4804
 1861TIP3    H127142   6.038   2.487   1.040 -0.0087 -0.2391 -0.4159
 1861TIP3    H227143   6.158   2.577   1.061 -0.9318  0.5630  1.7687
 1862TIP3   OH227144   4.279   3.969   7.858  0.0456  0.2544  0.2144
 1862TIP3    H127145   4.273   4.061   7.883 -0.0570 -0.0069  1.1973
 1862TIP3    H227146   4.197   3.950   7.812 -0.1621  0.5229  0.4729
 1863TIP3   OH227147   0.521   2.520   2.068  0.2146  0.1317  0.1480
 1863TIP3    H127148   0.561   2.440   2.104  0.8886 -0.5485 -1.9820
 1863TIP3    H227149   0.441   2.532   2.120 -0.1796 -2.2384  0.2089
 1864TIP3   OH227150   5.351   3.994   1.056 -0.1975  0.4786  0.4098
 1864TIP3    H127151   5.416   4.034   0.998 -1.1601  0.3085 -0.8182
 1864TIP3    H227152   5.400   3.925   1.101  0.7073  0.9806  0.2379
 1865TIP3   OH227153   4.373   3.298   1.437  0.0669 -0.1188  0.2559
 1865TIP3    H127154   4.435   3.315   1.367  0.0574 -0.5310  0.1476
 1865TIP3    H227155   4.420   3.320   1.517  0.4819 -0.7817  0.2011
 1866TIP3   OH227156   2.199   1.430   1.938  0.4071 -0.4331  0.1334
 1866TIP3    H127157   2.261   1.479   1.992 -0.6305 -1.5407  2.5022
 1866TIP3    H227158   2.149   1.377   2.001 -3.1917  0.6380 -1.5478
 1867TIP3   OH227159   2.945   4.347   7.165  0.0668 -1.1920 -0.3774
 1867TIP3    H127160   2.990   4.430   7.145  2.0930 -1.8131  1.2840
 1867TIP3    H227161   2.854   4.363   7.140  0.5015  1.3551 -0.6049
 1868TIP3   OH227162   2.456   5.510   6.373  0.2083  0.6207 -0.0397
 1868TIP3    H127163   2.544   5.484   6.401 -1.0508 -1.9434  2.0454
 1868TIP3    H227164   2.445   5.598   6.408  1.0416 -0.0463  2.0467
 1869TIP3   OH227165   2.558   2.560   2.619  0.0706  0.4696  0.2535
 1869TIP3    H127166   2.618   2.582   2.548 -0.2328  0.8687  0.1225
 1869TIP3    H227167   2.485   2.620   2.609 -0.3039  0.0591  0.4823
 1870TIP3   OH227168   2.487   3.100   2.202  0.1969 -0.1656 -0.0313
 1870TIP3    H127169   2.433   3.127   2.127  0.9530 -1.0894 -0.9419
 1870TIP3    H227170   2.516   3.183   2.241 -0.9147  0.3350 -0.2247
 1871TIP3   OH227171   0.356   5.243   7.287  0.0392  0.0225 -0.1315
 1871TIP3    H127172   0.335   5.157   7.324  2.8428 -0.8169 -0.2571
 1871TIP3    H227173   0.362   5.301   7.363 -0.6898 -0.1519  0.0666
 1872TIP3   OH227174   3.172   1.447   1.207  0.1130 -0.5063 -0.8025
 1872TIP3    H127175   3.148   1.522   1.153  2.5168 -0.1295 -1.5092
 1872TIP3    H227176   3.171   1.372   1.147  2.2770 -0.1764 -1.3307
 1873TIP3   OH227177   4.886   0.781   8.443 -0.1248  0.0301  0.1701
 1873TIP3    H127178   4.860   0.703   8.393 -0.7483  0.0511  0.4401
 1873TIP3    H227179   4.853   0.855   8.392 -0.5771  0.0598  0.4891
 1874TIP3   OH227180   2.652   1.422   0.074  0.4428 -0.2613  0.4534
 1874TIP3    H127181   2.612   1.386  -0.005  0.8546  1.2351 -0.4684
 1874TIP3    H227182   2.739   1.450   0.047  0.2565  1.1345  1.1874
 1875TIP3   OH227183   5.643   1.435   7.518 -0.1694  0.0237  0.2128
 1875TIP3    H127184   5.693   1.391   7.587 -1.0517 -0.1804  0.7329
 1875TIP3    H227185   5.602   1.364   7.469  2.8088 -0.0678 -2.4621
 1876TIP3   OH227186   4.599   5.349   1.368  0.8388  0.0762 -0.2201
 1876TIP3    H127187   4.691   5.340   1.394  1.0062  1.4886 -0.2693
 1876TIP3    H227188   4.579   5.266   1.323  1.6318 -0.8578  1.0843
 1877TIP3   OH227189   4.384   3.850   0.699 -0.2744  0.3270 -0.5913
 1877TIP3    H127190   4.389   3.880   0.789 -0.3023  0.3804 -0.6074
 1877TIP3    H227191   4.469   3.872   0.661 -0.5467  1.0556 -0.8095
 1878TIP3   OH227192   3.840   0.057   7.777  0.1383 -0.5841 -0.2303
 1878TIP3    H127193   3.779   0.026   7.843  2.1597 -0.4348  1.8434
 1878TIP3    H227194   3.801   0.138   7.744 -0.7665 -0.4814  1.0308
 1879TIP3   OH227195   5.413   1.381   0.385 -0.2390 -0.2468  0.0809
 1879TIP3    H127196   5.488   1.322   0.395 -0.1100 -0.5438 -2.1081
 1879TIP3    H227197   5.452   1.467   0.370 -0.3940 -0.0573  0.7207
 1880TIP3   OH227198   3.077   3.458   8.237 -0.7035 -0.5052  0.6714
 1880TIP3    H127199   3.119   3.467   8.151  0.1400 -0.3187  1.0871
 1880TIP3    H227200   3.032   3.373   8.233 -0.1955 -0.7613  0.2342
 1881TIP3   OH227201   3.242   3.138   8.204  0.0653 -0.5133 -0.3443
 1881TIP3    H127202   3.295   3.213   8.178  0.8357 -0.6848  0.6644
 1881TIP3    H227203   3.152   3.172   8.205  0.2056 -0.0492 -1.4356
 1882TIP3   OH227204   5.077   6.721   1.091  0.4160 -0.0778  0.2384
 1882TIP3    H127205   5.144   6.744   1.026  0.1808  0.1951  0.0940
 1882TIP3    H227206   5.042   6.805   1.121  0.3699 -0.2100  0.5617
 1883TIP3   OH227207   4.462   5.642   8.099 -0.5210 -0.6133 -0.4683
 1883TIP3    H127208   4.451   5.556   8.141  0.1156 -0.4859 -0.0174
 1883TIP3    H227209   4.432   5.629   8.009 -0.0586 -1.4152 -0.5166
 1884TIP3   OH227210   6.133   5.707   0.968  0.3358  0.1602  0.3533
 1884TIP3    H127211   6.166   5.796   0.979 -2.3982  1.1903  1.2442
 1884TIP3    H227212   6.106   5.680   1.056 -2.3330  0.0000 -0.4275
 1885TIP3   OH227213   5.321   5.322   1.822 -0.0840  0.8127  0.3970
 1885TIP3    H127214   5.272   5.403   1.831  0.4677  1.0927  0.9245
 1885TIP3    H227215   5.256   5.253   1.835 -0.6649  1.1496 -0.6201
 1886TIP3   OH227216   2.639   3.818   6.262 -0.0705  0.1251 -0.2446
 1886TIP3    H127217   2.686   3.806   6.344  1.6158  0.1459 -1.1606
 1886TIP3    H227218   2.646   3.912   6.244  2.0020 -0.2535 -1.7387
 1887TIP3   OH227219   3.635   3.031   0.316 -0.2057  0.2737 -0.3144
 1887TIP3    H127220   3.634   3.113   0.267 -2.2036  0.6248  0.2641
 1887TIP3    H227221   3.544   3.004   0.321  0.4027 -2.1500 -0.7103
 1888TIP3   OH227222   0.297   2.476   7.302  0.8001 -0.5464  0.4923
 1888TIP3    H127223   0.393   2.478   7.306  0.9059 -1.0819 -0.9984
 1888TIP3    H227224   0.271   2.568   7.310  1.5929 -0.1208 -1.3271
 1889TIP3   OH227225   5.047   6.101   0.369  0.2704  0.4816  0.1844
 1889TIP3    H127226   4.976   6.143   0.321  1.4394  0.6073 -1.5175
 1889TIP3    H227227   5.119   6.163   0.365  0.8046 -0.0592  1.0369
 1890TIP3   OH227228   2.540   0.769   6.730  0.4991  0.1493 -0.1319
 1890TIP3    H127229   2.606   0.812   6.784 -0.5214  1.0168  0.4420
 1890TIP3    H227230   2.512   0.836   6.668 -1.8516  0.7313  1.4222
 1891TIP3   OH227231   3.387   5.788   1.679  0.4515 -0.4057  0.3000
 1891TIP3    H127232   3.365   5.822   1.766 -1.2620  0.5006 -0.4544
 1891TIP3    H227233   3.304   5.787   1.631  0.8849 -3.1402 -0.6127
 1892TIP3   OH227234   4.122   3.628   1.014 -0.0210  0.0907 -0.7959
 1892TIP3    H127235   4.163   3.622   0.927  0.0605  1.3413 -0.8670
 1892TIP3    H227236   4.086   3.717   1.017  1.0366  0.5090  0.9065
 1893TIP3   OH227237   2.268   3.219   0.376  0.2772  0.0097 -0.7051
 1893TIP3    H127238   2.333   3.165   0.331  1.3829  0.7698 -0.0827
 1893TIP3    H227239   2.239   3.166   0.450 -0.2577 -0.5585 -1.3060
 1894TIP3   OH227240   1.113   5.369   1.620  0.3143  0.3423 -0.1407
 1894TIP3    H127241   1.061   5.442   1.655 -1.1385 -1.1760  1.0037
 1894TIP3    H227242   1.184   5.412   1.572 -2.4000  2.6009 -2.5804
 1895TIP3   OH227243   3.975   3.428   0.318  0.0677  0.7445 -0.0414
 1895TIP3    H127244   4.019   3.507   0.350  2.2009 -0.1473 -0.5799
 1895TIP3    H227245   4.022   3.405   0.238 -0.5392 -1.0082  0.0469
 1896TIP3   OH227246   5.988   2.545   1.826  0.3242 -0.3813 -0.4512
 1896TIP3    H127247   6.060   2.504   1.873 -0.4783 -2.3551 -0.8321
 1896TIP3    H227248   5.926   2.571   1.894  0.6169 -0.2547 -0.2314
 1897TIP3   OH227249   0.338   0.048   0.313  0.2707  0.3127 -0.2225
 1897TIP3    H127250   0.284   0.044   0.391  0.0878 -1.1169 -0.3971
 1897TIP3    H227251   0.354   0.142   0.300 -0.7432  0.6538  0.7901
 1898TIP3   OH227252   1.435   1.386   0.035  0.2648 -0.3737 -0.1873
 1898TIP3    H127253   1.479   1.403  -0.048  0.8948 -0.2176  0.1787
 1898TIP3    H227254   1.386   1.305   0.019 -0.4787  0.2250 -1.0360
 1899TIP3   OH227255   4.128   0.169   0.573 -0.1706 -0.2820  0.1212
 1899TIP3    H127256   4.035   0.165   0.550  0.3094 -1.1080 -1.8095
 1899TIP3    H227257   4.129   0.212   0.659 -2.2691  0.4792 -0.1721
 1900TIP3   OH227258   4.184   6.389   1.390 -0.3568 -0.1693  0.0101
 1900TIP3    H127259   4.092   6.395   1.365 -0.5947 -1.6575  0.4546
 1900TIP3    H227260   4.232   6.392   1.307 -0.8433 -0.0230 -0.2670
 1901TIP3   OH227261   6.894   5.899   0.804  0.2960 -0.3008  0.0644
 1901TIP3    H127262   6.914   5.899   0.710 -1.2142 -0.2640 -0.2838
 1901TIP3    H227263   6.884   5.992   0.826  1.1443 -0.2767  0.3949
 1902TIP3   OH227264   1.089   2.422   7.270 -0.1666  0.2115  0.2068
 1902TIP3    H127265   1.084   2.511   7.304 -0.1111  0.6617 -0.9188
 1902TIP3    H227266   1.135   2.430   7.186 -2.3654 -0.4809 -1.1542
 1903TIP3   OH227267   6.010   1.894   1.778  0.4029  0.4102 -0.1489
 1903TIP3    H127268   6.048   1.809   1.758  0.6792  0.2321  1.0728
 1903TIP3    H227269   5.925   1.874   1.817  1.3886  0.5522  2.2322
 1904TIP3   OH227270   5.701   3.632   0.780 -0.7306  0.2258  0.6744
 1904TIP3    H127271   5.658   3.717   0.767  1.7046  1.3841 -0.5102
 1904TIP3    H227272   5.737   3.611   0.694 -0.8474 -1.8061  1.0749
 1905TIP3   OH227273   4.110   2.007   7.723 -0.8588  0.3949 -0.1794
 1905TIP3    H127274   4.172   1.959   7.778  1.2387  2.9944 -0.0678
 1905TIP3    H227275   4.042   2.037   7.783 -1.1508 -0.7812  0.0861
 1906TIP3   OH227276   6.570   4.540   7.074 -0.4010  0.2309 -0.0022
 1906TIP3    H127277   6.636   4.549   7.143  0.0085  3.2349 -0.6310
 1906TIP3    H227278   6.486   4.540   7.120 -0.0870  0.9643  0.5793
 1907TIP3   OH227279   2.080   4.017   0.146  0.1862  0.4876 -0.3970
 1907TIP3    H127280   1.999   4.007   0.096  0.3172  1.8109 -0.9044
 1907TIP3    H227281   2.146   3.974   0.092 -0.3345 -1.7718  0.6238
 1908TIP3   OH227282   1.976   3.856   7.693  0.0213  0.2445  0.3901
 1908TIP3    H127283   2.048   3.798   7.670 -0.6076 -0.4021  0.0288
 1908TIP3    H227284   1.991   3.878   7.785  0.7840  0.2768  0.2576
 1909TIP3   OH227285   0.529   6.180   8.421  0.1656 -0.0776  0.0264
 1909TIP3    H127286   0.616   6.150   8.448 -0.4345 -0.4750  1.6624
 1909TIP3    H227287   0.516   6.261   8.470 -0.2718  0.1259 -0.4237
 1910TIP3   OH227288   6.468   0.785   1.515  0.2577 -0.4744  1.0843
 1910TIP3    H127289   6.542   0.731   1.486 -1.1620 -1.6167 -0.6685
 1910TIP3    H227290   6.458   0.850   1.445  0.4154  0.5209  1.9681
 1911TIP3   OH227291   3.990   2.372   7.350  0.3118  0.3433  0.3078
 1911TIP3    H127292   3.937   2.445   7.384 -1.2772 -0.4441 -0.3646
 1911TIP3    H227293   3.982   2.304   7.416  1.1012  0.4730  0.5398
 1912TIP3   OH227294   2.364   4.419   6.339 -0.1974 -0.9268 -0.5420
 1912TIP3    H127295   2.443   4.398   6.289 -0.0850  0.3626 -0.9257
 1912TIP3    H227296   2.306   4.343   6.324  0.9793 -1.9275 -0.1830
 1913TIP3   OH227297   3.728   1.622   1.606 -0.8348 -0.2031 -0.0924
 1913TIP3    H127298   3.764   1.592   1.689  0.5542  0.4206 -0.4421
 1913TIP3    H227299   3.643   1.578   1.599 -0.5340 -1.0290  1.1808
 1914TIP3   OH227300   0.294   2.811   6.182  0.0112  0.2547 -0.9079
 1914TIP3    H127301   0.281   2.896   6.224  1.2682 -0.2037  0.5091
 1914TIP3    H227302   0.209   2.768   6.188  0.0102  0.4256  0.7387
 1915TIP3   OH227303   2.681   2.915   8.142 -0.0237 -0.2456 -0.0911
 1915TIP3    H127304   2.616   2.969   8.099 -1.5990 -0.7807  1.4986
 1915TIP3    H227305   2.704   2.962   8.222  1.5002 -0.1198 -0.5589
 1916TIP3   OH227306   3.425   6.155   1.965 -0.6018 -0.0265 -0.1316
 1916TIP3    H127307   3.493   6.172   1.900  0.0920 -1.0679  0.2958
 1916TIP3    H227308   3.451   6.208   2.041 -0.2530 -0.4196  0.0301
 1917TIP3   OH227309   0.470   3.433   7.625  0.4071  0.3809 -0.0615
 1917TIP3    H127310   0.434   3.345   7.617  1.1824 -0.3441  3.0521
 1917TIP3    H227311   0.396   3.487   7.653  0.0995  0.5925 -1.2381
 1918TIP3   OH227312   2.514   4.233   8.053 -0.6994  0.1218 -0.3514
 1918TIP3    H127313   2.586   4.296   8.049 -1.8813  1.5313 -0.2395
 1918TIP3    H227314   2.543   4.167   8.115 -0.0549  1.4308  0.8007
 1919TIP3   OH227315   4.907   4.799   7.291  0.1687  0.2390 -0.8042
 1919TIP3    H127316   4.973   4.783   7.358 -1.5446  1.2133  1.2164
 1919TIP3    H227317   4.854   4.720   7.290 -1.1188  1.0443  0.6202
 1920TIP3   OH227318   6.110   3.202   1.417 -0.2139 -0.9165  0.2399
 1920TIP3    H127319   6.081   3.278   1.466 -2.4007 -2.0501  0.8256
 1920TIP3    H227320   6.138   3.139   1.484  2.3065 -0.4459 -0.2552
 1921TIP3   OH227321   6.634   1.491   0.743 -0.2520  0.0771  0.0609
 1921TIP3    H127322   6.715   1.488   0.692  0.4689 -0.4450  1.2134
 1921TIP3    H227323   6.652   1.554   0.813 -1.0507  0.3784  0.0126
 1922TIP3   OH227324   0.573   0.332   0.065 -0.2575 -0.0142  0.2275
 1922TIP3    H127325   0.568   0.283  -0.018 -1.6833 -0.8205  0.7638
 1922TIP3    H227326   0.664   0.363   0.068 -0.4037  0.8255 -2.0721
 1923TIP3   OH227327   6.348   3.180   0.426 -0.0021 -0.3748  0.0835
 1923TIP3    H127328   6.255   3.167   0.411 -0.2231  0.7535  0.4294
 1923TIP3    H227329   6.355   3.212   0.516  0.5321  1.3718 -0.5395
 1924TIP3   OH227330   3.676   3.258   6.385  0.0130 -0.5630  0.3507
 1924TIP3    H127331   3.686   3.193   6.316  1.7319 -0.3600  0.3629
 1924TIP3    H227332   3.645   3.336   6.339 -1.7802 -1.2759  0.2965
 1925TIP3   OH227333   1.406   5.443   7.906 -0.0693  0.0160 -0.0813
 1925TIP3    H127334   1.500   5.436   7.890  0.0602  1.3322 -0.0106
 1925TIP3    H227335   1.376   5.511   7.845 -1.2245 -1.2772 -1.0081
 1926TIP3   OH227336   3.247   4.661   0.654 -0.2283 -0.8136 -0.3088
 1926TIP3    H127337   3.156   4.667   0.683 -1.1685 -1.9298 -2.7510
 1926TIP3    H227338   3.249   4.706   0.569  2.2384  1.8130  0.9769
 1927TIP3   OH227339   5.978   3.099   1.186  0.0029  0.0919  0.6390
 1927TIP3    H127340   5.995   3.131   1.275  0.6912  1.2247  0.1328
 1927TIP3    H227341   6.064   3.071   1.155 -0.1963 -0.1005  0.2624
 1928TIP3   OH227342   0.285   5.558   8.525 -0.3776  0.3126  0.2574
 1928TIP3    H127343   0.290   5.467   8.552  0.5956  0.1746 -0.3275
 1928TIP3    H227344   0.215   5.560   8.459 -0.2781 -0.0475  0.1396
 1929TIP3   OH227345   0.736   1.572   6.833  0.2603  0.2273 -0.1807
 1929TIP3    H127346   0.749   1.623   6.753  0.3642 -1.8656 -1.5936
 1929TIP3    H227347   0.818   1.584   6.882  1.3041 -0.4831 -1.6535
 1930TIP3   OH227348   6.297   5.482   1.745  0.1537 -0.0440  0.6860
 1930TIP3    H127349   6.351   5.551   1.707 -1.0366  0.3486 -0.3754
 1930TIP3    H227350   6.346   5.402   1.728  0.0897  0.2265 -0.9198
 1931TIP3   OH227351   1.702   3.769   0.175 -0.1967 -0.0971  0.2627
 1931TIP3    H127352   1.706   3.677   0.152 -0.7058 -0.7099  2.4481
 1931TIP3    H227353   1.636   3.806   0.116  2.3446 -0.2499 -3.0491
 1932TIP3   OH227354   6.466   0.062   2.194  0.2600 -0.5496  0.1962
 1932TIP3    H127355   6.487   0.024   2.279 -0.9519 -1.0889  0.2769
 1932TIP3    H227356   6.462  -0.013   2.135 -2.1918 -0.6265  0.3584
 1933TIP3   OH227357   0.563   5.295   1.942 -0.5297 -0.3057 -0.5150
 1933TIP3    H127358   0.537   5.235   2.012 -2.0923  0.7834 -0.0922
 1933TIP3    H227359   0.557   5.382   1.982  0.9423  0.2147 -1.3248
 1934TIP3   OH227360   2.167   1.886   1.976  0.4184 -0.2607  0.0539
 1934TIP3    H127361   2.147   1.939   1.899  0.2066 -1.3883 -0.6859
 1934TIP3    H227362   2.088   1.834   1.990  1.1344 -1.4254 -0.1230
 1935TIP3   OH227363   5.927   5.004   2.139 -0.2455 -0.0402 -0.0395
 1935TIP3    H127364   6.006   4.992   2.086 -0.0413 -1.6892  0.5757
 1935TIP3    H227365   5.956   5.054   2.215  0.4431 -1.4118  0.6323
 1936TIP3   OH227366   6.624   0.505   1.725 -0.0655 -0.3133  0.0755
 1936TIP3    H127367   6.640   0.447   1.799 -2.3895  0.4449  1.2680
 1936TIP3    H227368   6.710   0.540   1.703  1.1470 -2.8213  0.4228
 1937TIP3   OH227369   3.659   3.752   8.279 -0.0016  0.3516 -0.2278
 1937TIP3    H127370   3.697   3.763   8.192 -0.4015 -0.0468 -0.4551
 1937TIP3    H227371   3.616   3.836   8.297  2.5736  1.5289  0.8469
 1938TIP3   OH227372   1.238   6.248   0.576 -0.4950  0.1902  1.1366
 1938TIP3    H127373   1.223   6.170   0.524 -1.4814  0.8304  0.4197
 1938TIP3    H227374   1.208   6.225   0.664 -1.4423 -0.0170  0.7667
 1939TIP3   OH227375   2.950   6.468   7.724 -0.0521  0.4601 -0.0071
 1939TIP3    H127376   3.001   6.409   7.669 -1.2946  0.4071 -1.1437
 1939TIP3    H227377   2.966   6.437   7.814 -0.0531 -1.0956 -0.5211
 1940TIP3   OH227378   1.718   0.041   8.075  0.1947  0.3945  0.1405
 1940TIP3    H127379   1.777  -0.004   8.016 -0.7205 -0.3613 -0.2207
 1940TIP3    H227380   1.759   0.033   8.161  0.2973 -0.6952 -0.0017
 1941TIP3   OH227381   1.049   6.629   1.437 -0.3493  0.5291  0.0763
 1941TIP3    H127382   1.090   6.575   1.369 -1.3926  0.4527 -0.5026
 1941TIP3    H227383   0.976   6.672   1.393 -0.0889  1.7149  0.7605
 1942TIP3   OH227384   2.422   4.992   0.273  1.1771 -0.1202  0.0047
 1942TIP3    H127385   2.377   5.024   0.351 -0.8663  0.2094 -1.2143
 1942TIP3    H227386   2.422   4.897   0.282  2.1546 -0.0378  0.9986
 1943TIP3   OH227387   4.376   1.402   0.155 -0.8646  0.1524  0.0655
 1943TIP3    H127388   4.386   1.484   0.107 -0.2215 -0.1620 -0.3506
 1943TIP3    H227389   4.461   1.388   0.196 -1.2319  0.1241  0.8435
 1944TIP3   OH227390   4.127   1.831   0.586 -0.3523  0.1123  0.3771
 1944TIP3    H127391   4.134   1.880   0.667 -2.2501 -0.2820  0.8141
 1944TIP3    H227392   4.148   1.895   0.517  0.0731  0.7458  1.0826
 1945TIP3   OH227393   3.381   5.171   1.602 -0.2761 -0.1786 -0.2008
 1945TIP3    H127394   3.383   5.189   1.696 -0.8834  0.3542 -0.2747
 1945TIP3    H227395   3.316   5.234   1.568  1.5196  1.1647 -1.3021
 1946TIP3   OH227396   3.799   0.969   1.247  0.0896  0.1759  0.1420
 1946TIP3    H127397   3.811   0.916   1.326 -0.6543 -0.1877  0.0162
 1946TIP3    H227398   3.727   1.029   1.269  0.7583  0.9770  0.1976
 1947TIP3   OH227399   4.627   4.810   6.783 -0.0404  0.5190  0.0582
 1947TIP3    H127400   4.537   4.794   6.811 -0.3274  2.5267  0.4897
 1947TIP3    H227401   4.670   4.725   6.787 -1.5532 -0.2295  1.2120
 1948TIP3   OH227402   2.428   3.167   7.827  0.3797 -0.3284  0.7259
 1948TIP3    H127403   2.408   3.141   7.737  2.9353 -1.0667  0.3066
 1948TIP3    H227404   2.342   3.178   7.868 -1.0772  3.0631 -2.5452
 1949TIP3   OH227405   1.478   0.352   7.512  0.2424  0.0304 -0.3515
 1949TIP3    H127406   1.456   0.342   7.420 -1.6266  1.4691 -0.1104
 1949TIP3    H227407   1.464   0.445   7.531  2.1767  0.1147  1.0211
 1950TIP3   OH227408   3.632   1.198   1.296 -0.6071  0.2903 -0.0678
 1950TIP3    H127409   3.537   1.204   1.307 -0.8011 -0.8971 -0.8281
 1950TIP3    H227410   3.667   1.266   1.352 -1.8820  0.2387  0.8486
 1951TIP3   OH227411   5.317   0.302   0.310  0.3011  0.0852  0.1409
 1951TIP3    H127412   5.351   0.225   0.355  0.6910 -0.0331 -0.3570
 1951TIP3    H227413   5.389   0.333   0.256  0.1833  0.8608  0.4069
 1952TIP3   OH227414   6.438   2.676   8.384 -0.1099  0.3240  0.4433
 1952TIP3    H127415   6.408   2.646   8.298  1.6324  1.6553 -0.6899
 1952TIP3    H227416   6.368   2.650   8.444 -1.7413  0.0413 -1.4762
 1953TIP3   OH227417   2.245   3.386   8.494  0.1085 -0.6033 -0.3391
 1953TIP3    H127418   2.167   3.348   8.454  0.6844 -0.4678 -1.6218
 1953TIP3    H227419   2.288   3.311   8.536  0.6183 -1.1901 -1.8433
 1954TIP3   OH227420   2.464   0.648   0.993  0.2648 -0.5878  0.3571
 1954TIP3    H127421   2.401   0.688   0.933 -2.0263 -1.0669  2.3334
 1954TIP3    H227422   2.545   0.699   0.980 -1.0331  1.2567 -0.9404
 1955TIP3   OH227423   5.577   0.815   2.013 -0.3637 -0.0403  0.3477
 1955TIP3    H127424   5.580   0.735   2.065 -0.3724 -0.0892  0.2738
 1955TIP3    H227425   5.634   0.877   2.060  0.0233 -0.2434  0.1488
 1956TIP3   OH227426   0.197   0.591   2.067 -0.0691 -0.0690  0.0872
 1956TIP3    H127427   0.151   0.674   2.082 -0.1784 -0.0664 -0.2489
 1956TIP3    H227428   0.238   0.571   2.151 -1.6472 -0.6681  0.7584
 1957TIP3   OH227429   5.512   0.879   8.502 -0.3833 -0.3336 -1.0354
 1957TIP3    H127430   5.500   0.815   8.572 -3.4184 -0.2468 -1.3354
 1957TIP3    H227431   5.591   0.926   8.525 -0.1408 -1.7014  1.1939
 1958TIP3   OH227432   5.907   6.325   1.595 -0.2853 -0.1558 -0.3840
 1958TIP3    H127433   5.980   6.386   1.584  0.2829 -0.9978 -1.5239
 1958TIP3    H227434   5.945   6.239   1.579 -1.6858 -0.5536 -1.7894
 1959TIP3   OH227435   4.364   0.043   0.860  0.5642 -0.1134  0.1893
 1959TIP3    H127436   4.358   0.134   0.832 -1.2218  0.2041  1.4499
 1959TIP3    H227437   4.443   0.009   0.816 -0.2650  1.2340 -2.5268
 1960TIP3   OH227438   6.668   6.778   0.555  0.3802  0.3488  0.2588
 1960TIP3    H127439   6.706   6.819   0.478 -0.5054  3.0663  1.1517
 1960TIP3    H227440   6.716   6.816   0.629  0.1763 -1.0352  1.1581
 1961TIP3   OH227441   0.353   5.350   6.506 -0.1545  0.1815  1.1620
 1961TIP3    H127442   0.275   5.361   6.451  1.3677  0.5220 -1.0399
 1961TIP3    H227443   0.329   5.279   6.566 -1.5797 -0.8898 -0.5701
 1962TIP3   OH227444   1.100   6.453   6.560  0.3149 -0.3938  0.0483
 1962TIP3    H127445   1.144   6.374   6.590  2.4934 -0.1359 -2.1536
 1962TIP3    H227446   1.084   6.438   6.467 -2.4783  0.4009  0.3197
 1963TIP3   OH227447   6.372   3.872   7.903 -0.2443  0.4792 -0.1166
 1963TIP3    H127448   6.422   3.889   7.822 -1.0056 -0.5001 -0.8240
 1963TIP3    H227449   6.436   3.833   7.962  0.0462  0.0700 -0.6893
 1964TIP3   OH227450   1.537   6.823   2.749  0.2415  0.6867 -0.7723
 1964TIP3    H127451   1.556   6.731   2.765  2.9243  0.7979 -2.5817
 1964TIP3    H227452   1.460   6.823   2.692  0.3268 -0.4454 -0.8998
 1965TIP3   OH227453   1.466   2.622   8.265 -0.5231  1.0587 -0.4884
 1965TIP3    H127454   1.460   2.614   8.360 -1.1114 -0.3530 -0.6193
 1965TIP3    H227455   1.556   2.595   8.244 -0.9156 -0.3605 -0.4563
 1966TIP3   OH227456   3.024   5.401   8.502 -0.2770  0.1001  0.0118
 1966TIP3    H127457   3.028   5.386   8.597 -2.3473  1.4312  0.3803
 1966TIP3    H227458   3.066   5.325   8.464 -1.2785 -1.5275  1.9577
 1967TIP3   OH227459   3.495   0.679   7.559  0.4163  0.1591  0.1734
 1967TIP3    H127460   3.548   0.716   7.488  1.0045  0.1561  0.6120
 1967TIP3    H227461   3.509   0.585   7.552  0.5033  0.1618  0.3172
 1968TIP3   OH227462   3.005   5.598   1.588  0.1392  0.0890  0.2390
 1968TIP3    H127463   3.056   5.599   1.669 -0.0117  4.8415  0.5656
 1968TIP3    H227464   2.929   5.544   1.609  1.0110 -0.3641  2.6404
 1969TIP3   OH227465   1.379   0.914   1.794  0.3589 -0.0216 -0.4090
 1969TIP3    H127466   1.448   0.974   1.766 -1.3793  1.7353 -1.2133
 1969TIP3    H227467   1.312   0.971   1.833 -0.3787 -1.7162  0.9329
 1970TIP3   OH227468   3.347   3.791   1.347  0.4446 -0.5955 -0.1962
 1970TIP3    H127469   3.400   3.798   1.268  1.0591  0.6390  0.2892
 1970TIP3    H227470   3.387   3.719   1.396 -0.0113 -1.4441 -1.0438
 1971TIP3   OH227471   4.579   6.586   8.448  0.3918  0.0295 -0.2859
 1971TIP3    H127472   4.629   6.522   8.397  1.3954  1.4801 -1.2046
 1971TIP3    H227473   4.611   6.576   8.537  1.2745 -0.0514 -0.6060
 1972TIP3   OH227474   3.524   2.368   0.272 -0.3423  0.5778 -0.2881
 1972TIP3    H127475   3.435   2.403   0.267 -0.2858  0.8455  0.4018
 1972TIP3    H227476   3.561   2.384   0.185 -1.1289  0.0057 -0.7316
 1973TIP3   OH227477   2.529   6.060   0.664  0.0420  0.0618 -0.6934
 1973TIP3    H127478   2.488   6.099   0.587 -1.7174 -0.2432  0.0540
 1973TIP3    H227479   2.606   6.015   0.629 -1.5401 -1.3766 -2.5376
 1974TIP3   OH227480   2.683   4.089   0.118 -0.0508 -0.3556 -0.6515
 1974TIP3    H127481   2.643   4.112   0.202 -0.7884  1.7410 -1.5150
 1974TIP3    H227482   2.771   4.060   0.141  0.4017  1.8927  0.7676
 1975TIP3   OH227483   6.695   3.902   0.300 -0.4240 -0.1544  0.1111
 1975TIP3    H127484   6.782   3.862   0.299  0.4523  1.6223 -0.0961
 1975TIP3    H227485   6.693   3.953   0.382 -1.0136  0.3051 -0.1790
 1976TIP3   OH227486   0.192   0.181   2.272 -0.5293 -0.2455  0.0980
 1976TIP3    H127487   0.134   0.158   2.345  0.6681  0.7551  1.4262
 1976TIP3    H227488   0.139   0.241   2.218 -1.4003 -0.9258  0.1690
 1977TIP3   OH227489   6.778   0.268   8.028  0.5520 -0.2274 -0.7523
 1977TIP3    H127490   6.794   0.329   8.101 -0.8767 -1.6708  0.8673
 1977TIP3    H227491   6.856   0.274   7.974  1.5068  1.2070  0.6990
 1978TIP3   OH227492   4.245   5.191   8.346 -0.2845 -0.2385 -0.1387
 1978TIP3    H127493   4.264   5.097   8.335  0.2001 -0.1039 -0.5018
 1978TIP3    H227494   4.168   5.206   8.291 -2.5654 -1.1260  2.5886
 1979TIP3   OH227495   3.942   6.225   7.572  0.4678 -0.1653 -0.0669
 1979TIP3    H127496   4.027   6.197   7.540  1.4053  0.2832  1.8894
 1979TIP3    H227497   3.923   6.168   7.646 -0.6793  0.1019 -0.1299
 1980TIP3   OH227498   5.463   0.825   7.452  1.0978 -0.1629 -0.2206
 1980TIP3    H127499   5.428   0.792   7.535  2.7505 -1.3583  0.0611
 1980TIP3    H227500   5.386   0.848   7.401 -0.0209 -1.0283  0.9987
 1981TIP3   OH227501   3.914   0.324   7.626 -0.2345  0.1242 -0.4800
 1981TIP3    H127502   3.970   0.397   7.598 -0.0654  0.3350  0.3668
 1981TIP3    H227503   3.950   0.248   7.581  1.0144  0.1875  0.3323
 1982TIP3   OH227504   0.467   6.189   7.740 -0.2277 -0.4287 -0.9846
 1982TIP3    H127505   0.442   6.207   7.830 -1.1136 -1.2683 -1.0433
 1982TIP3    H227506   0.483   6.275   7.702 -2.3562  0.1538 -0.7161
 1983TIP3   OH227507   5.750   4.582   8.124  0.3054 -0.4492  0.3737
 1983TIP3    H127508   5.780   4.672   8.122  1.2407 -0.7618 -1.1817
 1983TIP3    H227509   5.656   4.588   8.143  0.6958  0.7217  2.0925
 1984TIP3   OH227510   5.375   6.326   1.470 -0.1701 -0.1360 -0.0009
 1984TIP3    H127511   5.383   6.418   1.495 -0.5193  0.3081 -1.4300
 1984TIP3    H227512   5.465   6.294   1.466 -0.0170  0.2935 -0.0605
 1985TIP3   OH227513   5.397   2.678   1.305  0.3820  0.1456  0.0493
 1985TIP3    H127514   5.365   2.733   1.233  0.6526  0.3886  0.1128
 1985TIP3    H227515   5.343   2.703   1.380  1.5757  1.5392  0.5080
 1986TIP3   OH227516   2.676   0.608   7.057  0.5925 -0.7146  0.0585
 1986TIP3    H127517   2.754   0.663   7.058  0.1527 -0.0734  1.3777
 1986TIP3    H227518   2.612   0.657   7.006  0.4920 -0.4175  0.4666
 1987TIP3   OH227519   2.126   4.864   2.038  0.4833 -0.0246  0.2709
 1987TIP3    H127520   2.201   4.869   2.097 -1.2338  1.9629  2.4857
 1987TIP3    H227521   2.128   4.947   1.990 -0.2045 -0.0216  0.2378
 1988TIP3   OH227522   2.396   5.824   2.990  0.3761 -0.2267 -0.0953
 1988TIP3    H127523   2.311   5.784   3.007  0.7516 -1.0780 -0.1780
 1988TIP3    H227524   2.376   5.907   2.947 -0.3990 -0.6694 -0.6033
 1989TIP3   OH227525   4.969   4.539   0.764 -0.1342  0.1813 -0.5410
 1989TIP3    H127526   5.039   4.571   0.707 -0.9717  1.1478 -1.0575
 1989TIP3    H227527   4.894   4.594   0.744 -0.4197  0.7125  1.6660
 1990TIP3   OH227528   1.118   6.702   2.811  0.4317  0.2137 -0.1855
 1990TIP3    H127529   1.054   6.770   2.830 -0.0416 -0.3289  0.2139
 1990TIP3    H227530   1.066   6.622   2.798  0.8953  0.1500 -1.8140
 1991TIP3   OH227531   3.912   4.419   8.435 -0.6790 -0.4445  0.0429
 1991TIP3    H127532   3.838   4.460   8.391 -0.9314  1.3590  1.9751
 1991TIP3    H227533   3.891   4.325   8.437 -1.8042 -0.2509 -1.3808
 1992TIP3   OH227534   0.070   2.689   2.429  0.1792 -0.1420  0.4624
 1992TIP3    H127535   0.052   2.759   2.366  0.6080 -0.5057 -0.0703
 1992TIP3    H227536  -0.009   2.636   2.430 -0.1716  0.3739  0.9106
 1993TIP3   OH227537   2.660   6.269   8.126 -0.2781 -0.3077 -0.0551
 1993TIP3    H127538   2.595   6.243   8.061 -0.9426  1.6829 -0.2642
 1993TIP3    H227539   2.739   6.219   8.103 -1.2978 -1.6836 -0.6779
 1994TIP3   OH227540   6.475   0.556   0.158  0.5082 -0.2675 -0.3089
 1994TIP3    H127541   6.500   0.474   0.114 -1.8420 -1.2571  0.0303
 1994TIP3    H227542   6.438   0.527   0.242 -0.2506  1.1630 -0.1287
 1995TIP3   OH227543   3.415   3.372   0.291 -0.7152  0.3262 -0.0726
 1995TIP3    H127544   3.445   3.462   0.303  3.4800 -0.7292 -0.8981
 1995TIP3    H227545   3.435   3.328   0.373  1.8552 -0.7771 -1.1704
 1996TIP3   OH227546   4.753   1.770   7.273 -0.5893 -0.3510 -0.2010
 1996TIP3    H127547   4.796   1.694   7.234 -0.8496 -0.2524 -0.6894
 1996TIP3    H227548   4.689   1.798   7.207 -0.9499 -0.1071  0.2491
 1997TIP3   OH227549   4.651   6.523   1.348  0.3574  0.2190  0.0439
 1997TIP3    H127550   4.635   6.475   1.267 -2.2222  1.3440 -0.2381
 1997TIP3    H227551   4.645   6.457   1.417 -0.6486 -0.2770 -0.4932
 1998TIP3   OH227552   6.608   2.122   8.072 -0.2356  0.2270 -0.5278
 1998TIP3    H127553   6.547   2.186   8.109  1.0797  1.9603 -1.1936
 1998TIP3    H227554   6.654   2.170   8.003  1.1430 -1.3078 -0.7371
 1999TIP3   OH227555   3.462   6.111   7.826  0.1839  0.7167 -0.3178
 1999TIP3    H127556   3.429   6.175   7.889  0.9352  2.1868 -1.3513
 1999TIP3    H227557   3.541   6.075   7.868 -0.2022  0.5091  0.2384
 2000TIP3   OH227558   2.070   0.668   8.410  0.2002  0.0003 -0.0548
 2000TIP3    H127559   1.979   0.644   8.390  0.5220 -0.8473 -0.5286
 2000TIP3    H227560   2.104   0.593   8.458  0.7156  0.2441 -0.0388
 2001TIP3   OH227561   4.921   3.667   0.531  0.2930 -0.8332 -0.2419
 2001TIP3    H127562   4.850   3.694   0.589 -0.0276 -0.3595 -0.8381
 2001TIP3    H227563   4.990   3.636   0.590 -0.4357 -1.3814  0.3424
 2002TIP3   OH227564   3.279   6.633   7.115 -0.9240 -0.1605 -0.2795
 2002TIP3    H127565   3.317   6.674   7.037 -1.6513  0.3177 -0.3875
 2002TIP3    H227566   3.229   6.559   7.081 -0.1170 -0.7910 -0.1366
 2003TIP3   OH227567   5.072   3.545   6.654 -0.3221 -0.1103  0.3137
 2003TIP3    H127568   5.099   3.467   6.606 -0.0343  0.4703 -0.5060
 2003TIP3    H227569   5.035   3.602   6.587  0.0553  0.7086  0.7871
 2004TIP3   OH227570   0.989   0.080   6.419  0.1074  0.3152  0.4814
 2004TIP3    H127571   0.981   0.133   6.498 -0.3808 -3.1838  3.0262
 2004TIP3    H227572   0.901   0.082   6.380  0.1730  1.5331  0.3653
 2005TIP3   OH227573   3.930   1.200   6.232 -0.1453 -0.5196  0.2239
 2005TIP3    H127574   3.847   1.246   6.245  0.5757  0.5496  1.2387
 2005TIP3    H227575   3.939   1.145   6.311  0.9406  0.7284  1.0019
 2006TIP3   OH227576   1.120   0.802   1.129 -0.2280 -0.3892  0.3251
 2006TIP3    H127577   1.199   0.814   1.181  0.7676 -0.2324 -1.1378
 2006TIP3    H227578   1.139   0.850   1.048 -1.7635 -0.5001 -0.1215
 2007TIP3   OH227579   0.155   0.127   0.509  0.3289  0.1365 -0.1333
 2007TIP3    H127580   0.075   0.172   0.483 -0.6614 -0.6296  1.4252
 2007TIP3    H227581   0.201   0.190   0.564  0.0453  0.0506  0.2067
 2008TIP3   OH227582   0.733   3.093   7.465 -0.1554  0.0808  0.1195
 2008TIP3    H127583   0.675   3.067   7.537 -0.1844 -0.3205 -0.0497
 2008TIP3    H227584   0.773   3.175   7.496  1.8147 -1.4045  1.7123
 2009TIP3   OH227585   5.208   1.444   7.375 -0.0996  0.6450 -0.7353
 2009TIP3    H127586   5.234   1.501   7.448  1.7331 -0.7364 -0.2267
 2009TIP3    H227587   5.117   1.421   7.394  0.9100 -1.4641  2.4873
 2010TIP3   OH227588   2.243   5.986   0.948  0.3322  0.4338  0.2345
 2010TIP3    H127589   2.330   5.956   0.923 -0.2706 -2.1007  0.8437
 2010TIP3    H227590   2.190   5.975   0.869  0.0554 -0.4372  0.5258
 2011TIP3   OH227591   6.334   0.228   1.543 -0.2590  0.2254  0.0674
 2011TIP3    H127592   6.326   0.176   1.623 -2.8003 -0.5172 -0.5716
 2011TIP3    H227593   6.368   0.312   1.572  0.3156 -0.5124  1.6867
 2012TIP3   OH227594   2.017   5.262   0.676  0.2961 -0.6577  0.8346
 2012TIP3    H127595   1.950   5.300   0.732  1.3621  0.8282  1.1577
 2012TIP3    H227596   1.976   5.184   0.639 -2.0597  0.8274  0.0496
 2013TIP3   OH227597   1.614   3.963   0.829 -0.1218  0.1763 -0.3738
 2013TIP3    H127598   1.688   3.959   0.889 -0.4090  2.0314  0.1759
 2013TIP3    H227599   1.609   3.876   0.790  1.6186 -0.3195  0.4353
 2014TIP3   OH227600   5.389   6.894   7.302 -0.3086 -0.5708  0.0939
 2014TIP3    H127601   5.379   6.988   7.285 -0.7193 -0.7054 -0.4585
 2014TIP3    H227602   5.483   6.878   7.295 -0.1500 -0.0632  0.9628
 2015TIP3   OH227603   0.342   4.779   1.659  0.3375 -0.3796  0.2605
 2015TIP3    H127604   0.261   4.807   1.701  1.1647  2.0782  0.4267
 2015TIP3    H227605   0.401   4.759   1.731  0.1594 -1.3534  0.1504
 2016TIP3   OH227606   5.558   2.163   6.918  0.2658 -0.1832  0.3238
 2016TIP3    H127607   5.573   2.074   6.886 -1.2081 -0.9175  1.5254
 2016TIP3    H227608   5.582   2.159   7.011 -1.1795  0.2562  0.7467
 2017TIP3   OH227609   0.393   0.125   0.704 -0.4726  0.1867  0.3366
 2017TIP3    H127610   0.445   0.193   0.661  2.3266 -0.6285  2.1409
 2017TIP3    H227611   0.409   0.139   0.798 -3.5284 -0.2106  1.0028
 2018TIP3   OH227612   3.100   4.734   6.933 -0.0698  0.6304 -0.5588
 2018TIP3    H127613   3.150   4.814   6.951  1.2266 -0.1874 -0.4277
 2018TIP3    H227614   3.153   4.687   6.868 -1.5276  0.5254 -1.7361
 2019TIP3   OH227615   0.046   4.221   7.979  0.4561 -0.2250  0.4267
 2019TIP3    H127616  -0.037   4.176   7.964  0.7256 -1.3268  2.0249
 2019TIP3    H227617   0.021   4.309   8.006 -0.1455 -0.1796 -0.2485
 2020TIP3   OH227618   5.395   1.767   0.553  0.0570 -0.4291 -0.1797
 2020TIP3    H127619   5.451   1.745   0.628 -0.2272  1.6110  0.7052
 2020TIP3    H227620   5.312   1.724   0.571  0.1213 -0.2849  0.4982
 2021TIP3   OH227621   0.262   1.122   1.175 -0.2821 -0.3457 -0.2031
 2021TIP3    H127622   0.191   1.181   1.201  0.8462 -0.6867  4.7492
 2021TIP3    H227623   0.339   1.177   1.170  0.1709 -0.8091  1.1025
 2022TIP3   OH227624   5.775   0.226   7.516  0.2018 -0.3545  0.4618
 2022TIP3    H127625   5.797   0.305   7.565  1.6602  0.2330 -1.0504
 2022TIP3    H227626   5.684   0.208   7.540 -0.1591  1.7472  0.8800
 2023TIP3   OH227627   5.402   2.838   2.182 -0.5856 -0.1606 -0.6447
 2023TIP3    H127628   5.443   2.752   2.190 -1.4116 -0.5582 -0.5950
 2023TIP3    H227629   5.383   2.847   2.088 -0.9376 -0.2467 -0.5848
 2024TIP3   OH227630   0.323   6.370   7.966  0.2476 -0.0286 -0.3588
 2024TIP3    H127631   0.356   6.421   7.892 -1.6218  1.4772 -0.2632
 2024TIP3    H227632   0.401   6.342   8.013  1.4247  0.5308 -1.8873
 2025TIP3   OH227633   3.720   1.813   7.161 -0.1631 -0.0476 -0.4800
 2025TIP3    H127634   3.737   1.740   7.102 -1.3162 -0.2485 -0.5911
 2025TIP3    H227635   3.699   1.772   7.244 -1.6173  0.1077 -0.7501
 2026TIP3   OH227636   6.693   2.532   6.507 -0.4217 -0.2525 -0.3071
 2026TIP3    H127637   6.673   2.485   6.426 -0.3614  0.1223 -0.5472
 2026TIP3    H227638   6.610   2.574   6.531 -0.4386 -0.3631 -0.1797
 2027TIP3   OH227639   0.917   1.229   0.915 -0.1920 -0.0487  0.3353
 2027TIP3    H127640   0.840   1.188   0.877 -0.1010 -0.3441  0.4685
 2027TIP3    H227641   0.938   1.176   0.992 -1.1830  1.3469  1.6281
 2028TIP3   OH227642   1.346   0.210   0.832  0.1729 -0.3159 -0.2571
 2028TIP3    H127643   1.323   0.300   0.811 -0.5775 -0.9968 -2.6222
 2028TIP3    H227644   1.265   0.171   0.865  0.2326 -0.4012 -0.2101
 2029TIP3   OH227645   0.930   4.348   0.641  0.4899  0.0641 -0.1347
 2029TIP3    H127646   0.902   4.270   0.688 -0.8581  0.1640 -0.7431
 2029TIP3    H227647   0.862   4.363   0.576  0.6165  1.8590  0.1019
 2030TIP3   OH227648   2.610   4.762   7.787  0.4184  0.2016  0.3262
 2030TIP3    H127649   2.597   4.668   7.771 -0.5969  0.2332  0.8620
 2030TIP3    H227650   2.542   4.805   7.735 -0.7908  0.4759  2.0359
 2031TIP3   OH227651   0.709   6.146   0.315  0.1548 -0.1384  0.2059
 2031TIP3    H127652   0.694   6.059   0.352 -0.1842 -0.0013  0.3935
 2031TIP3    H227653   0.648   6.203   0.361 -0.7717 -0.0827 -1.0329
 2032TIP3   OH227654   6.315   2.257   7.822  0.5166 -0.3480  0.4622
 2032TIP3    H127655   6.361   2.175   7.806  0.5630 -0.0494 -1.0822
 2032TIP3    H227656   6.375   2.325   7.791 -0.1489  0.1658  0.2755
 2033TIP3   OH227657   6.546   1.374   7.167 -0.0184 -0.6351  0.1460
 2033TIP3    H127658   6.581   1.457   7.137 -0.5903 -1.0325 -1.7067
 2033TIP3    H227659   6.479   1.398   7.231  2.3386  0.1721  2.4915
 2034TIP3   OH227660   4.193   1.366   8.458 -0.1236 -0.8273  0.2893
 2034TIP3    H127661   4.240   1.321   8.529 -0.2713 -1.5937 -0.0863
 2034TIP3    H227662   4.259   1.375   8.389 -0.2102 -0.8513  0.2037
 2035TIP3   OH227663   1.181   0.355   1.359 -0.3159  0.1428 -0.5609
 2035TIP3    H127664   1.147   0.422   1.300 -2.2339  1.5250  1.9456
 2035TIP3    H227665   1.222   0.404   1.430 -3.3723 -1.1045  2.3045
 2036TIP3   OH227666   1.888   3.584   2.045 -0.0415 -0.1214 -0.2902
 2036TIP3    H127667   1.827   3.510   2.052  1.9737 -1.7505  1.0776
 2036TIP3    H227668   1.889   3.605   1.952 -2.0395 -0.5542 -0.4668
 2037TIP3   OH227669   2.084   5.023   0.845  0.2423 -0.8334  0.3048
 2037TIP3    H127670   2.019   4.962   0.880 -2.7395  1.5012 -0.6799
 2037TIP3    H227671   2.052   5.044   0.757  1.4015  1.6540  0.3775
 2038TIP3   OH227672   0.555   6.564   0.940 -0.1002 -0.8888  0.6107
 2038TIP3    H127673   0.550   6.659   0.926 -0.3956 -1.0341 -0.3328
 2038TIP3    H227674   0.561   6.554   1.035 -0.4642  0.0541  0.7425
 2039TIP3   OH227675   1.061   5.118   7.922 -0.0341  0.1597 -0.0618
 2039TIP3    H127676   1.076   5.025   7.903 -0.3675  0.0790  0.0674
 2039TIP3    H227677   1.147   5.159   7.909  0.0310 -0.1047 -0.4810
 2040TIP3   OH227678   0.736   5.977   1.674  0.2748 -0.5192 -0.4848
 2040TIP3    H127679   0.792   6.005   1.747  0.6375 -0.1994 -0.8811
 2040TIP3    H227680   0.787   5.996   1.595 -0.5680  0.1879 -0.8796
 2041TIP3   OH227681   3.243   1.320   2.117 -0.9325  0.2264 -0.0324
 2041TIP3    H127682   3.169   1.262   2.137 -0.6251 -0.7403 -1.5529
 2041TIP3    H227683   3.260   1.306   2.024  0.9728  0.6428  0.2156
 2042TIP3   OH227684   0.170   0.711   7.146 -0.0320  0.2511 -0.0816
 2042TIP3    H127685   0.155   0.703   7.240  2.3891  1.0462  0.4490
 2042TIP3    H227686   0.165   0.621   7.113  0.6682 -0.2397  1.0979
 2043TIP3   OH227687   4.221   4.884   0.762  0.2992 -0.2800 -0.1723
 2043TIP3    H127688   4.266   4.965   0.786 -1.8105  0.2714  2.2622
 2043TIP3    H227689   4.155   4.912   0.698  0.9375 -0.4647 -0.9252
 2044TIP3   OH227690   3.966   0.259   1.981 -0.1195 -0.0147 -0.8829
 2044TIP3    H127691   3.942   0.168   1.967  0.6013 -0.1328 -1.3537
 2044TIP3    H227692   3.988   0.264   2.074  0.0890 -0.3750 -0.9136
 2045TIP3   OH227693   3.772   3.539   1.486  0.2097  0.2378  0.0762
 2045TIP3    H127694   3.717   3.463   1.468  2.3848 -1.6292  0.8160
 2045TIP3    H227695   3.788   3.535   1.580  1.6686  0.6396 -0.1329
 2046TIP3   OH227696   1.319   4.945   7.994  0.4885  0.2912  0.1698
 2046TIP3    H127697   1.375   4.887   7.942 -0.2095 -0.3615  0.1124
 2046TIP3    H227698   1.355   5.032   7.981 -0.1640  0.2937 -2.1513
 2047TIP3   OH227699   1.985   3.407   1.287 -1.2094  0.1118 -0.1155
 2047TIP3    H127700   2.069   3.451   1.299 -1.3403  0.9424 -1.9403
 2047TIP3    H227701   1.993   3.363   1.203 -1.3169 -2.9449  1.3363
 2048TIP3   OH227702   6.527   3.951   0.700 -0.3296  0.6511 -0.2393
 2048TIP3    H127703   6.453   3.979   0.754  0.4114 -0.3255  1.3502
 2048TIP3    H227704   6.535   3.857   0.718  1.8600  0.8971  0.3917
 2049TIP3   OH227705   0.176   2.591   1.877 -0.0208 -0.0480 -0.2251
 2049TIP3    H127706   0.161   2.595   1.782 -0.1053 -1.6065 -0.3036
 2049TIP3    H227707   0.136   2.671   1.910 -0.0100  0.5188 -1.5020
 2050TIP3   OH227708   1.185   5.197   2.443 -0.4070 -0.3009 -0.2274
 2050TIP3    H127709   1.136   5.153   2.373 -0.5720  0.9216 -0.9081
 2050TIP3    H227710   1.266   5.145   2.452 -2.2827 -3.2032  1.8659
 2051TIP3   OH227711   5.316   0.928   2.816 -0.5734  0.2517 -0.0856
 2051TIP3    H127712   5.229   0.909   2.779 -1.4109 -1.5485  2.4876
 2051TIP3    H227713   5.378   0.897   2.749 -1.9495 -1.1220 -0.7989
 2052TIP3   OH227714   2.737   2.208   8.013 -0.0660 -0.4670 -0.5885
 2052TIP3    H127715   2.793   2.285   8.011 -0.8585  0.1194 -1.2003
 2052TIP3    H227716   2.794   2.135   7.988  0.6901 -0.0866  0.0037
 2053TIP3   OH227717   3.779   0.883   2.449 -0.4522  0.4662 -0.5389
 2053TIP3    H127718   3.856   0.938   2.449 -1.0917  1.3973  0.2653
 2053TIP3    H227719   3.813   0.793   2.453  0.5830  0.8157 -1.2621
 2054TIP3   OH227720   0.316   3.559   0.167 -0.3960  0.4005 -0.2122
 2054TIP3    H127721   0.372   3.593   0.237  0.2210 -0.4770 -0.2713
 2054TIP3    H227722   0.339   3.467   0.160 -2.3105 -0.1451  0.2013
 2055TIP3   OH227723   0.874   5.281   0.191 -0.5464 -0.5623 -0.2235
 2055TIP3    H127724   0.805   5.346   0.205 -1.2386 -1.6192  1.5953
 2055TIP3    H227725   0.918   5.310   0.111 -1.8143  1.2567 -0.3284
 2056TIP3   OH227726   4.136   3.339   1.568  0.1042 -0.8549 -0.3977
 2056TIP3    H127727   4.212   3.311   1.517  0.3059  0.2340 -0.7233
 2056TIP3    H227728   4.144   3.434   1.573 -0.2094 -0.8771  1.2051
 2057TIP3   OH227729   6.386   3.114   8.401  0.1045  0.6520 -0.6810
 2057TIP3    H127730   6.325   3.092   8.331 -0.8740 -0.7386  0.5585
 2057TIP3    H227731   6.473   3.106   8.360 -0.4260 -0.4733 -1.6425
 2058TIP3   OH227732   1.087   3.735   0.396  0.6254 -0.1210 -0.4625
 2058TIP3    H127733   0.993   3.743   0.413  0.4210 -1.5042 -0.8432
 2058TIP3    H227734   1.097   3.648   0.359  2.2790 -0.6374  1.0533
 2059TIP3   OH227735   3.777   2.746   0.279 -0.7296 -0.0132  0.9570
 2059TIP3    H127736   3.787   2.806   0.206 -2.7438 -1.9615 -1.0815
 2059TIP3    H227737   3.832   2.783   0.348  2.0190  1.4859 -1.7626
 2060TIP3   OH227738   6.119   2.527   2.097 -0.2523  0.4110  0.1570
 2060TIP3    H127739   6.092   2.619   2.098  1.5450  0.9671  0.3597
 2060TIP3    H227740   6.122   2.502   2.189 -0.8683  0.0856  0.0969
 2061TIP3   OH227741   1.857   0.524   0.160 -0.5055  0.2130  0.2530
 2061TIP3    H127742   1.872   0.491   0.072  1.8945 -0.9018  0.9886
 2061TIP3    H227743   1.826   0.613   0.148 -0.4102  0.0150 -1.7017
 2062TIP3   OH227744   3.145   1.869   7.891  0.1014  0.3241  0.4927
 2062TIP3    H127745   3.206   1.837   7.824  0.6261  1.0576  0.6010
 2062TIP3    H227746   3.086   1.796   7.907  0.5899 -0.2017 -0.0471
 2063TIP3   OH227747   5.424   4.135   7.556 -0.2948 -0.0412  0.7278
 2063TIP3    H127748   5.509   4.101   7.582  0.8631  1.2579 -1.1094
 2063TIP3    H227749   5.394   4.187   7.630  0.9490  0.2147  1.0642
 2064TIP3   OH227750   3.744   4.697   0.158  0.0398  0.3627 -0.0318
 2064TIP3    H127751   3.778   4.743   0.235  2.2672 -0.7365 -0.3047
 2064TIP3    H227752   3.727   4.608   0.188  0.9159 -0.0731 -0.7885
 2065TIP3   OH227753   1.934   3.450   6.786  0.1360 -0.3113 -0.4282
 2065TIP3    H127754   1.986   3.370   6.792 -2.4061 -1.9657  1.2841
 2065TIP3    H227755   1.980   3.513   6.842  1.6660 -0.7907 -1.0698
 2066TIP3   OH227756   0.707   5.302   7.881 -0.2984 -0.3732 -0.2269
 2066TIP3    H127757   0.733   5.216   7.914 -1.4750 -0.5107  0.3868
 2066TIP3    H227758   0.683   5.286   7.789  0.5467 -0.4756 -0.4357
 2067TIP3   OH227759   2.931   6.661   1.023 -0.2621  0.1785  0.0901
 2067TIP3    H127760   2.936   6.571   1.055 -2.2369  0.5290  1.6127
 2067TIP3    H227761   2.982   6.712   1.086 -0.7601  0.3441  0.3708
 2068TIP3   OH227762   1.221   0.011   1.822  0.2175  0.0020 -0.1283
 2068TIP3    H127763   1.316  -0.005   1.821  0.1859 -0.2014  0.1221
 2068TIP3    H227764   1.185  -0.049   1.757  0.1105 -0.8823  0.7315
 2069TIP3   OH227765   0.702   4.118   1.308  0.2446 -0.4213  0.0741
 2069TIP3    H127766   0.649   4.111   1.388  0.3983 -0.9987  0.1276
 2069TIP3    H227767   0.792   4.105   1.338  0.4957  1.0187  0.0563
 2070TIP3   OH227768   6.164   5.675   1.294  0.0298  0.1849 -0.5951
 2070TIP3    H127769   6.251   5.636   1.302  0.5725  1.2523 -1.0656
 2070TIP3    H227770   6.156   5.732   1.370  0.8686  2.1515 -1.9098
 2071TIP3   OH227771   5.640   0.537   1.939  0.1493 -0.9947 -0.2057
 2071TIP3    H127772   5.675   0.503   2.022  1.9462  1.3390  0.1175
 2071TIP3    H227773   5.551   0.563   1.960  0.5903 -0.3887  1.0516
 2072TIP3   OH227774   5.546   4.809   0.876 -0.5460  0.0200  0.0660
 2072TIP3    H127775   5.533   4.894   0.917  2.0553  0.7786 -0.5162
 2072TIP3    H227776   5.625   4.819   0.824  0.2529 -2.9730  0.5197
 2073TIP3   OH227777   6.702   0.691   6.697  0.3615 -0.0354 -0.1127
 2073TIP3    H127778   6.774   0.747   6.667  2.5308 -2.0406  0.9750
 2073TIP3    H227779   6.687   0.630   6.625  0.8814 -0.6149  0.2612
 2074TIP3   OH227780   0.672   3.931   1.916 -0.4411  0.2169 -0.1336
 2074TIP3    H127781   0.757   3.897   1.941 -0.2471  0.6485 -0.1912
 2074TIP3    H227782   0.648   3.990   1.987  0.0393  1.3268 -0.8584
 2075TIP3   OH227783   4.721   0.846   2.609 -0.2460 -0.3151 -0.4229
 2075TIP3    H127784   4.677   0.828   2.691  0.9190 -1.6675 -0.0367
 2075TIP3    H227785   4.734   0.759   2.569  1.9230 -0.0028 -0.5416
 2076TIP3   OH227786   0.994   4.402   2.120 -0.0967 -0.4672  0.5668
 2076TIP3    H127787   0.900   4.407   2.103 -0.0424  0.3500  0.4761
 2076TIP3    H227788   1.004   4.326   2.177 -1.0368  0.5016  2.1170
 2077TIP3   OH227789   1.522   1.848   6.901 -0.2126 -0.0898  0.0868
 2077TIP3    H127790   1.527   1.821   6.809 -1.6780 -1.0283  0.2420
 2077TIP3    H227791   1.518   1.944   6.897  1.2011 -0.0458 -0.7218
 2078TIP3   OH227792   5.984   3.934   7.855 -0.7201  0.5715 -0.0035
 2078TIP3    H127793   6.016   3.870   7.919 -0.6116  1.3838  0.7561
 2078TIP3    H227794   6.004   3.894   7.770 -1.6811 -0.9291  0.4370
 2079TIP3   OH227795   3.376   2.105   7.446 -0.1658  0.3292  0.3104
 2079TIP3    H127796   3.415   2.154   7.373 -0.2010  1.7347  1.2003
 2079TIP3    H227797   3.350   2.021   7.407  3.2274 -0.5200 -0.4832
 2080TIP3   OH227798   6.911   3.838   7.307 -0.5151 -0.4115  0.1900
 2080TIP3    H127799   6.998   3.877   7.294 -1.6045  1.7132 -1.5138
 2080TIP3    H227800   6.920   3.748   7.279  1.7961 -1.1586  2.8808
 2081TIP3   OH227801   3.923   2.641   7.985  0.1447 -0.1554  0.0006
 2081TIP3    H127802   3.870   2.622   7.908  1.1329 -2.0404 -0.2689
 2081TIP3    H227803   3.941   2.556   8.024  0.7517  0.6537  1.6033
 2082TIP3   OH227804   4.926   1.201   8.236 -0.2536  0.0294 -1.0583
 2082TIP3    H127805   4.934   1.114   8.275  0.7736  0.4870 -0.2021
 2082TIP3    H227806   5.016   1.234   8.232 -0.8299  2.1238  1.1294
 2083TIP3   OH227807   3.457   4.694   2.206 -0.1595 -0.2689 -0.0154
 2083TIP3    H127808   3.430   4.768   2.261 -1.3556 -0.5151 -0.2380
 2083TIP3    H227809   3.402   4.702   2.128  2.5144  0.9640 -1.9415
 2084TIP3   OH227810   1.012   3.507   0.690 -0.2333 -0.7093  0.4990
 2084TIP3    H127811   0.973   3.474   0.771  0.5429 -1.7151  0.4794
 2084TIP3    H227812   1.012   3.602   0.701 -0.3934 -0.8171  1.5667
 2085TIP3   OH227813   4.030   4.075   1.519  0.6023  0.4525 -0.2014
 2085TIP3    H127814   3.990   3.997   1.557  0.4075  0.6583  0.0155
 2085TIP3    H227815   3.993   4.148   1.568 -1.0654  0.8663 -1.9361
 2086TIP3   OH227816   1.075   2.986   2.350 -0.1557  0.1065  0.0956
 2086TIP3    H127817   1.149   2.925   2.342 -0.3247 -0.2782  1.3882
 2086TIP3    H227818   1.062   3.018   2.260  0.9010 -0.6101 -0.3396
 2087TIP3   OH227819   6.539   3.121   7.260 -0.1365  0.9252  0.3552
 2087TIP3    H127820   6.525   3.063   7.186 -2.7475  1.4496  0.3392
 2087TIP3    H227821   6.558   3.063   7.334  3.5284  0.4302 -0.7699
 2088TIP3   OH227822   6.017   6.783   0.741  0.3890 -0.1745 -0.4294
 2088TIP3    H127823   5.926   6.755   0.730  0.2756  0.4993 -1.3430
 2088TIP3    H227824   6.034   6.840   0.666  1.2882  0.4355  0.2111
 2089TIP3   OH227825   5.662   6.890   7.341  0.5182  0.6376 -0.3230
 2089TIP3    H127826   5.724   6.902   7.269  1.0153 -1.9739 -0.4275
 2089TIP3    H227827   5.718   6.872   7.417 -0.0754 -0.1489 -0.0656
 2090TIP3   OH227828   4.984   4.303   0.917 -0.3484 -0.6639  0.3327
 2090TIP3    H127829   5.079   4.294   0.906 -0.0953 -1.2392  2.4567
 2090TIP3    H227830   4.957   4.360   0.845  1.6234 -0.4060 -0.2758
 2091TIP3   OH227831   4.668   6.195   0.762  0.1515 -0.0247  0.2841
 2091TIP3    H127832   4.645   6.265   0.824 -0.4521 -1.0633  1.2596
 2091TIP3    H227833   4.740   6.232   0.710 -0.4902  1.5042  0.4309
 2092TIP3   OH227834   6.328   4.634   2.515  0.1787  0.3612 -0.1530
 2092TIP3    H127835   6.268   4.702   2.484 -2.5907 -2.7287 -2.3077
 2092TIP3    H227836   6.327   4.642   2.610 -1.4474  2.1953 -0.2795
 2093TIP3   OH227837   1.984   1.576   0.104 -0.2469  0.2490 -0.1815
 2093TIP3    H127838   2.070   1.594   0.143 -0.1875  1.9444 -0.9784
 2093TIP3    H227839   1.922   1.585   0.176  0.1211  0.4653  0.1104
 2094TIP3   OH227840   1.302   3.770   7.610 -0.5689  0.0224  0.4276
 2094TIP3    H127841   1.251   3.841   7.648  0.4501 -0.0291  2.0035
 2094TIP3    H227842   1.358   3.740   7.682  0.6454 -0.8582 -0.8315
 2095TIP3   OH227843   1.928   1.425   0.486  0.5255  0.3731 -0.4737
 2095TIP3    H127844   1.948   1.493   0.421  0.1687  0.8345 -0.1088
 2095TIP3    H227845   1.855   1.461   0.536  0.0616 -0.4612 -0.5402
 2096TIP3   OH227846   6.066   3.910   0.221 -0.4016  0.7638  0.3245
 2096TIP3    H127847   6.068   4.006   0.217  0.7348  0.7257 -1.0452
 2096TIP3    H227848   6.155   3.886   0.248 -0.3532  0.0834 -0.4154
 2097TIP3   OH227849   5.999   4.369   7.931  0.4313 -0.5152  0.1625
 2097TIP3    H127850   6.014   4.297   7.993  0.1240  0.1581  1.0412
 2097TIP3    H227851   5.905   4.384   7.933  0.6116  0.5999  0.7883
 2098TIP3   OH227852   0.677   3.975   7.365 -0.4412  0.0613 -0.1959
 2098TIP3    H127853   0.641   3.913   7.301 -1.7685 -0.0085  0.5828
 2098TIP3    H227854   0.697   4.053   7.314  0.7587 -0.7989 -1.0975
 2099TIP3   OH227855   0.962   3.869   1.663 -0.2155 -0.2686 -0.5564
 2099TIP3    H127856   0.938   3.777   1.651  1.5131 -1.0566  1.4986
 2099TIP3    H227857   0.879   3.912   1.684 -0.7771 -1.7924  0.5630
 2100TIP3   OH227858   5.179   3.756   0.242 -0.0969  0.0995 -0.3472
 2100TIP3    H127859   5.222   3.840   0.226 -0.8408  0.3649 -0.9884
 2100TIP3    H227860   5.250   3.692   0.241  0.3627  0.6084 -0.7691
 2101TIP3   OH227861   4.715   1.529   2.019  0.4481 -0.4466  0.6073
 2101TIP3    H127862   4.685   1.619   2.024  1.8379  0.1478 -0.8498
 2101TIP3    H227863   4.705   1.495   2.108 -1.1864  0.7488  0.9224
 2102TIP3   OH227864   2.049   4.252   0.906  0.2606  0.4989 -0.1150
 2102TIP3    H127865   2.072   4.345   0.904 -1.0929  0.9248  1.4114
 2102TIP3    H227866   2.093   4.218   0.984 -0.9351  0.4175  0.5692
 2103TIP3   OH227867   5.963   6.505   7.564  0.5898 -0.0383  0.5261
 2103TIP3    H127868   5.942   6.591   7.528 -0.8644 -1.2334 -1.6856
 2103TIP3    H227869   5.950   6.515   7.659  0.4654  2.1486  0.3364
 2104TIP3   OH227870   1.711   0.412   2.089  0.0887  0.2881  0.4265
 2104TIP3    H127871   1.647   0.459   2.142 -1.5853 -0.2053 -1.0665
 2104TIP3    H227872   1.755   0.480   2.038 -0.3343  0.4965  0.3376
 2105TIP3   OH227873   0.580   5.986   2.058 -0.5293 -0.5158 -0.4043
 2105TIP3    H127874   0.543   5.965   2.144  0.8003 -0.6546  0.1595
 2105TIP3    H227875   0.674   5.979   2.071 -0.2995 -0.1414 -1.7865
 2106TIP3   OH227876   3.223   3.502   8.464 -0.0654 -0.5432  0.3512
 2106TIP3    H127877   3.170   3.478   8.388 -0.6333 -0.6812  0.7855
 2106TIP3    H227878   3.187   3.586   8.493 -0.2221 -0.7622  0.8018
 2107TIP3   OH227879   6.592   2.459   8.437 -0.7243 -0.2518 -0.1219
 2107TIP3    H127880   6.537   2.534   8.415 -2.0947 -0.2415  2.8255
 2107TIP3    H227881   6.665   2.496   8.486  1.4704 -0.4107 -2.9901
 2108TIP3   OH227882   5.837   3.819   0.094  0.2756  0.2049 -0.0623
 2108TIP3    H127883   5.898   3.802   0.166  1.8058  0.5201 -1.2331
 2108TIP3    H227884   5.778   3.887   0.127  1.1793  0.6024  0.7686
 2109TIP3   OH227885   6.600   0.147   2.763 -0.1217 -0.6293  0.9886
 2109TIP3    H127886   6.638   0.224   2.721  0.1480 -1.3914 -0.2142
 2109TIP3    H227887   6.662   0.123   2.831 -0.3631  0.3858  1.5868
 2110TIP3   OH227888   4.700   5.921   6.505 -0.0359  0.4065 -0.0148
 2110TIP3    H127889   4.635   5.971   6.555  1.0546  0.7189  1.1340
 2110TIP3    H227890   4.682   5.943   6.414 -2.0071 -0.0797  0.2069
 2111TIP3   OH227891   4.449   1.114   7.595 -0.2639  0.0810 -0.0205
 2111TIP3    H127892   4.480   1.180   7.533 -0.2276 -0.3695 -0.4889
 2111TIP3    H227893   4.358   1.098   7.571 -0.5644  0.6644  0.7105
 2112TIP3   OH227894   3.052   0.512   7.561 -0.3698 -0.1824  0.0410
 2112TIP3    H127895   3.055   0.524   7.656 -4.2653 -1.7245  0.5199
 2112TIP3    H227896   3.068   0.600   7.526  1.9388  0.2795  1.9763
 2113TIP3   OH227897   1.340   0.941   6.639 -0.1139  0.4478  0.4906
 2113TIP3    H127898   1.346   0.949   6.543  2.5924  1.8618  0.6815
 2113TIP3    H227899   1.426   0.909   6.665 -0.2019  1.7583  2.5963
 2114TIP3   OH227900   4.640   6.026   1.137  0.3141  0.1176  0.0834
 2114TIP3    H127901   4.705   5.989   1.197  0.8989  1.1270  0.0985
 2114TIP3    H227902   4.666   5.994   1.051  0.5401  0.1027  0.1558
 2115TIP3   OH227903   1.238   4.293   7.783 -0.0756  0.1668 -0.0439
 2115TIP3    H127904   1.253   4.369   7.726  1.8616 -0.7650 -0.8547
 2115TIP3    H227905   1.161   4.317   7.834 -0.8061  1.7837 -1.7797
 2116TIP3   OH227906   4.170   1.371   6.340  0.3195 -0.0043 -0.3050
 2116TIP3    H127907   4.207   1.318   6.411 -3.1116  0.1441  1.8417
 2116TIP3    H227908   4.106   1.313   6.299  1.4685  0.2941 -2.6997
 2117TIP3   OH227909   3.863   4.707   1.621  0.0496 -0.0397  0.2512
 2117TIP3    H127910   3.774   4.712   1.655 -0.4106  1.6029 -1.0533
 2117TIP3    H227911   3.901   4.792   1.640  1.8350 -1.1542  1.9517
 2118TIP3   OH227912   1.594   3.392   1.444 -0.2352 -0.0968  0.2612
 2118TIP3    H127913   1.623   3.455   1.379  0.8861  0.8744  1.6387
 2118TIP3    H227914   1.587   3.442   1.525 -1.4817 -1.2855  0.9254
 2119TIP3   OH227915   0.059   0.228   1.609 -0.1435 -0.5103  0.0552
 2119TIP3    H127916   0.110   0.309   1.611 -1.2124  0.1778  0.6136
 2119TIP3    H227917   0.124   0.158   1.610  0.8374  0.3252 -1.5585
 2120TIP3   OH227918   2.997   0.471   8.153 -1.1025  0.0038  0.0624
 2120TIP3    H127919   3.041   0.537   8.206 -0.2633 -0.5690  0.1126
 2120TIP3    H227920   2.922   0.443   8.206 -0.2669 -0.5811  0.9810
 2121TIP3   OH227921   2.532   1.512   1.414 -0.1272 -0.3691  0.3361
 2121TIP3    H127922   2.470   1.582   1.391  2.9788  2.0820 -1.4285
 2121TIP3    H227923   2.527   1.451   1.340 -0.7739 -0.4760  0.4595
 2122TIP3   OH227924   0.147   4.616   6.942 -0.3908 -0.7397  0.1648
 2122TIP3    H127925   0.149   4.650   6.852 -2.3841  0.7336  0.5960
 2122TIP3    H227926   0.237   4.592   6.961  0.3807  0.4739 -1.6736
 2123TIP3   OH227927   0.403   3.806   2.120  0.0332  0.0580 -0.2914
 2123TIP3    H127928   0.324   3.752   2.132 -0.4934  0.5253 -1.5342
 2123TIP3    H227929   0.472   3.743   2.097 -0.0269 -0.3190  0.5144
 2124TIP3   OH227930   1.129   0.900   6.099 -1.2034  0.4803  0.0500
 2124TIP3    H127931   1.053   0.956   6.083 -1.4356  0.1572  0.0274
 2124TIP3    H227932   1.110   0.819   6.053 -0.7008  0.5122 -0.2229
 2125TIP3   OH227933   3.641   4.482   2.214  0.0992 -0.4737 -0.3057
 2125TIP3    H127934   3.585   4.554   2.240  0.3589 -0.7909  1.2533
 2125TIP3    H227935   3.606   4.406   2.261  1.2998 -0.8411  0.0527
 2126TIP3   OH227936   3.593   0.423   7.517  0.1182  0.5014  0.4408
 2126TIP3    H127937   3.679   0.429   7.475 -0.2704  2.9481 -0.1864
 2126TIP3    H227938   3.572   0.330   7.515  1.7873  0.0840 -1.4067
 2127TIP3   OH227939   2.994   2.295   1.224  0.1982  0.5363  0.1788
 2127TIP3    H127940   3.083   2.286   1.257  0.2680  1.1910  0.1817
 2127TIP3    H227941   3.003   2.341   1.141 -0.0192 -0.7136 -0.5608
 2128TIP3   OH227942   1.891   0.744   1.405  0.0258 -0.0768  0.4383
 2128TIP3    H127943   1.879   0.835   1.378 -1.3333 -0.4508 -0.3162
 2128TIP3    H227944   1.935   0.703   1.331 -1.0249 -0.4248 -0.0225
 2129TIP3   OH227945   2.378   1.556   6.318  0.5326  0.0567  0.2137
 2129TIP3    H127946   2.304   1.502   6.291  0.9730  0.6674 -2.4600
 2129TIP3    H227947   2.355   1.645   6.290  1.5977  0.5401  0.8031
 2130TIP3   OH227948   3.611   0.870   7.972  0.4277 -0.1025 -0.5271
 2130TIP3    H127949   3.675   0.838   8.035  2.6425  1.0116 -2.0783
 2130TIP3    H227950   3.576   0.950   8.011 -0.4697 -0.9808  0.5480
 2131TIP3   OH227951   2.662   0.958   7.246 -0.2719 -0.1116  0.0977
 2131TIP3    H127952   2.653   0.927   7.336 -1.5174  1.7521  0.6865
 2131TIP3    H227953   2.756   0.971   7.235  0.0763 -2.1168  0.4671
 2132TIP3   OH227954   3.758   6.714   0.051  0.3166 -0.0024  0.0001
 2132TIP3    H127955   3.663   6.722   0.060  0.5077  1.6862  1.1375
 2132TIP3    H227956   3.793   6.772   0.120  2.1443  2.0813 -2.4774
 2133TIP3   OH227957   1.898   1.490   2.268  0.2950 -1.1827  0.2543
 2133TIP3    H127958   1.966   1.556   2.265  0.3243 -1.2498 -0.6349
 2133TIP3    H227959   1.837   1.521   2.336  0.5952 -0.5389  0.2322
 2134TIP3   OH227960   2.387   5.139   2.183 -0.1719 -0.2535 -0.0892
 2134TIP3    H127961   2.295   5.138   2.157  0.1320  1.0112 -1.2694
 2134TIP3    H227962   2.388   5.091   2.266 -2.2184  1.4629  1.0255
 2135TIP3   OH227963   2.200   2.501   0.698 -0.1793  0.0173  0.9698
 2135TIP3    H127964   2.158   2.587   0.698 -0.6606 -0.2147  0.6972
 2135TIP3    H227965   2.268   2.508   0.631 -0.6737 -0.0320  0.4571
 2136TIP3   OH227966   1.635   5.276   7.846 -0.6567 -0.3013 -0.3747
 2136TIP3    H127967   1.620   5.265   7.940  0.3623  1.1064 -0.0094
 2136TIP3    H227968   1.729   5.262   7.835 -0.4320  1.3386 -0.8581
 2137TIP3   OH227969   0.127   3.831   2.359  0.4564  0.3160  0.4258
 2137TIP3    H127970   0.204   3.792   2.319 -0.4482 -0.0858 -0.9973
 2137TIP3    H227971   0.068   3.758   2.374 -0.3731  0.8267 -0.2262
 2138TIP3   OH227972   1.103   5.201   1.031 -0.1461  1.2745  0.2847
 2138TIP3    H127973   1.027   5.178   1.085 -0.1947 -0.4642 -0.4756
 2138TIP3    H227974   1.168   5.135   1.052 -0.0353  0.7629 -1.4859
 2139TIP3   OH227975   0.165   3.952   7.052  0.6933 -0.1805 -0.1869
 2139TIP3    H127976   0.162   3.985   6.962 -1.6194  0.4484  0.0576
 2139TIP3    H227977   0.155   3.857   7.043 -2.1412  0.0622 -0.5824
 2140TIP3   OH227978   1.812   0.529   7.837 -0.3246  0.1601 -0.1944
 2140TIP3    H127979   1.819   0.470   7.762  1.0061 -0.1428  0.1553
 2140TIP3    H227980   1.857   0.609   7.810 -1.6172  0.8310 -0.4523
 2141TIP3   OH227981   5.972   1.807   8.281  0.0665 -0.1363  0.7289
 2141TIP3    H127982   5.930   1.724   8.258  0.2545 -0.5214  1.7239
 2141TIP3    H227983   5.962   1.814   8.376  0.3890  0.8003  0.7092
 2142TIP3   OH227984   3.497   5.683   8.523  0.2661 -0.1006 -0.3081
 2142TIP3    H127985   3.519   5.750   8.587  1.5187 -0.8417  0.0724
 2142TIP3    H227986   3.483   5.604   8.575  0.8920 -0.6144 -0.8901
 2143TIP3   OH227987   4.537   3.373   8.324 -0.4836 -0.6016  0.1551
 2143TIP3    H127988   4.622   3.329   8.321 -0.3912 -0.3838 -0.8172
 2143TIP3    H227989   4.545   3.437   8.395  0.0020 -0.9078  0.3759
 2144TIP3   OH227990   5.698   5.788   7.474 -0.0127 -0.0597 -0.3118
 2144TIP3    H127991   5.604   5.802   7.472 -0.2257 -1.1622  0.9566
 2144TIP3    H227992   5.709   5.695   7.491  1.2524  0.4205  1.8974
 2145TIP3   OH227993   4.114   6.101   1.626 -0.1799 -0.0329  0.5230
 2145TIP3    H127994   4.190   6.043   1.632  0.9232  1.4886  2.4614
 2145TIP3    H227995   4.039   6.041   1.618  1.0860 -1.6178 -0.0773
 2146TIP3   OH227996   0.658   5.858   7.092  0.0382 -0.1830  0.0969
 2146TIP3    H127997   0.718   5.791   7.126 -0.3226 -0.4969  0.1188
 2146TIP3    H227998   0.707   5.899   7.021  0.8252  0.5034  0.9945
 2147TIP3   OH227999   0.619   3.518   8.199 -0.0619  0.1582  0.1138
 2147TIP3    H128000   0.525   3.502   8.198 -0.2760  0.9137  2.3364
 2147TIP3    H228001   0.652   3.464   8.271  0.9946  0.8283  0.1563
 2148TIP3   OH228002   4.175   1.178   0.132 -0.2607  0.0818 -0.3217
 2148TIP3    H128003   4.142   1.197   0.220 -0.6321 -0.6842 -0.2833
 2148TIP3    H228004   4.259   1.223   0.128 -1.2142  1.9538 -0.3589
 2149TIP3   OH228005   3.612   5.004   0.355  0.1831  0.3800 -0.0011
 2149TIP3    H128006   3.581   5.092   0.375  0.9670  0.3902  1.2580
 2149TIP3    H228007   3.656   5.013   0.270 -0.5629  0.9806 -0.3417
 2150TIP3   OH228008   4.475   2.576   7.668 -0.3350 -0.1261  0.2291
 2150TIP3    H128009   4.480   2.499   7.611 -0.5085  0.6914 -0.9406
 2150TIP3    H228010   4.491   2.650   7.609 -0.2794  0.7433  1.3055
 2151TIP3   OH228011   6.666   1.932   1.612  0.2918  0.1580  0.6154
 2151TIP3    H128012   6.593   1.910   1.554  1.3949 -0.7582 -0.4787
 2151TIP3    H228013   6.702   1.847   1.638 -0.6887  0.4875  3.4010
 2152TIP3   OH228014   0.870   5.423   1.967 -0.9782  0.0827  0.2694
 2152TIP3    H128015   0.823   5.412   2.049 -0.2120  0.3498  0.7581
 2152TIP3    H228016   0.808   5.469   1.910 -1.7183 -0.6103  0.4931
 2153TIP3   OH228017   5.323   6.413   1.804  0.5124  0.5810 -0.2780
 2153TIP3    H128018   5.321   6.465   1.884 -0.7881 -2.3905  1.7670
 2153TIP3    H228019   5.233   6.383   1.792  1.3774 -2.1681 -0.5970
 2154TIP3   OH228020   0.651   1.486   7.598  1.1765  0.5628 -0.0576
 2154TIP3    H128021   0.583   1.451   7.540 -1.3258 -0.6491  3.2682
 2154TIP3    H228022   0.681   1.411   7.649  1.0518  1.9709  2.2331
 2155TIP3   OH228023   0.499   6.865   1.282 -0.5716  0.1104  0.6053
 2155TIP3    H128024   0.486   6.800   1.351 -0.6587  1.5317  1.9681
 2155TIP3    H228025   0.415   6.869   1.237 -0.5229 -0.8028  0.3990
 2156TIP3   OH228026   0.355   6.697   7.249 -0.2155 -0.2460  0.7156
 2156TIP3    H128027   0.403   6.769   7.207 -1.3410  0.3098  0.3111
 2156TIP3    H228028   0.269   6.735   7.269 -1.0663 -1.6419 -0.0786
 2157TIP3   OH228029   0.086   4.559   1.670  0.1609 -0.0998  0.2862
 2157TIP3    H128030   0.113   4.639   1.715  0.2511  0.4902 -0.7810
 2157TIP3    H228031   0.162   4.501   1.678  0.3848  0.2046  0.4085
 2158TIP3   OH228032   5.830   6.416   1.001  0.8236 -0.2682  0.8228
 2158TIP3    H128033   5.844   6.504   0.967 -0.1875  0.3589  1.9616
 2158TIP3    H228034   5.843   6.425   1.096  0.2421 -1.2432  1.0053
 2159TIP3   OH228035   2.721   4.675   0.387  0.1954  0.0749 -0.0863
 2159TIP3    H128036   2.728   4.761   0.345  0.7782 -0.0992 -0.3539
 2159TIP3    H228037   2.754   4.689   0.476 -1.8817  0.6519  0.6398
 2160TIP3   OH228038   0.330   2.157   1.006  0.2970  0.1823  0.0623
 2160TIP3    H128039   0.337   2.072   0.964 -3.4654 -1.2394  1.8038
 2160TIP3    H228040   0.362   2.143   1.095  1.8449  1.2928 -0.2796
 2161TIP3   OH228041   4.029   6.730   1.268  0.0404  0.4500 -0.1807
 2161TIP3    H128042   4.035   6.638   1.295  0.5098 -0.1641 -2.2118
 2161TIP3    H228043   4.096   6.774   1.322 -0.7900 -0.1876  1.4535
 2162TIP3   OH228044   2.809   1.520   2.558  0.0822  0.0862 -0.5367
 2162TIP3    H128045   2.770   1.590   2.610 -1.4236  0.4009 -2.0158
 2162TIP3    H228046   2.734   1.466   2.531  0.9486 -0.6781 -1.4730
 2163TIP3   OH228047   3.293   1.682   6.405  0.7308  0.2928 -0.5794
 2163TIP3    H128048   3.287   1.777   6.401  1.5349  0.3208 -2.9381
 2163TIP3    H228049   3.386   1.663   6.394  0.4508 -0.7695 -1.2969
 2164TIP3   OH228050   5.532   4.257   6.524 -0.1690 -0.3745  0.2954
 2164TIP3    H128051   5.483   4.320   6.577 -0.8825 -1.5459  1.0552
 2164TIP3    H228052   5.486   4.174   6.535 -1.3383 -0.4113 -3.4606
 2165TIP3   OH228053   4.619   2.927   1.582 -0.7753 -0.1777 -0.8948
 2165TIP3    H128054   4.527   2.951   1.591 -0.3852  1.3145 -0.5945
 2165TIP3    H228055   4.652   2.926   1.671 -0.6358 -1.3381 -0.9514
 2166TIP3   OH228056   3.826   6.425   1.704  0.2135  0.1971  0.2885
 2166TIP3    H128057   3.901   6.391   1.752 -0.7406  0.3123  1.9306
 2166TIP3    H228058   3.859   6.504   1.661  1.3332 -0.4459 -0.0799
 2167TIP3   OH228059   3.537   1.621   2.204  0.5641 -0.0212 -0.1100
 2167TIP3    H128060   3.525   1.716   2.198  0.9808  0.2326  2.1639
 2167TIP3    H228061   3.587   1.597   2.126  1.2457  1.7706 -0.2565
 2168TIP3   OH228062   0.099   6.550   0.772  0.2571  0.0078 -0.6179
 2168TIP3    H128063   0.005   6.549   0.752  0.7396  0.4335 -3.4164
 2168TIP3    H228064   0.137   6.604   0.703  2.7742 -1.7985 -0.7674
 2169TIP3   OH228065   4.922   4.040   7.913 -0.1072  0.0128  0.5021
 2169TIP3    H128066   4.990   4.047   7.980  2.1449  0.9400 -1.7218
 2169TIP3    H228067   4.879   4.125   7.913  0.4877  0.3234  0.2299
 2170TIP3   OH228068   5.951   4.126   0.775 -0.1637 -0.1059 -0.4196
 2170TIP3    H128069   5.951   4.052   0.836 -0.8702  1.0081  0.9946
 2170TIP3    H228070   5.861   4.133   0.744  0.2715 -0.9137 -1.9589
 2171TIP3   OH228071   0.711   2.079   0.180 -0.7471 -0.5704 -0.0392
 2171TIP3    H128072   0.766   2.037   0.246 -2.0309  0.8525  2.0211
 2171TIP3    H228073   0.627   2.094   0.223 -1.7337  0.1649 -2.0852
 2172TIP3   OH228074   2.874   1.983   7.980  0.1982  0.2141 -0.3201
 2172TIP3    H128075   2.836   1.940   7.904 -1.4196 -0.8212  0.9964
 2172TIP3    H228076   2.967   1.961   7.976 -0.2546 -1.8061 -0.7565
 2173TIP3   OH228077   6.491   1.822   7.301 -0.4415  0.2816 -0.1706
 2173TIP3    H128078   6.416   1.878   7.320  0.2067  0.7507  1.0727
 2173TIP3    H228079   6.537   1.813   7.385  1.6783  1.1499 -1.1690
 2174TIP3   OH228080   3.615   0.512   0.559  0.2942 -0.0780 -0.0004
 2174TIP3    H128081   3.529   0.476   0.579  0.2665  0.1619  0.3123
 2174TIP3    H228082   3.650   0.539   0.643  0.0473  1.2341 -0.2995
 2175TIP3   OH228083   2.125   2.781   1.673 -0.2815  0.4278 -0.0475
 2175TIP3    H128084   2.138   2.792   1.578  0.8818 -1.4444 -0.1532
 2175TIP3    H228085   2.063   2.709   1.681  1.2406 -0.8854  0.5706
 2176TIP3   OH228086   1.141   6.806   7.602  0.1317  0.1937 -0.1367
 2176TIP3    H128087   1.166   6.844   7.517  0.4381 -0.0452 -0.1560
 2176TIP3    H228088   1.219   6.759   7.631 -0.1596 -0.2055  0.0068
 2177TIP3   OH228089   2.676   1.857   2.264 -0.0288  0.1275 -0.4676
 2177TIP3    H128090   2.724   1.937   2.245 -1.7085  1.0220 -1.1519
 2177TIP3    H228091   2.594   1.888   2.303 -0.4161 -1.2979 -0.1105
 2178TIP3   OH228092   0.775   2.181   0.566  0.1588 -0.1646 -0.1647
 2178TIP3    H128093   0.731   2.124   0.503 -0.9061  1.9929 -1.4878
 2178TIP3    H228094   0.773   2.132   0.648 -2.6551 -1.1416 -0.7093
 2179TIP3   OH228095   6.697   1.265   0.935 -0.1486  0.1124  0.0691
 2179TIP3    H128096   6.607   1.268   0.967  0.2179 -1.2869  1.3562
 2179TIP3    H228097   6.746   1.323   0.994  0.3644 -1.7735  1.5979
 2180TIP3   OH228098   6.591   1.008   7.988 -0.4628 -0.6151 -0.2554
 2180TIP3    H128099   6.672   1.048   8.018 -0.5279 -0.6885  0.0223
 2180TIP3    H228100   6.614   0.966   7.905 -0.5574  0.5744 -0.9071
 2181TIP3   OH228101   2.541   3.077   0.983  0.4387 -0.0877 -0.0327
 2181TIP3    H128102   2.477   3.013   1.013  0.1159  0.7816  1.2041
 2181TIP3    H228103   2.578   3.038   0.904 -2.1768 -0.2599 -1.2676
 2182TIP3   OH228104   3.926   2.203   8.503  0.1385 -0.2625 -0.1600
 2182TIP3    H128105   3.839   2.242   8.490  0.4389  0.0047 -1.5697
 2182TIP3    H228106   3.921   2.119   8.459  0.5472 -0.3117 -0.1124
 2183TIP3   OH228107   3.215   1.536   1.472  0.7325 -0.0878  0.3045
 2183TIP3    H128108   3.189   1.500   1.387 -0.0834 -0.3097  0.6411
 2183TIP3    H228109   3.187   1.627   1.469  1.4589  0.1292  0.0197
 2184TIP3   OH228110   5.343   2.120   7.752  0.0949 -0.2633 -0.2936
 2184TIP3    H128111   5.376   2.061   7.820 -1.1817 -1.4251 -0.6249
 2184TIP3    H228112   5.402   2.107   7.678  1.5417  1.0718  0.5700
 2185TIP3   OH228113   0.288   6.078   1.866 -0.0296 -0.2954 -0.0592
 2185TIP3    H128114   0.198   6.047   1.855 -0.3401  0.8354 -0.9514
 2185TIP3    H228115   0.318   6.093   1.776  0.4964  0.8056  0.2831
 2186TIP3   OH228116   4.574   5.171   8.058  0.3515  0.5424  0.3789
 2186TIP3    H128117   4.498   5.131   8.101 -0.2296 -1.3253 -2.1397
 2186TIP3    H228118   4.649   5.144   8.111 -0.5730  1.3523  2.1892
 2187TIP3   OH228119   5.297   3.258   1.818  0.7791 -0.2047 -0.0045
 2187TIP3    H128120   5.274   3.293   1.904 -1.0691 -0.5114 -0.3309
 2187TIP3    H228121   5.392   3.249   1.820  0.8386  0.4671  1.7375
 2188TIP3   OH228122   4.718   3.553   1.265 -0.2487 -0.0851  0.0611
 2188TIP3    H128123   4.716   3.649   1.268  1.0947 -0.0542  1.3868
 2188TIP3    H228124   4.811   3.532   1.255 -0.5913 -1.2512 -0.8000
 2189TIP3   OH228125   6.302   0.591   8.222  0.7507 -0.2512  0.0479
 2189TIP3    H128126   6.364   0.655   8.188 -0.7191  0.4022 -1.5756
 2189TIP3    H228127   6.238   0.644   8.270 -0.2427 -0.5066 -0.9475
 2190TIP3   OH228128   2.891   2.907   0.518 -0.2425 -0.1683 -0.3259
 2190TIP3    H128129   2.923   2.993   0.545 -1.7901 -0.3177  2.3181
 2190TIP3    H228130   2.931   2.846   0.580 -1.8515 -0.9063  0.0229
 2191TIP3   OH228131   5.641   1.226   0.468  0.2636 -0.1614  0.3271
 2191TIP3    H128132   5.614   1.147   0.422 -1.2020  0.9755 -0.9118
 2191TIP3    H228133   5.687   1.195   0.546 -0.5912 -2.2169  0.0730
 2192TIP3   OH228134   1.690   5.194   7.456 -0.1288  0.2325  0.0923
 2192TIP3    H128135   1.767   5.251   7.450 -0.7319  1.3143  1.8822
 2192TIP3    H228136   1.674   5.165   7.366  2.6444 -0.4384 -0.2897
 2193TIP3   OH228137   1.167   6.277   2.474  0.6262 -0.8266 -0.2910
 2193TIP3    H128138   1.145   6.253   2.564  2.0568  0.6573  0.5290
 2193TIP3    H228139   1.256   6.244   2.461  0.0177 -2.0490 -1.6132
 2194TIP3   OH228140   3.515   3.542   8.429  0.8869 -0.0586  0.0620
 2194TIP3    H128141   3.433   3.545   8.380  0.1590  1.3545  1.2892
 2194TIP3    H228142   3.571   3.607   8.386  1.0644 -0.4086 -0.2437
 2195TIP3   OH228143   1.133   0.581   0.100  0.4393 -0.1313 -0.1532
 2195TIP3    H128144   1.153   0.566   0.192 -2.5560 -1.0719  0.4616
 2195TIP3    H228145   1.128   0.493   0.062 -1.3011  0.0708 -0.4550
 2196TIP3   OH228146   2.673   4.917   0.847  0.6188  0.1411  0.7680
 2196TIP3    H128147   2.687   4.866   0.927 -1.0452 -0.9182  0.4253
 2196TIP3    H228148   2.579   4.929   0.842  0.6493 -0.0507 -1.1644
 2197TIP3   OH228149   1.814   1.845   7.017 -0.6996 -0.2710  0.3649
 2197TIP3    H128150   1.720   1.828   7.011 -0.5508 -1.2271  0.5431
 2197TIP3    H228151   1.843   1.788   7.089 -0.2322  1.1171  1.3174
 2198TIP3   OH228152   3.404   1.418   2.323 -0.5253 -0.4206  0.0830
 2198TIP3    H128153   3.340   1.401   2.254 -1.0972  0.2642  0.4422
 2198TIP3    H228154   3.462   1.485   2.286  0.7159 -1.8403 -0.6856
 2199TIP3   OH228155   1.751   3.253   7.649 -0.0377 -0.5427  0.0852
 2199TIP3    H128156   1.730   3.207   7.568  1.0557  0.2258 -0.6687
 2199TIP3    H228157   1.731   3.345   7.631  0.8365 -0.2685  0.4529
 2200TIP3   OH228158   6.714   0.655   1.443 -0.2832  0.5079  0.0525
 2200TIP3    H128159   6.706   0.576   1.389 -2.5451 -0.2366  1.3399
 2200TIP3    H228160   6.780   0.634   1.508 -0.7037 -0.2417  0.2410
 2201TIP3   OH228161   4.280   4.221   1.071 -0.0560  0.4447  0.2706
 2201TIP3    H128162   4.349   4.254   1.129  0.0310 -0.5376  0.7453
 2201TIP3    H228163   4.225   4.168   1.127 -0.7983  0.6408 -0.2613
 2202TIP3   OH228164   0.975   2.520   8.406  0.6051 -0.3428  0.0368
 2202TIP3    H128165   0.925   2.596   8.373 -0.1466 -0.0491  1.7379
 2202TIP3    H228166   0.998   2.471   8.327 -1.3799  0.1430 -0.9299
 2203TIP3   OH228167   4.661   0.854   0.703 -0.0656 -0.2054 -0.3447
 2203TIP3    H128168   4.639   0.761   0.698  0.0320 -0.2075 -0.8409
 2203TIP3    H228169   4.589   0.893   0.753 -0.0957 -0.5513 -0.1174
 2204TIP3   OH228170   2.651   1.555   8.294  0.2518 -0.1023  0.4725
 2204TIP3    H128171   2.652   1.526   8.203  1.0137  1.0787  0.0844
 2204TIP3    H228172   2.627   1.476   8.344  1.5550 -1.2378 -0.5992
 2205TIP3   OH228173   2.934   6.100   1.432  0.5733  0.0534 -0.0188
 2205TIP3    H128174   3.000   6.033   1.449  2.0763  1.2298 -0.8647
 2205TIP3    H228175   2.952   6.168   1.498  0.2534  0.3992 -0.2846
 2206TIP3   OH228176   3.206   5.549   6.456  0.2346 -0.0573  0.1032
 2206TIP3    H128177   3.226   5.561   6.363  0.0564 -2.7763 -0.3880
 2206TIP3    H228178   3.220   5.455   6.471 -2.5239 -0.2544  2.1326
 2207TIP3   OH228179   5.936   0.832   7.980 -0.0788  0.3914  0.4646
 2207TIP3    H128180   5.997   0.781   7.926  1.3943  2.6407 -0.0965
 2207TIP3    H228181   5.851   0.823   7.935  0.7901  0.9359 -1.3892
 2208TIP3   OH228182   2.899   5.242   1.363 -0.3595  0.7653  0.2533
 2208TIP3    H128183   2.865   5.235   1.452 -0.1794  0.1142  0.2796
 2208TIP3    H228184   2.898   5.335   1.344 -0.7277  0.8811  0.8108
 2209TIP3   OH228185   0.015   3.356   0.206 -0.0271 -0.4195  0.4293
 2209TIP3    H128186  -0.045   3.427   0.230 -0.0893 -0.6751  1.0236
 2209TIP3    H228187  -0.023   3.320   0.125 -1.6918 -1.7422  1.7334
 2210TIP3   OH228188   1.952   4.218   1.678  0.0185 -0.3684  0.2332
 2210TIP3    H128189   1.858   4.199   1.675  0.0498 -0.5599  0.4063
 2210TIP3    H228190   1.968   4.247   1.768  0.0151  0.2696  0.0326
 2211TIP3   OH228191   5.465   2.528   8.426  0.3547 -0.1342 -0.1594
 2211TIP3    H128192   5.547   2.486   8.452  1.1090  0.7502 -1.0336
 2211TIP3    H228193   5.439   2.482   8.346  0.7669  0.5081 -0.6761
 2212TIP3   OH228194   3.640   0.280   1.617  0.3334 -0.2989 -0.2911
 2212TIP3    H128195   3.550   0.260   1.641  0.2146  1.2047  0.6316
 2212TIP3    H228196   3.682   0.302   1.700  1.5057 -0.7533 -0.7412
 2213TIP3   OH228197   0.860   0.701   7.337  0.0103  0.0789 -0.0181
 2213TIP3    H128198   0.900   0.772   7.289 -0.6014  0.5392  0.1342
 2213TIP3    H228199   0.813   0.744   7.409 -0.8510 -0.4169 -0.2636
 2214TIP3   OH228200   4.780   4.402   0.563  0.7707  0.2485  0.3687
 2214TIP3    H128201   4.767   4.337   0.632  0.9480  0.6655  0.8012
 2214TIP3    H228202   4.767   4.486   0.606 -0.1629  0.4866 -0.3439
 2215TIP3   OH228203   5.268   3.251   8.353 -0.4980 -0.6109  0.1517
 2215TIP3    H128204   5.178   3.251   8.319 -0.7990 -0.8585  0.9310
 2215TIP3    H228205   5.275   3.333   8.402  1.1026  1.6131 -3.4114
 2216TIP3   OH228206   2.713   3.575   7.040 -0.4307 -0.2456 -0.4570
 2216TIP3    H128207   2.636   3.532   7.077 -0.8061  0.9923  0.2436
 2216TIP3    H228208   2.681   3.619   6.961 -0.1023 -1.0006 -1.0257
 2217TIP3   OH228209   3.583   1.225   0.170 -0.3670 -0.1554 -0.2415
 2217TIP3    H128210   3.549   1.201   0.084 -1.2229 -0.6764  0.2334
 2217TIP3    H228211   3.562   1.318   0.179 -0.2812 -0.0995 -0.5790
 2218TIP3   OH228212   1.250   1.137   6.961 -0.6135 -0.0674 -0.1199
 2218TIP3    H128213   1.163   1.175   6.977 -0.3714  0.6900 -0.5620
 2218TIP3    H228214   1.232   1.059   6.908 -1.0541 -0.1074  0.0804
 2219TIP3   OH228215   0.595   4.834   7.956  0.4305  0.2136 -0.4543
 2219TIP3    H128216   0.583   4.924   7.927 -0.2383  0.7476  1.3316
 2219TIP3    H228217   0.578   4.837   8.050  1.9058 -1.5014 -0.0808
 2220TIP3   OH228218   1.539   6.866   6.834 -0.2320  0.0121 -0.0517
 2220TIP3    H128219   1.561   6.847   6.743 -0.0395  0.9190 -0.2121
 2220TIP3    H228220   1.537   6.781   6.877 -2.6624 -0.6963 -1.3831
 2221TIP3   OH228221   5.890   6.417   8.346 -0.0732  0.2937 -0.1380
 2221TIP3    H128222   5.905   6.469   8.267  1.6914 -1.1652 -0.8573
 2221TIP3    H228223   5.811   6.367   8.326  0.5864 -0.3774 -1.2222
 2222TIP3   OH228224   6.011   0.344   8.304 -0.1048  0.4543 -0.0511
 2222TIP3    H128225   5.961   0.263   8.318 -0.5124  1.0052  2.2418
 2222TIP3    H228226   5.946   0.414   8.315  0.2707  1.1324 -1.8387
 2223TIP3   OH228227   4.713   2.081   0.941  0.4889 -0.4086 -0.1196
 2223TIP3    H128228   4.718   2.175   0.962 -0.3232 -0.4656  0.3427
 2223TIP3    H228229   4.781   2.042   0.995  0.1522 -0.2111  0.4597
 2224TIP3   OH228230   5.620   3.019   7.369 -0.1880 -0.0477 -0.0313
 2224TIP3    H128231   5.560   2.964   7.318 -1.0556  0.0413  0.8660
 2224TIP3    H228232   5.658   3.079   7.305 -0.5201 -0.5765 -0.7337
 2225TIP3   OH228233   5.939   6.582   1.884 -0.0025 -0.1655 -0.1600
 2225TIP3    H128234   5.846   6.576   1.861  0.4077  0.4126 -2.2334
 2225TIP3    H228235   5.956   6.676   1.891  0.4645 -0.2610  0.0133
 2226TIP3   OH228236   5.874   2.349   7.944 -0.2561  0.4267  0.4509
 2226TIP3    H128237   5.937   2.330   7.875 -0.1171 -0.2808  0.7601
 2226TIP3    H228238   5.925   2.343   8.025 -0.9007 -1.1593  0.7823
 2227TIP3   OH228239   4.469   0.721   7.961 -0.1150 -0.0253 -0.3844
 2227TIP3    H128240   4.546   0.717   8.017 -0.1276  1.6292 -0.2132
 2227TIP3    H228241   4.490   0.788   7.896 -2.4252  2.6132  1.3506
 2228TIP3   OH228242   2.165   5.791   0.369  0.1513 -0.8484 -0.0274
 2228TIP3    H128243   2.155   5.771   0.276  0.3893 -0.3447 -0.1655
 2228TIP3    H228244   2.197   5.881   0.371  2.4369 -1.6060  0.4589
 2229TIP3   OH228245   4.107   5.566   7.631 -0.7831  0.1376 -0.1510
 2229TIP3    H128246   4.151   5.484   7.609 -1.7153 -0.2357 -0.6812
 2229TIP3    H228247   4.074   5.553   7.720  0.1326  0.4168  0.2480
 2230TIP3   OH228248   5.984   6.015   7.099  0.7246  0.3514 -0.0095
 2230TIP3    H128249   6.065   6.066   7.109  1.9278 -0.8631 -2.4948
 2230TIP3    H228250   5.985   5.953   7.171  2.2130  0.1797 -0.1473
 2231TIP3   OH228251   5.895   0.729   1.208 -0.5156 -0.0195 -0.3509
 2231TIP3    H128252   5.879   0.816   1.170 -2.5394 -0.7161 -1.2562
 2231TIP3    H228253   5.877   0.741   1.302  0.5308  0.8073 -0.2365
 2232TIP3   OH228254   6.498   4.321   7.571 -0.3248  0.0041  0.2245
 2232TIP3    H128255   6.456   4.235   7.574 -0.2963 -0.0207 -0.0104
 2232TIP3    H228256   6.524   4.331   7.479 -2.9251  1.5263 -0.4341
 2233TIP3   OH228257   0.794   3.400   7.232  0.1852 -0.3878 -0.4936
 2233TIP3    H128258   0.763   3.311   7.211 -0.5794 -0.2236 -0.0901
 2233TIP3    H228259   0.803   3.442   7.146  1.9046 -1.2762 -0.7944
 2234TIP3   OH228260   3.683   2.360   0.478 -0.1894 -0.3125  0.4483
 2234TIP3    H128261   3.617   2.336   0.413  0.8419 -1.7554 -0.1219
 2234TIP3    H228262   3.755   2.399   0.426  0.1964 -0.4938  0.8413
 2235TIP3   OH228263   0.201   3.373   7.958 -0.3471  0.3777 -0.1030
 2235TIP3    H128264   0.148   3.340   8.031 -0.7579  0.3521 -0.4097
 2235TIP3    H228265   0.138   3.415   7.899  0.1705  1.7016  0.2671
 2236TIP3   OH228266   4.597   1.039   1.367  0.5486 -0.5771  0.1693
 2236TIP3    H128267   4.504   1.058   1.355  0.3587 -0.1116  2.0642
 2236TIP3    H228268   4.641   1.124   1.359  0.9035 -0.8638 -1.2251
 2237TIP3   OH228269   6.500   5.974   7.512  0.5312 -0.4035 -0.2836
 2237TIP3    H128270   6.504   5.921   7.592  0.0513  1.1329  0.7991
 2237TIP3    H228271   6.407   5.979   7.492  0.6702 -1.0447 -1.1589
 2238TIP3   OH228272   3.894   0.935   0.774 -0.2010  0.4410  0.3877
 2238TIP3    H128273   3.892   0.848   0.813  0.1348  0.2720  0.0322
 2238TIP3    H228274   3.858   0.993   0.841  1.5996  0.3636  1.4763
 2239TIP3   OH228275   6.613   2.346   2.429 -0.0606 -0.1974  0.1736
 2239TIP3    H128276   6.627   2.258   2.466  2.4176  0.8685  2.0604
 2239TIP3    H228277   6.518   2.352   2.418 -0.4089 -2.6771  1.1214
 2240TIP3   OH228278   4.394   2.688   0.462 -0.2118  0.0869 -0.1462
 2240TIP3    H128279   4.453   2.741   0.515  0.7965  1.3259 -2.3476
 2240TIP3    H228280   4.417   2.598   0.484 -0.5714  0.5242  2.2091
 2241TIP3   OH228281   4.940   5.679   6.359  0.2107 -0.0616  0.0340
 2241TIP3    H128282   4.901   5.740   6.295  0.3339  0.8502  0.8002
 2241TIP3    H228283   4.870   5.617   6.378  0.0294 -0.0791 -0.6602
 2242TIP3   OH228284   6.366   3.667   7.515 -0.2309  0.2653 -0.4905
 2242TIP3    H128285   6.326   3.658   7.601  1.9891  0.8409  0.6584
 2242TIP3    H228286   6.342   3.587   7.469 -0.9254 -0.3393  0.8656
 2243TIP3   OH228287   2.352   6.179   7.130  0.6587  0.1784 -0.1174
 2243TIP3    H128288   2.421   6.116   7.109  1.5157  0.3541  1.9335
 2243TIP3    H228289   2.274   6.144   7.087  1.1444 -2.2351  0.7788
 2244TIP3   OH228290   1.862   1.663   7.238  0.0613  0.1219 -0.3091
 2244TIP3    H128291   1.894   1.637   7.324  0.8949  0.2650 -0.5668
 2244TIP3    H228292   1.848   1.580   7.192  1.3740  0.0576 -0.6469
 2245TIP3   OH228293   2.370   4.919   1.391  0.4026  0.2971 -0.1053
 2245TIP3    H128294   2.414   4.986   1.442  1.2365  0.9217 -1.5763
 2245TIP3    H228295   2.278   4.923   1.419  0.7252  0.9998  0.9028
 2246TIP3   OH228296   0.750   4.557   8.333  0.4273  0.0046  0.3871
 2246TIP3    H128297   0.733   4.463   8.325 -0.6982  0.3630 -2.2445
 2246TIP3    H228298   0.664   4.597   8.327  0.9788  1.2601  0.5874
 2247TIP3   OH228299   6.628   5.682   6.720  0.2979 -0.0218  0.3940
 2247TIP3    H128300   6.629   5.777   6.729 -0.3401 -0.0069  0.3956
 2247TIP3    H228301   6.542   5.663   6.681  0.4453 -0.5889  0.3368
 2248TIP3   OH228302   3.672   0.565   8.472  0.4868 -0.1907  0.5953
 2248TIP3    H128303   3.751   0.605   8.435  0.6617  1.0267  2.1744
 2248TIP3    H228304   3.664   0.482   8.426  2.5309 -0.2211  0.1810
 2249TIP3   OH228305   5.085   3.044   8.482 -0.2636  0.0790 -0.0080
 2249TIP3    H128306   5.062   2.973   8.421 -0.7069  0.8996 -0.8159
 2249TIP3    H228307   5.092   3.122   8.427  3.1292  0.2067  0.3451
 2250TIP3   OH228308   5.767   2.553   1.114 -0.4707  0.2386 -0.2925
 2250TIP3    H128309   5.784   2.634   1.161  0.7477 -1.3316  2.2582
 2250TIP3    H228310   5.812   2.486   1.166 -2.6478 -2.2906 -1.4041
 2251TIP3   OH228311   1.463   4.665   1.701  0.0363  0.6772  0.1501
 2251TIP3    H128312   1.370   4.690   1.699 -1.3112 -3.4984 -2.5944
 2251TIP3    H228313   1.466   4.592   1.763  1.8131  1.4139  0.9961
 2252TIP3   OH228314   0.851   5.938   2.108  0.0886 -0.5938 -0.1713
 2252TIP3    H128315   0.903   5.892   2.042  2.2569  0.7085  0.5156
 2252TIP3    H228316   0.864   5.889   2.188  2.1840  0.9048  0.5009
 2253TIP3   OH228317   6.852   1.803   8.014  0.1694  0.5086  0.0166
 2253TIP3    H128318   6.844   1.869   8.084 -0.5003  0.0253  0.4076
 2253TIP3    H228319   6.932   1.756   8.035  0.0319  0.4400  0.4114
 2254TIP3   OH228320   2.377   3.977   7.764 -0.0722 -0.3397  0.2201
 2254TIP3    H128321   2.411   3.910   7.704  0.2849 -0.2262  0.2945
 2254TIP3    H228322   2.289   3.995   7.731 -0.0388 -0.5866 -0.0164
 2255TIP3   OH228323   3.190   2.960   0.797 -0.3056 -0.3745 -0.0010
 2255TIP3    H128324   3.264   3.017   0.817 -0.3687  0.5506 -2.0682
 2255TIP3    H228325   3.229   2.875   0.777  0.2277  0.0747 -0.9516
 2256TIP3   OH228326   0.128   5.333   0.893  0.0035 -0.1602  0.1434
 2256TIP3    H128327   0.082   5.412   0.921  1.5335  1.3723 -1.3937
 2256TIP3    H228328   0.112   5.328   0.798  3.3597  0.8198 -0.6168
 2257TIP3   OH228329   6.110   6.202   2.462  0.4667 -0.1721  0.3128
 2257TIP3    H128330   6.135   6.173   2.550  0.5829  0.1275  0.3757
 2257TIP3    H228331   6.144   6.290   2.454  2.2063 -0.8992 -0.7751
 2258TIP3   OH228332   3.632   4.784   8.496 -0.0007 -0.4731 -0.2361
 2258TIP3    H128333   3.685   4.739   8.562  0.1946  1.7430  1.2249
 2258TIP3    H228334   3.557   4.726   8.482 -0.0326 -1.0367  1.9502
 2259TIP3   OH228335   4.354   1.445   6.157  0.1521 -0.3307 -0.1876
 2259TIP3    H128336   4.399   1.366   6.126  0.5708  0.2006 -0.9695
 2259TIP3    H228337   4.285   1.413   6.215 -1.4112 -1.4594 -2.5647
 2260TIP3   OH228338   3.117   4.098   7.692 -0.0467 -0.3637  0.1275
 2260TIP3    H128339   3.050   4.166   7.701 -0.9247 -1.2299  0.3433
 2260TIP3    H228340   3.104   4.062   7.604 -0.2271 -0.8878  0.3603
 2261TIP3   OH228341   4.060   1.501   0.143  0.0015  0.3257 -0.7012
 2261TIP3    H128342   4.132   1.443   0.164 -2.5172 -2.3241  1.3727
 2261TIP3    H228343   4.057   1.563   0.215 -0.7561 -0.6168  0.0980
 2262TIP3   OH228344   0.300   6.493   0.249  0.6395 -0.0641  0.5129
 2262TIP3    H128345   0.366   6.561   0.241  0.1782  0.4449  0.9549
 2262TIP3    H228346   0.294   6.476   0.343  0.1917 -0.1583  0.4683
 2263TIP3   OH228347   0.250   4.197   8.221 -0.1246 -0.3151  0.1824
 2263TIP3    H128348   0.327   4.225   8.171 -0.1810  1.6576  1.1234
 2263TIP3    H228349   0.181   4.188   8.155  0.3770 -0.0507 -0.3927
 2264TIP3   OH228350   6.244   5.305   2.302  0.2432 -0.3476 -0.0565
 2264TIP3    H128351   6.188   5.383   2.306  0.6790 -0.0666  1.1438
 2264TIP3    H228352   6.298   5.319   2.224 -0.3645  0.0605 -0.4192
 2265TIP3   OH228353   4.513   4.591   0.153  0.2595 -0.3566  0.2417
 2265TIP3    H128354   4.445   4.524   0.150 -0.7880  0.6602  0.4923
 2265TIP3    H228355   4.575   4.560   0.219 -0.6615 -0.6597  0.9736
 2266TIP3   OH228356   4.588   5.860   7.057  0.3006  0.2343  0.3259
 2266TIP3    H128357   4.515   5.914   7.088  0.2481 -0.4379  1.4686
 2266TIP3    H228358   4.650   5.922   7.020 -1.0639  0.7836 -1.1771
 2267TIP3   OH228359   3.629   5.597   0.442  0.6484 -0.4322  0.0907
 2267TIP3    H128360   3.721   5.615   0.424  0.7223 -1.6365 -0.9269
 2267TIP3    H228361   3.614   5.632   0.530  2.0883 -0.2786  0.3000
 2268TIP3   OH228362   1.410   4.816   1.295 -0.5281 -0.4531 -0.0329
 2268TIP3    H128363   1.427   4.858   1.380 -1.3463  0.6485 -0.3929
 2268TIP3    H228364   1.342   4.751   1.314 -1.1827  0.2424  0.0494
 2269TIP3   OH228365   1.957   5.915   7.120  0.0131 -0.0791  0.2967
 2269TIP3    H128366   1.915   5.996   7.151  0.6172  1.4179 -2.4317
 2269TIP3    H228367   1.885   5.861   7.089 -0.2752  0.4244  0.0650
 2270TIP3   OH228368   0.418   3.025   0.853  0.3959  0.2200  0.4681
 2270TIP3    H128369   0.445   3.011   0.762  0.9313  1.0893  0.4865
 2270TIP3    H228370   0.468   2.959   0.902 -0.8189 -1.0970  0.0260
 2271TIP3   OH228371   0.456   5.766   1.903  0.4168  0.4136 -0.4169
 2271TIP3    H128372   0.523   5.813   1.953 -0.0071  0.5651  0.0118
 2271TIP3    H228373   0.374   5.786   1.947  0.3953 -2.1195  0.8519
 2272TIP3   OH228374   1.094   1.510   6.261 -0.3983  0.1631 -0.3437
 2272TIP3    H128375   1.058   1.555   6.338  2.3308 -0.3418  1.3509
 2272TIP3    H228376   1.168   1.563   6.234  0.5240 -1.2581 -0.7250
 2273TIP3   OH228377   1.854   5.634   0.415 -0.0217  0.2053  0.0860
 2273TIP3    H128378   1.819   5.628   0.326 -0.2718  1.7554  0.0578
 2273TIP3    H228379   1.948   5.619   0.406  0.1691  1.6557 -0.6535
 2274TIP3   OH228380   1.808   3.950   0.393  0.1928 -0.3670  0.7372
 2274TIP3    H128381   1.784   4.029   0.345 -2.9099 -0.7218  1.5041
 2274TIP3    H228382   1.788   3.878   0.333  1.1502 -0.6655  0.7539
 2275TIP3   OH228383   0.937   4.244   1.864 -0.5758  0.4439  0.0021
 2275TIP3    H128384   0.924   4.162   1.913  0.9642 -0.3152 -0.7736
 2275TIP3    H228385   0.926   4.313   1.929  0.7344 -0.5048  1.2941
 2276TIP3   OH228386   0.839   3.411   0.528  0.5055  0.0870  0.7302
 2276TIP3    H128387   0.899   3.452   0.590  1.7143  1.4137 -1.2275
 2276TIP3    H228388   0.865   3.318   0.528  3.5347  0.7918 -0.9595
 2277TIP3   OH228389   6.793   3.606   6.870 -0.5460  0.0537  0.2541
 2277TIP3    H128390   6.794   3.679   6.933 -2.8857 -0.6400  1.2117
 2277TIP3    H228391   6.801   3.528   6.924 -0.7621 -0.4948 -0.4890
 2278TIP3   OH228392   5.955   2.742   7.198  0.3740  0.0712 -0.1819
 2278TIP3    H128393   6.008   2.822   7.200  0.6891 -0.0892 -1.3405
 2278TIP3    H228394   5.996   2.688   7.131  0.8229 -1.5567  1.3567
 2279TIP3   OH228395   0.392   5.362   0.201  0.1146 -0.1135  0.4688
 2279TIP3    H128396   0.360   5.288   0.149 -0.3380 -0.4637  1.2322
 2279TIP3    H228397   0.331   5.368   0.274  0.5657  0.5729  0.7977
 2280TIP3   OH228398   5.829   6.549   2.299  0.2134 -0.3306  0.1573
 2280TIP3    H128399   5.788   6.636   2.304 -1.3092 -1.0419  0.6888
 2280TIP3    H228400   5.784   6.505   2.227  0.2264 -1.0503  0.5802
 2281TIP3   OH228401   4.513   4.233   0.219  0.3576 -0.4048 -0.1729
 2281TIP3    H128402   4.421   4.208   0.230 -0.1063  0.8398 -0.9969
 2281TIP3    H228403   4.514   4.327   0.237  1.9285 -0.8109  2.2530
 2282TIP3   OH228404   6.799   6.859   8.112 -0.3108  0.1052  0.0500
 2282TIP3    H128405   6.802   6.955   8.105 -1.8601  0.1177 -0.7650
 2282TIP3    H228406   6.782   6.829   8.023 -0.7176 -0.8855  0.4437
 2283TIP3   OH228407   5.376   0.850   1.736  0.2753  0.9211  0.3206
 2283TIP3    H128408   5.343   0.799   1.810  1.4657  0.6494  0.6943
 2283TIP3    H228409   5.307   0.913   1.718 -0.3549  0.5030  1.1889
 2284TIP3   OH228410   6.710   1.700   7.783 -0.4705  0.2247 -0.7296
 2284TIP3    H128411   6.754   1.751   7.850  0.3755  1.9056 -2.4504
 2284TIP3    H228412   6.617   1.708   7.803 -0.2085 -0.6509  1.0828
 2285TIP3   OH228413   1.910   1.755   0.729  0.0647  0.0919 -0.3143
 2285TIP3    H128414   1.977   1.751   0.797 -0.4536  0.1024  0.2017
 2285TIP3    H228415   1.947   1.706   0.656  0.1205 -0.9688  0.4115
 2286TIP3   OH228416   4.093   0.520   1.473 -0.3091  0.2185  0.6091
 2286TIP3    H128417   4.017   0.519   1.531 -1.7032  0.0064 -1.1491
 2286TIP3    H228418   4.072   0.458   1.404 -1.0576  4.0399 -2.9501
 2287TIP3   OH228419   4.164   3.858   0.105  0.1815 -0.0476 -0.4893
 2287TIP3    H128420   4.211   3.905   0.174  0.2278 -0.4365 -0.2515
 2287TIP3    H228421   4.158   3.920   0.033  0.8132  0.1059 -0.4159
 2288TIP3   OH228422   2.131   0.462   0.257  0.0500  0.0781 -0.2930
 2288TIP3    H128423   2.204   0.523   0.271 -0.4666  1.3055 -2.4154
 2288TIP3    H228424   2.053   0.515   0.275 -0.3687 -0.5148 -0.3626
 2289TIP3   OH228425   3.166   5.518   6.964  1.1878 -0.5915  0.2872
 2289TIP3    H128426   3.170   5.423   6.977  0.7289 -0.4276  1.7547
 2289TIP3    H228427   3.096   5.530   6.899 -1.6084 -1.0733  2.9952
 2290TIP3   OH228428   5.363   3.432   0.036 -0.5121 -0.3307  0.5594
 2290TIP3    H128429   5.438   3.383   0.070  1.2122  1.9084  0.2269
 2290TIP3    H228430   5.347   3.499   0.102 -2.1568 -0.6651  0.5295
 2291TIP3   OH228431   0.915   4.377   7.597  0.3318 -0.3338  0.3567
 2291TIP3    H128432   0.846   4.324   7.637 -0.2808  0.5417  0.4930
 2291TIP3    H228433   0.878   4.466   7.593  1.3324  0.0911  0.1464
 2292TIP3   OH228434   5.648   5.157   0.849 -0.5341  0.0974 -0.9519
 2292TIP3    H128435   5.632   5.099   0.775 -1.7973  0.3697 -0.9151
 2292TIP3    H228436   5.605   5.113   0.923 -1.1639  0.8730 -0.8453
 2293TIP3   OH228437   1.107   5.766   1.052  0.0310 -0.0036 -0.4260
 2293TIP3    H128438   1.163   5.698   1.090  0.1494  1.0927  1.5161
 2293TIP3    H228439   1.018   5.732   1.061  0.2445 -1.3717 -2.7156
 2294TIP3   OH228440   1.408   2.179   0.969  0.4575 -0.8951  0.4831
 2294TIP3    H128441   1.450   2.114   1.025  1.7177 -0.7009 -0.2133
 2294TIP3    H228442   1.429   2.152   0.880 -0.3217 -0.3944  0.1367
 2295TIP3   OH228443   0.639   3.818   1.389  0.0981  0.6818 -0.1499
 2295TIP3    H128444   0.728   3.837   1.358  0.7567 -0.1019  1.1350
 2295TIP3    H228445   0.635   3.857   1.476 -0.5854  0.1320  0.0755
 2296TIP3   OH228446   3.755   4.142   7.606 -0.7592  0.3239  0.1223
 2296TIP3    H128447   3.835   4.194   7.619 -1.5721  1.3498  1.2618
 2296TIP3    H228448   3.707   4.189   7.539 -1.1541  0.6560  0.6265
 2297TIP3   OH228449   5.361   2.592   6.920 -0.0122 -0.9375  0.0674
 2297TIP3    H128450   5.385   2.522   6.981  0.2007 -0.6604  0.3105
 2297TIP3    H228451   5.282   2.631   6.958 -0.5019 -1.4567 -0.4097
 2298TIP3   OH228452   5.810   4.357   8.295 -0.4247 -0.5736 -0.0258
 2298TIP3    H128453   5.875   4.387   8.358 -0.8607 -0.9909  0.6284
 2298TIP3    H228454   5.800   4.430   8.234 -0.7217  0.2161  0.9574
 2299TIP3   OH228455   3.691   1.803   1.396  0.5365  0.1527  0.0549
 2299TIP3    H128456   3.703   1.743   1.470 -1.1549 -1.8925 -1.2332
 2299TIP3    H228457   3.603   1.839   1.408  0.8610  1.0287 -0.1358
 2300TIP3   OH228458   1.265   0.873   0.076  0.1060  0.2797 -0.3806
 2300TIP3    H128459   1.210   0.948   0.099  1.6296  0.9189  1.3353
 2300TIP3    H228460   1.313   0.852   0.156 -0.4393 -2.7137 -0.7214
 2301TIP3   OH228461   4.378   0.211   7.799  0.2112 -0.2977  0.0125
 2301TIP3    H128462   4.402   0.127   7.838  0.4229  0.5472  1.7454
 2301TIP3    H228463   4.283   0.207   7.791  0.2711 -0.9417 -0.5469
 2302TIP3   OH228464   0.690   5.120   7.578 -0.3378 -0.2383 -0.3780
 2302TIP3    H128465   0.666   5.211   7.595  0.8002  0.2366 -1.1317
 2302TIP3    H228466   0.785   5.117   7.593 -0.4103 -1.3849 -0.0412
 2303TIP3   OH228467   3.202   6.536   0.247 -0.2936  0.4729  1.0375
 2303TIP3    H128468   3.157   6.475   0.306  1.8911 -0.6300  1.6901
 2303TIP3    H228469   3.295   6.514   0.257  0.2698  1.2292 -1.7740
 2304TIP3   OH228470   1.723   4.873   8.365 -0.3825  0.6716 -0.4334
 2304TIP3    H128471   1.645   4.827   8.336 -0.1148 -0.6746  0.9210
 2304TIP3    H228472   1.794   4.810   8.355 -0.2409  0.1669  2.9011
 2305TIP3   OH228473   5.654   0.991   7.590 -0.0486 -0.2286  0.2589
 2305TIP3    H128474   5.572   0.975   7.544 -0.5260  1.4136  0.4776
 2305TIP3    H228475   5.713   0.923   7.557 -0.8712 -0.1646 -1.4763
 2306TIP3   OH228476   1.282   1.784   1.669 -0.2818  0.3239  0.2713
 2306TIP3    H128477   1.338   1.857   1.642  1.3769 -1.2540 -0.7873
 2306TIP3    H228478   1.342   1.710   1.679 -1.8231 -0.7991  1.8382
 2307TIP3   OH228479   4.796   5.505   6.548  0.3280 -0.4209 -0.6404
 2307TIP3    H128480   4.818   5.419   6.585  0.0727 -0.2698 -0.1308
 2307TIP3    H228481   4.706   5.495   6.516  0.1760 -0.2378 -0.2653
 2308TIP3   OH228482   4.434   1.999   1.102 -0.6928  1.2251 -0.3916
 2308TIP3    H128483   4.466   2.034   1.184  2.2614  0.3562 -1.0495
 2308TIP3    H228484   4.472   1.911   1.097 -0.1272  1.5329 -2.9801
 2309TIP3   OH228485   2.899   1.723   1.913  0.5643  0.3162 -0.3837
 2309TIP3    H128486   2.825   1.742   1.971  1.7953 -0.9546  1.6864
 2309TIP3    H228487   2.866   1.654   1.855 -0.3818  0.9538 -0.6394
 2310TIP3   OH228488   4.647   2.482   1.435  0.1581 -0.0875  0.4680
 2310TIP3    H128489   4.614   2.484   1.345 -0.9333 -2.0710  0.7829
 2310TIP3    H228490   4.585   2.428   1.483  1.9605 -0.9845  1.9084
 2311TIP3   OH228491   3.638   5.569   7.746  0.4666  0.5391 -0.2242
 2311TIP3    H128492   3.697   5.617   7.803  1.2916  0.7972 -1.2688
 2311TIP3    H228493   3.555   5.617   7.751 -0.2616 -0.8293  2.6272
 2312TIP3   OH228494   3.976   1.834   7.454  0.2055  0.5076  0.1125
 2312TIP3    H128495   3.979   1.811   7.362  1.9028  0.9285  0.0360
 2312TIP3    H228496   3.941   1.924   7.456 -1.8033 -0.2224  0.0712
 2313TIP3   OH228497   4.817   2.492   8.034 -0.3059 -0.0616 -0.4167
 2313TIP3    H128498   4.852   2.519   7.949  1.8081 -1.1198  0.0585
 2313TIP3    H228499   4.793   2.401   8.023 -0.2729 -0.1298  0.0353
 2314TIP3   OH228500   0.051   3.293   2.154  0.3385  0.7500  0.2800
 2314TIP3    H128501  -0.033   3.251   2.172  0.6523  0.0215  0.0899
 2314TIP3    H228502   0.101   3.281   2.234  0.3123  1.0570  0.3420
 2315TIP3   OH228503   2.949   1.681   7.901  0.1460 -0.3134  0.0182
 2315TIP3    H128504   2.933   1.617   7.971  0.8540  0.0302  0.5074
 2315TIP3    H228505   2.862   1.700   7.866 -0.4238  0.6034  1.7957
 2316TIP3   OH228506   2.974   3.176   0.288 -0.1935  0.2404 -0.0088
 2316TIP3    H128507   2.917   3.231   0.341  0.3044  0.5461  0.2221
 2316TIP3    H228508   3.056   3.171   0.338 -0.5362 -1.5028  0.4480
 2317TIP3   OH228509   0.173   1.593   6.685  1.1917  0.6581 -0.4625
 2317TIP3    H128510   0.197   1.545   6.764  0.4296 -0.0705 -0.6574
 2317TIP3    H228511   0.100   1.649   6.711  1.4876  1.0381 -0.4511
 2318TIP3   OH228512   0.645   0.447   2.775  0.4135 -0.1601  0.1599
 2318TIP3    H128513   0.630   0.361   2.737  0.2161  0.4716 -1.2526
 2318TIP3    H228514   0.718   0.434   2.836 -1.4510 -1.8956  2.1949
 2319TIP3   OH228515   4.379   3.078   6.828  0.0114  0.2336 -0.2470
 2319TIP3    H128516   4.331   3.088   6.910  0.0073  0.5504 -0.2864
 2319TIP3    H228517   4.318   3.107   6.761  0.9328  2.6649 -0.1319
 2320TIP3   OH228518   1.774   6.047   0.334 -0.0126  0.3452 -0.0260
 2320TIP3    H128519   1.840   6.104   0.293  0.0237 -0.0942 -0.5998
 2320TIP3    H228520   1.825   5.983   0.384 -0.0423  0.6343  0.3744
 2321TIP3   OH228521   3.236   2.138   7.901  0.5862 -0.6153 -0.2855
 2321TIP3    H128522   3.196   2.051   7.893 -0.0333 -0.6346  2.3412
 2321TIP3    H228523   3.330   2.120   7.906  0.6531 -0.9122 -1.9576
 2322TIP3   OH228524   2.295   5.089   8.382  0.4170 -0.0872  1.5887
 2322TIP3    H128525   2.311   5.148   8.457 -1.9024  1.3248  1.0744
 2322TIP3    H228526   2.240   5.140   8.323 -2.4696 -3.0113  1.4702
 2323TIP3   OH228527   5.330   0.335   7.842 -0.2261 -0.4181  0.0603
 2323TIP3    H128528   5.284   0.251   7.836 -1.2860  0.0905  0.8277
 2323TIP3    H228529   5.274   0.397   7.796 -0.1989  0.1684  0.8046
 2324TIP3   OH228530   6.549   6.709   7.873 -0.4462 -0.2224 -0.2979
 2324TIP3    H128531   6.582   6.656   7.801 -0.0906  0.6934 -0.8218
 2324TIP3    H228532   6.605   6.786   7.874 -0.9425  0.1434  0.4617
 2325TIP3   OH228533   5.129   5.803   1.883  0.1332  0.4629 -0.2463
 2325TIP3    H128534   5.135   5.894   1.854 -1.1286  0.1068 -1.7855
 2325TIP3    H228535   5.127   5.809   1.978  1.3895  1.9305 -0.2563
 2326TIP3   OH228536   3.810   4.835   6.748  0.4384 -0.1447  0.3277
 2326TIP3    H128537   3.784   4.768   6.685 -0.0760  1.9091 -1.7757
 2326TIP3    H228538   3.873   4.889   6.701 -0.1227  1.6204  1.4908
 2327TIP3   OH228539   3.060   0.088   0.474 -0.0957  0.1051 -0.2887
 2327TIP3    H128540   2.968   0.089   0.500 -0.2474  0.5846 -0.8267
 2327TIP3    H228541   3.073   0.001   0.435 -0.6899  0.5359 -1.4801
 2328TIP3   OH228542   0.462   6.223   0.454 -0.2179  0.0844 -0.4706
 2328TIP3    H128543   0.392   6.285   0.477 -0.3103  0.2020 -1.0494
 2328TIP3    H228544   0.460   6.158   0.524 -0.3930  0.5110 -0.0689
 2329TIP3   OH228545   1.172   3.028   7.863  0.4059  0.2680  0.4538
 2329TIP3    H128546   1.253   2.988   7.831  0.8820  0.3638  1.5063
 2329TIP3    H228547   1.188   3.122   7.855 -0.0514  0.2830 -0.4031
 2330TIP3   OH228548   0.372   5.540   7.228 -0.0215  0.2567 -0.0725
 2330TIP3    H128549   0.350   5.447   7.225 -0.5207  0.1888  2.6138
 2330TIP3    H228550   0.291   5.584   7.201 -0.2742 -0.1013  0.0814
 2331TIP3   OH228551   1.039   6.332   2.203 -0.1448  0.1000 -0.0109
 2331TIP3    H128552   1.114   6.356   2.149 -0.8624 -0.2924 -1.2322
 2331TIP3    H228553   1.076   6.312   2.289  1.2496 -0.9542 -0.8285
 2332TIP3   OH228554   6.218   3.539   1.492  0.6241 -0.0774  0.5875
 2332TIP3    H128555   6.160   3.612   1.469  2.1547  1.3967  1.1715
 2332TIP3    H228556   6.294   3.551   1.434  1.6539 -0.1581  1.8819
 2333TIP3   OH228557   2.363   4.321   7.817  0.6557  0.0852 -0.3986
 2333TIP3    H128558   2.388   4.230   7.800 -0.1585 -0.2327  0.0469
 2333TIP3    H228559   2.268   4.322   7.807  0.5533  0.6902  0.5240
 2334TIP3   OH228560   2.041   0.459   7.375  0.4816  0.4283 -0.0242
 2334TIP3    H128561   1.970   0.413   7.330  1.4067 -1.1869  0.0999
 2334TIP3    H228562   2.115   0.398   7.372  1.4832  1.5431  0.9927
 2335TIP3   OH228563   6.619   6.442   0.498 -0.7387  0.7086 -0.0711
 2335TIP3    H128564   6.561   6.436   0.574  0.0476  1.6632  0.6278
 2335TIP3    H228565   6.560   6.450   0.423 -1.5146  0.0988  0.4617
 2336TIP3   OH228566   6.890   1.019   1.325 -0.3348  0.0815 -0.0795
 2336TIP3    H128567   6.907   1.101   1.280 -3.4737  0.2011 -1.3344
 2336TIP3    H228568   6.957   0.959   1.293  1.3137  1.8001 -0.0005
 2337TIP3   OH228569   0.759   1.607   0.576  0.3289 -0.0681  0.1410
 2337TIP3    H128570   0.696   1.658   0.525 -1.8453 -1.5465  1.1849
 2337TIP3    H228571   0.752   1.643   0.664  0.1347 -0.9508  0.4894
 2338TIP3   OH228572   5.076   0.279   2.026 -0.1866  0.1544  0.1138
 2338TIP3    H128573   5.139   0.286   2.098 -0.4087  1.8406  0.1894
 2338TIP3    H228574   5.031   0.195   2.041 -0.3307  0.5245  2.0261
 2339TIP3   OH228575   2.437   4.189   6.190 -0.5627 -0.1414 -0.5260
 2339TIP3    H128576   2.476   4.269   6.155  1.1202 -0.4657  0.4828
 2339TIP3    H228577   2.502   4.156   6.252 -1.5871 -1.8493 -0.2971
 2340TIP3   OH228578   0.783   0.398   6.573 -0.0217  0.1571  0.0420
 2340TIP3    H128579   0.734   0.477   6.593 -0.3752 -0.4185  1.6164
 2340TIP3    H228580   0.717   0.329   6.565  0.4153 -0.9731  3.8266
 2341TIP3   OH228581   6.333   5.531   8.478 -0.0261  0.4506 -0.6800
 2341TIP3    H128582   6.362   5.555   8.566  0.5179 -0.9418 -0.4594
 2341TIP3    H228583   6.392   5.578   8.420 -0.7814  1.8830 -0.3507
 2342TIP3   OH228584   2.548   2.114   1.153  0.3675  0.3651 -0.1081
 2342TIP3    H128585   2.616   2.072   1.204 -0.4314  0.2723  0.8995
 2342TIP3    H228586   2.560   2.208   1.169  0.2051  0.3445  0.1237
 2343TIP3   OH228587   4.906   4.053   8.343  0.0388 -0.1547 -0.5263
 2343TIP3    H128588   4.859   4.058   8.426 -1.5057  1.0778 -1.4059
 2343TIP3    H228589   4.851   3.996   8.288 -0.2110  0.8830 -1.4063
 2344TIP3   OH228590   0.849   6.512   8.476 -0.1537 -0.1365 -0.1749
 2344TIP3    H128591   0.820   6.590   8.429 -0.3089 -0.9062 -1.4235
 2344TIP3    H228592   0.865   6.541   8.565 -1.1244  1.1123 -0.3891
 2345TIP3   OH228593   2.923   1.118   8.535 -0.2803  0.3964 -0.7519
 2345TIP3    H128594   2.836   1.086   8.559  0.2315 -0.2139  0.3670
 2345TIP3    H228595   2.911   1.213   8.526 -0.6467  0.6302  1.5241
 2346TIP3   OH228596   1.678   2.884   1.272 -0.4332  0.2178 -0.0742
 2346TIP3    H128597   1.664   2.797   1.311 -1.9254  0.8291  0.8389
 2346TIP3    H228598   1.739   2.927   1.331  2.5200 -1.0749 -1.9584
 2347TIP3   OH228599   2.671   1.331   2.201  0.0846  0.4420 -0.0779
 2347TIP3    H128600   2.632   1.418   2.203  0.5561  0.6470  2.1083
 2347TIP3    H228601   2.621   1.281   2.266  0.8455 -0.4501 -0.1551
 2348TIP3   OH228602   1.653   0.450   2.501  0.1807  0.1689  0.0472
 2348TIP3    H128603   1.604   0.368   2.491  0.6782 -0.1255  0.0066
 2348TIP3    H228604   1.744   0.425   2.487  0.2845  0.8282 -0.4721
 2349TIP3   OH228605   2.055   4.958   0.032 -0.1255 -0.3298  0.2381
 2349TIP3    H128606   2.125   4.920  -0.021 -0.4669 -1.5957  0.6583
 2349TIP3    H228607   2.027   5.035  -0.018  0.3581 -0.8156 -0.8293
 2350TIP3   OH228608   6.603   0.033   0.903 -0.1392  0.1739  0.0202
 2350TIP3    H128609   6.679  -0.002   0.856 -1.2292 -2.3700 -0.0151
 2350TIP3    H228610   6.639   0.069   0.984  1.7192  4.1928 -2.2864
 2351TIP3   OH228611   6.396   5.012   7.671 -0.1125  0.2677  0.0853
 2351TIP3    H128612   6.458   5.081   7.693  1.4941 -1.6516  2.0870
 2351TIP3    H228613   6.396   5.009   7.575 -1.5339  4.0216 -0.1871
 2352TIP3   OH228614   1.582   6.183   7.397 -0.5334 -0.0973 -0.3529
 2352TIP3    H128615   1.489   6.202   7.405 -0.6032 -0.7635  0.5397
 2352TIP3    H228616   1.624   6.242   7.460 -0.5354 -1.0864  0.6124
 2353TIP3   OH228617   4.801   4.279   2.236 -0.2433  0.2562  0.4226
 2353TIP3    H128618   4.830   4.260   2.325 -0.2312  1.0391  0.5991
 2353TIP3    H228619   4.875   4.255   2.181  0.1429  0.7357  0.7228
 2354TIP3   OH228620   1.153   4.621   7.785  0.3332 -0.2659 -0.4810
 2354TIP3    H128621   1.108   4.704   7.772  0.8359  0.0603 -0.1741
 2354TIP3    H228622   1.084   4.562   7.818 -0.6021 -0.7000 -3.0085
 2355TIP3   OH228623   1.882   0.229   0.835 -0.6195  0.1246 -0.3095
 2355TIP3    H128624   1.857   0.250   0.925 -1.1439 -1.9132  0.0680
 2355TIP3    H228625   1.935   0.304   0.807 -0.5236  0.8528  1.6463
 2356TIP3   OH228626   1.941   5.253   8.080  0.0913  0.0013  0.4008
 2356TIP3    H128627   1.872   5.312   8.110 -0.0847  0.0226 -0.0370
 2356TIP3    H228628   1.938   5.259   7.984  0.0493 -0.7483  0.3492
 2357TIP3   OH228629   6.795   1.552   6.976 -0.6535 -0.4555  0.3143
 2357TIP3    H128630   6.827   1.621   6.918  1.8499 -2.1491 -0.4804
 2357TIP3    H228631   6.736   1.500   6.921 -0.5860 -0.3647  0.1552
 2358TIP3   OH228632   4.565   0.063   1.602 -0.6650  0.0410  0.9366
 2358TIP3    H128633   4.550   0.093   1.691 -2.5690 -2.4227  1.5796
 2358TIP3    H228634   4.508   0.119   1.548  1.0739  2.0483  1.0817
 2359TIP3   OH228635   3.085   5.969   7.444 -0.3265 -0.6287 -0.2126
 2359TIP3    H128636   3.141   5.951   7.367 -1.1443 -0.6188 -0.8213
 2359TIP3    H228637   3.104   6.060   7.466  1.1914 -1.1190  0.6844
 2360TIP3   OH228638   3.162   1.885   7.600 -0.1655 -0.2173 -0.3540
 2360TIP3    H128639   3.124   1.967   7.633  1.1316  0.3039 -0.0746
 2360TIP3    H228640   3.120   1.871   7.516  0.7765  1.6458 -1.1855
 2361TIP3   OH228641   5.396   2.935   0.779  0.4278  0.0107 -0.8212
 2361TIP3    H128642   5.487   2.909   0.791  0.5696  0.0670 -1.7612
 2361TIP3    H228643   5.362   2.942   0.869  0.5767 -2.6267 -0.4770
 2362TIP3   OH228644   3.247   1.563   6.812  0.2648  0.7165 -0.2174
 2362TIP3    H128645   3.179   1.552   6.746  0.3086  2.2043 -0.5373
 2362TIP3    H228646   3.329   1.557   6.763  0.4230 -1.2936  0.1984
 2363TIP3   OH228647   5.414   2.399   7.893  0.6749  0.3253  0.8078
 2363TIP3    H128648   5.369   2.315   7.881  1.8827 -0.1304 -0.9097
 2363TIP3    H228649   5.407   2.416   7.987 -2.1836 -0.1814  0.7801
 2364TIP3   OH228650   5.452   3.219   0.770 -0.1710  0.3235 -0.7664
 2364TIP3    H128651   5.441   3.245   0.862  2.5390 -1.6890  0.2654
 2364TIP3    H228652   5.393   3.144   0.760 -0.2186  0.3270 -0.5345
 2365TIP3   OH228653   5.735   6.600   8.550 -0.0803  0.3575  0.5604
 2365TIP3    H128654   5.813   6.621   8.602  1.1154 -2.6975  0.2000
 2365TIP3    H228655   5.766   6.595   8.460 -1.0932  0.7834  0.1668
 2366TIP3   OH228656   3.017   4.379   2.254 -0.3053 -0.0104  0.3651
 2366TIP3    H128657   2.930   4.417   2.261 -1.0286 -1.1635 -1.4871
 2366TIP3    H228658   3.075   4.453   2.236 -1.0120  0.6822  0.9115
 2367TIP3   OH228659   3.506   0.376   0.287  0.5337  0.0789  0.6222
 2367TIP3    H128660   3.491   0.332   0.371  0.6760  0.4116  0.8200
 2367TIP3    H228661   3.601   0.378   0.278  0.5081 -0.3862  0.2262
 2368TIP3   OH228662   3.589   3.369   7.083  0.2834 -0.6880 -0.1334
 2368TIP3    H128663   3.626   3.340   6.999 -0.2282 -1.2566 -0.1707
 2368TIP3    H228664   3.499   3.395   7.062  0.3827 -0.1288  0.1107
 2369TIP3   OH228665   5.967   1.282   1.109  0.4321 -0.5069  0.2529
 2369TIP3    H128666   5.980   1.342   1.183 -0.1014 -1.2781  0.9981
 2369TIP3    H228667   6.018   1.320   1.038  1.5782 -0.1302  1.2385
 2370TIP3   OH228668   6.136   1.793   7.697  0.2957 -0.4132  0.3842
 2370TIP3    H128669   6.109   1.872   7.649 -0.5391 -0.8359  0.1344
 2370TIP3    H228670   6.096   1.804   7.784  0.9338 -0.1439  0.6511
 2371TIP3   OH228671   2.465   1.045   0.020 -0.3730 -0.3240  0.2573
 2371TIP3    H128672   2.376   1.019   0.044  0.1162 -1.9954  0.3452
 2371TIP3    H228673   2.470   1.029  -0.074 -0.3298  0.2832  0.1552
 2372TIP3   OH228674   3.675   6.096   7.983  0.4876 -0.7372 -0.1033
 2372TIP3    H128675   3.753   6.069   8.031  0.0102 -2.6906 -0.3148
 2372TIP3    H228676   3.656   6.185   8.014  1.1509 -1.2969  2.0702
 2373TIP3   OH228677   4.125   0.783   8.468 -0.3538  0.4289 -0.0728
 2373TIP3    H128678   4.189   0.808   8.534  1.5698  0.2981 -1.7775
 2373TIP3    H228679   4.121   0.687   8.473 -0.5196  0.4438  0.1045
 2374TIP3   OH228680   0.440   1.343   2.060 -0.0192  0.0073 -0.5089
 2374TIP3    H128681   0.512   1.291   2.096  1.3094  1.7296 -0.5408
 2374TIP3    H228682   0.428   1.414   2.123  0.7370  1.7299 -2.2184
 2375TIP3   OH228683   3.037   4.081   7.414 -0.3216  0.2392 -0.2598
 2375TIP3    H128684   3.000   4.012   7.360 -0.0979 -0.7865  0.8424
 2375TIP3    H228685   2.999   4.162   7.380 -0.3944 -0.3886 -1.7397
 2376TIP3   OH228686   6.388   5.040   7.395  0.4059 -0.5899 -0.4743
 2376TIP3    H128687   6.339   5.008   7.319 -0.3981 -1.2734  0.3032
 2376TIP3    H228688   6.368   5.133   7.399  0.5420 -0.5280 -1.1642
 2377TIP3   OH228689   1.601   4.347   7.784 -0.2869  0.2682  0.3642
 2377TIP3    H128690   1.677   4.404   7.769  0.0764  0.3627  2.2801
 2377TIP3    H228691   1.579   4.361   7.876 -0.6766 -2.0965  0.6933
 2378TIP3   OH228692   0.243   3.208   6.990  0.7824  0.3821  0.5039
 2378TIP3    H128693   0.227   3.119   6.958 -0.5044  0.6138  0.4490
 2378TIP3    H228694   0.285   3.253   6.916 -0.7490  0.4731 -0.3513
 2379TIP3   OH228695   2.822   4.192   0.436 -0.4101  0.2350 -0.3941
 2379TIP3    H128696   2.732   4.159   0.431 -1.0770  2.0039 -0.8410
 2379TIP3    H228697   2.814   4.286   0.421  1.4574  0.5387  0.2275
 2380TIP3   OH228698   4.649   0.723   0.339 -0.4547  0.4990  0.0668
 2380TIP3    H128699   4.702   0.648   0.313 -0.4955  0.4026  0.2606
 2380TIP3    H228700   4.568   0.685   0.372 -0.6899  0.6512 -0.3337
 2381TIP3   OH228701   0.533   6.852   8.273 -0.0917  0.5494 -0.1494
 2381TIP3    H128702   0.536   6.789   8.201 -1.8186 -1.6707  1.5994
 2381TIP3    H228703   0.616   6.841   8.319  0.2160  0.6076 -0.6842
 2382TIP3   OH228704   5.077   2.036   0.065  0.1821  0.1675 -0.4252
 2382TIP3    H128705   5.066   1.976  -0.009 -1.7574  0.5754 -0.5185
 2382TIP3    H228706   5.141   2.100   0.034  1.9475 -1.5025 -0.4910
 2383TIP3   OH228707   2.576   0.356   7.116 -0.2031 -0.3384 -0.1436
 2383TIP3    H128708   2.486   0.374   7.088 -0.4425  1.9459  1.7518
 2383TIP3    H228709   2.623   0.437   7.098  1.0310 -0.8636  0.5996
 2384TIP3   OH228710   2.375   0.598   6.906 -0.5639 -0.2428  0.0332
 2384TIP3    H128711   2.320   0.546   6.847  1.2816 -0.9546 -1.1848
 2384TIP3    H228712   2.422   0.658   6.847  0.6966 -0.3739  0.8593
 2385TIP3   OH228713   1.884   6.577   7.492 -0.3061  0.0677 -0.1620
 2385TIP3    H128714   1.972   6.611   7.472 -0.4557  0.2130 -0.5840
 2385TIP3    H228715   1.860   6.527   7.414 -0.4389 -0.2981  0.1140
 2386TIP3   OH228716   6.899   4.797   8.065  0.0452 -0.2629 -0.1265
 2386TIP3    H128717   6.824   4.838   8.022 -0.3721 -0.3307  0.5388
 2386TIP3    H228718   6.962   4.868   8.077 -0.4741  0.0865  0.5692
 2387TIP3   OH228719   0.940   6.054   7.643 -0.1229 -0.1041 -0.0313
 2387TIP3    H128720   0.963   6.032   7.733 -1.6478  0.3459  0.4995
 2387TIP3    H228721   0.901   5.973   7.609  1.9151 -0.8041 -0.8644
 2388TIP3   OH228722   6.642   3.592   7.379  0.0800 -0.2530  0.2088
 2388TIP3    H128723   6.637   3.598   7.474 -0.0794 -0.1748  0.1949
 2388TIP3    H228724   6.598   3.670   7.347  2.2627  1.0097  0.0885
 2389TIP3   OH228725   2.999   0.428   0.615 -0.5581 -0.3114 -0.5345
 2389TIP3    H128726   3.053   0.386   0.682  0.2240 -0.1055 -1.0234
 2389TIP3    H228727   2.986   0.517   0.647  2.5439  0.8549 -2.0932
 2390TIP3   OH228728   3.321   0.216   6.992  0.3769  0.3972 -0.0830
 2390TIP3    H128729   3.330   0.160   7.070  1.3869  2.7207  1.5825
 2390TIP3    H228730   3.410   0.223   6.958  0.0590  0.0416 -1.0238
 2391TIP3   OH228731   1.791   1.373   1.800  0.0447  0.8440  0.0242
 2391TIP3    H128732   1.761   1.421   1.876  2.1275  0.3055  1.2701
 2391TIP3    H228733   1.879   1.408   1.782 -0.2506  0.6908 -1.8988
 2392TIP3   OH228734   4.631   2.410   6.847 -0.2520 -0.7461 -0.4496
 2392TIP3    H128735   4.658   2.369   6.765  1.8142  0.6880 -0.5492
 2392TIP3    H228736   4.538   2.430   6.834 -0.4127 -2.1204 -1.7230
 2393TIP3   OH228737   2.477   1.860   0.911  0.4717 -0.6016 -0.2398
 2393TIP3    H128738   2.446   1.921   0.844  0.0567 -1.8426 -1.2254
 2393TIP3    H228739   2.450   1.774   0.879 -0.0700 -1.2008  1.7340
 2394TIP3   OH228740   0.546   4.588   0.376  0.2087 -0.0764 -0.6035
 2394TIP3    H128741   0.629   4.621   0.341 -0.5629 -0.7939 -3.4655
 2394TIP3    H228742   0.522   4.649   0.445  2.8174  0.4719 -0.0889
 2395TIP3   OH228743   6.363   4.229   8.049 -0.1469 -0.0458  0.8872
 2395TIP3    H128744   6.401   4.153   8.005 -1.8975  0.0430 -0.9289
 2395TIP3    H228745   6.315   4.192   8.123 -1.1170 -0.7874 -0.0680
 2396TIP3   OH228746   2.712   0.380   0.169  0.5378 -0.5191  0.2678
 2396TIP3    H128747   2.691   0.352   0.258  1.7916 -2.5019 -0.0049
 2396TIP3    H228748   2.707   0.475   0.172 -1.8289 -0.6155  1.8217
 2397TIP3   OH228749   1.821   0.579   8.360 -0.0991 -0.0918  0.2276
 2397TIP3    H128750   1.773   0.506   8.400  0.4313 -0.8602 -0.5032
 2397TIP3    H228751   1.825   0.558   8.267 -2.2403  2.2101 -0.4819
 2398TIP3   OH228752   1.772   1.144   2.876 -0.1783 -0.2251  0.0846
 2398TIP3    H128753   1.773   1.053   2.907  0.1516  0.2896  1.6601
 2398TIP3    H228754   1.739   1.138   2.786 -0.0014 -1.9145  0.0972
 2399TIP3   OH228755   2.568   6.397   0.686  0.2560 -0.7903  0.2299
 2399TIP3    H128756   2.483   6.393   0.731 -0.5512  0.3058 -1.1098
 2399TIP3    H228757   2.631   6.368   0.752 -1.1681 -1.8437  1.1996
 2400TIP3   OH228758   2.018   5.442   0.066 -0.6055  0.1017  0.2360
 2400TIP3    H128759   1.951   5.404   0.123 -1.5249  0.5852 -0.4949
 2400TIP3    H228760   2.101   5.412   0.103 -1.2382 -0.9388  0.8548
 2401TIP3   OH228761   2.057   4.578   8.543  0.4535 -0.8863 -0.0576
 2401TIP3    H128762   2.067   4.649   8.480  1.2287 -0.9233  0.0230
 2401TIP3    H228763   1.967   4.548   8.530  0.5039 -0.6872 -0.9238
 2402TIP3   OH228764   1.030   6.697   0.356  0.5298 -0.6199  0.1983
 2402TIP3    H128765   1.072   6.738   0.280 -1.3220  0.2864 -0.4043
 2402TIP3    H228766   1.028   6.604   0.335 -0.5033 -0.3166 -1.1892
 2403TIP3   OH228767   3.315   0.602   7.335  0.1252 -0.2388  0.3495
 2403TIP3    H128768   3.261   0.645   7.400 -1.0093 -0.7800 -0.2058
 2403TIP3    H228769   3.336   0.671   7.272 -0.8850 -0.2673 -0.0331
 2404TIP3   OH228770   5.977   6.772   7.517 -0.6481 -0.2964  0.3672
 2404TIP3    H128771   5.927   6.796   7.594 -1.6938 -1.1016 -0.0253
 2404TIP3    H228772   6.036   6.845   7.502 -1.5912  0.6151  0.9641
 2405TIP3   OH228773   3.369   2.373   0.808 -0.1763  0.1211 -0.1749
 2405TIP3    H128774   3.427   2.297   0.798 -1.6543 -0.8345 -2.0089
 2405TIP3    H228775   3.384   2.426   0.730 -0.6422  0.6505  0.0865
 2406TIP3   OH228776   2.967   1.214   6.913  0.1889  0.6571 -0.5118
 2406TIP3    H128777   2.974   1.231   6.819  1.6702  0.4617 -0.4566
 2406TIP3    H228778   3.047   1.251   6.950  0.1117 -0.1922  0.5426
 2407TIP3   OH228779   2.329   2.494   0.948  0.0176  0.2322 -0.1314
 2407TIP3    H128780   2.281   2.464   0.870 -0.9473 -1.5927  1.0785
 2407TIP3    H228781   2.260   2.519   1.010  0.6459 -0.7937  1.0192
 2408TIP3   OH228782   4.992   5.086   8.334 -0.3634  0.3117 -0.2493
 2408TIP3    H128783   4.978   5.180   8.345  1.9771  0.6450  0.3636
 2408TIP3    H228784   4.904   5.051   8.317 -1.5392  2.3638  1.1117
 2409TIP3   OH228785   6.311   5.937   1.708 -0.0500 -0.3655 -0.3005
 2409TIP3    H128786   6.280   5.957   1.796  1.1179  0.2484 -0.0110
 2409TIP3    H228787   6.404   5.960   1.709 -0.3138  1.0064 -2.1062
 2410TIP3   OH228788   3.433   2.736   7.418  0.9960  1.0408 -0.6611
 2410TIP3    H128789   3.339   2.750   7.429  0.8308  0.8848 -1.8093
 2410TIP3    H228790   3.443   2.708   7.327  1.8732 -1.2011  0.0373
 2411TIP3   OH228791   3.551   2.651   7.655  0.1069 -0.3485 -0.0467
 2411TIP3    H128792   3.518   2.694   7.576  1.3409 -0.6742 -0.7787
 2411TIP3    H228793   3.507   2.695   7.727  0.9922  1.8790 -0.7862
 2412TIP3   OH228794   5.500   5.961   0.035  0.5729 -0.3069  0.1279
 2412TIP3    H128795   5.592   5.959   0.009  0.1918 -1.1366 -1.2861
 2412TIP3    H228796   5.452   5.949  -0.047 -0.7531 -2.1521  1.1155
 2413TIP3   OH228797   4.698   3.380   1.866  0.2164 -0.4223  0.2328
 2413TIP3    H128798   4.737   3.451   1.816  0.0249 -1.2656 -1.1492
 2413TIP3    H228799   4.771   3.321   1.886  0.3088 -0.0470  1.0567
 2414TIP3   OH228800   1.901   6.174   0.091  0.0233  0.5549  0.2453
 2414TIP3    H128801   1.995   6.190   0.080 -0.3555  1.2851 -3.0461
 2414TIP3    H228802   1.866   6.256   0.126  0.4253  0.7892  0.0979
 2415TIP3   OH228803   0.586   5.826   7.379 -0.1866  0.3898 -0.9360
 2415TIP3    H128804   0.600   5.907   7.428 -0.0269  0.3219 -0.8684
 2415TIP3    H228805   0.609   5.849   7.289  1.8220 -0.0953 -0.6022
 2416TIP3   OH228806   4.308   2.895   0.159 -0.2273  0.2638 -0.0148
 2416TIP3    H128807   4.244   2.840   0.115 -0.5272 -0.5156  1.3491
 2416TIP3    H228808   4.390   2.846   0.154  0.4008  1.3861 -2.0087
 2417TIP3   OH228809   1.514   5.352   1.185  0.6224 -0.1890  0.8246
 2417TIP3    H128810   1.609   5.342   1.195  0.7409  0.9484  0.9379
 2417TIP3    H228811   1.500   5.355   1.091  0.3113 -3.5210  0.6360
 2418TIP3   OH228812   1.698   5.726   7.590  0.3785 -0.0345 -0.3690
 2418TIP3    H128813   1.716   5.819   7.578 -1.4908  0.4317  0.1149
 2418TIP3    H228814   1.686   5.693   7.501  0.8110  0.2246 -0.5290
 2419TIP3   OH228815   3.977   6.287   7.921  0.0384 -0.0024 -0.5848
 2419TIP3    H128816   3.949   6.197   7.909 -0.5594  0.3804 -2.3736
 2419TIP3    H228817   3.907   6.340   7.883  0.8096  1.1800 -0.4407
 2420TIP3   OH228818   4.118   3.664   1.660 -0.3197  0.7693 -0.6242
 2420TIP3    H128819   4.108   3.718   1.582 -1.3323  0.6968 -0.5522
 2420TIP3    H228820   4.029   3.652   1.693  0.2304  3.1664  2.1457
 2421TIP3   OH228821   5.746   1.367   7.228  0.3936  0.6454 -0.3090
 2421TIP3    H128822   5.762   1.451   7.185 -1.5857  1.6493  0.7483
 2421TIP3    H228823   5.688   1.320   7.168  0.7475  0.4208 -0.4768
 2422TIP3   OH228824   3.171   3.681   6.882  0.2024  0.3391  0.6347
 2422TIP3    H128825   3.098   3.637   6.926 -0.3196 -0.1178 -0.6566
 2422TIP3    H228826   3.144   3.772   6.874 -0.9273 -0.1090 -1.1916
 2423TIP3   OH228827   0.987   4.300   0.028  0.3242 -0.2437  0.6532
 2423TIP3    H128828   0.966   4.393   0.040  0.8799  0.0478 -0.4795
 2423TIP3    H228829   0.905   4.261  -0.001  0.2256  0.0103  0.5813
 2424TIP3   OH228830   0.926   4.169   2.617  0.2023  0.5489 -0.1703
 2424TIP3    H128831   0.994   4.233   2.594  1.6870 -0.0043  2.3123
 2424TIP3    H228832   0.974   4.098   2.660 -1.6584 -1.2465 -0.9172
 2425TIP3   OH228833   0.808   6.454   7.782 -0.1412  0.7443  0.4363
 2425TIP3    H128834   0.840   6.384   7.839 -0.4115  1.8518  2.0292
 2425TIP3    H228835   0.860   6.446   7.702  1.5181  0.2252  1.5128
 2426TIP3   OH228836   5.624   0.165   2.865 -0.3083  0.2219  0.0754
 2426TIP3    H128837   5.661   0.113   2.794  0.5819 -0.5298  1.0670
 2426TIP3    H228838   5.700   0.208   2.905 -0.6974  0.0148  1.0655
 2427TIP3   OH228839   6.805   4.047   1.120  0.0846 -0.4406 -0.6482
 2427TIP3    H128840   6.844   4.042   1.032  0.7838  2.7685 -0.6625
 2427TIP3    H228841   6.878   4.026   1.179  1.0546  2.1943 -0.7819
 2428TIP3   OH228842   4.585   6.640   6.766  0.6249  0.0264  0.8442
 2428TIP3    H128843   4.670   6.621   6.806  0.3366 -0.9164  1.0229
 2428TIP3    H228844   4.521   6.603   6.827  0.1176  0.0845  0.3499
 2429TIP3   OH228845   1.397   4.916   7.222  0.7459  0.1771  0.5700
 2429TIP3    H128846   1.334   4.987   7.207  0.3037  0.0036  1.5299
 2429TIP3    H228847   1.430   4.894   7.135 -0.7713  0.0487 -0.0019
 2430TIP3   OH228848   5.287   1.647   6.659 -0.1459  0.2148 -0.1862
 2430TIP3    H128849   5.316   1.565   6.619  0.7088  1.1069 -1.4709
 2430TIP3    H228850   5.193   1.651   6.640 -0.6052 -1.2946  1.4601
 2431TIP3   OH228851   1.877   5.795   7.781 -0.8116  0.2666 -0.0445
 2431TIP3    H128852   1.816   5.753   7.719 -0.4496  0.1661 -0.3338
 2431TIP3    H228853   1.872   5.888   7.760  0.4914  0.0776 -1.2934
 2432TIP3   OH228854   6.072   5.674   7.517  0.5471  0.6197  0.4742
 2432TIP3    H128855   6.081   5.580   7.531 -0.5831  0.1959 -1.4524
 2432TIP3    H228856   6.159   5.709   7.539  1.7174 -1.1623 -1.0516
 2433TIP3   OH228857   3.992   4.664   8.539  0.1455  0.2612  0.0296
 2433TIP3    H128858   3.949   4.698   8.618  0.1032  0.6574 -0.1607
 2433TIP3    H228859   3.961   4.574   8.532  0.4197  0.1122  0.6591
 2434TIP3   OH228860   1.113   5.963   6.994  0.1499 -0.0650  0.2962
 2434TIP3    H128861   1.154   6.028   6.937  1.2056 -0.5348  0.4982
 2434TIP3    H228862   1.165   5.883   6.981  0.3385 -0.2270  1.7896
 2435TIP3   OH228863   4.803   2.072   0.018  0.0367 -0.3700  0.6831
 2435TIP3    H128864   4.880   2.038   0.064  0.6356 -1.4145 -0.9891
 2435TIP3    H228865   4.753   2.117   0.085  0.3365 -2.6914  2.5846
 2436TIP3   OH228866   5.966   3.094   8.385 -0.0674 -0.3621  0.5300
 2436TIP3    H128867   5.944   3.089   8.478 -1.9443  1.9368  0.3175
 2436TIP3    H228868   5.910   3.029   8.343 -0.5729 -0.1245  0.8316
 2437TIP3   OH228869   2.072   5.115   0.294 -0.3629 -0.1696 -0.2696
 2437TIP3    H128870   2.079   5.065   0.213 -1.8560 -2.2851  0.8111
 2437TIP3    H228871   2.163   5.135   0.318  0.1417 -0.3765 -1.9075
 2438TIP3   OH228872   6.411   1.167   7.758 -0.4044 -0.1950  0.0775
 2438TIP3    H128873   6.373   1.251   7.783 -0.5523 -0.5353  1.0084
 2438TIP3    H228874   6.464   1.140   7.833  0.3684 -0.5122 -0.5653
 2439TIP3   OH228875   5.492   5.899   8.254 -0.1846 -0.0285  0.3288
 2439TIP3    H128876   5.532   5.855   8.329  1.2120  0.8670  0.1396
 2439TIP3    H228877   5.429   5.835   8.220  0.5245 -1.1892  1.1191
 2440TIP3   OH228878   5.815   1.058   0.647  0.4298 -0.4632  0.6420
 2440TIP3    H128879   5.769   1.034   0.727  1.1695 -0.2026  1.1482
 2440TIP3    H228880   5.853   0.976   0.615 -0.6984 -0.7638 -0.0056
 2441TIP3   OH228881   4.819   2.754   8.105  0.5065  0.4213 -0.1502
 2441TIP3    H128882   4.861   2.787   8.185 -0.3549 -1.1673  1.0189
 2441TIP3    H228883   4.873   2.679   8.079 -0.2354 -0.1901  0.0261
 2442TIP3   OH228884   1.709   0.857   2.872 -0.9786  0.8724 -0.3547
 2442TIP3    H128885   1.705   0.830   2.780 -2.1619 -2.2191  0.4595
 2442TIP3    H228886   1.618   0.854   2.901 -0.5089  0.6726  1.1719
 2443TIP3   OH228887   0.219   5.475   1.917  0.1109 -0.8269  0.0198
 2443TIP3    H128888   0.300   5.480   1.968 -0.9012 -2.2110  1.9109
 2443TIP3    H228889   0.149   5.482   1.983 -1.3263  0.3924 -1.5548
 2444TIP3   OH228890   6.277   2.530   1.772  0.0017  0.8884 -0.3710
 2444TIP3    H128891   6.306   2.557   1.685 -0.1436  1.1953 -0.3223
 2444TIP3    H228892   6.190   2.567   1.781 -0.1922  0.4222 -0.2985
 2445TIP3   OH228893   1.881   5.551   6.669  0.1865 -0.1943  0.3129
 2445TIP3    H128894   1.858   5.641   6.696  0.2669 -0.1229  0.1429
 2445TIP3    H228895   1.858   5.497   6.745 -0.9531 -0.1832 -0.0159
 2446TIP3   OH228896   0.218   1.835   1.318  0.4616  0.0631  0.0834
 2446TIP3    H128897   0.173   1.894   1.258 -1.1081 -1.7897 -0.6777
 2446TIP3    H228898   0.290   1.886   1.353 -1.2622  2.6675  0.0868
 2447TIP3   OH228899   3.864   1.368   6.488 -0.0008  0.1174  0.2650
 2447TIP3    H128900   3.894   1.385   6.399 -1.0974 -0.4007 -0.2258
 2447TIP3    H228901   3.861   1.272   6.494 -1.1220  0.1446  0.4184
 2448TIP3   OH228902   0.394   1.204   0.499  0.2732 -0.1831  0.0838
 2448TIP3    H128903   0.371   1.297   0.491 -2.6978 -0.6700  1.4438
 2448TIP3    H228904   0.400   1.189   0.593 -1.2649 -1.6980  0.0016
 2449TIP3   OH228905   1.838   0.189   2.248  0.1015  0.6981  0.3210
 2449TIP3    H128906   1.769   0.234   2.199 -0.2451 -0.1100  0.0368
 2449TIP3    H228907   1.855   0.244   2.323 -1.1785  0.7002  0.6310
 2450TIP3   OH228908   5.464   6.612   8.215 -0.1165  0.2259 -0.6500
 2450TIP3    H128909   5.384   6.608   8.268  0.3387 -1.5257 -0.0373
 2450TIP3    H228910   5.516   6.681   8.256 -0.6007  0.2400 -0.0365
 2451TIP3   OH228911   0.045   5.380   2.356  0.0226 -0.1561 -0.0763
 2451TIP3    H128912   0.044   5.302   2.411  1.4812 -0.3168 -0.2379
 2451TIP3    H228913  -0.001   5.355   2.277  1.2577 -1.1548 -0.4981
 2452TIP3   OH228914   5.484   5.178   0.240  0.1957 -0.3191 -0.0038
 2452TIP3    H128915   5.464   5.172   0.334 -1.6688  2.1897 -0.1371
 2452TIP3    H228916   5.486   5.272   0.222 -1.5226 -0.7034 -2.8426
 2453TIP3   OH228917   5.247   6.658   7.161  0.0584  0.1901  0.2152
 2453TIP3    H128918   5.263   6.737   7.211 -1.1358  0.9618 -0.5645
 2453TIP3    H228919   5.225   6.592   7.227 -0.4516  0.9111  0.7790
 2454TIP3   OH228920   5.394   4.559   7.508 -0.5591 -0.5440  0.0049
 2454TIP3    H128921   5.385   4.589   7.599 -1.1371 -0.9704  0.0891
 2454TIP3    H228922   5.327   4.492   7.498 -0.8029 -0.1716 -0.8861
 2455TIP3   OH228923   4.738   2.266   6.647  0.1364  0.0508 -0.3217
 2455TIP3    H128924   4.671   2.224   6.593 -0.8976 -0.1635  1.0601
 2455TIP3    H228925   4.782   2.193   6.690 -0.7462  0.2830  1.0327
 2456TIP3   OH228926   1.392   1.708   7.434 -0.1508  0.3069  0.4052
 2456TIP3    H128927   1.467   1.664   7.395  0.5040 -0.6630  2.5965
 2456TIP3    H228928   1.399   1.689   7.528 -1.1456  3.1476  1.1667
 2457TIP3   OH228929   0.592   1.539   8.458  0.2752  0.0390 -0.0489
 2457TIP3    H128930   0.666   1.586   8.420 -1.3898  1.7401 -1.3368
 2457TIP3    H228931   0.550   1.497   8.384 -0.3988 -0.4205  0.5840
 2458TIP3   OH228932   1.407   5.425   2.406 -0.3824  0.0422  0.7149
 2458TIP3    H128933   1.401   5.332   2.428 -2.1792 -0.2280 -0.7051
 2458TIP3    H228934   1.428   5.468   2.489  2.4808 -1.7575  1.0592
 2459TIP3   OH228935   2.605   4.398   6.198 -0.0392  0.5523 -0.5375
 2459TIP3    H128936   2.609   4.470   6.260  0.6280  0.9448 -1.0138
 2459TIP3    H228937   2.696   4.384   6.172 -0.0495 -1.0342  0.1851
 2460TIP3   OH228938   3.606   4.304   8.343  0.1734  0.7173 -0.5508
 2460TIP3    H128939   3.556   4.324   8.422  0.2426 -0.8719 -0.0598
 2460TIP3    H228940   3.668   4.236   8.370  0.6148  0.5789 -1.8273
 2461TIP3   OH228941   6.445   5.397   2.506  0.6730  0.5560 -0.2561
 2461TIP3    H128942   6.397   5.478   2.491  0.4650  0.7606  1.3109
 2461TIP3    H228943   6.392   5.349   2.570  1.8605  0.1594  0.4566
 2462TIP3   OH228944   6.120   4.878   8.177  0.4779 -0.3778 -0.2651
 2462TIP3    H128945   6.208   4.883   8.139  0.7928 -0.4201  0.4352
 2462TIP3    H228946   6.134   4.839   8.263 -0.1651  0.0610  0.0441
 2463TIP3   OH228947   0.067   1.147   0.575  0.3302 -0.0466 -0.4232
 2463TIP3    H128948   0.067   1.189   0.489  2.2622  0.2210 -0.3433
 2463TIP3    H228949  -0.011   1.181   0.619  1.1329  2.4862 -0.8375
 2464TIP3   OH228950   1.963   3.650   7.325  0.1880  0.8345 -0.7005
 2464TIP3    H128951   1.875   3.680   7.302 -0.0939  0.5113 -0.0583
 2464TIP3    H228952   2.016   3.730   7.327 -0.5011  1.2844  0.7485
 2465TIP3   OH228953   0.406   1.774   2.006 -0.0982  0.1638 -0.6454
 2465TIP3    H128954   0.420   1.785   2.100  2.1851  1.4184 -1.0665
 2465TIP3    H228955   0.343   1.702   2.000 -1.5636  1.0870  1.8591
 2466TIP3   OH228956   4.694   3.608   0.958 -0.2583  0.4808 -0.4177
 2466TIP3    H128957   4.692   3.699   0.931  1.1816  0.7222  0.2082
 2466TIP3    H228958   4.657   3.608   1.046  1.7849  0.8462  0.4936
 2467TIP3   OH228959   1.750   3.394   8.118 -0.0727 -0.3001 -0.1660
 2467TIP3    H128960   1.713   3.310   8.142 -1.7613  0.6643  0.7887
 2467TIP3    H228961   1.838   3.373   8.085 -0.9889 -2.5512 -1.3778
 2468TIP3   OH228962   1.323   4.642   7.131  0.6394  0.1797 -0.8274
 2468TIP3    H128963   1.327   4.687   7.216 -0.4955  0.0402 -0.6798
 2468TIP3    H228964   1.369   4.701   7.071  0.9611  0.5531 -0.2279
 2469TIP3   OH228965   1.699   3.849   6.786  0.1052  0.1932  0.0831
 2469TIP3    H128966   1.774   3.856   6.845 -0.9838 -1.1716  1.7041
 2469TIP3    H228967   1.637   3.914   6.818 -0.2502 -0.1322  0.0596
 2470TIP3   OH228968   3.987   0.056   8.010 -0.1551  0.1325 -0.1330
 2470TIP3    H128969   4.047   0.126   7.984  0.4808 -0.4066 -0.1457
 2470TIP3    H228970   3.934   0.040   7.932  0.6588 -0.3706 -0.6039
 2471TIP3   OH228971   2.099   4.664   6.369  0.0079  0.1139 -0.2927
 2471TIP3    H128972   2.192   4.682   6.373 -0.2708  1.7050 -0.3328
 2471TIP3    H228973   2.060   4.746   6.338 -1.2023 -1.1560 -2.3483
 2472TIP3   OH228974   3.021   4.872   6.478 -0.3989 -0.1955  0.6417
 2472TIP3    H128975   3.040   4.910   6.393  0.1996  0.1566  0.9282
 2472TIP3    H228976   3.079   4.918   6.539 -1.4788  0.2315  1.3892
 2473TIP3   OH228977   5.068   0.196   0.933  0.1798 -0.3981  0.6746
 2473TIP3    H128978   5.076   0.102   0.916 -1.2548 -0.5800  0.8471
 2473TIP3    H228979   5.152   0.222   0.970  0.0311 -1.9725  2.2379
 2474TIP3   OH228980   2.829   6.210   7.486  0.1902  0.1959 -0.2163
 2474TIP3    H128981   2.766   6.145   7.518  0.6661  0.0537  0.4522
 2474TIP3    H228982   2.830   6.198   7.391  1.3510 -1.7937 -0.0112
 2475TIP3   OH228983   1.022   1.609   6.938  0.4360  0.2215 -0.5230
 2475TIP3    H128984   1.117   1.615   6.926  0.5479  0.2605  0.2889
 2475TIP3    H228985   1.012   1.564   7.022 -0.2930 -1.1988 -1.3433
 2476TIP3   OH228986   4.829   1.413   6.831  0.1083 -0.1089 -0.3049
 2476TIP3    H128987   4.869   1.499   6.848  3.2441 -1.4508 -0.1122
 2476TIP3    H228988   4.742   1.419   6.870  0.1653  2.9993 -0.4174
 2477TIP3   OH228989   4.896   5.012   6.914 -0.1053  0.2381 -0.2306
 2477TIP3    H128990   4.843   5.030   6.991  0.6954  1.0762  0.1476
 2477TIP3    H228991   4.842   4.955   6.859 -1.3394  0.9962  0.1775
 2478TIP3   OH228992   5.279   3.279   1.268 -0.0288 -0.2913 -0.1277
 2478TIP3    H128993   5.242   3.327   1.342 -0.5943 -1.7028  0.5425
 2478TIP3    H228994   5.223   3.202   1.260 -1.0163  0.6285 -3.1060
 2479TIP3   OH228995   4.324   5.742   1.321  0.7559 -0.4093 -0.2290
 2479TIP3    H128996   4.320   5.678   1.250  0.2558  0.6285 -1.1535
 2479TIP3    H228997   4.242   5.791   1.314 -0.2643 -1.5280  2.2885
 2480TIP3   OH228998   3.987   4.482   6.463 -0.1853 -0.0480  0.2228
 2480TIP3    H128999   3.978   4.561   6.409 -2.1696  0.0784  0.6887
 2480TIP3    H229000   4.052   4.507   6.529 -1.0825  1.3695  0.6206
 2481TIP3   OH229001   2.326   0.783   1.221  0.5171  0.3482 -0.2274
 2481TIP3    H129002   2.246   0.800   1.171 -0.3699  0.3156  1.1298
 2481TIP3    H229003   2.379   0.729   1.163  0.3142  1.7500 -1.8249
 2482TIP3   OH229004   2.295   1.627   7.374 -0.1025 -0.4277 -0.4416
 2482TIP3    H129005   2.326   1.717   7.362 -1.7039  0.2521  0.2386
 2482TIP3    H229006   2.265   1.600   7.288 -1.7246  0.5541 -0.2239
 2483TIP3   OH229007   0.500   3.957   0.410  0.0303  0.7121 -0.2014
 2483TIP3    H129008   0.474   4.049   0.408  0.5871  0.8898  0.3844
 2483TIP3    H229009   0.452   3.921   0.485  2.0691  1.2562  1.4728
 2484TIP3   OH229010   2.607   2.488   0.880  0.0875  0.1463 -0.7210
 2484TIP3    H129011   2.593   2.503   0.787 -1.9572  3.2214 -0.0812
 2484TIP3    H229012   2.520   2.498   0.919  0.8889 -1.0171  1.5439
 2485TIP3   OH229013   3.188   2.752   0.482 -0.2386 -0.2696 -0.6444
 2485TIP3    H129014   3.237   2.762   0.564 -0.7464  1.0918 -0.4880
 2485TIP3    H229015   3.247   2.787   0.415  0.1518 -1.3251 -0.8739
 2486TIP3   OH229016   4.006   5.171   0.356 -0.0075  0.0178 -0.0541
 2486TIP3    H129017   3.991   5.259   0.322 -2.8553  0.2948  1.5948
 2486TIP3    H229018   4.022   5.117   0.278 -2.1146  1.3359 -1.5179
 2487TIP3   OH229019   6.096   3.960   8.469 -0.4852 -0.0598 -0.2667
 2487TIP3    H129020   6.130   3.973   8.557  0.6877  0.4802 -0.7860
 2487TIP3    H229021   6.090   3.865   8.460  0.3302 -0.1493  0.0503
 2488TIP3   OH229022   1.799   4.997   1.288 -0.0530 -0.8305 -0.2639
 2488TIP3    H129023   1.768   4.912   1.257 -1.6566 -0.3396 -0.0825
 2488TIP3    H229024   1.750   5.013   1.369  1.1254 -0.2717  0.3636
 2489TIP3   OH229025   1.261   0.007   7.407  0.2884 -0.1811 -0.4963
 2489TIP3    H129026   1.357   0.008   7.406  0.3562  0.0587 -3.4915
 2489TIP3    H229027   1.236   0.095   7.377 -0.8660 -0.3932 -0.1977
 2490TIP3   OH229028   2.639   4.134   6.389  0.5011 -0.1696 -0.1836
 2490TIP3    H129029   2.726   4.098   6.373  0.3520 -0.6373  0.0428
 2490TIP3    H229030   2.646   4.178   6.473  0.6255  0.1477 -0.3581
 2491TIP3   OH229031   1.843   3.278   1.492  0.1559 -0.5453  0.5092
 2491TIP3    H129032   1.749   3.293   1.479  0.3552  0.2671 -0.0141
 2491TIP3    H229033   1.885   3.333   1.427  1.1528  2.0099  3.1232
 2492TIP3   OH229034   0.695   0.711   1.811  0.5138  0.2198 -0.1599
 2492TIP3    H129035   0.648   0.718   1.894  0.1363  0.4838 -0.3963
 2492TIP3    H229036   0.629   0.682   1.748  0.9940 -0.8621 -0.1883
 2493TIP3   OH229037   0.794   1.348   8.436  0.4300 -0.2525  0.2683
 2493TIP3    H129038   0.765   1.302   8.357 -0.1384 -1.1167  0.9689
 2493TIP3    H229039   0.715   1.390   8.469  0.5893 -0.2010  0.5856
 2494TIP3   OH229040   0.937   5.679   7.202 -0.0909 -0.4357  0.5571
 2494TIP3    H129041   1.014   5.680   7.144 -0.0396 -0.7846  0.6164
 2494TIP3    H229042   0.890   5.599   7.178 -1.9039  1.0858 -1.3717
 2495TIP3   OH229043   1.691   0.518   1.773  0.5425  0.0557 -0.0878
 2495TIP3    H129044   1.604   0.485   1.796  0.2709 -0.9195 -2.2769
 2495TIP3    H229045   1.696   0.604   1.815 -1.7786  0.4439 -0.4636
 2496TIP3   OH229046   4.495   5.941   0.271  0.4937  0.4095 -0.2899
 2496TIP3    H129047   4.535   5.995   0.204 -0.9208  0.9468 -0.7479
 2496TIP3    H229048   4.467   5.862   0.225  1.2275 -0.0763  0.0771
 2497TIP3   OH229049   5.664   3.226   7.564  0.0916 -0.3844  0.0631
 2497TIP3    H129050   5.575   3.257   7.580 -0.5935 -2.7414  1.2632
 2497TIP3    H229051   5.655   3.159   7.497  1.3639  1.0468 -1.6185
 2498TIP3   OH229052   4.831   6.483   1.665 -0.6305 -0.1984 -0.3734
 2498TIP3    H129053   4.839   6.490   1.760 -1.1577 -1.3286 -0.2289
 2498TIP3    H229054   4.758   6.541   1.644  0.9832  1.9211 -0.4165
 2499TIP3   OH229055   1.244   5.707   6.933 -0.0669  0.3895 -0.4734
 2499TIP3    H129056   1.197   5.634   6.892 -2.1943  0.3948  1.7320
 2499TIP3    H229057   1.274   5.761   6.860 -0.4891 -1.4534 -2.0817
 2500TIP3   OH229058   3.066   0.985   7.897  0.0006  0.0872  0.3869
 2500TIP3    H129059   3.075   1.053   7.964  2.6866 -0.1381  0.3476
 2500TIP3    H229060   3.037   1.033   7.819 -0.1002  0.8444  0.8745
 2501TIP3   OH229061   6.032   5.595   8.307 -0.2284  0.0296  0.0600
 2501TIP3    H129062   6.075   5.570   8.225 -2.0584  0.4671 -1.0847
 2501TIP3    H229063   6.097   5.574   8.375  1.6771  0.4260 -1.5300
 2502TIP3   OH229064   3.621   5.505   0.933  0.2116  0.1153  0.2550
 2502TIP3    H129065   3.588   5.416   0.920  0.4749 -0.0959  1.0025
 2502TIP3    H229066   3.658   5.504   1.021  0.1452  0.9903  0.2961
 2503TIP3   OH229067   5.398   5.684   1.695 -0.3309 -0.0356  0.1659
 2503TIP3    H129068   5.475   5.650   1.650 -0.7663 -0.0691 -0.5678
 2503TIP3    H229069   5.427   5.767   1.734 -0.4856  1.0712 -1.9486
 2504TIP3   OH229070   5.652   3.601   7.814 -0.9558  0.5169 -0.1319
 2504TIP3    H129071   5.707   3.530   7.782 -1.1956  0.1464  0.2649
 2504TIP3    H229072   5.657   3.595   7.910 -1.4337  0.6702 -0.0938
 2505TIP3   OH229073   0.245   5.068   2.346 -0.2627  0.1430  0.1881
 2505TIP3    H129074   0.283   5.135   2.404 -0.0889  0.6349 -0.4828
 2505TIP3    H229075   0.178   5.025   2.400  0.4288  0.0689  0.9988
 2506TIP3   OH229076   6.334   6.365   2.240 -0.7367 -0.1156  0.1950
 2506TIP3    H129077   6.240   6.370   2.256 -0.9033 -0.4805 -0.6339
 2506TIP3    H229078   6.366   6.300   2.303 -1.0433 -0.0324  0.4387
 2507TIP3   OH229079   1.323   2.402   2.035 -0.3051 -0.2244  0.0290
 2507TIP3    H129080   1.246   2.378   1.983  0.3104 -0.6742 -0.7099
 2507TIP3    H229081   1.309   2.359   2.120 -0.5587 -0.8727 -0.3298
 2508TIP3   OH229082   1.529   4.723   8.171  0.3091  0.1965  0.1931
 2508TIP3    H129083   1.470   4.713   8.096 -0.3673 -0.5070  0.7993
 2508TIP3    H229084   1.614   4.741   8.132  0.8002 -3.7484 -0.9885
 2509TIP3   OH229085   2.190   6.757   1.998  0.2428 -0.1953  0.6435
 2509TIP3    H129086   2.253   6.809   1.949 -1.6620  0.8704 -0.8512
 2509TIP3    H229087   2.148   6.819   2.058  1.1979 -1.0882  2.3268
 2510TIP3   OH229088   5.623   1.339   8.342 -0.2583 -0.2794  0.6904
 2510TIP3    H129089   5.590   1.375   8.423  0.2635 -0.2695  0.9055
 2510TIP3    H229090   5.658   1.253   8.366  2.5157  0.8664  1.0861
 2511TIP3   OH229091   3.105   0.307   7.861 -0.2207 -0.3281 -0.1323
 2511TIP3    H129092   3.081   0.396   7.885 -2.1066  0.1072 -3.0907
 2511TIP3    H229093   3.054   0.251   7.918 -0.0531  0.4843  0.8376
 2512TIP3   OH229094   1.076   0.535   1.172 -0.5447  0.1086  0.4174
 2512TIP3    H129095   1.082   0.629   1.192  0.7794  0.2196 -0.3588
 2512TIP3    H229096   0.982   0.518   1.164 -1.0462  0.6732  3.6235
 2513TIP3   OH229097   3.163   3.605   1.140  0.2608 -0.0480  0.2151
 2513TIP3    H129098   3.080   3.566   1.112  0.8333 -0.3704 -1.1460
 2513TIP3    H229099   3.175   3.575   1.230 -0.2078 -1.5575 -0.1865
 2514TIP3   OH229100   2.559   1.936   8.005  0.5270 -1.0483  0.0724
 2514TIP3    H129101   2.584   1.904   7.918  0.3104 -1.9740  0.3476
 2514TIP3    H229102   2.633   1.991   8.032 -0.1164  0.6381 -1.3930
 2515TIP3   OH229103   3.862   5.196   2.176 -0.0361 -0.9060 -0.1191
 2515TIP3    H129104   3.907   5.126   2.224 -0.0707 -0.7652  0.1223
 2515TIP3    H229105   3.822   5.152   2.101 -2.2466 -1.6210  1.3970
 2516TIP3   OH229106   5.107   2.747   7.502  0.1710 -0.3166 -0.1118
 2516TIP3    H129107   5.020   2.784   7.488  0.7095  1.0207 -0.0800
 2516TIP3    H229108   5.145   2.801   7.571  0.9392 -1.0285  0.0331
 2517TIP3   OH229109   2.697   2.668   7.971  0.2139  0.6525 -0.2948
 2517TIP3    H129110   2.664   2.730   8.035 -0.3833  0.9927 -0.9160
 2517TIP3    H229111   2.791   2.685   7.967  0.5742 -0.5808  1.7681
 2518TIP3   OH229112   0.948   1.316   7.502 -0.2406 -0.6527 -0.3819
 2518TIP3    H129113   0.964   1.274   7.586 -0.0203  0.2244  0.0324
 2518TIP3    H229114   0.975   1.407   7.516 -0.3388 -0.4664 -1.3588
 2519TIP3   OH229115   4.473   1.443   7.648 -0.0599 -0.7198  0.9080
 2519TIP3    H129116   4.449   1.406   7.732  2.1179 -0.4046  1.7336
 2519TIP3    H229117   4.520   1.523   7.669 -0.7275  0.1564 -0.6867
 2520TIP3   OH229118   0.942   1.029   7.615 -0.5612 -0.0936 -0.3564
 2520TIP3    H129119   0.958   1.102   7.674 -1.6062 -0.8303  0.9071
 2520TIP3    H229120   0.855   1.046   7.579 -0.4529 -0.2896 -0.7183
 2521TIP3   OH229121   5.781   4.140   7.325 -0.2562  0.0032 -0.1908
 2521TIP3    H129122   5.760   4.080   7.396  1.9497  1.6717  2.0638
 2521TIP3    H229123   5.744   4.224   7.353  1.1985  0.8406 -0.6678
 2522TIP3   OH229124   5.141   4.836   6.823 -0.3822  0.5207 -0.4961
 2522TIP3    H129125   5.203   4.769   6.795  0.9399  2.5432 -2.7785
 2522TIP3    H229126   5.088   4.793   6.890  1.1878 -2.3786 -0.9539
 2523TIP3   OH229127   0.251   6.389   0.497  0.0867 -0.6720 -0.1723
 2523TIP3    H129128   0.175   6.386   0.556 -0.3835 -0.8571 -0.7800
 2523TIP3    H229129   0.318   6.436   0.547 -0.9908  1.0431 -0.2570
 2524TIP3   OH229130   0.505   6.805   0.588  0.1511 -0.2394  0.5950
 2524TIP3    H129131   0.491   6.891   0.627 -0.1479 -0.1520  0.3013
 2524TIP3    H229132   0.569   6.820   0.518  0.0263 -0.2357  0.4802
 2525TIP3   OH229133   3.826   1.458   0.392  0.1076 -0.0752  0.1269
 2525TIP3    H129134   3.768   1.516   0.343 -1.5611 -0.7239  1.2535
 2525TIP3    H229135   3.906   1.509   0.404 -0.8615  1.5314  0.0400
 2526TIP3   OH229136   4.206   3.654   1.286 -0.0688  0.7997 -0.0304
 2526TIP3    H129137   4.171   3.620   1.203  0.9282 -0.6327  0.1092
 2526TIP3    H229138   4.288   3.607   1.299  0.5390  2.0755  1.0499
 2527TIP3   OH229139   5.172   4.559   8.104 -0.1620  0.1004  0.3043
 2527TIP3    H129140   5.208   4.614   8.034  0.6219 -0.4974  0.2202
 2527TIP3    H229141   5.121   4.619   8.158  0.8638  0.9566  0.3447
 2528TIP3   OH229142   3.479   0.627   8.164  0.4002 -0.7469  0.0638
 2528TIP3    H129143   3.450   0.618   8.255 -1.4669  1.3996 -0.2266
 2528TIP3    H229144   3.544   0.697   8.167  0.9136 -1.2135 -0.1530
 2529TIP3   OH229145   3.475   3.609   7.614 -0.1412  0.4260 -0.0599
 2529TIP3    H129146   3.514   3.522   7.620 -1.1136 -0.0722 -0.5408
 2529TIP3    H229147   3.515   3.648   7.536  0.9777  0.7885  0.6760
 2530TIP3   OH229148   5.012   2.753   1.369  0.0986  0.4859 -0.0367
 2530TIP3    H129149   5.092   2.738   1.419 -0.2953 -1.5880  0.0632
 2530TIP3    H229150   4.942   2.748   1.434 -0.2313  0.4823 -0.3885
 2531TIP3   OH229151   5.332   3.505   1.641  0.0490  0.0506  0.1460
 2531TIP3    H129152   5.346   3.433   1.702 -2.0514 -1.2637 -0.8022
 2531TIP3    H229153   5.279   3.568   1.689  3.1368  1.8737  1.5065
 2532TIP3   OH229154   5.520   0.412   8.293 -0.0438  0.4404  0.2096
 2532TIP3    H129155   5.490   0.397   8.204 -0.3831 -0.0497  0.4009
 2532TIP3    H229156   5.451   0.464   8.334  0.0525  0.5575  0.2229
 2533TIP3   OH229157   0.605   5.913   0.135 -0.0130 -0.4600 -0.8514
 2533TIP3    H129158   0.580   5.847   0.070 -2.9419  0.6871 -1.0686
 2533TIP3    H229159   0.522   5.953   0.161  1.3257  0.9376  1.6826
 2534TIP3   OH229160   4.731   3.516   6.236 -0.0035 -0.4880  0.1666
 2534TIP3    H129161   4.716   3.437   6.287  2.2656 -1.1629 -0.1084
 2534TIP3    H229162   4.788   3.570   6.292 -1.0288  0.7159  0.1039
 2535TIP3   OH229163   1.388   4.623   7.947 -0.2721 -0.5161 -0.0106
 2535TIP3    H129164   1.307   4.617   7.897  0.1355 -2.0590 -0.5371
 2535TIP3    H229165   1.439   4.547   7.921  0.7613 -0.3510  1.3648
 2536TIP3   OH229166   6.098   2.767   0.467 -0.1059 -0.0869  0.1996
 2536TIP3    H129167   6.018   2.807   0.501 -0.5758  1.3765 -2.3730
 2536TIP3    H229168   6.142   2.838   0.421  1.5575 -1.4161 -0.3320
 2537TIP3   OH229169   2.650   5.299   1.890  0.0287  0.5252 -0.2838
 2537TIP3    H129170   2.657   5.225   1.831  1.7558  1.3649 -1.2019
 2537TIP3    H229171   2.679   5.264   1.975 -0.5135 -0.1781 -0.3772
 2538TIP3   OH229172   4.960   2.654   0.965 -0.5885 -0.7092 -0.4818
 2538TIP3    H129173   4.905   2.612   1.031  0.9282 -0.5007  0.9705
 2538TIP3    H229174   4.988   2.582   0.908 -2.4768 -0.7883 -1.4082
 2539TIP3   OH229175   4.198   6.424   7.794 -0.6562  0.0123  0.4740
 2539TIP3    H129176   4.140   6.384   7.858 -1.2685 -1.0588 -0.7110
 2539TIP3    H229177   4.143   6.488   7.748 -0.8641 -0.8115 -0.4663
 2540TIP3   OH229178   2.214   1.395   8.071  0.0585 -0.1634  0.2485
 2540TIP3    H129179   2.229   1.361   7.983 -0.6103  0.4977 -0.1308
 2540TIP3    H229180   2.243   1.486   8.067 -1.9421  0.5339  0.0715
 2541TIP3   OH229181   1.774   6.558   1.937  0.1720 -0.5843 -0.0906
 2541TIP3    H129182   1.776   6.484   1.997  1.7117 -0.0763  0.5355
 2541TIP3    H229183   1.693   6.604   1.958 -0.3813 -1.6097  0.0799
 2542TIP3   OH229184   2.079   1.655   1.430  0.3903 -0.0039 -0.7678
 2542TIP3    H129185   1.986   1.674   1.445  0.1314 -0.3724 -1.8608
 2542TIP3    H229186   2.124   1.707   1.497 -0.3261  3.6848 -2.8787
 2543TIP3   OH229187   4.825   5.934   8.214 -0.7923 -0.6542  0.1047
 2543TIP3    H129188   4.804   5.975   8.130 -1.5496  0.5243  0.8442
 2543TIP3    H229189   4.755   5.963   8.273 -0.5531 -1.8696  1.0257
 2544TIP3   OH229190   3.806   3.128   6.586 -0.5671 -0.2145 -0.4889
 2544TIP3    H129191   3.753   3.157   6.513 -0.5761 -1.0545 -0.8305
 2544TIP3    H229192   3.817   3.033   6.572  1.5797  0.0189 -0.8242
 2545TIP3   OH229193   2.670   5.605   1.564 -0.3594 -0.6330 -0.2438
 2545TIP3    H129194   2.698   5.654   1.486 -0.9244 -0.7917 -0.5501
 2545TIP3    H229195   2.654   5.516   1.531  1.3946 -1.2568  0.4392
 2546TIP3   OH229196   5.996   1.820   7.339  0.2443 -0.0683  0.1728
 2546TIP3    H129197   5.937   1.895   7.335 -0.9938 -0.9931  0.4487
 2546TIP3    H229198   5.990   1.781   7.252  0.4057 -0.2021  0.2209
 2547TIP3   OH229199   4.987   2.794   8.343 -0.1272  0.4813  0.0011
 2547TIP3    H129200   4.983   2.752   8.429 -0.0798 -0.3028 -0.3731
 2547TIP3    H229201   5.077   2.780   8.313 -0.8515 -1.7123 -1.3666
 2548TIP3   OH229202   0.884   3.751   0.143 -0.6430  1.0468 -0.2385
 2548TIP3    H129203   0.802   3.801   0.143 -0.4169  1.4334 -0.7298
 2548TIP3    H229204   0.866   3.674   0.196 -2.2093 -0.3062 -2.5672
 2549TIP3   OH229205   3.083   2.722   7.854  0.4025 -0.0004 -0.0779
 2549TIP3    H129206   3.136   2.651   7.890  0.2534  0.6317  1.4717
 2549TIP3    H229207   3.080   2.788   7.924 -4.0613 -0.8046  0.8254
 2550TIP3   OH229208   3.528   2.589   8.244  0.3809  0.0891 -0.2282
 2550TIP3    H129209   3.436   2.564   8.237  0.4491 -0.8478  1.5520
 2550TIP3    H229210   3.543   2.601   8.338  2.0634  0.2205 -0.4746
 2551TIP3   OH229211   2.929   1.177   1.040 -0.3047  0.2570  0.6004
 2551TIP3    H129212   3.024   1.160   1.042 -0.5118 -0.9876  2.4438
 2551TIP3    H229213   2.890   1.094   1.066 -2.0252  0.2988 -1.5905
 2552TIP3   OH229214   0.401   3.881   0.670 -0.5186  0.7390  0.2765
 2552TIP3    H129215   0.379   3.790   0.692 -0.5573  1.1484  2.0640
 2552TIP3    H229216   0.320   3.929   0.686  0.0421  1.3733  1.3428
 2553TIP3   OH229217   2.524   0.410   0.849 -0.4557 -0.2180 -0.4038
 2553TIP3    H129218   2.522   0.482   0.913  1.2190 -0.8255  0.3933
 2553TIP3    H229219   2.528   0.454   0.764 -1.2441  0.6109 -0.0323
 2554TIP3   OH229220   0.711   6.841   1.937 -0.6639 -0.2933 -0.2559
 2554TIP3    H129221   0.699   6.825   2.030 -1.7901  0.3651 -0.2685
 2554TIP3    H229222   0.679   6.931   1.924  1.8073  0.5914 -0.8484
 2555TIP3   OH229223   0.906   0.548   7.119 -0.3401  0.1901  0.3549
 2555TIP3    H129224   0.856   0.592   7.050  1.0861 -0.4201 -1.1446
 2555TIP3    H229225   0.868   0.580   7.201 -3.4122 -0.5179 -0.6492
 2556TIP3   OH229226   3.067   3.677   7.803  0.1067  0.0877  0.1112
 2556TIP3    H129227   3.049   3.750   7.743 -0.1104 -0.0620 -0.0045
 2556TIP3    H229228   3.055   3.599   7.751  0.0971 -0.0402  0.3033
 2557TIP3   OH229229   5.701   5.500   0.046 -0.1094  0.4225  0.3148
 2557TIP3    H129230   5.724   5.542  -0.036  0.5200 -0.4686  0.0220
 2557TIP3    H229231   5.781   5.457   0.075 -0.5407  0.0377  0.9774
 2558TIP3   OH229232   4.523   4.829   0.671 -0.4735  0.6208  0.6460
 2558TIP3    H129233   4.431   4.850   0.688 -0.0149  1.8118  1.8892
 2558TIP3    H229234   4.554   4.902   0.618  0.0233  0.8339  1.2124
 2559TIP3   OH229235   4.919   3.537   8.222 -0.7938  0.4561 -0.6729
 2559TIP3    H129236   4.989   3.503   8.278 -2.0239 -0.7549  0.1948
 2559TIP3    H229237   4.963   3.563   8.142  0.6560 -0.2241 -0.1288
 2560TIP3   OH229238   2.126   2.522   7.998 -0.2187 -0.2404  0.1358
 2560TIP3    H129239   2.116   2.605   8.044  0.2050 -1.0178  1.7015
 2560TIP3    H229240   2.037   2.498   7.972 -0.3615  0.6013 -0.1895
 2561TIP3   OH229241   4.740   1.707   1.637  0.3290 -0.0291 -0.7716
 2561TIP3    H129242   4.696   1.698   1.552 -0.0516 -1.1007 -0.4691
 2561TIP3    H229243   4.697   1.643   1.694  2.2784 -1.1378 -0.4549
 2562TIP3   OH229244   1.729   5.599   2.736  0.6115  0.1168 -0.3447
 2562TIP3    H129245   1.720   5.694   2.744 -0.0632 -0.0025  0.4955
 2562TIP3    H229246   1.804   5.587   2.677 -0.7360  1.1589 -2.3951
 2563TIP3   OH229247   0.390   3.212   7.429 -0.0685  0.0383  0.2736
 2563TIP3    H129248   0.396   3.136   7.371  0.6933 -0.4000  0.9036
 2563TIP3    H229249   0.325   3.269   7.388  1.4220  0.3846 -1.7396
 2564TIP3   OH229250   5.395   3.081   1.489  0.1877  0.8351 -0.2739
 2564TIP3    H129251   5.321   3.086   1.549  0.7539  0.0779  0.5074
 2564TIP3    H229252   5.361   3.033   1.413  0.5878 -2.0733  1.2569
 2565TIP3   OH229253   6.873   4.190   0.807 -0.2219 -0.8028 -0.0494
 2565TIP3    H129254   6.854   4.105   0.769  1.3509 -0.8666 -0.7262
 2565TIP3    H229255   6.958   4.181   0.849  1.6293  1.2588 -2.9881
 2566TIP3   OH229256   2.473   0.682   6.357  0.2116  0.1524  0.2739
 2566TIP3    H129257   2.508   0.607   6.406  0.3020 -0.4742 -0.7307
 2566TIP3    H229258   2.381   0.687   6.384  0.1245 -0.5146  0.1124
 2567TIP3   OH229259   2.574   6.675   1.181 -0.6551 -0.3096  0.0522
 2567TIP3    H129260   2.567   6.726   1.101 -0.4131 -1.4775 -0.7439
 2567TIP3    H229261   2.486   6.640   1.195 -0.2878 -1.6305 -0.7772
 2568TIP3   OH229262   0.687   5.324   8.432 -0.7316  0.1604 -0.2787
 2568TIP3    H129263   0.677   5.394   8.497  1.3335  0.3094 -0.0490
 2568TIP3    H229264   0.627   5.255   8.461 -0.2889  0.4720  1.4812
 2569TIP3   OH229265   1.729   0.020   7.680  0.2145 -0.3270  0.1069
 2569TIP3    H129266   1.651  -0.033   7.700  0.5113 -0.6775  0.3515
 2569TIP3    H229267   1.698   0.110   7.684 -0.2306 -0.4674 -0.0127
 2570TIP3   OH229268   4.951   3.579   7.943  0.1629 -0.1336  0.1604
 2570TIP3    H129269   4.870   3.540   7.909 -1.9534  1.9070  2.3666
 2570TIP3    H229270   4.960   3.661   7.894  1.7842 -0.9807 -1.0510
 2571TIP3   OH229271   1.165   2.796   0.927 -0.1507 -0.2693  0.5337
 2571TIP3    H129272   1.248   2.763   0.891  0.5063  0.4570  1.3439
 2571TIP3    H229273   1.132   2.723   0.980  1.6289  0.5222  2.8642
 2572TIP3   OH229274   3.245   4.112   2.216 -0.5248 -0.2398 -0.2991
 2572TIP3    H129275   3.261   4.095   2.308 -2.3730  1.0356  0.3273
 2572TIP3    H229276   3.186   4.041   2.189 -1.0150  0.0882 -0.1200
 2573TIP3   OH229277   6.701   2.234   7.836 -0.1106 -0.1802 -0.3988
 2573TIP3    H129278   6.755   2.283   7.774  0.3938 -1.4823 -1.0301
 2573TIP3    H229279   6.615   2.274   7.830  0.0807  0.1012 -1.5057
 2574TIP3   OH229280   1.964   3.745   6.631  0.0822 -0.0899 -0.0161
 2574TIP3    H129281   1.985   3.819   6.573  0.2885 -0.4940 -0.4627
 2574TIP3    H229282   2.008   3.670   6.591  0.0906 -0.4086  0.5792
 2575TIP3   OH229283   0.708   2.927   0.772  0.0258 -0.0417  0.2303
 2575TIP3    H129284   0.786   2.873   0.761 -0.9233 -1.1131 -1.9040
 2575TIP3    H229285   0.731   3.011   0.732 -0.3295 -0.8544 -1.8157
 2576TIP3   OH229286   4.711   0.372   0.048 -0.0954  0.5517  0.6162
 2576TIP3    H129287   4.637   0.394   0.105 -0.8053  1.3596 -0.5740
 2576TIP3    H229288   4.776   0.439   0.065 -0.0150  0.3806  0.9862
 2577TIP3   OH229289   2.986   6.419   8.258 -0.0600  0.1813  0.3202
 2577TIP3    H129290   2.960   6.511   8.253  0.3371  0.2808 -0.0576
 2577TIP3    H229291   3.050   6.416   8.329 -0.1526  0.1774  0.4026
 2578TIP3   OH229292   1.084   6.639   7.913 -0.1446 -0.0386 -0.0247
 2578TIP3    H129293   1.019   6.700   7.880 -1.9241 -1.1755  1.2289
 2578TIP3    H229294   1.138   6.618   7.836  0.0896  2.4959 -0.6338
 2579TIP3   OH229295   6.542   6.271   1.664  0.6387 -0.1600 -0.2379
 2579TIP3    H129296   6.454   6.306   1.655  0.7170  0.0115 -0.3387
 2579TIP3    H229297   6.540   6.220   1.745 -0.5285 -3.0961 -1.9615
 2580TIP3   OH229298   3.436   5.404   8.265 -0.5578 -0.8217 -0.0548
 2580TIP3    H129299   3.432   5.366   8.353  3.0909  0.3911  0.8390
 2580TIP3    H229300   3.347   5.434   8.248 -1.2983 -0.4295  3.5868
 2581TIP3   OH229301   2.170   0.940   7.826 -0.0200  0.2359 -0.4062
 2581TIP3    H129302   2.188   0.989   7.906  1.0055 -2.7626  1.3523
 2581TIP3    H229303   2.186   1.003   7.756  0.3162  2.6345  1.6726
 2582TIP3   OH229304   3.007   0.584   7.884 -0.4951 -0.2177  0.0407
 2582TIP3    H129305   2.996   0.679   7.896 -0.1542 -0.2918  1.0863
 2582TIP3    H229306   2.998   0.548   7.972  1.4171 -0.9493 -0.0091
 2583TIP3   OH229307   2.564   3.485   6.520  0.3650 -0.6579  0.6329
 2583TIP3    H129308   2.513   3.507   6.598  1.2262 -0.6135  1.1951
 2583TIP3    H229309   2.594   3.569   6.486  0.5083 -0.7152  0.6142
 2584TIP3   OH229310   0.698   4.211   7.225 -0.1296  0.3799  0.5971
 2584TIP3    H129311   0.793   4.223   7.215 -0.1532  0.1978  0.1353
 2584TIP3    H229312   0.675   4.267   7.299  0.4405 -0.0668  1.1244
 2585TIP3   OH229313   5.968   4.507   6.449  0.7173  0.0504  0.3399
 2585TIP3    H129314   6.006   4.423   6.425 -0.7290 -0.6562  0.4472
 2585TIP3    H229315   5.874   4.493   6.448  0.4681  0.8547  3.1895
 2586TIP3   OH229316   4.072   2.634   8.375 -0.5217  0.7350  0.0333
 2586TIP3    H129317   4.104   2.664   8.460  0.2746  1.7442 -0.5880
 2586TIP3    H229318   4.084   2.539   8.377 -1.0231  0.6803  1.2360
 2587TIP3   OH229319   2.983   4.627   0.980 -0.2021  0.2451 -0.7451
 2587TIP3    H129320   2.999   4.697   1.043 -0.4981 -0.4732  0.1544
 2587TIP3    H229321   3.030   4.551   1.015 -1.7017 -0.6138 -0.5139
 2588TIP3   OH229322   1.175   3.227   0.299  0.7910 -0.2217 -0.1126
 2588TIP3    H129323   1.221   3.216   0.383  2.1443  0.0890 -0.7911
 2588TIP3    H229324   1.241   3.205   0.233  0.4510  1.7947 -1.1805
 2589TIP3   OH229325   6.101   4.844   0.665  0.2142  1.0138 -0.0018
 2589TIP3    H129326   6.137   4.871   0.580  2.8490  1.3163  1.1189
 2589TIP3    H229327   6.115   4.920   0.722 -0.2090  0.3192  1.0501
 2590TIP3   OH229328   5.361   4.621   1.525  0.5742 -0.1896 -0.1730
 2590TIP3    H129329   5.357   4.643   1.431 -2.6073  1.7562  0.2637
 2590TIP3    H229330   5.413   4.692   1.563  1.0014 -0.4149 -0.3334
 2591TIP3   OH229331   6.614   2.024   1.210 -0.0282  0.2408 -0.1832
 2591TIP3    H129332   6.532   2.008   1.164 -0.7732  1.3897  0.6865
 2591TIP3    H229333   6.641   1.937   1.240 -2.2153  0.0477  1.5669
 2592TIP3   OH229334   4.976   2.165   8.387 -0.2974 -0.1290  0.2387
 2592TIP3    H129335   5.059   2.197   8.423 -0.6002 -0.9119  1.7482
 2592TIP3    H229336   4.921   2.151   8.465 -1.9483  0.6380 -0.7409
 2593TIP3   OH229337   4.829   4.302   8.213  0.5440  0.3987  0.1096
 2593TIP3    H129338   4.891   4.229   8.216  0.6095  0.4835  1.3812
 2593TIP3    H229339   4.876   4.375   8.253  0.1114  0.8595 -0.2068
 2594TIP3   OH229340   0.980   6.590   1.704  0.0202 -0.3989 -0.2089
 2594TIP3    H129341   0.893   6.553   1.687 -0.7213  0.6645  1.0844
 2594TIP3    H229342   1.011   6.619   1.618 -0.7831 -1.0419 -0.7265
 2595TIP3   OH229343   3.696   1.389   1.743 -0.1152  0.7314 -0.3336
 2595TIP3    H129344   3.741   1.307   1.766  0.1205  0.7558 -0.7019
 2595TIP3    H229345   3.614   1.362   1.702 -1.2036  0.6758  1.7488
 2596TIP3   OH229346   2.731   1.569   7.737 -0.6744  0.5588  0.2486
 2596TIP3    H129347   2.807   1.549   7.683 -0.0449  0.2227  1.2254
 2596TIP3    H229348   2.656   1.541   7.685 -0.1497  1.1008 -0.8255
 2597TIP3   OH229349   0.751   5.807   8.026 -0.2247  0.0304  0.2215
 2597TIP3    H129350   0.795   5.842   8.103  1.3950  0.3608 -0.8011
 2597TIP3    H229351   0.740   5.713   8.044 -0.3262  0.1993  1.0488
 2598TIP3   OH229352   6.112   0.135   0.302  0.0201 -0.3930 -0.5618
 2598TIP3    H129353   6.061   0.108   0.379  2.8932 -2.1686  0.8839
 2598TIP3    H229354   6.107   0.230   0.303  0.1561 -0.3270  2.0241
 2599TIP3   OH229355   5.811   5.576   8.131  0.1062  0.5791 -0.4737
 2599TIP3    H129356   5.842   5.491   8.101 -0.9361  0.4535 -1.2622
 2599TIP3    H229357   5.888   5.619   8.166  0.6850 -0.6279 -0.1973
 2600TIP3   OH229358   5.126   0.289   1.544  0.4019 -0.2887 -0.4032
 2600TIP3    H129359   5.137   0.247   1.629 -1.4298 -0.2275 -0.1099
 2600TIP3    H229360   5.176   0.233   1.484  0.5573 -1.1304  0.4747
 2601TIP3   OH229361   1.212   6.078   2.004  0.0394  0.5927 -0.4624
 2601TIP3    H129362   1.261   6.071   2.086  0.0850 -1.5373 -0.6281
 2601TIP3    H229363   1.276   6.107   1.940  1.1302 -1.9149 -0.6204
 2602TIP3   OH229364   4.902   6.520   0.341 -0.0086 -0.0608 -0.7185
 2602TIP3    H129365   4.865   6.532   0.429 -1.6837 -0.1418 -1.3813
 2602TIP3    H229366   4.993   6.549   0.350 -0.0698 -0.2722  1.0913
 2603TIP3   OH229367   3.558   4.010   1.049 -0.5742 -0.0997  0.5158
 2603TIP3    H129368   3.619   3.983   0.981  0.4959 -0.8055  1.7077
 2603TIP3    H229369   3.529   3.928   1.090 -2.5541  0.1932 -0.1754
 2604TIP3   OH229370   4.173   1.947   7.218  0.2174  0.0637  0.4772
 2604TIP3    H129371   4.220   1.938   7.301 -0.7599  2.8787  1.4496
 2604TIP3    H229372   4.177   2.041   7.198 -0.0254 -0.4415 -2.4362
 2605TIP3   OH229373   4.053   0.424   1.190  0.7124  0.2113 -0.4948
 2605TIP3    H129374   4.081   0.516   1.186  0.0693  0.6282  2.5071
 2605TIP3    H229375   4.122   0.381   1.240 -0.1464 -0.4115  0.1754
 2606TIP3   OH229376   1.688   3.551   6.979 -0.3582 -0.1010 -0.2045
 2606TIP3    H129377   1.694   3.554   6.884 -0.0896 -0.2807 -0.1954
 2606TIP3    H229378   1.623   3.618   7.001  1.7366  2.1156 -0.3110
 2607TIP3   OH229379   2.603   5.096   1.335  0.0829  0.1777  0.1524
 2607TIP3    H129380   2.603   5.007   1.371  0.7093  1.3137  3.2410
 2607TIP3    H229381   2.691   5.106   1.298 -0.1228 -0.5781 -0.5764
 2608TIP3   OH229382   3.663   2.474   2.540  0.2017 -1.0213 -0.1794
 2608TIP3    H129383   3.612   2.552   2.562  1.4943  0.1766 -1.2284
 2608TIP3    H229384   3.627   2.443   2.457  0.2787 -0.9826 -0.2279
 2609TIP3   OH229385   6.039   0.562   0.615  0.3205  0.0841  0.3675
 2609TIP3    H129386   6.110   0.552   0.678 -0.2229 -0.6582  0.8807
 2609TIP3    H229387   5.959   0.547   0.667 -0.1033 -1.5465 -0.6894
 2610TIP3   OH229388   6.406   2.795   0.646 -0.1714 -0.2576 -0.0484
 2610TIP3    H129389   6.383   2.882   0.680 -1.2784 -0.7061  0.3948
 2610TIP3    H229390   6.322   2.751   0.636  0.4205 -1.4689  0.2276
 2611TIP3   OH229391   6.769   6.702   1.013 -0.4919 -0.1622  0.6318
 2611TIP3    H129392   6.847   6.650   1.030  1.5877  2.1807 -1.0226
 2611TIP3    H229393   6.718   6.649   0.952  1.1808 -0.6291 -0.4291
 2612TIP3   OH229394   0.744   5.187   0.986 -0.1527 -0.5333  0.4524
 2612TIP3    H129395   0.778   5.195   0.897 -0.2856  1.8521  0.5451
 2612TIP3    H229396   0.819   5.162   1.039  0.4935  0.4061  0.0068
 2613TIP3   OH229397   2.252   3.850   1.291 -0.1853  0.2865  0.0582
 2613TIP3    H129398   2.323   3.899   1.333 -1.6948  2.6330  0.0621
 2613TIP3    H229399   2.172   3.895   1.319 -1.5067 -0.3883 -2.3404
 2614TIP3   OH229400   4.843   5.257   6.676  0.1688  0.7560  0.0440
 2614TIP3    H129401   4.751   5.243   6.655 -0.4981  1.4490  2.2330
 2614TIP3    H229402   4.886   5.175   6.654 -1.4013 -0.4069  1.1564
 2615TIP3   OH229403   6.563   0.374   6.967 -0.3646  0.0293 -0.2029
 2615TIP3    H129404   6.596   0.323   7.040  0.3775  0.5800 -0.1365
 2615TIP3    H229405   6.536   0.310   6.901 -0.0611 -0.4456  0.1386
 2616TIP3   OH229406   2.724   4.837   1.131  0.3236 -0.1279  0.1949
 2616TIP3    H129407   2.717   4.824   1.225 -1.3597  2.4305  0.5079
 2616TIP3    H229408   2.775   4.917   1.121  2.1925 -1.3746 -1.2182
 2617TIP3   OH229409   2.503   3.501   1.654  0.3948 -0.5467 -0.2483
 2617TIP3    H129410   2.488   3.407   1.666 -0.2583 -0.4616 -0.3992
 2617TIP3    H229411   2.560   3.525   1.727 -0.2829 -0.8505  0.3875
 2618TIP3   OH229412   4.001   5.126   7.815 -0.2415 -0.3510  0.0341
 2618TIP3    H129413   4.022   5.101   7.905  1.3155  1.2326  0.1672
 2618TIP3    H229414   4.069   5.084   7.761 -0.9363 -0.9719 -0.3827
 2619TIP3   OH229415   4.956   6.173   1.863  0.4102 -0.4745 -0.1384
 2619TIP3    H129416   4.934   6.156   1.955 -1.1588 -0.7317 -0.5263
 2619TIP3    H229417   5.051   6.164   1.859  0.6845  0.9806  1.7412
 2620TIP3   OH229418   5.396   2.086   8.485  0.1762  0.3904  0.6350
 2620TIP3    H129419   5.491   2.081   8.476  0.1829  2.4426 -1.4201
 2620TIP3    H229420   5.362   2.039   8.408 -0.5172 -0.4391  1.4179
 2621TIP3   OH229421   0.420   2.597   7.917  0.8287  0.5050  0.2135
 2621TIP3    H129422   0.412   2.609   8.012  1.2678  0.7267  0.2244
 2621TIP3    H229423   0.393   2.681   7.880  2.5850  1.1090  0.2326
 2622TIP3   OH229424   3.151   1.806   1.379  0.1570 -0.7958  0.2156
 2622TIP3    H129425   3.196   1.817   1.295  1.0725  0.1179  0.7987
 2622TIP3    H229426   3.169   1.888   1.426 -2.5970 -0.1502  0.2804
 2623TIP3   OH229427   0.726   6.355   7.253  0.0624 -0.1321  0.1934
 2623TIP3    H129428   0.805   6.357   7.199  0.8400 -1.0727  1.2520
 2623TIP3    H229429   0.736   6.429   7.313 -0.2263  0.1925 -0.1535
 2624TIP3   OH229430   3.417   6.123   0.172 -0.0699  1.0299 -0.1561
 2624TIP3    H129431   3.329   6.088   0.187  0.2626  0.4000  0.3926
 2624TIP3    H229432   3.472   6.046   0.161  0.8593  1.2861  2.0526
 2625TIP3   OH229433   5.006   1.677   6.610  0.2117  0.7401  0.0039
 2625TIP3    H129434   4.928   1.728   6.633  0.7080  1.9174 -0.8319
 2625TIP3    H229435   5.013   1.687   6.515  0.1688 -1.1486 -0.2299
 2626TIP3   OH229436   6.694   3.616   7.663  0.1438  0.1629  0.2973
 2626TIP3    H129437   6.658   3.660   7.739 -0.1683  2.8553 -1.2816
 2626TIP3    H229438   6.788   3.632   7.668 -0.0591  1.9371 -0.7358
 2627TIP3   OH229439   5.953   2.585   1.544  0.1511 -0.5730 -0.0281
 2627TIP3    H129440   5.925   2.674   1.561 -0.3534 -0.7791  0.2327
 2627TIP3    H229441   5.952   2.542   1.630 -0.7442 -1.1440 -0.3034
 2628TIP3   OH229442   4.790   6.039   7.959  0.4047 -0.9452  0.7767
 2628TIP3    H129443   4.859   6.036   7.892 -0.7793 -0.2739 -0.5390
 2628TIP3    H229444   4.711   6.013   7.911  0.0071 -3.6545  2.6720
 2629TIP3   OH229445   0.021   3.321   7.502  0.2278 -0.1047 -0.2233
 2629TIP3    H129446   0.086   3.366   7.449 -0.0613 -2.0444 -2.3819
 2629TIP3    H229447  -0.063   3.345   7.463 -0.2339  0.5681  1.1120
 2630TIP3   OH229448   6.345   6.866   2.816 -0.2021  0.4641  0.2541
 2630TIP3    H129449   6.296   6.933   2.768 -0.4742  0.0096 -0.1136
 2630TIP3    H229450   6.418   6.844   2.758  0.3460  1.0063  0.7204
 2631TIP3   OH229451   5.747   5.848   7.758  0.2969  0.0154 -0.5473
 2631TIP3    H129452   5.842   5.860   7.769  0.2064 -0.2328  0.5799
 2631TIP3    H229453   5.736   5.833   7.664  1.2969  0.7478 -0.8049
 2632TIP3   OH229454   0.266   6.800   2.228 -0.4013  0.1069  0.0504
 2632TIP3    H129455   0.346   6.756   2.199 -0.4105 -1.6231  2.3217
 2632TIP3    H229456   0.276   6.890   2.198  1.8422 -0.3524 -0.7854
 2633TIP3   OH229457   1.559   4.402   8.048  0.7270 -0.3319 -0.0457
 2633TIP3    H129458   1.641   4.447   8.025  0.2766  1.4777  1.6222
 2633TIP3    H229459   1.586   4.336   8.112  0.8495  0.9458  1.3063
 2634TIP3   OH229460   1.658   5.678   2.357 -0.0533  0.0411 -0.2291
 2634TIP3    H129461   1.685   5.746   2.419  0.9018 -0.0512 -0.5391
 2634TIP3    H229462   1.720   5.607   2.370 -2.0003 -1.5153  1.2823
 2635TIP3   OH229463   3.954   4.549   1.414  0.6311 -0.2335  0.0827
 2635TIP3    H129464   4.043   4.539   1.448  0.0953 -3.3902  0.8323
 2635TIP3    H229465   3.908   4.599   1.481  1.7039  1.1048 -0.1391
 2636TIP3   OH229466   3.270   6.326   0.952 -0.0495  0.2857 -0.0771
 2636TIP3    H129467   3.249   6.272   0.876 -0.3091  0.2834 -0.0039
 2636TIP3    H229468   3.275   6.415   0.918 -1.8571  0.5226  0.1994
 2637TIP3   OH229469   4.847   2.305   1.385 -0.3778  0.3078  0.8801
 2637TIP3    H129470   4.938   2.333   1.380 -0.1643 -0.3531  1.0590
 2637TIP3    H229471   4.800   2.383   1.415 -0.3135  1.5762 -1.9939
 2638TIP3   OH229472   3.949   6.787   0.423 -0.1968  0.6828 -0.0531
 2638TIP3    H129473   3.899   6.751   0.497  0.6777 -0.9401 -0.1954
 2638TIP3    H229474   3.883   6.825   0.366 -1.3970 -1.8004 -0.4598
 2639TIP3   OH229475   4.856   4.767   1.080  0.2616 -0.7209  0.1556
 2639TIP3    H129476   4.810   4.725   1.153  0.8786  0.4736  1.2919
 2639TIP3    H229477   4.791   4.824   1.040  0.0507 -1.0138  0.0764
 2640TIP3   OH229478   5.674   4.357   0.884  0.2691 -0.2800 -0.1998
 2640TIP3    H129479   5.697   4.343   0.976  0.6711 -1.1836 -0.4298
 2640TIP3    H229480   5.749   4.405   0.847 -0.8413  2.0951  0.4401
 2641TIP3   OH229481   2.764   0.673   0.812 -0.2210 -0.2134  0.3096
 2641TIP3    H129482   2.827   0.685   0.741  0.0122  0.8731  0.6871
 2641TIP3    H229483   2.685   0.640   0.769  0.2973 -0.6908 -0.2908
 2642TIP3   OH229484   4.909   3.943   6.840  0.1919  0.1441  0.1831
 2642TIP3    H129485   4.975   4.013   6.846  1.3094 -0.9583  1.6641
 2642TIP3    H229486   4.890   3.920   6.931  2.2139 -3.5125 -0.0794
 2643TIP3   OH229487   2.837   4.835   0.173 -0.5765 -0.1595 -0.1036
 2643TIP3    H129488   2.862   4.925   0.150 -0.1413 -0.5264 -1.1093
 2643TIP3    H229489   2.872   4.782   0.102 -0.8372 -1.1311  0.4856
 2644TIP3   OH229490   3.383   0.628   6.991 -0.2126  0.2532 -0.4868
 2644TIP3    H129491   3.414   0.583   6.912  0.6326 -0.3839  0.1888
 2644TIP3    H229492   3.405   0.568   7.062 -1.1666  0.7188  0.2196
 2645TIP3   OH229493   1.861   0.310   1.824 -0.1673  0.1143  0.1909
 2645TIP3    H129494   1.899   0.289   1.738 -0.1880  1.0706 -0.0604
 2645TIP3    H229495   1.800   0.381   1.806 -0.7654 -0.2218  0.8798
 2646TIP3   OH229496   3.758   5.672   0.146  0.3182 -0.3055 -0.2280
 2646TIP3    H129497   3.730   5.590   0.105  1.4545  0.0018 -1.7088
 2646TIP3    H229498   3.817   5.711   0.082  0.3215  1.3532  0.7441
 2647TIP3   OH229499   0.076   2.297   0.682  0.9809  0.0483 -0.1889
 2647TIP3    H129500   0.111   2.302   0.771  2.1271  0.7337 -0.6526
 2647TIP3    H229501   0.005   2.361   0.681 -0.5826 -1.5755  0.8501
 2648TIP3   OH229502   3.116   0.064   7.271  0.0586 -0.0855 -0.3673
 2648TIP3    H129503   3.053   0.102   7.333  1.2372  1.0111  0.2174
 2648TIP3    H229504   3.077  -0.019   7.245 -3.2556  1.9207 -2.6063
 2649TIP3   OH229505   1.312   0.159   0.356  0.2820  0.6675 -0.7383
 2649TIP3    H129506   1.349   0.093   0.414 -1.4838  1.2202  1.1256
 2649TIP3    H229507   1.275   0.109   0.283  1.1492 -0.1774 -0.6112
 2650TIP3   OH229508   0.945   2.434   1.364  0.2904  0.2225  0.6226
 2650TIP3    H129509   0.862   2.480   1.357  0.2008  0.0067  0.2589
 2650TIP3    H229510   1.008   2.490   1.318 -0.3327 -1.2854 -2.2871
 2651TIP3   OH229511   4.294   4.427   0.142  0.0590  0.3423  0.6648
 2651TIP3    H129512   4.288   4.388   0.229  0.6435  1.6567  1.3248
 2651TIP3    H229513   4.245   4.367   0.085  0.2483 -0.8938  1.7620
 2652TIP3   OH229514   1.490   0.360   1.912 -0.0846 -0.2155 -0.3313
 2652TIP3    H129515   1.419   0.333   1.970 -0.7708  1.2904 -0.4116
 2652TIP3    H229516   1.566   0.368   1.969 -0.8500  1.6708  0.5317
 2653TIP3   OH229517   1.758   1.236   7.311 -0.5164  0.3318 -0.2014
 2653TIP3    H129518   1.776   1.232   7.217  0.0230  0.5387 -0.1081
 2653TIP3    H229519   1.682   1.178   7.323  0.8299 -1.5648 -0.4179
 2654TIP3   OH229520   6.449   5.089   0.574 -0.3692 -0.0621  0.8404
 2654TIP3    H129521   6.419   5.178   0.594 -1.6241 -0.5009  1.0270
 2654TIP3    H229522   6.501   5.099   0.494  1.4845  1.1591  2.1228
 2655TIP3   OH229523   1.993   1.317   2.081  0.2693  0.3025 -0.6925
 2655TIP3    H129524   1.926   1.270   2.031  0.8372  1.7659 -2.9435
 2655TIP3    H229525   1.943   1.374   2.140 -0.4188 -0.9605 -0.0140
 2656TIP3   OH229526   2.736   3.135   7.130 -0.1318  0.6531 -0.5394
 2656TIP3    H129527   2.819   3.112   7.089  0.0174  0.2792 -0.0348
 2656TIP3    H229528   2.756   3.213   7.182  0.9755 -1.7120  2.9168
 2657TIP3   OH229529   6.490   3.392   7.110  0.2510 -0.0645 -0.3663
 2657TIP3    H129530   6.530   3.313   7.147 -0.3890 -0.6002 -0.7920
 2657TIP3    H229531   6.555   3.424   7.047  1.7942  1.4213  1.8415
 2658TIP3   OH229532   2.370   4.276   7.159  0.4924  0.3458  0.0825
 2658TIP3    H129533   2.437   4.215   7.191 -0.7982 -0.2622  1.7533
 2658TIP3    H229534   2.340   4.237   7.076 -2.1093 -2.8738  2.2662
 2659TIP3   OH229535   0.512   4.986   8.216  0.0367 -0.5717 -0.1369
 2659TIP3    H129536   0.473   4.959   8.298  0.8086 -3.1395 -0.5219
 2659TIP3    H229537   0.551   5.072   8.235  0.5658 -1.2733  2.3075
 2660TIP3   OH229538   1.293   6.746   2.627  0.0842 -0.0986 -0.3196
 2660TIP3    H129539   1.239   6.731   2.704 -1.2049 -1.3292 -1.4050
 2660TIP3    H229540   1.233   6.737   2.553  1.5524 -0.4635 -1.5376
 2661TIP3   OH229541   2.863   3.860   8.492 -0.1155 -0.3245 -0.0387
 2661TIP3    H129542   2.810   3.799   8.543 -1.1115  0.5262 -0.0196
 2661TIP3    H229543   2.893   3.809   8.417 -0.1740 -1.0745  0.4409
 2662TIP3   OH229544   5.894   1.154   0.157  0.0298 -0.1486 -0.1756
 2662TIP3    H129545   5.975   1.200   0.139  0.6293 -1.1402 -0.0960
 2662TIP3    H229546   5.919   1.087   0.221 -0.7499 -0.7861 -0.5309
 2663TIP3   OH229547   5.013   2.386   0.862  0.2137  0.3915 -0.5858
 2663TIP3    H129548   4.941   2.330   0.832 -0.0350  1.5557 -2.3056
 2663TIP3    H229549   5.087   2.326   0.870 -1.1183 -1.0414  2.2578
 2664TIP3   OH229550   0.897   2.909   1.122  0.1322 -0.1251 -0.2077
 2664TIP3    H129551   0.808   2.878   1.107 -0.4458  1.1750  0.3934
 2664TIP3    H229552   0.892   2.961   1.203  1.3129  0.4218 -0.4528
 2665TIP3   OH229553   1.198   0.497   7.814 -0.1123 -1.0433  0.1065
 2665TIP3    H129554   1.137   0.535   7.751  1.1466 -2.1843 -1.8902
 2665TIP3    H229555   1.222   0.570   7.871 -0.7198  0.2186 -1.1987
 2666TIP3   OH229556   4.663   6.877   7.375 -0.1954  0.1295  0.0314
 2666TIP3    H129557   4.637   6.928   7.298  0.2106  1.8009  0.9657
 2666TIP3    H229558   4.585   6.827   7.398 -1.0145  1.2612 -0.1895
 2667TIP3   OH229559   3.538   4.644   7.776  0.1898 -0.2438 -0.1993
 2667TIP3    H129560   3.583   4.623   7.858 -1.1658  0.3208  0.7137
 2667TIP3    H229561   3.565   4.734   7.756  1.2937 -0.7122 -0.9286
 2668TIP3   OH229562   2.253   1.993   7.994  0.2344 -0.2547  0.3323
 2668TIP3    H129563   2.344   1.979   7.971  0.4987  0.2598  1.0309
 2668TIP3    H229564   2.248   2.085   8.020 -0.6289 -0.0918 -0.3427
 2669TIP3   OH229565   0.669   6.709   7.836 -0.0662 -0.2768 -0.1129
 2669TIP3    H129566   0.735   6.642   7.818  0.5103  0.7070 -1.9068
 2669TIP3    H229567   0.718   6.786   7.863 -0.5228  0.1622 -0.4939
 2670TIP3   OH229568   5.571   3.108   1.732 -0.1127  0.1671 -0.4733
 2670TIP3    H129569   5.538   3.031   1.779  1.3463 -0.9640 -1.2391
 2670TIP3    H229570   5.513   3.116   1.656  0.6200 -1.1023 -1.1963
 2671TIP3   OH229571   2.467   2.475   1.642 -0.0757  0.0622 -0.4969
 2671TIP3    H129572   2.552   2.469   1.598 -0.0196  1.9597 -0.7202
 2671TIP3    H229573   2.405   2.443   1.576  0.3589 -0.4640 -0.6645
 2672TIP3   OH229574   2.080   2.776   0.789 -0.3571  0.2518  0.1691
 2672TIP3    H129575   2.073   2.787   0.694  1.0195 -1.1407 -0.1317
 2672TIP3    H229576   2.160   2.824   0.812  0.0076 -0.4591  0.4081
 2673TIP3   OH229577   4.167   3.173   7.011  0.3832 -0.0318  0.5656
 2673TIP3    H129578   4.113   3.134   6.943 -1.2793  1.7237  0.7860
 2673TIP3    H229579   4.137   3.131   7.092  0.5072 -0.2190  0.5157
 2674TIP3   OH229580   5.260   1.951   8.306  0.5641  0.2119 -0.4630
 2674TIP3    H129581   5.253   1.907   8.221  1.8768 -0.0388 -0.4579
 2674TIP3    H229582   5.205   1.899   8.365  2.1269 -1.5016 -0.4373
 2675TIP3   OH229583   1.762   4.842   8.046  0.2079 -0.3981 -0.4242
 2675TIP3    H129584   1.835   4.797   8.089  0.9908 -0.5995 -1.9171
 2675TIP3    H229585   1.771   4.819   7.953 -2.9468 -2.1515 -0.4470
 2676TIP3   OH229586   3.813   5.711   7.904  0.3759 -0.7902 -0.2170
 2676TIP3    H129587   3.839   5.790   7.951  1.7114 -1.5783  0.4232
 2676TIP3    H229588   3.804   5.644   7.972 -2.8706 -0.7295 -0.4703
 2677TIP3   OH229589   2.059   0.708   7.487  0.1477 -0.7679 -0.0511
 2677TIP3    H129590   2.154   0.719   7.494  0.2191  0.0749 -1.8205
 2677TIP3    H229591   2.047   0.619   7.453  0.4390 -0.2739 -1.5439
 2678TIP3   OH229592   0.516   5.496   3.117  0.0310  0.2766 -0.2621
 2678TIP3    H129593   0.520   5.412   3.162 -2.3435 -0.1823 -0.8165
 2678TIP3    H229594   0.594   5.496   3.061 -0.5526 -2.1519 -1.2093
 2679TIP3   OH229595   0.190   1.459   7.386  0.0258  0.3833 -0.0393
 2679TIP3    H129596   0.136   1.427   7.314 -0.3968  0.3958  0.2647
 2679TIP3    H229597   0.143   1.536   7.419  2.2407  2.9457 -2.3526
 2680TIP3   OH229598   2.776   3.093   8.386  0.0787 -0.0851 -0.4690
 2680TIP3    H129599   2.810   3.171   8.430  0.3279 -0.0917 -0.6481
 2680TIP3    H229600   2.688   3.118   8.358  0.5441  0.4842 -1.4437
 2681TIP3   OH229601   3.641   6.698   0.357 -0.3995 -0.3990  0.1462
 2681TIP3    H129602   3.571   6.758   0.384 -0.6972 -0.4116 -0.5735
 2681TIP3    H229603   3.668   6.655   0.438 -0.1978  0.6826  0.6684
 2682TIP3   OH229604   0.396   2.929   0.578 -0.2538  0.4606 -0.5218
 2682TIP3    H129605   0.469   2.871   0.555 -0.1538  0.5089 -0.3229
 2682TIP3    H229606   0.318   2.883   0.545 -0.4752 -1.0211  1.7857
 2683TIP3   OH229607   0.957   1.487   0.886 -0.2259  0.0299  0.3883
 2683TIP3    H129608   0.965   1.476   0.791 -0.3320  0.4377  0.3282
 2683TIP3    H229609   0.940   1.399   0.919 -0.2369 -0.1089  0.0238
 2684TIP3   OH229610   3.205   5.289   6.494  0.0718  0.6178 -0.1356
 2684TIP3    H129611   3.166   5.264   6.578 -0.4150  0.4082 -0.4193
 2684TIP3    H229612   3.195   5.211   6.439 -0.6573  1.1322 -0.7518
 2685TIP3   OH229613   5.744   5.924   2.051  0.5327 -0.4061  0.4794
 2685TIP3    H129614   5.830   5.883   2.042  0.8639 -0.1441  2.0669
 2685TIP3    H229615   5.714   5.899   2.139 -1.3455 -1.0750 -0.2999
 2686TIP3   OH229616   3.902   3.933   7.379 -0.1106  0.0714  0.1079
 2686TIP3    H129617   3.816   3.924   7.421  0.0341  0.7339  0.5695
 2686TIP3    H229618   3.932   3.843   7.366 -0.9620 -0.1736 -0.2557
 2687TIP3   OH229619   5.188   3.323   6.580 -0.4850 -0.0599  0.0828
 2687TIP3    H129620   5.273   3.319   6.623 -0.9461  0.3471  1.0633
 2687TIP3    H229621   5.154   3.234   6.585 -0.5685 -0.0038  0.6661
 2688TIP3   OH229622   3.113   0.965   1.292  0.3571 -0.3390  0.0704
 2688TIP3    H129623   3.138   0.980   1.384  1.0464  0.7792 -0.2701
 2688TIP3    H229624   3.196   0.959   1.245  0.0102 -0.6434 -0.5165
 2689TIP3   OH229625   6.218   5.909   7.966 -0.7230  0.7087  0.3209
 2689TIP3    H129626   6.218   5.971   7.893  1.9859 -0.0542 -0.4737
 2689TIP3    H229627   6.237   5.962   8.043 -1.2338  1.2254  0.0896
 2690TIP3   OH229628   6.900   6.565   8.073 -0.2753  0.1650 -0.4943
 2690TIP3    H129629   6.986   6.608   8.071  0.1742 -0.6996  0.0479
 2690TIP3    H229630   6.853   6.610   8.143  0.8223 -1.3629  1.3078
 2691TIP3   OH229631   5.143   4.695   0.034  0.2743  0.0485  0.1345
 2691TIP3    H129632   5.152   4.660   0.123 -1.3071 -0.9917 -0.0693
 2691TIP3    H229633   5.122   4.787   0.046  1.5005  0.2613  0.7843
 2692TIP3   OH229634   4.964   2.717   0.228  0.0337 -0.2615  0.4666
 2692TIP3    H129635   4.940   2.685   0.141  0.7771 -0.9219  0.4943
 2692TIP3    H229636   4.889   2.695   0.283  0.2412 -1.3514  0.3340
 2693TIP3   OH229637   0.268   6.227   2.550 -0.5462  0.1976  0.1028
 2693TIP3    H129638   0.298   6.197   2.636  0.9566 -0.9751 -0.7706
 2693TIP3    H229639   0.180   6.261   2.565 -0.3898 -0.1685  2.0647
 2694TIP3   OH229640   4.326   5.149   0.846 -0.0282 -0.1699 -0.1069
 2694TIP3    H129641   4.241   5.194   0.847 -0.9966 -1.8075 -1.7479
 2694TIP3    H229642   4.381   5.203   0.790 -0.6084 -0.0631 -0.5854
 2695TIP3   OH229643   1.241   6.541   1.837 -0.0466 -0.3282  0.1265
 2695TIP3    H129644   1.236   6.616   1.777 -0.2492  0.2960  0.9027
 2695TIP3    H229645   1.210   6.467   1.785  0.6413  0.0158 -0.8225
 2696TIP3   OH229646   2.358   5.074   8.091  0.1203  0.0394  0.4708
 2696TIP3    H129647   2.437   5.112   8.052  0.3904 -0.4121  0.5721
 2696TIP3    H229648   2.307   5.149   8.119 -0.0310  0.3781 -0.6536
 2697TIP3   OH229649   1.393   1.281   2.528  0.0038 -0.2051  0.3329
 2697TIP3    H129650   1.374   1.288   2.434  1.1419 -2.1451 -0.0801
 2697TIP3    H229651   1.458   1.349   2.544 -1.2521  1.1184  0.0729
 2698TIP3   OH229652   1.544   1.638   2.285 -0.2943 -0.1653  0.2411
 2698TIP3    H129653   1.591   1.600   2.358 -0.3245  0.5394  0.6425
 2698TIP3    H229654   1.458   1.596   2.287  0.4298 -1.7746 -0.7605
 2699TIP3   OH229655   0.421   2.365   8.292  0.1265 -0.8316 -0.3592
 2699TIP3    H129656   0.504   2.374   8.245  0.4628 -1.2900  0.1421
 2699TIP3    H229657   0.446   2.345   8.382 -0.5203 -0.1018 -0.0031
 2700TIP3   OH229658   4.784   4.081   7.235  0.0578 -0.4704  0.2723
 2700TIP3    H129659   4.848   4.014   7.209 -0.4350 -0.3925 -1.2173
 2700TIP3    H229660   4.700   4.035   7.233 -0.1908 -0.0069 -0.0238
 2701TIP3   OH229661   4.346   2.693   8.336  0.1881  0.3271  0.1232
 2701TIP3    H129662   4.317   2.659   8.251  0.3405 -2.3962  1.0781
 2701TIP3    H229663   4.288   2.652   8.399  0.4864  1.8229  1.4184
 2702TIP3   OH229664   4.021   1.670   0.362 -0.4231  0.3222  0.1567
 2702TIP3    H129665   3.991   1.729   0.431  0.3966 -1.0934  1.8118
 2702TIP3    H229666   4.110   1.700   0.343  0.5611 -1.1268  2.0434
 2703TIP3   OH229667   5.147   4.040   2.093  0.7014 -0.1037  0.6253
 2703TIP3    H129668   5.059   4.020   2.125  0.7117 -0.5024  0.4148
 2703TIP3    H229669   5.205   3.988   2.149  0.6787 -1.3557 -0.4550
 2704TIP3   OH229670   0.181   3.193   2.371  0.6448  0.6212  0.4614
 2704TIP3    H129671   0.150   3.151   2.451  0.0328 -0.3810 -0.2902
 2704TIP3    H229672   0.245   3.132   2.335 -0.1511  0.3879 -0.5730
 2705TIP3   OH229673   3.603   3.715   7.401  0.3591  0.2044  0.2153
 2705TIP3    H129674   3.612   3.680   7.312 -0.0566 -0.3162  0.3749
 2705TIP3    H229675   3.584   3.808   7.388 -0.5094 -0.0310 -0.2660
 2706TIP3   OH229676   3.542   4.956   1.550  0.1183  0.5721  0.0633
 2706TIP3    H129677   3.492   5.036   1.567  1.6527  1.5295  0.2125
 2706TIP3    H229678   3.633   4.985   1.544  0.5517 -0.9382 -1.4333
 2707TIP3   OH229679   5.567   5.661   0.914 -0.2894 -0.7204 -0.1490
 2707TIP3    H129680   5.582   5.574   0.950 -0.9852 -2.0934 -2.9460
 2707TIP3    H229681   5.652   5.686   0.876  0.4716  0.7665  2.2704
 2708TIP3   OH229682   4.581   4.290   1.765 -0.3884 -0.0283  0.9058
 2708TIP3    H129683   4.620   4.305   1.679  0.8165 -1.7158  1.1179
 2708TIP3    H229684   4.641   4.332   1.826  0.5085 -1.5883  1.1396
 2709TIP3   OH229685   0.299   4.037   6.398  0.0839 -0.2766  0.8821
 2709TIP3    H129686   0.390   4.055   6.420  0.9971 -1.9056 -1.1969
 2709TIP3    H229687   0.287   3.944   6.416 -1.0428 -0.1797  0.7268
 2710TIP3   OH229688   0.521   3.850   7.153 -0.2149  0.2569  0.0401
 2710TIP3    H129689   0.593   3.787   7.150  0.5826  1.1336  0.2156
 2710TIP3    H229690   0.503   3.870   7.061  0.4365  0.7635  0.0149
 2711TIP3   OH229691   5.522   0.943   7.052 -0.1787 -0.1721  0.5757
 2711TIP3    H129692   5.509   1.035   7.027  0.5730 -0.3445 -0.5129
 2711TIP3    H229693   5.437   0.902   7.035  0.1441 -0.1632 -1.2947
 2712TIP3   OH229694   4.993   1.010   1.243  0.0497 -0.2832 -0.1517
 2712TIP3    H129695   4.916   0.975   1.199 -0.4613 -1.4331  1.5265
 2712TIP3    H229696   5.067   0.963   1.205 -0.3919 -1.3536  0.2877
 2713TIP3   OH229697   5.951   2.560   0.359  0.3255  0.4378  0.3103
 2713TIP3    H129698   6.024   2.612   0.392 -0.0649  0.9893  0.3191
 2713TIP3    H229699   5.923   2.507   0.433  1.3350 -0.5059  0.0459
 2714TIP3   OH229700   2.322   0.308   0.981  0.0486 -0.3187  0.0673
 2714TIP3    H129701   2.330   0.370   1.053  1.6977  0.3438 -0.6328
 2714TIP3    H229702   2.387   0.337   0.916 -0.5875 -1.5528 -1.1944
 2715TIP3   OH229703   2.612   1.996   0.533  0.3150 -0.5518 -0.1575
 2715TIP3    H129704   2.526   2.019   0.496  0.5941 -1.2320 -1.2961
 2715TIP3    H229705   2.625   2.057   0.605 -0.1606  0.9986 -1.3424
 2716TIP3   OH229706   2.581   5.464   8.092  0.3256 -0.2084  0.5300
 2716TIP3    H129707   2.614   5.410   8.021  0.0113  0.6276 -0.2737
 2716TIP3    H229708   2.659   5.493   8.140  0.6361  0.2090 -0.2113
 2717TIP3   OH229709   3.527   0.511   7.191 -0.3270  0.1594 -0.0064
 2717TIP3    H129710   3.443   0.501   7.235 -1.7818  0.2390 -2.5235
 2717TIP3    H229711   3.571   0.581   7.238 -0.3870 -1.7439  3.1004
 2718TIP3   OH229712   5.029   4.893   7.644  0.0110 -0.0525 -0.4780
 2718TIP3    H129713   5.123   4.878   7.640  0.6505  3.3765 -0.7905
 2718TIP3    H229714   5.019   4.988   7.647 -3.4837 -0.2244 -1.4987
 2719TIP3   OH229715   6.141   0.885   1.049  0.0572  0.1829 -0.5053
 2719TIP3    H129716   6.119   0.919   0.963 -1.2534  0.7505  0.0225
 2719TIP3    H229717   6.058   0.884   1.096  1.1337  2.5949  1.6934
 2720TIP3   OH229718   6.639   5.392   8.156 -0.1060 -0.2277 -0.1799
 2720TIP3    H129719   6.733   5.402   8.144  0.0222 -0.2704  0.7169
 2720TIP3    H229720   6.607   5.360   8.071  0.6499 -0.0319 -0.5499
 2721TIP3   OH229721   1.297   1.512   2.299  0.0602 -0.1516 -0.5768
 2721TIP3    H129722   1.219   1.559   2.330  0.0768  0.9004 -2.0378
 2721TIP3    H229723   1.263   1.430   2.263 -0.2019 -0.3380  0.0764
 2722TIP3   OH229724   4.924   3.282   1.523  0.1469 -0.5524 -0.0578
 2722TIP3    H129725   4.901   3.207   1.468  0.9506 -0.1951 -0.9166
 2722TIP3    H229726   4.928   3.247   1.612 -2.0361 -0.9657 -0.0740
 2723TIP3   OH229727   0.460   6.569   8.399  0.1108  0.6510  0.0948
 2723TIP3    H129728   0.491   6.585   8.310 -0.0683  1.2456  0.1349
 2723TIP3    H229729   0.385   6.628   8.409  0.2567  0.7334  0.7070
 2724TIP3   OH229730   1.502   6.399   0.334 -0.5362  0.5927  0.5039
 2724TIP3    H129731   1.514   6.310   0.367 -1.2243  0.8111  1.4077
 2724TIP3    H229732   1.417   6.397   0.290  0.3891  0.2996 -1.3436
 2725TIP3   OH229733   6.202   1.392   0.548 -0.1905  0.2302  0.4364
 2725TIP3    H129734   6.283   1.377   0.598  2.0796  0.4023 -2.9114
 2725TIP3    H229735   6.157   1.307   0.551  2.2006 -1.2092 -0.9411
 2726TIP3   OH229736   0.218   1.176   7.549 -0.3113 -0.4236  0.3333
 2726TIP3    H129737   0.174   1.202   7.469 -0.4952 -2.0372 -0.1173
 2726TIP3    H229738   0.311   1.185   7.530 -0.3661 -0.2819  0.1345
 2727TIP3   OH229739   2.629   5.238   0.202  0.7491 -0.1139  0.0148
 2727TIP3    H129740   2.673   5.221   0.285  0.4358 -1.2714 -0.0414
 2727TIP3    H229741   2.543   5.197   0.211  1.4846 -2.2280 -1.6570
 2728TIP3   OH229742   1.170   2.668   0.435  0.6185 -0.1598  0.3260
 2728TIP3    H129743   1.261   2.668   0.465  1.0689  3.5112 -0.5809
 2728TIP3    H229744   1.175   2.645   0.342  0.3668 -1.6414  0.6555
 2729TIP3   OH229745   1.927   3.950   6.916  0.0102 -0.2332 -0.3052
 2729TIP3    H129746   1.968   3.966   6.830 -2.1541  1.9083 -1.0393
 2729TIP3    H229747   1.958   4.022   6.970  0.0438 -0.6495  0.2312
 2730TIP3   OH229748   0.747   6.415   0.578 -0.7836 -0.3493 -0.0626
 2730TIP3    H129749   0.665   6.380   0.614 -2.8522  0.9351 -3.0351
 2730TIP3    H229750   0.746   6.508   0.601 -0.2668 -0.2935 -0.2533
 2731TIP3   OH229751   5.454   5.033   1.014  0.2593  0.0607  0.0255
 2731TIP3    H129752   5.382   5.066   0.960 -0.3184 -2.3673 -0.8030
 2731TIP3    H229753   5.416   5.022   1.101 -1.2598 -3.4169 -0.8829
 2732TIP3   OH229754   0.265   3.967   7.339 -0.2623 -1.1926 -0.1589
 2732TIP3    H129755   0.328   3.965   7.411  0.6832  0.3089 -0.8727
 2732TIP3    H229756   0.319   3.983   7.261 -1.4992 -0.1572 -0.8398
 2733TIP3   OH229757   4.590   2.530   8.307  0.1331  0.0055  0.0930
 2733TIP3    H129758   4.638   2.558   8.229  0.0568  0.6573  0.2725
 2733TIP3    H229759   4.556   2.612   8.344  0.7734 -0.2173  1.2010
 2734TIP3   OH229760   3.412   3.508   1.172 -0.0365 -0.4135  0.1861
 2734TIP3    H129761   3.410   3.413   1.177  0.3726 -0.5776 -1.9022
 2734TIP3    H229762   3.338   3.530   1.116  0.4699  0.4272 -0.1659
 2735TIP3   OH229763   6.509   2.427   0.600  0.9230  0.0463  0.2056
 2735TIP3    H129764   6.441   2.391   0.543  0.5355  0.7349  0.2138
 2735TIP3    H229765   6.470   2.425   0.688  1.1589 -0.1527  0.3040
 2736TIP3   OH229766   6.564   6.855   8.278 -0.4024 -0.3673  0.0508
 2736TIP3    H129767   6.648   6.882   8.241 -0.1061 -1.8239 -0.3932
 2736TIP3    H229768   6.499   6.904   8.228  0.1458  0.7735  0.3964
 2737TIP3   OH229769   0.019   3.313   6.731  0.2345  0.3932 -0.9904
 2737TIP3    H129770   0.007   3.219   6.719 -1.8780  0.3928  0.5489
 2737TIP3    H229771   0.114   3.325   6.735  0.5600 -1.5500 -1.9467
 2738TIP3   OH229772   2.539   6.453   1.341  0.3403  0.2262  0.2289
 2738TIP3    H129773   2.446   6.477   1.348  0.5332  0.6882  1.3557
 2738TIP3    H229774   2.578   6.523   1.290 -0.2443 -0.8889 -1.8656
 2739TIP3   OH229775   3.360   0.773   6.659  0.0903  0.2842  0.3042
 2739TIP3    H129776   3.408   0.712   6.714  1.6249  1.9259  0.8758
 2739TIP3    H229777   3.289   0.805   6.715  0.1454  0.0931  0.4834
 2740TIP3   OH229778   1.010   2.195   0.148  0.2783  0.2987 -0.2469
 2740TIP3    H129779   1.010   2.117   0.202  2.8635 -0.5113 -1.2681
 2740TIP3    H229780   1.102   2.220   0.141 -0.1217  1.4475 -2.6730
 2741TIP3   OH229781   1.536   0.222   7.932  0.0132 -0.2339  0.3566
 2741TIP3    H129782   1.595   0.174   7.989  0.8091  0.2077 -0.0723
 2741TIP3    H229783   1.449   0.208   7.969  0.4396 -0.5104  1.2702
 2742TIP3   OH229784   3.159   0.911   2.755 -0.7093 -0.3137  0.3321
 2742TIP3    H129785   3.143   0.892   2.662  2.1560  0.9537 -0.5349
 2742TIP3    H229786   3.158   1.006   2.761  0.5791 -0.3266  1.2683
 2743TIP3   OH229787   1.011   2.142   7.965 -0.2036  0.2319 -0.1256
 2743TIP3    H129788   0.940   2.193   7.926  0.4560  0.3795 -1.1734
 2743TIP3    H229789   1.062   2.111   7.891 -0.2660 -1.5186  0.5283
 2744TIP3   OH229790   5.467   3.572   0.935  0.2868  0.2028 -0.5186
 2744TIP3    H129791   5.475   3.634   1.008  1.8366 -1.3725  0.7490
 2744TIP3    H229792   5.545   3.588   0.882  0.8538 -0.8126 -0.0195
 2745TIP3   OH229793   0.996   4.403   7.868  0.0828  0.7047 -0.0360
 2745TIP3    H129794   0.969   4.408   7.776 -0.2275  0.0096  0.0086
 2745TIP3    H229795   0.936   4.340   7.907  1.1146 -0.0817  0.3184
 2746TIP3   OH229796   5.626   2.968   1.305  0.3260 -0.2655  0.3347
 2746TIP3    H129797   5.661   2.999   1.389 -0.4665 -0.0185  0.5793
 2746TIP3    H229798   5.537   2.939   1.325  0.2805 -0.6189 -0.3362
 2747TIP3   OH229799   1.677   4.761   7.525  0.3181 -0.0431 -0.1031
 2747TIP3    H129800   1.675   4.701   7.451 -0.2920  0.3578 -0.4158
 2747TIP3    H229801   1.595   4.809   7.520 -0.2068 -0.7113  1.4294
 2748TIP3   OH229802   6.772   4.648   0.789  0.3893  0.0532  0.1678
 2748TIP3    H129803   6.822   4.722   0.823  3.2667 -0.9998 -1.4580
 2748TIP3    H229804   6.780   4.580   0.857 -0.5262  0.4973  0.7462
 2749TIP3   OH229805   2.941   3.943   0.456  0.2569  0.2452 -0.1590
 2749TIP3    H129806   2.899   4.029   0.452  0.7959  0.6912  2.1114
 2749TIP3    H229807   3.031   3.961   0.481  1.2264 -0.8510 -2.5980
 2750TIP3   OH229808   2.907   2.027   0.581  0.1259  0.3555  0.1615
 2750TIP3    H129809   2.976   2.076   0.624 -0.5797  0.9869  0.6001
 2750TIP3    H229810   2.826   2.072   0.606 -0.7489 -2.0218  2.0249
 2751TIP3   OH229811   0.549   2.730   0.425 -0.1752  0.0885 -0.8799
 2751TIP3    H129812   0.601   2.673   0.482 -0.0533  0.8788 -0.1975
 2751TIP3    H229813   0.614   2.789   0.385 -0.4494  0.5548 -0.6394
 2752TIP3   OH229814   5.390   2.183   7.323 -0.4147 -0.3993  0.4339
 2752TIP3    H129815   5.437   2.168   7.405  1.2347 -3.0099 -0.8248
 2752TIP3    H229816   5.300   2.156   7.342 -0.4547  0.6007  1.7830
 2753TIP3   OH229817   1.482   0.820   2.265  0.2033  0.9164  0.3541
 2753TIP3    H129818   1.524   0.885   2.321  3.0405 -0.1368 -0.4042
 2753TIP3    H229819   1.390   0.821   2.292  1.0038  2.0740  3.3730
 2754TIP3   OH229820   2.227   6.494   1.963  0.0614 -0.8226  0.1101
 2754TIP3    H129821   2.279   6.515   1.886  0.6185  0.6275  0.8616
 2754TIP3    H229822   2.196   6.578   1.995 -1.7011 -1.5420  0.4407
 2755TIP3   OH229823   0.464   4.016   7.542  0.2144 -0.0968 -0.1193
 2755TIP3    H129824   0.546   4.035   7.496 -0.7032  1.0123 -1.4123
 2755TIP3    H229825   0.443   4.098   7.588 -0.4213 -0.1770 -0.2479
 2756TIP3   OH229826   6.329   1.951   0.664 -0.5065 -0.3186 -0.1868
 2756TIP3    H129827   6.287   2.037   0.672 -0.9497 -0.3153 -2.0540
 2756TIP3    H229828   6.420   1.967   0.692 -0.4757  0.8771 -0.8697
 2757TIP3   OH229829   4.276   5.987   2.256  0.3137 -0.1762  0.2056
 2757TIP3    H129830   4.271   5.921   2.325  0.9683 -0.1589  0.2715
 2757TIP3    H229831   4.202   6.045   2.274  0.4771 -0.1731  0.8927
 2758TIP3   OH229832   5.129   5.259   0.650  0.2603 -0.0544 -0.7402
 2758TIP3    H129833   5.186   5.325   0.692  1.3489 -1.8217  0.7160
 2758TIP3    H229834   5.088   5.306   0.578  1.1323  2.1723  0.1100
 2759TIP3   OH229835   1.888   1.002   7.778  0.2221  0.3639  0.3434
 2759TIP3    H129836   1.954   0.933   7.785  1.4678  1.3480 -1.2594
 2759TIP3    H229837   1.809   0.962   7.816  1.3639 -1.2796  1.1514
 2760TIP3   OH229838   3.409   6.251   0.468  0.3937  0.2560  0.4090
 2760TIP3    H129839   3.397   6.300   0.387 -2.8346  0.1800  0.7152
 2760TIP3    H229840   3.408   6.159   0.441  0.8756  0.2525  0.3946
 2761TIP3   OH229841   1.167   0.023   2.097  0.7556 -0.4448 -0.1123
 2761TIP3    H129842   1.131  -0.065   2.106  0.9938 -0.5638 -0.3596
 2761TIP3    H229843   1.182   0.035   2.004  1.8750 -0.5971  0.0337
 2762TIP3   OH229844   2.654   0.900   6.250 -0.6204 -0.2019 -0.0929
 2762TIP3    H129845   2.743   0.878   6.277  0.1883  0.7942 -1.7986
 2762TIP3    H229846   2.603   0.821   6.269  0.7288 -0.9798  0.4308
 2763TIP3   OH229847   5.436   1.940   7.945 -0.4370 -0.1921  0.1648
 2763TIP3    H129848   5.430   1.877   8.017  2.1629 -2.1414 -1.1430
 2763TIP3    H229849   5.511   1.995   7.968  0.6878 -1.1103 -1.1796
 2764TIP3   OH229850   4.566   2.358   8.507 -0.0359  0.1676 -0.0732
 2764TIP3    H129851   4.493   2.407   8.544  0.3663 -0.3491  1.4932
 2764TIP3    H229852   4.599   2.414   8.437  0.2618  2.0538  1.4886
 2765TIP3   OH229853   4.331   3.756   8.449  0.4539  0.1167  0.3220
 2765TIP3    H129854   4.277   3.808   8.388 -2.4968 -2.1962  0.7675
 2765TIP3    H229855   4.301   3.783   8.536  2.0074  0.6996  0.7102
 2766TIP3   OH229856   5.974   0.753   7.721 -0.4640  0.5453 -0.1142
 2766TIP3    H129857   6.070   0.753   7.721 -0.3323  0.6847  3.3027
 2766TIP3    H229858   5.950   0.675   7.672  1.2178  1.8683 -3.3344
 2767TIP3   OH229859   5.380   6.702   7.505 -0.0819  0.1901  0.0805
 2767TIP3    H129860   5.368   6.762   7.431 -0.2758 -1.1102 -0.9913
 2767TIP3    H229861   5.475   6.691   7.511  0.0203  1.2897  0.8935
 2768TIP3   OH229862   2.133   2.512   2.743 -0.1253 -0.0864  0.2627
 2768TIP3    H129863   2.142   2.460   2.663  4.0625  2.3060 -1.1549
 2768TIP3    H229864   2.194   2.473   2.805 -0.1994  0.5272  0.7367
 2769TIP3   OH229865   6.063   1.034   2.189  0.0713  0.1073  0.0705
 2769TIP3    H129866   6.044   1.116   2.233  0.3118  0.3568 -0.2839
 2769TIP3    H229867   6.126   0.990   2.247  0.4656  0.4779 -0.0639
 2770TIP3   OH229868   3.921   4.880   0.796 -0.1451  0.0997 -0.0633
 2770TIP3    H129869   3.965   4.916   0.719  0.4569  0.6949  0.5446
 2770TIP3    H229870   3.830   4.867   0.767  0.6539 -2.4966 -1.7702
 2771TIP3   OH229871   6.750   6.431   8.499 -0.2405 -0.4738  0.6182
 2771TIP3    H129872   6.704   6.514   8.487 -1.5643 -1.1134  0.9752
 2771TIP3    H229873   6.837   6.455   8.531 -0.2636  0.7940 -0.2162
 2772TIP3   OH229874   0.605   5.263   8.161  0.2894 -0.0489  0.2809
 2772TIP3    H129875   0.645   5.306   8.236  0.2622  1.6091 -0.5990
 2772TIP3    H229876   0.677   5.245   8.101  0.2709 -1.0871  0.5444
 2773TIP3   OH229877   6.489   3.532   0.007 -0.2686 -0.4678 -0.0592
 2773TIP3    H129878   6.467   3.517  -0.085 -2.2269 -0.4936  0.3722
 2773TIP3    H229879   6.410   3.506   0.055  0.4975  0.1176  1.5866
 2774TIP3   OH229880   3.500   6.655   7.852 -0.2353 -0.6128 -0.1963
 2774TIP3    H129881   3.457   6.595   7.791  0.3905 -1.1726 -0.0938
 2774TIP3    H229882   3.528   6.600   7.925  0.0729 -0.1480  0.0434
 2775TIP3   OH229883   3.568   3.462   6.009  0.3110 -0.3815  0.5339
 2775TIP3    H129884   3.594   3.471   6.101 -0.4124  1.6850  0.5893
 2775TIP3    H229885   3.639   3.413   5.969  0.0333 -2.5116  2.4276
 2776TIP3   OH229886   2.347   6.314   2.117  0.1806  0.1637  0.3427
 2776TIP3    H129887   2.409   6.386   2.128  1.3739 -0.7163 -0.5164
 2776TIP3    H229888   2.288   6.344   2.048  3.6437 -1.4970 -3.7776
 2777TIP3   OH229889   1.873   0.687   2.373 -0.1019  0.6617  0.2409
 2777TIP3    H129890   1.902   0.707   2.462 -0.6493  1.2563  0.2935
 2777TIP3    H229891   1.784   0.724   2.368  0.1083  1.0643 -0.7048
 2778TIP3   OH229892   6.737   6.666   3.181 -0.0636 -0.6082 -0.3679
 2778TIP3    H129893   6.709   6.579   3.210 -0.4398 -0.5971 -0.6841
 2778TIP3    H229894   6.660   6.722   3.195  0.2167 -0.3019 -0.0505
 2779TIP3   OH229895   1.807   4.442   8.510  0.5185 -0.6598 -0.4893
 2779TIP3    H129896   1.831   4.446   8.602 -0.6602 -0.3108 -0.1878
 2779TIP3    H229897   1.796   4.349   8.492 -1.9930 -0.6122  0.4813
 2780TIP3   OH229898   3.817   0.435   1.480  0.3381  0.2331 -0.4033
 2780TIP3    H129899   3.763   0.401   1.551 -0.5113  3.0034  0.4136
 2780TIP3    H229900   3.816   0.366   1.413 -0.9552 -1.3929  1.2036
 2781TIP3   OH229901   2.290   5.638   1.526 -0.4286  0.0383 -0.2978
 2781TIP3    H129902   2.360   5.695   1.493  0.8145  1.3044  3.8659
 2781TIP3    H229903   2.211   5.691   1.520  0.2814  1.3633  1.1419
 2782TIP3   OH229904   6.186   3.472   7.458 -0.7613  0.1438 -0.5869
 2782TIP3    H129905   6.259   3.411   7.443 -1.0823 -0.0105 -1.5709
 2782TIP3    H229906   6.136   3.432   7.529  0.3464  0.4709  0.4035
 2783TIP3   OH229907   1.652   4.809   1.135 -0.0334  0.3730  0.3144
 2783TIP3    H129908   1.675   4.716   1.136  0.4305  0.2847 -3.5924
 2783TIP3    H229909   1.567   4.812   1.179  0.1106 -1.8250  0.8875
 2784TIP3   OH229910   0.002   4.920   1.443  0.1680 -0.7792 -0.1100
 2784TIP3    H129911   0.060   4.845   1.430  1.1527  0.2458 -1.9566
 2784TIP3    H229912   0.061   4.992   1.467 -0.3295  0.1899 -1.6375
 2785TIP3   OH229913   2.084   6.831   2.749  0.2048 -0.0406 -0.0781
 2785TIP3    H129914   2.061   6.872   2.832  0.6638 -0.2998  0.1760
 2785TIP3    H229915   2.167   6.871   2.724 -0.8620  1.4610 -1.3817
 2786TIP3   OH229916   4.367   6.103   2.015 -0.2147 -0.2150  0.6492
 2786TIP3    H129917   4.362   6.047   2.092 -1.6123 -1.7580 -0.4809
 2786TIP3    H229918   4.296   6.166   2.026  1.7064  1.8256  2.1941
 2787TIP3   OH229919   0.101   3.490   0.752  0.3675 -0.4226 -0.7941
 2787TIP3    H129920   0.102   3.485   0.656  0.6155 -0.2133 -0.8027
 2787TIP3    H229921   0.132   3.405   0.781 -1.4141 -1.1433 -0.8789
 2788TIP3   OH229922   4.305   4.054   1.472  0.2999  0.8282 -0.1788
 2788TIP3    H129923   4.339   4.074   1.560  0.9633  2.3076 -0.7502
 2788TIP3    H229924   4.210   4.057   1.482  0.3154 -0.6675  0.8356
 2789TIP3   OH229925   6.694   4.638   8.517 -0.9247 -0.3856  0.1200
 2789TIP3    H129926   6.709   4.556   8.564  0.4238  0.4388  1.2125
 2789TIP3    H229927   6.736   4.625   8.432  1.3098 -0.1087  1.0953
 2790TIP3   OH229928   0.604   4.866   7.552 -0.1515 -0.2209 -0.3048
 2790TIP3    H129929   0.597   4.857   7.457  0.3300  1.2791 -0.5226
 2790TIP3    H229930   0.613   4.961   7.566 -2.4281 -0.1692  1.3964
 2791TIP3   OH229931   4.116   0.016   1.546 -0.2153 -0.2878  0.0237
 2791TIP3    H129932   4.155  -0.072   1.548 -1.3819 -0.8291  0.3758
 2791TIP3    H229933   4.098   0.036   1.638 -3.0703 -1.1810 -0.2391
 2792TIP3   OH229934   0.444   6.354   0.052 -0.5926 -0.4472 -0.5235
 2792TIP3    H129935   0.397   6.393   0.126  1.2749 -0.7363  0.8790
 2792TIP3    H229936   0.437   6.420  -0.018 -1.7400  0.1678  0.1344
 2793TIP3   OH229937   5.341   5.417   7.082  0.2948 -0.1052  0.2310
 2793TIP3    H129938   5.280   5.451   7.016  2.6753  2.5544 -0.8167
 2793TIP3    H229939   5.384   5.343   7.040  0.4087  0.3582 -0.4898
 2794TIP3   OH229940   3.391   0.044   7.428 -0.2466  0.2247 -0.2517
 2794TIP3    H129941   3.425   0.054   7.339 -0.2736 -0.8199 -0.3882
 2794TIP3    H229942   3.318   0.106   7.433 -0.2551  0.2783 -0.9662
 2795TIP3   OH229943   4.148   4.878   0.353 -0.2968 -0.5610 -0.4245
 2795TIP3    H129944   4.068   4.873   0.301  0.1670 -0.9716 -1.1057
 2795TIP3    H229945   4.182   4.788   0.354  0.3421 -0.3243 -0.4258
 2796TIP3   OH229946   6.748   5.064   1.876  0.5710 -0.1357 -0.1766
 2796TIP3    H129947   6.740   5.054   1.781  1.0244 -0.8072 -0.1543
 2796TIP3    H229948   6.843   5.072   1.890  0.4607  0.6443  0.1613
 2797TIP3   OH229949   2.715   4.967   0.465  0.1003  0.7529 -0.6048
 2797TIP3    H129950   2.675   5.007   0.542  2.4339 -1.6551  2.0605
 2797TIP3    H229951   2.642   4.921   0.422 -0.9559  0.5965  1.2394
 2798TIP3   OH229952   2.378   2.712   1.772 -0.4860 -0.4615  0.4495
 2798TIP3    H129953   2.407   2.643   1.712  0.4826  0.1766  0.1697
 2798TIP3    H229954   2.284   2.696   1.783  0.0474 -3.0978  2.0513
 2799TIP3   OH229955   1.939   2.591   1.639  0.3075  0.5786 -0.2098
 2799TIP3    H129956   1.939   2.544   1.722  0.5419  0.3115 -0.3585
 2799TIP3    H229957   1.863   2.556   1.593  0.0528  0.8830 -0.0207
 2800TIP3   OH229958   3.065   6.477   1.765  0.1145  0.7000 -0.3905
 2800TIP3    H129959   3.133   6.413   1.788  2.7906  2.8399 -1.6738
 2800TIP3    H229960   3.036   6.512   1.849  0.5813 -0.3077  0.2117
 2801TIP3   OH229961   3.861   5.843   7.041 -0.0786  0.1761 -0.3654
 2801TIP3    H129962   3.805   5.909   7.082 -1.6452 -1.5120  0.3802
 2801TIP3    H229963   3.820   5.826   6.956 -0.8899 -1.2372  0.2795
 2802TIP3   OH229964   6.745   0.034   0.348 -0.5619  0.6586  0.0648
 2802TIP3    H129965   6.809   0.013   0.279 -1.5453  1.5044 -1.1627
 2802TIP3    H229966   6.696   0.108   0.312 -0.2151  2.0571  2.2705
 2803TIP3   OH229967   1.704   6.473   2.529 -0.2109  0.2689 -0.8859
 2803TIP3    H129968   1.783   6.465   2.582 -0.1253  0.8789 -0.9113
 2803TIP3    H229969   1.632   6.473   2.592 -0.1733  0.0650 -0.8401
 2804TIP3   OH229970   4.405   1.565   1.632 -0.4090  0.6249 -0.5185
 2804TIP3    H129971   4.310   1.555   1.635 -0.4285  0.6594  2.5981
 2804TIP3    H229972   4.438   1.475   1.623 -0.7345  0.5031 -0.5022
 2805TIP3   OH229973   2.980   5.065   0.036  0.1782  0.2966  0.2989
 2805TIP3    H129974   3.052   5.081  -0.026  0.6713  0.0131  0.7898
 2805TIP3    H229975   2.993   5.129   0.105  0.2944 -0.1178  0.6700
 2806TIP3   OH229976   1.975   5.021   0.528 -0.0895  0.6087  0.0329
 2806TIP3    H129977   2.013   5.052   0.446 -0.7697 -0.8461 -0.8810
 2806TIP3    H229978   1.925   4.943   0.503 -0.5967  0.3306  1.7819
 2807TIP3   OH229979   3.057   6.367   2.214  0.0457  1.0456 -0.4900
 2807TIP3    H129980   3.088   6.452   2.246 -0.0065  0.7890  0.2678
 2807TIP3    H229981   3.119   6.304   2.252 -1.3773  0.5150  1.0805
 2808TIP3   OH229982   4.223   3.825   7.514  0.5550 -0.3151  0.1167
 2808TIP3    H129983   4.187   3.753   7.463  0.0259  0.1731 -0.2069
 2808TIP3    H229984   4.234   3.896   7.450  0.7441  0.0044  0.4995
 2809TIP3   OH229985   2.584   3.807   1.752  0.2778  0.3684  0.2730
 2809TIP3    H129986   2.594   3.732   1.811  1.4810 -0.0387 -0.4283
 2809TIP3    H229987   2.667   3.812   1.705 -0.1384  1.5727 -0.3689
 2810TIP3   OH229988   1.238   6.710   0.781 -0.0993  0.2783 -0.0722
 2810TIP3    H129989   1.170   6.760   0.736 -0.8747  0.5096  1.3049
 2810TIP3    H229990   1.217   6.719   0.874  0.3676 -1.7182  0.2721
 2811TIP3   OH229991   2.573   2.813   8.390  0.0664 -0.0637  0.1091
 2811TIP3    H129992   2.613   2.761   8.320 -0.5922 -2.0863  1.1687
 2811TIP3    H229993   2.503   2.862   8.346  0.4166 -0.3855 -0.8493
 2812TIP3   OH229994   4.976   2.015   8.145  0.0024  0.2017 -0.0024
 2812TIP3    H129995   4.987   2.069   8.224 -0.4550  1.1085 -0.5414
 2812TIP3    H229996   4.999   2.074   8.073 -2.8229  0.4934 -0.7960
 2813TIP3   OH229997   1.052   6.062   6.611  0.3916  0.1171  0.2897
 2813TIP3    H129998   1.030   6.008   6.687  0.2363 -0.8169 -0.4042
 2813TIP3    H229999   0.998   6.027   6.540 -1.7936  2.8898  0.3939
 2814TIP3   OH230000   3.441   4.956   8.318 -0.0864 -0.8103 -0.2466
 2814TIP3    H130001   3.480   5.003   8.392 -2.6986  1.6449 -0.2408
 2814TIP3    H230002   3.428   5.023   8.251 -1.0263 -2.2341 -1.5447
 2815TIP3   OH230003   2.598   2.342   0.013  0.0158 -0.4054 -0.1984
 2815TIP3    H130004   2.577   2.249   0.024 -2.7325  0.2576  0.9142
 2815TIP3    H230005   2.622   2.372   0.101 -0.7381  0.2588 -0.2030
 2816TIP3   OH230006   6.576   0.521   1.088 -0.5876  0.5071  0.5171
 2816TIP3    H130007   6.669   0.506   1.074 -0.2275  0.3747  2.6892
 2816TIP3    H230008   6.540   0.435   1.109 -1.0816  0.6579  0.3191
 2817TIP3   OH230009   2.855   5.255   8.149  0.6388 -0.0276 -0.2472
 2817TIP3    H130010   2.845   5.320   8.218  0.0889 -1.4406  1.0590
 2817TIP3    H230011   2.770   5.212   8.143  0.9669 -0.5967 -1.1180
 2818TIP3   OH230012   5.188   5.842   8.051 -0.0802  0.2762 -0.5586
 2818TIP3    H130013   5.253   5.776   8.076 -0.2184  0.3633  0.0445
 2818TIP3    H230014   5.176   5.830   7.957  0.0349 -0.4338 -0.4845
 2819TIP3   OH230015   5.939   4.611   1.902  0.5555  0.3535 -0.3181
 2819TIP3    H130016   5.883   4.656   1.838  0.1924  0.3576 -0.0021
 2819TIP3    H230017   5.936   4.519   1.877  1.0786  0.4609 -0.8007
 2820TIP3   OH230018   5.161   5.531   1.894 -0.0581  0.1416 -0.8702
 2820TIP3    H130019   5.086   5.546   1.951  0.8331  0.5946  0.2158
 2820TIP3    H230020   5.180   5.617   1.856 -0.3330 -0.0568 -1.4762
 2821TIP3   OH230021   6.486   4.219   8.391 -0.5322 -0.3474  0.4486
 2821TIP3    H130022   6.466   4.128   8.366 -0.9523 -0.1019 -0.1306
 2821TIP3    H230023   6.400   4.259   8.403 -0.3462 -0.1445  1.1756
 2822TIP3   OH230024   6.670   1.440   7.899 -0.1601 -0.4531 -0.3942
 2822TIP3    H130025   6.709   1.454   7.986 -1.1412  0.0836 -0.0212
 2822TIP3    H230026   6.715   1.503   7.843  0.1975 -0.5183 -0.1824
 2823TIP3   OH230027   1.877   1.277   7.059  0.1495  0.2888 -0.1954
 2823TIP3    H130028   1.968   1.296   7.080 -0.1626  1.5326  0.1356
 2823TIP3    H230029   1.862   1.323   6.976  0.1491 -0.9297 -0.8906
 2824TIP3   OH230030   6.784   0.004   7.198 -0.8633  0.3162  0.1031
 2824TIP3    H130031   6.734  -0.073   7.226 -0.6701 -0.8018 -2.3147
 2824TIP3    H230032   6.871  -0.030   7.177 -0.6273  1.2871 -0.5736
 2825TIP3   OH230033   1.917   4.101   6.641  0.4201 -0.0490 -0.3709
 2825TIP3    H130034   1.853   4.140   6.700  0.3568  0.2235 -0.6211
 2825TIP3    H230035   1.908   4.149   6.559 -0.9105 -1.7509 -1.2809
 2826TIP3   OH230036   0.697   1.272   7.777  0.5122 -0.4388 -0.0260
 2826TIP3    H130037   0.771   1.315   7.820  0.0913 -0.2917  0.5437
 2826TIP3    H230038   0.640   1.245   7.848 -0.1372 -0.2855 -0.4863
 2827TIP3   OH230039   2.796   0.489   2.171  0.4645  0.3408 -0.4382
 2827TIP3    H130040   2.829   0.419   2.228  1.2670 -1.1935 -2.6608
 2827TIP3    H230041   2.705   0.500   2.199  1.3057  1.0402  2.3681
 2828TIP3   OH230042   1.744   3.288   8.496  0.2206  0.4180 -0.3929
 2828TIP3    H130043   1.727   3.287   8.590  1.4501  1.6555 -0.1335
 2828TIP3    H230044   1.686   3.220   8.461  0.1037 -0.4030  1.2995
 2829TIP3   OH230045   4.900   3.504   7.577 -0.5521 -0.3340 -0.2159
 2829TIP3    H130046   4.935   3.422   7.543 -1.1003 -0.8000  0.3213
 2829TIP3    H230047   4.827   3.525   7.519 -1.3694 -1.0311  0.5390
 2830TIP3   OH230048   6.443   2.982   6.743  0.1947  0.3579  0.1113
 2830TIP3    H130049   6.422   3.032   6.664 -1.0432 -0.1234  0.1097
 2830TIP3    H230050   6.401   2.897   6.729 -0.9132  0.5965  1.7048
 2831TIP3   OH230051   6.082   5.385   1.314 -0.0970  0.0255 -0.0362
 2831TIP3    H130052   5.987   5.375   1.322 -0.2795  1.7327  0.5592
 2831TIP3    H230053   6.096   5.480   1.319  1.9030 -0.2700  3.6319
 2832TIP3   OH230054   1.216   0.997   7.528  0.2541 -0.0391  0.6613
 2832TIP3    H130055   1.128   1.016   7.562 -0.4021  0.2778 -1.0762
 2832TIP3    H230056   1.240   0.914   7.569 -0.5579  0.1963  1.6822
 2833TIP3   OH230057   6.590   6.565   1.693  0.5799  0.1404  0.0311
 2833TIP3    H130058   6.680   6.547   1.665  0.8346 -0.1418  0.9913
 2833TIP3    H230059   6.539   6.492   1.657  0.3146  1.4046 -2.3890
 2834TIP3   OH230060   5.992   0.689   2.013 -0.3924  0.4680 -0.4817
 2834TIP3    H130061   6.041   0.675   2.095 -2.6419 -0.0529  0.8639
 2834TIP3    H230062   5.960   0.779   2.020 -1.0264  0.2476 -0.5276
 2835TIP3   OH230063   2.844   1.479   1.782 -0.2784 -0.0572 -0.0711
 2835TIP3    H130064   2.933   1.465   1.748 -0.0429  0.4231  0.3410
 2835TIP3    H230065   2.836   1.416   1.853 -0.8171 -1.1523 -1.0696
 2836TIP3   OH230066   5.728   4.330   1.146  0.0587 -0.4360 -0.1821
 2836TIP3    H130067   5.701   4.299   1.233  0.8595 -1.4363 -0.2784
 2836TIP3    H230068   5.781   4.407   1.164  0.0105 -0.4885  0.1971
 2837TIP3   OH230069   4.784   5.895   0.059 -0.3148  0.0964  0.0727
 2837TIP3    H130070   4.821   5.977   0.092  0.9003  0.4800 -2.0939
 2837TIP3    H230071   4.693   5.917   0.038  0.2837  1.2568 -1.5076
 2838TIP3   OH230072   0.489   0.938   6.801 -0.7072 -0.2525  0.1797
 2838TIP3    H130073   0.444   0.948   6.717  1.0005  0.4720 -0.6944
 2838TIP3    H230074   0.580   0.920   6.777 -0.3294 -0.8023  1.8871
 2839TIP3   OH230075   5.590   2.365   6.728  0.1663 -0.9024 -0.2217
 2839TIP3    H130076   5.566   2.291   6.784 -2.0183 -1.6845 -2.0162
 2839TIP3    H230077   5.633   2.324   6.653 -0.1952 -0.2590 -0.7843
 2840TIP3   OH230078   1.423   1.642   2.703 -0.3943  0.6034 -0.3156
 2840TIP3    H130079   1.350   1.583   2.721 -1.3577  1.3075 -1.7043
 2840TIP3    H230080   1.501   1.585   2.703 -0.5693  0.1393  3.1912
 2841TIP3   OH230081   1.547   4.940   0.492 -0.2660  0.2829  0.0138
 2841TIP3    H130082   1.510   4.900   0.414 -0.8873  0.2472  0.3128
 2841TIP3    H230083   1.471   4.978   0.537  0.1048  0.4510  0.5078
 2842TIP3   OH230084   6.814   6.185   0.857  0.2728 -0.1449  0.5534
 2842TIP3    H130085   6.822   6.234   0.939  1.6686  1.9035 -0.6831
 2842TIP3    H230086   6.723   6.157   0.854  0.2090 -0.3431  2.8120
 2843TIP3   OH230087   4.445   5.102   7.759  0.0165 -0.5989 -0.5737
 2843TIP3    H130088   4.495   5.021   7.761 -2.2637 -2.1172  2.5895
 2843TIP3    H230089   4.486   5.158   7.825  0.3069  0.0102 -1.2583
 2844TIP3   OH230090   3.908   4.092   7.866 -1.0025 -0.5785 -0.1601
 2844TIP3    H130091   3.836   4.114   7.807  0.6342 -0.5658 -2.2488
 2844TIP3    H230092   3.984   4.080   7.809  0.4953 -1.4280  1.8752
 2845TIP3   OH230093   2.162   0.760   8.172 -0.6240  0.0766 -0.3794
 2845TIP3    H130094   2.144   0.716   8.255 -0.0475  1.1356  0.3347
 2845TIP3    H230095   2.083   0.745   8.120 -1.0300 -0.5394  0.3819
 2846TIP3   OH230096   6.479   0.488   7.919 -0.1643 -0.1217  0.1224
 2846TIP3    H130097   6.533   0.528   7.988  1.9196 -2.9394  0.2960
 2846TIP3    H230098   6.412   0.439   7.966 -0.6812  0.4931  0.0286
 2847TIP3   OH230099   0.194   6.867   0.830  0.0881 -0.3475  1.0724
 2847TIP3    H130100   0.234   6.946   0.793 -1.2000 -0.1191  0.0936
 2847TIP3    H230101   0.226   6.796   0.775 -1.5786 -0.0445 -0.3888
 2848TIP3   OH230102   2.985   1.787   6.653 -0.7408  0.2014 -0.4146
 2848TIP3    H130103   3.025   1.807   6.569 -1.9602  0.6606 -0.9225
 2848TIP3    H230104   2.976   1.692   6.654  1.4783 -0.0502  0.2788
 2849TIP3   OH230105   3.137   2.392   7.876 -0.6623 -0.6862 -0.6742
 2849TIP3    H130106   3.182   2.309   7.890  0.9895  0.6243  2.9802
 2849TIP3    H230107   3.062   2.389   7.935 -0.6238  0.3504 -0.5528
 2850TIP3   OH230108   2.090   5.317   6.973 -0.0430  0.1760 -0.3036
 2850TIP3    H130109   2.064   5.260   6.901  0.5871 -1.1031  0.4652
 2850TIP3    H230110   2.184   5.326   6.965 -0.0870  0.8306 -0.2002
 2851TIP3   OH230111   6.522   6.378   7.330 -0.9424  0.1442 -0.8533
 2851TIP3    H130112   6.497   6.305   7.273  0.1723 -0.9112 -0.0604
 2851TIP3    H230113   6.440   6.423   7.350 -1.5932 -0.6144 -1.7481
 2852TIP3   OH230114   3.418   1.409   8.316 -0.0393 -0.6776  0.3015
 2852TIP3    H130115   3.437   1.503   8.313 -2.7126  0.0557  2.3743
 2852TIP3    H230116   3.475   1.376   8.386  1.0931 -0.7017 -0.6046
 2853TIP3   OH230117   6.450   4.701   0.413  0.0436  0.0533 -0.0534
 2853TIP3    H130118   6.406   4.743   0.486 -2.5859 -1.1914 -0.7931
 2853TIP3    H230119   6.543   4.702   0.436 -0.5740  0.7992  2.6803
 2854TIP3   OH230120   4.155   6.310   2.051 -0.5149 -0.0380  0.2511
 2854TIP3    H130121   4.104   6.356   1.984 -1.5056  0.5063  1.3353
 2854TIP3    H230122   4.089   6.269   2.107  0.2918 -0.5535  0.8400
 2855TIP3   OH230123   5.105   4.701   7.435  0.7876  0.5879 -0.1368
 2855TIP3    H130124   5.140   4.628   7.383  0.7803 -0.0709  0.7521
 2855TIP3    H230125   5.121   4.675   7.526  0.7734  1.7039  0.1946
 2856TIP3   OH230126   4.000   1.223   0.955 -0.6322  0.2408  0.1228
 2856TIP3    H130127   3.914   1.190   0.930 -0.4489 -0.0052 -0.1962
 2856TIP3    H230128   3.985   1.268   1.038 -1.3717  1.6523 -0.7418
 2857TIP3   OH230129   5.643   0.149   2.391 -0.4058  0.3235 -0.0035
 2857TIP3    H130130   5.661   0.212   2.461 -1.1537  1.1113 -0.4958
 2857TIP3    H230131   5.567   0.185   2.346 -1.8496 -1.7142  0.6481
 2858TIP3   OH230132   5.348   0.384   0.910  0.2640  0.5082 -0.2931
 2858TIP3    H130133   5.427   0.417   0.954  0.1766  0.8599 -0.3923
 2858TIP3    H230134   5.375   0.373   0.819  1.2502 -2.8393  0.2820
 2859TIP3   OH230135   0.259   0.796   2.589 -0.1985  0.0174 -0.1086
 2859TIP3    H130136   0.233   0.746   2.666  0.4865  1.1434  0.8804
 2859TIP3    H230137   0.185   0.787   2.529 -1.5511  0.6324  1.4007
 2860TIP3   OH230138   0.311   6.819   6.673 -0.0679 -0.4079 -0.2459
 2860TIP3    H130139   0.271   6.894   6.718  0.3284  0.2073 -0.9034
 2860TIP3    H230140   0.347   6.856   6.593  1.5692 -0.9922  0.1858
 2861TIP3   OH230141   3.438   2.334   1.177  0.5976 -0.5799  0.1005
 2861TIP3    H130142   3.493   2.402   1.217  0.1237  0.5071 -1.0448
 2861TIP3    H230143   3.351   2.372   1.174  0.2655 -1.3558 -0.2933
 2862TIP3   OH230144   5.957   4.801   7.984  0.0170 -0.4104  0.6579
 2862TIP3    H130145   6.010   4.847   8.049  1.6110  1.6838 -1.8954
 2862TIP3    H230146   6.020   4.769   7.920 -1.5501  3.3489 -3.2646
 2863TIP3   OH230147   4.168   2.016   1.888 -0.0227 -0.5393  0.0506
 2863TIP3    H130148   4.199   2.106   1.901 -0.4357 -0.3758 -0.0644
 2863TIP3    H230149   4.091   2.009   1.945 -0.5020 -0.5439 -0.5919
 2864TIP3   OH230150   1.284   1.998   0.005 -0.5024 -0.2549  0.2353
 2864TIP3    H130151   1.376   1.999  -0.021 -0.0957 -0.2443  1.6225
 2864TIP3    H230152   1.274   1.919   0.057 -0.2821  1.5853  3.3525
 2865TIP3   OH230153   0.539   4.868   7.077 -0.2347  0.3950 -0.1516
 2865TIP3    H130154   0.558   4.961   7.066  0.9720  0.2721  0.7403
 2865TIP3    H230155   0.543   4.832   6.988  1.6369  0.8064 -0.2900
 2866TIP3   OH230156   4.625   5.089   1.271  0.1165 -0.0246  0.2635
 2866TIP3    H130157   4.663   5.102   1.184  0.3987 -0.7232  0.2735
 2866TIP3    H230158   4.556   5.024   1.258 -0.5784  0.6747  0.3824
 2867TIP3   OH230159   2.334   4.851   2.239 -0.1205 -0.5055 -0.4516
 2867TIP3    H130160   2.330   4.769   2.289 -0.2677 -0.2260  0.0050
 2867TIP3    H230161   2.363   4.916   2.303 -2.3189  0.2865 -0.1542
 2868TIP3   OH230162   4.922   4.019   2.248  0.2993 -0.2914  0.4408
 2868TIP3    H130163   4.895   4.064   2.329  1.1313  1.9520 -0.4333
 2868TIP3    H230164   4.840   4.006   2.200 -0.0749 -0.6164  1.1584
 2869TIP3   OH230165   2.889   0.534   8.474 -0.1930 -0.3166  0.2685
 2869TIP3    H130166   2.823   0.484   8.426  0.8534  0.0441 -1.6499
 2869TIP3    H230167   2.956   0.470   8.497 -0.3740 -0.3684  0.6517
 2870TIP3   OH230168   4.475   3.869   1.859 -0.2032  0.4034  0.1127
 2870TIP3    H130169   4.506   3.788   1.899  1.2671  0.3460 -1.0378
 2870TIP3    H230170   4.500   3.861   1.767 -0.4354  1.9728 -0.1156
 2871TIP3   OH230171   6.853   6.706   0.173  0.3810 -0.5000  0.2363
 2871TIP3    H130172   6.893   6.650   0.106  1.4312 -0.9330  1.1973
 2871TIP3    H230173   6.858   6.655   0.254  0.7977  0.7258  1.0164
 2872TIP3   OH230174   2.556   6.396   7.152 -0.4261  0.3392 -0.0722
 2872TIP3    H130175   2.611   6.370   7.078 -0.9416 -2.5256  0.4546
 2872TIP3    H230176   2.477   6.432   7.110 -0.4014 -0.5575 -0.9420
 2873TIP3   OH230177   6.556   6.437   6.962  0.1345 -0.0061 -0.1224
 2873TIP3    H130178   6.624   6.475   7.018 -2.0850  1.2854  1.8743
 2873TIP3    H230179   6.521   6.364   7.013 -1.0107  0.3199 -0.4261
 2874TIP3   OH230180   0.894   3.484   7.697 -0.2491 -0.3582  0.3471
 2874TIP3    H130181   0.816   3.519   7.741  0.4265  0.5510  0.8588
 2874TIP3    H230182   0.885   3.514   7.607  0.1227  0.8733  0.6902
 2875TIP3   OH230183   6.374   3.735   8.434  0.3200  0.3711 -0.0557
 2875TIP3    H130184   6.289   3.695   8.419  1.6181 -2.2773 -1.0608
 2875TIP3    H230185   6.401   3.703   8.520  0.6034  0.6224 -0.0492
 2876TIP3   OH230186   1.001   2.166   2.140  0.2502 -0.4061 -0.4841
 2876TIP3    H130187   1.088   2.168   2.180  0.5331  0.4285 -1.1267
 2876TIP3    H230188   1.007   2.225   2.065 -1.2956  0.8433  0.3087
 2877TIP3   OH230189   2.053   3.727   6.192 -0.1326 -0.0205  0.0401
 2877TIP3    H130190   2.001   3.779   6.253 -0.0350  0.0419  0.0711
 2877TIP3    H230191   2.046   3.775   6.109  0.2377  0.2333  0.1499
 2878TIP3   OH230192   1.524   0.034   7.418  0.4706 -0.2597 -0.0091
 2878TIP3    H130193   1.604   0.087   7.416  1.3901 -1.4123  2.4182
 2878TIP3    H230194   1.514   0.003   7.328  2.1649  0.7593 -0.6036
 2879TIP3   OH230195   6.441   4.117   7.199 -0.1411  0.0482 -0.4566
 2879TIP3    H130196   6.475   4.181   7.137 -0.3140 -0.4205 -1.0396
 2879TIP3    H230197   6.462   4.154   7.285  1.1903  0.1195 -0.7901
 2880TIP3   OH230198   0.350   4.687   8.375 -0.1669  0.1044  0.3122
 2880TIP3    H130199   0.410   4.699   8.449 -0.1573  2.7044 -0.0341
 2880TIP3    H230200   0.270   4.652   8.415  0.6202 -0.7690  1.1810
 2881TIP3   OH230201   4.896   6.349   1.396  0.2971  0.5551 -0.2301
 2881TIP3    H130202   4.808   6.322   1.371  0.4781 -0.5858  0.3239
 2881TIP3    H230203   4.897   6.444   1.380 -0.3463  0.2737 -2.2299
 2882TIP3   OH230204   2.146   0.389   8.184  0.0059  0.2547 -0.2617
 2882TIP3    H130205   2.238   0.372   8.204  0.3938  2.0524 -0.3250
 2882TIP3    H230206   2.101   0.375   8.267  0.7847  2.1660  0.5402
 2883TIP3   OH230207   1.683   4.905   0.735 -0.3877  0.2494 -0.0686
 2883TIP3    H130208   1.610   4.953   0.697 -2.3435 -2.3570  0.0889
 2883TIP3    H230209   1.712   4.846   0.665 -0.0320 -0.3816  0.5873
 2884TIP3   OH230210   5.273   1.093   7.546  0.1826  0.1264  1.0265
 2884TIP3    H130211   5.337   1.149   7.501 -1.7438  1.5642 -0.0642
 2884TIP3    H230212   5.246   1.030   7.480  0.2134 -0.2767  1.3913
 2885TIP3   OH230213   3.247   3.212   7.546  0.2405 -0.0881  0.4579
 2885TIP3    H130214   3.298   3.292   7.534  0.2668 -0.2852 -0.8897
 2885TIP3    H230215   3.305   3.155   7.597  1.0037  0.0390 -0.2445
 2886TIP3   OH230216   1.728   4.543   1.963 -0.3960  0.0662  0.4120
 2886TIP3    H130217   1.818   4.555   1.994 -0.4944  1.4141  0.2418
 2886TIP3    H230218   1.688   4.485   2.028  0.6076 -0.6358  0.4360
 2887TIP3   OH230219   0.401   5.423   7.492  0.4248  0.2993 -0.2949
 2887TIP3    H130220   0.395   5.509   7.533  1.1850 -0.1681  0.8499
 2887TIP3    H230221   0.383   5.361   7.563 -0.9792 -0.4828 -1.2890
 2888TIP3   OH230222   6.774   5.926   1.224 -0.4049  0.1365  0.0635
 2888TIP3    H130223   6.803   5.875   1.149  0.8705 -1.5796  1.6189
 2888TIP3    H230224   6.830   6.004   1.224 -0.6273  0.3040 -0.9143
 2889TIP3   OH230225   6.668   2.192   0.432 -0.5433 -0.2510  0.3610
 2889TIP3    H130226   6.641   2.265   0.489  1.5814  0.9165  0.0012
 2889TIP3    H230227   6.661   2.227   0.343 -1.2323 -1.1235  0.0677
 2890TIP3   OH230228   5.578   4.897   7.695 -0.1597 -0.0234 -0.1366
 2890TIP3    H130229   5.622   4.893   7.610 -1.2719  0.0671 -0.7437
 2890TIP3    H230230   5.616   4.826   7.746  1.1433  0.4562 -0.3876
 2891TIP3   OH230231   2.165   0.441   8.529 -0.3132  0.2715  0.2144
 2891TIP3    H130232   2.139   0.366   8.475  0.0528 -0.9318  1.6432
 2891TIP3    H230233   2.181   0.403   8.616  1.2628  1.7845  0.6311
 2892TIP3   OH230234   1.373   0.611   7.086  0.0406  0.2762 -0.1999
 2892TIP3    H130235   1.323   0.630   7.165 -1.2338 -0.7898 -0.7110
 2892TIP3    H230236   1.408   0.696   7.059  1.0661  0.5476  1.8419
 2893TIP3   OH230237   1.814   0.961   7.049  0.1337  0.2562  0.6382
 2893TIP3    H130238   1.817   0.935   6.957  3.4133  1.4888  0.2702
 2893TIP3    H230239   1.759   1.039   7.051  1.1110  1.0097 -0.5563
 2894TIP3   OH230240   0.607   0.986   2.571 -0.2743 -0.1768  0.2401
 2894TIP3    H130241   0.644   1.072   2.553 -0.1387 -0.6696 -2.2142
 2894TIP3    H230242   0.524   1.004   2.616 -0.6339  1.2952 -0.9287
 2895TIP3   OH230243   2.458   3.771   7.594  0.3440 -0.2429  0.5613
 2895TIP3    H130244   2.427   3.691   7.638 -0.3643 -1.4483 -1.9349
 2895TIP3    H230245   2.538   3.745   7.550 -0.3417  0.1503 -0.9782
 2896TIP3   OH230246   1.120   5.617   6.686  0.5250  0.3398 -0.3279
 2896TIP3    H130247   1.205   5.661   6.695 -0.0894  1.2018  2.3066
 2896TIP3    H230248   1.139   5.525   6.702  0.7467  0.8203  2.8455
 2897TIP3   OH230249   4.530   5.354   7.032 -0.3471  0.1028 -0.2001
 2897TIP3    H130250   4.451   5.388   7.074  0.7620  2.2764  0.3017
 2897TIP3    H230251   4.523   5.384   6.941  0.0365  0.5926 -0.0726
 2898TIP3   OH230252   2.809   6.514   0.549 -0.2106  0.1951 -0.3980
 2898TIP3    H130253   2.831   6.573   0.620  0.3880 -1.9391  1.3132
 2898TIP3    H230254   2.727   6.473   0.576 -0.4503 -0.0061 -1.3782
 2899TIP3   OH230255   0.030   5.532   1.097  0.0399 -0.5691  0.2990
 2899TIP3    H130256  -0.065   5.522   1.103  0.0645 -0.8523  0.2434
 2899TIP3    H230257   0.044   5.626   1.088 -0.3985 -0.6754 -2.3750
 2900TIP3   OH230258   3.618   3.570   0.195 -0.6505 -0.5310 -0.0734
 2900TIP3    H130259   3.702   3.614   0.185 -1.1321  0.6992  0.9911
 2900TIP3    H230260   3.637   3.492   0.247 -0.0048 -0.8789 -0.8077
 2901TIP3   OH230261   0.607   5.915   6.672 -0.6972 -0.2091  0.1311
 2901TIP3    H130262   0.691   5.899   6.630 -1.1573 -1.1506 -0.4636
 2901TIP3    H230263   0.571   5.828   6.690 -1.4708  0.1762  0.5313
 2902TIP3   OH230264   6.029   1.467   1.311  0.1752 -0.4185 -0.3933
 2902TIP3    H130265   6.124   1.457   1.318  0.4633  1.5332 -0.8302
 2902TIP3    H230266   6.015   1.561   1.317 -1.8747 -0.7465  0.9920
 2903TIP3   OH230267   0.887   1.969   2.492 -0.0541  0.5488  0.3011
 2903TIP3    H130268   0.841   2.036   2.441  0.8358 -0.2902 -1.7304
 2903TIP3    H230269   0.856   1.886   2.455  1.9588 -0.0554 -0.1311
 2904TIP3   OH230270   5.956   3.356   7.554  0.2407  0.3639 -0.1076
 2904TIP3    H130271   5.912   3.411   7.490  1.3599  0.5980 -0.6940
 2904TIP3    H230272   5.906   3.369   7.635 -0.7447  0.6250 -0.7429
 2905TIP3   OH230273   6.853   3.352   8.496  0.0875  0.2791  0.1261
 2905TIP3    H130274   6.834   3.278   8.438  0.0784  0.3488  0.0391
 2905TIP3    H230275   6.828   3.429   8.444  1.3173  0.4264 -0.2757
 2906TIP3   OH230276   2.236   5.392   0.275  0.1251 -0.2204 -0.6473
 2906TIP3    H130277   2.311   5.445   0.301  0.7711 -0.1156 -2.5952
 2906TIP3    H230278   2.161   5.436   0.316  1.1234 -0.6379  1.7798
 2907TIP3   OH230279   1.687   3.954   7.582 -0.4561 -0.4466 -0.0554
 2907TIP3    H130280   1.649   4.003   7.655  1.8552  2.2182 -0.4942
 2907TIP3    H230281   1.780   3.948   7.602 -0.0014 -0.9898 -2.0680
 2908TIP3   OH230282   5.876   1.842   0.003 -0.2272  0.0057 -0.1716
 2908TIP3    H130283   5.812   1.904  -0.033 -1.6890 -0.3524  1.6390
 2908TIP3    H230284   5.936   1.896   0.053  0.5762  0.2755 -1.3730
 2909TIP3   OH230285   4.687   1.621   0.659  0.0460 -0.0397 -0.8890
 2909TIP3    H130286   4.780   1.629   0.640  0.1126 -0.6276 -0.8128
 2909TIP3    H230287   4.666   1.699   0.711  0.8833 -0.7916  0.6393
 2910TIP3   OH230288   3.683   2.917   7.446 -0.1741 -0.4385 -0.4471
 2910TIP3    H130289   3.725   2.853   7.504  0.2975 -0.6782 -1.0470
 2910TIP3    H230290   3.602   2.875   7.418  0.9345 -1.5210 -2.2037
 2911TIP3   OH230291   3.336   0.806   2.324  0.8046  0.0317  0.0651
 2911TIP3    H130292   3.270   0.746   2.359 -0.9820  0.4100 -2.3662
 2911TIP3    H230293   3.319   0.889   2.370  0.1368 -0.0922  0.0534
 2912TIP3   OH230294   0.753   2.061   7.149  0.0241 -0.2952  0.5156
 2912TIP3    H130295   0.713   1.974   7.145  0.7717 -0.6302  0.0174
 2912TIP3    H230296   0.760   2.088   7.057 -1.3732  0.8552  0.7232
 2913TIP3   OH230297   2.291   2.420   6.738  0.0167  0.2140  0.4684
 2913TIP3    H130298   2.263   2.334   6.707  0.7121  0.0656  0.2418
 2913TIP3    H230299   2.354   2.450   6.673  1.4446 -0.0692  1.6628
 2914TIP3   OH230300   6.755   0.413   3.017 -0.0087 -0.2797 -0.3420
 2914TIP3    H130301   6.708   0.468   2.953  0.4523 -2.3265 -2.5889
 2914TIP3    H230302   6.695   0.341   3.034  0.5109 -0.5530  0.3510
 2915TIP3   OH230303   4.214   2.258   1.348  0.0946 -0.3941 -0.1812
 2915TIP3    H130304   4.207   2.340   1.300  0.7410  1.0521  2.0205
 2915TIP3    H230305   4.125   2.241   1.378  0.1782  0.3210  0.5333
 2916TIP3   OH230306   4.357   4.882   0.166  0.0548  0.6795 -0.3315
 2916TIP3    H130307   4.297   4.865   0.239  0.4914 -1.7324 -0.4600
 2916TIP3    H230308   4.358   4.800   0.116  1.8549  1.3582 -1.5119
 2917TIP3   OH230309   2.785   2.031   1.956 -0.1293 -0.3942 -0.1944
 2917TIP3    H130310   2.817   2.015   2.045 -0.6670 -1.3463 -0.1602
 2917TIP3    H230311   2.736   1.952   1.933  1.5114 -0.9620 -2.0322
 2918TIP3   OH230312   1.535   2.166   0.034 -0.4897 -0.0364 -0.7900
 2918TIP3    H130313   1.552   2.136   0.123 -0.3922  0.0758 -0.7709
 2918TIP3    H230314   1.620   2.163  -0.009 -0.6475 -0.7168 -1.0721
 2919TIP3   OH230315   5.305   6.846   1.976 -0.1766 -0.4373  0.2089
 2919TIP3    H130316   5.214   6.856   2.002 -0.4701 -1.5751 -0.3032
 2919TIP3    H230317   5.301   6.820   1.884  0.6759 -0.2313  0.1000
 2920TIP3   OH230318   3.123   3.751   8.084 -0.1737  0.3976  0.1122
 2920TIP3    H130319   3.203   3.702   8.065 -0.0308  1.0636 -1.1261
 2920TIP3    H230320   3.069   3.739   8.006 -1.1228  0.2711  0.7780
 2921TIP3   OH230321   2.110   1.684   0.537 -0.2098  0.4067 -0.4013
 2921TIP3    H130322   2.107   1.774   0.503  0.5725  0.2697 -0.8484
 2921TIP3    H230323   2.194   1.650   0.508  1.2330  0.7734  2.8686
 2922TIP3   OH230324   4.884   1.947   0.506 -0.0603  0.0409 -0.1168
 2922TIP3    H130325   4.909   1.975   0.594  0.8678  0.1722 -0.4091
 2922TIP3    H230326   4.913   2.019   0.449  0.7819 -0.7244 -0.6935
 2923TIP3   OH230327   4.872   4.189   1.424 -0.2756  0.1134 -0.0916
 2923TIP3    H130328   4.906   4.100   1.415 -2.0749 -0.5732 -0.4651
 2923TIP3    H230329   4.945   4.245   1.398  0.7755 -1.2528 -0.2076
 2924TIP3   OH230330   6.909   1.606   0.815  0.2530  0.1643 -0.1164
 2924TIP3    H130331   6.965   1.534   0.842 -0.5216  0.1951  1.7204
 2924TIP3    H230332   6.920   1.672   0.884 -1.9080  0.2138  0.2360
 2925TIP3   OH230333   6.648   4.295   7.328 -0.0035 -0.0463 -0.3102
 2925TIP3    H130334   6.720   4.340   7.373 -0.7787 -0.1947  1.1631
 2925TIP3    H230335   6.681   4.207   7.312  0.3328  0.0442 -0.1250
 2926TIP3   OH230336   6.150   5.811   1.517  0.2397 -0.0077 -0.2158
 2926TIP3    H130337   6.087   5.882   1.501 -0.7034 -0.8499 -0.3012
 2926TIP3    H230338   6.212   5.849   1.580 -1.4586  0.2315  1.4038
 2927TIP3   OH230339   2.292   5.377   0.885  0.0800 -0.6321  0.2901
 2927TIP3    H130340   2.245   5.303   0.924 -0.0788 -0.6402  0.0895
 2927TIP3    H230341   2.248   5.455   0.920 -0.2059 -0.6407 -0.0354
 2928TIP3   OH230342   4.190   5.031   7.627  0.0701  0.2281 -0.0399
 2928TIP3    H130343   4.201   4.936   7.619 -1.2251 -0.0460  1.1235
 2928TIP3    H230344   4.275   5.062   7.658  0.5333 -0.5334 -0.5091
 2929TIP3   OH230345   6.239   4.003   0.482  0.2837 -0.0672  0.1048
 2929TIP3    H130346   6.294   4.079   0.463  0.3863 -0.1157  0.2028
 2929TIP3    H230347   6.277   3.933   0.429  0.1091 -0.0193 -0.0868
 2930TIP3   OH230348   2.276   5.465   7.415 -0.3736  0.2097  0.4745
 2930TIP3    H130349   2.246   5.472   7.324 -0.0424  2.5114  0.4648
 2930TIP3    H230350   2.363   5.427   7.409 -1.1518 -1.6169  0.0558
 2931TIP3   OH230351   2.495   1.101   7.442  0.3277  0.7327 -0.1017
 2931TIP3    H130352   2.467   1.057   7.361 -0.4818  1.4560 -0.2309
 2931TIP3    H230353   2.465   1.191   7.432  0.2317  0.8393  1.0072
 2932TIP3   OH230354   1.847   3.132   8.205 -0.0292  0.0278  0.4295
 2932TIP3    H130355   1.847   3.067   8.135  1.5656  0.0276  0.3959
 2932TIP3    H230356   1.804   3.088   8.279 -0.5383 -0.4264 -0.1277
 2933TIP3   OH230357   1.060   4.633   0.617  0.8441 -0.2948 -0.3744
 2933TIP3    H130358   0.991   4.672   0.563  1.4154 -0.0565 -0.9531
 2933TIP3    H230359   1.018   4.614   0.700  0.0085 -0.4155 -0.8141
 2934TIP3   OH230360   0.713   6.614   7.409 -0.1059  0.3368 -0.4008
 2934TIP3    H130361   0.674   6.692   7.370 -2.0440  0.5759  1.8172
 2934TIP3    H230362   0.747   6.644   7.493 -0.2011 -1.0353  0.1515
 2935TIP3   OH230363   4.690   2.802   8.452 -0.6908  0.5900 -0.5339
 2935TIP3    H130364   4.740   2.880   8.476  0.1405 -0.0528 -0.1607
 2935TIP3    H230365   4.751   2.749   8.401 -1.3174  0.2647 -0.9611
 2936TIP3   OH230366   6.038   0.990   7.571 -0.6721  0.2473 -0.4490
 2936TIP3    H130367   6.130   0.974   7.548 -0.6006  0.0477 -0.0219
 2936TIP3    H230368   6.013   0.915   7.625 -0.7044  0.9452  0.5194
 2937TIP3   OH230369   5.412   4.538   0.417  0.5967 -0.0931  0.4665
 2937TIP3    H130370   5.324   4.574   0.406  0.8143  0.4934  0.6456
 2937TIP3    H230371   5.471   4.611   0.400  1.1412 -1.0201 -2.1237
 2938TIP3   OH230372   5.637   2.347   7.737 -0.0760  0.2081 -0.1226
 2938TIP3    H130373   5.561   2.376   7.788 -0.4086 -1.1937  0.2164
 2938TIP3    H230374   5.710   2.349   7.799  0.2981  1.9764 -0.5590
 2939TIP3   OH230375   3.486   6.442   0.226 -0.5211  0.1179 -0.4565
 2939TIP3    H130376   3.535   6.522   0.247  1.2138 -1.2530  1.0075
 2939TIP3    H230377   3.520   6.416   0.140  0.7434 -0.3464  0.1591
 2940TIP3   OH230378   6.383   0.458   2.157  0.6156  0.4850  0.3976
 2940TIP3    H130379   6.407   0.469   2.249  2.8074 -0.0095 -0.0518
 2940TIP3    H230380   6.355   0.545   2.129  0.0501  0.6699  1.4939
 2941TIP3   OH230381   0.952   6.683   1.965 -0.7039 -0.6017 -0.1810
 2941TIP3    H130382   0.877   6.736   1.935  0.4050  1.0122 -0.2177
 2941TIP3    H230383   0.998   6.659   1.885  0.6779  1.3197 -0.0389
 2942TIP3   OH230384   0.229   2.921   8.368  0.1008 -0.1809 -0.1265
 2942TIP3    H130385   0.315   2.924   8.409  0.1152  0.5290 -0.1974
 2942TIP3    H230386   0.171   2.966   8.430 -0.4780 -1.7205  0.5067
 2943TIP3   OH230387   6.086   1.266   1.988  0.5879 -0.0402  0.0831
 2943TIP3    H130388   6.154   1.302   2.045  0.6085 -0.0516  0.0654
 2943TIP3    H230389   6.007   1.312   2.014  0.8336  0.8651 -0.7415
 2944TIP3   OH230390   6.173   4.809   1.547  0.3202  0.0884  0.1150
 2944TIP3    H130391   6.151   4.716   1.542 -0.3350 -0.0196  3.2385
 2944TIP3    H230392   6.124   4.849   1.475 -1.5225 -1.6549  0.3079
 2945TIP3   OH230393   1.980   0.260   8.380 -0.0068 -0.3314 -0.0699
 2945TIP3    H130394   1.893   0.275   8.417  0.7575 -0.2180  1.7982
 2945TIP3    H230395   1.977   0.170   8.346 -0.8848 -0.2804 -0.1430
 2946TIP3   OH230396   0.367   3.735   1.188 -0.1662  0.2376  0.4019
 2946TIP3    H130397   0.285   3.715   1.233 -1.3630  2.8634 -0.4353
 2946TIP3    H230398   0.427   3.761   1.257 -0.5516 -0.0807  0.8662
 2947TIP3   OH230399   4.022   0.986   1.754  0.4373 -0.8830  0.3542
 2947TIP3    H130400   4.075   0.907   1.742 -1.6441 -2.2798 -0.1286
 2947TIP3    H230401   4.008   0.990   1.849 -0.6866 -2.0056  0.2673
 2948TIP3   OH230402   4.970   5.144   7.749 -0.0299  0.3347 -0.2752
 2948TIP3    H130403   4.957   5.145   7.654 -1.4607  1.2667 -0.0956
 2948TIP3    H230404   4.921   5.220   7.781 -0.0769 -0.3128  1.2711
 2949TIP3   OH230405   5.435   1.634   1.175 -0.7796 -0.3728  0.3001
 2949TIP3    H130406   5.428   1.663   1.266  0.0470 -1.1575  0.6326
 2949TIP3    H230407   5.347   1.645   1.139 -0.7644  1.3955  0.7311
 2950TIP3   OH230408   0.302   3.331   6.768  0.0004 -0.5706  0.6556
 2950TIP3    H130409   0.331   3.411   6.726 -1.5449 -0.8595 -1.0948
 2950TIP3    H230410   0.378   3.273   6.765  0.0870 -0.4265 -1.4646
 2951TIP3   OH230411   0.692   5.649   7.554 -0.8261 -0.2450  0.3947
 2951TIP3    H130412   0.734   5.694   7.628  1.9724  0.6329 -1.5742
 2951TIP3    H230413   0.638   5.715   7.512 -0.6516 -0.1160  0.3733
 2952TIP3   OH230414   1.747   5.394   2.300 -0.4772  0.2255 -0.3692
 2952TIP3    H130415   1.675   5.365   2.357  0.5489 -1.3286  0.2171
 2952TIP3    H230416   1.820   5.408   2.360  0.6741 -1.6012 -1.2392
 2953TIP3   OH230417   0.556   6.228   8.038  0.2474  0.1631  0.2803
 2953TIP3    H130418   0.640   6.254   7.999  0.2210  1.5178  1.0256
 2953TIP3    H230419   0.570   6.239   8.132  0.3543 -3.1377  0.7479
 2954TIP3   OH230420   6.257   5.890   2.602 -0.0539 -0.5406  0.4472
 2954TIP3    H130421   6.348   5.883   2.632  0.9152 -0.8611 -2.2849
 2954TIP3    H230422   6.220   5.963   2.652  1.5739 -0.6278  1.8614
 2955TIP3   OH230423   6.837   1.956   2.525 -0.0475 -0.4486 -0.1031
 2955TIP3    H130424   6.835   1.880   2.584  2.1973 -2.0319 -1.9096
 2955TIP3    H230425   6.928   1.986   2.528  0.3361 -1.0200 -3.1704
 2956TIP3   OH230426   3.271   4.658   7.722 -0.3875 -0.0726 -0.3529
 2956TIP3    H130427   3.365   4.639   7.726 -0.3601 -0.4169 -2.0685
 2956TIP3    H230428   3.252   4.700   7.806  2.1000  3.4021 -1.2613
 2957TIP3   OH230429   5.145   0.929   2.330 -0.1221  0.2887 -0.3277
 2957TIP3    H130430   5.067   0.962   2.376 -0.4073  1.4665 -1.5848
 2957TIP3    H230431   5.129   0.835   2.320 -0.6802  0.2510  0.7444
 2958TIP3   OH230432   4.099   5.267   7.142 -0.0573  0.2974  0.7187
 2958TIP3    H130433   4.055   5.304   7.219 -0.1045  0.9230  0.4019
 2958TIP3    H230434   4.086   5.173   7.149 -0.8845  0.4260  0.9737
 2959TIP3   OH230435   0.234   0.066   2.643  0.5552 -0.1643 -0.2309
 2959TIP3    H130436   0.268   0.146   2.682 -1.0393  0.4228  0.0553
 2959TIP3    H230437   0.273   0.063   2.556  0.9955  0.6911 -0.0741
 2960TIP3   OH230438   1.693   6.738   8.434  0.2383  0.8942  0.3077
 2960TIP3    H130439   1.774   6.687   8.445 -0.0977  0.3150  0.1535
 2960TIP3    H230440   1.640   6.715   8.510 -0.1936  0.4766 -0.1096
 2961TIP3   OH230441   4.278   6.128   0.931  0.9054  0.2706  0.2704
 2961TIP3    H130442   4.366   6.148   0.899  1.1215  1.1252  1.3443
 2961TIP3    H230443   4.223   6.131   0.852  1.8454 -0.4336 -0.4376
 2962TIP3   OH230444   2.669   5.973   7.936  0.7752 -0.2403 -0.0441
 2962TIP3    H130445   2.599   5.977   7.871  0.6938  0.2379  0.0675
 2962TIP3    H230446   2.726   6.047   7.914  0.3501  0.3872  0.8704
 2963TIP3   OH230447   6.466   1.992   0.315  0.8251  0.6331 -0.0018
 2963TIP3    H130448   6.557   2.021   0.324  1.1673  0.0859 -1.3606
 2963TIP3    H230449   6.417   2.072   0.298  0.7741  1.1419  2.2613
 2964TIP3   OH230450   4.558   4.215   0.968  0.3768 -0.3716  0.0186
 2964TIP3    H130451   4.559   4.311   0.958 -0.1574 -0.4711 -1.0975
 2964TIP3    H230452   4.579   4.201   1.061  1.2166  0.7947  0.0275
 2965TIP3   OH230453   5.411   5.326   1.035 -0.2720 -0.0111 -0.2951
 2965TIP3    H130454   5.359   5.284   0.967  3.1568 -0.7919 -2.7409
 2965TIP3    H230455   5.378   5.416   1.039 -4.0354 -1.2504  1.0138
 2966TIP3   OH230456   4.881   3.540   6.908  0.3891 -0.5252  0.0286
 2966TIP3    H130457   4.800   3.564   6.863  0.9670  0.0734 -0.7451
 2966TIP3    H230458   4.949   3.547   6.840  1.6491  2.4665  1.4132
 2967TIP3   OH230459   1.588   3.154   0.478 -0.3134 -0.0991 -0.1249
 2967TIP3    H130460   1.639   3.103   0.541  1.6953 -1.2871 -2.5296
 2967TIP3    H230461   1.617   3.244   0.491  0.6964 -0.4435  0.0992
 2968TIP3   OH230462   3.923   2.064   1.111  0.3462  0.7970 -0.0767
 2968TIP3    H130463   3.842   2.072   1.161 -0.3470 -0.0226 -1.0582
 2968TIP3    H230464   3.954   1.976   1.129  0.3522  0.6696 -0.6963
 2969TIP3   OH230465   0.525   4.101   7.020  0.3581 -0.4817 -0.0736
 2969TIP3    H130466   0.587   4.134   7.086  0.5592  1.3382 -1.1097
 2969TIP3    H230467   0.439   4.123   7.056  0.5030  2.5889 -1.3322
 2970TIP3   OH230468   0.202   0.395   6.394  0.3833 -0.0121 -0.2596
 2970TIP3    H130469   0.262   0.422   6.463  1.7145 -0.3819 -1.2454
 2970TIP3    H230470   0.155   0.475   6.371  0.7469  0.3622  0.2743
 2971TIP3   OH230471   6.688   6.062   2.303 -0.3374  0.2737  0.2071
 2971TIP3    H130472   6.783   6.064   2.298 -0.3590  2.6211 -0.7881
 2971TIP3    H230473   6.659   6.071   2.212 -1.4745  1.2924  0.6395
 2972TIP3   OH230474   5.514   6.637   0.652 -0.2170  0.5092  0.2440
 2972TIP3    H130475   5.480   6.696   0.719  0.5820 -1.2272  2.3135
 2972TIP3    H230476   5.455   6.562   0.654  0.7562 -0.2837  0.2156
 2973TIP3   OH230477   1.637   3.841   7.914  0.1089  0.0003  0.1697
 2973TIP3    H130478   1.597   3.813   7.832  0.1901 -0.8948  0.4335
 2973TIP3    H230479   1.634   3.764   7.970  0.4978  0.4681  0.8423
 2974TIP3   OH230480   2.289   2.662   7.738  0.1991 -0.1787  0.4897
 2974TIP3    H130481   2.318   2.725   7.672 -0.9573 -1.1483 -1.0133
 2974TIP3    H230482   2.369   2.630   7.778  0.8300  2.0022  1.0841
 2975TIP3   OH230483   3.957   4.970   8.413  0.4212 -0.1395 -0.6304
 2975TIP3    H130484   3.932   4.902   8.350 -0.0218 -1.2594  0.6836
 2975TIP3    H230485   3.926   5.052   8.375 -0.1727 -0.8317 -1.6702
 2976TIP3   OH230486   3.184   5.022   2.116  0.7101  0.2064  0.0088
 2976TIP3    H130487   3.142   5.033   2.201 -0.6948  1.7620 -0.8282
 2976TIP3    H230488   3.246   5.095   2.112 -0.1514  0.9112 -0.7993
 2977TIP3   OH230489   6.207   4.781   7.483 -0.0553  0.3525 -0.2280
 2977TIP3    H130490   6.148   4.740   7.420 -0.5625 -0.5009  0.7711
 2977TIP3    H230491   6.252   4.849   7.433 -0.5756 -0.1747 -1.4565
 2978TIP3   OH230492   1.563   6.782   7.891 -0.7549 -0.0801  0.3380
 2978TIP3    H130493   1.657   6.763   7.887 -1.2544 -2.5886 -1.1607
 2978TIP3    H230494   1.556   6.855   7.954  2.2312  0.6810 -0.0647
 2979TIP3   OH230495   3.509   6.806   8.376  0.2781  0.5081  0.5729
 2979TIP3    H130496   3.460   6.886   8.396  0.0912  0.4609  0.3141
 2979TIP3    H230497   3.568   6.832   8.305 -0.7303  0.0844 -0.4483
 2980TIP3   OH230498   5.316   3.285   2.392 -0.3177 -0.0988  0.2237
 2980TIP3    H130499   5.392   3.229   2.406  0.0386  0.4878  0.6868
 2980TIP3    H230500   5.241   3.226   2.397  0.0133 -0.4575  1.1998
 2981TIP3   OH230501   4.459   5.919   8.155 -0.0413 -0.3479 -0.1466
 2981TIP3    H130502   4.374   5.951   8.125 -0.6283  0.2237  1.9655
 2981TIP3    H230503   4.461   5.828   8.127 -0.6360  0.0666 -1.6355
 2982TIP3   OH230504   6.434   2.658   1.949 -0.1614  0.2159  0.1446
 2982TIP3    H130505   6.399   2.613   1.873 -0.3621 -0.1369  0.4463
 2982TIP3    H230506   6.441   2.750   1.922 -0.1436  0.0739 -0.3274
 2983TIP3   OH230507   1.152   2.705   6.872 -0.2851 -0.0111 -0.4984
 2983TIP3    H130508   1.093   2.758   6.926 -1.6204 -1.2649 -0.6440
 2983TIP3    H230509   1.188   2.640   6.933 -0.9605 -0.7573 -0.8723
 2984TIP3   OH230510   0.583   6.607   8.102 -0.3093  0.1554  0.4645
 2984TIP3    H130511   0.591   6.615   8.007  1.7667 -2.6222  0.2859
 2984TIP3    H230512   0.666   6.568   8.130 -0.9443  0.6783  3.4134
 2985TIP3   OH230513   5.280   1.251   1.129  0.2902 -0.3508  0.5533
 2985TIP3    H130514   5.206   1.279   1.183  0.6795  1.5220  0.2068
 2985TIP3    H230515   5.357   1.276   1.180  0.6845 -0.9885  0.2837
 2986TIP3   OH230516   6.283   1.726   1.553  0.0410 -0.0416 -0.5649
 2986TIP3    H130517   6.280   1.669   1.629  0.6237  1.8601  0.9572
 2986TIP3    H230518   6.331   1.676   1.487 -0.5100 -1.7456  0.2743
 2987TIP3   OH230519   3.177   5.379   7.744 -0.0358  0.1930  0.3484
 2987TIP3    H130520   3.141   5.319   7.678 -0.8977  2.2692 -1.1846
 2987TIP3    H230521   3.126   5.360   7.823 -2.9934  1.3822 -1.1223
 2988TIP3   OH230522   1.402   4.563   2.393 -0.1072  0.0973  0.2421
 2988TIP3    H130523   1.437   4.506   2.462 -1.2709  0.6059  1.2987
 2988TIP3    H230524   1.434   4.650   2.417 -1.3699  0.4365  0.7446
 2989TIP3   OH230525   0.497   3.666   0.394 -0.1870  0.3353 -0.0843
 2989TIP3    H130526   0.518   3.644   0.485 -0.6752 -2.9790 -0.6352
 2989TIP3    H230527   0.530   3.755   0.382  0.7843  0.5048  3.0217
 2990TIP3   OH230528   5.821   1.261   1.722 -0.2548 -0.1530 -0.3075
 2990TIP3    H130529   5.731   1.254   1.689  0.6471  0.5406 -3.2920
 2990TIP3    H230530   5.814   1.311   1.802 -2.4534  0.8225 -1.0379
 2991TIP3   OH230531   5.274   0.808   7.007 -0.6378 -0.4890 -0.5466
 2991TIP3    H130532   5.236   0.778   7.090 -1.8110  0.2636 -0.7856
 2991TIP3    H230533   5.241   0.745   6.942 -1.0840 -0.1252 -0.6789
 2992TIP3   OH230534   0.789   1.826   1.323 -0.1914  0.7152 -0.2956
 2992TIP3    H130535   0.868   1.866   1.358 -1.5048  1.8099  1.6023
 2992TIP3    H230536   0.801   1.732   1.337 -0.6795  1.0823  3.4305
 2993TIP3   OH230537   1.086   4.268   8.231  0.1271  0.0542  0.4527
 2993TIP3    H130538   1.170   4.254   8.187  0.5843 -0.7564  1.5357
 2993TIP3    H230539   1.084   4.362   8.248  0.8179  0.0918  0.3794
 2994TIP3   OH230540   1.250   3.653   1.371  1.1251  0.0036  0.1510
 2994TIP3    H130541   1.297   3.662   1.288  1.2016  1.7684  0.3493
 2994TIP3    H230542   1.158   3.646   1.345  1.0549  1.5632 -0.0620
 2995TIP3   OH230543   4.848   3.583   1.765  0.2807  0.3083 -0.1170
 2995TIP3    H130544   4.811   3.670   1.752 -0.6845 -0.0324  0.2661
 2995TIP3    H230545   4.941   3.593   1.744  0.0971  1.3241 -0.4990
 2996TIP3   OH230546   0.110   2.323   0.954 -0.0733  0.9504  0.4366
 2996TIP3    H130547   0.193   2.278   0.969  1.8574  4.1324  0.0374
 2996TIP3    H230548   0.097   2.376   1.033 -0.3685  2.4045 -0.5617
 2997TIP3   OH230549   4.948   3.257   7.389 -0.2097 -0.4949  0.4500
 2997TIP3    H130550   4.873   3.303   7.352 -1.2477 -3.2583 -1.1632
 2997TIP3    H230551   4.910   3.185   7.440  1.3018 -1.2387  0.5872
 2998TIP3   OH230552   4.797   6.645   0.121  0.4094  0.6450  0.2580
 2998TIP3    H130553   4.800   6.627   0.215 -1.3888  0.0166  0.2402
 2998TIP3    H230554   4.842   6.569   0.081 -0.8333 -0.2672  0.5320
 2999TIP3   OH230555   3.148   2.058   6.991  0.4317  0.4084  0.1613
 2999TIP3    H130556   3.126   2.121   7.059  0.1012  0.0300  0.4086
 2999TIP3    H230557   3.239   2.077   6.969  0.6404  0.3273  0.9275
 3000TIP3   OH230558   5.659   4.474   7.626  0.0925 -0.0604 -0.1624
 3000TIP3    H130559   5.593   4.542   7.612  0.9747  0.7825 -0.2825
 3000TIP3    H230560   5.626   4.424   7.701 -0.6780  0.3499 -0.2187
 3001TIP3   OH230561   1.925   6.904   8.296  0.3309  0.7085 -0.0504
 3001TIP3    H130562   1.999   6.845   8.285  0.3385  0.6800  0.1461
 3001TIP3    H230563   1.881   6.873   8.375 -1.2837 -0.7856 -1.4356
 3002TIP3   OH230564   1.464   5.122   2.442 -0.1386  0.3632 -0.2144
 3002TIP3    H130565   1.544   5.132   2.493 -0.6080  3.7782  0.0981
 3002TIP3    H230566   1.494   5.106   2.353  0.8588  0.4468  0.0948
 3003TIP3   OH230567   4.952   1.619   8.413 -0.4582  0.2539  1.0240
 3003TIP3    H130568   4.970   1.526   8.396 -0.5858  0.1732  1.3162
 3003TIP3    H230569   4.924   1.654   8.329  0.5536  0.2570  0.6780
 3004TIP3   OH230570   5.260   2.991   1.255  0.0277  0.0968  0.1038
 3004TIP3    H130571   5.314   3.041   1.193 -0.4569  0.6608  0.1303
 3004TIP3    H230572   5.212   2.929   1.200 -0.0751  0.3014 -0.0426
 3005TIP3   OH230573   1.070   5.408   2.271  0.6803 -0.1141 -0.3220
 3005TIP3    H130574   0.987   5.372   2.303  0.1337  1.0931 -0.3049
 3005TIP3    H230575   1.135   5.377   2.333  0.2516 -1.0721 -0.3221
 3006TIP3   OH230576   6.311   3.144   2.595  0.1720  0.3680  0.6534
 3006TIP3    H130577   6.335   3.204   2.665 -0.6759  0.1238  1.1658
 3006TIP3    H230578   6.374   3.162   2.525 -0.6750  2.5644  0.3890
 3007TIP3   OH230579   6.008   1.173   1.411 -0.0725  0.1858 -0.4958
 3007TIP3    H130580   5.960   1.244   1.454 -1.7101 -0.6113 -0.9333
 3007TIP3    H230581   6.025   1.205   1.323  1.4642  1.0015  0.0527
 3008TIP3   OH230582   4.277   5.232   7.961 -0.1160  0.6311 -0.2434
 3008TIP3    H130583   4.307   5.173   7.891  0.4978  0.4041  0.2047
 3008TIP3    H230584   4.199   5.189   7.996  0.8276 -0.3897  0.6688
 3009TIP3   OH230585   1.503   3.130   1.521 -0.3972  0.0137 -0.1888
 3009TIP3    H130586   1.561   3.199   1.488  0.6080 -0.6001  0.2220
 3009TIP3    H230587   1.450   3.104   1.445 -0.5376  0.9872 -0.4271
 3010TIP3   OH230588   3.613   4.394   6.585  0.7541 -0.4602  0.5226
 3010TIP3    H130589   3.580   4.482   6.601 -0.4564 -0.8427  0.2447
 3010TIP3    H230590   3.686   4.385   6.646  0.7630  0.6571  0.7053
 3011TIP3   OH230591   5.312   5.788   0.855 -0.2875 -0.3151 -0.0396
 3011TIP3    H130592   5.370   5.859   0.829 -0.6552  0.2898  0.7550
 3011TIP3    H230593   5.370   5.717   0.882  0.0839  0.1524  0.3938
 3012TIP3   OH230594   1.116   1.511   0.188 -0.6382 -0.0413 -0.4255
 3012TIP3    H130595   1.049   1.549   0.244  0.7256  0.4572  0.9605
 3012TIP3    H230596   1.144   1.432   0.235  0.2581  0.1708 -0.5866
 3013TIP3   OH230597   6.248   0.972   1.975 -0.2566  0.4481 -0.1733
 3013TIP3    H130598   6.201   1.003   1.898 -0.1664  0.8016 -0.0913
 3013TIP3    H230599   6.186   0.982   2.047  0.5852  3.0082  0.3380
 3014TIP3   OH230600   4.319   4.789   8.032 -0.3502 -0.5295  0.3477
 3014TIP3    H130601   4.327   4.762   7.941 -0.6906 -0.0002  0.1496
 3014TIP3    H230602   4.272   4.717   8.075 -0.0866 -0.8300  0.1298
 3015TIP3   OH230603   4.285   5.048   1.373 -0.8432  0.6992 -0.3352
 3015TIP3    H130604   4.339   5.067   1.450 -0.5751 -0.3017 -0.2614
 3015TIP3    H230605   4.211   5.109   1.379  0.5210  2.4977 -0.7274
 3016TIP3   OH230606   0.914   0.467   0.279 -0.1459 -0.3886  0.2545
 3016TIP3    H130607   0.887   0.559   0.275 -1.6262 -0.8521 -1.5359
 3016TIP3    H230608   0.938   0.445   0.189 -2.2525 -2.4377  0.1199
 3017TIP3   OH230609   0.466   1.459   7.381  0.7887 -0.4726  0.2233
 3017TIP3    H130610   0.371   1.471   7.388  0.4131 -2.8288 -0.0283
 3017TIP3    H230611   0.499   1.545   7.357 -1.3396  0.2876 -0.2285
 3018TIP3   OH230612   1.519   5.763   1.033  0.7778 -0.4704  0.3900
 3018TIP3    H130613   1.564   5.837   0.991 -0.4594  0.1337  0.0775
 3018TIP3    H230614   1.433   5.798   1.056  0.1363 -1.8574  0.1609
 3019TIP3   OH230615   5.625   3.905   0.677  0.2763 -0.0016  0.6356
 3019TIP3    H130616   5.552   3.888   0.618 -0.5382 -1.5448  1.9986
 3019TIP3    H230617   5.684   3.963   0.628 -0.6447 -0.7366 -1.4143
 3020TIP3   OH230618   0.417   0.312   2.097 -0.5429  0.0737 -0.1619
 3020TIP3    H130619   0.403   0.238   2.157 -1.4859  0.7213  0.4368
 3020TIP3    H230620   0.395   0.276   2.010 -0.6912 -0.4292  0.0778
 3021TIP3   OH230621   1.037   5.510   6.957 -0.5556  0.2416  0.7355
 3021TIP3    H130622   1.027   5.440   6.892  1.1461 -0.9994  1.7167
 3021TIP3    H230623   0.952   5.513   7.002 -1.1128 -0.1984 -0.2456
 3022TIP3   OH230624   3.880   3.107   7.522  0.6559 -0.3430  0.2156
 3022TIP3    H130625   3.896   3.147   7.608 -0.3435  1.3042 -0.3302
 3022TIP3    H230626   3.836   3.024   7.543  0.1970  0.1490  1.2885
 3023TIP3   OH230627   5.194   5.902   0.518  0.2320  0.1000  0.2424
 3023TIP3    H130628   5.149   5.927   0.599 -1.8378  0.1340 -0.8627
 3023TIP3    H230629   5.165   5.965   0.453  0.6060 -0.8693 -0.9122
 3024TIP3   OH230630   5.789   3.015   1.538  0.8493 -0.4943 -0.4283
 3024TIP3    H130631   5.774   3.035   1.630 -0.4370 -3.2230  0.0335
 3024TIP3    H230632   5.779   3.099   1.493 -3.1877  0.1974  1.3815
 3025TIP3   OH230633   4.014   2.784   7.435 -0.5465  0.6092 -0.0138
 3025TIP3    H130634   4.076   2.718   7.403 -1.4709  0.6622 -2.0395
 3025TIP3    H230635   3.971   2.742   7.510 -0.6230 -0.8489 -0.8253
 3026TIP3   OH230636   6.798   3.586   1.283  0.3618 -0.1024  0.4705
 3026TIP3    H130637   6.725   3.643   1.260 -1.0659 -1.4647  1.4404
 3026TIP3    H230638   6.817   3.538   1.203 -0.5435 -0.4967  0.4757
 3027TIP3   OH230639   1.873   3.877   6.331 -0.0427 -0.2784 -0.2654
 3027TIP3    H130640   1.842   3.963   6.304 -1.2605 -0.1726  1.3412
 3027TIP3    H230641   1.799   3.837   6.375  0.2918 -2.4319 -1.5048
 3028TIP3   OH230642   6.329   0.718   1.227 -0.2479  0.3393 -0.4448
 3028TIP3    H130643   6.280   0.743   1.149 -1.9056  0.1495  0.4923
 3028TIP3    H230644   6.283   0.760   1.299 -1.3306 -2.8089  0.8863
 3029TIP3   OH230645   5.935   6.138   1.820  0.1505  0.1332 -0.2402
 3029TIP3    H130646   5.871   6.208   1.807 -0.8005 -0.5608  0.5207
 3029TIP3    H230647   5.886   6.057   1.804  0.8976 -0.4101  0.1513
 3030TIP3   OH230648   1.158   4.583   1.999  0.1503  0.1965  0.6150
 3030TIP3    H130649   1.139   4.492   2.021 -2.1493  0.6573  0.8245
 3030TIP3    H230650   1.096   4.633   2.051  0.4696  1.8128 -0.4934
 3031TIP3   OH230651   5.763   0.193   1.982  0.3818 -0.1162  0.2840
 3031TIP3    H130652   5.717   0.232   1.908  0.3135 -1.7082 -0.5440
 3031TIP3    H230653   5.742   0.250   2.056  1.0585  1.9542 -1.0363
 3032TIP3   OH230654   4.705   5.488   0.462 -0.0483 -0.2025  0.2316
 3032TIP3    H130655   4.753   5.495   0.380 -1.3799 -1.4522 -0.7063
 3032TIP3    H230656   4.638   5.557   0.457 -0.5069 -0.6614 -0.0094
 3033TIP3   OH230657   4.850   1.416   1.155  0.0345 -0.2831 -0.5338
 3033TIP3    H130658   4.772   1.372   1.123 -0.4914 -0.8024  1.3050
 3033TIP3    H230659   4.847   1.503   1.115 -2.2919  0.2206  0.5686
 3034TIP3   OH230660   3.446   3.981   8.056 -0.5718 -0.2789 -0.2618
 3034TIP3    H130661   3.353   3.967   8.073 -0.7910  0.9759 -0.3399
 3034TIP3    H230662   3.461   3.938   7.971 -1.0077 -0.7205 -0.1203
 3035TIP3   OH230663   0.673   3.501   7.835 -0.0459  0.6058  0.3413
 3035TIP3    H130664   0.649   3.593   7.849 -0.0891  0.6845 -0.2090
 3035TIP3    H230665   0.614   3.472   7.765 -2.3291 -0.7907  2.6589
 3036TIP3   OH230666   6.772   0.678   0.622 -0.4008 -0.3686  0.3945
 3036TIP3    H130667   6.696   0.667   0.680 -1.5868  0.8899 -0.8454
 3036TIP3    H230668   6.784   0.772   0.616  0.5269 -0.5193 -0.3794
 3037TIP3   OH230669   1.613   6.002   8.159 -0.3436  0.0400  0.1158
 3037TIP3    H130670   1.523   6.011   8.128 -1.0897  0.3777  2.2842
 3037TIP3    H230671   1.640   6.091   8.183 -0.3855 -0.3987  1.9175
 3038TIP3   OH230672   1.576   1.544   8.202  0.3400 -0.0126  0.0772
 3038TIP3    H130673   1.623   1.523   8.283  1.1096  0.8141 -0.1386
 3038TIP3    H230674   1.509   1.607   8.228 -0.1602 -0.6204  0.2612
 3039TIP3   OH230675   0.215   0.015   1.643 -0.7049  0.2492 -0.2868
 3039TIP3    H130676   0.188  -0.077   1.647  0.5582 -0.2855 -2.2084
 3039TIP3    H230677   0.308   0.014   1.663 -0.3057  0.8353 -1.8999
 3040TIP3   OH230678   1.963   6.630   2.590 -0.0795 -0.7454 -0.3964
 3040TIP3    H130679   2.018   6.558   2.620  0.7596 -0.1308 -0.4494
 3040TIP3    H230680   1.990   6.705   2.642  0.6244  0.0664 -1.8611
 3041TIP3   OH230681   4.924   6.821   0.452 -0.9324  0.1105 -0.1523
 3041TIP3    H130682   4.833   6.806   0.477 -0.8288  0.2145  0.2879
 3041TIP3    H230683   4.925   6.910   0.417 -0.8483  0.4025  0.5823
 3042TIP3   OH230684   4.352   4.446   1.839 -0.3865  0.1778 -0.1177
 3042TIP3    H130685   4.429   4.391   1.826  1.0495  2.0609 -0.0107
 3042TIP3    H230686   4.387   4.535   1.847 -2.3806  0.8669  2.1364
 3043TIP3   OH230687   6.091   4.308   0.944  0.2187  0.2379  0.2651
 3043TIP3    H130688   6.069   4.300   1.037  0.7096  0.2210  0.3812
 3043TIP3    H230689   6.030   4.248   0.900 -1.1057  1.4247  0.4067
 3044TIP3   OH230690   6.915   3.923   7.945 -0.4560 -0.3170  0.2016
 3044TIP3    H130691   6.924   3.835   7.981 -0.3265 -0.1731  0.5260
 3044TIP3    H230692   6.955   3.918   7.859  1.7007  0.0055  1.1194
 3045TIP3   OH230693   6.106   2.621   7.376  0.0758 -0.4412  0.2233
 3045TIP3    H130694   6.029   2.656   7.331  0.5100 -1.0112 -0.9862
 3045TIP3    H230695   6.070   2.553   7.434 -0.2696 -1.2452 -0.9075
 3046TIP3   OH230696   5.803   1.610   8.228 -0.8648 -0.1695  0.5560
 3046TIP3    H130697   5.884   1.558   8.219  0.5530  1.8744  0.8662
 3046TIP3    H230698   5.734   1.550   8.200  1.1471 -0.5233 -4.9812
 3047TIP3   OH230699   2.820   4.932   8.190 -0.0514 -0.1242  0.2214
 3047TIP3    H130700   2.801   4.870   8.260  0.3517 -0.0546  0.3932
 3047TIP3    H230701   2.779   5.014   8.218  0.0126 -0.1268  0.3226
 3048TIP3   OH230702   2.931   4.552   6.326  0.1041  0.3819  0.0786
 3048TIP3    H130703   2.954   4.588   6.240 -0.9225  0.9219  0.0182
 3048TIP3    H230704   2.931   4.457   6.313  2.9058  0.2879  0.2624
 3049TIP3   OH230705   4.509   0.946   0.259 -0.0746 -0.3581 -0.2532
 3049TIP3    H130706   4.550   1.025   0.295  0.1343 -0.2011 -0.8154
 3049TIP3    H230707   4.572   0.876   0.276 -0.3018 -0.4240  0.3294
 3050TIP3   OH230708   5.761   0.122   6.387  0.3526  0.3732 -0.1529
 3050TIP3    H130709   5.752   0.086   6.476  1.8567 -1.3999 -0.6387
 3050TIP3    H230710   5.827   0.191   6.395  0.9124 -0.1710  0.0486
 3051TIP3   OH230711   3.888   3.949   1.762  0.2991 -0.1039 -0.0567
 3051TIP3    H130712   3.831   3.902   1.703 -0.4755  1.2912 -0.4742
 3051TIP3    H230713   3.847   3.940   1.848 -0.2121  0.3397 -0.2464
 3052TIP3   OH230714   6.058   6.388   2.037  0.5704 -0.4653 -0.1912
 3052TIP3    H130715   6.005   6.448   1.985 -0.3575 -1.7672 -0.8174
 3052TIP3    H230716   5.995   6.330   2.079  1.4037 -0.5916  0.9428
 3053TIP3   OH230717   2.671   3.090   1.294  0.2626 -0.8024  0.0540
 3053TIP3    H130718   2.618   3.120   1.220  1.5754 -1.4996 -1.2311
 3053TIP3    H230719   2.697   3.001   1.270 -0.2461 -1.5142  1.9288
 3054TIP3   OH230720   1.729   1.556   6.995 -0.4338  0.5831 -0.0440
 3054TIP3    H130721   1.798   1.523   6.938 -2.7495 -1.2897 -2.0086
 3054TIP3    H230722   1.664   1.593   6.935 -0.7944  3.2044  1.7683
 3055TIP3   OH230723   3.551   5.240   0.680  0.1883  0.7566 -0.1518
 3055TIP3    H130724   3.477   5.199   0.725 -1.3616  0.9737 -2.2997
 3055TIP3    H230725   3.513   5.273   0.598  3.0166 -0.8622 -2.3272
 3056TIP3   OH230726   1.649   4.070   8.104  0.1830 -0.0245 -0.1630
 3056TIP3    H130727   1.682   4.027   8.183 -1.9609 -0.3295  0.6272
 3056TIP3    H230728   1.627   3.998   8.045 -0.1936  0.1150 -0.1967
 3057TIP3   OH230729   3.134   6.620   1.564  0.0825 -0.3140 -0.1478
 3057TIP3    H130730   3.115   6.558   1.635  0.2567  1.4702  1.5272
 3057TIP3    H230731   3.048   6.645   1.530 -0.2865  1.4633  1.8651
 3058TIP3   OH230732   3.916   3.502   0.839 -0.7438 -0.2331 -0.5111
 3058TIP3    H130733   3.829   3.539   0.852 -1.7650 -1.8258 -2.2892
 3058TIP3    H230734   3.957   3.505   0.926 -1.7991  2.3146 -0.0197
 3059TIP3   OH230735   3.440   3.881   0.226 -0.0957  0.0737  0.1795
 3059TIP3    H130736   3.522   3.888   0.177  0.2477  0.3693  0.7841
 3059TIP3    H230737   3.400   3.800   0.194  0.6254 -0.2805  0.1583
 3060TIP3   OH230738   6.218   3.850   0.689  0.0112 -0.3676 -0.1204
 3060TIP3    H130739   6.221   3.915   0.619 -0.3222 -1.0973 -0.8204
 3060TIP3    H230740   6.244   3.899   0.768  1.3429  0.2497 -0.8972
 3061TIP3   OH230741   1.540   3.832   1.311  0.5438 -0.2247  0.6232
 3061TIP3    H130742   1.557   3.784   1.230 -1.2863  0.3606 -0.1800
 3061TIP3    H230743   1.509   3.918   1.281 -2.8678 -0.8913  1.7807
 3062TIP3   OH230744   1.406   1.670   1.294  0.2533  0.4675 -0.2943
 3062TIP3    H130745   1.359   1.694   1.214  2.4902  2.0454 -1.2189
 3062TIP3    H230746   1.376   1.581   1.313 -0.3434  0.0230 -2.9068
 3063TIP3   OH230747   2.782   5.702   1.032  0.3193  0.6431  0.3291
 3063TIP3    H130748   2.763   5.796   1.027  0.2485  0.5668 -1.4042
 3063TIP3    H230749   2.862   5.691   0.982 -0.7102 -0.4683 -1.1510
 3064TIP3   OH230750   0.357   3.470   2.065 -0.4470  0.5719 -0.1668
 3064TIP3    H130751   0.313   3.436   1.987 -0.8316  1.0071 -0.1468
 3064TIP3    H230752   0.441   3.425   2.067 -0.7364  0.0029 -0.4162
 3065TIP3   OH230753   1.690   2.372   6.587  0.1042 -0.3792 -0.5606
 3065TIP3    H130754   1.621   2.414   6.536  0.8603  0.9165 -0.5491
 3065TIP3    H230755   1.716   2.296   6.534 -0.5021 -0.1918 -1.1354
 3066TIP3   OH230756   4.003   4.359   7.553  0.8079 -0.1142 -0.5251
 3066TIP3    H130757   4.086   4.314   7.568  1.5019  1.2839 -0.0561
 3066TIP3    H230758   4.012   4.397   7.465  0.4652 -0.3687 -0.6734
 3067TIP3   OH230759   6.037   2.901   1.518  0.1718  0.6030  0.3828
 3067TIP3    H130760   5.952   2.946   1.522  0.2226  0.7476 -0.0848
 3067TIP3    H230761   6.034   2.854   1.434 -0.0255 -0.5548  1.0195
 3068TIP3   OH230762   4.896   3.834   7.449 -0.1654 -0.0593 -0.1157
 3068TIP3    H130763   4.897   3.930   7.447  0.9865 -0.0194  0.8187
 3068TIP3    H230764   4.926   3.812   7.537  2.0487 -1.2544 -1.0678
 3069TIP3   OH230765   6.474   1.484   0.370 -0.1260 -0.0932  0.3711
 3069TIP3    H130766   6.471   1.571   0.410 -2.1700  0.3091 -0.5221
 3069TIP3    H230767   6.439   1.498   0.282  1.6485 -1.4424 -0.6119
 3070TIP3   OH230768   2.000   4.698   7.411  0.0178  0.1421 -0.2794
 3070TIP3    H130769   2.052   4.661   7.482 -0.3639  0.3417  0.1060
 3070TIP3    H230770   2.011   4.793   7.419 -1.3940  0.2713  0.5940
 3071TIP3   OH230771   1.279   0.080   6.583  0.1645 -0.2880 -0.1987
 3071TIP3    H130772   1.189   0.097   6.608  0.4480 -0.9148  1.3578
 3071TIP3    H230773   1.296  -0.010   6.613  1.7212  0.3162  0.8310
 3072TIP3   OH230774   4.975   1.996   1.334  0.0287 -0.6376 -0.7161
 3072TIP3    H130775   5.042   2.062   1.351  1.2954 -1.4294 -2.2891
 3072TIP3    H230776   4.892   2.041   1.347  0.8079  0.2725  1.7160
 3073TIP3   OH230777   6.370   6.782   7.274 -0.1209  0.2678 -0.3726
 3073TIP3    H130778   6.353   6.717   7.206  0.3012 -0.0557 -0.1711
 3073TIP3    H230779   6.354   6.866   7.231  0.9785  0.1119 -1.1334
 3074TIP3   OH230780   5.933   6.511   7.829 -0.1316  0.3658  0.0066
 3074TIP3    H130781   5.877   6.434   7.822 -0.1281  0.3535  0.1058
 3074TIP3    H230782   6.014   6.477   7.868 -0.6429  0.6635  1.3915
 3075TIP3   OH230783   1.416   4.652   2.007  0.6989  0.1283  0.1269
 3075TIP3    H130784   1.474   4.577   2.021  1.1910  0.7659  1.7999
 3075TIP3    H230785   1.338   4.615   1.967  1.6286 -0.9888 -0.7332
 3076TIP3   OH230786   4.257   0.316   8.443  0.9858 -0.2532 -0.1636
 3076TIP3    H130787   4.245   0.262   8.521 -0.9711 -2.5308 -1.8765
 3076TIP3    H230788   4.328   0.272   8.395  1.8666  0.8669  0.0613
 3077TIP3   OH230789   0.854   0.762   0.316 -0.1522 -0.6334 -0.5834
 3077TIP3    H130790   0.926   0.780   0.376 -2.0516 -0.6105  1.9102
 3077TIP3    H230791   0.856   0.834   0.253  0.4200  0.8758  1.0659
 3078TIP3   OH230792   5.811   4.187   8.540  0.2470 -0.2789 -0.3504
 3078TIP3    H130793   5.824   4.282   8.541  0.4271 -0.2929 -1.0762
 3078TIP3    H230794   5.899   4.151   8.539  0.2632 -0.5203  2.2999
 3079TIP3   OH230795   6.227   6.285   1.837 -0.2769 -0.0527  0.5405
 3079TIP3    H130796   6.161   6.324   1.894  1.7710  3.0995  0.9993
 3079TIP3    H230797   6.311   6.311   1.875  1.2112  0.1353 -2.5331
 3080TIP3   OH230798   4.587   4.930   7.442 -0.1704 -0.0690 -0.3804
 3080TIP3    H130799   4.636   4.888   7.514 -0.7131 -1.3822 -0.7457
 3080TIP3    H230800   4.652   4.983   7.397  0.3414  0.2206  0.6575
 3081TIP3   OH230801   2.825   0.487   2.761  0.0702  0.0124 -0.2195
 3081TIP3    H130802   2.769   0.545   2.811 -0.4984  1.1686 -2.1161
 3081TIP3    H230803   2.773   0.462   2.685  2.0134  1.0320 -1.9939
 3082TIP3   OH230804   0.030   6.141   1.329  0.5508  0.1082 -0.4886
 3082TIP3    H130805   0.004   6.168   1.417  0.8696 -3.3135  0.8215
 3082TIP3    H230806   0.096   6.073   1.344 -0.1893 -1.3791 -3.2956
 3083TIP3   OH230807   6.685   1.225   7.677 -0.5295 -0.3563 -0.7966
 3083TIP3    H130808   6.703   1.133   7.653 -0.9594  0.4144 -4.8092
 3083TIP3    H230809   6.593   1.226   7.701 -0.2938 -1.0868  0.2087
 3084TIP3   OH230810   6.915   0.482   0.095 -0.2786 -0.1963  0.1629
 3084TIP3    H130811   6.982   0.414   0.095 -1.3793 -1.3461  1.9143
 3084TIP3    H230812   6.832   0.435   0.094 -1.0744  1.1186  0.8912
 3085TIP3   OH230813   4.375   0.477   7.923 -1.0435 -0.2340 -0.2750
 3085TIP3    H130814   4.427   0.557   7.922  0.4815 -1.1944 -0.3311
 3085TIP3    H230815   4.387   0.442   8.011 -0.9590 -0.8609 -0.5312
 3086TIP3   OH230816   6.426   2.037   1.004  0.1205  0.1389  0.2246
 3086TIP3    H130817   6.505   2.047   0.950  0.6770 -0.1872  0.9462
 3086TIP3    H230818   6.370   1.977   0.954  0.8836 -0.6320  0.2600
 3087TIP3   OH230819   2.227   0.725   6.472  0.5011 -0.2218  0.6436
 3087TIP3    H130820   2.158   0.791   6.474  1.2251  0.5716 -0.0015
 3087TIP3    H230821   2.253   0.715   6.564 -0.1511 -0.2068  0.8382
 3088TIP3   OH230822   6.612   4.437   7.784  0.2545  0.2041 -0.0255
 3088TIP3    H130823   6.567   4.398   7.709 -0.3046  0.3384  0.2364
 3088TIP3    H230824   6.693   4.387   7.792  0.4713  0.3869 -0.9094
 3089TIP3   OH230825   0.335   3.627   0.731  0.6337 -0.2608 -0.2697
 3089TIP3    H130826   0.348   3.590   0.819 -0.2485  0.1484  0.0410
 3089TIP3    H230827   0.242   3.614   0.713  1.0249 -1.4752 -1.6723
 3090TIP3   OH230828   1.285   0.449   1.594 -0.3850 -0.0808  0.5118
 3090TIP3    H130829   1.333   0.526   1.624  0.2846 -0.3765  0.2201
 3090TIP3    H230830   1.347   0.377   1.603 -0.7573 -0.4640  0.0737
 3091TIP3   OH230831   3.731   3.414   8.228  0.3132 -0.3168 -0.8325
 3091TIP3    H130832   3.708   3.322   8.221 -1.9794  0.1324 -0.2873
 3091TIP3    H230833   3.796   3.429   8.160  0.8515 -2.3509 -0.8092
 3092TIP3   OH230834   2.916   1.071   1.721  0.0132 -0.2288  0.0979
 3092TIP3    H130835   2.856   1.133   1.679 -0.7712 -0.7991  0.3419
 3092TIP3    H230836   2.996   1.076   1.669 -0.8777 -0.8134 -1.4143
 3093TIP3   OH230837   2.064   0.016   1.731 -0.0250 -0.5604 -0.1508
 3093TIP3    H130838   2.048   0.067   1.651  3.9905  0.5742 -0.4286
 3093TIP3    H230839   2.092  -0.070   1.698 -0.2511 -0.7448  0.1351
 3094TIP3   OH230840   0.470   3.263   8.371  0.3749 -0.0412  0.3921
 3094TIP3    H130841   0.386   3.279   8.415  0.2328 -0.5605  0.3081
 3094TIP3    H230842   0.447   3.214   8.293  0.8672 -1.2105  0.9657
 3095TIP3   OH230843   2.848   0.054   8.381  0.6230  0.2568 -0.1770
 3095TIP3    H130844   2.792   0.112   8.432  0.6140 -0.3968  0.5745
 3095TIP3    H230845   2.915   0.112   8.344 -0.0235  0.9073 -0.3608
 3096TIP3   OH230846   5.814   4.726   2.655  0.0114 -0.4874 -0.1453
 3096TIP3    H130847   5.811   4.692   2.565 -2.6152  1.5315 -0.9438
 3096TIP3    H230848   5.828   4.820   2.645 -0.8587 -0.1403  1.4968
 3097TIP3   OH230849   6.261   3.534   0.141  0.4251  0.0525 -0.2437
 3097TIP3    H130850   6.245   3.440   0.144 -1.8600  0.3800 -0.1527
 3097TIP3    H230851   6.227   3.567   0.225  0.0560  1.0794 -0.7783
 3098TIP3   OH230852   4.271   0.058   1.170  0.3583 -0.6215  0.4933
 3098TIP3    H130853   4.251   0.021   1.085  1.0268 -0.9579  0.4776
 3098TIP3    H230854   4.345   0.007   1.202 -0.0824 -0.7071  1.4125
 3099TIP3   OH230855   6.862   2.061   0.563  0.2007 -0.2689 -0.1582
 3099TIP3    H130856   6.822   2.113   0.494  0.7892 -0.6876 -0.8194
 3099TIP3    H230857   6.873   2.123   0.636  1.0776  0.5900 -0.9981
 3100TIP3   OH230858   0.054   0.609   7.886 -0.2332  0.1082 -0.2624
 3100TIP3    H130859  -0.011   0.665   7.928 -0.1477  0.3183 -0.4073
 3100TIP3    H230860   0.105   0.573   7.959  1.8461  2.7940 -0.2216
 3101TIP3   OH230861   4.922   1.404   7.373 -0.3332  0.2869 -0.4495
 3101TIP3    H130862   4.939   1.446   7.289  1.6983 -1.6384 -1.1206
 3101TIP3    H230863   4.835   1.365   7.364 -0.1826  0.2070 -1.6396
 3102TIP3   OH230864   3.477   2.103   0.300  0.4674  0.4134 -0.8782
 3102TIP3    H130865   3.490   2.197   0.293  0.2268  0.5634  0.4475
 3102TIP3    H230866   3.410   2.083   0.235  1.1110  1.0106 -1.7488
 3103TIP3   OH230867   0.402   6.657   1.463  0.6969 -0.9463  0.3278
 3103TIP3    H130868   0.374   6.567   1.483 -0.7189 -0.3077  1.3242
 3103TIP3    H230869   0.324   6.701   1.432  1.6281 -0.3243 -1.2280
 3104TIP3   OH230870   6.341   2.536   1.123 -0.2875  0.2200 -0.5193
 3104TIP3    H130871   6.303   2.520   1.209  1.5251 -1.4540  0.0387
 3104TIP3    H230872   6.404   2.607   1.137  0.2623 -0.2925 -0.3795
 3105TIP3   OH230873   1.626   2.263   8.075 -0.6564  0.2269 -0.0061
 3105TIP3    H130874   1.543   2.271   8.122 -0.9224 -0.5787 -0.3227
 3105TIP3    H230875   1.601   2.246   7.984 -0.1495 -0.0355 -0.1013
 3106TIP3   OH230876   5.502   2.400   0.553 -0.4607 -0.3471 -0.5520
 3106TIP3    H130877   5.475   2.492   0.552 -1.2527 -0.5304  1.1530
 3106TIP3    H230878   5.591   2.401   0.517 -0.1931  1.1934  0.0740
 3107TIP3   OH230879   4.984   1.424   7.645  0.2736  0.6171 -0.4760
 3107TIP3    H130880   4.946   1.512   7.644 -2.8303 -0.6133 -1.0850
 3107TIP3    H230881   4.987   1.399   7.552  0.8152 -0.0570 -0.2828
 3108TIP3   OH230882   1.970   0.280   1.585  0.6946 -1.0437  0.3267
 3108TIP3    H130883   2.063   0.289   1.562  0.7096 -1.1184  0.3552
 3108TIP3    H230884   1.937   0.215   1.524 -0.1342  1.3050 -1.8733
 3109TIP3   OH230885   5.770   0.222   1.596  0.2122  0.5808 -0.0737
 3109TIP3    H130886   5.712   0.267   1.657  0.0865 -0.6828  0.7790
 3109TIP3    H230887   5.848   0.201   1.648  0.0332 -0.6614 -0.2884
 3110TIP3   OH230888   1.719   5.787   1.481  0.3113 -0.4584 -0.1743
 3110TIP3    H130889   1.642   5.759   1.432  0.7885 -0.1709 -1.1121
 3110TIP3    H230890   1.786   5.721   1.462  0.2131 -0.8758  0.8817
 3111TIP3   OH230891   1.136   6.431   7.360  0.3163  0.6553  0.7925
 3111TIP3    H130892   1.057   6.377   7.354  0.1558  0.8149  1.3511
 3111TIP3    H230893   1.160   6.450   7.269 -0.4070  0.7729  0.6217
 3112TIP3   OH230894   0.797   3.169   7.748  0.0915  0.5000 -0.1478
 3112TIP3    H130895   0.798   3.074   7.736 -1.6098  0.4690 -0.2973
 3112TIP3    H230896   0.860   3.186   7.818 -1.2922 -1.0113  1.5528
 3113TIP3   OH230897   2.064   5.482   7.212 -0.1417 -0.5165  0.2722
 3113TIP3    H130898   2.104   5.550   7.158 -0.4054 -0.3950  0.2315
 3113TIP3    H230899   2.070   5.402   7.159 -2.0747 -0.0507 -0.7332
 3114TIP3   OH230900   6.431   6.149   2.367  0.4711 -0.1310  0.2866
 3114TIP3    H130901   6.378   6.091   2.314  0.2562  0.3782 -0.0678
 3114TIP3    H230902   6.519   6.110   2.366  0.8168  0.5733 -1.5986
 3115TIP3   OH230903   6.424   1.985   7.752 -0.0415  0.3244  0.3116
 3115TIP3    H130904   6.402   1.892   7.758 -0.3068  0.3599 -0.0487
 3115TIP3    H230905   6.512   1.986   7.713  0.2808  0.2070  1.0120
 3116TIP3   OH230906   2.235   5.733   8.205  0.4771 -0.5887  0.9041
 3116TIP3    H130907   2.310   5.675   8.192  0.1015 -1.0385  0.7595
 3116TIP3    H230908   2.173   5.709   8.136  0.7887  0.7501  0.1186
 3117TIP3   OH230909   0.195   1.434   6.924 -0.8541 -0.0489 -0.0443
 3117TIP3    H130910   0.110   1.404   6.956 -0.3081 -1.4502  0.1968
 3117TIP3    H230911   0.246   1.353   6.915  0.9652  0.8587  1.3567
 3118TIP3   OH230912   6.636   6.643   1.247  0.3106 -0.7759 -0.4789
 3118TIP3    H130913   6.567   6.577   1.245 -1.0843  0.6286  0.0163
 3118TIP3    H230914   6.639   6.678   1.158 -0.7268  0.2475 -0.1308
 3119TIP3   OH230915   5.150   5.233   1.259  0.5625 -0.3758 -0.1214
 3119TIP3    H130916   5.175   5.144   1.234  1.0589 -0.6454  1.2772
 3119TIP3    H230917   5.059   5.241   1.229  0.9824 -0.8132 -1.5879
 3120TIP3   OH230918   6.630   5.210   2.860 -0.1054  0.5581  0.0400
 3120TIP3    H130919   6.648   5.120   2.833  0.5452  0.8740 -0.5922
 3120TIP3    H230920   6.710   5.258   2.841 -0.1610  1.1167  1.1323
 3121TIP3   OH230921   0.813   4.782   0.663 -0.8590  0.0033  1.0924
 3121TIP3    H130922   0.845   4.804   0.750 -1.1832 -1.9608  1.7684
 3121TIP3    H230923   0.755   4.707   0.677  0.9679 -1.9923 -1.0077
 3122TIP3   OH230924   1.783   4.697   0.254 -0.5081 -0.0060  0.0143
 3122TIP3    H130925   1.783   4.770   0.192  2.2876 -0.9867 -1.3357
 3122TIP3    H230926   1.720   4.635   0.217 -1.2690  0.7631 -0.0254
 3123TIP3   OH230927   5.132   0.659   1.808  0.1893 -0.0820 -0.6132
 3123TIP3    H130928   5.183   0.642   1.728  0.2535  0.4929 -0.6963
 3123TIP3    H230929   5.042   0.641   1.782  0.3634 -1.4228 -0.3765
 3124TIP3   OH230930   1.136   1.686   0.576 -0.3667  0.3244  0.2897
 3124TIP3    H130931   1.106   1.776   0.590 -0.1544  0.3575  0.5467
 3124TIP3    H230932   1.071   1.648   0.517  0.9123  1.4365 -1.9638
 3125TIP3   OH230933   4.724   6.829   7.662  0.1383 -0.0460 -0.0871
 3125TIP3    H130934   4.810   6.796   7.637 -0.0886 -2.2121  1.7148
 3125TIP3    H230935   4.677   6.839   7.579  0.8449 -2.7016 -0.8930
 3126TIP3   OH230936   2.634   0.882   0.946 -0.0134 -0.0521  0.0584
 3126TIP3    H130937   2.685   0.815   0.901  1.4052 -1.3998  3.3564
 3126TIP3    H230938   2.699   0.935   0.992 -1.3629  0.6376  1.2447
 3127TIP3   OH230939   4.841   1.706   2.212  0.1296 -0.3819 -0.5571
 3127TIP3    H130940   4.814   1.735   2.125  0.1008 -0.6391 -0.6354
 3127TIP3    H230941   4.765   1.725   2.268  0.4987  0.6685 -0.3910
 3128TIP3   OH230942   2.684   0.244   8.498 -0.4424  0.1766  0.3816
 3128TIP3    H130943   2.715   0.302   8.568  1.2134 -1.7027  1.2867
 3128TIP3    H230944   2.598   0.215   8.527  0.2560 -0.6319  1.6946
 3129TIP3   OH230945   3.446   2.017   7.687  0.2640 -0.8430 -0.6922
 3129TIP3    H130946   3.355   2.025   7.716  0.0273 -2.6877 -0.7982
 3129TIP3    H230947   3.449   2.059   7.601  0.1235  1.4022  0.3217
 3130TIP3   OH230948   6.879   4.592   7.533  0.3749 -0.6516 -0.0656
 3130TIP3    H130949   6.845   4.503   7.534  2.7112 -1.6167 -0.6737
 3130TIP3    H230950   6.912   4.607   7.622 -1.2215  0.1553  0.4276
 3131TIP3   OH230951   3.031   2.117   6.412 -0.3262  0.1680  0.3731
 3131TIP3    H130952   3.030   2.138   6.505 -0.7204 -0.0095  0.4096
 3131TIP3    H230953   3.107   2.164   6.378 -0.6356  0.8765  0.6384
 3132TIP3   OH230954   3.780   1.829   7.834  0.2189 -0.8458  0.2613
 3132TIP3    H130955   3.865   1.829   7.877  0.6489 -0.2832 -0.5611
 3132TIP3    H230956   3.717   1.817   7.905  0.9166 -0.2132  1.0091
 3133TIP3   OH230957   3.026   2.839   7.061 -0.3621 -0.2454 -0.0281
 3133TIP3    H130958   2.996   2.929   7.047 -2.5246 -0.7216  1.1865
 3133TIP3    H230959   2.977   2.786   6.998  0.0958 -0.7128  0.0006
 3134TIP3   OH230960   1.958   2.662   8.261  0.4178 -0.1227  0.4721
 3134TIP3    H130961   1.981   2.741   8.213  1.0883 -0.3595  0.3993
 3134TIP3    H230962   2.038   2.636   8.305  0.7754 -1.8952 -1.1010
 3135TIP3   OH230963   0.959   4.990   7.164 -0.1155  0.0277  0.4078
 3135TIP3    H130964   0.949   4.947   7.078  1.3858 -0.9263  0.6576
 3135TIP3    H230965   0.938   4.921   7.227 -0.9792  0.6601  0.8193
 3136TIP3   OH230966   5.117   1.972   0.726  0.3677  0.0490 -0.3702
 3136TIP3    H130967   5.178   1.978   0.653  0.6627  1.3527 -0.0457
 3136TIP3    H230968   5.122   2.058   0.769  1.0158 -1.0330  1.8464
 3137TIP3   OH230969   3.447   4.036   7.687  0.3197  0.8701  0.2893
 3137TIP3    H130970   3.353   4.037   7.702  0.7003  3.2682  3.6988
 3137TIP3    H230971   3.476   3.951   7.720 -0.6268 -0.2990 -1.6840
 3138TIP3   OH230972   3.245   5.158   0.332  0.0328  0.2185  0.5469
 3138TIP3    H130973   3.225   5.091   0.267  0.5678  0.7883 -0.2379
 3138TIP3    H230974   3.270   5.234   0.280  2.6233  0.0463  1.4224
 3139TIP3   OH230975   4.283   5.204   0.375 -0.7353  0.3410  0.3623
 3139TIP3    H130976   4.227   5.244   0.308  0.5755 -0.2547 -1.1525
 3139TIP3    H230977   4.252   5.114   0.382 -0.1952  0.0991 -0.2504
 3140TIP3   OH230978   1.723   4.422   2.235 -0.0427 -0.1193 -0.1448
 3140TIP3    H130979   1.795   4.360   2.248 -1.1950 -1.9542 -1.8803
 3140TIP3    H230980   1.674   4.419   2.318 -0.5922 -2.3177 -0.4871
 3141TIP3   OH230981   1.339   3.571   7.392 -0.0501 -0.2198  0.3923
 3141TIP3    H130982   1.347   3.649   7.446 -0.5808  0.5384 -0.6042
 3141TIP3    H230983   1.248   3.544   7.402 -0.0897 -0.2098  0.0428
 3142TIP3   OH230984   2.490   3.374   0.384  0.2358  0.6526 -0.1325
 3142TIP3    H130985   2.528   3.419   0.459  1.4697  2.0116 -1.4805
 3142TIP3    H230986   2.410   3.333   0.417  1.1894  0.4610  2.0832
 3143TIP3   OH230987   3.456   4.082   0.420 -0.0232  0.5478 -0.7256
 3143TIP3    H130988   3.497   4.155   0.374  1.7144 -0.1502 -0.3574
 3143TIP3    H230989   3.440   4.017   0.351  0.2595  0.4927 -0.7392
 3144TIP3   OH230990   2.090   6.268   1.595 -0.9167  0.0004 -0.3577
 3144TIP3    H130991   2.176   6.236   1.622 -0.3832  1.1101 -0.6669
 3144TIP3    H230992   2.050   6.300   1.676 -0.8248 -0.0425 -0.2953
 3145TIP3   OH230993   0.441   4.637   2.106 -0.2337  0.3055 -0.1517
 3145TIP3    H130994   0.387   4.716   2.096 -1.2484 -0.3127  0.3563
 3145TIP3    H230995   0.378   4.566   2.120  0.7443 -0.3208  1.2509
 3146TIP3   OH230996   5.995   5.085   1.155 -0.2514  0.1918  0.0633
 3146TIP3    H130997   5.924   5.032   1.120 -0.8727  1.4036 -0.5677
 3146TIP3    H230998   5.953   5.142   1.220  0.8784 -2.0716  3.0611
 3147TIP3   OH230999   2.622   1.809   1.935 -0.4552 -0.0236 -0.0025
 3147TIP3    H131000   2.575   1.807   2.018 -1.3427  0.0961 -0.4874
 3147TIP3    H231001   2.557   1.838   1.871  0.5036  1.0339 -0.5519
 3148TIP3   OH231002   2.310   5.364   1.506 -0.4174 -0.3574  0.4417
 3148TIP3    H131003   2.321   5.337   1.598 -0.9527 -1.9851  0.0682
 3148TIP3    H231004   2.287   5.457   1.511 -0.1798 -0.3461  1.9409
 3149TIP3   OH231005   2.203   4.559   8.078  0.0743  0.5584  0.5085
 3149TIP3    H131006   2.138   4.503   8.121 -0.0953  0.4408  0.1030
 3149TIP3    H231007   2.287   4.524   8.106 -0.0168 -0.3389 -0.2839
 3150TIP3   OH231008   4.273   4.369   2.094 -0.2987  0.5023  0.0697
 3150TIP3    H131009   4.294   4.396   2.004 -0.4876 -0.0767 -0.1524
 3150TIP3    H231010   4.259   4.451   2.141  0.6455  0.8351 -0.2219
 3151TIP3   OH231011   4.608   2.722   6.977  0.5098 -0.6645 -0.5345
 3151TIP3    H131012   4.617   2.628   6.962 -0.0857 -0.5285 -1.8992
 3151TIP3    H231013   4.646   2.762   6.899 -1.3859  0.1655 -1.0810
 3152TIP3   OH231014   1.426   0.037   0.097  0.1638  0.1469  0.6263
 3152TIP3    H131015   1.513   0.075   0.105  1.0132 -1.0904 -1.8162
 3152TIP3    H231016   1.406   0.041   0.004 -1.7308 -1.0287  0.9245
 3153TIP3   OH231017   3.355   6.450   2.597  0.0200 -0.1779 -0.3169
 3153TIP3    H131018   3.368   6.531   2.647 -0.1563 -0.0943 -0.4023
 3153TIP3    H231019   3.406   6.384   2.643 -0.1909 -0.1150  0.0078
 3154TIP3   OH231020   0.576   0.279   0.566  0.3525  0.3339 -0.2752
 3154TIP3    H131021   0.507   0.288   0.500 -0.5233 -0.0902  0.5525
 3154TIP3    H231022   0.631   0.356   0.554 -0.4827  0.8731 -0.7233
 3155TIP3   OH231023   6.096   4.557   0.582 -0.7281 -0.5416 -0.3247
 3155TIP3    H131024   6.117   4.464   0.568 -0.8578 -1.1594  2.7909
 3155TIP3    H231025   6.181   4.598   0.598 -0.7532 -0.2791 -0.8439
 3156TIP3   OH231026   0.564   1.092   6.479  0.0463  0.3974  0.4186
 3156TIP3    H131027   0.593   1.014   6.432 -1.2218  0.0660  0.1390
 3156TIP3    H231028   0.643   1.146   6.487  0.5450 -0.0574 -1.0606
 3157TIP3   OH231029   4.313   6.420   8.174  0.0344  0.4183  0.3850
 3157TIP3    H131030   4.275   6.333   8.160 -0.0068  0.4461  0.3245
 3157TIP3    H231031   4.252   6.480   8.131  0.7804  0.3634 -0.7903
 3158TIP3   OH231032   2.979   3.113   1.142 -0.4770  0.0033  0.4492
 3158TIP3    H131033   2.923   3.114   1.218 -0.3592  1.4234  0.5399
 3158TIP3    H231034   3.061   3.074   1.173 -0.4350  0.5560  1.0519
 3159TIP3   OH231035   0.605   3.973   2.215 -0.4278  1.0227  0.0072
 3159TIP3    H131036   0.675   3.943   2.273 -0.3548  1.9386  0.4121
 3159TIP3    H231037   0.537   3.906   2.222  0.0396  0.5726  0.2921
 3160TIP3   OH231038   0.964   6.191   0.452 -0.2001  0.3475  0.3337
 3160TIP3    H131039   0.881   6.237   0.466  0.8374  2.2809  0.4272
 3160TIP3    H231040   0.971   6.182   0.357 -0.2924  0.6069  0.3023
 3161TIP3   OH231041   6.705   0.065   7.464  0.3786  0.2360 -0.5698
 3161TIP3    H131042   6.671   0.154   7.452  1.9372  0.8392 -0.7671
 3161TIP3    H231043   6.710   0.030   7.375  2.1976  0.9422 -0.8043
 3162TIP3   OH231044   0.236   2.790   0.877  0.5600  0.5957  0.0958
 3162TIP3    H131045   0.247   2.877   0.838  3.1539  0.2350 -0.1621
 3162TIP3    H231046   0.304   2.737   0.835  0.6975 -0.8824  2.0879
 3163TIP3   OH231047   5.187   1.666   8.201  1.0611  0.1131 -0.3190
 3163TIP3    H131048   5.099   1.700   8.190  1.4756  1.2479 -0.2865
 3163TIP3    H231049   5.176   1.583   8.247  0.0537  0.5754  0.2995
 3164TIP3   OH231050   2.609   4.127   7.124  0.1480  0.0941 -0.5192
 3164TIP3    H131051   2.638   4.071   7.053  0.1457  0.3470 -0.7217
 3164TIP3    H231052   2.575   4.067   7.190  0.4777 -0.1644 -0.5795
 3165TIP3   OH231053   6.505   3.833   7.341 -0.5116  0.0087 -0.2905
 3165TIP3    H131054   6.433   3.863   7.397  0.5978  1.6114  0.3648
 3165TIP3    H231055   6.465   3.769   7.283 -2.0050 -0.7668  1.4709
 3166TIP3   OH231056   1.578   6.795   1.133 -0.4705 -0.0422  0.2525
 3166TIP3    H131057   1.581   6.872   1.190  1.8450 -0.1544  0.3776
 3166TIP3    H231058   1.544   6.828   1.050  1.8967  1.5452 -0.1957
 3167TIP3   OH231059   6.882   2.682   0.908  0.4278 -0.0041 -1.0965
 3167TIP3    H131060   6.816   2.751   0.909  0.9673  0.6741  2.4191
 3167TIP3    H231061   6.965   2.729   0.919  0.9149 -1.1156  0.2084
 3168TIP3   OH231062   1.468   2.299   7.382 -0.0351  0.3267  0.3604
 3168TIP3    H131063   1.441   2.242   7.310  1.9994 -0.8122  0.4232
 3168TIP3    H231064   1.462   2.243   7.459 -1.0814  1.1961  0.9407
 3169TIP3   OH231065   3.573   1.751   7.987  0.1744  0.0422 -0.2480
 3169TIP3    H131066   3.581   1.664   7.949 -0.0971  1.1675 -3.1144
 3169TIP3    H231067   3.492   1.748   8.038  1.0087 -1.7874  1.0777
 3170TIP3   OH231068   2.630   0.366   0.437  0.1338  0.3471 -0.2024
 3170TIP3    H131069   2.636   0.450   0.483  1.5746  0.2087 -0.0905
 3170TIP3    H231070   2.539   0.339   0.449 -0.7765  2.5655 -1.4657
 3171TIP3   OH231071   6.488   4.768   7.787 -0.0668 -0.1083 -0.1623
 3171TIP3    H131072   6.481   4.684   7.741 -1.0461 -0.6856  0.9837
 3171TIP3    H231073   6.466   4.833   7.721  0.1629 -0.7894 -0.9295
 3172TIP3   OH231074   4.423   3.860   2.142  0.3935 -0.2332  0.1602
 3172TIP3    H131075   4.441   3.948   2.176  0.1119 -0.3383  0.5896
 3172TIP3    H231076   4.412   3.872   2.048  3.0276 -0.1856 -0.2375
 3173TIP3   OH231077   1.380   1.837   0.871 -0.4224 -0.1059  0.4200
 3173TIP3    H131078   1.291   1.811   0.846 -1.0496  0.7577  1.6240
 3173TIP3    H231079   1.367   1.893   0.948  1.0995  0.8191  0.0443
 3174TIP3   OH231080   6.783   0.787   8.028  0.4769 -0.4112 -0.3264
 3174TIP3    H131081   6.799   0.852   7.960  1.2832 -0.9896 -0.6955
 3174TIP3    H231082   6.692   0.803   8.054 -0.1073 -0.6753 -2.0707
 3175TIP3   OH231083   4.822   5.780   7.328  0.0683  0.4617 -0.3704
 3175TIP3    H131084   4.870   5.845   7.277 -0.1966  0.8520 -0.1243
 3175TIP3    H231085   4.745   5.826   7.360  0.4600  0.3636  0.7774
 3176TIP3   OH231086   6.299   0.178   1.293 -0.6314  1.1470  0.2081
 3176TIP3    H131087   6.306   0.237   1.369 -0.9017  1.1514  0.2304
 3176TIP3    H231088   6.224   0.122   1.313 -1.4783  1.9598 -0.6059
 3177TIP3   OH231089   5.996   1.541   0.692  0.0936  0.1979  0.2540
 3177TIP3    H131090   6.049   1.473   0.649 -0.2972  0.3354 -0.4546
 3177TIP3    H231091   6.033   1.623   0.661 -1.0137  0.2971 -0.8639
 3178TIP3   OH231092   3.265   2.816   7.208 -0.3151  0.0027  0.5614
 3178TIP3    H131093   3.189   2.837   7.154 -0.0058  0.6301  0.3648
 3178TIP3    H231094   3.340   2.833   7.152  0.0906  2.3227  1.6782
 3179TIP3   OH231095   2.084   0.043   7.056 -0.0061 -0.4287  0.5512
 3179TIP3    H131096   2.084   0.088   6.971  3.0531 -0.6475  0.2968
 3179TIP3    H231097   2.131  -0.038   7.039 -1.6219 -1.7081  1.9503
 3180TIP3   OH231098   5.880   1.607   2.244  0.9390  0.1042  0.1430
 3180TIP3    H131099   5.845   1.529   2.287  0.8843 -0.9274 -1.6484
 3180TIP3    H231100   5.852   1.680   2.298  1.1207 -1.1243  1.9588
 3181TIP3   OH231101   4.993   5.536   7.389  0.2754 -0.2342 -0.2820
 3181TIP3    H131102   5.067   5.588   7.421  1.7650 -1.4182 -1.6459
 3181TIP3    H231103   5.031   5.450   7.371 -1.7948 -1.3469  0.4259
 3182TIP3   OH231104   3.485   0.703   0.989  0.0420 -0.5852 -0.0473
 3182TIP3    H131105   3.437   0.730   1.067  0.3303 -0.5811  0.1272
 3182TIP3    H231106   3.434   0.629   0.955 -1.7876  1.2215 -1.5389
 3183TIP3   OH231107   2.065   0.975   7.441  0.6437 -0.0176  0.1586
 3183TIP3    H131108   2.078   0.895   7.492  1.5784  0.6430  1.0047
 3183TIP3    H231109   1.971   0.994   7.448  0.2092 -1.5952 -0.9459
 3184TIP3   OH231110   5.604   1.758   8.354  0.1750 -0.2094 -0.1290
 3184TIP3    H131111   5.688   1.723   8.324  0.8617 -1.2223  2.6989
 3184TIP3    H231112   5.623   1.849   8.376  0.1912 -0.0809 -0.6475
 3185TIP3   OH231113   0.650   2.417   8.163  0.0409  0.4733  0.2633
 3185TIP3    H131114   0.698   2.347   8.120  2.9780  1.7681  1.1450
 3185TIP3    H231115   0.690   2.498   8.130 -2.0637  1.7058  0.5501
 3186TIP3   OH231116   4.562   5.629   7.201  0.3432  0.4204 -0.0886
 3186TIP3    H131117   4.538   5.709   7.155  1.8205 -0.4128 -2.5227
 3186TIP3    H231118   4.482   5.576   7.200 -0.1266  1.1243 -0.1394
 3187TIP3   OH231119   6.182   4.416   0.201  0.1762 -1.0912  0.3044
 3187TIP3    H131120   6.264   4.412   0.152  0.1550 -1.5927  0.3011
 3187TIP3    H231121   6.166   4.509   0.213  2.1101 -0.9505  2.5750
 3188TIP3   OH231122   6.077   2.150   1.706  0.0620  0.1532  0.1541
 3188TIP3    H131123   5.986   2.181   1.710 -0.0795  0.4521 -2.8110
 3188TIP3    H231124   6.073   2.061   1.740 -1.3023  0.2769  0.3824
 3189TIP3   OH231125   0.956   0.803   1.728 -0.2616  0.1830 -0.1774
 3189TIP3    H131126   0.872   0.757   1.730 -0.3573  0.3501 -0.3585
 3189TIP3    H231127   1.022   0.733   1.732 -0.4065  0.0626  0.1789
 3190TIP3   OH231128   0.047   2.416   8.026 -0.0651  0.3498  0.7275
 3190TIP3    H131129   0.119   2.466   7.987  0.0455  0.5007  1.1149
 3190TIP3    H231130   0.070   2.324   8.010  0.0602  0.4064  0.5816
 3191TIP3   OH231131   3.773   2.872   7.713  0.3411  0.5357  0.6838
 3191TIP3    H131132   3.712   2.832   7.775 -0.1042 -1.9861 -1.2264
 3191TIP3    H231133   3.859   2.839   7.741  0.1115 -0.8277 -0.1278
 3192TIP3   OH231134   0.582   5.281   6.356 -0.1821 -0.2144 -0.4084
 3192TIP3    H131135   0.510   5.304   6.415 -0.3907  0.2129 -0.8288
 3192TIP3    H231136   0.590   5.186   6.365 -2.0055 -0.5301 -1.6973
 3193TIP3   OH231137   4.687   0.836   1.597  0.1752  0.1126  0.0230
 3193TIP3    H131138   4.742   0.879   1.662  0.0519 -0.3554  0.4486
 3193TIP3    H231139   4.689   0.894   1.521 -0.5904  1.2335  0.8383
 3194TIP3   OH231140   1.314   1.147   8.511 -0.1648  0.1285  0.0180
 3194TIP3    H131141   1.333   1.067   8.462 -1.2494 -0.0590 -0.1209
 3194TIP3    H231142   1.261   1.117   8.585  1.4505  0.4032  1.3562
 3195TIP3   OH231143   0.159   0.924   0.906  0.8789 -0.3372 -0.2891
 3195TIP3    H131144   0.102   0.968   0.969  0.7237 -0.2549 -0.4847
 3195TIP3    H231145   0.100   0.896   0.836  0.5417 -3.1307  0.9837
 3196TIP3   OH231146   4.503   3.190   1.002 -0.2421  0.0779 -0.0190
 3196TIP3    H131147   4.467   3.258   0.945 -0.5031 -0.3787 -0.4091
 3196TIP3    H231148   4.523   3.235   1.083 -2.2074  0.2651  0.4129
 3197TIP3   OH231149   0.698   5.567   2.915 -0.0967 -0.5752 -0.3096
 3197TIP3    H131150   0.748   5.648   2.922 -1.7227  0.5063 -0.7167
 3197TIP3    H231151   0.760   5.503   2.880  1.5491  0.1505  1.1097
 3198TIP3   OH231152   0.617   4.604   2.522 -0.1234  0.2330  0.1807
 3198TIP3    H131153   0.644   4.517   2.550 -0.2361 -0.2871 -1.2546
 3198TIP3    H231154   0.693   4.639   2.476 -0.2806  0.6743  0.2466
 3199TIP3   OH231155   3.286   1.245   8.141  0.5657 -0.3424 -0.3070
 3199TIP3    H131156   3.329   1.318   8.186 -3.3747  1.5978  0.7532
 3199TIP3    H231157   3.226   1.208   8.207 -0.8062 -1.6057 -2.1567
 3200TIP3   OH231158   1.237   1.711   7.190 -0.4048 -0.1734  0.1825
 3200TIP3    H131159   1.311   1.731   7.247  0.6717 -2.2452 -0.3763
 3200TIP3    H231160   1.179   1.658   7.244  0.0934 -1.2234 -0.2824
 3201TIP3   OH231161   1.230   3.970   0.607 -0.1125 -0.0650 -0.4633
 3201TIP3    H131162   1.301   4.026   0.639  0.5077 -1.2005  0.2228
 3201TIP3    H231163   1.164   3.972   0.676  1.0505 -2.1952  0.8135
 3202TIP3   OH231164   2.856   2.595   8.415  0.6134 -0.0250  0.1864
 3202TIP3    H131165   2.777   2.550   8.386  0.7384  0.9457 -1.8070
 3202TIP3    H231166   2.824   2.677   8.453  0.6362  0.3808 -0.6463
 3203TIP3   OH231167   2.717   3.268   6.781  0.0702 -0.1332 -0.0686
 3203TIP3    H131168   2.795   3.301   6.825 -0.0209  0.0858 -0.0666
 3203TIP3    H231169   2.739   3.270   6.688  0.6058 -1.4984  0.0082
 3204TIP3   OH231170   2.393   1.580   2.070  0.3975 -0.3944  0.2941
 3204TIP3    H131171   2.438   1.549   2.148  0.5849  0.8760  0.7127
 3204TIP3    H231172   2.376   1.673   2.087  0.8412  0.0254 -1.3469
 3205TIP3   OH231173   3.573   1.546   6.750  0.6704 -0.2986  0.3475
 3205TIP3    H131174   3.645   1.576   6.695 -0.4045  0.4939 -0.6816
 3205TIP3    H231175   3.590   1.453   6.763 -0.4001 -1.2414 -3.6838
 3206TIP3   OH231176   2.097   5.871   2.583 -0.2818  0.3411  0.0608
 3206TIP3    H131177   2.189   5.847   2.593 -0.4660 -0.2370  0.3440
 3206TIP3    H231178   2.096   5.966   2.595  0.3589  0.4273 -0.5143
 3207TIP3   OH231179   3.100   1.700   8.246  0.2758  0.7145  0.1337
 3207TIP3    H131180   3.058   1.688   8.331 -0.8867  2.0277 -0.2177
 3207TIP3    H231181   3.033   1.676   8.182  1.4113 -1.1153 -0.4624
 3208TIP3   OH231182   5.281   4.290   1.013 -0.1936  0.1572 -0.2184
 3208TIP3    H131183   5.280   4.207   1.061 -0.9171 -0.3141 -1.0228
 3208TIP3    H231184   5.307   4.355   1.079 -2.0694 -0.3246  1.0882
 3209TIP3   OH231185   5.182   6.906   8.350 -0.3351 -0.1795 -0.1251
 3209TIP3    H131186   5.098   6.941   8.319  0.2100  0.7476 -0.6165
 3209TIP3    H231187   5.247   6.969   8.318  0.5904 -1.1036 -0.1077
 3210TIP3   OH231188   1.998   0.720   7.755  0.6540 -0.2937 -0.2646
 3210TIP3    H131189   2.004   0.710   7.660  1.1108 -0.9567 -0.1771
 3210TIP3    H231190   2.084   0.754   7.781  0.7928 -0.8088 -0.0190
 3211TIP3   OH231191   4.281   6.629   0.404  0.5245  0.2408  0.2565
 3211TIP3    H131192   4.295   6.599   0.315  2.3418  1.0933  0.2203
 3211TIP3    H231193   4.275   6.724   0.397 -0.7832  0.2374  0.8993
 3212TIP3   OH231194   1.471   4.118   7.750  0.4095 -0.0894 -0.6855
 3212TIP3    H131195   1.535   4.186   7.772  1.0253 -0.6786 -0.6283
 3212TIP3    H231196   1.386   4.160   7.763  0.7647  0.1719  0.9417
 3213TIP3   OH231197   4.199   4.160   6.959  0.1029 -0.1659  0.0031
 3213TIP3    H131198   4.143   4.238   6.964 -0.8807 -0.8147 -0.5801
 3213TIP3    H231199   4.159   4.098   7.020  0.3732 -0.5293 -0.1903
 3214TIP3   OH231200   0.450   6.544   0.630  0.4016 -0.5135 -0.7402
 3214TIP3    H131201   0.463   6.631   0.590 -0.7575 -0.4750 -1.0704
 3214TIP3    H231202   0.487   6.552   0.717  1.4822 -0.0854 -1.2190
 3215TIP3   OH231203   1.934   4.206   6.246  0.3316 -0.3858  0.7480
 3215TIP3    H131204   1.974   4.292   6.237  1.2703 -0.9889 -1.4218
 3215TIP3    H231205   1.855   4.221   6.298  1.0080  1.5870  1.2825
 3216TIP3   OH231206   5.916   5.261   1.758 -0.2517  0.8332 -0.0017
 3216TIP3    H131207   6.001   5.261   1.715  0.0886  2.4605  0.6186
 3216TIP3    H231208   5.923   5.194   1.826  0.6218  1.1455  0.2194
 3217TIP3   OH231209   2.761   4.591   8.204  0.6854 -0.2514  0.0929
 3217TIP3    H131210   2.704   4.626   8.272  1.6356  1.9055 -0.1158
 3217TIP3    H231211   2.842   4.569   8.250  1.0240  0.3913 -0.1803
 3218TIP3   OH231212   0.779   2.341   1.862 -0.6489  0.0978 -0.7661
 3218TIP3    H131213   0.761   2.382   1.777  0.8896  1.4507 -0.4910
 3218TIP3    H231214   0.787   2.414   1.923 -0.4447 -0.7852  0.3021
 3219TIP3   OH231215   1.536   0.417   7.187 -0.1066  0.1724  0.1745
 3219TIP3    H131216   1.507   0.333   7.153  0.9441 -0.5323  0.9639
 3219TIP3    H231217   1.482   0.482   7.140 -0.1437 -0.8607 -1.2784
 3220TIP3   OH231218   2.697   3.981   7.697  0.5834 -0.1946  0.5244
 3220TIP3    H131219   2.621   3.975   7.639  0.6665  1.4221  0.2178
 3220TIP3    H231220   2.664   3.955   7.783 -1.0216  2.8245  0.9646
 3221TIP3   OH231221   3.832   0.204   0.027  0.3050 -0.7294 -0.0071
 3221TIP3    H131222   3.815   0.279  -0.030 -0.2189 -0.5997  0.3214
 3221TIP3    H231223   3.807   0.128  -0.026  0.9919 -0.6909 -0.4013
 3222TIP3   OH231224   2.455   6.177   0.926  0.0625 -0.8425 -0.0665
 3222TIP3    H131225   2.491   6.122   0.857  0.8877  1.0694 -1.2331
 3222TIP3    H231226   2.493   6.144   1.007  1.0683 -1.5440 -0.8178
 3223TIP3   OH231227   0.510   0.668   1.594 -0.0889 -0.5569 -0.8594
 3223TIP3    H131228   0.476   0.751   1.626  2.0488  0.6480 -1.4929
 3223TIP3    H231229   0.433   0.611   1.588 -1.2928  0.6311  1.7037
 3224TIP3   OH231230   3.168   0.280   0.770 -0.5408 -0.2425  0.5883
 3224TIP3    H131231   3.228   0.210   0.744 -0.1331 -0.4167  1.9549
 3224TIP3    H231232   3.162   0.273   0.865 -1.1229  1.0880  0.6685
 3225TIP3   OH231233   0.855   0.401   2.941  0.6402 -0.1007  0.3803
 3225TIP3    H131234   0.820   0.313   2.927 -1.0189  0.7746 -1.5365
 3225TIP3    H231235   0.945   0.388   2.968  0.0318 -2.4020  1.5355
 3226TIP3   OH231236   2.453   1.003   6.586 -0.1276  0.7245  0.0091
 3226TIP3    H131237   2.490   1.031   6.503 -1.7577  1.3022 -0.5689
 3226TIP3    H231238   2.359   1.022   6.578 -0.8071 -1.7790  0.8737
 3227TIP3   OH231239   6.490   1.522   2.006 -0.2625 -0.5848 -0.1874
 3227TIP3    H131240   6.463   1.485   2.090 -0.6161 -0.0119 -0.0406
 3227TIP3    H231241   6.501   1.446   1.949  1.2768 -1.0952  0.7222
 3228TIP3   OH231242   4.345   2.515   0.084 -0.2955  0.1071  0.1231
 3228TIP3    H131243   4.415   2.580   0.084 -0.7416  0.6380 -1.3853
 3228TIP3    H231244   4.359   2.464   0.163 -0.0227  2.1373  1.4530
 3229TIP3   OH231245   4.134   6.086   7.454 -0.0190  0.6303 -0.5260
 3229TIP3    H131246   4.149   6.003   7.501  0.3338  1.8099  1.5801
 3229TIP3    H231247   4.120   6.060   7.363  0.8517 -1.6760 -0.0688
 3230TIP3   OH231248   4.761   5.122   1.026  0.3535 -0.2595 -0.8747
 3230TIP3    H131249   4.791   5.098   0.938  2.1707 -0.3163 -0.2827
 3230TIP3    H231250   4.837   5.165   1.066 -1.1875  1.9676 -0.1332
 3231TIP3   OH231251   5.618   6.320   0.703  0.0246  0.0243 -0.4176
 3231TIP3    H131252   5.675   6.355   0.771 -0.7780 -0.1940  0.3831
 3231TIP3    H231253   5.659   6.238   0.676 -0.0710 -0.2924  0.3773
 3232TIP3   OH231254   2.817   6.195   7.882 -0.0252  0.1909  0.1034
 3232TIP3    H131255   2.894   6.246   7.910  0.0130  0.5303 -0.6185
 3232TIP3    H231256   2.773   6.250   7.818  0.2736 -0.8636 -1.0495
 3233TIP3   OH231257   6.318   4.038   0.857 -0.1892 -0.4752  0.0818
 3233TIP3    H131258   6.318   4.022   0.951  0.3257 -1.4497 -0.0779
 3233TIP3    H231259   6.299   4.132   0.849  3.0466  0.4337  1.3014
 3234TIP3   OH231260   4.502   6.324   1.515 -0.2737 -0.0745 -0.2581
 3234TIP3    H131261   4.436   6.393   1.514 -0.0065  0.1775 -0.9405
 3234TIP3    H231262   4.452   6.244   1.495 -0.4606  0.0344 -0.2335
 3235TIP3   OH231263   2.457   2.272   1.870 -0.1479 -0.1971 -0.0347
 3235TIP3    H131264   2.505   2.346   1.833  0.0889  0.0319  0.7160
 3235TIP3    H231265   2.367   2.304   1.879 -0.3203 -0.4153 -0.8408
 3236TIP3   OH231266   5.028   1.876   8.422 -0.3317 -0.0785  0.3757
 3236TIP3    H131267   4.982   1.916   8.349  1.5501 -1.4296 -1.6492
 3236TIP3    H231268   4.988   1.789   8.430 -0.0288 -0.2097  0.4692
 3237TIP3   OH231269   6.564   6.017   3.190 -0.1246  0.3615 -0.1928
 3237TIP3    H131270   6.619   5.940   3.199  0.0195  0.4097 -0.6282
 3237TIP3    H231271   6.618   6.080   3.143 -0.2553  0.7139  0.1251
 3238TIP3   OH231272   6.635   6.779   2.637  0.1990  0.1733 -0.1386
 3238TIP3    H131273   6.625   6.851   2.700  0.8101  0.0660  0.0878
 3238TIP3    H231274   6.728   6.780   2.614  0.0008  0.1483 -0.9702
 3239TIP3   OH231275   6.878   3.168   0.970  0.1777 -0.2460 -0.0736
 3239TIP3    H131276   6.967   3.145   0.996  1.2096  0.4462 -2.7167
 3239TIP3    H231277   6.888   3.246   0.915 -2.3091  1.1557  1.2464
 3240TIP3   OH231278   4.095   1.459   7.620  0.0862  0.2519  0.3569
 3240TIP3    H131279   4.111   1.398   7.692  1.0603 -0.0261 -0.0807
 3240TIP3    H231280   4.012   1.501   7.642 -1.8381 -2.7912 -0.4137
 3241TIP3   OH231281   3.521   2.238   1.912 -0.4715  0.0389 -0.1984
 3241TIP3    H131282   3.515   2.332   1.932  0.7258  0.3496 -1.1449
 3241TIP3    H231283   3.528   2.196   1.998 -0.7352  0.8410  0.2288
 3242TIP3   OH231284   3.598   3.587   1.703  0.3467 -0.1990 -0.0124
 3242TIP3    H131285   3.557   3.603   1.618 -1.9050  2.1213  1.3713
 3242TIP3    H231286   3.537   3.529   1.749 -1.1649  2.5581  1.7354
 3243TIP3   OH231287   3.036   1.223   2.273 -0.1149 -0.6559 -0.1045
 3243TIP3    H131288   2.981   1.149   2.297 -0.3649 -0.7603 -0.9690
 3243TIP3    H231289   3.018   1.289   2.340  0.6551 -1.6196  1.1051
 3244TIP3   OH231290   0.511   2.388   0.375 -0.9449  0.7549 -0.6440
 3244TIP3    H131291   0.493   2.475   0.341 -0.3662  0.8660 -0.6727
 3244TIP3    H231292   0.566   2.347   0.309 -0.9373  0.4864 -0.4732
 3245TIP3   OH231293   2.726   5.686   8.338 -0.3579  0.1900 -0.3454
 3245TIP3    H131294   2.819   5.668   8.354 -0.4844  0.8306  1.2934
 3245TIP3    H231295   2.726   5.768   8.287 -0.0231  1.8528  2.1506
 3246TIP3   OH231296   4.128   6.862   0.235  0.0962  0.3115 -0.5011
 3246TIP3    H131297   4.084   6.818   0.308 -1.6765  1.9024 -0.5052
 3246TIP3    H231298   4.095   6.818   0.157  0.7677 -0.3717 -0.4013
 3247TIP3   OH231299   0.272   5.009   7.431 -0.8347 -0.9601  0.3929
 3247TIP3    H131300   0.319   5.034   7.510 -0.8025 -1.4599  0.5394
 3247TIP3    H231301   0.228   4.927   7.454 -1.5252 -0.6589  0.1574
 3248TIP3   OH231302   4.121   4.267   0.010 -0.0316 -0.7269  0.7364
 3248TIP3    H131303   4.054   4.206   0.040  0.5342 -1.7211  0.0619
 3248TIP3    H231304   4.072   4.339  -0.030 -0.7095 -1.6470 -0.1508
 3249TIP3   OH231305   3.958   6.598   0.828 -0.2387  0.1974  0.3393
 3249TIP3    H131306   3.898   6.672   0.830  0.6611  0.9412  1.5571
 3249TIP3    H231307   4.045   6.638   0.825  0.3570 -0.7138  2.8347
 3250TIP3   OH231308   3.019   6.347   1.048 -0.3048  0.0318  0.3660
 3250TIP3    H131309   2.998   6.354   1.141  0.2749  0.1062  0.4954
 3250TIP3    H231310   3.112   6.322   1.046 -0.3478 -0.1006 -0.1898
 3251TIP3   OH231311   5.251   1.467   8.033  0.3555  0.3204  0.1149
 3251TIP3    H131312   5.245   1.562   8.024 -0.6030  0.3423  0.7703
 3251TIP3    H231313   5.230   1.451   8.126 -0.4564 -0.5820 -0.2044
 3252TIP3   OH231314   3.484   2.509   0.603 -0.8521  0.2220 -0.0494
 3252TIP3    H131315   3.567   2.466   0.585 -1.1610  0.1022 -1.3050
 3252TIP3    H231316   3.487   2.590   0.552 -2.1940 -0.6191 -1.5543
 3253TIP3   OH231317   3.842   5.811   7.636  0.3780 -0.8701 -0.1953
 3253TIP3    H131318   3.827   5.756   7.713 -1.1725 -1.4096 -0.8398
 3253TIP3    H231319   3.835   5.901   7.670 -0.2529 -1.0994  0.3184
 3254TIP3   OH231320   0.873   2.602   0.313  0.4399  0.2109  0.3759
 3254TIP3    H131321   0.926   2.555   0.377 -0.5230 -0.6217  0.6045
 3254TIP3    H231322   0.838   2.533   0.257 -1.1015  0.6262  0.7784
 3255TIP3   OH231323   5.494   5.118   1.828  0.1423  0.6185  0.4541
 3255TIP3    H131324   5.462   5.207   1.811  0.5843  0.9882  1.4185
 3255TIP3    H231325   5.463   5.099   1.917 -3.2741 -1.7404 -1.0369
 3256TIP3   OH231326   3.251   2.642   8.546  0.5879 -0.0813 -0.4962
 3256TIP3    H131327   3.210   2.722   8.580  0.8075 -0.8486  1.7422
 3256TIP3    H231328   3.179   2.580   8.535  0.6324 -0.1265 -0.5328
 3257TIP3   OH231329   2.855   0.773   6.672  0.2958  0.1202 -0.4603
 3257TIP3    H131330   2.820   0.861   6.685 -1.3715 -0.5697  0.0170
 3257TIP3    H231331   2.777   0.717   6.664  1.3104 -1.3461 -0.5310
 3258TIP3   OH231332   2.073   4.962   7.420  0.4960  0.4001  0.4595
 3258TIP3    H131333   2.153   4.989   7.466 -0.0088  0.5543  1.2759
 3258TIP3    H231334   2.006   5.021   7.453  0.0241  0.2125 -0.1520
 3259TIP3   OH231335   5.804   5.288   2.672  0.5227  0.4561  0.0127
 3259TIP3    H131336   5.813   5.295   2.768  2.5144  0.4414 -0.1265
 3259TIP3    H231337   5.891   5.261   2.642  0.2145  1.4367 -1.9049
 3260TIP3   OH231338   2.787   6.221   1.932  0.0665  0.2497  0.1969
 3260TIP3    H131339   2.780   6.157   1.861  0.3964 -0.8085  1.0981
 3260TIP3    H231340   2.742   6.181   2.006 -2.2909  2.3123  0.0010
 3261TIP3   OH231341   6.539   1.112   7.089  0.4423  0.5123 -0.2471
 3261TIP3    H131342   6.609   1.108   7.023  0.5919  0.1527 -0.0647
 3261TIP3    H231343   6.552   1.197   7.132  0.0475  0.9699 -1.0058
 3262TIP3   OH231344   6.886   0.624   1.683  0.4793 -0.7148  0.1575
 3262TIP3    H131345   6.974   0.587   1.677  0.7935  0.1532 -1.2736
 3262TIP3    H231346   6.901   0.716   1.708 -0.1417 -0.9559  1.4864
 3263TIP3   OH231347   1.087   2.292   1.899  0.2003 -0.3687  0.1760
 3263TIP3    H131348   1.007   2.341   1.878 -0.0251 -1.4999 -1.9547
 3263TIP3    H231349   1.122   2.267   1.813  2.2776 -0.8112  1.1045
 3264TIP3   OH231350   5.269   1.257   1.886  0.0904 -0.5336 -0.6630
 3264TIP3    H131351   5.301   1.297   1.967  1.8592  1.8735 -2.4049
 3264TIP3    H231352   5.305   1.168   1.887 -0.4858 -0.8028  1.4335
 3265TIP3   OH231353   5.148   5.477   7.824 -0.3177 -0.2937  0.8341
 3265TIP3    H131354   5.150   5.385   7.851 -3.8381 -1.2957 -1.6154
 3265TIP3    H231355   5.181   5.476   7.734  0.3230  1.0121  1.0253
 3266TIP3   OH231356   0.447   2.631   0.740  0.4078  0.1200  0.7079
 3266TIP3    H131357   0.435   2.536   0.739  0.0840  0.1602  0.4825
 3266TIP3    H231358   0.528   2.645   0.691  0.8719 -0.0907  1.4072
 3267TIP3   OH231359   3.280   1.552   7.407  0.0746 -0.4469 -0.4619
 3267TIP3    H131360   3.313   1.468   7.375  0.5779  0.9390 -4.0985
 3267TIP3    H231361   3.192   1.559   7.370 -1.2467 -0.6077  2.4146
 3268TIP3   OH231362   5.969   1.910   0.406  0.4222 -0.6258 -0.0415
 3268TIP3    H131363   5.899   1.845   0.406 -1.4966  1.1826 -3.0817
 3268TIP3    H231364   6.021   1.889   0.328  0.2095  0.9907 -0.6471
 3269TIP3   OH231365   0.533   3.024   1.438 -0.1488  0.4563 -0.0801
 3269TIP3    H131366   0.461   3.063   1.486 -0.7756 -0.9495  0.1628
 3269TIP3    H231367   0.493   2.955   1.385  0.8647  0.3518 -0.7545
 3270TIP3   OH231368   1.476   6.532   2.680  0.5094  0.2591 -0.2602
 3270TIP3    H131369   1.440   6.601   2.625 -0.1894  0.9901  1.0534
 3270TIP3    H231370   1.432   6.543   2.764  0.6245 -1.5883  0.0955
 3271TIP3   OH231371   5.415   4.569   0.774 -0.6617 -0.1410  0.2279
 3271TIP3    H131372   5.468   4.642   0.805 -0.5633 -1.0193  2.2464
 3271TIP3    H231373   5.335   4.609   0.739  0.0567  0.9989 -0.1413
 3272TIP3   OH231374   0.902   0.956   6.923 -0.1818 -0.4190  0.9087
 3272TIP3    H131375   0.981   0.932   6.876 -0.6030 -0.9220  0.4405
 3272TIP3    H231376   0.843   0.990   6.856 -0.0773  0.7261  1.3678
 3273TIP3   OH231377   0.652   0.182   1.242 -0.2618  0.4923 -0.3087
 3273TIP3    H131378   0.740   0.144   1.245  0.1065  0.9593 -2.9736
 3273TIP3    H231379   0.593   0.107   1.239 -0.1186  0.1508  2.7324
 3274TIP3   OH231380   5.875   3.773   0.379  0.3333  0.4311  0.7724
 3274TIP3    H131381   5.955   3.722   0.393  0.7660  1.0106  0.4481
 3274TIP3    H231382   5.904   3.864   0.375 -0.1616  0.5546 -0.6877
 3275TIP3   OH231383   2.007   0.713   2.639 -0.7437 -0.2915  0.9958
 3275TIP3    H131384   2.042   0.646   2.580 -0.3412  0.0468  0.8455
 3275TIP3    H231385   2.016   0.674   2.727  0.9412  0.1631  1.0624
 3276TIP3   OH231386   0.944   6.523   6.792 -0.2557 -0.0294  0.4054
 3276TIP3    H131387   0.921   6.615   6.783 -1.9482 -0.5590 -1.1673
 3276TIP3    H231388   1.030   6.516   6.749  0.5242  0.9986  1.7015
 3277TIP3   OH231389   3.853   0.230   1.285  0.0293  0.3601 -0.2250
 3277TIP3    H131390   3.788   0.235   1.215  0.1466 -0.0122 -0.3637
 3277TIP3    H231391   3.912   0.304   1.269 -1.1386  1.5316  0.6974
 3278TIP3   OH231392   3.582   6.311   0.000 -0.2233 -0.5601  0.3480
 3278TIP3    H131393   3.574   6.300  -0.095 -0.1484  0.1173  0.2639
 3278TIP3    H231394   3.514   6.254   0.036  0.4115 -1.6154 -0.0732
 3279TIP3   OH231395   2.413   2.605   8.539 -0.0930 -0.4593  0.1643
 3279TIP3    H131396   2.474   2.533   8.553 -1.0347 -1.8182 -2.0526
 3279TIP3    H231397   2.466   2.676   8.502  0.5126 -0.7705  0.4314
 3280TIP3   OH231398   1.823   3.948   8.293  0.1090 -0.1614  0.5344
 3280TIP3    H131399   1.913   3.979   8.299  1.0979 -2.4166 -1.0948
 3280TIP3    H231400   1.827   3.858   8.325 -1.2901 -0.6982 -0.7082
 3281TIP3   OH231401   6.850   2.125   0.936 -0.0420 -0.5350  0.2426
 3281TIP3    H131402   6.913   2.196   0.927  0.5516 -1.2821 -2.4004
 3281TIP3    H231403   6.764   2.168   0.935  0.2866  0.1776 -2.0082
 3282TIP3   OH231404   3.384   1.841   7.354  0.0164 -0.0386  0.6892
 3282TIP3    H131405   3.344   1.755   7.363 -0.9283  0.4353  1.1778
 3282TIP3    H231406   3.381   1.858   7.259  1.9402 -1.3155  0.3501
 3283TIP3   OH231407   0.826   0.981   8.371 -0.2871 -0.5332 -0.0111
 3283TIP3    H131408   0.919   0.959   8.371 -0.6708 -2.3255  0.4660
 3283TIP3    H231409   0.824   1.076   8.356  1.6836 -0.1524  1.5595
 3284TIP3   OH231410   2.346   5.270   1.789 -0.0286 -0.0822 -0.1627
 3284TIP3    H131411   2.349   5.356   1.830  2.7838  0.9980 -2.2934
 3284TIP3    H231412   2.388   5.212   1.852 -0.3286  0.4741  0.5633
 3285TIP3   OH231413   0.829   1.713   8.439 -0.0370 -0.4655  0.2260
 3285TIP3    H131414   0.913   1.717   8.483  0.1394  0.7657 -0.1911
 3285TIP3    H231415   0.844   1.755   8.354 -1.6325  2.0908  1.1055
 3286TIP3   OH231416   1.311   0.576   8.267 -0.1135  0.0367 -0.2153
 3286TIP3    H131417   1.285   0.501   8.320  2.0649  0.3379  1.4240
 3286TIP3    H231418   1.255   0.648   8.297 -0.4508 -0.3317  0.0401
 3287TIP3   OH231419   1.628   0.879   0.289  0.1889  0.1954 -0.0032
 3287TIP3    H131420   1.700   0.846   0.235 -0.3826  0.0833 -0.7173
 3287TIP3    H231421   1.670   0.915   0.367  0.9662 -0.5259 -0.0719
 3288TIP3   OH231422   6.339   5.917   1.004  0.2029  0.0692 -0.3199
 3288TIP3    H131423   6.251   5.939   1.036  0.3964  0.3958  0.0035
 3288TIP3    H231424   6.391   5.905   1.083  0.9922  2.1199 -0.4632
 3289TIP3   OH231425   4.456   4.112   0.520  0.1583 -0.3190 -0.5306
 3289TIP3    H131426   4.551   4.109   0.512  0.2459 -3.2142  0.4974
 3289TIP3    H231427   4.439   4.104   0.614 -1.1418  0.8221 -0.6216
 3290TIP3   OH231428   0.159   3.637   1.325  0.0264 -0.3156  0.3025
 3290TIP3    H131429   0.064   3.648   1.331 -0.0285 -0.6461  0.1092
 3290TIP3    H231430   0.170   3.550   1.285  0.3575  1.2790 -3.5163
 3291TIP3   OH231431   5.020   2.670   1.695  0.3515 -0.1707  0.4215
 3291TIP3    H131432   4.935   2.685   1.653  0.3242 -0.4763  0.3605
 3291TIP3    H231433   5.016   2.719   1.777 -0.0018 -0.4241  0.5601
 3292TIP3   OH231434   1.527   3.081   6.362  0.3916 -0.0191 -0.2489
 3292TIP3    H131435   1.614   3.052   6.335  0.2546 -0.4005 -0.2830
 3292TIP3    H231436   1.540   3.113   6.451  0.9146  1.5691 -0.8532
 3293TIP3   OH231437   2.536   6.182   2.283  0.1335  0.2572  0.4025
 3293TIP3    H131438   2.475   6.200   2.212  1.7044 -1.0704 -1.3807
 3293TIP3    H231439   2.600   6.252   2.279  2.5776 -1.8766 -2.3454
 3294TIP3   OH231440   4.790   5.205   0.120 -0.0438  0.1152  0.4784
 3294TIP3    H131441   4.751   5.290   0.101  2.4020  1.0678 -0.7632
 3294TIP3    H231442   4.885   5.220   0.115  0.4887 -2.6603  0.3172
 3295TIP3   OH231443   1.982   6.159   2.424 -0.3406 -0.1678 -0.3645
 3295TIP3    H131444   1.908   6.168   2.484  0.1960  2.9614  0.0077
 3295TIP3    H231445   2.059   6.183   2.477  0.4047  0.6199 -1.7489
 3296TIP3   OH231446   4.551   2.449   0.551  0.5196  0.2889  0.1713
 3296TIP3    H131447   4.553   2.390   0.626  0.0994  0.9087  0.6773
 3296TIP3    H231448   4.639   2.486   0.547  0.3971  0.6307  0.6616
 3297TIP3   OH231449   5.167   0.645   0.460  0.1579 -0.1926  0.3017
 3297TIP3    H131450   5.172   0.666   0.366  1.0169  0.0719  0.3977
 3297TIP3    H231451   5.229   0.705   0.501 -0.4235 -0.1075  1.0861
 3298TIP3   OH231452   1.380   3.627   0.899 -0.4573 -0.4342 -0.1218
 3298TIP3    H131453   1.354   3.543   0.937  2.3048 -0.9326  0.9537
 3298TIP3    H231454   1.397   3.607   0.807  1.2478 -1.4070  0.3539
 3299TIP3   OH231455   6.234   6.096   0.775 -0.2254 -0.0683 -0.3323
 3299TIP3    H131456   6.219   6.042   0.698  0.4924 -0.1240 -0.4431
 3299TIP3    H231457   6.270   6.035   0.840 -1.5379 -0.1800  0.3078
 3300TIP3   OH231458   2.696   0.239   8.028  0.1518 -0.8552 -0.0172
 3300TIP3    H131459   2.709   0.192   7.945 -0.8632 -1.5370  0.1770
 3300TIP3    H231460   2.624   0.191   8.070  0.3922 -0.2738  1.0771
 3301TIP3   OH231461   1.041   0.825   2.018 -0.3050 -0.5078  0.2261
 3301TIP3    H131462   0.993   0.800   1.940  0.3940  0.6041 -0.5935
 3301TIP3    H231463   1.067   0.916   2.002 -1.3868  0.2697  2.3675
 3302TIP3   OH231464   4.987   1.138   7.387 -0.4452  0.3784  0.5750
 3302TIP3    H131465   5.001   1.055   7.343  1.5591  0.5928  0.7067
 3302TIP3    H231466   5.022   1.204   7.326 -0.5400  0.9665  1.1389
 3303TIP3   OH231467   0.741   4.950   8.539 -0.1425  0.9094  0.2002
 3303TIP3    H131468   0.679   5.011   8.500  0.0236  2.4556  2.2113
 3303TIP3    H231469   0.825   4.970   8.497 -0.4788  0.6507 -0.6034
 3304TIP3   OH231470   1.900   5.597   1.379  0.8761  0.2386  0.6816
 3304TIP3    H131471   1.883   5.531   1.446  1.6064 -1.2625 -0.5428
 3304TIP3    H231472   1.946   5.549   1.310  1.7636  2.1237 -0.0970
 3305TIP3   OH231473   4.282   2.946   7.204  0.0541  0.5701  0.3808
 3305TIP3    H131474   4.330   2.868   7.231  0.1251  0.3184 -0.4542
 3305TIP3    H231475   4.324   3.018   7.252  1.2883  0.3609 -0.3464
 3306TIP3   OH231476   3.440   4.581   8.454 -0.5724 -0.2148 -0.0746
 3306TIP3    H131477   3.386   4.566   8.376 -0.4731  1.8143 -0.5925
 3306TIP3    H231478   3.484   4.497   8.469 -1.4154 -0.9670 -1.5429
 3307TIP3   OH231479   1.463   0.982   7.274  0.1562 -0.5109  0.2375
 3307TIP3    H131480   1.487   0.951   7.361  1.4672  1.2878  0.5930
 3307TIP3    H231481   1.368   0.990   7.276 -0.1526 -3.2992  0.4448
 3308TIP3   OH231482   5.130   1.809   1.796 -0.0349  0.5006 -0.1958
 3308TIP3    H131483   5.049   1.757   1.804  0.6088 -0.3475  1.0719
 3308TIP3    H231484   5.193   1.764   1.853  1.3163  1.1983 -1.1003
 3309TIP3   OH231485   4.546   3.102   0.062 -0.2599  0.0194 -0.1892
 3309TIP3    H131486   4.550   3.047  -0.016 -2.2154  0.8747 -0.9400
 3309TIP3    H231487   4.620   3.162   0.053  1.2176 -1.6890  0.0718
 3310TIP3   OH231488   2.261   4.155   8.090 -0.1378 -0.2460  0.2394
 3310TIP3    H131489   2.352   4.175   8.067  0.0721 -0.8155  0.5471
 3310TIP3    H231490   2.209   4.196   8.021  0.2855  1.0435  0.6461
 3311TIP3   OH231491   5.165   3.377   0.330  0.9078  0.6243  0.2964
 3311TIP3    H131492   5.157   3.304   0.268  2.9447  0.6997 -0.1312
 3311TIP3    H231493   5.207   3.338   0.406  0.8517  1.0927  0.5669
 3312TIP3   OH231494   1.500   1.021   2.069  0.2740 -0.1837 -0.4705
 3312TIP3    H131495   1.409   1.036   2.043  0.2361  0.5309  0.0298
 3312TIP3    H231496   1.498   0.937   2.115 -0.1321 -0.1728 -0.4607
 3313TIP3   OH231497   6.339   5.313   7.018 -0.5694  0.3213 -0.8278
 3313TIP3    H131498   6.259   5.365   7.005 -1.0704 -0.0334  0.6277
 3313TIP3    H231499   6.320   5.228   6.977 -0.3469  0.7306 -1.8113
 3314TIP3   OH231500   2.182   4.134   1.116  0.2116  0.1251  0.4514
 3314TIP3    H131501   2.118   4.063   1.122 -0.3076  0.5615  0.1007
 3314TIP3    H231502   2.263   4.091   1.092 -0.3478 -0.2305 -0.8679
 3315TIP3   OH231503   6.368   3.680   7.150  0.7209  0.0437  0.3570
 3315TIP3    H131504   6.278   3.670   7.182  0.9893 -0.1921  1.0668
 3315TIP3    H231505   6.386   3.599   7.105  0.8271 -0.2214  0.8658
 3316TIP3   OH231506   3.388   5.922   1.261  0.0935 -0.5682 -0.1823
 3316TIP3    H131507   3.343   5.846   1.224  0.7879 -1.6627  1.1275
 3316TIP3    H231508   3.481   5.898   1.259  0.1589 -0.9844  2.6982
 3317TIP3   OH231509   3.034   1.668   7.214 -0.3274  0.2136 -0.1902
 3317TIP3    H131510   3.043   1.573   7.202  0.9595  0.2043  0.6746
 3317TIP3    H231511   3.064   1.705   7.130 -0.2660 -0.1251 -0.3222
 3318TIP3   OH231512   2.479   3.686   6.864  0.0662 -0.2168 -0.3329
 3318TIP3    H131513   2.449   3.740   6.791  0.5315 -0.6261 -0.8342
 3318TIP3    H231514   2.406   3.626   6.881 -1.6926  2.3273  2.1081
 3319TIP3   OH231515   5.903   1.946   1.185  0.2981 -0.0707 -0.7959
 3319TIP3    H131516   5.962   2.002   1.135  0.4933  0.8436  0.3974
 3319TIP3    H231517   5.838   2.007   1.222  0.4604 -0.6199  0.4502
 3320TIP3   OH231518   4.332   4.957   7.303 -0.2394 -0.2154 -0.3622
 3320TIP3    H131519   4.400   4.932   7.365  0.4530  1.1180 -0.5345
 3320TIP3    H231520   4.328   5.053   7.310 -1.4448 -0.1961 -1.0416
 3321TIP3   OH231521   3.205   0.446   2.210 -0.2039 -0.8093 -0.0021
 3321TIP3    H131522   3.152   0.468   2.286  2.0760 -0.1043  1.4694
 3321TIP3    H231523   3.219   0.530   2.166 -1.2756 -1.1724 -1.0833
 3322TIP3   OH231524   4.803   1.147   1.687  0.2492 -0.2498 -0.6298
 3322TIP3    H131525   4.818   1.061   1.727 -0.5171 -1.1990 -2.2707
 3322TIP3    H231526   4.712   1.167   1.708  0.9656  1.1721  1.4638
 3323TIP3   OH231527   6.309   4.458   7.897  0.2878  0.1662 -0.1662
 3323TIP3    H131528   6.330   4.373   7.936 -0.7709  0.2024  0.5324
 3323TIP3    H231529   6.385   4.478   7.843  1.2735 -0.4825  0.9013
 3324TIP3   OH231530   3.863   1.371   1.154 -0.5281  0.0773  0.3699
 3324TIP3    H131531   3.861   1.344   1.246 -1.6801 -3.3156 -0.5059
 3324TIP3    H231532   3.771   1.387   1.132 -0.2820  0.6990 -0.2276
 3325TIP3   OH231533   4.994   6.146   1.175 -0.2077  0.7446  0.0889
 3325TIP3    H131534   4.938   6.114   1.245  0.9913 -0.3069  0.6151
 3325TIP3    H231535   5.056   6.205   1.219  0.1361  0.6036 -0.1983
 3326TIP3   OH231536   0.574   2.539   6.575  0.5186  0.1608 -0.0507
 3326TIP3    H131537   0.636   2.502   6.512 -1.1535  0.3140 -1.8791
 3326TIP3    H231538   0.550   2.465   6.631  0.7129 -0.4315 -0.7259
 3327TIP3   OH231539   1.701   0.525   1.486  0.3664 -0.3854  1.2771
 3327TIP3    H131540   1.706   0.513   1.581  1.3856 -1.7346  1.0823
 3327TIP3    H231541   1.753   0.603   1.468  2.0251 -1.3646  1.6400
 3328TIP3   OH231542   1.435   2.778   0.563  0.2508  0.1845 -0.6100
 3328TIP3    H131543   1.405   2.744   0.647 -0.6192  1.5309 -0.3527
 3328TIP3    H231544   1.531   2.769   0.567  0.1608 -0.5730  0.1475
 3329TIP3   OH231545   1.753   3.365   0.504  0.0432 -0.1446  0.3959
 3329TIP3    H131546   1.750   3.348   0.598  1.6714 -0.0942  0.4890
 3329TIP3    H231547   1.821   3.433   0.494 -0.8650  0.6343 -0.7157
 3330TIP3   OH231548   4.510   3.823   1.599 -0.1002 -0.2237  0.3055
 3330TIP3    H131549   4.482   3.744   1.553 -0.2172  0.0221 -0.0536
 3330TIP3    H231550   4.455   3.892   1.562 -0.1454 -0.0117  0.7679
 3331TIP3   OH231551   5.569   3.269   8.241 -0.9221  0.2479  0.0931
 3331TIP3    H131552   5.474   3.271   8.232 -0.9245 -1.3412 -0.4696
 3331TIP3    H231553   5.586   3.206   8.311 -0.2793  0.4829  0.1615
 3332TIP3   OH231554   1.756   5.333   8.361  0.6755 -0.2861 -0.5909
 3332TIP3    H131555   1.711   5.399   8.414 -1.6962 -3.0833  1.2203
 3332TIP3    H231556   1.749   5.365   8.271 -0.8993  1.6485  0.1538
 3333TIP3   OH231557   5.872   2.259   8.238 -0.0207 -0.0709 -0.4285
 3333TIP3    H131558   5.852   2.212   8.157  0.6228 -0.2034 -0.5126
 3333TIP3    H231559   5.818   2.216   8.304  0.3988 -0.7940 -0.5472
 3334TIP3   OH231560   3.375   6.364   7.239  0.3162 -0.2545 -0.7138
 3334TIP3    H131561   3.327   6.397   7.163 -0.6512 -1.4797 -0.6750
 3334TIP3    H231562   3.308   6.353   7.306  0.6694 -1.7592 -0.5707
 3335TIP3   OH231563   2.252   3.629   8.283 -0.6801 -0.6022 -0.1871
 3335TIP3    H131564   2.190   3.691   8.321  1.7959  1.6845  0.4279
 3335TIP3    H231565   2.239   3.548   8.332  0.6495  1.4772  4.0255
 3336TIP3   OH231566   0.295   5.896   0.468  0.0367  0.5076 -0.6612
 3336TIP3    H131567   0.230   5.829   0.488  0.0810  0.5160 -0.4916
 3336TIP3    H231568   0.308   5.889   0.373 -0.2979  0.5865 -0.7125
 3337TIP3   OH231569   0.299   5.782   6.829 -0.4117 -0.1217 -0.3442
 3337TIP3    H131570   0.260   5.741   6.751 -0.2368 -0.2082 -0.3879
 3337TIP3    H231571   0.388   5.746   6.832  0.7899  2.3763 -2.0448
 3338TIP3   OH231572   4.632   2.776   1.265  0.4031 -0.8534 -0.4552
 3338TIP3    H131573   4.662   2.810   1.180  0.2226 -1.9615 -0.9839
 3338TIP3    H231574   4.589   2.850   1.307  0.3847 -0.3223 -1.3865
 3339TIP3   OH231575   1.617   6.156   7.724  0.0489 -0.4401  0.0360
 3339TIP3    H131576   1.612   6.233   7.667 -0.4102 -1.9128 -2.0377
 3339TIP3    H231577   1.704   6.119   7.706 -0.2909 -1.1910 -0.0988
 3340TIP3   OH231578   0.544   6.172   7.348 -0.5415 -0.0935 -0.1435
 3340TIP3    H131579   0.582   6.133   7.427  1.1220 -0.8817 -1.2642
 3340TIP3    H231580   0.607   6.239   7.322 -0.6845 -0.3534 -1.2060
 3341TIP3   OH231581   4.637   2.289   7.936 -0.1323  0.1095  0.2878
 3341TIP3    H131582   4.583   2.278   8.014 -0.0754  1.0307  0.4669
 3341TIP3    H231583   4.606   2.221   7.875  2.0670 -2.9310  2.2912
 3342TIP3   OH231584   0.754   1.342   1.469 -0.4824  0.5410 -0.5634
 3342TIP3    H131585   0.697   1.275   1.431 -0.4146  1.4734 -2.4152
 3342TIP3    H231586   0.703   1.377   1.543 -1.8905  0.6624 -1.5475
 3343TIP3   OH231587   2.958   0.027   0.754  0.3823  0.8699 -0.1547
 3343TIP3    H131588   2.921   0.086   0.688  0.7979  0.5148 -0.7108
 3343TIP3    H231589   2.894  -0.044   0.762  1.5694 -0.5186 -2.1964
 3344TIP3   OH231590   2.936   1.992   1.699 -0.2700  0.2922  0.3865
 3344TIP3    H131591   2.857   1.980   1.647  0.0885  0.1262 -0.1331
 3344TIP3    H231592   2.905   2.021   1.785 -0.8284  2.0153 -0.3467
 3345TIP3   OH231593   2.445   0.042   1.040  0.0993  0.2136  0.2219
 3345TIP3    H131594   2.366  -0.005   1.067 -0.1755 -0.1147 -1.0537
 3345TIP3    H231595   2.413   0.108   0.979  0.6720  1.0057  0.7637
 3346TIP3   OH231596   2.520   0.137   0.728 -0.6412  0.1084  0.6650
 3346TIP3    H131597   2.579   0.072   0.766  0.8947  0.9153 -0.2436
 3346TIP3    H231598   2.556   0.221   0.755 -1.6856  0.6230  0.5132
 3347TIP3   OH231599   4.712   1.459   1.752  0.3326  0.2101 -0.1104
 3347TIP3    H131600   4.696   1.469   1.846  0.6980 -3.7337  0.5367
 3347TIP3    H231601   4.645   1.396   1.724  1.2739  0.0646 -2.1229
 3348TIP3   OH231602   6.519   3.257   2.711 -0.3554  0.1918 -0.0996
 3348TIP3    H131603   6.582   3.241   2.640 -1.6979  0.2537 -1.3349
 3348TIP3    H231604   6.506   3.352   2.710 -0.8776  0.1209 -0.2139
 3349TIP3   OH231605   2.171   0.917   8.440 -0.6706 -0.2093  1.1324
 3349TIP3    H131606   2.251   0.927   8.389  0.0421  1.0564  2.4025
 3349TIP3    H231607   2.155   0.823   8.442  1.1359 -0.5478  1.3534
 3350TIP3   OH231608   4.933   6.572   1.258 -0.7222 -0.3602  0.0450
 3350TIP3    H131609   4.885   6.654   1.265  1.1432  0.7822  0.2253
 3350TIP3    H231610   5.009   6.594   1.204 -0.9586 -2.3712 -1.2128
 3351TIP3   OH231611   1.419   2.546   7.529 -0.1765  0.6692 -0.2264
 3351TIP3    H131612   1.502   2.506   7.554 -1.1407 -1.2539  0.1133
 3351TIP3    H231613   1.377   2.481   7.472 -1.0796  1.9789 -1.1377
 3352TIP3   OH231614   2.669   5.818   0.056  0.0082  0.4624  0.1643
 3352TIP3    H131615   2.609   5.817   0.130  1.0819  1.3299  1.0919
 3352TIP3    H231616   2.635   5.752  -0.004 -2.6234  1.8174  0.0149
 3353TIP3   OH231617   2.149   2.239   2.156 -0.2901  0.0457 -0.4516
 3353TIP3    H131618   2.110   2.306   2.211  3.6991  0.8776  1.7707
 3353TIP3    H231619   2.145   2.158   2.208  1.4984  0.3431  0.2431
 3354TIP3   OH231620   3.680   1.665   0.273  0.0842  0.3789  0.4240
 3354TIP3    H131621   3.638   1.738   0.319 -1.4850 -1.2814  1.7904
 3354TIP3    H231622   3.757   1.703   0.231 -0.3504  2.6719  1.5966
 3355TIP3   OH231623   1.476   2.983   8.070  0.3394  0.1466 -0.0944
 3355TIP3    H131624   1.547   3.047   8.062  1.1552 -0.6862  0.2860
 3355TIP3    H231625   1.405   3.031   8.112  1.0342  0.7388  0.4414
 3356TIP3   OH231626   1.639   2.471   7.244 -0.3483 -0.2861  0.2951
 3356TIP3    H131627   1.709   2.450   7.306 -0.9183  0.7524  1.3277
 3356TIP3    H231628   1.564   2.421   7.275 -0.1790 -1.1362 -0.6138
 3357TIP3   OH231629   6.127   0.513   1.400  0.4250  0.5365  0.2771
 3357TIP3    H131630   6.218   0.531   1.427  0.7159  0.7719 -0.8127
 3357TIP3    H231631   6.135   0.482   1.310 -0.4774 -0.7794  0.6236
 3358TIP3   OH231632   2.406   1.377   7.442 -0.4905  0.0230 -0.4085
 3358TIP3    H131633   2.388   1.470   7.430 -0.9883 -0.0435 -0.2115
 3358TIP3    H231634   2.333   1.333   7.398 -0.8895 -0.2570  0.5246
 3359TIP3   OH231635   5.441   3.793   0.512  0.4986  0.0672 -0.1331
 3359TIP3    H131636   5.400   3.879   0.500  0.8708  0.4484  1.1594
 3359TIP3    H231637   5.476   3.770   0.426 -0.5963  0.6830 -0.7619
 3360TIP3   OH231638   0.811   5.911   6.458  0.3629 -0.5089  0.6674
 3360TIP3    H131639   0.894   5.865   6.464  0.7094 -0.0415 -0.3152
 3360TIP3    H231640   0.778   5.889   6.370 -0.1515 -0.0404  0.7395
 3361TIP3   OH231641   2.360   1.469   2.795  0.3642 -0.0902 -0.0289
 3361TIP3    H131642   2.318   1.503   2.874  0.6623 -0.1100  0.1397
 3361TIP3    H231643   2.368   1.375   2.811  0.9428 -0.0085  0.1565
 3362TIP3   OH231644   5.165   1.814   0.251  0.4056  0.2341 -0.5049
 3362TIP3    H131645   5.151   1.897   0.206  1.8146 -0.0454 -1.5263
 3362TIP3    H231646   5.233   1.832   0.315  1.4735 -0.3274 -1.4350
 3363TIP3   OH231647   0.680   3.931   1.648  0.0009 -0.4286  0.7749
 3363TIP3    H131648   0.661   4.014   1.605 -1.2830 -1.0084  0.1654
 3363TIP3    H231649   0.646   3.941   1.737 -0.9589 -0.5899  0.4363
 3364TIP3   OH231650   3.154   0.766   6.969 -0.2840 -0.3349 -0.3359
 3364TIP3    H131651   3.145   0.806   6.882  2.2117 -0.0273 -0.5375
 3364TIP3    H231652   3.234   0.714   6.963  1.1432  1.3459  2.3576
 3365TIP3   OH231653   1.663   6.407   7.612 -0.0292 -0.4316  0.0653
 3365TIP3    H131654   1.612   6.475   7.570 -1.3369 -0.2635  1.7911
 3365TIP3    H231655   1.717   6.453   7.676 -2.6810 -0.9889  3.0159
 3366TIP3   OH231656   6.007   5.553   1.588  0.4299 -0.4342 -0.4684
 3366TIP3    H131657   6.072   5.502   1.638 -0.3410  1.6106  2.8861
 3366TIP3    H231658   6.058   5.625   1.550  0.3482  0.7362  1.5217
 3367TIP3   OH231659   3.756   6.146   6.886  0.1680 -0.4250  0.2347
 3367TIP3    H131660   3.700   6.141   6.964 -0.4546  1.5604 -0.0457
 3367TIP3    H231661   3.719   6.080   6.827 -0.0718 -1.1347  1.1433
 3368TIP3   OH231662   5.648   5.582   1.720 -0.0037  0.4556 -0.0480
 3368TIP3    H131663   5.714   5.591   1.789 -0.6766 -0.8439  0.8174
 3368TIP3    H231664   5.642   5.487   1.706 -0.2932  0.6735 -1.5096
 3369TIP3   OH231665   1.654   0.275   7.698 -0.1702  0.0323 -0.2499
 3369TIP3    H131666   1.607   0.308   7.622  0.6148 -0.6402 -1.0577
 3369TIP3    H231667   1.585   0.249   7.759 -0.8265  0.2424 -0.8820
 3370TIP3   OH231668   5.116   6.846   7.576  0.1123  0.3471 -0.3942
 3370TIP3    H131669   5.039   6.789   7.584 -0.2313  0.8751  0.1060
 3370TIP3    H231670   5.180   6.807   7.635 -0.1637  0.5362  0.0384
 3371TIP3   OH231671   4.324   3.230   0.215 -0.4101  0.0579 -0.2888
 3371TIP3    H131672   4.264   3.217   0.288  1.8211  0.1107  1.6987
 3371TIP3    H231673   4.376   3.307   0.241  1.9269 -1.2423 -0.7934
 3372TIP3   OH231674   2.087   4.521   0.924  0.0810  0.0868 -0.0524
 3372TIP3    H131675   2.040   4.572   0.858 -0.8022 -1.3399 -0.5590
 3372TIP3    H231676   2.176   4.558   0.923 -0.0123  0.3762 -1.7493
 3373TIP3   OH231677   5.410   2.974   8.441  0.3277 -0.0364 -0.6676
 3373TIP3    H131678   5.361   2.900   8.405 -1.1419  0.8852 -0.6458
 3373TIP3    H231679   5.359   3.051   8.416  1.2671  0.9061  0.2076
 3374TIP3   OH231680   0.543   5.824   8.278  0.1026 -0.3617 -0.0107
 3374TIP3    H131681   0.602   5.899   8.282  0.0928 -0.2785 -1.1314
 3374TIP3    H231682   0.517   5.819   8.186  0.4299 -1.9870 -0.0415
 3375TIP3   OH231683   5.421   6.203   0.123 -0.3457  0.4062 -0.0783
 3375TIP3    H131684   5.451   6.114   0.104 -1.0444  0.2314 -0.3839
 3375TIP3    H231685   5.495   6.259   0.098 -0.0586 -0.0590 -0.2801
 3376TIP3   OH231686   6.185   6.079   8.172 -0.1159  0.3887  0.1670
 3376TIP3    H131687   6.117   6.094   8.106  1.7229  0.0597 -1.9438
 3376TIP3    H231688   6.137   6.073   8.255 -2.7625 -0.9547 -1.3210
 3377TIP3   OH231689   3.654   6.416   1.997 -0.5168  0.4337  0.3577
 3377TIP3    H131690   3.619   6.415   1.908 -0.7607  1.8577  0.4093
 3377TIP3    H231691   3.578   6.396   2.052 -0.1932 -1.2955  0.2347
 3378TIP3   OH231692   0.036   6.771   6.679 -0.2774  0.3986 -0.3521
 3378TIP3    H131693   0.020   6.688   6.723 -0.0971  1.0079  0.9200
 3378TIP3    H231694   0.126   6.794   6.703 -0.7658  1.6032  0.4845
 3379TIP3   OH231695   4.005   1.672   0.868  0.1236 -0.1520 -0.8764
 3379TIP3    H131696   3.934   1.692   0.928  0.3889 -1.5414 -0.0510
 3379TIP3    H231697   3.964   1.626   0.795  0.2374 -1.8024  0.0433
 3380TIP3   OH231698   2.803   1.948   6.881 -0.2259  0.0102  0.2677
 3380TIP3    H131699   2.748   2.012   6.925  0.8197  1.7246 -0.7963
 3380TIP3    H231700   2.757   1.865   6.891 -1.7558  0.9583  1.4819
 3381TIP3   OH231701   2.780   6.613   0.313 -0.3657 -0.3789  0.0911
 3381TIP3    H131702   2.813   6.565   0.389  0.4602 -0.2075 -0.1491
 3381TIP3    H231703   2.726   6.682   0.350  1.6712  1.0018  0.6681
 3382TIP3   OH231704   6.869   0.870   6.588 -0.6128  0.3460  0.0182
 3382TIP3    H131705   6.879   0.921   6.669  3.2317 -0.1614  0.0467
 3382TIP3    H231706   6.875   0.935   6.518 -0.4399  0.4351  0.1138
 3383TIP3   OH231707   3.927   5.773   8.551  0.0891 -0.0997  0.3218
 3383TIP3    H131708   3.953   5.864   8.543 -0.2039 -0.0752 -0.3967
 3383TIP3    H231709   4.009   5.724   8.552  0.2414  0.1576  0.5742
 3384TIP3   OH231710   6.895   2.134   7.967 -0.5929 -0.3051 -0.0695
 3384TIP3    H131711   6.847   2.090   8.037 -0.9563  0.0359 -0.1057
 3384TIP3    H231712   6.828   2.173   7.912 -0.2630  0.6898  0.2181
 3385TIP3   OH231713   3.902   2.681   1.074  0.1304  0.2394 -0.1673
 3385TIP3    H131714   3.895   2.594   1.113 -1.6572  0.0447 -0.8173
 3385TIP3    H231715   3.947   2.666   0.991  0.9082  0.1342  0.2654
 3386TIP3   OH231716   3.349   5.975   0.451  0.1227  0.0159 -0.0790
 3386TIP3    H131717   3.288   6.012   0.387  0.9253 -1.0660 -1.5327
 3386TIP3    H231718   3.353   5.882   0.429  0.0444 -0.5179  1.9035
 3387TIP3   OH231719   2.527   0.500   1.495  0.2437 -0.0217  0.6595
 3387TIP3    H131720   2.611   0.543   1.481 -0.0949  0.2720 -0.5463
 3387TIP3    H231721   2.463   0.571   1.491 -0.2146 -0.4742 -0.1869
 3388TIP3   OH231722   3.209   5.255   7.010  0.3240 -0.2294 -0.1071
 3388TIP3    H131723   3.302   5.268   6.988  0.1847 -0.3790 -0.8282
 3388TIP3    H231724   3.171   5.218   6.930 -0.8931  2.1799 -0.7585
 3389TIP3   OH231725   5.814   2.423   1.387  0.0108 -0.3350  0.1347
 3389TIP3    H131726   5.865   2.483   1.441  0.7879  0.3424 -1.2842
 3389TIP3    H231727   5.856   2.338   1.401 -1.6465 -0.8168  2.8418
 3390TIP3   OH231728   0.687   6.788   2.223 -0.6718 -0.0588 -0.5975
 3390TIP3    H131729   0.724   6.700   2.221  1.2307  0.6983 -0.3955
 3390TIP3    H231730   0.743   6.836   2.284 -2.0263  1.1484 -0.2580
 3391TIP3   OH231731   1.773   1.205   1.566 -0.0527  0.1081  0.7947
 3391TIP3    H131732   1.751   1.291   1.603 -1.5512  0.6178 -1.0935
 3391TIP3    H231733   1.717   1.143   1.612 -0.1930  0.3774  0.9879
 3392TIP3   OH231734   3.767   5.033   7.965  0.3413  0.4571 -0.1784
 3392TIP3    H131735   3.682   4.992   7.948  0.3157  0.8849 -1.1683
 3392TIP3    H231736   3.770   5.106   7.903  1.5738  0.2431 -0.3854
 3393TIP3   OH231737   0.345   2.928   0.110 -0.4024  0.0493 -0.1264
 3393TIP3    H131738   0.260   2.931   0.154  0.0515 -1.7973  0.9881
 3393TIP3    H231739   0.407   2.964   0.173 -0.3813  1.8625 -1.1243
 3394TIP3   OH231740   1.623   3.698   0.606 -0.3681  0.3838 -0.1833
 3394TIP3    H131741   1.609   3.606   0.629  1.2578  0.4823  1.4349
 3394TIP3    H231742   1.578   3.709   0.522 -0.4547 -1.9230 -0.4974
 3395TIP3   OH231743   3.933   1.960   8.372 -0.0229 -0.5029  0.2404
 3395TIP3    H131744   3.966   1.966   8.282  1.1038 -0.3971  0.6505
 3395TIP3    H231745   3.855   1.904   8.365 -0.9584  0.8661 -1.0523
 3396TIP3   OH231746   4.706   0.710   8.079 -0.0662 -0.5476  0.4697
 3396TIP3    H131747   4.755   0.727   7.999 -1.6953  0.0764 -0.4483
 3396TIP3    H231748   4.772   0.710   8.149  0.9174  3.6493 -0.2084
 3397TIP3   OH231749   2.167   0.931   0.625 -0.0404  0.3089  0.4676
 3397TIP3    H131750   2.191   1.024   0.629 -1.5961  0.8095 -0.7027
 3397TIP3    H231751   2.162   0.912   0.531 -1.2956 -0.5037  0.6744
 3398TIP3   OH231752   3.871   4.741   0.414  0.5876 -0.1142 -0.4568
 3398TIP3    H131753   3.900   4.815   0.468 -1.5628  1.2731 -1.1016
 3398TIP3    H231754   3.818   4.687   0.473 -0.0823  0.3240 -0.6471
 3399TIP3   OH231755   1.780   3.005   0.634  0.3567  0.4127 -0.5713
 3399TIP3    H131756   1.760   2.913   0.618 -0.5387  0.6441 -0.8660
 3399TIP3    H231757   1.779   3.013   0.730  0.1960  0.1611 -0.5490
 3400TIP3   OH231758   3.880   3.586   1.753 -0.0813  0.0918  0.2151
 3400TIP3    H131759   3.786   3.605   1.760  0.0226  0.1278  2.1206
 3400TIP3    H231760   3.895   3.516   1.817  1.6519  2.0360  2.1124
 3401TIP3   OH231761   2.867   4.335   1.702 -0.3793  0.2224  0.0963
 3401TIP3    H131762   2.962   4.339   1.714  0.1131  1.1886 -3.1146
 3401TIP3    H231763   2.842   4.251   1.741  1.5922  0.4113  1.9494
 3402TIP3   OH231764   1.756   2.762   0.249 -0.2755 -0.0817 -0.0295
 3402TIP3    H131765   1.729   2.714   0.171 -1.6248 -0.3552  0.5823
 3402TIP3    H231766   1.744   2.854   0.226 -0.1739 -0.1391 -0.3161
 3403TIP3   OH231767   5.083   1.170   1.622 -0.0865 -0.0464 -0.1337
 3403TIP3    H131768   5.102   1.096   1.680  1.3995  1.4372  1.3943
 3403TIP3    H231769   4.989   1.183   1.629 -0.1864 -1.0288  0.5153
 3404TIP3   OH231770   5.719   6.800   2.287  0.3008 -0.1364  0.2515
 3404TIP3    H131771   5.704   6.888   2.323 -0.7337 -0.5159  0.8060
 3404TIP3    H231772   5.652   6.790   2.219  0.9410 -0.1963 -0.3804
 3405TIP3   OH231773   0.542   1.915   0.620  0.2245 -0.0217  0.4956
 3405TIP3    H131774   0.468   1.857   0.635  0.1451 -0.5941 -1.8483
 3405TIP3    H231775   0.503   1.998   0.595  0.3345 -0.5066 -1.3798
 3406TIP3   OH231776   4.958   5.014   1.648 -0.4177 -0.2699  0.3106
 3406TIP3    H131777   5.033   4.960   1.673  0.0491  0.4149  0.4153
 3406TIP3    H231778   4.995   5.101   1.633 -0.8778 -0.3748 -1.6026
 3407TIP3   OH231779   2.899   2.631   6.930  0.2768 -0.4778  0.2686
 3407TIP3    H131780   2.954   2.591   6.863 -0.3688  0.8745 -1.1430
 3407TIP3    H231781   2.821   2.660   6.883 -0.6547 -0.3964  1.8106
 3408TIP3   OH231782   0.510   2.319   1.734  0.1226  0.4988  0.1211
 3408TIP3    H131783   0.519   2.226   1.713  0.5757  0.4121  0.6771
 3408TIP3    H231784   0.546   2.364   1.658 -2.7310  0.3045 -1.4941
 3409TIP3   OH231785   5.130   6.348   1.616 -0.4352 -0.1714 -1.0708
 3409TIP3    H131786   5.126   6.440   1.644 -0.1201  0.0644 -1.7635
 3409TIP3    H231787   5.213   6.341   1.569 -0.1273 -0.9950 -0.4209
 3410TIP3   OH231788   5.990   5.793   7.270  0.1459 -0.4214 -0.6152
 3410TIP3    H131789   5.977   5.709   7.226 -1.4676 -0.5589  0.0564
 3410TIP3    H231790   6.022   5.770   7.357 -0.1942 -0.3399 -0.4680
 3411TIP3   OH231791   2.068   6.656   7.821 -0.3799 -1.3311 -0.1047
 3411TIP3    H131792   2.100   6.718   7.887 -1.5564 -1.8578  0.9916
 3411TIP3    H231793   2.121   6.676   7.743  0.0581  0.2682  0.5458
 3412TIP3   OH231794   5.683   4.642   2.894  0.6515  0.3700  0.4649
 3412TIP3    H131795   5.736   4.629   2.815  1.4507  3.0804  0.4654
 3412TIP3    H231796   5.746   4.639   2.965  0.3123  0.4851  0.7718
 3413TIP3   OH231797   3.664   4.697   6.187 -0.0954  0.2190 -0.5942
 3413TIP3    H131798   3.584   4.698   6.239  0.3834 -0.8137  0.2200
 3413TIP3    H231799   3.705   4.613   6.208  1.1726  0.6991 -1.0156
 3414TIP3   OH231800   6.868   6.569   0.432 -0.4041 -0.0785  0.0722
 3414TIP3    H131801   6.783   6.541   0.466 -0.0153 -0.7671  0.5134
 3414TIP3    H231802   6.912   6.487   0.409  0.0859  0.2796 -0.2813
 3415TIP3   OH231803   5.810   6.509   8.091 -0.3077 -0.1961 -0.5484
 3415TIP3    H131804   5.850   6.506   8.004  0.6231 -1.3963 -0.1073
 3415TIP3    H231805   5.767   6.594   8.095  1.0911  0.5974 -1.5446
 3416TIP3   OH231806   0.782   1.936   0.415 -0.0093  0.1565  0.2254
 3416TIP3    H131807   0.733   1.856   0.396 -0.4723  0.7534 -1.1862
 3416TIP3    H231808   0.870   1.919   0.382  0.4675 -0.4830  1.7254
 3417TIP3   OH231809   2.637   0.247   2.719  0.0263  0.3286  0.6334
 3417TIP3    H131810   2.713   0.272   2.770  1.0527  0.1824 -0.7424
 3417TIP3    H231811   2.641   0.303   2.641 -1.3329  0.3818  0.5846
 3418TIP3   OH231812   2.075   4.684   7.712  0.2241  0.1112  0.7006
 3418TIP3    H131813   2.166   4.705   7.731  0.6554 -2.5703  2.1151
 3418TIP3    H231814   2.064   4.594   7.743 -2.3583 -0.4049 -1.3307
 3419TIP3   OH231815   0.872   3.129   8.284 -0.4833 -0.4357 -0.3957
 3419TIP3    H131816   0.866   3.191   8.357  1.7761  0.5623 -0.9632
 3419TIP3    H231817   0.824   3.172   8.213  1.5988  1.1136 -0.9895
 3420TIP3   OH231818   6.516   1.208   7.415 -0.0184  0.1902  0.2435
 3420TIP3    H131819   6.508   1.216   7.320  1.9837  1.7503  0.1366
 3420TIP3    H231820   6.435   1.246   7.450 -0.3256  0.5338 -0.8215
 3421TIP3   OH231821   2.126   5.905   1.202 -0.8048 -0.3303 -0.5963
 3421TIP3    H131822   2.161   5.911   1.113 -0.3087 -2.0991 -0.5543
 3421TIP3    H231823   2.200   5.927   1.259 -1.1306  0.8330 -0.5943
 3422TIP3   OH231824   4.169   1.139   6.590 -0.1844 -0.0387 -0.2125
 3422TIP3    H131825   4.091   1.089   6.611 -0.5855  0.6034 -0.1439
 3422TIP3    H231826   4.192   1.112   6.501 -0.0248 -0.8003  0.0583
 3423TIP3   OH231827   5.733   2.358   0.364 -1.1080  0.0334  0.0153
 3423TIP3    H131828   5.825   2.331   0.363 -1.1488 -0.1098  0.0591
 3423TIP3    H231829   5.700   2.331   0.278 -0.8989  0.8342 -0.3231
 3424TIP3   OH231830   1.747   4.670   7.265  0.1431 -0.0087 -0.3219
 3424TIP3    H131831   1.821   4.641   7.319 -0.9878  0.2263  1.4424
 3424TIP3    H231832   1.766   4.761   7.244  1.2139 -0.4624 -1.4851
 3425TIP3   OH231833   4.221   3.679   7.755  0.6027 -0.0956  0.1740
 3425TIP3    H131834   4.186   3.715   7.837 -0.0570 -0.3080 -0.0096
 3425TIP3    H231835   4.224   3.754   7.695 -2.1906 -0.5647 -0.6874
 3426TIP3   OH231836   0.731   0.792   2.184  0.3716 -0.0683 -0.0804
 3426TIP3    H131837   0.689   0.718   2.228  0.1617 -1.5454 -2.6205
 3426TIP3    H231838   0.791   0.828   2.250 -0.8909 -1.3005  1.8262
 3427TIP3   OH231839   5.601   6.378   7.028  0.2596 -0.4010  0.0843
 3427TIP3    H131840   5.601   6.343   6.939  0.5914 -0.4027  0.0844
 3427TIP3    H231841   5.595   6.301   7.084  0.5210 -0.4307  0.0730
 3428TIP3   OH231842   1.063   0.922   0.465 -0.0869  0.4039 -0.2255
 3428TIP3    H131843   1.151   0.887   0.450 -0.4302 -0.4279 -0.3549
 3428TIP3    H231844   1.072   0.980   0.540  0.2982 -0.7739  0.6653
 3429TIP3   OH231845   1.026   0.552   1.806 -0.1023  0.5704 -0.2218
 3429TIP3    H131846   0.948   0.552   1.861 -1.6479  1.1548 -2.3267
 3429TIP3    H231847   1.088   0.498   1.854 -2.1293 -0.7593  1.0521
 3430TIP3   OH231848   3.121   4.411   1.120 -0.1988  0.0441 -0.2518
 3430TIP3    H131849   3.185   4.376   1.058 -0.5393  1.2906 -1.3506
 3430TIP3    H231850   3.172   4.469   1.177 -0.1062 -0.0797 -0.2085
 3431TIP3   OH231851   4.385   6.482   0.619  0.4588  0.2026  0.0014
 3431TIP3    H131852   4.344   6.525   0.545  2.0062  1.4922 -0.1561
 3431TIP3    H231853   4.461   6.437   0.582  0.9184  0.3804  0.7068
 3432TIP3   OH231854   0.112   1.528   8.345  0.2262 -0.0097  0.1413
 3432TIP3    H131855   0.089   1.567   8.429  0.5638 -1.1088  0.7726
 3432TIP3    H231856   0.170   1.455   8.368  1.2557  0.3741 -1.1272
 3433TIP3   OH231857   6.394   6.694   0.526  0.1478 -0.2681 -0.0926
 3433TIP3    H131858   6.489   6.697   0.519  0.0685  2.0011 -1.1046
 3433TIP3    H231859   6.363   6.745   0.451 -2.0005 -3.1444 -1.3714
 3434TIP3   OH231860   1.893   5.671   2.547  0.2634  0.0933  0.9895
 3434TIP3    H131861   1.836   5.747   2.535  2.4720  1.7134  0.1255
 3434TIP3    H231862   1.964   5.702   2.604  2.7939 -0.3060 -1.6977
 3435TIP3   OH231863   2.954   2.818   0.901  0.1507 -0.2867  0.2814
 3435TIP3    H131864   3.026   2.880   0.898  0.4616 -0.4846  2.2981
 3435TIP3    H231865   2.970   2.759   0.826  1.9202 -0.1534  0.5058
 3436TIP3   OH231866   5.943   2.531   7.568 -0.4766 -0.2418  0.0651
 3436TIP3    H131867   5.958   2.457   7.627 -0.9118  0.2735  0.8447
 3436TIP3    H231868   5.920   2.603   7.626 -0.6742  0.3474 -0.7305
 3437TIP3   OH231869   0.843   2.344   7.914  0.1626 -0.0637 -0.1491
 3437TIP3    H131870   0.891   2.419   7.879  1.4997 -1.3489 -1.2460
 3437TIP3    H231871   0.768   2.335   7.856 -0.5240  0.9499  0.5504
 3438TIP3   OH231872   0.626   3.177   7.203 -0.3490 -0.1787 -0.6684
 3438TIP3    H131873   0.655   3.156   7.292  0.4877 -1.2295 -1.1587
 3438TIP3    H231874   0.639   3.095   7.154  0.9514  0.8753 -2.1848
 3439TIP3   OH231875   3.380   6.517   2.340 -0.6289 -0.1118 -0.3934
 3439TIP3    H131876   3.303   6.540   2.287  0.9316  1.9180 -1.9452
 3439TIP3    H231877   3.345   6.498   2.427 -2.7363  3.1377 -0.3683
 3440TIP3   OH231878   3.578   4.274   6.347 -0.4810  0.4427 -0.5678
 3440TIP3    H131879   3.580   4.319   6.431 -0.6656  1.3423 -1.0236
 3440TIP3    H231880   3.634   4.328   6.290 -0.4076 -0.1125 -1.0349
 3441TIP3   OH231881   4.808   4.523   8.435 -0.2716  0.4252  0.2499
 3441TIP3    H131882   4.825   4.453   8.497  1.8479 -1.3319 -2.1056
 3441TIP3    H231883   4.715   4.515   8.414 -0.4376 -0.5779  1.3091
 3442TIP3   OH231884   5.275   3.664   6.813 -0.0884  0.1813  0.1773
 3442TIP3    H131885   5.358   3.665   6.765 -0.3108  1.3073 -0.2116
 3442TIP3    H231886   5.215   3.616   6.757 -0.0127  0.4055 -0.0977
 3443TIP3   OH231887   1.958   1.146   0.523 -0.4138  0.1995 -0.2373
 3443TIP3    H131888   2.008   1.170   0.600  0.2587  1.9139 -1.1543
 3443TIP3    H231889   1.965   1.222   0.464 -0.1162 -1.3836 -2.3722
 3444TIP3   OH231890   0.533   5.852   2.303  0.4069  0.1053  0.2123
 3444TIP3    H131891   0.622   5.844   2.271  1.0310  0.8938  1.6698
 3444TIP3    H231892   0.527   5.793   2.378  0.0897  0.9390  0.8667
 3445TIP3   OH231893   5.816   2.856   8.270 -0.0990 -0.0278  0.2247
 3445TIP3    H131894   5.833   2.771   8.309 -1.1192  0.9481  3.0064
 3445TIP3    H231895   5.749   2.839   8.203  0.7291 -1.5608 -0.2545
 3446TIP3   OH231896   1.056   2.262   0.550 -0.2852  0.5030  0.3588
 3446TIP3    H131897   1.119   2.224   0.488 -1.3283 -0.2828 -0.2559
 3446TIP3    H231898   0.974   2.218   0.529 -0.7603  0.5607  2.0131
 3447TIP3   OH231899   1.777   1.222   8.446  0.0600 -0.2077  0.4220
 3447TIP3    H131900   1.777   1.183   8.533  1.1022  0.2540  0.6384
 3447TIP3    H231901   1.852   1.182   8.402  1.2096  1.5436  0.6694
 3448TIP3   OH231902   6.593   4.175   0.917  0.2330  0.4647  0.5442
 3448TIP3    H131903   6.677   4.200   0.878  0.0851  1.4315  0.8027
 3448TIP3    H231904   6.530   4.186   0.846  0.2151  0.5077  0.5665
 3449TIP3   OH231905   6.327   2.960   8.005  0.0883  0.0334 -0.0428
 3449TIP3    H131906   6.292   2.942   8.092  0.2907 -0.8047 -0.1246
 3449TIP3    H231907   6.250   2.969   7.949 -0.0226 -1.1351 -0.0975
 3450TIP3   OH231908   2.108   4.937   1.484 -0.0235 -0.0606 -0.2595
 3450TIP3    H131909   2.055   4.890   1.547  0.7322  1.3643  1.5168
 3450TIP3    H231910   2.060   5.018   1.466 -0.6144 -0.7705 -2.1825
 3451TIP3   OH231911   1.873   3.879   8.009  0.0799  0.2417  0.3227
 3451TIP3    H131912   1.785   3.887   7.972  0.3446  3.0372  0.1207
 3451TIP3    H231913   1.861   3.894   8.102  0.3830  1.2112  0.2162
 3452TIP3   OH231914   2.461   4.051   1.359  0.4948  0.0869  0.2916
 3452TIP3    H131915   2.509   3.968   1.357  0.3706  0.0154 -1.3934
 3452TIP3    H231916   2.518   4.110   1.408  2.9290  0.3253 -2.5118
 3453TIP3   OH231917   2.664   3.477   1.079 -0.0390  0.4190 -0.0377
 3453TIP3    H131918   2.705   3.398   1.045  0.6603  1.4835 -1.8592
 3453TIP3    H231919   2.654   3.461   1.173  2.3215 -0.8807  0.0775
 3454TIP3   OH231920   6.171   1.493   0.297  0.3001  0.2418  0.0320
 3454TIP3    H131921   6.081   1.515   0.320  0.4616  1.9709 -0.7990
 3454TIP3    H231922   6.215   1.478   0.381  0.3173  4.0242  0.8836
 3455TIP3   OH231923   5.974   1.063   7.860 -0.6032  0.3026 -0.6651
 3455TIP3    H131924   5.956   0.979   7.903 -0.4147  1.4574  1.8356
 3455TIP3    H231925   5.913   1.124   7.901  1.1989  1.9618 -0.3334
 3456TIP3   OH231926   4.712   2.652   0.367 -0.2120 -0.1252  0.0440
 3456TIP3    H131927   4.703   2.718   0.436  0.6453 -0.0179  0.0678
 3456TIP3    H231928   4.741   2.573   0.414  3.3034  0.6956 -0.4360
 3457TIP3   OH231929   2.564   0.939   0.542  0.1018 -0.3427  0.3513
 3457TIP3    H131930   2.499   0.938   0.472 -0.6404 -0.3886  1.0244
 3457TIP3    H231931   2.574   0.847   0.567 -0.2524 -0.2512  0.8494
 3458TIP3   OH231932   5.670   2.119   1.147  0.2431  0.4550 -0.0678
 3458TIP3    H131933   5.615   2.053   1.188 -0.7964  2.1177  1.3511
 3458TIP3    H231934   5.682   2.087   1.057 -0.8073 -1.2778  0.3519
 3459TIP3   OH231935   0.268   1.315   8.479  0.2129 -0.0229  0.1066
 3459TIP3    H131936   0.330   1.243   8.494  0.4461  0.0734 -0.3783
 3459TIP3    H231937   0.192   1.293   8.534 -0.2257 -1.2637 -0.9518
 3460TIP3   OH231938   3.455   1.509   1.290 -0.1579 -0.0025  0.1464
 3460TIP3    H131939   3.360   1.522   1.286 -0.0209  0.9764 -0.0803
 3460TIP3    H231940   3.475   1.504   1.383 -0.4744 -0.5711  0.1881
 3461TIP3   OH231941   4.291   2.833   1.853 -0.0514 -0.0879 -0.0725
 3461TIP3    H131942   4.272   2.770   1.783 -1.1027  0.9586 -0.7873
 3461TIP3    H231943   4.318   2.912   1.806 -0.3022  0.4806  0.7285
 3462TIP3   OH231944   5.649   6.312   6.746  0.3774  0.3849  0.8484
 3462TIP3    H131945   5.734   6.270   6.736 -0.0029  0.1149 -1.8183
 3462TIP3    H231946   5.588   6.255   6.701 -0.7314  2.0258  0.1786
 3463TIP3   OH231947   6.492   1.848   8.546 -0.3371 -0.4082 -0.2401
 3463TIP3    H131948   6.430   1.837   8.618  0.7589 -1.0023  0.6360
 3463TIP3    H231949   6.474   1.936   8.512 -0.4874  0.1192  1.1364
 3464TIP3   OH231950   2.301   6.625   1.277 -0.1804  0.8109  0.0139
 3464TIP3    H131951   2.297   6.662   1.366  1.4368 -0.7838  0.8156
 3464TIP3    H231952   2.210   6.604   1.256 -0.7862  2.5632  0.6585
 3465TIP3   OH231953   2.557   1.300   8.393 -0.5430 -0.2167 -0.1343
 3465TIP3    H131954   2.629   1.263   8.342 -0.3918  0.6317 -0.5462
 3465TIP3    H231955   2.479   1.253   8.364 -0.3165 -0.3872 -0.4663
 3466TIP3   OH231956   1.841   6.722   7.146 -0.1993  0.0269 -0.1091
 3466TIP3    H131957   1.824   6.816   7.146  0.6119  0.1956  0.7451
 3466TIP3    H231958   1.907   6.710   7.214  0.9045 -0.9409 -1.2897
 3467TIP3   OH231959   1.720   4.458   0.446 -0.5611 -0.3156  0.6591
 3467TIP3    H131960   1.656   4.441   0.515 -0.2142 -1.5545  0.7080
 3467TIP3    H231961   1.673   4.443   0.364 -0.1313 -2.1633  0.7086
 3468TIP3   OH231962   5.625   3.655   7.073  0.0833  1.2296 -0.4086
 3468TIP3    H131963   5.607   3.699   7.157  0.2963 -0.7512  0.7324
 3468TIP3    H231964   5.551   3.595   7.061  0.2719  1.1932 -1.4502
 3469TIP3   OH231965   2.189   5.080   6.183 -0.4889 -0.7030 -0.2250
 3469TIP3    H131966   2.273   5.042   6.159  0.5200 -0.1237  2.1510
 3469TIP3    H231967   2.210   5.168   6.214 -1.6409 -1.2259  2.3235
 3470TIP3   OH231968   0.214   2.478   7.777  0.2716  0.4011  0.3314
 3470TIP3    H131969   0.282   2.534   7.814 -0.2570  1.1784  0.1378
 3470TIP3    H231970   0.260   2.397   7.754  0.4463 -0.6370  3.7700
 3471TIP3   OH231971   6.107   4.058   1.595 -0.1823 -0.0725  0.2415
 3471TIP3    H131972   6.185   4.100   1.631  0.4551 -1.0946  0.0851
 3471TIP3    H231973   6.039   4.125   1.600  0.0238  0.0447  2.7789
 3472TIP3   OH231974   4.264   6.199   6.372  0.4938  0.4779  0.3737
 3472TIP3    H131975   4.324   6.270   6.349 -0.6054  1.3307 -0.0022
 3472TIP3    H231976   4.199   6.241   6.429  0.0826 -0.3422  0.5240
 3473TIP3   OH231977   4.375   4.000   0.269 -0.0696  1.0409 -0.0466
 3473TIP3    H131978   4.418   3.917   0.246  1.9347  2.2555 -0.9004
 3473TIP3    H231979   4.378   4.001   0.365 -0.0542  0.1681 -0.0238
 3474TIP3   OH231980   4.016   3.361   0.023  0.2380 -0.0374  0.3510
 3474TIP3    H131981   4.072   3.415  -0.034  1.8746  0.3058  2.1764
 3474TIP3    H231982   3.928   3.394   0.008  0.6284  0.1503 -1.8422
 3475TIP3   OH231983   4.312   3.515   2.199 -0.3384 -0.0328 -0.0101
 3475TIP3    H131984   4.400   3.538   2.169  0.8790 -2.9223  1.0318
 3475TIP3    H231985   4.256   3.536   2.124  1.5147 -0.0252 -1.4847
 3476TIP3   OH231986   5.847   5.203   1.355 -0.0698 -0.2848  0.4674
 3476TIP3    H131987   5.823   5.207   1.447  2.0970 -0.3535  1.0910
 3476TIP3    H231988   5.763   5.199   1.308 -1.3357  2.2777  2.2508
 3477TIP3   OH231989   5.196   1.387   8.310  0.5385  0.7090  0.1432
 3477TIP3    H131990   5.141   1.368   8.385 -1.2751  1.3553 -0.9490
 3477TIP3    H231991   5.269   1.325   8.316 -1.4175 -1.6952  0.4860
 3478TIP3   OH231992   5.219   4.304   8.226 -0.1001  0.2706 -0.9327
 3478TIP3    H131993   5.280   4.297   8.299 -4.0169  1.0198  2.8059
 3478TIP3    H231994   5.211   4.398   8.210 -2.2598  0.4337  0.6887
 3479TIP3   OH231995   4.614   6.867   0.790 -0.4751 -0.2500  0.2721
 3479TIP3    H131996   4.666   6.829   0.860 -1.2812 -2.5357 -0.2967
 3479TIP3    H231997   4.677   6.914   0.735  0.7621 -1.6597  0.4382
 3480TIP3   OH231998   2.539   0.683   2.102  0.1920 -0.5869  0.2826
 3480TIP3    H131999   2.481   0.625   2.051 -0.9316  1.3887 -0.8130
 3480TIP3    H232000   2.622   0.681   2.054  0.1375 -1.1962  0.2002
 3481TIP3   OH232001   2.712   2.170   0.717  0.1091 -0.1696 -0.6468
 3481TIP3    H132002   2.740   2.243   0.662  0.6466 -1.1264 -1.6726
 3481TIP3    H232003   2.619   2.186   0.733  0.3920  1.1519 -0.1705
 3482TIP3   OH232004   3.553   1.413   6.411 -0.1683  0.1741  0.2872
 3482TIP3    H132005   3.613   1.388   6.341 -0.0641  1.5294 -0.1315
 3482TIP3    H232006   3.557   1.508   6.413 -0.6653  0.1860  1.7127
 3483TIP3   OH232007   0.381   1.883   7.401  0.1232 -0.3756 -0.3762
 3483TIP3    H132008   0.303   1.855   7.449 -1.1251  1.4179 -1.2387
 3483TIP3    H232009   0.454   1.854   7.455 -1.1730 -0.7932  1.2279
 3484TIP3   OH232010   0.445   1.099   8.523 -0.3558  0.0156  0.4409
 3484TIP3    H132011   0.428   1.041   8.449 -0.0488  0.3833  0.0723
 3484TIP3    H232012   0.509   1.052   8.577  1.7389  0.9643 -1.0844
 3485TIP3   OH232013   4.035   1.335   7.198 -0.4407 -0.5981  0.1451
 3485TIP3    H132014   4.010   1.353   7.108  0.6453 -0.2808 -0.1083
 3485TIP3    H232015   4.094   1.407   7.222  0.7211 -1.6146  0.4892
 3486TIP3   OH232016   6.388   1.336   0.768 -0.1585 -0.2234  0.1810
 3486TIP3    H132017   6.393   1.312   0.860  0.7962 -0.1642  0.1518
 3486TIP3    H232018   6.463   1.393   0.754 -0.0283 -0.6048 -0.7426
 3487TIP3   OH232019   4.177   4.324   7.196  0.0947  0.0179  0.0381
 3487TIP3    H132020   4.268   4.341   7.222  1.0066 -0.8190 -2.2722
 3487TIP3    H232021   4.161   4.233   7.222 -0.5763  0.5651  1.6214
 3488TIP3   OH232022   4.837   2.458   0.544 -0.0794  0.3347 -0.2917
 3488TIP3    H132023   4.848   2.376   0.591 -1.0541 -0.1880 -0.9526
 3488TIP3    H232024   4.927   2.486   0.523  0.3270  0.2079  1.2026
 3489TIP3   OH232025   3.948   3.547   7.879  0.4652 -0.4448 -0.1163
 3489TIP3    H132026   4.035   3.511   7.858  1.5141  1.9939 -0.3028
 3489TIP3    H232027   3.908   3.565   7.795  0.4782 -0.0075 -0.0294
 3490TIP3   OH232028   3.280   0.031   7.876 -0.0450  0.0466 -0.1293
 3490TIP3    H132029   3.246  -0.058   7.868 -0.0427  0.0282  0.0618
 3490TIP3    H232030   3.225   0.073   7.942  2.2104 -0.9635  2.6498
 3491TIP3   OH232031   2.069   1.193   0.146 -0.7676  0.4075 -0.0669
 3491TIP3    H132032   2.059   1.272   0.092 -0.0586  0.1790 -0.5440
 3491TIP3    H232033   2.127   1.220   0.217 -2.4716  0.9818  1.1716
 3492TIP3   OH232034   1.936   6.214   6.760 -0.1371  0.5343 -0.2585
 3492TIP3    H132035   1.916   6.305   6.783 -0.5250  0.5595 -0.6921
 3492TIP3    H232036   1.987   6.220   6.680  0.6538  0.4087  0.2218
 3493TIP3   OH232037   5.271   6.332   0.494 -0.7809  0.3564  0.1498
 3493TIP3    H132038   5.358   6.326   0.454 -0.8475 -1.6800  0.2102
 3493TIP3    H232039   5.279   6.403   0.557  0.9143  0.0749  0.3157
 3494TIP3   OH232040   3.699   5.911   0.840  0.1295  0.0327 -0.1690
 3494TIP3    H132041   3.668   5.981   0.782 -2.0434 -0.1710  0.6290
 3494TIP3    H232042   3.709   5.953   0.925 -1.5552 -0.6452  0.4030
 3495TIP3   OH232043   4.748   5.542   7.897 -0.2703 -0.2240 -0.2184
 3495TIP3    H132044   4.744   5.612   7.832  0.1024 -0.3634 -0.3969
 3495TIP3    H232045   4.770   5.586   7.979 -1.2989  0.0265 -0.0588
 3496TIP3   OH232046   1.406   4.956   2.737 -0.6946 -0.0735  0.2240
 3496TIP3    H132047   1.341   5.025   2.725  0.4171  1.1791  1.1539
 3496TIP3    H232048   1.475   4.997   2.788  1.0709 -1.2100 -1.1430
 3497TIP3   OH232049   0.452   1.932   0.908  0.2669 -0.5732 -0.2218
 3497TIP3    H132050   0.462   1.861   0.973 -2.0726 -1.8123 -1.0868
 3497TIP3    H232051   0.402   1.891   0.837  0.6440  1.4287 -1.6900
 3498TIP3   OH232052   4.876   5.624   2.616  0.3863  0.2834  0.1181
 3498TIP3    H132053   4.966   5.642   2.589  0.7963  0.5027  1.5329
 3498TIP3    H232054   4.870   5.528   2.616  0.3000  0.2777 -0.9149
 3499TIP3   OH232055   3.125   0.072   1.883 -0.0181 -0.1950 -0.4564
 3499TIP3    H132056   3.175   0.039   1.958 -1.0014  0.7572  0.6634
 3499TIP3    H232057   3.096   0.159   1.910 -0.4016  0.1714 -1.9585
 3500TIP3   OH232058   5.100   2.658   7.021 -0.2479 -0.1955 -0.1348
 3500TIP3    H132059   5.071   2.601   7.092 -0.4174 -1.0602 -0.8816
 3500TIP3    H232060   5.049   2.630   6.945  0.6757  0.0039 -0.8436
 3501TIP3   OH232061   1.017   5.106   1.610 -0.5004  0.2815 -0.1230
 3501TIP3    H132062   1.052   5.193   1.593 -0.3181  0.3330  0.5073
 3501TIP3    H232063   1.035   5.090   1.703 -0.8467 -0.2821 -0.1479
 3502TIP3   OH232064   3.088   1.604   0.052  0.3200 -0.1898  0.8344
 3502TIP3    H132065   3.049   1.557   0.126  0.5394 -0.0391  1.0490
 3502TIP3    H232066   3.027   1.675   0.033 -0.0006 -0.5468  0.5252
 3503TIP3   OH232067   3.763   6.810   1.654 -0.2549  0.3946 -0.4352
 3503TIP3    H132068   3.721   6.869   1.591 -0.1201  0.5807 -0.3558
 3503TIP3    H232069   3.850   6.795   1.617 -0.0741  0.7318 -0.1561
 3504TIP3   OH232070   5.022   4.934   0.651 -0.0056  0.1433  0.2161
 3504TIP3    H132071   4.968   4.899   0.579 -0.4874  0.6037  0.3489
 3504TIP3    H232072   5.053   5.019   0.618 -0.5797  0.5510  0.7148
 3505TIP3   OH232073   1.358   3.986   8.212 -0.6097 -0.0478 -0.5993
 3505TIP3    H132074   1.418   3.921   8.248 -1.4173 -0.3677  0.2200
 3505TIP3    H232075   1.414   4.056   8.179  0.2452 -0.8232 -0.8251
 3506TIP3   OH232076   2.275   0.619   2.387 -0.5207 -0.2474 -0.8269
 3506TIP3    H132077   2.217   0.586   2.455 -1.7751  0.8752 -1.2948
 3506TIP3    H232078   2.264   0.558   2.314 -1.5572  0.2346 -1.0987
 3507TIP3   OH232079   1.358   3.043   0.070 -0.7276 -0.1971 -0.5584
 3507TIP3    H132080   1.332   3.084  -0.012 -0.7301  1.0742  0.0590
 3507TIP3    H232081   1.290   2.978   0.087 -1.2250  0.1729 -1.1001
 3508TIP3   OH232082   5.750   0.421   7.962  0.1777 -0.0822  0.4720
 3508TIP3    H132083   5.703   0.354   8.011 -2.5171  1.1430 -0.2114
 3508TIP3    H232084   5.721   0.504   8.000 -0.4258  0.8292 -1.7773
 3509TIP3   OH232085   0.761   5.382   1.208  0.6617  0.3791  0.3757
 3509TIP3    H132086   0.714   5.371   1.290 -1.2378  1.5552 -0.4754
 3509TIP3    H232087   0.703   5.344   1.142  0.9411  1.7502 -0.6967
 3510TIP3   OH232088   2.248   3.394   1.706 -0.1418  0.0040 -0.2215
 3510TIP3    H132089   2.241   3.476   1.657  1.1157  0.0594 -0.3301
 3510TIP3    H232090   2.283   3.419   1.791  2.6455 -0.6441 -1.0793
 3511TIP3   OH232091   5.308   2.574   0.816  0.2316  0.4190  0.2299
 3511TIP3    H132092   5.393   2.614   0.830  0.3154  0.3759 -0.1452
 3511TIP3    H232093   5.307   2.499   0.877  0.5848  0.2365  0.0155
 3512TIP3   OH232094   4.148   0.229   1.372 -0.7246  0.0511 -0.6936
 3512TIP3    H132095   4.164   0.191   1.285  0.8079  0.1717 -0.4875
 3512TIP3    H232096   4.139   0.154   1.430 -0.4472 -0.0191 -0.7405
 3513TIP3   OH232097   5.322   6.270   2.447  0.1034 -0.4285  0.4333
 3513TIP3    H132098   5.259   6.342   2.449  0.9002  0.2788  0.6872
 3513TIP3    H232099   5.356   6.265   2.536  3.3363  1.9134 -0.4766
 3514TIP3   OH232100   3.672   6.896   8.192 -0.1833  0.3560  0.0765
 3514TIP3    H132101   3.720   6.979   8.188  0.6032  0.0555  1.9234
 3514TIP3    H232102   3.636   6.884   8.105  0.0145  2.4506 -0.3356
 3515TIP3   OH232103   3.002   4.647   6.048 -0.1356 -0.4599  0.3304
 3515TIP3    H132104   3.030   4.737   6.067 -0.6293 -0.3409  0.5154
 3515TIP3    H232105   3.080   4.604   6.015  0.0974  0.0519  0.2059
 3516TIP3   OH232106   5.250   2.533   2.266  0.3486 -0.0016 -0.9696
 3516TIP3    H132107   5.204   2.613   2.291 -0.6465 -0.5512 -0.9708
 3516TIP3    H232108   5.315   2.520   2.335 -1.7387 -0.9950  0.9207
 3517TIP3   OH232109   0.168   3.041   1.087 -0.2662  0.8767  0.3234
 3517TIP3    H132110   0.260   3.026   1.064 -0.2281  0.7648  0.5451
 3517TIP3    H232111   0.138   2.957   1.121  0.0727  1.3836  2.0046
 3518TIP3   OH232112   6.574   0.636   6.940 -0.2491  0.5395  0.6486
 3518TIP3    H132113   6.621   0.669   6.863  0.2810 -1.0393  0.2751
 3518TIP3    H232114   6.590   0.542   6.941 -1.3879  0.3165  1.9256
 3519TIP3   OH232115   1.901   4.514   6.262 -0.2812  0.2599  0.3067
 3519TIP3    H132116   1.849   4.590   6.235  0.2977  0.9554  1.1280
 3519TIP3    H232117   1.964   4.549   6.325 -2.4562 -1.4504  3.7793
 3520TIP3   OH232118   2.637   3.191   8.081  0.0601  0.1722 -0.3144
 3520TIP3    H132119   2.544   3.196   8.061  0.1909 -0.3969 -1.1119
 3520TIP3    H232120   2.672   3.277   8.055 -0.0143 -0.0834 -1.3156
 3521TIP3   OH232121   5.595   0.761   1.407  0.3043 -0.1644  0.4708
 3521TIP3    H132122   5.582   0.840   1.354 -0.4692 -0.1227  0.7050
 3521TIP3    H232123   5.575   0.688   1.347  1.5894 -0.2155  0.0889
 3522TIP3   OH232124   0.121   5.667   0.467 -0.1324  0.4039  0.4143
 3522TIP3    H132125   0.177   5.592   0.448  0.3235  0.8878 -0.1989
 3522TIP3    H232126   0.079   5.645   0.550 -0.5289 -0.8234 -0.0865
 3523TIP3   OH232127   5.165   1.055   8.281  0.3268  0.1246  0.1425
 3523TIP3    H132128   5.234   1.120   8.268 -2.7415  3.2547 -2.6781
 3523TIP3    H232129   5.139   1.065   8.372  0.2597  2.5895 -0.1006
 3524TIP3   OH232130   5.347   6.709   1.162  0.4149  0.1447  0.1079
 3524TIP3    H132131   5.281   6.716   1.231 -1.0200  1.1335 -1.3193
 3524TIP3    H232132   5.396   6.630   1.185 -0.2247  0.2577  2.0683
 3525TIP3   OH232133   6.893   4.881   0.884  0.2497 -0.2724  0.5809
 3525TIP3    H132134   6.960   4.920   0.829  1.4664 -0.9918  1.5072
 3525TIP3    H232135   6.879   4.944   0.955  0.4663 -0.4313  0.7674
 3526TIP3   OH232136   5.680   1.993   8.113 -0.1044  0.5185  0.2404
 3526TIP3    H132137   5.771   2.000   8.083  0.3780 -0.7729  1.3024
 3526TIP3    H232138   5.681   2.029   8.202 -1.0265  2.0780 -0.3235
 3527TIP3   OH232139   6.030   1.612   8.528  0.2930  0.1493 -0.2747
 3527TIP3    H132140   5.974   1.537   8.547  2.6108 -1.0618  2.3419
 3527TIP3    H232141   5.978   1.688   8.556 -1.1012 -0.6289 -0.6316
 3528TIP3   OH232142   6.113   1.369   0.901 -0.3039  0.3830  0.8791
 3528TIP3    H132143   6.187   1.337   0.850  0.5161  0.2080  2.1578
 3528TIP3    H232144   6.069   1.430   0.842  0.9647  0.6399  0.1562
 3529TIP3   OH232145   6.627   6.285   7.566  0.2878  0.2353 -0.5742
 3529TIP3    H132146   6.617   6.329   7.481 -2.3533 -0.8323 -0.9008
 3529TIP3    H232147   6.596   6.196   7.551  0.5537 -0.2286  1.3458
 3530TIP3   OH232148   3.886   6.425   1.325  0.1501  0.0121 -0.2987
 3530TIP3    H132149   3.876   6.428   1.230 -0.8739 -2.0916 -0.3042
 3530TIP3    H232150   3.797   6.410   1.358  0.8409 -1.9861  0.8026
 3531TIP3   OH232151   2.071   0.927   0.114 -0.0023  0.5102 -0.0552
 3531TIP3    H132152   2.122   0.907   0.036 -0.2417  0.7914 -0.2885
 3531TIP3    H232153   2.080   1.022   0.124 -1.1482  0.6800 -0.5736
 3532TIP3   OH232154   1.216   6.131   0.829  0.1593  0.4432  0.1202
 3532TIP3    H132155   1.129   6.134   0.870  1.2484  1.2467  2.5765
 3532TIP3    H232156   1.244   6.040   0.841  0.2103  0.5197  0.6327
 3533TIP3   OH232157   6.227   4.649   1.844 -0.1186 -0.3848  0.3910
 3533TIP3    H132158   6.182   4.715   1.791 -0.9878 -0.1349  1.4120
 3533TIP3    H232159   6.160   4.583   1.862  0.2117 -0.5592  1.0147
 3534TIP3   OH232160   3.786   5.542   1.168  0.1749  0.0461  0.3697
 3534TIP3    H132161   3.877   5.520   1.189  0.5378 -1.1374 -2.1342
 3534TIP3    H232162   3.735   5.487   1.228  1.1123 -0.3571  0.8226
 3535TIP3   OH232163   1.078   4.781   8.395  0.3568  0.0460  0.2786
 3535TIP3    H132164   1.120   4.867   8.406  1.2123 -0.1941 -0.9005
 3535TIP3    H232165   1.104   4.753   8.307 -0.3439 -1.1911  0.4473
 3536TIP3   OH232166   1.999   6.808   0.392 -0.0084 -0.1117  0.0769
 3536TIP3    H132167   2.070   6.871   0.394 -0.3185  0.2233  1.0947
 3536TIP3    H232168   2.042   6.723   0.385  0.6039 -0.0444  2.2808
 3537TIP3   OH232169   5.398   4.301   7.773  0.2767 -0.0334 -0.4413
 3537TIP3    H132170   5.308   4.311   7.743  0.3180  1.4735 -0.1398
 3537TIP3    H232171   5.391   4.269   7.863 -0.0056  1.1221 -0.0359
 3538TIP3   OH232172   1.880   6.640   2.219  0.2067 -0.5237 -0.2580
 3538TIP3    H132173   1.837   6.555   2.213 -2.3352  0.7147 -1.2340
 3538TIP3    H232174   1.864   6.681   2.134  0.1638  1.4335  0.6393
 3539TIP3   OH232175   3.443   1.565   7.066  0.9436  0.6754  0.3229
 3539TIP3    H132176   3.469   1.536   7.153 -2.3424 -1.2986  0.7932
 3539TIP3    H232177   3.372   1.506   7.041 -0.8789  3.5882 -2.0789
 3540TIP3   OH232178   5.907   0.216   7.251 -0.0389 -0.0121  0.2224
 3540TIP3    H132179   5.857   0.195   7.330  1.1618  0.2187  1.0664
 3540TIP3    H232180   5.913   0.133   7.204 -1.4922  0.0246 -0.0870
 3541TIP3   OH232181   2.459   4.825   7.587 -0.3963  0.2754 -0.6092
 3541TIP3    H132182   2.440   4.864   7.502 -0.6528  0.1831 -0.5975
 3541TIP3    H232183   2.444   4.731   7.574  2.2356 -0.1431 -1.2043
 3542TIP3   OH232184   0.707   6.713   0.415 -0.4365  0.1377  0.4618
 3542TIP3    H132185   0.728   6.659   0.339 -1.7671 -0.6617  0.6256
 3542TIP3    H232186   0.791   6.729   0.457  0.3556  0.7253 -1.2345
 3543TIP3   OH232187   6.284   3.313   2.349 -0.3578  0.2809  0.0514
 3543TIP3    H132188   6.202   3.265   2.343 -0.0661 -0.2744  0.4217
 3543TIP3    H232189   6.327   3.297   2.265  0.0468 -0.6989  0.4224
 3544TIP3   OH232190   3.018   5.582   0.291 -0.3611  0.0521 -0.0490
 3544TIP3    H132191   2.924   5.593   0.302 -0.2912  0.4149  0.2003
 3544TIP3    H232192   3.047   5.662   0.246 -0.0827  0.2108  0.4045
 3545TIP3   OH232193   2.291   6.357   0.795  0.4987 -0.2887 -0.7953
 3545TIP3    H132194   2.337   6.285   0.838 -0.6601 -0.7317 -0.2452
 3545TIP3    H232195   2.207   6.361   0.840  1.1469  2.5295  0.3601
 3546TIP3   OH232196   1.198   5.845   0.786  0.0084 -0.4689  0.3010
 3546TIP3    H132197   1.121   5.860   0.730  0.0767  0.6296  0.4635
 3546TIP3    H232198   1.166   5.785   0.854 -0.8780  0.3556  0.6531
 3547TIP3   OH232199   6.605   1.461   8.391 -0.1429  0.5862  0.2325
 3547TIP3    H132200   6.643   1.541   8.354  0.1830 -0.5463 -2.1009
 3547TIP3    H232201   6.595   1.403   8.316 -0.6600 -1.4697  1.8035
 3548TIP3   OH232202   5.696   4.068   1.078  0.2571 -0.1955 -0.2126
 3548TIP3    H132203   5.689   4.131   1.150  2.1231  2.2237 -2.0192
 3548TIP3    H232204   5.785   4.035   1.084  0.0762 -0.7995 -0.7960
 3549TIP3   OH232205   2.525   0.977   8.035 -0.2947 -0.0305  0.4565
 3549TIP3    H132206   2.536   1.001   7.943 -1.8293  1.2005  0.5424
 3549TIP3    H232207   2.586   0.905   8.049  0.0343 -0.1803 -1.4966
 3550TIP3   OH232208   0.047   0.262   2.904 -0.2810  0.0445  0.3471
 3550TIP3    H132209  -0.003   0.328   2.952  0.3049  0.0616  0.9607
 3550TIP3    H232210   0.102   0.313   2.844 -0.7157  0.0461 -0.0502
 3551TIP3   OH232211   5.488   4.358   1.548  0.2911  0.1021  0.3533
 3551TIP3    H132212   5.435   4.281   1.569  1.1725  0.3515  4.4091
 3551TIP3    H232213   5.427   4.432   1.556  0.4838  0.1413  1.9529
 3552TIP3   OH232214   6.021   3.023   2.622 -0.2596 -0.1270  0.3309
 3552TIP3    H132215   5.985   2.959   2.560 -0.2693 -0.6546  0.8799
 3552TIP3    H232216   6.108   3.043   2.588 -1.4944  2.2437 -1.8385
 3553TIP3   OH232217   2.926   6.585   2.008  0.2001  0.2908  0.1080
 3553TIP3    H132218   2.934   6.656   2.071  1.1398  0.0642  0.2463
 3553TIP3    H232219   2.860   6.526   2.046 -0.6363  1.1051 -0.0413
 3554TIP3   OH232220   1.342   0.202   6.828  0.3662  0.2741  0.0381
 3554TIP3    H132221   1.291   0.282   6.820 -1.7577 -0.9139  0.7529
 3554TIP3    H232222   1.335   0.160   6.742 -1.8363 -0.9196  0.7181
 3555TIP3   OH232223   4.667   0.122   8.506 -0.2326  0.4840  0.3885
 3555TIP3    H132224   4.666   0.212   8.538 -0.5860 -0.0024  1.8123
 3555TIP3    H232225   4.731   0.077   8.562  0.1669 -0.0907 -0.5003
 3556TIP3   OH232226   3.116   4.105   7.039  0.0564 -0.5330  0.7511
 3556TIP3    H132227   3.081   4.169   7.100 -1.3390 -1.0142  0.4985
 3556TIP3    H232228   3.094   4.140   6.952  1.3140 -0.2464  0.5341
 3557TIP3   OH232229   3.939   5.400   0.211  0.3608  0.2679 -0.5697
 3557TIP3    H132230   3.897   5.454   0.277  0.0343  0.0910 -0.6308
 3557TIP3    H232231   3.878   5.399   0.138  0.9494  0.8785 -1.0767
 3558TIP3   OH232232   0.654   3.618   2.051 -0.2987  0.3676 -0.4112
 3558TIP3    H132233   0.690   3.552   2.111 -1.0662  0.7875  0.5455
 3558TIP3    H232234   0.730   3.661   2.014  0.2116  0.8126  1.0851
 3559TIP3   OH232235   6.150   3.571   0.827 -0.3082  0.0521  0.3029
 3559TIP3    H132236   6.138   3.505   0.759  0.4201 -0.0006  0.2100
 3559TIP3    H232237   6.142   3.655   0.781  0.2657  0.0165  0.1257
 3560TIP3   OH232238   2.170   4.703   1.729  0.5070 -0.4384 -0.1915
 3560TIP3    H132239   2.252   4.751   1.734  0.3860 -0.2772  0.3634
 3560TIP3    H232240   2.102   4.770   1.735  0.3364 -0.6202 -0.0633
 3561TIP3   OH232241   1.539   1.757   7.158 -1.0280  0.0369  0.0280
 3561TIP3    H132242   1.544   1.662   7.153 -1.5681 -0.0447  0.7621
 3561TIP3    H232243   1.519   1.785   7.069  1.0457 -0.3703 -0.6128
 3562TIP3   OH232244   0.148   1.901   0.799  0.5417 -0.0542 -0.0711
 3562TIP3    H132245   0.120   1.986   0.764 -0.7802 -0.5527 -0.3122
 3562TIP3    H232246   0.091   1.887   0.876  0.6654 -0.7620 -0.1010
 3563TIP3   OH232247   5.116   3.640   1.065 -0.5694 -0.3673  0.6369
 3563TIP3    H132248   5.063   3.566   1.093  1.8929 -2.1627  0.9709
 3563TIP3    H232249   5.133   3.690   1.146 -2.4495  0.7838  0.3671
 3564TIP3   OH232250   6.629   2.278   0.947  0.4709  0.1181 -0.2799
 3564TIP3    H132251   6.572   2.341   0.902  1.6686  1.3622 -0.1192
 3564TIP3    H232252   6.621   2.300   1.039 -0.4829 -1.1693 -0.0328
 3565TIP3   OH232253   2.882   2.159   8.290 -0.1773 -0.5015  0.1390
 3565TIP3    H132254   2.891   2.202   8.375  1.3776 -0.2609 -0.1177
 3565TIP3    H232255   2.821   2.087   8.306 -1.7810  0.9472  0.8917
 3566TIP3   OH232256   2.871   6.619   1.511  0.3435  0.8421 -0.2284
 3566TIP3    H132257   2.845   6.594   1.599  1.9125 -0.8178 -0.1722
 3566TIP3    H232258   2.795   6.663   1.475  0.0099  2.4789  2.2729
 3567TIP3   OH232259   0.545   3.682   1.682  0.6392  0.1008 -0.1809
 3567TIP3    H132260   0.593   3.765   1.683 -1.5897  1.4739  0.0074
 3567TIP3    H232261   0.458   3.705   1.648 -0.7115 -1.7555  1.7467
 3568TIP3   OH232262   1.144   5.456   1.982  0.3627  0.2644 -0.4894
 3568TIP3    H132263   1.056   5.433   1.951  1.0085 -1.9203 -0.8498
 3568TIP3    H232264   1.132   5.475   2.075 -0.0909 -3.2291  0.2968
 3569TIP3   OH232265   6.641   3.064   6.915 -0.3427 -0.4105 -0.3349
 3569TIP3    H132266   6.566   3.037   6.862 -0.1121 -0.1870 -0.7706
 3569TIP3    H232267   6.706   2.995   6.901 -0.5319 -0.7039  0.1925
 3570TIP3   OH232268   5.912   4.673   8.446  1.2055  0.2584  0.1256
 3570TIP3    H132269   6.007   4.683   8.440  1.3341  0.2128  1.6342
 3570TIP3    H232270   5.877   4.749   8.400  1.9513  0.0148 -0.8761
 3571TIP3   OH232271   4.360   1.434   7.901  0.0770 -0.1241  0.0512
 3571TIP3    H132272   4.281   1.485   7.886  0.6257  0.7383 -0.0156
 3571TIP3    H232273   4.379   1.445   7.994  0.0476 -0.4380  0.0963
 3572TIP3   OH232274   3.333   1.247   1.363 -0.2766 -0.4042 -0.3785
 3572TIP3    H132275   3.273   1.300   1.311  0.7346 -1.7273 -3.1117
 3572TIP3    H232276   3.277   1.197   1.422 -1.6030  0.3884 -0.9279
 3573TIP3   OH232277   0.282   4.617   7.539  0.0289  0.2757 -0.2142
 3573TIP3    H132278   0.307   4.688   7.479  1.9389  0.2203  0.4491
 3573TIP3    H232279   0.322   4.641   7.622  2.0413 -2.2982 -0.3278
 3574TIP3   OH232280   3.987   3.142   6.240  0.4824 -0.1982 -0.6154
 3574TIP3    H132281   4.020   3.199   6.310 -0.7476 -0.1200 -0.0820
 3574TIP3    H232282   3.969   3.058   6.283 -2.7059  0.5763 -0.1858
 3575TIP3   OH232283   3.947   3.669   0.585  0.1610  0.4626 -0.0106
 3575TIP3    H132284   3.861   3.673   0.625 -0.0512  1.4882 -0.5404
 3575TIP3    H232285   3.987   3.589   0.621 -1.3464 -0.5332 -0.4634
 3576TIP3   OH232286   0.506   3.323   0.874  0.6188 -0.2692 -0.0520
 3576TIP3    H132287   0.464   3.385   0.933  0.6331 -1.8528  1.7192
 3576TIP3    H232288   0.555   3.264   0.932  0.6913 -1.8621 -1.6387
 3577TIP3   OH232289   5.959   0.221   2.796  0.6311 -0.0196  0.3303
 3577TIP3    H132290   5.943   0.301   2.746 -0.0608  1.0731  2.1934
 3577TIP3    H232291   5.922   0.239   2.882  0.0473 -2.5501  0.6838
 3578TIP3   OH232292   1.704   0.348   8.415  0.2099 -0.0568  0.7728
 3578TIP3    H132293   1.659   0.313   8.338 -0.2852  2.5253 -0.2131
 3578TIP3    H232294   1.704   0.276   8.478 -1.7080 -1.4272 -0.6879
 3579TIP3   OH232295   3.623   1.967   0.985 -0.3197  0.5342 -0.4821
 3579TIP3    H132296   3.599   2.000   0.899  1.1815  0.3127 -1.0046
 3579TIP3    H232297   3.718   1.965   0.985 -0.3050 -0.1658  0.9230
 3580TIP3   OH232298   2.611   6.756   0.485 -0.3557 -0.0060 -0.1393
 3580TIP3    H132299   2.523   6.727   0.509  0.5780 -0.9599  2.5167
 3580TIP3    H232300   2.613   6.848   0.509 -0.9534  0.3426 -1.3387
 3581TIP3   OH232301   3.607   2.457   1.607 -0.4427 -0.3929  0.1885
 3581TIP3    H132302   3.644   2.491   1.526 -2.6306  0.7499 -0.3960
 3581TIP3    H232303   3.640   2.516   1.675 -2.2131  1.5155 -0.5067
 3582TIP3   OH232304   3.517   1.210   1.646 -0.3484  0.4260  0.0035
 3582TIP3    H132305   3.512   1.161   1.564 -0.7168  0.9094 -0.2662
 3582TIP3    H232306   3.529   1.143   1.713  3.5659  0.1564 -0.7349
 3583TIP3   OH232307   1.061   3.647   7.845 -0.1697  0.3253  0.0824
 3583TIP3    H132308   1.020   3.569   7.808 -0.0476  0.2348  0.1360
 3583TIP3    H232309   1.153   3.641   7.819  0.4216 -0.8877  2.2376
 3584TIP3   OH232310   4.225   5.659   6.651 -0.2729  0.4452 -0.2269
 3584TIP3    H132311   4.230   5.739   6.599 -0.3564  1.2078  0.8866
 3584TIP3    H232312   4.260   5.684   6.737 -0.4309 -0.6783  0.1845
 3585TIP3   OH232313   0.355   3.141   1.617  0.1192  0.4837  0.1826
 3585TIP3    H132314   0.345   3.062   1.669 -0.9833 -0.4579 -1.4028
 3585TIP3    H232315   0.376   3.209   1.681 -0.2920 -0.7970  1.7336
 3586TIP3   OH232316   4.356   5.755   0.742  0.4626  0.1955  0.3502
 3586TIP3    H132317   4.318   5.743   0.655  1.2901  0.9974 -0.1357
 3586TIP3    H232318   4.281   5.748   0.802  0.0884 -1.7295 -0.2827
 3587TIP3   OH232319   4.831   3.725   2.412 -0.3064 -0.0632 -0.5358
 3587TIP3    H132320   4.914   3.757   2.377  0.6419 -1.4642  0.3327
 3587TIP3    H232321   4.771   3.728   2.337  0.5953  0.7187 -1.2507
 3588TIP3   OH232322   1.796   1.039   2.046  0.7830 -0.2568  0.1174
 3588TIP3    H132323   1.703   1.058   2.038  1.1879  3.3940  1.8493
 3588TIP3    H232324   1.833   1.063   1.961  0.4011  0.6736  0.2032
 3589TIP3   OH232325   6.376   0.357   2.602 -0.0962 -0.2975  0.1333
 3589TIP3    H132326   6.450   0.333   2.658  1.5389 -0.4801 -1.9731
 3589TIP3    H232327   6.308   0.293   2.623  0.9713 -1.2152  0.9183
 3590TIP3   OH232328   3.278   6.286   7.991  0.1323 -0.0897  0.3254
 3590TIP3    H132329   3.316   6.367   8.025  2.6505 -0.6109 -1.0269
 3590TIP3    H232330   3.273   6.228   8.067 -1.2838  1.1230  1.2159
 3591TIP3   OH232331   4.534   6.065   0.015 -0.3136  0.1891 -0.4958
 3591TIP3    H132332   4.455   6.083  -0.037 -1.9789  1.4442  2.2828
 3591TIP3    H232333   4.577   6.150   0.024 -0.4783  0.1511  0.7894
 3592TIP3   OH232334   6.366   5.666   2.871  0.0493 -0.6260  0.5725
 3592TIP3    H132335   6.271   5.681   2.870 -0.0828 -0.8241  3.3789
 3592TIP3    H232336   6.375   5.572   2.885  0.5668 -0.3303  2.5533
 3593TIP3   OH232337   4.225   5.965   7.948  0.1728  0.1574  0.0418
 3593TIP3    H132338   4.270   6.037   7.904 -2.1649  1.0036 -1.1276
 3593TIP3    H232339   4.188   6.004   8.027 -1.2399  0.3431 -0.6774
 3594TIP3   OH232340   0.156   0.778   0.410  0.0259  0.4290 -0.0327
 3594TIP3    H132341   0.216   0.852   0.399  0.6453  0.0602  0.6983
 3594TIP3    H232342   0.145   0.772   0.505  1.6952 -1.7266  0.0887
 3595TIP3   OH232343   5.820   3.658   8.418  0.2833 -0.5251 -0.2427
 3595TIP3    H132344   5.733   3.620   8.413  0.9495 -2.4948  1.7178
 3595TIP3    H232345   5.822   3.704   8.501  0.9440  0.0148 -0.5447
 3596TIP3   OH232346   4.012   3.033   7.834  0.5279 -0.3909 -0.1379
 3596TIP3    H132347   4.028   2.946   7.796  2.6409 -0.1775  0.1516
 3596TIP3    H232348   4.095   3.056   7.876 -1.0010  0.3459  2.7148
 3597TIP3   OH232349   0.697   0.112   1.644  0.3493 -0.6345 -0.2349
 3597TIP3    H132350   0.790   0.109   1.623  0.4980  0.1314  0.2967
 3597TIP3    H232351   0.694   0.110   1.740  0.0800  3.9447  0.0715
 3598TIP3   OH232352   0.442   5.980   1.653  0.1447  0.3632 -0.1473
 3598TIP3    H132353   0.532   6.005   1.631  0.5030  0.4421  1.2969
 3598TIP3    H232354   0.449   5.890   1.685 -0.0922  0.7455  1.0440
 3599TIP3   OH232355   3.369   3.473   0.756 -0.0035  0.3290  0.0567
 3599TIP3    H132356   3.434   3.513   0.814  1.1238  1.5219 -1.9341
 3599TIP3    H232357   3.320   3.547   0.720  2.2497  0.2039 -3.8528
 3600TIP3   OH232358   6.252   2.750   6.851  0.0985  0.1622  0.2555
 3600TIP3    H132359   6.275   2.819   6.913  1.1093  0.2886 -0.2373
 3600TIP3    H232360   6.206   2.685   6.903  1.0186  0.2202  1.1677
 3601TIP3   OH232361   1.040   5.911   7.864 -0.0939  0.5175 -0.4613
 3601TIP3    H132362   1.129   5.936   7.838 -0.6890  2.8716 -0.5023
 3601TIP3    H232363   1.034   5.937   7.956 -0.3282 -0.9562 -0.0350
 3602TIP3   OH232364   0.515   0.734   2.364 -0.4096 -0.0871 -0.2352
 3602TIP3    H132365   0.448   0.672   2.337  0.3372 -0.1459 -2.0856
 3602TIP3    H232366   0.473   0.820   2.356 -0.2302 -0.1069 -1.6348
 3603TIP3   OH232367   0.799   1.375   6.415 -0.1123 -0.2536 -0.0770
 3603TIP3    H132368   0.705   1.393   6.411 -0.0772 -0.2686 -2.2308
 3603TIP3    H232369   0.839   1.460   6.432 -0.4225  0.1955 -1.4630
 3604TIP3   OH232370   4.394   1.025   8.288 -0.1038 -0.3386  0.7340
 3604TIP3    H132371   4.445   0.959   8.240 -0.6021  0.1600 -0.5240
 3604TIP3    H232372   4.432   1.025   8.376  4.0238  1.9962 -0.7686
 3605TIP3   OH232373   0.947   1.894   7.473  0.3540 -0.2900 -0.0540
 3605TIP3    H132374   1.025   1.887   7.529 -0.3633  2.0332  1.3834
 3605TIP3    H232375   0.886   1.830   7.510  0.6248 -0.2046  0.5612
 3606TIP3   OH232376   4.202   1.420   1.339  0.0290  0.0285 -0.2582
 3606TIP3    H132377   4.176   1.435   1.430 -0.3084  0.5299 -0.4364
 3606TIP3    H232378   4.130   1.454   1.287  0.8186  1.0140 -0.7426
 3607TIP3   OH232379   5.767   6.808   7.682 -0.0347  0.0480  0.2253
 3607TIP3    H132380   5.734   6.769   7.763 -1.9872 -2.6094 -1.6713
 3607TIP3    H232381   5.699   6.869   7.655  1.4377  2.3431  1.3786
 3608TIP3   OH232382   6.080   3.514   8.151 -0.0916 -0.3254 -0.1174
 3608TIP3    H132383   6.129   3.484   8.228  0.9325 -1.2124 -1.0750
 3608TIP3    H232384   5.996   3.469   8.158  0.9687 -2.6102 -0.8766
 3609TIP3   OH232385   6.006   4.638   7.339 -0.1718 -0.5078  0.7894
 3609TIP3    H132386   5.993   4.546   7.317 -0.5371 -0.5108  1.0067
 3609TIP3    H232387   5.972   4.685   7.264  0.2928 -0.5546  0.5473
 3610TIP3   OH232388   6.583   2.082   2.481  0.1552 -0.3028 -0.2761
 3610TIP3    H132389   6.665   2.034   2.487 -0.1481 -0.8619 -0.5209
 3610TIP3    H232390   6.535   2.039   2.411 -0.2564  0.1636 -0.2877
 3611TIP3   OH232391   2.571   4.488   7.802 -0.3344  0.4544 -0.3699
 3611TIP3    H132392   2.495   4.437   7.827  0.3556  0.0042  0.9050
 3611TIP3    H232393   2.643   4.450   7.852  0.8024  0.6584 -1.7741
 3612TIP3   OH232394   5.697   6.108   1.266 -0.8969 -0.0194 -0.1875
 3612TIP3    H132395   5.715   6.015   1.251 -0.2882 -0.1742  1.3298
 3612TIP3    H232396   5.621   6.127   1.211 -0.1659 -1.0373 -1.6225
 3613TIP3   OH232397   3.432   1.763   1.103 -0.1101 -0.4260 -0.4320
 3613TIP3    H132398   3.487   1.710   1.160 -0.5069 -2.7536 -2.0653
 3613TIP3    H232399   3.492   1.822   1.059  0.9126 -1.8670 -1.0423
 3614TIP3   OH232400   3.934   2.059   2.070  0.5392  0.0199  0.0555
 3614TIP3    H132401   3.851   2.021   2.102 -1.5408  2.4754 -2.0075
 3614TIP3    H232402   3.915   2.152   2.060  3.4732  0.5954 -0.9001
 3615TIP3   OH232403   6.285   0.166   0.859 -0.3221 -0.6914 -0.6041
 3615TIP3    H132404   6.194   0.166   0.888 -0.5557 -0.1497 -1.3120
 3615TIP3    H232405   6.311   0.074   0.862 -0.1821 -0.6224  1.7509
 3616TIP3   OH232406   2.894   1.076   7.149 -0.6120 -0.0718 -0.1332
 3616TIP3    H132407   2.909   1.096   7.057 -2.4030  0.8470 -0.2832
 3616TIP3    H232408   2.976   1.098   7.193  0.6490 -1.5619 -1.6110
 3617TIP3   OH232409   4.344   0.832   7.493  0.3212 -0.1821  0.3048
 3617TIP3    H132410   4.437   0.812   7.507 -0.2117 -3.1659  0.1600
 3617TIP3    H232411   4.299   0.787   7.565 -1.0382  1.5471  0.5920
 3618TIP3   OH232412   2.948   1.538   6.044  0.0134 -0.0026  0.3049
 3618TIP3    H132413   2.935   1.445   6.063  1.5135  0.1510  2.3873
 3618TIP3    H232414   2.930   1.582   6.127  2.3892  1.2450  0.2268
 3619TIP3   OH232415   0.596   2.145   1.968 -0.2005  0.2457  0.0943
 3619TIP3    H132416   0.662   2.204   1.930 -1.9763  2.8864  0.8075
 3619TIP3    H232417   0.517   2.199   1.974 -1.6557 -1.9155  1.8879
 3620TIP3   OH232418   0.917   2.147   7.349 -0.3020  0.1595 -0.1462
 3620TIP3    H132419   0.851   2.151   7.279 -1.0500  2.2236  0.5959
 3620TIP3    H232420   0.917   2.056   7.378 -1.1384 -0.3763 -1.7333
 3621TIP3   OH232421   0.841   5.686   6.787 -0.0140  0.5799 -0.3030
 3621TIP3    H132422   0.933   5.671   6.765  0.6328  1.9448  1.2293
 3621TIP3    H232423   0.836   5.780   6.804 -1.1642  0.1912  1.8445
 3622TIP3   OH232424   6.810   0.051   2.146  0.1799  0.2153  0.1528
 3622TIP3    H132425   6.874   0.077   2.213  0.7163 -0.6144 -0.0143
 3622TIP3    H232426   6.735   0.109   2.160  0.1333 -0.1801  1.7055
 3623TIP3   OH232427   4.891   5.636   8.541 -0.0524 -0.0039 -0.4126
 3623TIP3    H132428   4.849   5.721   8.531  0.2873  0.3663  1.1465
 3623TIP3    H232429   4.819   5.574   8.550 -0.2822  0.3481  0.1862
 3624TIP3   OH232430   1.325   5.239   1.731  0.4206  0.4652  0.1678
 3624TIP3    H132431   1.341   5.181   1.657 -1.1975 -0.8403  0.7783
 3624TIP3    H232432   1.236   5.271   1.718  0.8943  1.9928  0.4154
 3625TIP3   OH232433   6.128   2.442   8.403  0.4030  0.1725  0.3152
 3625TIP3    H132434   6.184   2.448   8.325 -0.9961  0.4795 -0.7138
 3625TIP3    H232435   6.123   2.349   8.422 -0.0003 -0.0034 -0.5720
 3626TIP3   OH232436   4.175   2.370   8.431 -0.5396 -0.3056 -0.4083
 3626TIP3    H132437   4.108   2.313   8.469  0.2276 -0.1584  1.2450
 3626TIP3    H232438   4.230   2.396   8.505  0.5905  0.6124 -1.5154
 3627TIP3   OH232439   5.920   6.150   0.970 -0.4396 -0.0874 -0.0771
 3627TIP3    H132440   5.901   6.134   0.877 -1.5654 -0.4628  0.2051
 3627TIP3    H232441   5.877   6.233   0.989  1.0364  0.7479 -0.2386
 3628TIP3   OH232442   4.096   6.206   0.390  0.6879 -0.9055 -0.0240
 3628TIP3    H132443   4.078   6.287   0.437 -1.2246 -1.1620 -0.1937
 3628TIP3    H232444   4.159   6.160   0.445  2.3060  0.9363 -0.2447
 3629TIP3   OH232445   0.550   1.186   2.251  0.6521 -0.1303  0.7157
 3629TIP3    H132446   0.476   1.125   2.257  0.0054  0.5914  0.4243
 3629TIP3    H232447   0.555   1.226   2.338 -1.4725  2.2052 -0.1106
 3630TIP3   OH232448   4.212   5.320   7.508 -0.3722 -0.1401  0.0087
 3630TIP3    H132449   4.271   5.276   7.448  1.2165  1.8267  0.0112
 3630TIP3    H232450   4.209   5.263   7.585  0.9975 -0.6162 -0.2651
 3631TIP3   OH232451   2.906   0.491   0.938  0.5055  0.3521  0.3735
 3631TIP3    H132452   2.911   0.541   1.020  0.3732 -0.4526  0.8781
 3631TIP3    H232453   2.855   0.548   0.880 -0.8709  0.2212  1.3939
 3632TIP3   OH232454   4.830   0.479   1.286 -0.0203 -0.1600 -0.0216
 3632TIP3    H132455   4.816   0.551   1.348 -0.9472 -0.1903 -0.1813
 3632TIP3    H232456   4.871   0.521   1.210  2.0364 -0.2779  0.9423
 3633TIP3   OH232457   5.817   3.195   7.327  1.4827  0.5076  0.1147
 3633TIP3    H132458   5.766   3.275   7.341  0.9055  0.0102  0.9054
 3633TIP3    H232459   5.846   3.168   7.415  1.5231 -0.2511 -0.1225
 3634TIP3   OH232460   4.286   4.255   7.530 -0.2036  0.4057 -0.1752
 3634TIP3    H132461   4.320   4.331   7.483  1.4143 -0.4765 -0.5170
 3634TIP3    H232462   4.355   4.233   7.593 -0.9015 -0.4168  0.3259
 3635TIP3   OH232463   0.619   1.127   1.324  0.3738  0.1857 -0.3600
 3635TIP3    H132464   0.566   1.142   1.245 -0.3807 -0.6378 -0.0256
 3635TIP3    H232465   0.690   1.070   1.295  1.2010  1.4206 -0.8469
 3636TIP3   OH232466   6.717   0.186   1.605  1.1146  0.2155  0.1907
 3636TIP3    H132467   6.811   0.202   1.616  1.4325 -1.9966  1.2891
 3636TIP3    H232468   6.681   0.198   1.693  1.3880 -4.3459  1.1449
 3637TIP3   OH232469   6.439   2.240   0.181 -0.6340  0.5651 -0.4563
 3637TIP3    H132470   6.532   2.260   0.173 -0.2323 -0.9544  0.1735
 3637TIP3    H232471   6.400   2.323   0.209  0.8088  0.7834  1.1008
 3638TIP3   OH232472   2.161   0.396   7.800 -0.2560  0.0474  0.1189
 3638TIP3    H132473   2.097   0.330   7.772  0.1539 -0.8278  1.1609
 3638TIP3    H232474   2.198   0.430   7.718 -0.5590 -0.9547 -0.4489
 3639TIP3   OH232475   3.158   0.360   7.149  0.0687  0.1159 -0.8043
 3639TIP3    H132476   3.183   0.298   7.080 -2.0083 -0.6547 -0.9364
 3639TIP3    H232477   3.165   0.310   7.230 -1.0634 -0.1623 -0.8568
 3640TIP3   OH232478   2.716   1.875   7.776  0.5574 -0.1123 -0.2507
 3640TIP3    H132479   2.729   1.806   7.711 -1.0516 -0.4649 -0.2354
 3640TIP3    H232480   2.698   1.953   7.724 -0.7714 -0.4033 -0.2493
 3641TIP3   OH232481   0.338   0.976   0.358  0.1910  0.5001 -0.6029
 3641TIP3    H132482   0.297   0.985   0.272 -0.4779 -0.0994 -0.3536
 3641TIP3    H232483   0.342   1.065   0.393 -1.0143  0.5534 -0.5817
 3642TIP3   OH232484   2.158   3.867   1.787  0.5305  0.4794  0.4752
 3642TIP3    H132485   2.176   3.808   1.861  0.5091  0.3662  0.3911
 3642TIP3    H232486   2.236   3.921   1.779  2.0804 -1.8415 -1.6457
 3643TIP3   OH232487   1.939   4.275   1.354 -0.4044 -0.1714  0.5984
 3643TIP3    H132488   1.873   4.295   1.420  0.3246  0.2060  1.2305
 3643TIP3    H232489   1.892   4.278   1.270 -1.9503 -3.1944  1.2256
 3644TIP3   OH232490   4.597   3.511   7.056 -0.0359  0.4637 -0.9685
 3644TIP3    H132491   4.593   3.551   6.969 -1.1985  0.3823 -0.9722
 3644TIP3    H232492   4.506   3.511   7.086  0.4300  1.1437  0.5515
 3645TIP3   OH232493   0.811   4.078   1.050  0.2669  0.2616  0.2136
 3645TIP3    H132494   0.902   4.081   1.081  0.2939 -0.8569  0.2651
 3645TIP3    H232495   0.758   4.092   1.128  0.3768  0.0024  0.3337
 3646TIP3   OH232496   0.534   3.053   0.249 -0.3217  0.6659  0.2597
 3646TIP3    H132497   0.566   3.047   0.340 -1.3648  0.9545  0.6569
 3646TIP3    H232498   0.613   3.068   0.197  0.2711  0.6927  1.1392
 3647TIP3   OH232499   4.383   4.653   1.131  0.5477 -0.3604 -0.0683
 3647TIP3    H132500   4.420   4.612   1.209  0.2016  2.6595  1.8297
 3647TIP3    H232501   4.289   4.654   1.146  0.4705  0.2391 -0.5337
 3648TIP3   OH232502   6.302   4.541   7.177  0.4994  1.0612 -0.2914
 3648TIP3    H132503   6.277   4.632   7.195 -0.2432  0.8401 -0.1784
 3648TIP3    H232504   6.220   4.497   7.157  0.7003  0.1573  0.7738
 3649TIP3   OH232505   3.092   0.491   2.694  0.4377  0.1728  0.5127
 3649TIP3    H132506   3.006   0.506   2.732  1.9434  0.3274  4.3158
 3649TIP3    H232507   3.153   0.535   2.753  3.2676 -1.2058 -1.1296
 3650TIP3   OH232508   6.319   6.639   7.709 -0.5658 -0.2756 -0.5441
 3650TIP3    H132509   6.232   6.632   7.749  0.4366  0.3632  1.9625
 3650TIP3    H232510   6.362   6.709   7.758  1.2412 -0.2924 -2.0064
 3651TIP3   OH232511   0.845   5.454   2.505 -0.3308 -0.0571 -0.0551
 3651TIP3    H132512   0.836   5.428   2.596 -1.5122  0.7289  0.0735
 3651TIP3    H232513   0.772   5.515   2.490 -1.2906 -1.5981 -2.0390
 3652TIP3   OH232514   6.336   2.591   8.140 -0.3600  0.0160 -0.0042
 3652TIP3    H132515   6.279   2.518   8.116  1.9227 -1.0065 -3.0331
 3652TIP3    H232516   6.315   2.660   8.077  0.4657  0.3073  0.0230
 3653TIP3   OH232517   4.314   0.145   2.553 -0.1130  0.0271  0.0658
 3653TIP3    H132518   4.269   0.220   2.593 -0.2734  0.8617 -1.5869
 3653TIP3    H232519   4.296   0.072   2.612 -3.6689  0.3005 -0.4937
 3654TIP3   OH232520   4.605   0.415   2.421 -0.4602  0.2818 -0.2582
 3654TIP3    H132521   4.683   0.437   2.370 -0.5470  1.3770  0.0748
 3654TIP3    H232522   4.549   0.367   2.359  0.1276  0.1828 -0.7228
 3655TIP3   OH232523   2.962   2.091   7.668 -0.7815  0.1303 -0.1560
 3655TIP3    H132524   2.869   2.071   7.659 -0.6645  0.0909 -1.3929
 3655TIP3    H232525   2.968   2.186   7.652 -0.5556  0.0592 -0.5012
 3656TIP3   OH232526   0.409   6.659   1.885 -0.1401 -0.2720 -0.0125
 3656TIP3    H132527   0.482   6.699   1.839  0.3182 -0.9778  0.0817
 3656TIP3    H232528   0.354   6.622   1.815  0.1245 -0.6193 -0.0413
 3657TIP3   OH232529   2.364   2.397   1.382  0.7249  0.4620  0.0496
 3657TIP3    H132530   2.362   2.302   1.369 -0.3819  0.5992 -1.0114
 3657TIP3    H232531   2.279   2.427   1.350  0.9180  1.7807  0.7078
 3658TIP3   OH232532   5.604   0.204   8.052 -0.5183 -0.2550  0.0941
 3658TIP3    H132533   5.588   0.142   7.981 -2.1270  1.6305 -1.2876
 3658TIP3    H232534   5.519   0.218   8.092 -0.1686  0.9073  0.4899
 3659TIP3   OH232535   2.620   5.090   8.276  0.6960 -0.4182  0.0680
 3659TIP3    H132536   2.648   5.115   8.364  3.3542 -3.3014  0.2054
 3659TIP3    H232537   2.557   5.020   8.289  0.7727 -0.5647 -0.3279
 3660TIP3   OH232538   0.334   0.975   6.524 -0.4112  0.0292  1.1099
 3660TIP3    H132539   0.264   1.033   6.496 -0.7829 -1.5292 -1.4848
 3660TIP3    H232540   0.413   1.027   6.516 -0.9670  0.9742  1.4886
 3661TIP3   OH232541   0.102   1.869   0.426 -0.1196  0.3466  0.2271
 3661TIP3    H132542   0.113   1.945   0.369  3.1729  1.3318  1.9020
 3661TIP3    H232543   0.031   1.894   0.486 -0.2158  1.4035 -0.3065
 3662TIP3   OH232544   4.006   1.808   8.010  0.8548 -0.7471  0.4685
 3662TIP3    H132545   3.965   1.761   8.082 -0.2633  0.7235  0.8167
 3662TIP3    H232546   4.066   1.870   8.052 -0.4569  0.7463  0.2356
 3663TIP3   OH232547   0.969   4.725   2.103 -0.2020 -0.1753  0.6306
 3663TIP3    H132548   0.992   4.762   2.188 -1.8971 -0.9592  1.4968
 3663TIP3    H232549   0.880   4.693   2.115  0.6247 -3.1797 -0.4888
 3664TIP3   OH232550   0.157   0.868   1.620  0.2402 -0.0723  0.6950
 3664TIP3    H132551   0.228   0.804   1.624 -0.2126 -0.5660  1.0404
 3664TIP3    H232552   0.194   0.943   1.575  1.2826  0.0483  1.7082
 3665TIP3   OH232553   5.912   3.438   7.825 -0.4930  0.4540  0.0818
 3665TIP3    H132554   5.887   3.414   7.914 -0.4200  0.6960  0.1681
 3665TIP3    H232555   6.007   3.443   7.826 -0.4337 -0.4146 -0.2338
 3666TIP3   OH232556   2.157   3.639   7.571 -0.2162  0.1305  0.0408
 3666TIP3    H132557   2.148   3.549   7.540  0.8796  0.0515 -0.0805
 3666TIP3    H232558   2.217   3.633   7.646 -0.0169  0.7697 -0.0613
 3667TIP3   OH232559   0.873   5.702   0.012 -0.1119  0.1740  0.1795
 3667TIP3    H132560   0.828   5.659  -0.060  3.1923 -1.7081 -0.9585
 3667TIP3    H232561   0.895   5.631   0.073 -1.9812  1.5828  2.6897
 3668TIP3   OH232562   2.166   2.368   2.521 -0.6293 -0.5324  0.1762
 3668TIP3    H132563   2.213   2.295   2.482  1.8512  1.4876 -0.8731
 3668TIP3    H232564   2.135   2.420   2.447 -0.7014  0.4647  0.8839
 3669TIP3   OH232565   2.386   2.870   7.577  0.5924 -0.5362  0.2672
 3669TIP3    H132566   2.370   2.964   7.575 -1.9802 -0.8746  1.2023
 3669TIP3    H232567   2.374   2.842   7.486 -0.0625 -0.1415  0.2254
 3670TIP3   OH232568   5.881   1.389   6.441  0.2545  0.3707  0.1663
 3670TIP3    H132569   5.831   1.311   6.416 -0.1383  1.1198 -1.5706
 3670TIP3    H232570   5.963   1.381   6.391  0.4649  0.7697  0.4464
 3671TIP3   OH232571   5.748   2.932   0.849  0.0181  0.4004  0.1706
 3671TIP3    H132572   5.722   2.976   0.930 -0.1486  0.7213 -0.0520
 3671TIP3    H232573   5.820   2.874   0.874 -0.3880  0.0947  0.6504
 3672TIP3   OH232574   3.271   0.310   7.417  0.3910  0.1515 -0.5467
 3672TIP3    H132575   3.285   0.309   7.512 -0.0911 -0.9297 -0.4723
 3672TIP3    H232576   3.301   0.396   7.389  3.2801 -0.5030  0.1630
 3673TIP3   OH232577   3.402   6.839   6.928  0.4733  0.2842 -0.2060
 3673TIP3    H132578   3.314   6.840   6.892  0.5458 -0.7347 -0.4465
 3673TIP3    H232579   3.458   6.814   6.854  0.6846 -1.3443  0.4526
 3674TIP3   OH232580   3.936   3.193   1.275 -0.2067  0.1549  0.4181
 3674TIP3    H132581   3.904   3.218   1.362 -0.6164  1.0042  0.0382
 3674TIP3    H232582   3.901   3.105   1.261 -0.8148  0.3269  0.7938
 3675TIP3   OH232583   0.969   0.168   1.298  0.0639 -0.2529  0.1493
 3675TIP3    H132584   1.039   0.233   1.295 -0.6660  0.5707  0.4542
 3675TIP3    H232585   1.000   0.101   1.359 -0.5630  1.5339  2.5939
 3676TIP3   OH232586   3.977   3.086   7.233  0.4397 -0.7953 -0.4814
 3676TIP3    H132587   3.961   3.073   7.326 -1.2334 -1.6653 -0.8505
 3676TIP3    H232588   3.937   3.171   7.213 -1.1405 -1.5760 -0.7929
 3677TIP3   OH232589   2.703   5.368   2.507  0.1307 -0.4826 -0.5136
 3677TIP3    H132590   2.749   5.451   2.519 -1.0305  0.0180  0.7741
 3677TIP3    H232591   2.766   5.312   2.462  1.3685  0.7051 -0.3321
 3678TIP3   OH232592   1.063   5.114   8.398 -0.7503 -0.1977  0.0406
 3678TIP3    H132593   1.026   5.191   8.355  0.1267  0.0791 -0.2242
 3678TIP3    H232594   1.094   5.058   8.327  1.5741  0.6909  0.2801
 3679TIP3   OH232595   4.353   1.913   7.842  0.4607 -0.0277 -0.3080
 3679TIP3    H132596   4.345   1.847   7.774 -1.2061 -0.0668 -0.1159
 3679TIP3    H232597   4.412   1.874   7.906  0.4644 -0.8234 -0.7792
 3680TIP3   OH232598   1.252   6.392   2.052  0.6725  0.3513  0.0155
 3680TIP3    H132599   1.344   6.373   2.069  0.4559 -2.1384 -1.1746
 3680TIP3    H232600   1.253   6.452   1.977  1.3305 -0.0344 -0.2901
 3681TIP3   OH232601   5.879   2.912   7.563 -0.2325 -0.1064  0.0069
 3681TIP3    H132602   5.799   2.924   7.511  0.3804  2.0555 -0.5718
 3681TIP3    H232603   5.939   2.978   7.528  1.3661 -0.8179  1.2983
 3682TIP3   OH232604   1.479   6.248   2.106  0.1440  0.1483 -0.4282
 3682TIP3    H132605   1.557   6.220   2.058 -0.2818  0.5112 -1.3667
 3682TIP3    H232606   1.513   6.297   2.181  0.8216 -0.2800 -0.4455
 3683TIP3   OH232607   5.057   2.243   7.234  0.5596  0.2517  0.4291
 3683TIP3    H132608   5.033   2.251   7.326 -1.0169 -0.8784  0.1471
 3683TIP3    H232609   5.001   2.173   7.200  2.1214 -0.3340 -1.0571
 3684TIP3   OH232610   6.079   5.190   0.713  0.5824 -1.1275  0.1346
 3684TIP3    H132611   6.018   5.210   0.784  1.2133  0.0939  0.3699
 3684TIP3    H232612   6.161   5.169   0.758  0.7352 -1.2771 -0.2143
 3685TIP3   OH232613   2.386   0.297   8.283  0.3709 -0.0763 -0.6751
 3685TIP3    H132614   2.465   0.329   8.240  0.1323  0.9559 -0.3466
 3685TIP3    H232615   2.413   0.278   8.373  0.7232 -1.6734 -1.0802
 3686TIP3   OH232616   5.857   4.995   2.550 -0.0973  0.0704 -0.1689
 3686TIP3    H132617   5.865   5.000   2.454  0.2714  1.2632 -0.0853
 3686TIP3    H232618   5.873   5.084   2.580  0.1916 -0.3788  1.0425
 3687TIP3   OH232619   0.844   0.700   8.350  0.3975 -0.2325  0.8139
 3687TIP3    H132620   0.925   0.732   8.389  0.9880 -0.3737 -0.2437
 3687TIP3    H232621   0.803   0.777   8.311  0.5874 -0.3452  0.3858
 3688TIP3   OH232622   6.119   2.723   7.978 -0.3406  0.0234  0.2672
 3688TIP3    H132623   6.066   2.670   8.037  0.5339 -0.4957  0.5990
 3688TIP3    H232624   6.064   2.734   7.900 -0.3335 -1.8533 -0.0364
 3689TIP3   OH232625   5.135   5.781   7.773 -0.2597 -0.0459 -0.2272
 3689TIP3    H132626   5.092   5.812   7.693  1.4050 -0.1403 -1.2051
 3689TIP3    H232627   5.149   5.687   7.758  0.5966  0.0514 -0.1066
 3690TIP3   OH232628   3.020   4.114   0.662  0.5137 -0.0191 -0.1805
 3690TIP3    H132629   3.083   4.159   0.604 -0.3650 -0.0697 -1.2170
 3690TIP3    H232630   2.993   4.182   0.724  0.7617  0.3043 -0.4169
 3691TIP3   OH232631   6.839   0.509   7.232 -0.1616  0.2019 -0.0824
 3691TIP3    H132632   6.773   0.507   7.301 -0.2434  1.0215 -0.1209
 3691TIP3    H232633   6.870   0.419   7.225 -1.2548 -0.1920 -0.0477
 3692TIP3   OH232634   1.019   5.609   1.658 -0.1573  0.1500  0.2014
 3692TIP3    H132635   1.065   5.693   1.668 -0.0023  0.0176  0.6379
 3692TIP3    H232636   0.967   5.620   1.578 -0.4587  0.8141  0.4754
 3693TIP3   OH232637   6.713   3.332   7.351 -0.3746  0.3150  0.5457
 3693TIP3    H132638   6.646   3.266   7.331  0.1315 -0.0576  0.0435
 3693TIP3    H232639   6.664   3.408   7.382 -1.0650  0.2076 -0.2667
 3694TIP3   OH232640   3.353   2.477   7.214 -0.2604 -0.5660 -0.1422
 3694TIP3    H132641   3.283   2.499   7.152  0.4902 -0.3751 -0.9430
 3694TIP3    H232642   3.381   2.389   7.189 -0.2684 -0.6717  0.2238
 3695TIP3   OH232643   1.124   6.187   1.481  0.2268  0.3072  0.0057
 3695TIP3    H132644   1.163   6.209   1.396  0.7696  1.6886  0.5838
 3695TIP3    H232645   1.045   6.138   1.459  0.8368 -0.1597 -1.2641
 3696TIP3   OH232646   0.168   6.783   1.370 -0.3412  0.9078  0.0335
 3696TIP3    H132647   0.100   6.720   1.391 -1.7477  1.5422 -2.2735
 3696TIP3    H232648   0.121   6.858   1.333  1.4036  2.6668  1.1680
 3697TIP3   OH232649   3.942   6.254   7.171 -0.1220 -0.0172 -0.3414
 3697TIP3    H132650   4.030   6.221   7.189 -1.0170 -1.7089  1.3535
 3697TIP3    H232651   3.922   6.222   7.083  0.1786 -1.5182  0.1047
 3698TIP3   OH232652   4.720   0.979   1.109  0.6065 -0.2763 -0.5578
 3698TIP3    H132653   4.685   0.991   1.197  1.9051 -0.5744  0.0186
 3698TIP3    H232654   4.691   0.891   1.084  0.7769 -0.4478 -0.1639
 3699TIP3   OH232655   2.774   1.064   2.131  0.2705  0.7302 -1.0761
 3699TIP3    H132656   2.739   1.152   2.141 -0.7379  0.2776 -0.4761
 3699TIP3    H232657   2.832   1.052   2.207 -1.6873 -0.0591  0.3834
 3700TIP3   OH232658   1.588   3.532   1.981 -0.1090  0.6822 -0.5822
 3700TIP3    H132659   1.650   3.469   2.017 -0.1710 -0.9445 -3.1056
 3700TIP3    H232660   1.509   3.523   2.035 -0.4343 -2.1404 -1.3693
 3701TIP3   OH232661   5.893   4.057   0.431 -0.3717  0.0170 -0.3967
 3701TIP3    H132662   5.963   4.092   0.377 -0.9867 -1.0479 -1.9626
 3701TIP3    H232663   5.861   4.133   0.481  1.8676  0.5140  0.4113
 3702TIP3   OH232664   4.640   3.694   2.194  0.0133  0.2130 -0.5149
 3702TIP3    H132665   4.625   3.622   2.133  0.1484  0.0646 -0.3743
 3702TIP3    H232666   4.579   3.762   2.167 -0.3490 -0.0810 -0.4462
 3703TIP3   OH232667   4.756   2.912   1.841 -1.1033  0.0635  0.0176
 3703TIP3    H132668   4.757   2.942   1.932  0.1390  0.7852 -0.2076
 3703TIP3    H232669   4.838   2.945   1.804 -1.6596 -0.0785 -1.4114
 3704TIP3   OH232670   3.118   0.763   7.499  0.3760 -0.3446  0.5154
 3704TIP3    H132671   3.052   0.831   7.487  0.3370 -0.6065 -1.0998
 3704TIP3    H232672   3.190   0.806   7.543  0.8000  1.0816 -1.4382
 3705TIP3   OH232673   5.277   1.207   0.214 -0.0320 -0.4567  0.0355
 3705TIP3    H132674   5.305   1.276   0.274 -0.1170 -0.5527  0.1877
 3705TIP3    H232675   5.195   1.239   0.176 -0.0071 -0.4197  0.0140
 3706TIP3   OH232676   0.937   5.248   7.283 -0.2225  0.7410  0.3440
 3706TIP3    H132677   0.844   5.232   7.265 -0.4143 -0.5777  2.2523
 3706TIP3    H232678   0.981   5.168   7.253 -0.1106  0.1045  2.0800
 3707TIP3   OH232679   6.765   1.486   1.095  0.0226 -0.2009  0.1144
 3707TIP3    H132680   6.836   1.524   1.043  0.3549 -1.3146 -0.2856
 3707TIP3    H232681   6.722   1.561   1.136  0.7776  0.5736 -0.4710
 3708TIP3   OH232682   0.776   0.869   1.221 -0.3573 -0.1811  0.2001
 3708TIP3    H132683   0.857   0.842   1.177  0.4494  1.5625  0.5494
 3708TIP3    H232684   0.761   0.800   1.286 -0.7364 -2.0083 -1.6949
 3709TIP3   OH232685   1.162   2.222   7.473 -0.1140  0.0147  0.2477
 3709TIP3    H132686   1.076   2.202   7.436 -0.1186  0.9922 -0.2941
 3709TIP3    H232687   1.196   2.293   7.419  1.5196 -1.0929 -0.2547
 3710TIP3   OH232688   1.373   1.295   0.662 -0.3166  0.1125 -0.0911
 3710TIP3    H132689   1.358   1.203   0.641 -1.1729  0.0403  0.8020
 3710TIP3    H232690   1.458   1.296   0.707 -0.7547 -0.3724  0.7584
 3711TIP3   OH232691   2.911   4.978   7.935 -0.0631 -0.0746  0.0212
 3711TIP3    H132692   2.877   4.955   8.022 -1.1822 -2.4518 -0.9623
 3711TIP3    H232693   2.891   5.071   7.926 -2.3802 -0.3531  1.3026
 3712TIP3   OH232694   5.063   5.710   8.330  0.0036 -0.2032  0.2114
 3712TIP3    H132695   5.032   5.666   8.409 -1.2048 -0.1255 -0.1957
 3712TIP3    H232696   5.044   5.649   8.259  2.4264 -0.9146  0.0909
 3713TIP3   OH232697   1.139   4.403   0.938 -0.4515  0.2461 -0.0653
 3713TIP3    H132698   1.166   4.463   0.869  0.3868  0.3610  0.3584
 3713TIP3    H232699   1.130   4.318   0.893  0.5792  0.2144 -0.2248
 3714TIP3   OH232700   3.860   3.582   7.612 -0.4700 -0.2739  0.4009
 3714TIP3    H132701   3.780   3.531   7.597 -0.0432 -0.5709 -0.9151
 3714TIP3    H232702   3.828   3.671   7.629 -1.0264  0.1854 -2.6239
 3715TIP3   OH232703   3.881   0.456   6.944  0.7313  0.2867 -0.0966
 3715TIP3    H132704   3.970   0.487   6.930  1.1138 -0.5513  0.3788
 3715TIP3    H232705   3.831   0.490   6.870  2.1909 -2.2207 -2.4029
 3716TIP3   OH232706   2.731   0.935   1.868 -0.0144 -0.6186  0.2853
 3716TIP3    H132707   2.778   1.002   1.818  0.0885 -0.7551  0.1992
 3716TIP3    H232708   2.733   0.966   1.958  0.9661 -1.0397  0.4136
 3717TIP3   OH232709   5.554   3.203   0.443  0.0527  0.0061 -0.0690
 3717TIP3    H132710   5.618   3.190   0.513  0.6408  1.2319 -0.3605
 3717TIP3    H232711   5.481   3.249   0.485  1.3791  2.8647 -0.6678
 3718TIP3   OH232712   1.006   3.507   7.373 -0.4412  0.5229 -0.6877
 3718TIP3    H132713   0.935   3.471   7.318  1.5520 -1.4221 -2.1939
 3718TIP3    H232714   1.044   3.430   7.414  0.5762  1.5795  0.3984
 3719TIP3   OH232715   1.271   1.510   0.825  0.3487  0.1587 -0.0625
 3719TIP3    H132716   1.212   1.551   0.761 -1.0550  1.4344  1.9140
 3719TIP3    H232717   1.293   1.425   0.787 -1.8945  0.0906 -1.4059
 3720TIP3   OH232718   2.697   2.742   1.663  0.4638 -0.2711 -0.4534
 3720TIP3    H132719   2.728   2.706   1.746  0.3601  0.8765  0.1081
 3720TIP3    H232720   2.719   2.676   1.598  0.3646 -1.2833  0.5129
 3721TIP3   OH232721   4.018   0.870   0.151 -0.3095  0.2069 -0.2234
 3721TIP3    H132722   4.043   0.803   0.088  0.4563  1.8896 -1.8041
 3721TIP3    H232723   4.072   0.853   0.228 -0.1281 -0.9647 -0.5981
 3722TIP3   OH232724   2.680   2.735   6.825  0.0348  0.1567 -0.3264
 3722TIP3    H132725   2.729   2.806   6.783 -0.9575  1.3952  0.5458
 3722TIP3    H232726   2.593   2.772   6.842 -0.8469 -1.5898 -0.7297
 3723TIP3   OH232727   4.905   1.984   7.381 -0.0509 -0.1129  0.2820
 3723TIP3    H132728   4.864   2.045   7.443 -0.2178  0.4422 -0.3558
 3723TIP3    H232729   4.838   1.919   7.364 -0.8991  1.0843 -1.1631
 3724TIP3   OH232730   0.454   1.499   7.958 -0.6246 -0.4100 -0.3145
 3724TIP3    H132731   0.522   1.432   7.949  1.0784  1.1497  0.2798
 3724TIP3    H232732   0.422   1.513   7.869  0.1466 -0.8753 -0.6767
 3725TIP3   OH232733   0.296   4.836   1.075  0.0421  0.4215  0.3079
 3725TIP3    H132734   0.296   4.904   1.007 -0.8683  0.7057  0.5657
 3725TIP3    H232735   0.384   4.840   1.112  0.8392 -0.3138 -1.3895
 3726TIP3   OH232736   1.692   2.638   0.001  0.1489 -0.2566  0.4884
 3726TIP3    H132737   1.631   2.711  -0.012  0.3897  0.2726  2.2141
 3726TIP3    H232738   1.648   2.564  -0.041 -1.6905  0.1197  1.6078
 3727TIP3   OH232739   1.629   5.601   7.859  0.7057 -0.0862  0.5141
 3727TIP3    H132740   1.562   5.652   7.814  2.0613  2.0773  0.7644
 3727TIP3    H232741   1.692   5.578   7.791  0.7911 -0.2175  0.6362
 3728TIP3   OH232742   6.375   5.383   8.238  0.5225  0.5476  0.0009
 3728TIP3    H132743   6.468   5.365   8.221  0.0784 -2.1474 -0.0039
 3728TIP3    H232744   6.372   5.405   8.331  1.1301  0.2202  0.1030
 3729TIP3   OH232745   3.264   5.026   7.635  0.8567  0.9087  0.0202
 3729TIP3    H132746   3.312   5.080   7.572  0.1771  2.4143  0.7506
 3729TIP3    H232747   3.198   4.981   7.582  0.9250  1.3936 -0.4835
 3730TIP3   OH232748   4.823   6.298   2.339  0.6737 -0.5564 -0.4467
 3730TIP3    H132749   4.874   6.219   2.322 -0.3898 -1.9073  2.1124
 3730TIP3    H232750   4.756   6.271   2.402 -0.0887  2.2822  0.1270
 3731TIP3   OH232751   1.339   4.592   0.690 -0.3169  0.0704 -0.2959
 3731TIP3    H132752   1.250   4.588   0.654 -0.1274  0.7866 -0.8773
 3731TIP3    H232753   1.376   4.506   0.672  0.7001  1.1595 -4.3647
 3732TIP3   OH232754   1.245   4.042   1.430 -0.8284  0.1672 -0.1960
 3732TIP3    H132755   1.330   4.071   1.397  0.8950  0.7497  4.1207
 3732TIP3    H232756   1.252   3.947   1.434  0.2488  0.2749  1.3687
 3733TIP3   OH232757   6.368   5.685   7.555  0.3146  0.4784  0.1510
 3733TIP3    H132758   6.426   5.724   7.490  1.3343 -1.4279 -0.1427
 3733TIP3    H232759   6.410   5.603   7.579 -2.3108 -1.0798 -0.1557
 3734TIP3   OH232760   4.746   2.417   0.161 -0.7693  0.1912  0.2464
 3734TIP3    H132761   4.818   2.480   0.161 -1.7918  1.3903 -0.5509
 3734TIP3    H232762   4.717   2.414   0.070 -0.3571 -1.9257  0.1185
 3735TIP3   OH232763   4.394   1.719   6.219 -0.0972 -0.5868 -0.9317
 3735TIP3    H132764   4.313   1.770   6.222  0.5169  0.4670 -1.3665
 3735TIP3    H232765   4.367   1.631   6.195 -1.1743 -0.4121 -0.3915
 3736TIP3   OH232766   5.108   2.512   8.128 -0.1705 -0.2719 -0.0547
 3736TIP3    H132767   5.147   2.425   8.134 -1.6557 -0.9854 -0.5104
 3736TIP3    H232768   5.096   2.527   8.035 -0.3494  0.2319  0.0443
 3737TIP3   OH232769   4.845   1.269   0.579 -0.0909 -0.4345  0.0062
 3737TIP3    H132770   4.822   1.318   0.658 -0.0474  0.2423 -0.3978
 3737TIP3    H232771   4.921   1.314   0.543 -0.5210 -0.3223 -0.7946
 3738TIP3   OH232772   4.316   3.284   8.469 -0.2486  0.2236 -0.2246
 3738TIP3    H132773   4.389   3.301   8.409 -2.1236 -1.4755 -3.2443
 3738TIP3    H232774   4.255   3.356   8.454 -0.7437 -0.2212 -0.3596
 3739TIP3   OH232775   4.004   3.453   6.220  0.3140 -0.3558 -0.0985
 3739TIP3    H132776   4.041   3.398   6.289  1.6801  0.6036 -0.0170
 3739TIP3    H232777   4.011   3.400   6.140 -0.7198 -1.2397  0.3792
 3740TIP3   OH232778   2.856   5.121   1.916 -0.7934 -0.4550  0.1119
 3740TIP3    H132779   2.891   5.181   1.982  1.2088  1.6348 -2.6079
 3740TIP3    H232780   2.780   5.081   1.958 -1.2514  2.7317  2.7382
 3741TIP3   OH232781   4.545   4.327   8.015 -0.6436 -0.1123 -0.5927
 3741TIP3    H132782   4.599   4.395   8.056 -1.5614  0.7237 -0.7227
 3741TIP3    H232783   4.529   4.264   8.085 -0.4853  0.2438 -0.2302
 3742TIP3   OH232784   2.140   4.346   6.721 -0.5351  0.3230 -0.0565
 3742TIP3    H132785   2.219   4.394   6.698 -0.1847 -0.8085 -1.3284
 3742TIP3    H232786   2.098   4.327   6.637 -0.9137 -1.1486  0.4340
 3743TIP3   OH232787   0.638   6.715   8.559  0.0265  0.1341 -0.1632
 3743TIP3    H132788   0.585   6.716   8.638  0.4910  2.0570  0.1636
 3743TIP3    H232789   0.626   6.626   8.524 -0.5809 -0.6116  1.7686
 3744TIP3   OH232790   6.767   4.315   1.200 -0.0034  0.2978 -0.2694
 3744TIP3    H132791   6.779   4.224   1.173  1.9340  0.5435 -0.3639
 3744TIP3    H232792   6.711   4.310   1.277  0.6672 -1.0362  0.1521
 3745TIP3   OH232793   5.144   1.019   0.839 -0.5303 -0.2698  0.7711
 3745TIP3    H132794   5.108   0.998   0.753 -0.9109  0.7091  0.6692
 3745TIP3    H232795   5.074   1.068   0.882  0.7874  2.0723  0.4081
 3746TIP3   OH232796   5.198   3.830   7.661  0.4789 -0.1292 -0.1229
 3746TIP3    H132797   5.123   3.826   7.721  0.3987 -2.6965 -0.2965
 3746TIP3    H232798   5.274   3.809   7.716  0.7067 -0.2295 -0.4729
 3747TIP3   OH232799   2.752   1.231   0.266  0.6714 -0.8777  0.3728
 3747TIP3    H132800   2.788   1.310   0.226  0.7773  0.8183  3.5438
 3747TIP3    H232801   2.664   1.256   0.293  0.5307 -2.0005  1.0043
 3748TIP3   OH232802   0.052   2.913   2.263  0.4920  0.2217  0.2502
 3748TIP3    H132803   0.003   2.990   2.233 -1.3489 -0.9812 -0.0208
 3748TIP3    H232804   0.116   2.948   2.325  0.3893  2.0745 -0.6335
 3749TIP3   OH232805   1.231   0.948   7.955  0.0753 -0.0379  0.6494
 3749TIP3    H132806   1.260   0.856   7.954  0.5752  0.0995 -1.2057
 3749TIP3    H232807   1.275   0.985   8.032  3.8760 -0.2062 -1.1893
 3750TIP3   OH232808   6.454   0.839   0.194  0.4018 -0.1594 -0.2022
 3750TIP3    H132809   6.450   0.747   0.167  1.0777  0.0523 -1.0667
 3750TIP3    H232810   6.471   0.835   0.288  0.5055 -0.9199 -0.2438
 3751TIP3   OH232811   0.346   1.005   2.385 -0.1947 -0.3899 -0.6861
 3751TIP3    H132812   0.312   1.071   2.445 -1.1220  0.2971 -1.9248
 3751TIP3    H232813   0.311   0.922   2.417  0.5432 -0.2371  0.5690
 3752TIP3   OH232814   2.684   5.387   7.851 -0.1667 -0.3473  0.1359
 3752TIP3    H132815   2.719   5.410   7.765  0.0024 -0.4099  0.1893
 3752TIP3    H232816   2.668   5.293   7.847  0.1571 -0.4076  0.2890
 3753TIP3   OH232817   2.835   6.110   0.261  0.5761 -0.4955 -0.1125
 3753TIP3    H132818   2.834   6.206   0.270 -3.4007 -0.4598  0.9118
 3753TIP3    H232819   2.825   6.095   0.167 -1.5896  0.2513 -0.0568
 3754TIP3   OH232820   5.102   4.296   1.343 -0.3964 -0.2823  1.4474
 3754TIP3    H132821   5.125   4.377   1.388  0.4995  0.3143  0.0227
 3754TIP3    H232822   5.185   4.249   1.336  1.0371  2.2250 -4.4441
 3755TIP3   OH232823   1.790   3.625   8.336  0.8002 -0.3215 -0.3549
 3755TIP3    H132824   1.783   3.543   8.287  0.4797 -0.5195  0.0163
 3755TIP3    H232825   1.856   3.608   8.403  0.1794 -0.5289  0.2104
 3756TIP3   OH232826   4.460   1.668   1.912 -0.0994  0.1968  0.2965
 3756TIP3    H132827   4.431   1.585   1.952 -0.1204 -0.1299 -0.3776
 3756TIP3    H232828   4.438   1.658   1.820  1.4208  0.2736 -0.1031
 3757TIP3   OH232829   1.766   6.149   7.111  0.2251 -1.1874 -0.3154
 3757TIP3    H132830   1.755   6.197   7.193  1.7418 -1.1205 -0.1359
 3757TIP3    H232831   1.809   6.211   7.052  0.0155 -1.5504 -0.8586
 3758TIP3   OH232832   6.433   5.433   7.691 -0.5098  0.2229  0.8123
 3758TIP3    H132833   6.346   5.428   7.650  0.3884 -0.7155 -1.0805
 3758TIP3    H232834   6.483   5.363   7.650  1.3061  1.0464  1.5277
 3759TIP3   OH232835   3.645   5.030   6.865 -0.5156 -0.1999 -0.5839
 3759TIP3    H132836   3.676   4.951   6.820 -2.8654 -1.8764  0.5354
 3759TIP3    H232837   3.708   5.098   6.840  0.2778 -1.8358 -3.5090
 3760TIP3   OH232838   3.056   0.523   1.799  0.5475 -0.0328 -0.1710
 3760TIP3    H132839   3.047   0.612   1.833  0.0137 -0.3537  0.5440
 3760TIP3    H232840   3.150   0.513   1.784  0.5211  0.9808 -1.1889
 3761TIP3   OH232841   2.067   3.409   7.415 -0.5507 -0.7012  0.3431
 3761TIP3    H132842   2.041   3.500   7.398 -1.9875 -1.0689  0.5033
 3761TIP3    H232843   2.120   3.385   7.339  3.1023  1.4112  1.9164
 3762TIP3   OH232844   2.264   1.231   8.299 -0.0937 -0.3546  0.0969
 3762TIP3    H132845   2.233   1.275   8.378  1.1432 -0.0811  0.4589
 3762TIP3    H232846   2.232   1.285   8.227 -1.8967 -1.0241  0.3408
 3763TIP3   OH232847   4.150   0.279   7.950 -0.1731  0.2411 -0.3216
 3763TIP3    H132848   4.220   0.336   7.918 -0.0080 -0.5071 -1.3213
 3763TIP3    H232849   4.176   0.256   8.038  2.3187 -2.2914 -1.5897
 3764TIP3   OH232850   5.254   1.625   0.056 -0.7114 -0.8282 -0.0056
 3764TIP3    H132851   5.168   1.624   0.015 -0.4358  0.2763 -0.6510
 3764TIP3    H232852   5.247   1.691   0.125  0.0092  0.3778 -1.0261
 3765TIP3   OH232853   3.302   2.194   0.531 -0.1447 -0.0534 -0.2004
 3765TIP3    H132854   3.394   2.166   0.524  0.2843  1.0837  0.5565
 3765TIP3    H232855   3.256   2.141   0.466  0.7417 -1.9174  0.6142
 3766TIP3   OH232856   3.985   4.203   6.525 -0.3794  0.1925 -0.5251
 3766TIP3    H132857   4.032   4.183   6.444 -1.1100 -0.3348 -0.8287
 3766TIP3    H232858   3.942   4.286   6.508 -0.4264  0.1465 -0.6299
 3767TIP3   OH232859   4.968   4.643   7.747  0.0758  0.0900  0.0354
 3767TIP3    H132860   4.981   4.668   7.838 -1.2449 -0.1380  0.3161
 3767TIP3    H232861   4.988   4.722   7.697 -0.4869  0.6177  0.6299
 3768TIP3   OH232862   6.681   3.106   7.723  0.5033  0.3551  0.0166
 3768TIP3    H132863   6.641   3.191   7.702  1.4880  1.2460  1.5575
 3768TIP3    H232864   6.611   3.057   7.765 -0.0109  0.4756 -0.6725
 3769TIP3   OH232865   2.093   4.295   0.054  0.5353  0.0605  0.0684
 3769TIP3    H132866   2.111   4.388   0.039 -0.0414  0.1212 -0.2860
 3769TIP3    H232867   2.152   4.249  -0.005  1.4799  0.1675  0.9078
 3770TIP3   OH232868   4.492   3.561   0.016  0.0638  0.6166 -0.4465
 3770TIP3    H132869   4.435   3.635  -0.006 -2.9528 -1.8540 -1.7306
 3770TIP3    H232870   4.461   3.530   0.101 -0.6800 -0.8361 -1.2102
 3771TIP3   OH232871   6.059   0.015   1.317 -1.3402  0.2552  0.0857
 3771TIP3    H132872   5.996  -0.043   1.360 -0.4101  0.1803  1.4471
 3771TIP3    H232873   6.119  -0.044   1.271 -1.3085  0.2193  0.1722
 3772TIP3   OH232874   1.884   6.124   0.945  0.1003 -0.3431  0.2071
 3772TIP3    H132875   1.938   6.115   1.024 -0.3449 -1.0571  0.4377
 3772TIP3    H232876   1.805   6.075   0.965 -0.0441 -0.4731 -0.6713
 3773TIP3   OH232877   6.302   2.730   7.730  0.4195  0.0248  0.4192
 3773TIP3    H132878   6.274   2.646   7.767 -0.8149  1.2146  2.3274
 3773TIP3    H232879   6.305   2.790   7.804 -0.5332  2.1427 -1.1410
 3774TIP3   OH232880   0.743   3.607   1.212 -0.2595  0.0915  0.0560
 3774TIP3    H132881   0.768   3.649   1.130 -1.8761 -0.1312 -0.5856
 3774TIP3    H232882   0.690   3.671   1.258 -3.1201 -1.2669 -1.1319
 3775TIP3   OH232883   0.128   1.815   7.063  0.9483  0.0816 -0.3125
 3775TIP3    H132884   0.197   1.753   7.090  0.6711 -0.6656 -1.2416
 3775TIP3    H232885   0.094   1.778   6.982 -0.2236  0.7077 -0.1230
 3776TIP3   OH232886   1.755   4.239   6.452  0.5227  0.0024 -0.0605
 3776TIP3    H132887   1.691   4.304   6.483 -0.2498 -0.0983 -1.3648
 3776TIP3    H232888   1.714   4.155   6.469  1.0088 -0.1221  0.5335
 3777TIP3   OH232889   5.885   5.396   2.111 -0.0508 -0.5927  0.0629
 3777TIP3    H132890   5.908   5.483   2.142 -0.2977 -0.9525  1.3484
 3777TIP3    H232891   5.956   5.371   2.052  1.1277 -0.3391  1.3199
 3778TIP3   OH232892   4.006   5.866   7.289 -0.2948  0.2532  0.9141
 3778TIP3    H132893   3.926   5.915   7.309  0.4367  1.4250  1.0761
 3778TIP3    H232894   3.988   5.824   7.205 -1.7192 -0.9688  1.7834
 3779TIP3   OH232895   6.282   4.106   2.263 -0.1054 -0.3388 -0.3125
 3779TIP3    H132896   6.244   4.090   2.177 -1.5067 -1.5389  0.4824
 3779TIP3    H232897   6.359   4.048   2.266 -1.7293 -2.6137  0.2814
 3780TIP3   OH232898   5.985   2.541   8.133  0.1794 -0.7617  0.1712
 3780TIP3    H132899   5.925   2.545   8.208  1.3090 -1.4819  1.1461
 3780TIP3    H232900   6.041   2.465   8.151  1.7868  0.2430 -0.3760
 3781TIP3   OH232901   2.029   1.519   1.735 -0.0675  0.6566  0.7682
 3781TIP3    H132902   2.104   1.483   1.781 -0.0766  0.1191  0.3766
 3781TIP3    H232903   2.042   1.494   1.643 -1.7766 -1.3639  0.9819
 3782TIP3   OH232904   1.243   0.251   7.267  0.0963  0.4508 -0.2422
 3782TIP3    H132905   1.172   0.279   7.209  0.4054  0.2197 -0.7368
 3782TIP3    H232906   1.311   0.219   7.208 -0.3044 -1.5198  0.2966
 3783TIP3   OH232907   2.710   2.046   7.566 -0.1863 -0.0035  0.3643
 3783TIP3    H132908   2.675   2.126   7.528  3.2060  0.4012 -2.3660
 3783TIP3    H232909   2.730   1.990   7.491  1.0261 -1.8623  1.9667
 3784TIP3   OH232910   2.122   6.702   8.240  0.1267 -0.4748  0.5130
 3784TIP3    H132911   2.117   6.611   8.271 -0.3109 -0.7734 -0.3889
 3784TIP3    H232912   2.136   6.694   8.146  1.1297  0.4081  0.5764
 3785TIP3   OH232913   0.682   2.519   1.350 -0.4775  0.1494 -0.3081
 3785TIP3    H132914   0.659   2.466   1.274  0.5915 -1.3122  0.3456
 3785TIP3    H232915   0.598   2.556   1.380 -0.9253  0.6616 -2.0983
 3786TIP3   OH232916   6.117   4.965   0.936 -0.7331 -0.1211 -0.2863
 3786TIP3    H132917   6.092   5.009   1.017 -1.0477 -0.3941 -0.2370
 3786TIP3    H232918   6.206   4.932   0.953 -1.1185 -0.9003  0.2404
 3787TIP3   OH232919   1.646   3.098   0.202  0.2087  0.0069 -0.0729
 3787TIP3    H132920   1.565   3.122   0.158  0.0721  0.5290  0.4375
 3787TIP3    H232921   1.622   3.092   0.295  0.3229 -1.7974 -0.1309
 3788TIP3   OH232922   1.815   5.668   0.118  0.1428  0.6820 -0.4063
 3788TIP3    H132923   1.832   5.751   0.075  1.3132 -0.0155 -1.3285
 3788TIP3    H232924   1.865   5.604   0.068 -1.9373 -0.8430 -0.6632
 3789TIP3   OH232925   3.119   4.152   7.952 -0.1600  0.1521  0.1967
 3789TIP3    H132926   3.170   4.232   7.961 -1.9368  1.4589 -0.8590
 3789TIP3    H232927   3.122   4.131   7.859 -2.1761  0.7412 -0.0479
 3790TIP3   OH232928   0.815   4.863   1.330  0.2605 -0.4590 -0.0410
 3790TIP3    H132929   0.835   4.773   1.356  0.1737  0.5813  4.5678
 3790TIP3    H232930   0.722   4.874   1.349  0.3969  0.7556  0.0250
 3791TIP3   OH232931   3.934   2.244   0.233  0.5610  0.3393 -0.2560
 3791TIP3    H132932   3.897   2.163   0.268 -0.2995  0.5525 -0.6525
 3791TIP3    H232933   3.926   2.236   0.138  3.5400 -0.5437 -0.5247
 3792TIP3   OH232934   5.181   3.005   7.319 -0.1903 -0.1231  0.2473
 3792TIP3    H132935   5.265   2.962   7.301  2.0049  3.8102 -0.0793
 3792TIP3    H232936   5.149   3.031   7.232 -1.7988 -1.5240  0.3769
 3793TIP3   OH232937   6.753   2.067   8.510 -0.0894  0.1577  0.0078
 3793TIP3    H132938   6.788   1.991   8.556 -0.9734  0.2334  0.8288
 3793TIP3    H232939   6.815   2.138   8.528  1.5671 -0.6846 -1.9991
 3794TIP3   OH232940   4.663   4.454   0.311  0.0020  0.3344  0.2725
 3794TIP3    H132941   4.690   4.398   0.385 -0.2432  0.6529  0.6085
 3794TIP3    H232942   4.728   4.524   0.309  0.4440 -0.0944 -0.2985
 3795TIP3   OH232943   2.112   4.489   1.555 -0.2627 -0.1826  0.0058
 3795TIP3    H132944   2.023   4.501   1.522 -0.3072 -1.2580 -0.3231
 3795TIP3    H232945   2.128   4.564   1.612 -1.6199 -0.3166  0.5791
 3796TIP3   OH232946   1.797   1.121   0.131  0.3884  0.3734 -0.1966
 3796TIP3    H132947   1.892   1.116   0.134  0.5141  2.4062  0.6358
 3796TIP3    H232948   1.767   1.058   0.197  1.2609  1.2479  1.0884
 3797TIP3   OH232949   4.314   4.716   1.467  0.0152 -0.3844  0.1712
 3797TIP3    H132950   4.350   4.778   1.531 -0.4119 -0.0142  0.0594
 3797TIP3    H232951   4.276   4.771   1.399  0.5487 -0.7765 -0.4586
 3798TIP3   OH232952   4.693   5.366   1.768  0.2824 -0.5845 -0.1501
 3798TIP3    H132953   4.712   5.454   1.734  0.3827 -1.0971 -1.5023
 3798TIP3    H232954   4.599   5.354   1.751  0.1344 -0.5161  0.5900
 3799TIP3   OH232955   1.928   4.155   7.347 -0.3513  0.5903  0.5372
 3799TIP3    H132956   1.874   4.230   7.319 -2.1058 -0.3375  1.2467
 3799TIP3    H232957   1.937   4.102   7.268 -0.7952  0.5896  0.4813
 3800TIP3   OH232958   4.374   3.198   7.365  0.1999  0.3561 -0.1403
 3800TIP3    H132959   4.311   3.162   7.428  0.9184 -0.5532  0.0815
 3800TIP3    H232960   4.330   3.275   7.329 -0.9195 -0.0861  0.2221
 3801TIP3   OH232961   1.985   3.062   6.343  0.2020  0.1774 -0.2807
 3801TIP3    H132962   2.079   3.062   6.326 -0.1932  0.4929 -2.8551
 3801TIP3    H232963   1.966   3.152   6.371  0.4468  0.6026 -1.4209
 3802TIP3   OH232964   0.746   5.126   1.528  0.5474 -0.5762 -0.4638
 3802TIP3    H132965   0.833   5.110   1.563  0.7652  0.4354 -0.5295
 3802TIP3    H232966   0.751   5.099   1.436  1.1617  0.6941 -0.8100
 3803TIP3   OH232967   6.662   1.380   1.615 -0.2670  0.4724 -0.3820
 3803TIP3    H132968   6.573   1.366   1.647  0.0488  0.2305  0.3941
 3803TIP3    H232969   6.673   1.315   1.546 -0.7502  0.6226 -0.6081
 3804TIP3   OH232970   6.093   4.983   1.841 -0.5629 -0.4307  0.2847
 3804TIP3    H132971   6.142   5.009   1.919 -1.4154 -0.4021  0.8217
 3804TIP3    H232972   6.100   5.058   1.782 -0.1870 -0.3258  0.4607
 3805TIP3   OH232973   3.474   2.118   6.605 -0.4994 -0.2648 -0.1816
 3805TIP3    H132974   3.430   2.189   6.652  0.0136  0.4311 -0.7290
 3805TIP3    H232975   3.548   2.161   6.561  1.2987 -1.5117  1.4355
 3806TIP3   OH232976   3.901   0.062   2.633  0.2364 -0.2089 -0.7370
 3806TIP3    H132977   3.826   0.017   2.670  0.9308 -0.3361  0.5644
 3806TIP3    H232978   3.967  -0.006   2.620  0.6639  0.1411 -0.4413
 3807TIP3   OH232979   1.216   5.097   7.076  0.3665 -0.0337  0.3223
 3807TIP3    H132980   1.202   5.113   6.983  0.1148  0.3091  0.4188
 3807TIP3    H232981   1.143   5.041   7.102  0.4264 -0.1139  0.3200
 3808TIP3   OH232982   5.716   5.786   0.243 -0.6950  0.3871 -0.2251
 3808TIP3    H132983   5.778   5.717   0.266  0.3963  1.4484  0.0737
 3808TIP3    H232984   5.635   5.739   0.223  0.0654 -0.9903 -0.1921
 3809TIP3   OH232985   4.590   2.675   7.902  0.0647 -0.0555 -0.5172
 3809TIP3    H132986   4.659   2.631   7.951 -0.8894 -0.3128  0.6402
 3809TIP3    H232987   4.564   2.610   7.836  0.3734 -0.2662 -0.4365
 3810TIP3   OH232988   3.947   2.478   0.384 -0.2889  0.3403 -0.1579
 3810TIP3    H132989   3.938   2.398   0.332 -0.9567 -0.0281  0.5188
 3810TIP3    H232990   4.030   2.466   0.430 -0.2221  0.1872 -0.3140
 3811TIP3   OH232991   4.415   2.358   0.304  0.0461  0.3423  0.1013
 3811TIP3    H132992   4.473   2.375   0.378  1.0246 -2.1921  0.0317
 3811TIP3    H232993   4.332   2.331   0.345  0.2157  0.0477  0.2516
 3812TIP3   OH232994   3.323   4.803   7.255  0.5825  0.7003  0.2037
 3812TIP3    H132995   3.377   4.824   7.179 -1.6908  0.9085 -1.4506
 3812TIP3    H232996   3.369   4.731   7.298  1.5160 -0.0288 -1.8768
 3813TIP3   OH232997   5.139   3.661   7.452 -0.0092  0.3933  0.2124
 3813TIP3    H132998   5.178   3.743   7.484  0.7613 -0.9934  3.1867
 3813TIP3    H232999   5.047   3.667   7.477 -0.5157  1.2757 -1.7052
 3814TIP3   OH233000   3.773   5.142   8.247 -0.3119  0.6765 -0.1282
 3814TIP3    H133001   3.711   5.127   8.319  0.3826 -1.0329  0.1792
 3814TIP3    H233002   3.731   5.102   8.171 -0.3809  1.1299 -0.3280
 3815TIP3   OH233003   4.887   0.869   7.669 -0.0644  0.0546  0.2469
 3815TIP3    H133004   4.817   0.864   7.604 -2.1016  0.3288  2.3144
 3815TIP3    H233005   4.881   0.958   7.703  0.9904 -0.0774  0.8096
 3816TIP3   OH233006   5.621   2.073   0.484 -0.6841  0.4173 -0.1451
 3816TIP3    H133007   5.551   2.109   0.539  0.8155  2.4327  0.5709
 3816TIP3    H233008   5.662   2.150   0.444  1.0736 -0.6995 -0.6108
 3817TIP3   OH233009   3.615   0.106   0.852  0.3512 -0.1872 -0.0692
 3817TIP3    H133010   3.569   0.038   0.900  0.1432 -1.8657 -2.4552
 3817TIP3    H233011   3.549   0.171   0.832 -0.5686 -1.5242 -1.6003
 3818TIP3   OH233012   2.399   4.854   1.739  0.3716  0.4657 -0.2704
 3818TIP3    H133013   2.358   4.905   1.809 -0.7659  0.3301 -0.8237
 3818TIP3    H233014   2.409   4.916   1.667  0.5287  0.3158 -0.3787
 3819TIP3   OH233015   1.483   1.275   8.252  0.0714  0.4356  0.0348
 3819TIP3    H133016   1.538   1.232   8.317  0.2732  2.0521  1.0026
 3819TIP3    H233017   1.532   1.354   8.228 -0.0548 -0.0431 -2.0250
 3820TIP3   OH233018   5.536   1.854   7.024 -0.3560  0.3657 -0.5618
 3820TIP3    H133019   5.447   1.890   7.028  0.4878  2.5177  0.5602
 3820TIP3    H233020   5.560   1.858   6.932 -1.1049  0.5890 -0.7552
 3821TIP3   OH233021   4.964   0.255   2.399 -0.2700  0.5875 -0.0814
 3821TIP3    H133022   5.054   0.252   2.367  0.2322  1.7227  1.1664
 3821TIP3    H233023   4.926   0.334   2.360 -0.1499  1.1037  0.8271
 3822TIP3   OH233024   2.609   4.716   1.693  0.0984  0.2832 -0.1527
 3822TIP3    H133025   2.670   4.714   1.767  0.8270  2.9810 -0.5786
 3822TIP3    H233026   2.530   4.759   1.728 -0.0330  0.4313 -0.6162
 3823TIP3   OH233027   3.893   2.423   1.199 -0.4568  0.0395  0.0436
 3823TIP3    H133028   3.937   2.338   1.210 -0.3992  0.1962  1.2381
 3823TIP3    H233029   3.816   2.404   1.146  0.7833 -0.3244 -1.7215
 3824TIP3   OH233030   3.884   3.499   1.234  0.7619 -0.1801 -0.0890
 3824TIP3    H133031   3.882   3.409   1.267 -1.5201 -0.2444 -0.2356
 3824TIP3    H233032   3.870   3.553   1.311 -0.3190 -0.1160 -0.3071
 3825TIP3   OH233033   0.483   5.425   1.656 -0.4982 -0.0928 -0.0892
 3825TIP3    H133034   0.403   5.372   1.652 -1.7395  1.7510 -1.0589
 3825TIP3    H233035   0.477   5.471   1.739 -0.1999 -0.3094  0.0521
 3826TIP3   OH233036   2.762   6.642   2.298  0.3502  0.5129 -0.7646
 3826TIP3    H133037   2.848   6.676   2.271  1.1342  0.1295  1.1085
 3826TIP3    H233038   2.715   6.719   2.330  0.2599  0.6005 -1.0976
 3827TIP3   OH233039   3.108   5.905   2.260  0.5258  0.2947  0.1285
 3827TIP3    H133040   3.055   5.867   2.190 -2.2828  3.5430  0.2304
 3827TIP3    H233041   3.077   5.863   2.340  1.2111 -0.8565 -0.1848
 3828TIP3   OH233042   6.572   4.606   8.011  0.1928 -0.4935  0.2234
 3828TIP3    H133043   6.577   4.528   7.956 -2.7048 -0.5762 -0.1059
 3828TIP3    H233044   6.573   4.679   7.949  1.7348 -0.2870  0.4540
 3829TIP3   OH233045   4.398   5.433   8.525  0.6653 -0.5734 -0.1175
 3829TIP3    H133046   4.326   5.459   8.582  1.0816  2.1051 -0.6997
 3829TIP3    H233047   4.361   5.365   8.469 -0.3728 -1.7136  1.8384
 3830TIP3   OH233048   1.202   4.880   6.848 -0.4217  0.1017 -0.1114
 3830TIP3    H133049   1.277   4.877   6.907 -0.2966 -1.0800 -0.3126
 3830TIP3    H233050   1.197   4.971   6.820 -0.1542  0.5670  1.2963
 3831TIP3   OH233051   6.197   6.515   0.330 -1.0372  0.1248  0.0563
 3831TIP3    H133052   6.273   6.469   0.293 -0.7815 -0.0769  0.8148
 3831TIP3    H233053   6.234   6.574   0.395 -1.4788  0.5212 -0.0468
 3832TIP3   OH233054   2.251   3.759   2.025  0.5155 -0.2226  0.3504
 3832TIP3    H133055   2.210   3.712   2.098 -1.5264  0.4604 -0.2883
 3832TIP3    H233056   2.277   3.843   2.062  2.0227 -0.9033  0.9192
 3833TIP3   OH233057   5.925   4.795   1.695 -0.6173 -0.3368 -0.3061
 3833TIP3    H133058   5.948   4.840   1.613 -2.9349  2.4071  0.3908
 3833TIP3    H233059   5.979   4.837   1.762  0.3809 -1.7220 -0.2088
 3834TIP3   OH233060   1.648   5.935   2.228 -0.3699 -0.2299  0.2156
 3834TIP3    H133061   1.648   6.023   2.265  0.1319  0.8196 -2.0814
 3834TIP3    H233062   1.569   5.894   2.263 -1.4036  1.6562  0.2169
 3835TIP3   OH233063   3.377   6.845   1.406  0.0967  0.4513 -0.2697
 3835TIP3    H133064   3.442   6.886   1.348  0.7808 -0.4603 -0.1637
 3835TIP3    H233065   3.293   6.873   1.370  0.5299  0.8563 -0.9979
 3836TIP3   OH233066   3.921   2.744   0.522 -0.0759 -0.3850 -0.0551
 3836TIP3    H133067   3.918   2.666   0.466  0.6223  0.7687 -1.7789
 3836TIP3    H233068   4.011   2.776   0.514 -0.4213  0.7559  0.4076
 3837TIP3   OH233069   5.595   3.267   7.856  0.0173 -0.4406  0.1635
 3837TIP3    H133070   5.511   3.287   7.897  0.2441 -0.8825  0.8729
 3837TIP3    H233071   5.590   3.306   7.769  0.2213  2.2009  1.2364
 3838TIP3   OH233072   0.223   4.827   2.160 -0.0569 -0.8532  0.4421
 3838TIP3    H133073   0.180   4.907   2.192  0.5451 -0.4605  0.2866
 3838TIP3    H233074   0.153   4.762   2.158 -0.5021 -0.3992  0.8172
 3839TIP3   OH233075   1.585   6.485   7.935 -0.0772  0.3342  0.0165
 3839TIP3    H133076   1.582   6.521   7.847 -0.8991  2.0761  0.7112
 3839TIP3    H233077   1.595   6.561   7.992 -1.6851 -0.5253  1.5541
 3840TIP3   OH233078   2.762   5.658   0.372 -0.2495 -0.1729  0.6749
 3840TIP3    H133079   2.683   5.712   0.372  0.1088  0.3610  0.3326
 3840TIP3    H233080   2.818   5.699   0.439  0.4698  0.5652 -0.3413
 3841TIP3   OH233081   0.457   6.536   7.766  0.1803 -0.1884 -0.2424
 3841TIP3    H133082   0.532   6.593   7.783 -0.0844 -0.1123  0.7431
 3841TIP3    H233083   0.433   6.554   7.675  0.3975  0.9264 -0.0922
 3842TIP3   OH233084   3.421   5.874   7.401  0.0458  0.2246  0.2378
 3842TIP3    H133085   3.415   5.968   7.388  2.0740  0.3052 -0.3721
 3842TIP3    H233086   3.387   5.836   7.320 -1.2069  0.3858  0.6626
 3843TIP3   OH233087   4.481   5.616   1.986  0.3499 -0.1864 -0.3063
 3843TIP3    H133088   4.416   5.602   1.918 -0.8645  0.2746  0.7141
 3843TIP3    H233089   4.528   5.694   1.959  0.9576 -0.8947 -1.3852
 3844TIP3   OH233090   0.100   6.259   2.289  0.1637  0.0690  0.4190
 3844TIP3    H133091   0.039   6.332   2.297  0.4750  0.2247  1.5987
 3844TIP3    H233092   0.046   6.181   2.297 -0.0282  0.1833  0.2509
 3845TIP3   OH233093   2.308   0.234   1.801 -0.0406 -0.9325 -0.3996
 3845TIP3    H133094   2.224   0.272   1.826  0.3450 -0.3203 -0.0043
 3845TIP3    H233095   2.322   0.164   1.865  0.4636 -0.0297  0.5078
 3846TIP3   OH233096   2.459   1.659   6.586  0.3103 -0.0771 -0.2590
 3846TIP3    H133097   2.514   1.714   6.530  0.0666  0.3682 -0.0735
 3846TIP3    H233098   2.390   1.627   6.528  0.1901  0.1941 -0.2700
 3847TIP3   OH233099   0.485   2.418   1.169 -0.0068  0.4760  0.1020
 3847TIP3    H133100   0.464   2.462   1.251 -0.0668 -0.7691  0.7758
 3847TIP3    H233101   0.460   2.327   1.183  2.3161 -0.3035 -0.3886
 3848TIP3   OH233102   5.539   0.413   1.218 -0.0497 -0.4605  0.0552
 3848TIP3    H133103   5.620   0.368   1.194  1.7103  2.0897  0.8804
 3848TIP3    H233104   5.547   0.500   1.179 -1.5323  0.4863  1.7271
 3849TIP3   OH233105   4.655   1.666   1.384  0.1029  0.3776  0.2293
 3849TIP3    H133106   4.708   1.691   1.309  0.0998  2.8833  0.9995
 3849TIP3    H233107   4.572   1.635   1.346  0.6625  0.1458 -0.8177
 3850TIP3   OH233108   5.933   0.954   8.508  0.0131 -0.1708 -0.1720
 3850TIP3    H133109   5.947   0.887   8.574  1.0761  0.2027  0.0062
 3850TIP3    H233110   6.021   0.979   8.480 -0.4041 -0.0683 -1.4800
 3851TIP3   OH233111   0.810   3.343   8.062  0.4516 -0.2626  0.5719
 3851TIP3    H133112   0.752   3.412   8.030  0.5912 -0.0540  0.7665
 3851TIP3    H233113   0.895   3.386   8.073  1.1050 -0.9607 -1.3660
 3852TIP3   OH233114   1.641   1.445   7.523  0.4978  0.5439 -0.1912
 3852TIP3    H133115   1.663   1.408   7.438  0.4138  0.5733 -0.2261
 3852TIP3    H233116   1.649   1.539   7.511 -1.4288  0.6827 -0.7297
 3853TIP3   OH233117   3.570   5.882   8.231 -0.0182  0.5697 -0.1195
 3853TIP3    H133118   3.508   5.813   8.253  0.4400  0.2348  0.1435
 3853TIP3    H233119   3.638   5.837   8.180  0.3328  0.8047  0.1358
 3854TIP3   OH233120   1.402   0.643   6.736  0.1769 -0.3322  0.2594
 3854TIP3    H133121   1.378   0.703   6.808  0.4462  0.5654 -0.3845
 3854TIP3    H233122   1.491   0.669   6.712  0.3867 -1.1580  0.1172
 3855TIP3   OH233123   0.023   3.232   8.131 -0.2272  0.0161  0.3925
 3855TIP3    H133124   0.064   3.149   8.106 -0.8219 -0.7231  1.7674
 3855TIP3    H233125  -0.070   3.219   8.113 -0.2081  0.7784 -0.3436
 3856TIP3   OH233126   1.956   6.074   2.165 -0.8645 -1.4423 -0.0140
 3856TIP3    H133127   1.974   6.086   2.258  0.6801  0.7412 -0.4972
 3856TIP3    H233128   2.026   6.016   2.134 -1.7646 -2.7105  0.2767
 3857TIP3   OH233129   0.465   1.770   6.932  0.1044  0.5500  0.5026
 3857TIP3    H133130   0.445   1.678   6.949  0.2608  0.6719  1.3709
 3857TIP3    H233131   0.504   1.802   7.013  0.6128  1.2290  0.0079
 3858TIP3   OH233132   3.800   2.527   7.744  0.4154  0.0564  0.1485
 3858TIP3    H133133   3.729   2.576   7.704  0.3806 -0.5470 -0.5399
 3858TIP3    H233134   3.767   2.437   7.751  0.3268  0.1849  1.7640
 3859TIP3   OH233135   3.349   3.767   6.597 -0.1352 -0.5482 -0.5131
 3859TIP3    H133136   3.414   3.754   6.527  0.3180 -1.1501  0.0131
 3859TIP3    H233137   3.380   3.845   6.643 -0.1263 -0.4723 -0.6468
 3860TIP3   OH233138   0.243   1.747   7.883 -0.2858 -0.3213  0.5227
 3860TIP3    H133139   0.230   1.829   7.931  1.1921 -0.3288  0.9870
 3860TIP3    H233140   0.224   1.679   7.946 -1.6879 -0.3541  0.0856
 3861TIP3   OH233141   4.439   0.334   8.176  0.2915 -0.2503 -0.0096
 3861TIP3    H133142   4.392   0.252   8.171 -0.3938  0.0904  0.7202
 3861TIP3    H233143   4.531   0.310   8.164  0.1570 -1.1904  0.7672
 3862TIP3   OH233144   3.364   0.434   0.580 -0.2555  0.5369  0.0390
 3862TIP3    H133145   3.366   0.343   0.549  3.2572  0.0538  1.3059
 3862TIP3    H233146   3.309   0.431   0.658 -0.9026 -0.2834 -0.4251
 3863TIP3   OH233147   6.246   3.002   0.024 -0.2244 -0.3994 -0.1420
 3863TIP3    H133148   6.181   3.008  -0.046 -1.1183  0.1768  0.7074
 3863TIP3    H233149   6.325   3.042  -0.013 -0.4241 -0.8552 -1.0925
 3864TIP3   OH233150   0.834   5.797   2.355  0.2868 -0.1340 -0.1930
 3864TIP3    H133151   0.897   5.843   2.409  0.2851 -0.7209  0.3144
 3864TIP3    H233152   0.790   5.737   2.414 -0.2835 -0.2104 -0.6786
 3865TIP3   OH233153   0.662   4.287   8.313 -0.2944  1.0101 -0.8246
 3865TIP3    H133154   0.714   4.225   8.261  1.6861  1.1887  0.8151
 3865TIP3    H233155   0.602   4.232   8.363  1.1340  0.3867  0.2737
 3866TIP3   OH233156   1.529   4.413   1.356  0.3152 -0.0826 -0.0741
 3866TIP3    H133157   1.465   4.467   1.403  0.2878  0.3567 -0.5919
 3866TIP3    H233158   1.528   4.449   1.267  0.7703 -0.5312 -0.2627
 3867TIP3   OH233159   4.913   0.895   0.146  0.0467  0.1793 -0.0137
 3867TIP3    H133160   4.962   0.834   0.202  1.1608  0.6720 -0.4178
 3867TIP3    H233161   4.906   0.849   0.062  0.1972  0.2791 -0.0820
 3868TIP3   OH233162   1.427   0.171   7.082  0.1329 -0.1536 -0.3897
 3868TIP3    H133163   1.390   0.187   6.995 -0.2761 -0.4382 -0.2731
 3868TIP3    H233164   1.444   0.077   7.084  0.7572 -0.0449 -0.3961
 3869TIP3   OH233165   4.655   6.858   2.077  0.3375  0.2961  0.0390
 3869TIP3    H133166   4.735   6.910   2.070 -0.4494  1.6479  0.5727
 3869TIP3    H233167   4.654   6.828   2.168 -0.1947  1.0525  0.2933
 3870TIP3   OH233168   0.739   6.141   6.986 -0.0227  0.1450 -0.6164
 3870TIP3    H133169   0.650   6.170   7.003  0.5720  1.2424  0.8508
 3870TIP3    H233170   0.794   6.215   7.014  1.3391 -0.4414 -1.6295
 3871TIP3   OH233171   3.013   4.448   8.014 -0.5938 -0.1977 -0.3757
 3871TIP3    H133172   3.092   4.394   8.018 -0.5965 -0.2547 -0.9239
 3871TIP3    H233173   3.042   4.536   8.037 -0.9008 -0.6946  2.2560
 3872TIP3   OH233174   0.700   2.096   8.137  0.1127 -0.0471  0.6256
 3872TIP3    H133175   0.694   2.145   8.220  2.3891  1.0827  0.2125
 3872TIP3    H233176   0.766   2.028   8.155 -0.7015 -0.9496  0.2437
 3873TIP3   OH233177   1.283   5.357   7.062 -0.2010  0.5292 -0.5751
 3873TIP3    H133178   1.212   5.396   7.012 -1.3538 -0.0030  0.6026
 3873TIP3    H233179   1.266   5.263   7.059  0.2890  0.4137 -0.0310
 3874TIP3   OH233180   4.187   1.969   0.340  0.0418  0.1263  0.3243
 3874TIP3    H133181   4.213   1.880   0.316  0.5633  0.0049  1.3011
 3874TIP3    H233182   4.183   2.016   0.257 -0.8781 -0.9628 -0.2789
 3875TIP3   OH233183   5.847   6.105   0.687 -0.2485  0.0727  0.7498
 3875TIP3    H133184   5.939   6.093   0.666 -0.4659  1.9197 -1.7183
 3875TIP3    H233185   5.801   6.043   0.630 -0.6145  1.4724 -0.5546
 3876TIP3   OH233186   5.621   5.882   1.035  0.2819  0.3761 -0.6232
 3876TIP3    H133187   5.705   5.867   0.992  0.0733 -0.4236 -0.7669
 3876TIP3    H233188   5.573   5.801   1.022 -0.3169  0.6389 -0.0858
 3877TIP3   OH233189   1.389   5.648   7.735  0.3697  0.7862 -0.5854
 3877TIP3    H133190   1.296   5.665   7.726 -0.0160 -0.9324 -0.2198
 3877TIP3    H233191   1.432   5.721   7.689 -1.1094  2.0570 -0.0115
 3878TIP3   OH233192   1.932   2.188   1.595 -0.0566 -0.0293  0.5422
 3878TIP3    H133193   1.909   2.256   1.532  1.0460 -0.3272 -0.2233
 3878TIP3    H233194   1.991   2.130   1.547  1.1081 -0.0733  1.9385
 3879TIP3   OH233195   1.248   3.123   0.538  0.3916  0.7062 -0.0100
 3879TIP3    H133196   1.324   3.065   0.546 -0.1246  0.1989  1.6824
 3879TIP3    H233197   1.239   3.163   0.625 -3.2629 -1.8616  1.0635
 3880TIP3   OH233198   4.030   2.177   7.516 -0.3090  0.3175  0.3036
 3880TIP3    H133199   4.020   2.118   7.591  0.0245  0.6151  0.5851
 3880TIP3    H233200   4.118   2.213   7.525  0.0530 -0.2951 -0.7081
 3881TIP3   OH233201   0.391   5.673   1.130  0.2741  0.2317  0.3776
 3881TIP3    H133202   0.434   5.752   1.099 -0.2479 -0.1137 -1.3389
 3881TIP3    H233203   0.411   5.670   1.224  3.9747  0.0662 -0.2598
 3882TIP3   OH233204   2.957   4.617   7.147 -0.2450 -0.6588  0.6283
 3882TIP3    H133205   2.885   4.679   7.157 -1.8588 -2.4035  0.3470
 3882TIP3    H233206   3.014   4.657   7.081 -1.2089  0.5222  0.4681
 3883TIP3   OH233207   4.686   1.239   1.037  0.1864  0.0159  0.5031
 3883TIP3    H133208   4.623   1.234   0.966 -1.0615 -1.5394  1.6363
 3883TIP3    H233209   4.689   1.150   1.072  1.9219  0.3883  1.4377
 3884TIP3   OH233210   6.432   0.518   1.399  0.1784 -0.3916 -0.3432
 3884TIP3    H133211   6.444   0.600   1.351  2.4482 -0.0763  0.6449
 3884TIP3    H233212   6.512   0.469   1.383 -0.2423 -1.5221  0.8150
 3885TIP3   OH233213   6.439   6.672   3.198 -0.1748  0.1366  0.2357
 3885TIP3    H133214   6.361   6.716   3.233  0.7216  1.6071  0.4659
 3885TIP3    H233215   6.404   6.601   3.144 -1.6488  0.2612  0.9739
 3886TIP3   OH233216   3.081   6.686   7.871  0.3662  0.7917 -0.2165
 3886TIP3    H133217   3.018   6.758   7.861 -0.7861 -0.2343 -0.5626
 3886TIP3    H233218   3.037   6.610   7.832  0.4132 -0.7460  2.4892
 3887TIP3   OH233219   5.402   3.127   7.086  0.0652 -0.4381 -0.1335
 3887TIP3    H133220   5.357   3.150   7.168 -0.2668 -0.2033 -0.3814
 3887TIP3    H233221   5.444   3.043   7.106  0.6493  0.0052  0.5311
 3888TIP3   OH233222   3.382   2.088   1.055  0.2989 -0.6570  0.2898
 3888TIP3    H133223   3.395   2.176   1.090 -1.5953  0.0721 -0.7077
 3888TIP3    H233224   3.470   2.050   1.051  1.4071  1.8852 -1.0746
 3889TIP3   OH233225   6.132   1.746   2.550 -0.4077  0.0111  0.5484
 3889TIP3    H133226   6.162   1.705   2.632 -1.6819  1.5182  1.8371
 3889TIP3    H233227   6.212   1.766   2.502  0.4252 -0.0130  1.8820
 3890TIP3   OH233228   2.850   4.084   7.969 -0.1522  0.3118  0.5780
 3890TIP3    H133229   2.943   4.105   7.973 -0.2094  0.4515  1.2036
 3890TIP3    H233230   2.820   4.125   7.888  0.5444 -0.6172 -0.1965
 3891TIP3   OH233231   4.530   4.660   1.965  0.1503  0.3514 -0.2084
 3891TIP3    H133232   4.611   4.695   2.001  1.6056 -2.5314 -0.4154
 3891TIP3    H233233   4.464   4.676   2.032  1.3976  0.7978  0.9295
 3892TIP3   OH233234   6.346   3.988   1.353  0.1326  0.0234  0.4059
 3892TIP3    H133235   6.410   4.023   1.291  1.0762  1.0445  1.9008
 3892TIP3    H233236   6.393   3.983   1.436 -1.5481  0.2083  1.4099
 3893TIP3   OH233237   2.709   4.801   1.425 -0.3200 -0.2040 -0.5126
 3893TIP3    H133238   2.762   4.722   1.411  0.5512  0.2050  0.4002
 3893TIP3    H233239   2.660   4.783   1.505  2.7626  1.6046  1.9979
 3894TIP3   OH233240   1.628   0.145   1.198 -0.9580 -0.2843 -0.3231
 3894TIP3    H133241   1.608   0.156   1.105 -2.0476 -0.1022 -0.0762
 3894TIP3    H233242   1.724   0.144   1.202 -0.9015 -0.1108 -1.4225
 3895TIP3   OH233243   1.334   2.944   1.858  0.7225  0.5277  0.7076
 3895TIP3    H133244   1.344   2.973   1.948  0.0894  1.2306  0.5650
 3895TIP3    H233245   1.345   2.849   1.862  1.7122  0.6548  1.3586
 3896TIP3   OH233246   1.931   2.529   0.862 -0.1304 -0.6170 -0.1042
 3896TIP3    H133247   1.973   2.596   0.808  0.6648  1.0158  2.3955
 3896TIP3    H233248   1.969   2.540   0.949 -2.9579 -1.6480  1.3804
 3897TIP3   OH233249   3.495   0.983   0.310 -0.2325 -0.2479 -0.6103
 3897TIP3    H133250   3.429   0.945   0.253 -1.4814  1.8730 -0.6636
 3897TIP3    H233251   3.525   1.061   0.264  0.6195  0.1094  0.4940
 3898TIP3   OH233252   2.456   1.911   8.257 -0.3650  0.4088  0.3081
 3898TIP3    H133253   2.366   1.941   8.241 -0.0326  2.4607  1.7817
 3898TIP3    H233254   2.493   1.900   8.169 -0.7423  4.0590 -0.5007
 3899TIP3   OH233255   2.459   5.541   0.321  0.4703 -0.4931  0.3154
 3899TIP3    H133256   2.433   5.605   0.255 -0.5428  0.2866  1.4080
 3899TIP3    H233257   2.549   5.517   0.298  0.0068 -0.5882 -1.5700
 3900TIP3   OH233258   6.145   3.637   0.397 -0.0616 -0.3490 -0.3645
 3900TIP3    H133259   6.206   3.703   0.363  0.3713 -1.5109 -1.9414
 3900TIP3    H233260   6.165   3.632   0.490 -0.5964  2.2392 -0.0295
 3901TIP3   OH233261   3.414   5.104   0.874  0.0639 -0.1911 -0.3260
 3901TIP3    H133262   3.334   5.155   0.860 -1.0361 -1.2929  1.4866
 3901TIP3    H233263   3.383   5.018   0.900  1.8664 -0.8690 -0.2900
 3902TIP3   OH233264   2.153   0.151   0.699  0.7952  0.0750 -0.2247
 3902TIP3    H133265   2.074   0.121   0.743  0.7624  2.2940  1.3671
 3902TIP3    H233266   2.178   0.231   0.745  2.5702  0.8008 -2.2619
 3903TIP3   OH233267   5.347   1.918   6.712 -0.0289  0.2095  0.3481
 3903TIP3    H133268   5.334   1.830   6.677 -1.0233  0.6912 -0.5334
 3903TIP3    H233269   5.442   1.931   6.709  0.2172 -1.1574  1.3493
 3904TIP3   OH233270   0.461   0.923   1.690 -0.5855 -0.0619 -0.0342
 3904TIP3    H133271   0.537   0.975   1.716 -1.1912  0.5766  0.5124
 3904TIP3    H233272   0.446   0.947   1.599  1.5817 -2.3521 -1.1178
 3905TIP3   OH233273   0.993   4.747   7.349  0.3090 -0.1956 -0.0456
 3905TIP3    H133274   1.060   4.699   7.299  0.0045 -0.5347 -0.1319
 3905TIP3    H233275   1.026   4.748   7.439  1.2431  1.0856 -0.3675
 3906TIP3   OH233276   1.823   5.222   0.856  0.1087  0.0376 -0.3420
 3906TIP3    H133277   1.811   5.249   0.947  2.9989  0.1595  0.0988
 3906TIP3    H233278   1.850   5.131   0.862  0.1895  0.0101 -1.0959
 3907TIP3   OH233279   6.089   6.545   1.654  0.6105 -0.1183 -0.2613
 3907TIP3    H133280   6.033   6.537   1.731 -0.0228  2.0823 -0.4450
 3907TIP3    H233281   6.132   6.629   1.663  1.4636 -0.3541 -1.7258
 3908TIP3   OH233282   6.290   5.301   1.020  0.5346 -0.8134 -0.7278
 3908TIP3    H133283   6.358   5.239   0.995  1.4916  0.3492 -1.0992
 3908TIP3    H233284   6.300   5.374   0.958 -0.1797 -0.0230  0.0617
 3909TIP3   OH233285   3.670   6.359   8.088 -0.2755 -0.1905  0.2456
 3909TIP3    H133286   3.760   6.353   8.119 -0.8783 -0.6739  2.0324
 3909TIP3    H233287   3.650   6.453   8.089  0.0832 -0.1145  0.2304
 3910TIP3   OH233288   6.867   2.388   1.751 -0.1361 -0.0050 -0.2433
 3910TIP3    H133289   6.814   2.315   1.782 -1.5494  0.5950 -1.1549
 3910TIP3    H233290   6.957   2.356   1.756 -0.3050 -0.3564  3.3040
 3911TIP3   OH233291   1.058   6.692   2.423 -0.1675  0.2436  0.4248
 3911TIP3    H133292   1.087   6.675   2.334 -1.5082  0.7121 -0.1348
 3911TIP3    H233293   1.043   6.605   2.461 -0.0004  0.0533  0.0539
 3912TIP3   OH233294   5.450   5.733   0.157 -0.3363 -0.1381 -0.0781
 3912TIP3    H133295   5.423   5.684   0.079 -0.0542 -0.8133  0.2437
 3912TIP3    H233296   5.445   5.825   0.130  0.8704 -0.3942 -1.2555
 3913TIP3   OH233297   1.337   1.048   8.184  0.1181  0.0225 -0.3992
 3913TIP3    H133298   1.398   0.977   8.205 -1.2768 -1.2146 -0.3964
 3913TIP3    H233299   1.390   1.127   8.190  1.9959 -1.0810 -1.5014
 3914TIP3   OH233300   2.489   3.559   7.357 -0.1776  0.0239  0.6339
 3914TIP3    H133301   2.468   3.466   7.353 -1.9958  0.1246  4.0299
 3914TIP3    H233302   2.569   3.564   7.409  1.3926  0.3283 -1.6687
 3915TIP3   OH233303   0.401   0.992   1.439  0.1400 -0.8883 -0.3503
 3915TIP3    H133304   0.345   0.966   1.366 -2.3738  1.8887  0.4162
 3915TIP3    H233305   0.453   1.065   1.404 -0.0460 -0.4744  0.2264
 3916TIP3   OH233306   2.837   3.295   0.979 -0.1508 -0.9491  0.3988
 3916TIP3    H133307   2.871   3.218   1.025 -0.5435 -1.5348 -0.2809
 3916TIP3    H233308   2.908   3.323   0.922 -0.0924 -0.9403  0.4752
 3917TIP3   OH233309   0.817   4.647   7.564 -0.7571 -0.2761  0.2461
 3917TIP3    H133310   0.743   4.708   7.565 -1.3372 -0.6616 -3.5976
 3917TIP3    H233311   0.890   4.698   7.599 -2.1207  1.2346  1.0315
 3918TIP3   OH233312   6.414   5.011   8.347 -0.0161  1.1270  0.1554
 3918TIP3    H133313   6.435   4.935   8.402  2.0889 -0.7238 -2.9357
 3918TIP3    H233314   6.420   5.085   8.407  2.0285 -0.7375  2.4876
 3919TIP3   OH233315   6.060   2.133   6.768  0.0839  0.0938  0.3427
 3919TIP3    H133316   5.973   2.099   6.748  0.0117 -0.3013  1.2711
 3919TIP3    H233317   6.075   2.201   6.702 -1.0511  0.3677  0.3435
 3920TIP3   OH233318   0.318   1.602   7.094  0.1534 -0.6342 -0.3101
 3920TIP3    H133319   0.272   1.554   7.026  1.3305 -0.4598 -1.2540
 3920TIP3    H233320   0.340   1.535   7.159  2.5725 -1.6548 -2.0304
 3921TIP3   OH233321   1.360   3.033   1.328  0.6666  0.4849 -0.0546
 3921TIP3    H133322   1.401   3.015   1.244 -0.6029  1.8217 -1.0067
 3921TIP3    H233323   1.294   2.965   1.338  0.7098  0.4193 -0.2087
 3922TIP3   OH233324   0.603   0.795   7.427  0.2768  0.4383 -0.3022
 3922TIP3    H133325   0.601   0.722   7.364  2.9061 -0.3743  0.4113
 3922TIP3    H233326   0.640   0.868   7.377  0.9769  0.2194 -0.1193
 3923TIP3   OH233327   1.547   2.512   0.689 -0.9282 -0.1548  0.0502
 3923TIP3    H133328   1.610   2.439   0.693 -0.7379 -0.1407 -1.8606
 3923TIP3    H233329   1.479   2.481   0.629 -1.9779  0.4308  0.9118
 3924TIP3   OH233330   5.888   5.587   2.671  0.0490  0.5284 -0.7174
 3924TIP3    H133331   5.857   5.502   2.641  0.9055 -0.8479  1.9721
 3924TIP3    H233332   5.809   5.640   2.681 -0.8801 -0.9711  0.3722
 3925TIP3   OH233333   5.085   5.022   7.245  0.0376  0.6049  0.0417
 3925TIP3    H133334   5.036   4.940   7.249  1.2247 -0.1555 -0.4627
 3925TIP3    H233335   5.028   5.082   7.197 -0.4298 -0.2466 -0.4986
 3926TIP3   OH233336   6.379   4.269   0.395 -0.3397  0.2524 -0.0888
 3926TIP3    H133337   6.405   4.299   0.308  0.1560 -3.1785 -1.2891
 3926TIP3    H233338   6.284   4.268   0.393 -0.3310  0.2298 -0.5717
 3927TIP3   OH233339   2.282   4.189   6.914 -0.2830 -0.0503 -0.4379
 3927TIP3    H133340   2.306   4.098   6.895 -2.1207 -0.9201  1.1914
 3927TIP3    H233341   2.246   4.221   6.831  2.4218  0.0218 -1.7357
 3928TIP3   OH233342   1.031   0.323   7.073  0.1401  0.0070  0.0739
 3928TIP3    H133343   0.985   0.297   6.993  1.0502 -1.3213 -0.0453
 3928TIP3    H233344   0.998   0.411   7.092 -0.0924  0.3547 -1.7586
 3929TIP3   OH233345   2.685   5.504   0.081 -0.1756  0.2736 -0.5231
 3929TIP3    H133346   2.759   5.556   0.114  0.9429 -0.9433 -1.0212
 3929TIP3    H233347   2.692   5.420   0.128 -0.6022 -0.2459 -1.3682
 3930TIP3   OH233348   3.486   6.445   6.926 -0.2214  0.3589 -0.2455
 3930TIP3    H133349   3.398   6.464   6.958 -0.0979  0.7161 -0.1073
 3930TIP3    H233350   3.483   6.469   6.834 -0.1961  0.6151 -0.1796
 3931TIP3   OH233351   1.996   6.726   1.539  0.2078  0.1600  0.4455
 3931TIP3    H133352   2.063   6.657   1.543 -0.0194  0.0141  2.0931
 3931TIP3    H233353   1.914   6.681   1.558 -0.0643  0.7252  0.6263
 3932TIP3   OH233354   1.645   1.458   7.968  0.4528  0.2008  0.3184
 3932TIP3    H133355   1.606   1.478   8.053  1.3785 -0.0560  0.8166
 3932TIP3    H233356   1.693   1.377   7.982  0.4850  0.0630 -0.5004
 3933TIP3   OH233357   0.492   5.099   7.923 -0.1391  0.1487 -0.2373
 3933TIP3    H133358   0.408   5.136   7.950 -0.3241  1.1774 -2.0591
 3933TIP3    H233359   0.553   5.124   7.993 -1.0981  0.4146  0.5218
 3934TIP3   OH233360   5.601   1.941   1.348 -0.4010  0.3624  0.2769
 3934TIP3    H133361   5.537   1.963   1.415 -1.2549 -0.3037 -0.2812
 3934TIP3    H233362   5.572   1.855   1.315  0.3073  0.4254 -0.5497
 3935TIP3   OH233363   2.760   5.521   1.806 -0.1097  0.5395 -0.4083
 3935TIP3    H133364   2.700   5.452   1.835 -0.7826  0.7619 -1.2375
 3935TIP3    H233365   2.730   5.543   1.717  1.2463  0.5961 -0.8772
 3936TIP3   OH233366   6.173   5.431   0.431 -0.1414 -0.1377 -0.2184
 3936TIP3    H133367   6.166   5.451   0.524 -0.7332  1.7482 -0.6254
 3936TIP3    H233368   6.255   5.473   0.404 -0.8056  0.7776 -0.8627
 3937TIP3   OH233369   1.543   5.990   7.103 -0.6075  0.0132 -0.6537
 3937TIP3    H133370   1.625   6.039   7.104  0.3363 -1.4700  0.8711
 3937TIP3    H233371   1.551   5.931   7.028  0.6916 -1.5194  0.5948
 3938TIP3   OH233372   3.543   4.727   0.458 -0.4341  0.3623 -0.0143
 3938TIP3    H133373   3.453   4.735   0.427 -0.0163 -1.4088 -1.8579
 3938TIP3    H233374   3.595   4.782   0.400  0.1059 -1.4935 -1.3752
 3939TIP3   OH233375   4.823   3.014   8.556  0.2830 -0.2246 -0.1110
 3939TIP3    H133376   4.917   3.015   8.540  0.0858  1.0213 -1.4212
 3939TIP3    H233377   4.814   3.039   8.648  1.2255 -0.5556  0.0832
 3940TIP3   OH233378   3.341   4.263   7.507 -0.0584  0.3622 -0.0051
 3940TIP3    H133379   3.360   4.201   7.577 -1.4281 -0.2715 -0.1714
 3940TIP3    H233380   3.339   4.211   7.427 -0.8417  0.6751 -0.1982
 3941TIP3   OH233381   0.372   3.900   1.849  0.5022  0.3728  0.1238
 3941TIP3    H133382   0.421   3.874   1.927  0.1811  0.8428  0.4925
 3941TIP3    H233383   0.293   3.845   1.851 -0.9421  2.3290  1.7537
 3942TIP3   OH233384   3.028   2.579   8.210 -0.6721 -0.0154 -0.0375
 3942TIP3    H133385   2.977   2.600   8.288 -0.3431 -0.1352  0.2125
 3942TIP3    H233386   3.063   2.663   8.180  0.5834 -0.1635  0.9208
 3943TIP3   OH233387   4.805   0.946   8.273 -0.0108  0.1253  0.1667
 3943TIP3    H133388   4.745   0.990   8.213 -0.1622  1.3026  1.1362
 3943TIP3    H233389   4.868   0.903   8.216  0.1148  1.5808 -0.8590
 3944TIP3   OH233390   0.272   5.179   2.092 -0.5880 -0.0476  0.4446
 3944TIP3    H133391   0.215   5.246   2.055 -0.3956  0.5462  1.1803
 3944TIP3    H233392   0.239   5.166   2.181  0.0770 -0.0965  0.6941
 3945TIP3   OH233393   6.754   3.516   8.242 -0.5667  0.4963  0.3188
 3945TIP3    H133394   6.676   3.572   8.241 -0.3466  0.8070 -0.6418
 3945TIP3    H233395   6.731   3.442   8.185 -0.1465  0.6125 -0.0052
 3946TIP3   OH233396   6.100   1.858   0.168  0.3867 -0.0786 -0.5541
 3946TIP3    H133397   6.153   1.938   0.156 -0.4316  0.5137 -0.2676
 3946TIP3    H233398   6.164   1.787   0.161  0.8434  0.4726 -2.9204
 3947TIP3   OH233399   2.830   1.374   7.555 -0.2028 -0.2283  0.5001
 3947TIP3    H133400   2.858   1.394   7.466 -1.5979 -0.5626 -0.0394
 3947TIP3    H233401   2.904   1.325   7.593  0.3583 -0.1819 -0.5046
 3948TIP3   OH233402   4.214   5.649   8.411 -0.1473 -0.4560 -0.5835
 3948TIP3    H133403   4.194   5.597   8.489  1.2429 -0.3795 -0.1460
 3948TIP3    H233404   4.229   5.738   8.445 -0.2674 -0.2601 -1.0383
 3949TIP3   OH233405   6.183   1.991   1.483  0.0475  0.0336 -0.0624
 3949TIP3    H133406   6.162   2.030   1.568 -1.5638 -0.8638 -0.0111
 3949TIP3    H233407   6.163   1.898   1.493  0.8572 -0.2811 -1.1133
 3950TIP3   OH233408   2.679   0.800   7.571 -0.1826  0.3676  0.3474
 3950TIP3    H133409   2.676   0.719   7.521  2.0695 -0.4033  1.2968
 3950TIP3    H233410   2.595   0.804   7.616 -0.9102 -0.6511 -0.8666
 3951TIP3   OH233411   1.823   6.368   2.201 -0.7034  0.0935  0.0102
 3951TIP3    H133412   1.821   6.307   2.127 -0.0462  2.6539 -2.2735
 3951TIP3    H233413   1.784   6.319   2.273 -0.2253 -2.9859 -1.6459
 3952TIP3   OH233414   2.554   3.777   0.942 -0.0735 -0.5463  0.6528
 3952TIP3    H133415   2.616   3.711   0.913  0.6754 -0.2506  1.5018
 3952TIP3    H233416   2.542   3.834   0.866  2.5309  0.7425  1.0930
 3953TIP3   OH233417   1.554   4.066   0.566  0.3667 -0.0854  0.2446
 3953TIP3    H133418   1.644   4.042   0.544  0.5685  1.3696 -0.6416
 3953TIP3    H233419   1.546   4.048   0.660  1.5479 -0.2971  0.3113
 3954TIP3   OH233420   5.449   4.292   0.595 -0.0025  0.9623 -0.1134
 3954TIP3    H133421   5.410   4.370   0.554 -3.6335 -0.8543 -0.4677
 3954TIP3    H233422   5.534   4.283   0.551  0.5592  4.5738 -0.1206
 3955TIP3   OH233423   1.667   5.313   2.835  0.4896  0.1369  0.1107
 3955TIP3    H133424   1.618   5.331   2.916  1.3597 -0.7775  0.8774
 3955TIP3    H233425   1.642   5.384   2.776 -1.9597 -0.4373  0.3434
 3956TIP3   OH233426   4.071   6.156   2.373  0.3028 -0.2697  0.1182
 3956TIP3    H133427   4.014   6.233   2.375  1.5343  0.7263 -0.6702
 3956TIP3    H233428   4.123   6.162   2.453  1.1824  0.3940 -0.4744
 3957TIP3   OH233429   3.694   1.836   8.372  0.0960 -0.5887  0.3612
 3957TIP3    H133430   3.685   1.741   8.380 -1.1132 -0.6147 -0.9279
 3957TIP3    H233431   3.617   1.864   8.324  1.0456  0.9033 -0.3950
 3958TIP3   OH233432   0.081   6.555   1.055 -0.2522  0.1849  0.4431
 3958TIP3    H133433   0.086   6.520   0.966 -0.9455  0.1455  0.4169
 3958TIP3    H233434   0.118   6.486   1.110  0.4919  0.3441  0.1572
 3959TIP3   OH233435   0.946   0.736   0.674  0.3848 -0.4534 -0.2283
 3959TIP3    H133436   0.900   0.755   0.756 -0.8971 -0.4263 -0.9188
 3959TIP3    H233437   0.924   0.809   0.616  1.0062 -0.6304 -0.7006
 3960TIP3   OH233438   5.388   1.164   0.632  0.1505  0.6093  0.2550
 3960TIP3    H133439   5.458   1.144   0.571 -0.6531  1.0847 -0.8475
 3960TIP3    H233440   5.334   1.229   0.587 -0.2125  1.3050  1.6467
 3961TIP3   OH233441   5.285   3.734   7.072 -0.2056  0.2849  0.4697
 3961TIP3    H133442   5.261   3.822   7.099  2.0369  0.6977  1.3097
 3961TIP3    H233443   5.278   3.735   6.976  0.9736  1.7830  0.3741
 3962TIP3   OH233444   2.380   1.836   2.122  0.1021  0.1811 -0.2306
 3962TIP3    H133445   2.406   1.890   2.197  0.7439 -1.9172  1.1602
 3962TIP3    H233446   2.312   1.887   2.078  0.4702  1.9655  1.1504
 3963TIP3   OH233447   3.097   1.171   2.714 -0.0177 -0.5219  0.6125
 3963TIP3    H133448   3.124   1.235   2.647  1.4550 -1.7872 -0.0720
 3963TIP3    H233449   3.013   1.139   2.683  0.4867 -0.8375 -0.4848
 3964TIP3   OH233450   3.894   1.546   7.371  0.2280 -0.8988  0.5335
 3964TIP3    H133451   3.978   1.508   7.395  1.0267  0.7397  0.4608
 3964TIP3    H233452   3.886   1.623   7.426 -0.5687 -0.2462 -0.4570
 3965TIP3   OH233453   5.731   3.095   1.070 -0.0761 -0.5390 -0.4561
 3965TIP3    H133454   5.681   3.145   1.134  0.2463 -2.7827  1.6891
 3965TIP3    H233455   5.819   3.091   1.105  0.4319 -0.7623 -1.7111
 3966TIP3   OH233456   4.455   6.586   7.718  0.3297 -0.3364 -0.2447
 3966TIP3    H133457   4.533   6.541   7.750  0.5505 -0.3913 -0.8361
 3966TIP3    H233458   4.382   6.536   7.753  0.5726 -0.9873 -0.6426
 3967TIP3   OH233459   0.433   1.695   7.684  0.8183 -0.1036  0.3299
 3967TIP3    H133460   0.413   1.604   7.661 -0.2585  0.4712 -1.1970
 3967TIP3    H233461   0.374   1.715   7.757  0.6255 -0.4469  0.2692
 3968TIP3   OH233462   1.262   6.513   0.566 -0.0995 -0.7208 -0.3105
 3968TIP3    H133463   1.294   6.532   0.654 -0.4654 -1.8311  0.0802
 3968TIP3    H233464   1.260   6.417   0.562 -1.8261 -0.6885 -0.8770
 3969TIP3   OH233465   0.079   2.286   0.147  0.3415  0.3053 -0.2058
 3969TIP3    H133466   0.116   2.271   0.060  0.8424 -2.3325  0.3617
 3969TIP3    H233467   0.114   2.370   0.174  1.4717  0.4349 -1.9149
 3970TIP3   OH233468   0.263   3.718   1.576  0.4336  0.2720  0.1559
 3970TIP3    H133469   0.274   3.663   1.499  0.8177 -0.6742  0.8596
 3970TIP3    H233470   0.255   3.807   1.542  1.7498  0.0145 -0.9157
 3971TIP3   OH233471   6.751   4.376   0.077  0.2345 -0.2849  0.1912
 3971TIP3    H133472   6.749   4.338  -0.010  0.8834 -2.3352  1.0103
 3971TIP3    H233473   6.840   4.359   0.109 -0.4394 -1.0514  1.8295
 3972TIP3   OH233474   3.509   0.530   1.484 -0.0176  0.2794  0.2367
 3972TIP3    H133475   3.546   0.566   1.565  0.7177  3.1389 -1.2171
 3972TIP3    H233476   3.435   0.477   1.513  2.0551 -1.4315  2.9326
 3973TIP3   OH233477   3.509   1.299   7.642  0.3850  0.3751 -0.0212
 3973TIP3    H133478   3.457   1.307   7.562 -0.4871 -1.0033  0.3802
 3973TIP3    H233479   3.556   1.382   7.648 -1.0787  1.3074 -0.8820
 3974TIP3   OH233480   2.845   5.276   1.631 -0.4118  0.5860 -0.6450
 3974TIP3    H133481   2.810   5.260   1.719 -1.2116 -0.2207 -1.0993
 3974TIP3    H233482   2.929   5.320   1.647 -0.4838  0.3365  0.5288
 3975TIP3   OH233483   6.501   6.202   3.377 -0.1948 -0.4230 -0.0995
 3975TIP3    H133484   6.414   6.189   3.415  0.1292  0.1936  0.8923
 3975TIP3    H233485   6.513   6.126   3.320 -1.3442 -0.5547 -0.2015
 3976TIP3   OH233486   6.171   5.715   0.092  0.4528 -0.1857  0.9954
 3976TIP3    H133487   6.213   5.742   0.011  1.2548 -1.2337  1.0359
 3976TIP3    H233488   6.220   5.760   0.161  1.1628 -0.9778  1.0120
 3977TIP3   OH233489   0.964   1.291   6.894  1.0958 -0.2633  0.1906
 3977TIP3    H133490   0.895   1.356   6.898  2.0227  0.7177  0.5902
 3977TIP3    H233491   0.989   1.289   6.801 -0.0230 -1.2493 -0.1153
 3978TIP3   OH233492   0.180   1.645   1.675 -0.0784 -0.1708 -0.2308
 3978TIP3    H133493   0.190   1.735   1.706  0.4592  0.1211 -1.2197
 3978TIP3    H233494   0.238   1.593   1.731 -0.9079 -0.0262  0.7994
 3979TIP3   OH233495   3.445   6.179   6.718 -0.1375 -0.0822 -0.2164
 3979TIP3    H133496   3.495   6.100   6.699  0.5328  0.0341  0.9325
 3979TIP3    H233497   3.511   6.249   6.716 -0.3813  0.1811  0.5349
 3980TIP3   OH233498   3.116   2.440   0.635 -0.2776  0.0012 -0.3180
 3980TIP3    H133499   3.155   2.392   0.561  0.0626  0.5115 -0.4735
 3980TIP3    H233500   3.173   2.420   0.708 -0.4959 -0.3369 -0.2385
 3981TIP3   OH233501   0.349   1.374   1.183  0.1043  0.1111 -0.5433
 3981TIP3    H133502   0.389   1.384   1.269 -1.0218  0.0377  0.0020
 3981TIP3    H233503   0.420   1.391   1.121  1.2920 -1.2441  0.3791
 3982TIP3   OH233504   2.306   1.426   2.334  0.1542 -0.2431  0.2369
 3982TIP3    H133505   2.365   1.352   2.346 -0.1437 -0.6462 -0.6779
 3982TIP3    H233506   2.326   1.485   2.407 -0.7722 -1.9866  2.0042
 3983TIP3   OH233507   3.689   6.545   7.092  0.5096 -0.0226 -0.0915
 3983TIP3    H133508   3.628   6.492   7.041 -0.1841  0.0179  0.6687
 3983TIP3    H233509   3.676   6.515   7.182  1.3472  0.2555  0.1307
 3984TIP3   OH233510   0.577   6.095   3.138  0.1270  0.1659 -0.5615
 3984TIP3    H133511   0.632   6.017   3.152  0.1137  0.4361  1.1524
 3984TIP3    H233512   0.579   6.141   3.221 -3.9568 -0.5961  0.1797
 3985TIP3   OH233513   3.518   2.699   2.591  0.6178  0.1811 -0.4450
 3985TIP3    H133514   3.448   2.733   2.536  0.9938 -0.1129 -1.1202
 3985TIP3    H233515   3.599   2.731   2.550  0.9557 -0.9807 -0.7360
 3986TIP3   OH233516   0.703   6.448   0.217 -0.1076  0.2540  0.2320
 3986TIP3    H133517   0.678   6.373   0.164  0.6349 -0.4660  0.8872
 3986TIP3    H233518   0.745   6.411   0.294 -0.7161  1.3035  1.0982
 3987TIP3   OH233519   4.995   3.472   1.988 -0.7401 -0.3006 -0.1662
 3987TIP3    H133520   4.972   3.382   2.010 -0.8987 -0.1325  0.3687
 3987TIP3    H233521   4.937   3.495   1.915 -1.9381 -0.0520  0.8247
 3988TIP3   OH233522   4.645   2.152   0.537 -0.2397 -0.2056 -0.0830
 3988TIP3    H133523   4.662   2.157   0.443 -1.5302  2.4357 -0.2733
 3988TIP3    H233524   4.560   2.109   0.545 -0.8888  0.9874 -0.2915
 3989TIP3   OH233525   3.628   5.795   1.178 -0.1868 -0.7753 -0.2093
 3989TIP3    H133526   3.682   5.738   1.123 -2.7823 -3.5767 -0.1515
 3989TIP3    H233527   3.617   5.745   1.260 -0.9184  0.7670  0.6758
 3990TIP3   OH233528   5.566   5.037   0.601 -0.0916  0.4174 -0.2919
 3990TIP3    H133529   5.471   5.033   0.589 -0.6258 -0.3850  3.1865
 3990TIP3    H233530   5.595   4.946   0.594  0.0723  0.3824  0.7505
 3991TIP3   OH233531   6.038   5.560   0.689  0.2086 -0.1769 -0.3716
 3991TIP3    H133532   6.000   5.533   0.773  2.1013  1.7783  1.2350
 3991TIP3    H233533   5.983   5.518   0.623  0.0601 -3.7862  1.8075
 3992TIP3   OH233534   4.857   1.980   7.691  0.4293 -0.0233 -0.2426
 3992TIP3    H133535   4.904   1.938   7.763  1.6758  0.5650 -0.6844
 3992TIP3    H233536   4.874   2.074   7.704  0.4085  0.1063 -1.1104
 3993TIP3   OH233537   4.068   5.245   1.532  0.7869  0.4481 -0.4060
 3993TIP3    H133538   4.021   5.242   1.616  1.9054 -1.4949  0.2186
 3993TIP3    H233539   3.999   5.241   1.466 -0.0470  0.4020  0.4419
 3994TIP3   OH233540   3.315   2.576   0.245 -0.4498  0.2176 -0.1537
 3994TIP3    H133541   3.322   2.592   0.151 -0.0703  0.9963 -0.0010
 3994TIP3    H233542   3.381   2.633   0.284 -0.8831  0.2100  0.6137
 3995TIP3   OH233543   1.839   4.797   7.781 -0.0878 -0.1092  0.1796
 3995TIP3    H133544   1.821   4.868   7.720  0.8526  0.2412  0.2870
 3995TIP3    H233545   1.924   4.763   7.754  0.2769 -0.0512  1.1977
 3996TIP3   OH233546   1.516   2.840   8.512 -0.0554  0.6217  0.5700
 3996TIP3    H133547   1.479   2.869   8.596 -0.1840  0.8489  0.4363
 3996TIP3    H233548   1.457   2.877   8.447 -0.5069 -0.3534  0.4124
 3997TIP3   OH233549   0.330   5.454   2.276  0.6327 -0.4024 -0.9560
 3997TIP3    H133550   0.239   5.480   2.291  1.1790  0.8517  0.4656
 3997TIP3    H233551   0.352   5.398   2.350  1.5226  0.7473 -0.3187
 3998TIP3   OH233552   3.772   3.008   8.500 -0.5895 -0.0099 -0.4413
 3998TIP3    H133553   3.822   3.053   8.432  0.5354  0.0072  0.3578
 3998TIP3    H233554   3.729   3.078   8.549 -0.6781  0.0398 -0.5913
 3999TIP3   OH233555   2.051   6.369   7.195 -0.7340  0.0968 -0.4765
 3999TIP3    H133556   1.969   6.419   7.195 -0.4503  0.5705 -0.5813
 3999TIP3    H233557   2.033   6.292   7.249 -1.4068 -0.0649 -0.9152
 4000TIP3   OH233558   4.217   5.768   2.050 -0.4009 -0.6565  0.4918
 4000TIP3    H133559   4.295   5.782   2.102 -0.6952 -0.8474  0.9901
 4000TIP3    H233560   4.173   5.694   2.091 -0.2641 -1.2915 -0.4622
 4001TIP3   OH233561   5.403   1.306   0.900 -0.0669  0.2600  0.3861
 4001TIP3    H133562   5.385   1.253   0.823 -2.6584 -0.8338  1.6293
 4001TIP3    H233563   5.365   1.257   0.973  1.9513  1.4143  2.3629
 4002TIP3   OH233564   2.799   4.049   8.230 -0.4919 -0.2270  0.0609
 4002TIP3    H133565   2.704   4.038   8.241 -0.2931 -2.8403  0.0146
 4002TIP3    H233566   2.811   4.058   8.135 -0.7905  2.1259  0.2053
 4003TIP3   OH233567   5.033   4.679   8.321 -0.0140 -0.4974  0.3204
 4003TIP3    H133568   5.063   4.677   8.412  0.7730 -2.0779  0.0567
 4003TIP3    H233569   4.967   4.610   8.315 -0.5173  0.0128 -0.1683
 4004TIP3   OH233570   3.637   5.962   7.121  0.3899  0.0148  0.5209
 4004TIP3    H133571   3.594   5.877   7.131 -1.0230  0.4387 -1.2777
 4004TIP3    H233572   3.596   6.017   7.188 -0.9138  0.0218 -0.2381
 4005TIP3   OH233573   3.615   0.156   7.564  0.2379  0.0408  0.3218
 4005TIP3    H133574   3.695   0.131   7.518  0.8480 -1.8848  2.2803
 4005TIP3    H233575   3.546   0.103   7.524 -0.4486  2.4997 -2.1475
 4006TIP3   OH233576   5.792   4.071   1.575  0.2495  0.5526  0.7131
 4006TIP3    H133577   5.819   4.159   1.549  0.5816  0.1387 -0.3647
 4006TIP3    H233578   5.787   4.075   1.671  1.6273  1.3568  0.7700
 4007TIP3   OH233579   3.402   3.355   8.209 -0.0398 -0.2446  0.1690
 4007TIP3    H133580   3.497   3.360   8.218 -0.0773 -0.6545  0.8005
 4007TIP3    H233581   3.381   3.423   8.145  0.7403 -0.5692 -0.4532
 4008TIP3   OH233582   1.510   0.128   6.252  0.4134 -0.7806 -0.2842
 4008TIP3    H133583   1.434   0.119   6.194  0.6075  0.3911 -0.7625
 4008TIP3    H233584   1.481   0.190   6.319  1.2741  0.5478 -1.0998
 4009TIP3   OH233585   6.891   4.894   6.814  0.6294  0.4607 -0.2589
 4009TIP3    H133586   6.975   4.852   6.832 -0.4362 -1.0323  1.5159
 4009TIP3    H233587   6.853   4.842   6.743  0.1844 -0.3609  0.5695
 4010TIP3   OH233588   3.118   1.516   6.579 -0.0104  0.1504 -0.8804
 4010TIP3    H133589   3.175   1.552   6.511 -0.7623 -0.0248 -1.6211
 4010TIP3    H233590   3.099   1.427   6.550 -0.2346  0.0290 -0.3732
 4011TIP3   OH233591   0.832   2.785   8.361  0.1654  0.5989 -0.2368
 4011TIP3    H133592   0.770   2.858   8.359 -2.7498 -1.6396  0.6224
 4011TIP3    H233593   0.830   2.749   8.273 -2.4271 -1.3662  0.4972
 4012TIP3   OH233594   2.895   1.389   8.464  0.1528 -1.0291  0.1086
 4012TIP3    H133595   2.886   1.474   8.421 -2.6027 -0.2948  1.8650
 4012TIP3    H233596   2.946   1.336   8.403  1.3631  1.6349 -1.3576
 4013TIP3   OH233597   1.035   0.500   7.397 -0.1831  0.0782 -0.1961
 4013TIP3    H133598   1.054   0.513   7.304  0.7067 -0.6482 -0.1202
 4013TIP3    H233599   0.966   0.565   7.416 -0.7642 -0.1330 -1.4770
 4014TIP3   OH233600   6.033   1.519   8.092  0.1650  0.1809  0.5193
 4014TIP3    H133601   6.023   1.425   8.106  0.0750 -0.1583 -1.4858
 4014TIP3    H233602   6.119   1.528   8.050 -0.8934  0.6358 -1.7055
 4015TIP3   OH233603   2.207   4.710   8.364  0.0203  0.3093 -0.4281
 4015TIP3    H133604   2.236   4.621   8.382 -1.3614 -0.0088  0.3611
 4015TIP3    H233605   2.282   4.765   8.390  1.0144 -0.6175 -1.2614
 4016TIP3   OH233606   0.193   6.644   2.471 -0.3061  0.4982  0.4266
 4016TIP3    H133607   0.099   6.655   2.480 -0.1058  2.1759  0.8083
 4016TIP3    H233608   0.214   6.683   2.386 -0.0551 -0.5914 -0.0213
 4017TIP3   OH233609   6.551   3.127   0.829  0.0903 -0.7631 -0.1649
 4017TIP3    H133610   6.479   3.064   0.827 -0.6818  0.1002 -0.1173
 4017TIP3    H233611   6.629   3.073   0.817 -0.3950 -1.9332  1.5013
 4018TIP3   OH233612   4.469   6.883   6.757 -0.3649 -0.4696  0.8331
 4018TIP3    H133613   4.501   6.797   6.729 -1.4223 -0.1459 -1.5631
 4018TIP3    H233614   4.534   6.945   6.723 -1.3459 -0.1052 -0.4159
 4019TIP3   OH233615   5.714   6.367   7.720 -0.3582  0.1238 -0.2179
 4019TIP3    H133616   5.677   6.297   7.667  1.4760 -0.7448 -0.4038
 4019TIP3    H233617   5.664   6.363   7.802 -0.4903 -1.1920 -0.3427
 4020TIP3   OH233618   1.200   1.993   6.556 -0.0690 -0.6303 -0.5619
 4020TIP3    H133619   1.130   1.927   6.556  0.0452 -0.9018  2.2677
 4020TIP3    H233620   1.278   1.945   6.528 -0.2488 -1.4343  0.2341
 4021TIP3   OH233621   1.550   5.654   1.289 -0.4789  0.0730 -0.2437
 4021TIP3    H133622   1.534   5.697   1.205 -2.0350 -1.1256 -0.6200
 4021TIP3    H233623   1.558   5.561   1.266  0.5660 -0.1037  0.7769
 4022TIP3   OH233624   2.490   2.381   2.825  0.3100 -0.4074  0.3243
 4022TIP3    H133625   2.508   2.447   2.758  1.0563 -1.8055 -0.9137
 4022TIP3    H233626   2.570   2.379   2.878 -0.5385  1.1945  1.7711
 4023TIP3   OH233627   2.691   4.602   0.976 -0.6241  0.1045  0.4088
 4023TIP3    H133628   2.784   4.586   0.962 -0.7872 -0.3031 -0.2707
 4023TIP3    H233629   2.688   4.667   1.046  0.1382 -1.2676  1.7957
 4024TIP3   OH233630   1.989   3.610   1.505  0.1173  0.1157  0.6900
 4024TIP3    H133631   1.998   3.551   1.431 -2.3622  2.0684 -1.3322
 4024TIP3    H233632   2.079   3.624   1.535  1.1331 -1.3718 -1.4182
 4025TIP3   OH233633   1.885   5.494   6.935 -0.2173 -0.3948  0.5102
 4025TIP3    H133634   1.939   5.424   6.971 -1.6746 -1.9619 -0.1673
 4025TIP3    H233635   1.816   5.507   7.000 -0.7616 -0.6141 -0.0130
 4026TIP3   OH233636   2.194   5.929   8.394 -0.0871 -0.1813 -0.1990
 4026TIP3    H133637   2.248   6.000   8.361 -3.2219  1.5845 -2.0054
 4026TIP3    H233638   2.185   5.869   8.321 -1.6604  0.3298 -0.4752
 4027TIP3   OH233639   5.977   4.372   7.321 -0.4466  0.1038 -0.1038
 4027TIP3    H133640   5.882   4.386   7.318 -0.5218 -0.5182 -1.3530
 4027TIP3    H233641   5.994   4.309   7.251  0.7582 -0.6272  0.8052
 4028TIP3   OH233642   2.072   1.836   6.926 -0.1015 -0.2124 -0.5394
 4028TIP3    H133643   1.983   1.846   6.962  0.2358 -2.2299  1.0205
 4028TIP3    H233644   2.069   1.882   6.842 -1.9306  1.7817  0.5131
 4029TIP3   OH233645   2.160   6.730   7.552  0.0452  0.5912 -0.9075
 4029TIP3    H133646   2.236   6.785   7.539 -0.7384  1.6353 -1.1851
 4029TIP3    H233647   2.088   6.791   7.570 -0.7493 -0.3547 -0.7564
 4030TIP3   OH233648   5.747   0.185   8.560 -0.3722  0.4505 -0.0048
 4030TIP3    H133649   5.790   0.263   8.594 -1.4101  0.4032  1.5291
 4030TIP3    H233650   5.818   0.131   8.525  0.7847  0.5606  2.0182
 4031TIP3   OH233651   0.026   4.345   0.283 -0.2150 -0.0621 -0.1076
 4031TIP3    H133652   0.051   4.348   0.376  1.4946  0.5901 -0.5453
 4031TIP3    H233653   0.096   4.296   0.241 -0.5969  0.2749 -1.1628
 4032TIP3   OH233654   5.621   6.580   7.585  0.7711  0.2470  0.2323
 4032TIP3    H133655   5.673   6.659   7.601  0.2228 -0.0583  4.8533
 4032TIP3    H233656   5.665   6.513   7.637 -1.6138 -1.1803  0.5025
 4033TIP3   OH233657   1.272   5.214   7.807 -0.1197 -0.3402 -0.0856
 4033TIP3    H133658   1.311   5.277   7.868 -0.5813  0.6439 -0.7754
 4033TIP3    H233659   1.333   5.211   7.733 -1.2300  1.1058 -1.1094
 4034TIP3   OH233660   3.688   5.552   6.414 -0.0763 -0.4467 -0.5330
 4034TIP3    H133661   3.649   5.617   6.472  0.8965 -0.5109  0.2185
 4034TIP3    H233662   3.775   5.587   6.395  0.7649 -1.8813  0.5092
 4035TIP3   OH233663   5.565   4.619   6.563 -0.0217 -0.2885 -0.4232
 4035TIP3    H133664   5.559   4.715   6.563 -1.3929 -0.3503  0.3899
 4035TIP3    H233665   5.474   4.589   6.565  0.3581 -1.6338 -1.4302
 4036TIP3   OH233666   3.363   4.336   6.839  0.7746  0.6060 -0.0261
 4036TIP3    H133667   3.272   4.366   6.847  0.3476 -0.9210  1.7452
 4036TIP3    H233668   3.378   4.325   6.745 -1.4873 -0.7911 -0.2920
 4037TIP3   OH233669   1.212   6.093   0.095 -0.1829  0.5035 -0.2118
 4037TIP3    H133670   1.224   6.140   0.012 -1.1200  0.0345 -0.6348
 4037TIP3    H233671   1.164   6.014   0.071 -1.3203  0.8135  0.8978
 4038TIP3   OH233672   2.510   6.522   2.219 -0.5123  0.2222  0.0417
 4038TIP3    H133673   2.578   6.564   2.272  0.0299 -0.4548 -0.0967
 4038TIP3    H233674   2.434   6.580   2.226  0.2276  1.2470 -0.1930
 4039TIP3   OH233675   5.465   6.060   7.713 -0.2883 -0.2335  0.0366
 4039TIP3    H133676   5.388   6.078   7.766 -1.5566 -0.5673 -1.6182
 4039TIP3    H233677   5.465   5.965   7.702 -0.7117 -0.0902 -1.4552
 4040TIP3   OH233678   2.087   1.226   0.767 -0.2933  0.3848  0.4880
 4040TIP3    H133679   2.084   1.320   0.749  0.5360  0.5071  0.9348
 4040TIP3    H233680   2.139   1.218   0.847  0.0217 -0.4867  0.2145
 4041TIP3   OH233681   4.637   6.769   0.474  0.1091  0.2496  0.4160
 4041TIP3    H133682   4.607   6.735   0.389 -0.4769  0.4875  0.5199
 4041TIP3    H233683   4.560   6.761   0.531 -0.0352  1.7252  0.4451
 4042TIP3   OH233684   6.798   5.277   2.128  0.7469  0.4491 -0.0490
 4042TIP3    H133685   6.720   5.270   2.074 -0.5977  1.8580  1.5691
 4042TIP3    H233686   6.831   5.187   2.136 -0.9632 -0.2439 -0.4286
 4043TIP3   OH233687   0.593   2.897   7.991 -0.7670  0.2402 -0.0406
 4043TIP3    H133688   0.557   2.963   8.050  0.2051  0.9969 -0.2483
 4043TIP3    H233689   0.519   2.870   7.937 -1.1368  1.3767 -0.1378
 4044TIP3   OH233690   0.092   1.588   1.979 -0.2884 -0.9555 -0.3906
 4044TIP3    H133691   0.053   1.533   2.046  0.4170 -0.9311  0.0470
 4044TIP3    H233692   0.166   1.537   1.946 -0.8678 -1.1488 -1.4538
 4045TIP3   OH233693   6.245   6.366   1.051 -0.5283 -0.4385  0.2483
 4045TIP3    H133694   6.271   6.437   0.993  1.1915 -0.8047  0.5049
 4045TIP3    H233695   6.178   6.318   1.002  0.4039 -0.3563 -1.1491
 4046TIP3   OH233696   4.168   3.412   7.750 -0.5858 -0.1306  0.1022
 4046TIP3    H133697   4.205   3.499   7.739  0.0716 -0.4645 -0.3951
 4046TIP3    H233698   4.144   3.384   7.662  1.0601 -1.2435 -0.0408
 4047TIP3   OH233699   3.082   4.419   6.837 -0.2272  0.2894  0.3278
 4047TIP3    H133700   3.087   4.499   6.785  0.0474 -0.3222 -0.6011
 4047TIP3    H233701   2.989   4.407   6.854 -0.7013 -1.2045 -2.7609
 4048TIP3   OH233702   2.273   5.083   0.491  0.0709 -0.0810 -0.1345
 4048TIP3    H133703   2.307   5.167   0.522  2.0474 -0.1287 -2.0247
 4048TIP3    H233704   2.204   5.061   0.555 -0.7141  3.0612  0.2867
 4049TIP3   OH233705   6.258   3.860   6.314  0.1256 -0.7887 -0.0971
 4049TIP3    H133706   6.294   3.861   6.226 -0.7577 -0.8876 -0.4681
 4049TIP3    H233707   6.181   3.803   6.308  0.3837 -1.2578  0.8666
 4050TIP3   OH233708   0.722   4.332   2.586 -0.4177 -0.0082 -0.1707
 4050TIP3    H133709   0.677   4.250   2.565 -0.3671  0.3628 -1.8865
 4050TIP3    H233710   0.802   4.305   2.631 -0.4248 -0.9040 -0.6790
 4051TIP3   OH233711   2.743   1.773   0.706  0.1752  0.1164 -0.9970
 4051TIP3    H133712   2.718   1.815   0.624  0.6021  0.4285 -0.9687
 4051TIP3    H233713   2.758   1.845   0.767 -0.6748 -0.1240 -0.4769
 4052TIP3   OH233714   6.034   0.315   7.906  0.1490 -0.9692 -0.2244
 4052TIP3    H133715   6.024   0.271   7.822  2.7288  0.7980 -1.5888
 4052TIP3    H233716   5.958   0.373   7.912  0.5896 -0.1236 -2.0450
 4053TIP3   OH233717   6.223   0.099   8.327 -0.5446  0.5490 -0.0397
 4053TIP3    H133718   6.226   0.125   8.419 -0.9672  0.1975  0.0703
 4053TIP3    H233719   6.262   0.174   8.281 -1.0790  1.0777  0.3453
 4054TIP3   OH233720   5.499   2.318   2.303 -0.1073 -0.3581  0.3508
 4054TIP3    H133721   5.562   2.383   2.270 -1.9037  1.0589 -0.4434
 4054TIP3    H233722   5.496   2.333   2.397 -1.2832  1.5051  0.0611
 4055TIP3   OH233723   6.783   0.760   7.097  0.2043  0.5422 -0.5432
 4055TIP3    H133724   6.828   0.688   7.142  0.5763  1.7219  1.0653
 4055TIP3    H233725   6.719   0.717   7.042  0.1519 -1.0286  0.6633
 4056TIP3   OH233726   1.866   6.822   1.051  0.2766 -0.1683 -0.3351
 4056TIP3    H133727   1.785   6.862   1.019 -0.1347 -0.1854  0.6448
 4056TIP3    H233728   1.863   6.732   1.020  0.3248  0.0492 -0.9971
 4057TIP3   OH233729   4.375   2.018   8.247 -0.2443  0.0213  0.6292
 4057TIP3    H133730   4.394   2.033   8.340 -2.0435  0.8266  0.9066
 4057TIP3    H233731   4.437   2.076   8.201  0.0947  0.2523  1.3578
 4058TIP3   OH233732   3.071   5.981   0.739  0.5790 -0.5669 -0.2870
 4058TIP3    H133733   3.152   6.031   0.728  0.7157 -0.2971  1.6815
 4058TIP3    H233734   3.001   6.041   0.714  0.8152  0.2816  1.0010
 4059TIP3   OH233735   6.745   1.117   6.865 -0.0171 -0.1772 -0.0151
 4059TIP3    H133736   6.682   1.165   6.811  1.7277  0.2903 -1.7394
 4059TIP3    H233737   6.829   1.131   6.823  0.7507 -4.2632 -0.3213
 4060TIP3   OH233738   0.985   4.146   1.404  0.1201  0.3182  0.4299
 4060TIP3    H133739   1.079   4.129   1.396  0.3350  1.7010 -0.3009
 4060TIP3    H233740   0.978   4.201   1.482 -0.2716 -0.9572  1.3249
 4061TIP3   OH233741   6.015   3.112   1.959 -0.0111 -0.0423  0.0867
 4061TIP3    H133742   6.099   3.066   1.956  0.3883  0.7184 -1.8797
 4061TIP3    H233743   5.951   3.044   1.980  1.0395 -0.6860  1.3384
 4062TIP3   OH233744   1.131   4.484   7.443  0.1121 -0.4111 -0.1668
 4062TIP3    H133745   1.125   4.419   7.373  0.2868 -0.4384 -0.1573
 4062TIP3    H233746   1.062   4.460   7.504 -0.0922 -0.3401 -0.3688
 4063TIP3   OH233747   1.159   6.454   7.069  0.3088  0.2889 -0.0310
 4063TIP3    H133748   1.224   6.385   7.060  1.5546  0.5600  4.7228
 4063TIP3    H233749   1.210   6.535   7.071 -0.3295  0.6769  1.7834
 4064TIP3   OH233750   6.487   5.673   1.679 -0.6842 -0.5246 -0.3203
 4064TIP3    H133751   6.479   5.738   1.750 -0.5793 -1.8308  0.9273
 4064TIP3    H233752   6.561   5.704   1.627 -0.4352  0.1972  0.4310
 4065TIP3   OH233753   5.329   1.933   1.045 -0.0725  0.3376 -0.2991
 4065TIP3    H133754   5.335   2.019   1.087  0.7826 -0.1340  0.5744
 4065TIP3    H233755   5.313   1.872   1.117  2.5694 -0.6359 -0.4157
 4066TIP3   OH233756   6.637   0.325   2.222  0.1327 -0.0100  0.2860
 4066TIP3    H133757   6.556   0.342   2.172  0.1579 -0.4062  0.1035
 4066TIP3    H233758   6.607   0.282   2.302  0.1240  0.2605  0.4253
 4067TIP3   OH233759   3.064   4.966   0.973 -0.0126 -0.3364 -0.1248
 4067TIP3    H133760   3.068   4.952   0.878 -0.9714 -0.5458 -0.1447
 4067TIP3    H233761   3.011   5.045   0.983 -1.2704 -1.2015  0.2797
 4068TIP3   OH233762   4.180   4.620   7.391  0.2142  0.0319 -0.3041
 4068TIP3    H133763   4.084   4.610   7.394  0.0168  1.7882 -0.0985
 4068TIP3    H233764   4.200   4.629   7.297  0.2110 -0.5373 -0.3629
 4069TIP3   OH233765   1.663   5.250   2.569 -0.3197  0.4935 -0.1439
 4069TIP3    H133766   1.744   5.299   2.558  0.2499 -0.4811 -0.3440
 4069TIP3    H233767   1.655   5.238   2.663  0.3539 -0.3656 -0.1879
 4070TIP3   OH233768   4.021   6.558   0.035  0.1655  0.0888  0.5223
 4070TIP3    H133769   3.951   6.565   0.099 -0.3224  0.2330 -0.0123
 4070TIP3    H233770   4.080   6.491   0.070  1.1105  1.7324  2.2246
 4071TIP3   OH233771   0.055   6.027   0.004 -0.1852 -0.3835  0.8022
 4071TIP3    H133772   0.112   6.078  -0.054 -0.9514  0.3830  0.6994
 4071TIP3    H233773   0.066   5.936  -0.025 -1.1617  0.0437 -1.1266
 4072TIP3   OH233774   3.508   4.681   1.498  0.0235 -0.4555 -0.4293
 4072TIP3    H133775   3.574   4.663   1.430  0.1122 -0.3391 -0.3750
 4072TIP3    H233776   3.494   4.775   1.492  1.8654  0.0038  1.3642
 4073TIP3   OH233777   0.425   2.175   7.395 -0.1574  0.1291  0.3447
 4073TIP3    H133778   0.399   2.085   7.417 -1.0856  0.8816  2.5914
 4073TIP3    H233779   0.395   2.187   7.305 -0.4317 -1.6397  0.1561
 4074TIP3   OH233780   3.499   2.708   0.403 -0.5055  0.1816  0.8984
 4074TIP3    H133781   3.462   2.796   0.396  0.6254  0.7071  1.3691
 4074TIP3    H233782   3.592   2.719   0.383 -0.3768 -0.9395  0.8047
 4075TIP3   OH233783   2.824   4.453   0.279 -0.2368 -0.7786  0.1092
 4075TIP3    H133784   2.769   4.523   0.313 -0.5368 -1.0444  0.1802
 4075TIP3    H233785   2.824   4.465   0.184  3.3616  2.0527  0.2584
 4076TIP3   OH233786   4.335   0.875   0.066  0.3883 -0.2690 -0.6609
 4076TIP3    H133787   4.390   0.910   0.136 -0.4370 -2.0913  0.9902
 4076TIP3    H233788   4.391   0.811   0.021  0.4795 -0.1200 -0.7589
 4077TIP3   OH233789   0.624   2.890   1.028 -0.5666  0.1710 -0.5070
 4077TIP3    H133790   0.571   2.811   1.026 -2.2058  1.1901  0.1714
 4077TIP3    H233791   0.669   2.891   0.944  0.0720 -1.8362 -0.2350
 4078TIP3   OH233792   2.078   0.293   1.973  0.6212 -0.0418  0.2747
 4078TIP3    H133793   2.003   0.296   1.914  0.3500  0.9142  0.6586
 4078TIP3    H233794   2.070   0.208   2.017  0.9885 -0.9055 -1.2484
 4079TIP3   OH233795   1.122   4.664   6.606 -0.0760 -1.0522 -0.0223
 4079TIP3    H133796   1.177   4.742   6.599 -0.7331 -0.6645 -1.0074
 4079TIP3    H233797   1.034   4.694   6.584 -0.6717 -1.7122  1.3382
 4080TIP3   OH233798   6.744   1.655   0.282  0.0747 -0.5666  0.1956
 4080TIP3    H133799   6.682   1.677   0.351 -0.0410  1.2196 -0.4465
 4080TIP3    H233800   6.743   1.729   0.223  0.6999 -1.7528 -1.3812
 4081TIP3   OH233801   5.281   2.192   1.158 -0.2022 -0.1378  0.3772
 4081TIP3    H133802   5.348   2.252   1.187 -2.0784  1.4696  1.6482
 4081TIP3    H233803   5.227   2.175   1.236 -2.1107 -0.1796 -0.8674
 4082TIP3   OH233804   6.266   3.999   6.787 -0.2941 -0.8146  0.0707
 4082TIP3    H133805   6.276   4.006   6.692 -1.7599 -0.6234 -0.0943
 4082TIP3    H233806   6.187   3.947   6.799 -0.0983 -0.8733  1.1937
 4083TIP3   OH233807   2.822   3.715   8.000 -0.2046  0.7632 -0.7590
 4083TIP3    H133808   2.730   3.740   7.985 -0.0547  0.4023 -2.5072
 4083TIP3    H233809   2.865   3.734   7.917  1.5810  2.0140  0.3815
 4084TIP3   OH233810   1.750   3.266   6.957 -0.7665 -0.3209  0.1762
 4084TIP3    H133811   1.726   3.353   6.925 -1.5599 -0.5790  0.0447
 4084TIP3    H233812   1.784   3.281   7.045 -0.3510  0.1830 -0.0628
 4085TIP3   OH233813   3.560   4.005   8.350 -0.9939 -0.1505  0.3796
 4085TIP3    H133814   3.479   4.028   8.395 -1.1459  0.6362 -0.2785
 4085TIP3    H233815   3.542   4.021   8.257 -0.3463 -0.7328  0.1437
 4086TIP3   OH233816   0.433   0.276   8.042 -0.4171 -0.0286 -0.2550
 4086TIP3    H133817   0.388   0.231   8.113 -1.4332  1.2894 -0.0278
 4086TIP3    H233818   0.475   0.351   8.083 -0.0056  0.0847 -0.8638
 4087TIP3   OH233819   3.189   6.763   8.283 -0.2461  0.4312  0.1914
 4087TIP3    H133820   3.217   6.854   8.280 -0.2145  0.5072  1.6706
 4087TIP3    H233821   3.200   6.738   8.375 -1.2262 -0.7488  0.0168
 4088TIP3   OH233822   1.868   0.887   0.497  0.3827  0.4617 -0.2360
 4088TIP3    H133823   1.908   0.970   0.523  1.5586 -0.8687  2.7449
 4088TIP3    H233824   1.941   0.834   0.467  0.3324 -0.6894  1.5105
 4089TIP3   OH233825   1.141   6.887   8.135  0.4046 -0.3962  0.2844
 4089TIP3    H133826   1.140   6.795   8.110  1.8172 -0.6316  1.0009
 4089TIP3    H233827   1.159   6.934   8.054 -1.5628 -0.6091 -0.3404
 4090TIP3   OH233828   6.513   3.588   0.380  0.3850  0.4274 -0.1569
 4090TIP3    H133829   6.504   3.494   0.363  1.2956  0.0397  1.3309
 4090TIP3    H233830   6.482   3.599   0.470  1.3316  1.3581  0.0772
 4091TIP3   OH233831   0.564   6.234   1.825 -0.5618 -0.0244 -0.4155
 4091TIP3    H133832   0.565   6.201   1.735  0.2079 -1.9318  0.2345
 4091TIP3    H233833   0.657   6.240   1.850 -0.7648  0.4204  0.2625
 4092TIP3   OH233834   6.346   2.170   8.222 -0.9935  0.0913 -0.0981
 4092TIP3    H133835   6.286   2.107   8.260 -1.3290  0.8205  0.6053
 4092TIP3    H233836   6.416   2.179   8.287 -0.8602  0.3200 -0.2702
 4093TIP3   OH233837   6.243   1.936   7.350  0.2790 -0.0568  0.1101
 4093TIP3    H133838   6.242   2.019   7.397 -1.4107  0.3017 -0.4897
 4093TIP3    H233839   6.157   1.898   7.368  0.5697 -1.1009 -0.6347
 4094TIP3   OH233840   2.692   3.802   7.164 -0.7858 -1.1955 -0.6237
 4094TIP3    H133841   2.600   3.807   7.192 -1.0833 -2.0717 -1.3938
 4094TIP3    H233842   2.702   3.712   7.132 -0.0283 -0.7093 -1.7976
 4095TIP3   OH233843   5.892   0.611   1.514  0.6298 -1.0824  0.3935
 4095TIP3    H133844   5.902   0.574   1.601  0.1896 -1.2318  0.3838
 4095TIP3    H233845   5.966   0.577   1.464  2.4963  1.1804  1.4306
 4096TIP3   OH233846   2.087   2.813   1.410  0.1393  0.2730  0.3321
 4096TIP3    H133847   1.995   2.831   1.395  0.3139 -0.6601 -2.4870
 4096TIP3    H233848   2.133   2.872   1.350  1.3080 -0.2131  0.7214
 4097TIP3   OH233849   6.747   4.603   8.240  0.5467  0.1558  0.4575
 4097TIP3    H133850   6.682   4.609   8.170  1.6008 -1.3517 -0.7131
 4097TIP3    H233851   6.809   4.673   8.220 -0.1169  0.9165  0.9766
 4098TIP3   OH233852   1.353   4.192   0.766 -0.0230  0.2220  0.1494
 4098TIP3    H133853   1.276   4.142   0.796 -0.2798 -0.1862 -1.1362
 4098TIP3    H233854   1.316   4.265   0.716  0.4102  0.5741  0.3405
 4099TIP3   OH233855   0.227   3.325   8.483 -0.8105  1.0481  0.5887
 4099TIP3    H133856   0.133   3.307   8.478 -0.4844 -0.4527 -1.8266
 4099TIP3    H233857   0.236   3.414   8.447 -1.1881  0.5432 -0.8217
 4100TIP3   OH233858   0.497   0.638   8.562 -0.2965 -0.3242 -0.2404
 4100TIP3    H133859   0.532   0.549   8.570  1.4345  0.4215  1.1312
 4100TIP3    H233860   0.538   0.687   8.634 -2.0332  1.3447 -0.2882
 4101TIP3   OH233861   4.002   0.137   6.780 -0.2879  0.1162  0.2780
 4101TIP3    H133862   4.052   0.218   6.767  0.2051  0.0100  1.4070
 4101TIP3    H233863   4.063   0.068   6.753  0.0086  0.0143  1.1914
 4102TIP3   OH233864   1.932   3.857   2.444 -0.2051 -0.5487 -0.2035
 4102TIP3    H133865   1.950   3.944   2.410  1.1588  0.0570  1.8849
 4102TIP3    H233866   1.840   3.860   2.471 -0.2387  0.1493 -0.3864
 4103TIP3   OH233867   1.149   2.034   2.466  0.1521 -0.2036  0.4867
 4103TIP3    H133868   1.208   1.958   2.459  1.6976  0.7002  2.5034
 4103TIP3    H233869   1.065   1.996   2.490  0.2712 -1.4295 -0.8749
 4104TIP3   OH233870   0.006   2.803   1.886  0.4914  0.2577 -0.2215
 4104TIP3    H133871  -0.007   2.898   1.884  0.0597  0.1906 -0.8418
 4104TIP3    H233872  -0.079   2.767   1.865 -0.1542 -0.3611  2.9124
 4105TIP3   OH233873   2.442   6.464   8.452  0.5192  0.3902 -0.4606
 4105TIP3    H133874   2.491   6.512   8.520  0.9129  0.4374 -0.7748
 4105TIP3    H233875   2.484   6.379   8.447 -0.2138 -0.0228  0.1327
 4106TIP3   OH233876   6.164   4.310   6.604 -0.1322 -0.0671 -0.4033
 4106TIP3    H133877   6.140   4.218   6.588 -0.1584 -0.0598 -0.4051
 4106TIP3    H233878   6.228   4.330   6.535 -0.8529  0.2075 -1.0036
 4107TIP3   OH233879   2.250   3.716   8.534 -0.7175  0.1844 -0.2766
 4107TIP3    H133880   2.156   3.731   8.544 -0.3462  2.5409  0.3687
 4107TIP3    H233881   2.260   3.622   8.545 -2.9181 -0.0476  0.3994
 4108TIP3   OH233882   2.876   5.246   2.318  0.0860  1.2335  0.6474
 4108TIP3    H133883   2.812   5.207   2.258  1.1947 -1.9353  1.2979
 4108TIP3    H233884   2.937   5.293   2.262  0.9207 -1.3845 -0.8075
 4109TIP3   OH233885   4.897   5.317   1.196 -0.0999 -0.3581 -0.0224
 4109TIP3    H133886   4.853   5.382   1.141  0.1687 -1.1638 -1.2439
 4109TIP3    H233887   4.920   5.365   1.276 -1.0602  0.6925 -0.3407
 4110TIP3   OH233888   3.698   0.641   1.177 -0.6115  0.6101 -0.8858
 4110TIP3    H133889   3.620   0.680   1.215 -1.3761 -0.4858 -1.2806
 4110TIP3    H233890   3.681   0.547   1.179  1.2370  0.2453  0.1776
 4111TIP3   OH233891   0.101   0.038   8.433 -0.0450 -0.0759  0.0748
 4111TIP3    H133892   0.191   0.046   8.401 -0.3010 -1.4727 -1.1265
 4111TIP3    H233893   0.076  -0.052   8.412 -2.0090  0.5266 -0.4129
 4112TIP3   OH233894   5.729   6.064   8.438 -0.0994  0.0298  0.1193
 4112TIP3    H133895   5.818   6.068   8.473  0.7553  0.8000 -1.9852
 4112TIP3    H233896   5.692   6.150   8.456 -0.8351 -0.6100  1.8868
 4113TIP3   OH233897   2.959   2.350   8.079  0.1035 -0.6360 -0.3819
 4113TIP3    H133898   2.982   2.427   8.131 -4.2707  0.7502 -0.1228
 4113TIP3    H233899   2.942   2.282   8.143 -0.5925 -0.3870 -0.2992
 4114TIP3   OH233900   3.542   4.663   1.041  0.4436 -0.1656 -0.2614
 4114TIP3    H133901   3.521   4.732   0.978 -1.5840 -1.7239 -1.4178
 4114TIP3    H233902   3.613   4.700   1.094  0.6167  2.1181 -1.9162
 4115TIP3   OH233903   1.904   1.737   1.841  0.0639  0.6968 -0.1095
 4115TIP3    H133904   1.873   1.785   1.764  0.5300  1.3767  0.1189
 4115TIP3    H233905   1.950   1.661   1.805 -1.0509  0.1662 -0.4651
 4116TIP3   OH233906   6.189   4.025   1.116 -0.0619  0.4302 -0.2762
 4116TIP3    H133907   6.241   4.004   1.193 -0.0946 -1.1310 -0.6491
 4116TIP3    H233908   6.106   4.058   1.151 -0.2747 -0.7397  0.3923
 4117TIP3   OH233909   4.771   3.200   8.362  0.8071 -0.0972 -0.1199
 4117TIP3    H133910   4.808   3.251   8.434 -0.6994  1.2670 -0.2461
 4117TIP3    H233911   4.754   3.114   8.399 -0.4043  0.7289  1.3299
 4118TIP3   OH233912   1.638   4.110   0.188  0.0957  0.3274  0.6001
 4118TIP3    H133913   1.714   4.166   0.171  0.8918 -0.9061 -0.0533
 4118TIP3    H233914   1.563   4.164   0.163  0.8265  1.1813  0.1929
 4119TIP3   OH233915   6.515   3.375   1.586  0.1034 -0.0771 -0.3971
 4119TIP3    H133916   6.466   3.454   1.566 -2.2533 -1.1639  0.7402
 4119TIP3    H233917   6.554   3.349   1.503  1.4236  2.5090 -0.7008
 4120TIP3   OH233918   2.722   3.448   8.054 -0.0663  0.5861 -0.5560
 4120TIP3    H133919   2.778   3.522   8.079  0.4117 -0.0092  0.1639
 4120TIP3    H233920   2.717   3.454   7.958 -0.1077  1.6004 -0.5080
 4121TIP3   OH233921   1.743   4.649   1.682  0.5217  0.3194  0.0010
 4121TIP3    H133922   1.736   4.590   1.758  0.7781  0.7261  0.3456
 4121TIP3    H233923   1.652   4.667   1.658  0.3683 -2.2507 -1.7301
 4122TIP3   OH233924   2.652   6.062   1.405 -0.1254  0.3544  0.0617
 4122TIP3    H133925   2.621   6.142   1.448 -0.9299  0.4795 -0.7326
 4122TIP3    H233926   2.747   6.073   1.402 -0.2154  1.2377  0.0616
 4123TIP3   OH233927   3.350   5.745   2.135  0.0321 -0.4272 -0.1686
 4123TIP3    H133928   3.271   5.731   2.188  0.5729 -1.8375  0.2890
 4123TIP3    H233929   3.412   5.785   2.195  0.0286 -0.2918 -0.2533
 4124TIP3   OH233930   5.600   3.738   0.304 -1.0813  0.1985  0.2878
 4124TIP3    H133931   5.693   3.745   0.324 -1.0515 -0.7404  0.5064
 4124TIP3    H233932   5.580   3.817   0.253  0.4082 -0.8580 -2.0706
 4125TIP3   OH233933   1.897   5.779   1.166  0.1655  0.3007  0.5482
 4125TIP3    H133934   1.887   5.728   1.246  2.4892  0.2271  0.8622
 4125TIP3    H233935   1.989   5.805   1.166  0.2872  0.1082 -2.2114
 4126TIP3   OH233936   4.000   5.575   1.398 -0.1165 -0.3204 -0.5834
 4126TIP3    H133937   3.961   5.660   1.379  0.9158  0.2706 -0.1481
 4126TIP3    H233938   4.094   5.589   1.390  0.1810 -0.9520  1.2980
 4127TIP3   OH233939   1.099   0.333   0.869  0.2617 -0.0079  0.1303
 4127TIP3    H133940   1.020   0.327   0.923  0.2459 -3.5338 -0.0506
 4127TIP3    H233941   1.071   0.379   0.790 -1.5630 -0.9211  0.1930
 4128TIP3   OH233942   1.853   6.306   2.721  0.7344  0.1090  0.0264
 4128TIP3    H133943   1.792   6.242   2.684  0.1618  0.9733 -0.5854
 4128TIP3    H233944   1.939   6.280   2.690  0.3282  0.4958 -1.5064
 4129TIP3   OH233945   6.303   4.357   2.333  0.2881 -0.0752 -0.0428
 4129TIP3    H133946   6.280   4.266   2.314 -0.6296  0.1365  0.0064
 4129TIP3    H233947   6.219   4.401   2.345  0.7384  0.5487  1.0323
 4130TIP3   OH233948   1.244   6.242   6.690 -0.1622  0.0174 -0.3584
 4130TIP3    H133949   1.332   6.211   6.712 -0.7242 -1.1489  0.3719
 4130TIP3    H233950   1.198   6.163   6.660 -1.2481  0.3962  0.2465
 4131TIP3   OH233951   1.693   5.118   8.120 -0.4752 -0.4167 -0.1645
 4131TIP3    H133952   1.775   5.153   8.153 -0.6941 -1.2039  1.3030
 4131TIP3    H233953   1.715   5.030   8.089 -0.3801  0.1156 -1.7067
 4132TIP3   OH233954   1.476   3.901   0.086 -0.6406  0.0239 -0.0225
 4132TIP3    H133955   1.523   3.972   0.131  0.0542 -1.6092  2.0140
 4132TIP3    H233956   1.385   3.929   0.085 -0.2443  1.3775 -0.1749
 4133TIP3   OH233957   2.907   6.621   6.942 -0.0859 -0.4365  0.3099
 4133TIP3    H133958   2.959   6.557   6.893  1.3579 -0.1118  1.3482
 4133TIP3    H233959   2.905   6.698   6.886  0.9820 -0.2955  0.4404
 4134TIP3   OH233960   3.667   5.902   1.926  0.2368  0.5784 -0.2756
 4134TIP3    H133961   3.594   5.965   1.934  1.9288  2.8905 -1.6663
 4134TIP3    H233962   3.624   5.818   1.908 -2.1179  1.5730  0.2738
 4135TIP3   OH233963   6.383   0.037   1.779 -0.5755 -0.4564  0.4005
 4135TIP3    H133964   6.406   0.088   1.857  0.4882 -2.1504  1.2706
 4135TIP3    H233965   6.369  -0.052   1.813 -0.1815 -1.2072 -1.3297
 4136TIP3   OH233966   4.131   1.242   6.050  0.0631 -0.1863 -0.1266
 4136TIP3    H133967   4.056   1.222   6.106 -1.0823  0.2042 -1.4615
 4136TIP3    H233968   4.122   1.335   6.029  1.1808 -0.0222  0.0366
 4137TIP3   OH233969   2.120   5.499   8.367  0.2160  0.0824  0.3440
 4137TIP3    H133970   2.065   5.486   8.444  1.3470 -0.8171  1.0431
 4137TIP3    H233971   2.103   5.589   8.340 -0.4228  0.3154  1.4602
 4138TIP3   OH233972   0.399   1.815   0.195  0.0245  0.0540 -0.4561
 4138TIP3    H133973   0.334   1.837   0.128  0.1255  0.6890 -0.3513
 4138TIP3    H233974   0.428   1.900   0.229  0.8390 -0.2209 -0.4377
 4139TIP3   OH233975   2.109   0.172   7.995  0.0335  0.3124 -0.2473
 4139TIP3    H133976   2.135   0.257   8.031 -0.0151 -0.4827  1.7863
 4139TIP3    H233977   2.023   0.188   7.956  0.2491  1.2986 -0.3490
 4140TIP3   OH233978   5.609   6.774   7.896 -0.1973 -0.3041  0.4087
 4140TIP3    H133979   5.549   6.709   7.932  1.0369 -1.3829  0.5631
 4140TIP3    H233980   5.665   6.799   7.970  0.6140 -0.5495 -0.1139
 4141TIP3   OH233981   0.893   6.241   1.665 -0.2250 -0.3908 -0.0353
 4141TIP3    H133982   0.931   6.180   1.729  1.3281  0.6733  0.1066
 4141TIP3    H233983   0.968   6.272   1.614 -1.1953  0.2302 -1.1323
 4142TIP3   OH233984   1.452   6.658   1.431 -0.0390  0.5559 -0.8420
 4142TIP3    H133985   1.448   6.614   1.346 -3.5629 -0.1381 -0.4584
 4142TIP3    H233986   1.450   6.587   1.495 -0.3966  1.1332 -0.2030
 4143TIP3   OH233987   2.954   0.705   0.630  0.3140 -0.2181 -0.1974
 4143TIP3    H133988   3.002   0.776   0.673 -0.0785  0.1935 -0.4303
 4143TIP3    H233989   2.961   0.724   0.536 -2.1476  1.1155 -0.1964
 4144TIP3   OH233990   3.921   4.403   7.265 -0.1832 -0.1764  0.2501
 4144TIP3    H133991   4.016   4.404   7.255 -0.2586  0.0208 -0.5335
 4144TIP3    H233992   3.890   4.469   7.203 -0.7874  0.3024  1.0500
 4145TIP3   OH233993   2.968   0.556   7.288  0.2624  0.0991 -0.1947
 4145TIP3    H133994   2.989   0.572   7.380 -1.1615 -0.2336  0.2056
 4145TIP3    H233995   3.044   0.507   7.255  1.9222  2.2963  0.1246
 4146TIP3   OH233996   3.127   5.592   1.852 -0.1412 -0.0354  0.0581
 4146TIP3    H133997   3.114   5.673   1.901  0.0226  0.1381 -0.1769
 4146TIP3    H233998   3.162   5.530   1.916  1.0472  0.4904 -0.0577
 4147TIP3   OH233999   6.224   0.661   7.818  0.2380 -0.2691 -0.1450
 4147TIP3    H134000   6.248   0.657   7.725 -0.3574  0.1719 -0.3226
 4147TIP3    H234001   6.286   0.602   7.861 -0.0242 -1.1266 -0.9267
 4148TIP3   OH234002   3.095   4.801   1.228  0.0805  0.1203  0.6035
 4148TIP3    H134003   3.076   4.860   1.155 -0.4221  0.2500  0.8347
 4148TIP3    H234004   3.053   4.842   1.304  0.8701  0.1511  1.0294
 4149TIP3   OH234005   2.847   1.461   1.473 -0.4464  0.0725  0.5500
 4149TIP3    H134006   2.926   1.436   1.521 -0.0193  0.7925  0.2436
 4149TIP3    H234007   2.864   1.551   1.445 -1.0962 -0.0016 -0.1032
 4150TIP3   OH234008   0.522   2.769   7.173 -0.8716 -0.7031  0.1655
 4150TIP3    H134009   0.527   2.693   7.231 -1.5373 -0.0317  1.1374
 4150TIP3    H234010   0.496   2.733   7.089 -1.3476 -1.5424  0.6594
 4151TIP3   OH234011   4.058   5.028   8.063  0.1508 -0.1509 -0.0703
 4151TIP3    H134012   3.970   5.037   8.099  0.4540  1.5650  0.3509
 4151TIP3    H234013   4.076   4.934   8.067 -1.0884 -0.3765  1.1897
 4152TIP3   OH234014   5.508   0.982   0.458 -0.1010 -0.7295 -0.1928
 4152TIP3    H134015   5.511   0.889   0.437  2.1834 -0.6121 -0.5778
 4152TIP3    H234016   5.450   1.020   0.392 -0.7878 -1.8178 -0.2303
 4153TIP3   OH234017   2.704   5.084   8.551  0.1081  0.1004 -0.1928
 4153TIP3    H134018   2.799   5.096   8.550 -0.0861  1.8250  0.1208
 4153TIP3    H234019   2.674   5.135   8.626 -0.9307 -1.7116  0.6914
 4154TIP3   OH234020   0.047   1.596   7.655  0.4297 -0.0835 -0.3699
 4154TIP3    H134021  -0.029   1.630   7.701  1.4479 -0.7419  1.9229
 4154TIP3    H234022   0.015   1.519   7.608 -1.1392  1.9177 -2.8272
 4155TIP3   OH234023   4.291   0.104   2.052 -0.0335 -0.8134 -0.4345
 4155TIP3    H134024   4.259   0.015   2.041 -0.2597 -0.7996  0.0620
 4155TIP3    H234025   4.300   0.115   2.147 -2.2103  0.4214 -0.2829
 4156TIP3   OH234026   4.380   1.658   0.666 -0.3729 -0.3100  0.1274
 4156TIP3    H134027   4.455   1.713   0.686  1.0373 -1.9480 -0.3585
 4156TIP3    H234028   4.307   1.719   0.653  1.4154  1.5600 -1.9350
 4157TIP3   OH234029   2.162   3.673   0.570  0.1222 -0.3439  0.4343
 4157TIP3    H134030   2.214   3.594   0.576  2.2282  1.0612  2.9783
 4157TIP3    H234031   2.173   3.703   0.480  1.7815 -1.3955  0.2455
 4158TIP3   OH234032   6.752   0.312   0.275  0.1482  0.3810  0.1865
 4158TIP3    H134033   6.697   0.290   0.351 -0.0634 -1.9650 -0.5656
 4158TIP3    H234034   6.806   0.385   0.305 -2.4796  1.9754  1.3675
 4159TIP3   OH234035   4.560   6.379   6.548 -0.5489 -0.5808  0.1245
 4159TIP3    H134036   4.498   6.328   6.601 -1.2950  0.5384  0.3592
 4159TIP3    H234037   4.562   6.465   6.590  2.6951 -1.1147  1.3285
 4160TIP3   OH234038   6.092   4.430   6.835  0.0593  0.3738  0.1017
 4160TIP3    H134039   6.143   4.361   6.877  0.4593  1.1830  0.9716
 4160TIP3    H234040   6.077   4.398   6.746 -0.7016 -1.3293  0.7906
 4161TIP3   OH234041   2.003   5.654   7.534 -0.0615  0.2477  0.5384
 4161TIP3    H134042   2.084   5.620   7.496 -0.5117 -0.5361  0.2468
 4161TIP3    H234043   1.994   5.742   7.498  1.3129  0.8446  1.5836
 4162TIP3   OH234044   1.062   3.292   7.842 -0.2839 -0.9430 -0.2120
 4162TIP3    H134045   1.096   3.331   7.923 -0.3621  1.4112 -1.2295
 4162TIP3    H234046   1.014   3.363   7.800 -1.7866 -2.6325 -1.4840
 4163TIP3   OH234047   3.957   1.260   8.414 -0.3450  0.2250 -0.6009
 4163TIP3    H134048   4.040   1.307   8.425 -0.6801  0.9247 -1.0035
 4163TIP3    H234049   3.901   1.321   8.366 -1.1036 -0.2321 -0.3125
 4164TIP3   OH234050   0.835   1.171   0.114 -0.6625 -0.5644  0.3309
 4164TIP3    H134051   0.823   1.242   0.051  2.3103  0.1322  0.3801
 4164TIP3    H234052   0.800   1.205   0.196  1.1701  1.1954  0.4848
 4165TIP3   OH234053   0.994   2.415   8.157 -0.7388  0.7509  0.2037
 4165TIP3    H134054   0.935   2.361   8.105  0.8266 -0.8314  0.0002
 4165TIP3    H234055   1.039   2.353   8.215 -0.3517  2.1114  1.4286
 4166TIP3   OH234056   0.036   1.244   0.029  0.6162  0.0014  0.0664
 4166TIP3    H134057  -0.046   1.222  -0.015  1.0290  0.5026 -0.9800
 4166TIP3    H234058   0.021   1.330   0.067  1.4087  1.2063 -2.1973
 4167TIP3   OH234059   3.866   2.570   2.380  0.3405  0.5666  0.9496
 4167TIP3    H134060   3.940   2.598   2.434 -0.8897  3.7599  1.2149
 4167TIP3    H234061   3.796   2.553   2.442  0.3023 -0.6589  0.5938
 4168TIP3   OH234062   4.652   4.156   6.705  0.1646 -0.3381 -0.2240
 4168TIP3    H134063   4.731   4.202   6.734 -0.5619  0.6278  0.2601
 4168TIP3    H234064   4.685   4.075   6.666  1.4524  0.4107 -0.7723
 4169TIP3   OH234065   4.385   5.602   1.568  0.2315  0.7697 -0.2896
 4169TIP3    H134066   4.296   5.609   1.601  0.3449 -0.0513  0.2167
 4169TIP3    H234067   4.385   5.655   1.488 -0.1204  2.5341  0.8436
 4170TIP3   OH234068   0.032   0.613   6.380 -0.3175 -0.3156  0.4950
 4170TIP3    H134069  -0.005   0.689   6.426  2.2770  1.5892 -0.2570
 4170TIP3    H234070  -0.039   0.581   6.325 -1.2935  2.1909  0.1549
 4171TIP3   OH234071   6.330   3.222   1.210  0.4376  0.2826  0.0995
 4171TIP3    H134072   6.349   3.313   1.187  0.6326  0.8340  2.3019
 4171TIP3    H234073   6.257   3.227   1.272  0.2655 -1.0963  0.0454
 4172TIP3   OH234074   5.525   2.624   1.032 -0.2041  0.4713  0.7903
 4172TIP3    H134075   5.501   2.607   1.123  3.4389  0.2639  1.8694
 4172TIP3    H234076   5.615   2.592   1.025 -0.2921  0.6305 -2.8847
 4173TIP3   OH234077   2.420   2.583   8.167  0.1430  0.4921  0.2401
 4173TIP3    H134078   2.412   2.498   8.124  0.4100  0.7816 -0.4041
 4173TIP3    H234079   2.409   2.646   8.096  0.5604  0.9798  0.6025
 4174TIP3   OH234080   6.443   5.007   1.576 -0.3346  0.0563 -0.8276
 4174TIP3    H134081   6.377   4.939   1.593  0.8236 -0.7238  0.7845
 4174TIP3    H234082   6.448   5.011   1.480 -2.1327 -0.4256 -0.9805
 4175TIP3   OH234083   0.329   3.458   0.507  0.2654  0.2366 -0.4579
 4175TIP3    H134084   0.373   3.376   0.534 -0.7979 -1.0824 -2.4910
 4175TIP3    H234085   0.348   3.519   0.578  2.9281 -1.1145  0.1345
 4176TIP3   OH234086   3.234   2.997   1.210 -0.3686  0.1339 -0.6692
 4176TIP3    H134087   3.188   2.915   1.229 -0.3133  0.5529  1.5267
 4176TIP3    H234088   3.317   2.969   1.172 -0.3271 -0.8401  0.0907
 4177TIP3   OH234089   0.828   4.467   2.368  0.0151  0.0539 -0.3090
 4177TIP3    H134090   0.774   4.406   2.419 -0.4483 -1.2025 -2.1935
 4177TIP3    H234091   0.912   4.423   2.361  0.3549  0.6283  0.0729
 4178TIP3   OH234092   6.285   0.681   7.547  0.1129  0.3232 -0.0898
 4178TIP3    H134093   6.208   0.624   7.537  0.0404  0.2112  1.0476
 4178TIP3    H234094   6.282   0.738   7.470 -2.4389  1.9163  1.0597
 4179TIP3   OH234095   2.391   3.486   1.949 -0.5841  0.5037 -0.4979
 4179TIP3    H134096   2.479   3.522   1.938 -0.5899  0.4351 -0.7863
 4179TIP3    H234097   2.350   3.542   2.014 -0.7938  1.4058 -1.3736
 4180TIP3   OH234098   6.043   2.785   0.090 -0.1774  0.4788 -0.7566
 4180TIP3    H134099   6.011   2.853   0.150  0.2118  0.4457 -0.5141
 4180TIP3    H234100   6.009   2.704   0.126  0.3006  0.4279 -0.4137
 4181TIP3   OH234101   6.525   4.697   1.102  0.2135  0.0156 -0.2626
 4181TIP3    H134102   6.607   4.694   1.150 -0.3193 -1.8983  0.6498
 4181TIP3    H234103   6.507   4.605   1.079 -0.6805  0.6206 -2.1759
 4182TIP3   OH234104   5.073   2.464   1.425 -0.0900 -0.3868 -0.2163
 4182TIP3    H134105   5.121   2.476   1.343  3.0715 -0.7256  1.4449
 4182TIP3    H234106   5.090   2.544   1.475 -2.6516  0.1801 -0.0869
 4183TIP3   OH234107   6.438   4.341   0.112 -0.3084  0.2587 -0.2661
 4183TIP3    H134108   6.440   4.250   0.083 -0.3267  0.9192 -2.5375
 4183TIP3    H234109   6.529   4.370   0.106 -0.4569  0.6732 -0.5007
 4184TIP3   OH234110   5.329   4.043   0.535  0.0940  0.2737  0.2293
 4184TIP3    H134111   5.244   4.048   0.493  0.4252 -0.3194 -0.5364
 4184TIP3    H234112   5.355   4.134   0.549 -0.7519  0.4522  0.6639
 4185TIP3   OH234113   6.751   2.225   1.351 -0.3702  0.4857 -0.0318
 4185TIP3    H134114   6.696   2.156   1.314  0.4202  0.1319 -0.5671
 4185TIP3    H234115   6.841   2.195   1.337 -0.0087  0.2297  2.3685
 4186TIP3   OH234116   0.095   4.374   7.383  0.0981  0.3187 -0.1293
 4186TIP3    H134117   0.127   4.455   7.425  0.0851 -0.1764  0.8733
 4186TIP3    H234118   0.054   4.404   7.302 -0.9189  1.4533  0.7705
 4187TIP3   OH234119   2.755   4.010   0.668 -0.0828 -0.1460 -0.6137
 4187TIP3    H134120   2.843   4.045   0.680  0.6533 -2.3490  0.7589
 4187TIP3    H234121   2.761   3.954   0.591  0.1303 -1.4494  0.3172
 4188TIP3   OH234122   2.391   2.934   0.709 -0.0237  0.7546  0.0212
 4188TIP3    H134123   2.371   2.858   0.765  0.8272  0.6082  0.1395
 4188TIP3    H234124   2.453   2.901   0.645 -1.3336  0.8150 -1.3172
 4189TIP3   OH234125   1.765   6.196   1.989  0.1232  0.1820  0.2631
 4189TIP3    H134126   1.793   6.128   2.052 -0.1599  0.9971  1.2942
 4189TIP3    H234127   1.779   6.155   1.904  1.8347 -0.4792  0.7933
 4190TIP3   OH234128   6.191   5.354   8.017  0.4462  0.3078 -0.1026
 4190TIP3    H134129   6.120   5.406   7.979 -0.3033 -0.3959  0.3194
 4190TIP3    H234130   6.225   5.410   8.087  0.5912  0.8188 -0.5700
 4191TIP3   OH234131   4.505   1.961   1.964  0.8247 -0.4220 -0.0514
 4191TIP3    H134132   4.483   2.012   1.887  1.0161  1.2871  0.9797
 4191TIP3    H234133   4.489   1.870   1.938 -0.1804  0.1908 -1.7125
 4192TIP3   OH234134   4.918   1.455   0.238  0.1858  0.1607  0.5012
 4192TIP3    H134135   4.902   1.543   0.272 -2.1641 -1.0621  3.0008
 4192TIP3    H234136   4.950   1.406   0.314  2.3091 -0.9990 -1.0549
 4193TIP3   OH234137   2.414   2.763   0.944  0.0916 -0.0372 -0.2859
 4193TIP3    H134138   2.411   2.667   0.954  1.9974 -0.5480 -3.2642
 4193TIP3    H234139   2.324   2.792   0.959 -1.0863 -2.6116 -1.7182
 4194TIP3   OH234140   0.669   5.222   7.310  0.0746  0.2636  0.0163
 4194TIP3    H134141   0.653   5.178   7.393 -2.8824 -0.6835 -0.9140
 4194TIP3    H234142   0.668   5.315   7.331  2.3012  0.0405  1.4011
 4195TIP3   OH234143   4.157   4.634   7.095 -0.6522 -0.6090 -0.0025
 4195TIP3    H134144   4.250   4.628   7.072 -0.2856  3.0349  0.0091
 4195TIP3    H234145   4.117   4.682   7.023 -2.1956 -0.6451  0.7851
 4196TIP3   OH234146   2.561   1.345   6.372 -0.5980 -0.2856 -0.5870
 4196TIP3    H134147   2.580   1.381   6.459  0.0546  0.8679 -1.1689
 4196TIP3    H234148   2.533   1.421   6.321  1.2097 -0.4828 -1.9819
 4197TIP3   OH234149   6.725   1.053   7.422 -0.3862  0.3189  0.2408
 4197TIP3    H134150   6.644   1.103   7.424 -0.9204 -0.3033 -2.2408
 4197TIP3    H234151   6.698   0.963   7.403  0.8039 -0.1700  0.7523
 4198TIP3   OH234152   5.001   5.346   8.431  0.2546  0.1157  0.0348
 4198TIP3    H134153   5.052   5.404   8.487  2.4302 -0.4504 -1.2369
 4198TIP3    H234154   4.957   5.404   8.370  1.6260  0.5384 -0.5941
 4199TIP3   OH234155   2.754   2.656   1.040  0.5223  0.1413  0.3068
 4199TIP3    H134156   2.823   2.698   0.988 -1.0772  0.3699 -1.7915
 4199TIP3    H234157   2.704   2.606   0.975 -0.2672 -1.4279  2.0438
 4200TIP3   OH234158   0.270   4.506   1.025  0.1369 -0.1017 -0.1235
 4200TIP3    H134159   0.295   4.591   0.987  0.1822 -0.6095 -1.2922
 4200TIP3    H234160   0.278   4.518   1.119 -0.8660  1.5249 -0.1985
 4201TIP3   OH234161   3.718   2.238   6.508 -0.1454 -0.2851 -0.2931
 4201TIP3    H134162   3.784   2.171   6.526  1.0461  0.6910 -0.8264
 4201TIP3    H234163   3.745   2.314   6.560 -1.0242  0.0392 -0.2874
 4202TIP3   OH234164   5.536   1.086   8.102  0.0728  0.2119 -0.0511
 4202TIP3    H134165   5.466   1.104   8.039 -0.1092  0.2335  0.1565
 4202TIP3    H234166   5.514   1.000   8.138  0.8253 -0.3333 -0.8839
 4203TIP3   OH234167   5.106   4.105   0.282  0.2845  0.5097  0.6254
 4203TIP3    H134168   5.108   4.179   0.221  0.2760 -0.9330 -1.2138
 4203TIP3    H234169   5.170   4.043   0.247 -1.2190 -1.2653  0.8489
 4204TIP3   OH234170   1.870   3.602   1.742 -0.3948  0.0670 -0.3734
 4204TIP3    H134171   1.912   3.561   1.667  0.1964 -1.5252  0.7650
 4204TIP3    H234172   1.838   3.686   1.709  0.5113 -0.2515 -2.1880
 4205TIP3   OH234173   2.801   0.133   1.484  0.6345 -0.2165 -0.1336
 4205TIP3    H134174   2.760   0.183   1.554  0.0789 -1.2478  0.2989
 4205TIP3    H234175   2.730   0.114   1.422  0.8371 -0.4670 -0.2945
 4206TIP3   OH234176   4.922   2.600   8.545  0.1799 -0.8271 -0.2146
 4206TIP3    H134177   4.888   2.569   8.461 -1.1119 -0.0290 -0.0123
 4206TIP3    H234178   5.014   2.574   8.545  0.2451 -0.6788 -1.9460
 4207TIP3   OH234179   2.975   5.861   6.468  0.7562  0.1444  0.3606
 4207TIP3    H134180   3.013   5.913   6.397 -1.0903 -0.8669 -1.4849
 4207TIP3    H234181   2.885   5.894   6.475  0.6189 -0.4382  1.6145
 4208TIP3   OH234182   6.637   5.352   8.429 -0.2030  0.1640  0.3355
 4208TIP3    H134183   6.732   5.353   8.440 -0.1520 -1.0960  0.1030
 4208TIP3    H234184   6.624   5.368   8.335 -0.3187  2.3238  0.6767
 4209TIP3   OH234185   6.538   0.750   7.728 -0.0901 -0.5171  0.4595
 4209TIP3    H134186   6.530   0.701   7.646  0.0675 -0.5024  0.4343
 4209TIP3    H234187   6.505   0.690   7.795 -0.0081 -0.6141  0.4133
 4210TIP3   OH234188   0.764   2.119   8.417 -0.2068  0.5928 -0.1600
 4210TIP3    H134189   0.856   2.119   8.443  0.2417  0.8725 -1.6350
 4210TIP3    H234190   0.716   2.128   8.499  1.0551 -0.0204  0.6810
 4211TIP3   OH234191   3.723   3.321   1.765 -0.7411  0.1528  0.2401
 4211TIP3    H134192   3.799   3.342   1.820 -0.0215  0.3042 -0.7857
 4211TIP3    H234193   3.650   3.317   1.826  0.1394 -0.2768  1.3009
 4212TIP3   OH234194   0.281   2.813   8.097  0.3036 -0.1899  0.2337
 4212TIP3    H134195   0.300   2.838   8.188 -0.6085  0.0099  0.3730
 4212TIP3    H234196   0.257   2.721   8.102  1.5325 -0.5457  0.0059
 4213TIP3   OH234197   2.198   3.487   0.278  0.5483  0.0195  0.2830
 4213TIP3    H134198   2.280   3.531   0.254  1.3374 -1.0782  0.8537
 4213TIP3    H234199   2.226   3.413   0.333 -0.9217  0.2832  1.4412
 4214TIP3   OH234200   3.262   5.471   7.294 -0.1731  0.0150  0.4874
 4214TIP3    H134201   3.295   5.508   7.376  2.2560 -0.1356 -0.3273
 4214TIP3    H234202   3.328   5.407   7.269 -1.7528 -1.1882 -0.7275
 4215TIP3   OH234203   6.703   1.210   0.647  0.4222  0.7673 -0.4548
 4215TIP3    H134204   6.678   1.267   0.720 -1.8185  0.6299 -1.0254
 4215TIP3    H234205   6.713   1.270   0.573  2.1819  0.8446 -0.1929
 4216TIP3   OH234206   5.118   5.960   0.125 -0.8292  0.0283 -0.0216
 4216TIP3    H134207   5.067   6.002   0.194 -1.1679  0.1666 -0.3495
 4216TIP3    H234208   5.116   5.867   0.145 -1.3860  0.0115 -0.1434
 4217TIP3   OH234209   3.351   0.958   8.362 -0.3142 -0.1376 -0.4428
 4217TIP3    H134210   3.324   0.932   8.274 -0.6709  0.0879 -0.3995
 4217TIP3    H234211   3.414   0.891   8.388  1.1804  0.7559 -1.5782
 4218TIP3   OH234212   3.907   6.836   1.032 -1.0424 -0.4210  0.2619
 4218TIP3    H134213   3.827   6.782   1.029 -0.9909 -0.5378  0.8687
 4218TIP3    H234214   3.938   6.827   1.122 -1.6418  1.5063  0.7005
 4219TIP3   OH234215   4.145   3.044   0.953 -0.2034  0.1065 -0.1485
 4219TIP3    H134216   4.212   3.109   0.931 -1.1419  0.6867 -1.4028
 4219TIP3    H234217   4.181   2.961   0.920  0.0267  0.3711 -0.5828
 4220TIP3   OH234218   4.735   1.050   7.465 -0.2515 -0.2070  0.0389
 4220TIP3    H134219   4.665   1.078   7.405 -0.1678 -0.0974 -0.0074
 4220TIP3    H234220   4.816   1.070   7.419 -0.1785  0.2822  0.3657
 4221TIP3   OH234221   1.536   5.213   8.549  0.3960  0.0088 -0.0530
 4221TIP3    H134222   1.619   5.258   8.565  0.1301  2.2371 -3.6936
 4221TIP3    H234223   1.469   5.271   8.586  0.2795 -1.3259  2.0285
 4222TIP3   OH234224   4.559   5.846   1.545 -0.8404  0.0061  0.1085
 4222TIP3    H134225   4.591   5.893   1.622 -1.0077 -1.1076  0.8890
 4222TIP3    H234226   4.476   5.888   1.523 -0.7665  0.3641  0.5063
 4223TIP3   OH234227   4.569   3.871   7.431 -0.5566 -0.3892  0.3763
 4223TIP3    H134228   4.553   3.915   7.347  0.2209  0.1314  0.4868
 4223TIP3    H234229   4.556   3.939   7.497  1.3532 -0.0940  0.5048
 4224TIP3   OH234230   4.589   4.458   2.133  0.0097 -0.2432 -0.0970
 4224TIP3    H134231   4.684   4.452   2.144 -0.0109 -2.4559 -0.6281
 4224TIP3    H234232   4.578   4.508   2.052  0.6355  1.3080  0.7276
 4225TIP3   OH234233   5.676   5.651   8.349  0.4228  0.1888 -1.0643
 4225TIP3    H134234   5.686   5.625   8.257 -3.5015  1.0302 -1.9228
 4225TIP3    H234235   5.747   5.713   8.364  1.9826 -0.9736 -3.0728
 4226TIP3   OH234236   0.210   2.317   1.645  0.1753 -0.2962 -0.2244
 4226TIP3    H134237   0.262   2.368   1.582 -1.0403 -1.8564 -2.6633
 4226TIP3    H234238   0.250   2.230   1.644  1.7459  0.2057  3.2908
 4227TIP3   OH234239   3.703   1.457   8.470 -0.4049  0.2319 -0.1785
 4227TIP3    H134240   3.765   1.530   8.471  0.2790 -0.3057 -1.2603
 4227TIP3    H234241   3.646   1.473   8.545  0.4993  1.2132  0.3293
 4228TIP3   OH234242   3.863   5.249   7.571 -0.5845 -0.0442 -0.6646
 4228TIP3    H134243   3.900   5.180   7.626  1.2329  1.4654  0.1112
 4228TIP3    H234244   3.796   5.290   7.626  0.7694  1.0325  0.2441
 4229TIP3   OH234245   0.316   5.961   8.038  0.1260 -0.6678 -0.4964
 4229TIP3    H134246   0.327   5.989   8.129 -0.0636 -1.6240 -0.1656
 4229TIP3    H234247   0.230   5.920   8.036  0.0214 -0.4162 -1.1685
 4230TIP3   OH234248   6.898   0.472   7.662  0.1693 -0.4409  0.1401
 4230TIP3    H134249   6.987   0.435   7.664 -1.2926 -4.4037  2.2240
 4230TIP3    H234250   6.896   0.532   7.737  1.7123  1.7850 -1.4723
 4231TIP3   OH234251   3.440   0.989   7.410  0.2972 -0.3858 -0.0198
 4231TIP3    H134252   3.398   0.930   7.347 -0.2712 -2.3196  2.0187
 4231TIP3    H234253   3.403   1.075   7.391  0.1295 -0.8952 -2.2577
 4232TIP3   OH234254   1.713   0.771   1.913 -0.3556  0.3349 -0.3282
 4232TIP3    H134255   1.768   0.814   1.979  0.1967 -0.6104 -0.1618
 4232TIP3    H234256   1.632   0.823   1.913  0.5173  1.7661 -0.5926
 4233TIP3   OH234257   2.895   6.729   8.242  0.4168  0.1073  0.1906
 4233TIP3    H134258   2.979   6.771   8.224  0.5371  0.1548  0.8557
 4233TIP3    H234259   2.846   6.794   8.293 -0.1567  0.2123 -0.4720
 4234TIP3   OH234260   3.934   1.624   8.488  0.6335  0.4792 -0.3558
 4234TIP3    H134261   3.896   1.678   8.557 -1.5605 -2.0740  0.6262
 4234TIP3    H234262   4.000   1.571   8.532  0.8585  0.4733 -0.6995
 4235TIP3   OH234263   2.502   2.348   8.011 -0.7250  0.8003  0.0278
 4235TIP3    H134264   2.575   2.408   8.026 -0.1830  0.0166  0.6271
 4235TIP3    H234265   2.540   2.260   8.020 -1.9128  0.3731  1.3545
 4236TIP3   OH234266   1.856   6.066   7.664 -0.1343  0.2484  0.1556
 4236TIP3    H134267   1.951   6.070   7.674  0.3422 -2.7826 -1.8226
 4236TIP3    H234268   1.842   6.077   7.569 -1.8695  1.4002  0.5061
 4237TIP3   OH234269   0.739   0.076   8.477  0.5945 -0.4341 -0.3049
 4237TIP3    H134270   0.705  -0.012   8.496  0.3854 -0.0944  1.0498
 4237TIP3    H234271   0.808   0.089   8.542  0.5047  0.4689 -0.3812
 4238TIP3   OH234272   4.054   4.963   0.578  0.0208 -0.6067 -0.2816
 4238TIP3    H134273   4.001   5.039   0.555  0.6808  0.3293  1.1540
 4238TIP3    H234274   4.100   4.940   0.497 -1.5442 -0.6184 -1.1909
 4239TIP3   OH234275   6.155   6.672   1.177 -0.1471  0.1561 -0.2575
 4239TIP3    H134276   6.229   6.638   1.128 -0.0259  2.0040 -1.4366
 4239TIP3    H234277   6.080   6.665   1.117  0.1405  3.1036 -1.1371
 4240TIP3   OH234278   0.385   5.741   0.245  0.3483  0.4807  0.1743
 4240TIP3    H134279   0.423   5.671   0.298 -1.1087 -1.9298 -1.6739
 4240TIP3    H234280   0.448   5.755   0.174  1.0540  1.7463  1.0269
 4241TIP3   OH234281   1.963   2.038   2.305  0.4220  0.5852 -0.3776
 4241TIP3    H134282   1.893   2.099   2.282 -1.9098 -1.4209  0.9375
 4241TIP3    H234283   1.939   1.956   2.262  0.8564 -0.7032  1.7089
 4242TIP3   OH234284   2.869   0.930   1.142  0.0085 -0.1998  0.1742
 4242TIP3    H134285   2.815   0.854   1.165 -0.7181  0.3490  0.3379
 4242TIP3    H234286   2.931   0.938   1.215  1.1802 -1.6078 -0.6419
 4243TIP3   OH234287   6.123   2.776   8.372 -0.6617  0.8638  0.5490
 4243TIP3    H134288   6.177   2.739   8.442 -0.4199 -0.1978 -0.1859
 4243TIP3    H234289   6.035   2.744   8.389 -0.4090 -0.3090 -0.2271
 4244TIP3   OH234290   6.856   3.075   1.890 -0.1157 -0.4122 -0.1706
 4244TIP3    H134291   6.813   3.128   1.823 -0.0940  0.6936  0.6557
 4244TIP3    H234292   6.839   3.122   1.972  1.4209 -0.7279  0.3605
 4245TIP3   OH234293   0.337   4.435   1.681  0.1955  0.0941 -0.3707
 4245TIP3    H134294   0.366   4.357   1.729 -0.5571  0.5853  0.9340
 4245TIP3    H234295   0.403   4.501   1.701  1.9252 -0.6478 -3.0339
 4246TIP3   OH234296   2.840   5.969   7.682  0.1588  0.6331  0.1948
 4246TIP3    H134297   2.929   5.977   7.647  0.6856 -0.1494  1.2874
 4246TIP3    H234298   2.841   6.022   7.762 -0.7776  1.7285 -0.4890
 4247TIP3   OH234299   2.374   6.252   1.651  0.2040  0.3102 -0.8986
 4247TIP3    H134300   2.406   6.165   1.675 -0.6795  0.2640  0.2148
 4247TIP3    H234301   2.443   6.289   1.597  2.0005  0.0795  1.0939
 4248TIP3   OH234302   1.551   4.537   0.198  0.0736  0.9780 -0.7044
 4248TIP3    H134303   1.475   4.595   0.206 -0.9246 -0.3821  0.1406
 4248TIP3    H234304   1.527   4.476   0.128  0.5599  0.7796 -0.6979
 4249TIP3   OH234305   1.965   1.813   8.493 -0.1650 -0.5777  0.1012
 4249TIP3    H134306   1.925   1.783   8.411  1.5331 -1.1096 -0.5673
 4249TIP3    H234307   1.964   1.736   8.550  2.2240 -1.3913 -0.8527
 4250TIP3   OH234308   6.911   3.922   0.900 -0.3548  0.2561  0.1247
 4250TIP3    H134309   6.992   3.887   0.937  0.1403  1.4170  0.2119
 4250TIP3    H234310   6.882   3.856   0.837 -0.2180 -0.9095  1.2493
 4251TIP3   OH234311   1.611   0.795   1.521  0.2245  0.2128 -0.0243
 4251TIP3    H134312   1.705   0.812   1.509  1.3078 -0.1306  5.3543
 4251TIP3    H234313   1.570   0.879   1.500  2.3548  1.7167  1.2466
 4252TIP3   OH234314   0.038   1.506   0.095 -0.2189  0.0039  0.0127
 4252TIP3    H134315  -0.035   1.566   0.108 -0.9578 -0.9694  0.5365
 4252TIP3    H234316   0.097   1.524   0.168 -0.5741 -0.0825  0.3301
 4253TIP3   OH234317   5.279   3.008   8.135  0.0085 -0.1078 -0.3120
 4253TIP3    H134318   5.257   3.101   8.125  1.9192  0.6173  1.2736
 4253TIP3    H234319   5.243   2.965   8.058 -3.7309  1.3643  0.4029
 4254TIP3   OH234320   5.761   1.449   1.403  0.0019  0.5788  0.6871
 4254TIP3    H134321   5.843   1.462   1.355 -0.6919  0.4626 -0.5800
 4254TIP3    H234322   5.779   1.482   1.491  1.6066 -0.0596  0.6304
 4255TIP3   OH234323   3.297   1.644   7.668  0.6619  0.1589  0.4811
 4255TIP3    H134324   3.302   1.589   7.589 -1.6869  0.7694 -0.1698
 4255TIP3    H234325   3.280   1.732   7.635 -0.6440  0.3761  1.6461
 4256TIP3   OH234326   3.062   2.836   0.066 -0.2436 -0.1908  0.7503
 4256TIP3    H134327   3.108   2.912   0.032  0.7895 -1.0718  0.1053
 4256TIP3    H234328   2.970   2.851   0.045  0.4196 -1.4304 -4.2147
 4257TIP3   OH234329   4.841   4.607   1.638 -0.3371  0.4562 -0.2423
 4257TIP3    H134330   4.876   4.557   1.564  0.7683 -0.4587  0.8575
 4257TIP3    H234331   4.760   4.645   1.604  1.6508  2.7016 -2.9312
 4258TIP3   OH234332   3.734   4.487   0.631  0.6656 -0.1760  0.2160
 4258TIP3    H134333   3.821   4.451   0.647  0.4098 -0.6556  0.5703
 4258TIP3    H234334   3.674   4.419   0.663  0.1677  0.2689  0.2374
 4259TIP3   OH234335   5.207   2.777   1.045  0.2052 -0.3298 -0.0508
 4259TIP3    H134336   5.246   2.703   0.997 -1.2740 -1.0707 -0.1788
 4259TIP3    H234337   5.115   2.752   1.055 -0.1097  1.0886  0.7435
 4260TIP3   OH234338   0.988   6.224   0.191  0.4422 -0.0323 -0.4856
 4260TIP3    H134339   0.916   6.211   0.130  0.4735 -2.2093 -0.1460
 4260TIP3    H234340   1.053   6.159   0.165  1.8062  1.1196 -0.0685
 4261TIP3   OH234341   6.078   2.726   1.300  0.0245 -0.1477  0.0992
 4261TIP3    H134342   6.002   2.772   1.262  0.3883 -0.3380 -0.8871
 4261TIP3    H234343   6.083   2.644   1.252  0.8198 -0.1697  0.2121
 4262TIP3   OH234344   5.162   0.372   7.441 -0.3343  0.3617  0.3258
 4262TIP3    H134345   5.091   0.425   7.407 -0.6911  0.0479  0.5684
 4262TIP3    H234346   5.157   0.290   7.391 -0.0121  0.4228  0.1954
 4263TIP3   OH234347   5.011   5.020   6.630  0.1255 -0.2194 -0.3330
 4263TIP3    H134348   4.970   4.942   6.594  2.4783 -1.6481 -0.0940
 4263TIP3    H234349   5.072   5.049   6.563 -2.0570  2.6784 -1.2583
 4264TIP3   OH234350   6.685   5.749   1.439 -0.6050  0.1330 -0.7914
 4264TIP3    H134351   6.673   5.811   1.366 -0.0479 -0.0112 -1.0115
 4264TIP3    H234352   6.704   5.804   1.515 -0.8171  0.2675 -0.8366
 4265TIP3   OH234353   4.031   0.223   8.253 -0.3718  0.0223 -0.2528
 4265TIP3    H134354   4.006   0.161   8.185 -0.4263  0.4947 -0.6661
 4265TIP3    H234355   4.110   0.185   8.292 -0.5216 -0.4073 -0.3636
 4266TIP3   OH234356   3.864   6.142   1.333 -0.0603 -0.0077  0.0200
 4266TIP3    H134357   3.871   6.238   1.340 -1.9936  0.3754 -2.2882
 4266TIP3    H234358   3.784   6.121   1.381 -1.4275  0.0024 -2.1397
 4267TIP3   OH234359   3.765   3.752   2.426 -0.4626 -0.1077 -0.0635
 4267TIP3    H134360   3.680   3.748   2.468 -0.9253 -0.3053 -0.9923
 4267TIP3    H234361   3.757   3.821   2.360  0.4200  0.5843  0.5302
 4268TIP3   OH234362   1.681   0.938   2.430  0.1953 -0.2403  0.3724
 4268TIP3    H134363   1.672   0.876   2.502 -0.5482 -1.0026 -0.3538
 4268TIP3    H234364   1.692   1.023   2.472  0.7612 -0.8027  1.3784
 4269TIP3   OH234365   1.217   6.395   0.298  0.4108 -0.1112  0.0114
 4269TIP3    H134366   1.220   6.439   0.384 -0.1920  0.4615 -0.2528
 4269TIP3    H234367   1.144   6.334   0.305  0.0636  0.2733 -0.2509
 4270TIP3   OH234368   1.344   0.809   0.348 -0.0118 -0.1721  0.6766
 4270TIP3    H134369   1.340   0.714   0.337 -0.5731 -0.2289  1.3062
 4270TIP3    H234370   1.437   0.831   0.335  0.0810 -0.7733  0.2985
 4271TIP3   OH234371   4.746   2.394   7.095  0.3773 -0.4448 -0.5344
 4271TIP3    H134372   4.669   2.402   7.152  0.8964 -2.0171  0.4310
 4271TIP3    H234373   4.712   2.412   7.007 -0.7072  0.6825  0.0836
 4272TIP3   OH234374   2.591   2.122   6.613 -0.3009 -0.1427  0.2339
 4272TIP3    H134375   2.565   2.183   6.545 -0.0700 -1.0377 -0.6880
 4272TIP3    H234376   2.508   2.084   6.644 -0.2815 -2.0277 -1.7814
 4273TIP3   OH234377   5.257   3.933   1.830  0.0516 -0.4890 -0.3618
 4273TIP3    H134378   5.351   3.923   1.847 -0.0968  0.1375  0.8855
 4273TIP3    H234379   5.221   3.966   1.912 -1.4950 -2.0611 -0.3498
 4274TIP3   OH234380   4.271   1.168   1.628  0.2161  0.1633  0.0744
 4274TIP3    H134381   4.238   1.078   1.633  0.0464  0.2446  0.5158
 4274TIP3    H234382   4.197   1.222   1.657  0.8698  0.3174  1.5593
 4275TIP3   OH234383   0.324   1.258   8.119 -0.0758 -0.1447  0.5060
 4275TIP3    H134384   0.342   1.292   8.207  0.1675 -0.9612  0.7771
 4275TIP3    H234385   0.228   1.254   8.114 -0.1221  0.9772  0.3127
 4276TIP3   OH234386   0.180   6.605   2.044  0.0331 -0.0844 -0.0939
 4276TIP3    H134387   0.254   6.634   1.991  0.8627 -1.0094  0.5162
 4276TIP3    H234388   0.171   6.671   2.112  1.1630 -0.6230  0.6086
 4277TIP3   OH234389   1.717   5.448   8.084  0.0672  0.1389  0.2480
 4277TIP3    H134390   1.703   5.526   8.137 -0.4494  0.3939 -0.2513
 4277TIP3    H234391   1.709   5.478   7.994 -2.1725 -0.8147  0.0605
 4278TIP3   OH234392   0.680   2.155   7.558  0.2525  0.1315 -0.1696
 4278TIP3    H134393   0.763   2.186   7.523  1.1618 -1.4757  0.4609
 4278TIP3    H234394   0.617   2.168   7.487  1.2693  0.3630 -1.0485
 4279TIP3   OH234395   0.830   6.537   2.197  0.1763  0.1680  0.6154
 4279TIP3    H134396   0.792   6.528   2.109 -1.8032 -2.2128  1.5846
 4279TIP3    H234397   0.912   6.488   2.192  0.1853  0.2271  0.0290
 4280TIP3   OH234398   0.678   3.520   7.456 -0.4721  0.1355  0.4024
 4280TIP3    H134399   0.697   3.458   7.385 -2.1241  1.8082 -1.6433
 4280TIP3    H234400   0.599   3.485   7.498 -1.6526  0.9669 -1.0209
 4281TIP3   OH234401   1.298   3.659   0.610  0.5722 -0.6180 -0.2105
 4281TIP3    H134402   1.238   3.728   0.636 -0.9113 -1.6720 -0.6714
 4281TIP3    H234403   1.340   3.693   0.531  1.4939  0.6032  0.7614
 4282TIP3   OH234404   6.600   3.332   6.519  0.4747 -0.1972  0.2740
 4282TIP3    H134405   6.516   3.288   6.537  0.1666  0.7492  1.2931
 4282TIP3    H234406   6.655   3.264   6.481 -0.5699 -0.9916  0.1283
 4283TIP3   OH234407   2.031   3.152   7.505  0.9714  0.2367  0.2424
 4283TIP3    H134408   2.015   3.107   7.422 -0.8160 -0.4028  0.8851
 4283TIP3    H234409   2.027   3.245   7.483 -0.2923  0.0782 -0.2735
 4284TIP3   OH234410   5.911   2.955   0.567 -0.0216  0.5514  0.2705
 4284TIP3    H134411   5.974   2.989   0.631 -1.0993  1.2214  1.0041
 4284TIP3    H234412   5.826   2.963   0.610 -0.5622 -0.9757 -0.4411
 4285TIP3   OH234413   2.719   1.253   7.779 -0.0518 -0.5607 -0.3834
 4285TIP3    H134414   2.730   1.313   7.705  1.4726 -0.3627 -0.0416
 4285TIP3    H234415   2.792   1.275   7.838 -0.4583 -1.6155  0.5381
 4286TIP3   OH234416   4.241   4.923   8.413  1.0863  0.0754  0.1688
 4286TIP3    H134417   4.240   4.853   8.477  1.5109 -0.3615 -0.2868
 4286TIP3    H234418   4.153   4.960   8.414  0.9888 -0.1786  0.7196
 4287TIP3   OH234419   1.523   2.120   7.670  0.6309 -0.6405 -0.2862
 4287TIP3    H134420   1.591   2.080   7.617  0.2660 -0.2726 -1.0504
 4287TIP3    H234421   1.509   2.059   7.742  1.6765 -0.7753 -0.1827
 4288TIP3   OH234422   4.937   0.051   1.130  0.0064 -0.3777  0.1910
 4288TIP3    H134423   4.916   0.119   1.067 -0.4730  1.0316  1.7912
 4288TIP3    H234424   5.008   0.088   1.183 -0.5199 -0.9331  1.3287
 4289TIP3   OH234425   4.803   4.538   7.223 -0.4873 -0.3300 -0.1952
 4289TIP3    H134426   4.859   4.512   7.150  1.9129  1.4921  0.8350
 4289TIP3    H234427   4.774   4.456   7.263  0.4005 -1.3345 -1.5514
 4290TIP3   OH234428   1.588   1.299   0.824 -0.3852 -0.0154 -0.0612
 4290TIP3    H134429   1.669   1.256   0.852 -1.3677 -1.3227  0.8548
 4290TIP3    H234430   1.579   1.375   0.881 -0.8098 -0.9803  1.1841
 4291TIP3   OH234431   4.958   2.573   6.823 -0.2690 -0.6613  0.4489
 4291TIP3    H134432   4.882   2.630   6.816 -0.0832 -0.3482  0.9084
 4291TIP3    H234433   4.986   2.559   6.733 -0.4569 -0.2142  0.3188
 4292TIP3   OH234434   0.476   3.070   1.175  0.2666  0.6372 -0.5319
 4292TIP3    H134435   0.535   3.009   1.130  1.1331  0.6938  0.5061
 4292TIP3    H234436   0.493   3.057   1.268 -0.7961  1.2300 -0.2338
 4293TIP3   OH234437   0.793   5.407   3.219  0.2766  0.1360  0.8481
 4293TIP3    H134438   0.815   5.375   3.131  2.0557  0.3586  1.1769
 4293TIP3    H234439   0.725   5.347   3.250 -0.9537  0.4924 -0.9372
 4294TIP3   OH234440   2.838   5.622   7.570  0.4915  0.2675  0.0203
 4294TIP3    H134441   2.781   5.698   7.572  0.2874  0.1389 -0.6597
 4294TIP3    H234442   2.788   5.555   7.522  0.9888 -0.0242 -0.1020
 4295TIP3   OH234443   6.287   4.107   0.083  0.5043  0.7616 -0.6965
 4295TIP3    H134444   6.369   4.069   0.054  1.5053  1.1855  1.3829
 4295TIP3    H234445   6.265   4.172   0.016  1.6484  0.3772 -1.4649
 4296TIP3   OH234446   1.381   6.503   1.097 -0.3758 -0.2485  0.1988
 4296TIP3    H134447   1.469   6.515   1.133  0.3038 -0.3863 -1.3548
 4296TIP3    H234448   1.395   6.468   1.009 -1.7759  3.4440 -1.7025
 4297TIP3   OH234449   0.644   6.010   7.577 -0.2882  0.6617  0.0621
 4297TIP3    H134450   0.613   6.033   7.664  2.8151  1.5805  1.0173
 4297TIP3    H234451   0.721   5.956   7.591 -1.0747 -1.2345 -2.1754
 4298TIP3   OH234452   6.304   5.081   1.169 -0.6058 -0.3676 -0.7435
 4298TIP3    H134453   6.286   5.165   1.128  0.6874 -0.0280 -0.6606
 4298TIP3    H234454   6.221   5.055   1.209 -0.9660  0.9700 -0.5822
 4299TIP3   OH234455   1.628   6.651   8.172 -0.0361  0.5022  0.2341
 4299TIP3    H134456   1.676   6.667   8.253 -1.7804 -0.0350  1.4381
 4299TIP3    H234457   1.633   6.734   8.124  1.2595  0.7372  0.7344
 4300TIP3   OH234458   4.196   4.610   0.699 -0.4630  0.1397  0.3203
 4300TIP3    H134459   4.195   4.704   0.719 -2.6057  0.2430 -0.0891
 4300TIP3    H234460   4.209   4.568   0.784  0.0857  0.7793  0.5664
 4301TIP3   OH234461   5.945   1.900   2.414  0.0119  0.5960  0.2917
 4301TIP3    H134462   5.997   1.846   2.474  0.2706  0.9066  0.3446
 4301TIP3    H234463   6.001   1.911   2.337 -0.1484  0.5675  0.1706
 4302TIP3   OH234464   5.138   0.667   2.261  0.2478  0.1156  0.0948
 4302TIP3    H134465   5.201   0.613   2.309  0.8447  1.3644  0.7589
 4302TIP3    H234466   5.126   0.621   2.178 -1.4703 -2.5490  1.6946
 4303TIP3   OH234467   4.175   5.864   1.029  0.0425  0.0740 -0.0554
 4303TIP3    H134468   4.199   5.948   0.990 -0.1152  0.3242  0.3711
 4303TIP3    H234469   4.147   5.886   1.118 -1.3473 -0.2433 -0.3906
 4304TIP3   OH234470   6.006   2.013   7.607  0.0866  0.0446 -0.5472
 4304TIP3    H134471   6.025   2.045   7.518 -1.6945  0.3268 -0.8594
 4304TIP3    H234472   5.910   2.008   7.610  0.1904 -1.4360  0.8639
 4305TIP3   OH234473   0.438   4.777   2.351 -0.2623 -0.0951 -0.2260
 4305TIP3    H134474   0.411   4.691   2.318 -1.3332  0.5405 -1.0682
 4305TIP3    H234475   0.364   4.834   2.333  0.1308  0.8601  1.0167
 4306TIP3   OH234476   5.403   1.436   7.737  0.1418  0.4327  0.2194
 4306TIP3    H134477   5.482   1.387   7.719  0.0041  0.3631 -0.1927
 4306TIP3    H234478   5.360   1.388   7.808  0.4369  0.4384  0.4006
 4307TIP3   OH234479   2.791   0.634   1.151 -0.2408 -0.0233  0.0535
 4307TIP3    H134480   2.764   0.543   1.160 -2.5343  0.4084 -1.6216
 4307TIP3    H234481   2.727   0.684   1.202  1.6016  0.6874  1.8645
 4308TIP3   OH234482   5.686   1.062   2.121 -0.1956 -0.0243 -0.2558
 4308TIP3    H134483   5.648   1.150   2.123  1.8813  0.9009  0.4568
 4308TIP3    H234484   5.682   1.032   2.211  1.0357  0.2250 -0.1083
 4309TIP3   OH234485   5.841   5.732   0.843  0.1692  0.1910  0.5784
 4309TIP3    H134486   5.886   5.777   0.771  1.4829 -0.7653  0.7674
 4309TIP3    H234487   5.907   5.726   0.912 -0.0140 -1.7901  0.6438
 4310TIP3   OH234488   0.049   3.397   7.029  0.4096  0.0766 -0.3358
 4310TIP3    H134489  -0.004   3.343   6.970  0.1159  0.7018 -0.6428
 4310TIP3    H234490   0.138   3.363   7.018  0.4075  0.3768 -1.3613
 4311TIP3   OH234491   2.417   4.488   7.544 -0.1733  0.4213  0.3003
 4311TIP3    H134492   2.325   4.480   7.568 -0.7083 -0.9883 -1.9854
 4311TIP3    H234493   2.465   4.452   7.618 -1.5414 -0.4712  0.7753
 4312TIP3   OH234494   3.032   0.791   1.550  0.0992  0.2101 -1.1706
 4312TIP3    H134495   3.036   0.751   1.463  1.6838  0.4121 -1.2141
 4312TIP3    H234496   3.089   0.868   1.544  1.6096 -0.7141  0.5107
 4313TIP3   OH234497   1.474   3.427   8.250  0.2187 -0.0791  0.1592
 4313TIP3    H134498   1.528   3.352   8.274  0.0143 -0.0890  0.5940
 4313TIP3    H234499   1.462   3.476   8.332  0.4634  0.5046 -0.1456
 4314TIP3   OH234500   4.955   3.807   7.787  0.0214 -0.3040 -0.0955
 4314TIP3    H134501   4.935   3.894   7.824  2.8735  0.4655 -0.1653
 4314TIP3    H234502   4.872   3.779   7.747 -1.5142  1.5084  1.5805
 4315TIP3   OH234503   5.499   6.706   0.345  0.2982 -0.1636 -0.1822
 4315TIP3    H134504   5.438   6.649   0.391 -0.4011  0.3001 -0.5180
 4315TIP3    H234505   5.581   6.698   0.393 -0.2417 -0.1881  0.7478
 4316TIP3   OH234506   4.467   0.496   2.789 -0.1677 -0.2025  0.1421
 4316TIP3    H134507   4.546   0.442   2.794 -0.3195 -0.3264  1.3285
 4316TIP3    H234508   4.423   0.466   2.710  1.4144  0.5047 -1.0735
 4317TIP3   OH234509   6.312   1.559   8.111  0.2736 -0.6409  0.3889
 4317TIP3    H134510   6.385   1.498   8.118  1.2909  0.3851 -0.7954
 4317TIP3    H234511   6.303   1.596   8.199  0.2969 -1.7282  0.8665
 4318TIP3   OH234512   4.429   3.959   8.119  0.9417 -0.2902 -0.4947
 4318TIP3    H134513   4.505   4.014   8.140  2.3131 -2.1988 -0.1774
 4318TIP3    H234514   4.441   3.936   8.027 -0.8850  1.7278 -1.3253
 4319TIP3   OH234515   6.237   3.652   2.149  0.0240  0.2948 -0.1372
 4319TIP3    H134516   6.326   3.684   2.133 -0.0537  0.3099 -0.5523
 4319TIP3    H234517   6.245   3.557   2.152  0.1039  0.3094  0.1506
 4320TIP3   OH234518   0.460   2.373   0.831  0.2978  0.6003 -0.0348
 4320TIP3    H134519   0.547   2.383   0.871 -0.2296  1.2169  1.0122
 4320TIP3    H234520   0.415   2.312   0.890 -1.0221  2.7229  1.2725
 4321TIP3   OH234521   2.266   6.370   7.997  0.2261 -0.2010  0.3706
 4321TIP3    H134522   2.258   6.387   7.903 -0.5752  0.6584  0.5815
 4321TIP3    H234523   2.337   6.306   8.003 -1.8127 -2.8096 -1.0904
 4322TIP3   OH234524   2.702   3.363   0.200 -0.6511 -0.0366  0.3371
 4322TIP3    H134525   2.621   3.375   0.251 -0.8211  0.2594  0.0016
 4322TIP3    H234526   2.689   3.280   0.154  0.6864 -1.8638  2.9615
 4323TIP3   OH234527   5.754   3.311   1.782  0.3696  0.3958 -0.4788
 4323TIP3    H134528   5.788   3.321   1.693  0.9622 -1.4835 -0.5181
 4323TIP3    H234529   5.717   3.223   1.783 -0.7262  0.8394  0.8077
 4324TIP3   OH234530   2.879   1.592   6.316 -0.4477 -0.2917 -0.4182
 4324TIP3    H134531   2.891   1.541   6.396  0.2583  1.3917  0.6008
 4324TIP3    H234532   2.941   1.665   6.324 -1.4619  0.7815 -1.7780
 4325TIP3   OH234533   0.656   0.532   7.645 -1.1183 -0.2218  0.8614
 4325TIP3    H134534   0.670   0.452   7.595  0.4972  1.3820 -1.4308
 4325TIP3    H234535   0.742   0.551   7.684  0.2928  3.1812 -3.1874
 4326TIP3   OH234536   5.113   6.028   8.417 -0.4864 -0.4448 -0.3618
 4326TIP3    H134537   5.121   5.991   8.505 -0.8823  0.6898  0.1747
 4326TIP3    H234538   5.155   6.114   8.423 -0.3116 -0.4467 -1.3497
 4327TIP3   OH234539   1.259   2.221   2.288  0.0973  0.5711 -0.2151
 4327TIP3    H134540   1.351   2.209   2.312  0.3537 -2.1965 -2.0643
 4327TIP3    H234541   1.211   2.167   2.351 -0.1367  0.9292 -0.0852
 4328TIP3   OH234542   5.670   1.000   2.412 -0.1113  0.2233  1.0598
 4328TIP3    H134543   5.705   1.042   2.491 -1.1889  0.7198  1.2906
 4328TIP3    H234544   5.575   1.015   2.417 -0.5266 -1.9635  0.9878
 4329TIP3   OH234545   6.801   2.495   0.744 -0.1057  0.2043 -0.0487
 4329TIP3    H134546   6.857   2.507   0.820  1.4206 -2.0145 -0.7368
 4329TIP3    H234547   6.734   2.564   0.752  2.0778  2.3099  1.3295
 4330TIP3   OH234548   4.740   2.346   1.057 -0.0987  0.4917 -0.6486
 4330TIP3    H134549   4.806   2.402   1.098  0.1426 -0.6895  0.6481
 4330TIP3    H234550   4.657   2.379   1.091 -0.0162  0.5522 -0.5039
 4331TIP3   OH234551   3.077   2.377   6.894  0.3425  0.4632 -0.4271
 4331TIP3    H134552   3.116   2.442   6.953  0.7493 -0.1830  0.0261
 4331TIP3    H234553   3.065   2.299   6.948  3.5311 -1.1975 -1.8178
 4332TIP3   OH234554   0.542   0.612   0.323 -0.5089  0.1277  0.5017
 4332TIP3    H134555   0.619   0.576   0.279 -0.6883 -1.2700  1.2545
 4332TIP3    H234556   0.577   0.660   0.398 -0.3125  0.3872  0.2407
 4333TIP3   OH234557   4.433   4.600   7.513 -0.5684 -0.1938 -0.1259
 4333TIP3    H134558   4.347   4.598   7.471 -0.6854 -2.0352  0.1045
 4333TIP3    H234559   4.495   4.603   7.440 -0.8185  0.2092 -0.3219
 4334TIP3   OH234560   5.125   2.237   7.597 -0.1990 -0.0935  0.2925
 4334TIP3    H134561   5.203   2.216   7.648 -0.0018 -0.2205 -0.0568
 4334TIP3    H234562   5.149   2.317   7.550 -0.4639  0.1568  0.5795
 4335TIP3   OH234563   3.430   0.304   0.922  0.9073 -0.3128  0.1829
 4335TIP3    H134564   3.426   0.396   0.894  0.4613  0.2563  1.9409
 4335TIP3    H234565   3.358   0.295   0.984 -0.4096 -2.4803 -1.5308
 4336TIP3   OH234566   2.930   5.452   7.231 -0.0082  0.0236  0.2581
 4336TIP3    H134567   2.901   5.406   7.152 -0.5838 -3.2587  2.2268
 4336TIP3    H234568   2.852   5.499   7.261 -0.1648  0.1767 -0.3727
 4337TIP3   OH234569   4.197   5.871   0.024 -0.2351  0.3109 -0.3865
 4337TIP3    H134570   4.233   5.949  -0.017  0.4342  0.0189 -0.3578
 4337TIP3    H234571   4.158   5.902   0.105  0.1436  0.5952 -0.3106
 4338TIP3   OH234572   2.434   2.665   6.596 -0.6234  0.5206  0.0775
 4338TIP3    H134573   2.497   2.595   6.613 -0.4428  0.7300  0.2801
 4338TIP3    H234574   2.488   2.741   6.573 -0.7804  0.8177  0.6687
 4339TIP3   OH234575   6.194   2.987   8.242 -0.0579  0.3495  0.5546
 4339TIP3    H134576   6.207   2.899   8.277 -1.4136 -0.2618 -0.4185
 4339TIP3    H234577   6.104   3.010   8.265  0.6197  1.9662  1.7827
 4340TIP3   OH234578   2.992   2.692   0.297  0.2063  0.3033 -0.0367
 4340TIP3    H134579   3.061   2.698   0.363 -0.1552 -1.0551  0.4901
 4340TIP3    H234580   3.021   2.750   0.227  1.2443  0.7473  0.7375
 4341TIP3   OH234581   1.656   0.220   0.292 -0.3061 -0.9097  0.0058
 4341TIP3    H134582   1.640   0.266   0.375  3.2390  0.7234 -0.0367
 4341TIP3    H234583   1.680   0.131   0.319 -0.1979 -0.6897  0.6624
 4342TIP3   OH234584   5.558   1.757   2.131 -0.4140  0.0108 -0.3206
 4342TIP3    H134585   5.478   1.787   2.174 -0.5411  2.0360 -1.8473
 4342TIP3    H234586   5.543   1.663   2.117 -1.1161 -0.3453  2.2790
 4343TIP3   OH234587   1.793   4.240   1.099  0.2113  0.2477  0.3017
 4343TIP3    H134588   1.851   4.227   1.024  0.1834  0.6222  0.2137
 4343TIP3    H234589   1.705   4.236   1.062  0.2036  0.8880  0.2332
 4344TIP3   OH234590   4.369   3.890   1.271  0.6573 -0.1560  0.2299
 4344TIP3    H134591   4.336   3.967   1.317 -0.0384  0.5904 -1.4029
 4344TIP3    H234592   4.305   3.822   1.288  0.1843  0.2341  0.0509
 4345TIP3   OH234593   3.863   1.827   0.103  0.0834  0.0562  0.1601
 4345TIP3    H134594   3.803   1.883   0.055  0.7823 -1.1340 -2.2458
 4345TIP3    H234595   3.948   1.869   0.093  0.4022 -0.7495 -0.5577
 4346TIP3   OH234596   2.530   0.766   0.112  0.2850 -0.3527  0.5939
 4346TIP3    H134597   2.526   0.826   0.038 -0.4248  0.1785  1.0499
 4346TIP3    H234598   2.623   0.744   0.121  0.7484  1.7133  1.2374
 4347TIP3   OH234599   3.366   0.318   1.932 -0.2480  0.5694  0.1278
 4347TIP3    H134600   3.329   0.340   2.017 -1.6368  0.9860 -0.5611
 4347TIP3    H234601   3.350   0.396   1.878 -3.0011 -1.0818 -1.6393
 4348TIP3   OH234602   0.704   4.754   7.290 -0.5574 -0.1535 -0.0949
 4348TIP3    H134603   0.663   4.776   7.206 -1.7797  1.7168  0.9243
 4348TIP3    H234604   0.789   4.718   7.266 -1.3733 -0.8424 -2.1729
 4349TIP3   OH234605   2.533   2.569   7.779 -0.3986 -0.1876 -0.5604
 4349TIP3    H134606   2.574   2.592   7.863 -3.0131 -0.9445  1.0325
 4349TIP3    H234607   2.603   2.581   7.715  1.5652  0.9871  1.6206
 4350TIP3   OH234608   6.851   3.138   7.151 -0.1468 -0.3217 -0.5763
 4350TIP3    H134609   6.780   3.135   7.214  0.2537 -0.0689 -0.1064
 4350TIP3    H234610   6.899   3.218   7.173  0.3415 -0.5430 -0.8252
 4351TIP3   OH234611   0.144   6.743   0.579 -0.2764 -0.0351  0.9478
 4351TIP3    H134612   0.162   6.823   0.530 -0.3065  0.7419  2.1773
 4351TIP3    H234613   0.078   6.698   0.527 -0.5840  0.9504  0.4563
 4352TIP3   OH234614   1.842   5.767   1.862  1.1201  0.3123  0.4643
 4352TIP3    H134615   1.877   5.766   1.950  1.2405 -1.0409  0.4236
 4352TIP3    H234616   1.786   5.690   1.858  2.3358 -0.5357 -1.1153
 4353TIP3   OH234617   6.647   6.307   2.471  0.2322 -0.9274  0.1458
 4353TIP3    H134618   6.573   6.284   2.527 -2.0744  2.7370 -1.0282
 4353TIP3    H234619   6.632   6.258   2.390  1.3476 -3.1363  1.1998
 4354TIP3   OH234620   0.923   1.009   1.478  0.6338 -0.4561  0.2353
 4354TIP3    H134621   0.946   0.982   1.567 -1.1449 -0.0618  0.8561
 4354TIP3    H234622   0.827   0.999   1.474  0.8521 -2.9380 -2.4690
 4355TIP3   OH234623   5.205   0.622   7.186  0.4067  0.3364 -0.3888
 4355TIP3    H134624   5.119   0.606   7.225  0.2321  0.5012 -0.7030
 4355TIP3    H234625   5.230   0.537   7.149 -0.4477  0.7069 -1.9139
 4356TIP3   OH234626   1.792   6.004   7.352  0.4735 -0.2206  0.2365
 4356TIP3    H134627   1.718   6.061   7.328  1.1565 -0.2719 -2.2582
 4356TIP3    H234628   1.768   5.918   7.319  0.9095 -0.6152  0.9384
 4357TIP3   OH234629   4.312   1.753   7.086  0.0748  0.3221 -0.0835
 4357TIP3    H134630   4.405   1.775   7.088 -0.0184  1.2514 -2.5340
 4357TIP3    H234631   4.269   1.822   7.136  0.5605  0.8716 -0.4152
 4358TIP3   OH234632   0.657   2.746   7.543 -0.7731 -0.2389  0.0766
 4358TIP3    H134633   0.587   2.812   7.538 -2.1484 -1.6718 -0.3857
 4358TIP3    H234634   0.708   2.772   7.619  0.0664  2.5886 -1.2805
 4359TIP3   OH234635   2.132   6.098   6.958 -0.4266  0.3394 -0.4144
 4359TIP3    H134636   2.076   6.039   7.008 -0.0223 -1.7337 -2.2139
 4359TIP3    H234637   2.071   6.144   6.900 -0.5178 -0.1964 -0.7541
 4360TIP3   OH234638   6.050   6.845   2.522 -0.3070 -0.1612  0.1418
 4360TIP3    H134639   6.113   6.774   2.510 -1.0823 -0.6016 -1.6504
 4360TIP3    H234640   5.971   6.803   2.556 -0.7353 -0.1783 -0.8299
 4361TIP3   OH234641   3.991   6.756   8.231 -0.1456 -0.8691 -0.1844
 4361TIP3    H134642   3.954   6.814   8.164  1.0981  0.8472  0.5318
 4361TIP3    H234643   4.038   6.689   8.181  0.7186  0.3516 -1.0733
 4362TIP3   OH234644   4.980   5.307   1.788  0.0238 -0.1543  0.1316
 4362TIP3    H134645   4.895   5.331   1.753  0.2255 -0.1888 -0.3832
 4362TIP3    H234646   4.970   5.317   1.883 -0.4135  0.2815  0.0424
 4363TIP3   OH234647   4.449   1.996   8.493  0.6237  0.1346 -0.1934
 4363TIP3    H134648   4.487   1.909   8.482  0.0712  0.0141 -1.2142
 4363TIP3    H234649   4.497   2.034   8.567  0.4540 -1.2658  0.6730
 4364TIP3   OH234650   4.158   2.560   0.564 -0.0732  0.1290  0.7138
 4364TIP3    H134651   4.181   2.570   0.657  1.2831 -0.6792  0.4947
 4364TIP3    H234652   4.157   2.649   0.530 -0.7610  0.4547  1.5320
 4365TIP3   OH234653   3.402   0.300   2.361 -0.2332  0.1872 -0.3252
 4365TIP3    H134654   3.329   0.328   2.307 -0.9561  2.0260  1.4688
 4365TIP3    H234655   3.388   0.343   2.446  0.5648 -2.8621  1.5470
 4366TIP3   OH234656   5.733   1.924   7.601 -0.0715  0.4537  0.0882
 4366TIP3    H134657   5.743   1.838   7.559 -0.1801  0.0756  0.8095
 4366TIP3    H234658   5.748   1.906   7.694 -2.3865  0.7799  0.5837
 4367TIP3   OH234659   2.241   6.624   1.581  0.1896  0.0508 -0.3815
 4367TIP3    H134660   2.183   6.590   1.650 -0.3418 -0.1482 -0.9090
 4367TIP3    H234661   2.322   6.646   1.626 -0.2073  0.0855  0.3365
 4368TIP3   OH234662   4.186   0.787   1.559  0.2735 -0.3833 -0.0699
 4368TIP3    H134663   4.184   0.702   1.515  0.8924 -0.2745 -0.3206
 4368TIP3    H234664   4.271   0.790   1.602 -0.0720 -0.2219  0.6168
 4369TIP3   OH234665   2.196   3.330   7.890  0.4217  0.0391 -0.4356
 4369TIP3    H134666   2.105   3.308   7.866 -0.6106 -0.4864  3.3642
 4369TIP3    H234667   2.188   3.410   7.942  1.8358 -1.1903  1.7792
 4370TIP3   OH234668   3.850   6.679   7.971  0.7702  0.0728 -0.5027
 4370TIP3    H134669   3.768   6.680   8.021  2.2355 -1.6468  2.1890
 4370TIP3    H234670   3.844   6.600   7.917  0.2388  0.5528 -1.1674
 4371TIP3   OH234671   6.491   5.900   1.250  0.5419 -0.2746 -0.3534
 4371TIP3    H134672   6.582   5.929   1.246  0.0836  1.1928 -0.6069
 4371TIP3    H234673   6.441   5.980   1.267 -1.0582 -0.3444 -3.9094
 4372TIP3   OH234674   4.419   1.036   0.878  0.6990 -0.6622  0.3981
 4372TIP3    H134675   4.455   1.071   0.796  0.0330 -0.0119  0.3779
 4372TIP3    H234676   4.400   1.113   0.931 -0.8533 -0.9535  0.3244
 4373TIP3   OH234677   4.235   2.518   7.983  0.2710 -0.1167 -0.4828
 4373TIP3    H134678   4.282   2.596   8.013  3.3151 -1.2471 -1.8621
 4373TIP3    H234679   4.181   2.550   7.910  1.7884  0.6727 -1.3052
 4374TIP3   OH234680   1.456   5.645   8.398  0.0457  0.6273 -0.5759
 4374TIP3    H134681   1.470   5.737   8.423 -0.6384  0.7741 -0.7191
 4374TIP3    H234682   1.510   5.633   8.320  1.0741  0.5701  0.1261
 4375TIP3   OH234683   5.192   2.582   8.464  0.1923  0.2537 -0.1785
 4375TIP3    H134684   5.188   2.589   8.368  0.3336 -0.6285 -0.2588
 4375TIP3    H234685   5.286   2.581   8.484  0.2069 -1.2524 -0.1901
 4376TIP3   OH234686   0.167   1.201   7.840 -0.2724 -0.3603 -0.1003
 4376TIP3    H134687   0.222   1.127   7.866  2.5346  1.9685  1.1359
 4376TIP3    H234688   0.169   1.199   7.744 -0.4886 -2.0168 -0.0905
 4377TIP3   OH234689   3.915   0.347   2.271 -0.0021  0.2438 -0.5623
 4377TIP3    H134690   3.899   0.402   2.194 -0.5804  0.5595 -0.2249
 4377TIP3    H234691   3.833   0.349   2.319  0.1322 -0.5255 -0.2911
 4378TIP3   OH234692   6.463   5.280   7.961 -0.4280  0.0331 -0.3869
 4378TIP3    H134693   6.391   5.340   7.981 -0.0370  0.4413 -0.2116
 4378TIP3    H234694   6.430   5.194   7.988 -1.2705  0.0439 -1.3199
 4379TIP3   OH234695   0.619   0.403   1.082  0.0666  1.1441  0.5595
 4379TIP3    H134696   0.525   0.414   1.063  0.3449 -0.1599 -2.0700
 4379TIP3    H234697   0.623   0.332   1.145 -0.6838 -0.3367 -0.9915
 4380TIP3   OH234698   5.923   1.007   8.224 -0.3460  0.0630 -0.1890
 4380TIP3    H134699   5.895   0.949   8.152 -1.0436  0.5726 -0.3398
 4380TIP3    H234700   5.919   0.952   8.302 -2.8211  0.3431 -0.0296
 4381TIP3   OH234701   2.776   3.646   0.274  0.1764 -0.0767 -0.0955
 4381TIP3    H134702   2.719   3.569   0.271 -1.3643  0.9334  1.0957
 4381TIP3    H234703   2.830   3.640   0.195  1.4934 -3.3478  0.9151
 4382TIP3   OH234704   4.885   0.248   1.397  0.1000  0.0386 -0.0278
 4382TIP3    H134705   4.956   0.272   1.457 -0.5438  1.0587  0.3651
 4382TIP3    H234706   4.869   0.328   1.346 -2.4305  0.7176  1.6159
 4383TIP3   OH234707   0.482   5.782   3.081 -0.4311  0.4392 -0.3001
 4383TIP3    H134708   0.575   5.803   3.091 -0.3866 -0.2549  1.0599
 4383TIP3    H234709   0.474   5.693   3.116 -1.4756  0.1749 -1.1552
 4384TIP3   OH234710   6.496   5.165   0.014  0.0195 -0.0600 -0.3162
 4384TIP3    H134711   6.568   5.199  -0.040  0.8285 -0.2855  0.5811
 4384TIP3    H234712   6.486   5.230   0.084  0.7502 -1.0253  0.7163
 4385TIP3   OH234713   4.019   3.677   7.403  0.4087 -0.2333 -0.0121
 4385TIP3    H134714   3.954   3.648   7.466 -2.3583  2.4298 -1.3957
 4385TIP3    H234715   3.997   3.630   7.322 -0.3400  1.2075 -0.6809
 4386TIP3   OH234716   5.553   6.326   8.271 -0.2756 -0.1736  0.0270
 4386TIP3    H134717   5.527   6.418   8.268  0.1473 -0.0638 -0.4872
 4386TIP3    H234718   5.558   6.299   8.179 -0.9930 -0.8892  0.1888
 4387TIP3   OH234719   5.281   6.506   0.970 -0.5464 -0.2779 -0.1075
 4387TIP3    H134720   5.322   6.499   1.055 -0.4175 -1.3765 -0.2579
 4387TIP3    H234721   5.195   6.545   0.988  0.0280  0.8178  0.3441
 4388TIP3   OH234722   0.451   0.645   7.867 -0.5715  0.2734 -0.4969
 4388TIP3    H134723   0.528   0.689   7.905  0.3555 -1.6355 -0.0785
 4388TIP3    H234724   0.407   0.605   7.941 -0.1258 -1.4016 -1.0956
 4389TIP3   OH234725   1.197   1.121   7.288  0.3467 -0.0592 -0.1012
 4389TIP3    H134726   1.193   1.086   7.377  0.4023  0.1066 -0.0344
 4389TIP3    H234727   1.136   1.194   7.288 -0.4645 -0.7156 -0.4945
 4390TIP3   OH234728   1.253   2.467   6.714 -0.5178 -0.2759 -0.3094
 4390TIP3    H134729   1.260   2.487   6.621  0.6757  1.3185  0.0806
 4390TIP3    H234730   1.160   2.480   6.734 -0.2887  2.4516 -0.6788
 4391TIP3   OH234731   3.750   6.749   1.319 -0.0923  0.8754 -1.0461
 4391TIP3    H134732   3.845   6.746   1.312  0.0597  0.8280  0.6243
 4391TIP3    H234733   3.732   6.822   1.379 -1.0842  0.6378 -1.0292
 4392TIP3   OH234734   1.838   4.513   7.599  0.4523  0.2771  0.3363
 4392TIP3    H134735   1.774   4.585   7.601  0.2037  0.0421  0.9592
 4392TIP3    H234736   1.922   4.556   7.613  0.3957  0.5453 -0.1194
 4393TIP3   OH234737   1.625   2.628   1.378  0.8383 -0.4025  0.2853
 4393TIP3    H134738   1.544   2.583   1.354  0.4548  1.3885 -2.1442
 4393TIP3    H234739   1.664   2.573   1.446 -2.6958 -0.9996  2.0284
 4394TIP3   OH234740   2.595   4.769   8.058  0.1401  0.2008  0.2489
 4394TIP3    H134741   2.607   4.753   7.964  0.3833  0.1076  0.2946
 4394TIP3    H234742   2.681   4.753   8.096 -0.3029 -1.2941  0.7024
 4395TIP3   OH234743   4.568   6.347   0.114 -0.0752  0.0627  0.2345
 4395TIP3    H134744   4.541   6.419   0.171 -0.9735 -0.0296 -0.0452
 4395TIP3    H234745   4.569   6.385   0.026  2.0794  0.4144  0.3578
 4396TIP3   OH234746   0.237   0.365   7.618 -0.5698 -0.0944  0.9417
 4396TIP3    H134747   0.282   0.447   7.598 -2.6965  0.8586 -0.2083
 4396TIP3    H234748   0.272   0.302   7.555 -0.6399  0.5707  0.2205
 4397TIP3   OH234749   0.376   4.301   0.447  0.7917  0.1752 -0.4786
 4397TIP3    H134750   0.317   4.362   0.493 -0.6339  0.1040 -2.1212
 4397TIP3    H234751   0.440   4.277   0.513 -0.5005  0.9554  1.1563
 4398TIP3   OH234752   5.753   1.228   7.996 -0.2673  0.0823 -0.4250
 4398TIP3    H134753   5.683   1.292   7.980 -0.8233 -0.2616  0.5799
 4398TIP3    H234754   5.710   1.156   8.041  0.6504 -0.3453 -0.2156
 4399TIP3   OH234755   4.006   6.313   0.765 -0.1330 -0.3607 -0.0956
 4399TIP3    H134756   4.085   6.318   0.818 -0.8547 -0.3330  0.9956
 4399TIP3    H234757   3.987   6.404   0.741 -0.5857 -0.2113  0.7887
 4400TIP3   OH234758   5.319   6.219   2.153 -0.1160 -0.3060  0.4039
 4400TIP3    H134759   5.281   6.207   2.240  0.4254  0.2074  0.7199
 4400TIP3    H234760   5.316   6.313   2.138  0.3972 -0.3258  0.1508
 4401TIP3   OH234761   4.982   1.745   1.453  0.0506  0.5867  0.9537
 4401TIP3    H134762   4.896   1.760   1.492 -1.5068  0.5639 -2.1492
 4401TIP3    H234763   5.012   1.832   1.425  0.8565  0.5367  1.6271
 4402TIP3   OH234764   6.232   5.743   0.615 -0.2750 -0.0374 -0.3192
 4402TIP3    H134765   6.260   5.692   0.539  1.0339  0.5510 -0.2591
 4402TIP3    H234766   6.165   5.690   0.657  1.3044 -1.9029 -0.0468
 4403TIP3   OH234767   5.527   4.091   0.874 -0.4113  0.1328  0.4126
 4403TIP3    H134768   5.557   4.019   0.818 -1.4862  0.8399 -1.1611
 4403TIP3    H234769   5.600   4.108   0.933  0.0047 -1.9899  0.5772
 4404TIP3   OH234770   5.983   5.476   0.120  0.3571 -0.2342 -0.0097
 4404TIP3    H134771   6.020   5.411   0.060  1.0286 -0.7289  0.9274
 4404TIP3    H234772   6.047   5.547   0.120 -0.6754  0.7621 -1.5267
 4405TIP3   OH234773   5.753   6.234   0.364 -0.3044 -0.7770 -0.4956
 4405TIP3    H134774   5.754   6.143   0.394 -0.4293 -2.0846 -3.9334
 4405TIP3    H234775   5.845   6.255   0.348 -0.0227  0.6227  2.4280
 4406TIP3   OH234776   6.523   3.322   0.256  0.9462  0.1581  0.6967
 4406TIP3    H134777   6.554   3.283   0.174  0.9306 -0.1043  0.8137
 4406TIP3    H234778   6.465   3.256   0.294  1.1607  0.1691  1.0495
 4407TIP3   OH234779   1.362   1.389   7.478 -0.0535  0.0583 -0.1130
 4407TIP3    H134780   1.356   1.358   7.388  0.4601  1.8741 -0.8224
 4407TIP3    H234781   1.448   1.430   7.484 -0.4809  0.8461  0.9008
 4408TIP3   OH234782   2.231   4.227   8.341  0.6420 -0.3982 -0.2896
 4408TIP3    H134783   2.233   4.209   8.247  0.6583  2.1225 -0.8518
 4408TIP3    H234784   2.311   4.277   8.358  0.0296  0.2723  0.7720
 4409TIP3   OH234785   0.035   6.861   3.124 -0.3316  0.2384  0.0552
 4409TIP3    H134786  -0.028   6.809   3.173 -1.0834  1.3449  0.2943
 4409TIP3    H234787   0.120   6.824   3.148 -0.8268 -0.6871  0.4305
 4410TIP3   OH234788   5.764   3.401   8.050  0.3405 -0.1187 -0.1051
 4410TIP3    H134789   5.691   3.364   8.000 -0.2416 -0.6312  1.0872
 4410TIP3    H234790   5.738   3.392   8.141  1.7981 -0.0823  0.3428
 4411TIP3   OH234791   0.182   0.650   8.542 -0.2502 -0.3152  0.3943
 4411TIP3    H134792   0.273   0.629   8.563  0.2660 -0.2138 -1.5485
 4411TIP3    H234793   0.144   0.568   8.512 -0.5731 -0.1822  0.4324
 4412TIP3   OH234794   1.051   0.600   1.542  0.0587  0.8949 -0.1690
 4412TIP3    H134795   1.130   0.546   1.551  0.6565  1.8864  0.7938
 4412TIP3    H234796   0.988   0.561   1.603 -1.7541 -2.3607 -3.6477
 4413TIP3   OH234797   5.840   2.961   2.081 -0.0845  1.0925 -0.2311
 4413TIP3    H134798   5.842   2.877   2.127  0.9566  1.3533  0.2487
 4413TIP3    H234799   5.790   3.019   2.139 -1.5055  0.6148 -0.9442
 4414TIP3   OH234800   6.533   3.407   0.895  0.2114  0.4198 -0.3507
 4414TIP3    H134801   6.513   3.314   0.883 -2.7625  1.0815 -1.5376
 4414TIP3    H234802   6.589   3.430   0.821  1.9959 -0.6094  0.6081
 4415TIP3   OH234803   6.659   0.114   0.071 -0.2561  0.2552 -0.2778
 4415TIP3    H134804   6.727   0.175   0.098 -0.4033  0.8572 -1.2149
 4415TIP3    H234805   6.579   0.167   0.068 -0.8531 -0.5115  1.1261
 4416TIP3   OH234806   6.487   4.593   1.951  0.1765  0.5414 -0.4026
 4416TIP3    H134807   6.405   4.598   1.902  1.1900 -0.3140 -2.3412
 4416TIP3    H234808   6.550   4.639   1.896  0.8598  1.9326  1.4609
 4417TIP3   OH234809   3.577   1.456   1.053 -0.3550  0.3105 -0.0956
 4417TIP3    H134810   3.540   1.461   1.141 -1.6447 -2.8656 -0.3223
 4417TIP3    H234811   3.503   1.434   0.996  0.9997 -1.2401 -1.3656
 4418TIP3   OH234812   5.979   1.130   7.336 -0.0834 -0.0279  0.0499
 4418TIP3    H134813   5.899   1.094   7.297  0.4893 -0.6604 -0.5842
 4418TIP3    H234814   5.996   1.074   7.412  0.1020 -0.2955 -0.1866
 4419TIP3   OH234815   0.502   2.663   1.040  0.3402 -0.4386 -0.4620
 4419TIP3    H134816   0.488   2.587   1.096  0.0678  0.5945  0.9237
 4419TIP3    H234817   0.480   2.632   0.952 -1.9543 -1.3764  0.3612
 4420TIP3   OH234818   3.895   5.545   7.111  0.0109  0.1080  0.6728
 4420TIP3    H134819   3.921   5.544   7.203 -2.4150  0.9107  1.4374
 4420TIP3    H234820   3.923   5.630   7.079  0.1646  0.1413  0.8968
 4421TIP3   OH234821   4.642   6.691   8.023  0.4292 -0.2310 -0.0619
 4421TIP3    H134822   4.724   6.700   7.976  1.0972 -0.2312  1.0546
 4421TIP3    H234823   4.652   6.609   8.072 -0.8249 -0.9967 -1.0175
 4422TIP3   OH234824   1.423   4.267   0.086 -0.1951  0.2212 -0.2672
 4422TIP3    H134825   1.378   4.305   0.011 -0.5946  0.5248  0.1169
 4422TIP3    H234826   1.353   4.228   0.139  0.1835 -0.8554 -0.5298
 4423TIP3   OH234827   0.002   5.380   7.628 -0.2528  0.0263  0.0368
 4423TIP3    H134828  -0.080   5.427   7.614  0.2906  1.1111  0.4090
 4423TIP3    H234829   0.054   5.437   7.685  2.1004  0.9618 -2.7898
 4424TIP3   OH234830   3.796   6.495   7.773  0.1596 -0.1224 -0.1157
 4424TIP3    H134831   3.713   6.460   7.743 -1.1845  1.3704  1.6560
 4424TIP3    H234832   3.830   6.545   7.699 -0.7631 -0.3392 -0.6946
 4425TIP3   OH234833   4.332   5.488   7.886  0.2871  0.4872  0.2660
 4425TIP3    H134834   4.270   5.460   7.819  0.6931  0.3908 -0.0790
 4425TIP3    H234835   4.339   5.414   7.946 -0.7148  0.8877  0.8919
 4426TIP3   OH234836   2.977   4.145   6.803 -0.1678  0.1712 -0.2286
 4426TIP3    H134837   2.930   4.082   6.748  2.0292 -1.6475 -0.1767
 4426TIP3    H234838   3.004   4.214   6.743  1.6897 -1.4967 -1.4009
 4427TIP3   OH234839   3.383   6.068   8.175 -0.6999 -0.5679 -0.2531
 4427TIP3    H134840   3.311   6.053   8.236 -0.4523 -0.5486  0.0545
 4427TIP3    H234841   3.453   6.010   8.207 -0.8744 -1.2448 -1.0717
 4428TIP3   OH234842   0.847   3.558   7.021  0.2979 -0.1501 -0.0696
 4428TIP3    H134843   0.811   3.638   6.982 -2.5069 -0.6935  1.1419
 4428TIP3    H234844   0.874   3.505   6.947  0.0953  0.9918 -0.9913
 4429TIP3   OH234845   5.601   6.009   6.939  0.3667 -0.6367 -0.0937
 4429TIP3    H134846   5.583   5.936   6.881 -0.3812  0.7615 -1.7093
 4429TIP3    H234847   5.693   6.031   6.924 -0.2954  0.9423 -2.3212
 4430TIP3   OH234848   1.687   5.547   0.990  0.4932 -0.3555 -0.0049
 4430TIP3    H134849   1.661   5.639   0.998  0.7694 -0.0802 -1.8644
 4430TIP3    H234850   1.609   5.503   0.955  0.8850 -0.4923 -0.7242
 4431TIP3   OH234851   1.479   2.600   7.076 -0.3949  0.1384 -0.5513
 4431TIP3    H134852   1.461   2.671   7.137 -1.0365  0.8362 -1.5074
 4431TIP3    H234853   1.533   2.539   7.125 -0.2425  1.0460  0.4571
 4432TIP3   OH234854   4.627   4.816   0.013 -0.1425  0.3150 -0.9705
 4432TIP3    H134855   4.658   4.729  -0.010  1.5204  0.4136  0.6222
 4432TIP3    H234856   4.549   4.800   0.067  1.6987 -0.4225  1.6672
 4433TIP3   OH234857   3.548   6.672   2.463 -0.4323  0.3585  0.5050
 4433TIP3    H134858   3.640   6.659   2.439 -0.5351  1.9010 -0.9371
 4433TIP3    H234859   3.499   6.618   2.401 -0.5492  1.2451 -0.2019
 4434TIP3   OH234860   1.650   2.993   2.042  0.4350 -0.0467  0.0593
 4434TIP3    H134861   1.661   2.944   1.960 -0.4991  1.8799 -1.2910
 4434TIP3    H234862   1.572   3.047   2.027 -0.7576 -0.8021  2.8591
 4435TIP3   OH234863   4.946   6.643   7.595  0.4104  0.2445 -0.8040
 4435TIP3    H134864   5.005   6.569   7.604 -0.0586 -0.0807 -0.3284
 4435TIP3    H234865   4.860   6.603   7.580  0.1092  0.6850 -0.2722
 4436TIP3   OH234866   2.972   4.263   1.991  0.2361 -0.0253  0.1582
 4436TIP3    H134867   2.993   4.287   2.081  2.3913  1.9289 -0.7703
 4436TIP3    H234868   3.036   4.311   1.938 -1.9150  0.0925 -2.5253
 4437TIP3   OH234869   4.861   4.103   7.576  0.1349  0.2076  0.8629
 4437TIP3    H134870   4.922   4.113   7.650  0.9476  0.4757  0.1795
 4437TIP3    H234871   4.778   4.080   7.616  0.6664 -0.0772  1.8374
 4438TIP3   OH234872   6.576   2.291   6.336  0.3978  0.1867 -0.3711
 4438TIP3    H134873   6.554   2.290   6.243 -2.0936  2.0787  0.0656
 4438TIP3    H234874   6.671   2.293   6.339  0.5308  1.8652 -2.9703
 4439TIP3   OH234875   6.577   5.241   1.178  0.0052  0.2165 -0.1016
 4439TIP3    H134876   6.644   5.183   1.214  0.3820  0.5522 -0.2532
 4439TIP3    H234877   6.500   5.226   1.232  0.1991 -0.1903  0.0606
 4440TIP3   OH234878   2.354   2.834   7.302  0.1511  0.3330  0.2038
 4440TIP3    H134879   2.284   2.792   7.252 -1.8036  4.1319 -0.6260
 4440TIP3    H234880   2.435   2.806   7.258 -0.8700 -2.7754  0.0947
 4441TIP3   OH234881   5.638   2.864   0.234 -0.8294 -0.1338 -0.7580
 4441TIP3    H134882   5.571   2.932   0.231 -1.6101 -0.8174  0.1867
 4441TIP3    H234883   5.604   2.795   0.177 -1.8682 -1.2321  1.0611
 4442TIP3   OH234884   0.261   5.774   2.349 -0.1050 -0.0139 -0.9033
 4442TIP3    H134885   0.320   5.807   2.280 -0.4823 -0.6081 -1.5241
 4442TIP3    H234886   0.278   5.831   2.424 -0.4265  1.3123 -1.7995
 4443TIP3   OH234887   4.551   2.799   0.768  0.2703  0.4686  0.3296
 4443TIP3    H134888   4.614   2.791   0.696  0.5487 -0.0107  0.6274
 4443TIP3    H234889   4.570   2.726   0.826  0.1156  0.9165  0.9548
 4444TIP3   OH234890   2.768   0.632   1.467 -0.3271  0.2347 -0.4297
 4444TIP3    H134891   2.752   0.701   1.531 -1.5318  0.3820 -0.8610
 4444TIP3    H234892   2.852   0.655   1.428 -0.4444  1.1470 -0.1640
 4445TIP3   OH234893   5.282   6.763   7.803  0.1053  0.1398 -0.0149
 4445TIP3    H134894   5.350   6.700   7.827 -0.3330 -0.5933 -0.6513
 4445TIP3    H234895   5.220   6.761   7.875 -1.7107 -2.7620 -1.4850
 4446TIP3   OH234896   5.233   0.812   1.447  0.4422 -0.0832  0.1829
 4446TIP3    H134897   5.252   0.783   1.358  1.0617 -0.3462  0.3948
 4446TIP3    H234898   5.160   0.757   1.475 -0.0610  0.3236 -0.3306
 4447TIP3   OH234899   4.042   5.500   1.011 -0.2182 -0.1448 -0.4781
 4447TIP3    H134900   4.108   5.482   1.078 -0.1661 -0.2999 -0.5703
 4447TIP3    H234901   4.079   5.570   0.959 -0.8422  0.9263  0.4792
 4448TIP3   OH234902   3.578   2.555   1.285  0.0239  0.8135 -0.3452
 4448TIP3    H134903   3.544   2.635   1.326  0.4379  1.5255 -1.3382
 4448TIP3    H234904   3.671   2.555   1.308 -0.1939  0.0146  0.5743
 4449TIP3   OH234905   2.026   4.485   7.886 -0.4119  0.3611  0.2767
 4449TIP3    H134906   2.000   4.400   7.922  0.1829 -0.6764 -1.5952
 4449TIP3    H234907   2.081   4.525   7.953 -0.5140 -0.8414  1.0916
 4450TIP3   OH234908   0.986   0.905   7.191  0.4441  0.5319  0.3929
 4450TIP3    H134909   0.956   0.917   7.101 -1.0699 -2.1115  0.4335
 4450TIP3    H234910   0.981   0.992   7.230  0.2912  1.5758 -1.8183
 4451TIP3   OH234911   6.379   2.143   6.463 -0.7200  0.7226 -0.0922
 4451TIP3    H134912   6.446   2.199   6.423 -1.5789  0.5052 -1.9874
 4451TIP3    H234913   6.411   2.054   6.449 -1.6947  0.5769 -1.7318
 4452TIP3   OH234914   2.480   2.292   0.632 -0.0019  0.1300  0.1479
 4452TIP3    H134915   2.533   2.339   0.568  3.0733 -3.5629 -0.3577
 4452TIP3    H234916   2.401   2.268   0.585  0.5042  0.7163 -1.0356
 4453TIP3   OH234917   6.219   4.563   1.185  0.4447 -0.2803 -0.3327
 4453TIP3    H134918   6.228   4.471   1.161 -1.3813 -1.0860  1.7682
 4453TIP3    H234919   6.164   4.600   1.117 -1.1593 -1.4864  0.2374
 4454TIP3   OH234920   6.369   6.610   7.059 -0.2228 -0.0216 -0.7129
 4454TIP3    H134921   6.400   6.528   7.020 -1.1038 -0.2782 -0.9041
 4454TIP3    H234922   6.314   6.649   6.990  0.4020  0.8604 -0.7216
 4455TIP3   OH234923   1.490   6.463   1.620 -0.5409  0.2435 -0.3155
 4455TIP3    H134924   1.571   6.422   1.650 -0.4240  0.6680 -0.0393
 4455TIP3    H234925   1.422   6.398   1.639 -0.3978  0.2934  0.3991
 4456TIP3   OH234926   4.971   2.494   7.196  0.3932  0.2555 -0.5663
 4456TIP3    H134927   4.991   2.402   7.213  0.4151  0.3193 -0.2207
 4456TIP3    H234928   4.885   2.494   7.155 -0.1589  0.1491  0.5460
 4457TIP3   OH234929   0.332   1.489   1.856 -0.6557 -0.1174 -0.4617
 4457TIP3    H134930   0.392   1.455   1.789  0.9900  0.6426  0.5716
 4457TIP3    H234931   0.364   1.452   1.938 -1.5158  0.4329  0.1365
 4458TIP3   OH234932   2.837   4.740   6.903  0.0740 -0.4186  0.0966
 4458TIP3    H134933   2.812   4.652   6.877  0.0954  0.0887 -1.7883
 4458TIP3    H234934   2.930   4.733   6.924  0.7770 -0.3937 -2.6454
 4459TIP3   OH234935   5.002   0.144   7.468 -0.3578 -0.3666  0.5538
 4459TIP3    H134936   5.050   0.079   7.519  1.7879 -0.3033 -1.1967
 4459TIP3    H234937   5.031   0.228   7.503 -0.7858 -0.3394  0.8415
 4460TIP3   OH234938   6.427   3.602   0.639  0.6484  0.1935  0.7142
 4460TIP3    H134939   6.355   3.653   0.675 -1.5357 -1.3502 -1.1896
 4460TIP3    H234940   6.439   3.530   0.700  0.2151  0.1635  0.7636
 4461TIP3   OH234941   3.782   3.918   0.850 -0.2771  0.3248  0.5730
 4461TIP3    H134942   3.763   3.893   0.760 -1.9985 -1.2027  1.2959
 4461TIP3    H234943   3.841   3.849   0.882  0.4061  0.9131  0.5967
 4462TIP3   OH234944   3.997   3.399   0.618  0.1833 -0.1345 -0.4072
 4462TIP3    H134945   3.913   3.381   0.576 -0.0587  2.0782 -1.0141
 4462TIP3    H234946   3.975   3.412   0.710  0.2492 -1.8808 -0.1123
 4463TIP3   OH234947   2.752   2.512   0.159 -0.6558 -0.0543 -0.5629
 4463TIP3    H134948   2.802   2.592   0.176 -1.1747  0.0601  0.5097
 4463TIP3    H234949   2.793   2.475   0.081  2.4929 -1.0375  1.3785
 4464TIP3   OH234950   5.240   1.097   6.919  0.3732 -0.1611 -0.2025
 4464TIP3    H134951   5.220   1.004   6.924 -0.0231 -0.1122 -0.8010
 4464TIP3    H234952   5.317   1.102   6.863 -0.8140  0.0069 -1.9093
 4465TIP3   OH234953   6.365   1.148   8.320  0.1425  0.2586  0.0965
 4465TIP3    H134954   6.310   1.225   8.332  0.2298  0.2293  0.7090
 4465TIP3    H234955   6.449   1.182   8.290  0.4846  0.4852  1.2783
 4466TIP3   OH234956   5.648   1.863   7.302 -0.3066 -0.3259  0.0717
 4466TIP3    H134957   5.591   1.909   7.364 -0.2612 -0.7631  0.4458
 4466TIP3    H234958   5.620   1.894   7.216 -1.2229 -0.6610  0.2406
 4467TIP3   OH234959   3.264   3.494   7.478 -0.4672  0.5626  0.1413
 4467TIP3    H134960   3.244   3.551   7.403 -1.4190  1.6118  1.1565
 4467TIP3    H234961   3.343   3.532   7.516 -0.6574  0.7369  0.3616
 4468TIP3   OH234962   4.566   0.332   1.005 -0.6107 -0.2945  0.4115
 4468TIP3    H134963   4.531   0.291   0.926  0.4726 -1.1289  0.3502
 4468TIP3    H234964   4.658   0.349   0.985 -0.6343  0.6753  1.0399
 4469TIP3   OH234965   1.383   2.722   1.631  0.2364 -0.0078 -0.4583
 4469TIP3    H134966   1.413   2.809   1.658 -0.7696  0.1477  0.2268
 4469TIP3    H234967   1.375   2.673   1.713 -0.5232 -0.3079 -0.7019
 4470TIP3   OH234968   4.593   3.391   1.606  0.2425  0.0095  0.5407
 4470TIP3    H134969   4.685   3.384   1.579  0.6270 -1.1891  2.0567
 4470TIP3    H234970   4.595   3.380   1.701 -1.2920  1.8691  0.8406
 4471TIP3   OH234971   5.518   0.794   2.668  0.1673  0.8729 -0.0251
 4471TIP3    H134972   5.547   0.718   2.618 -1.1242 -0.2150  0.8103
 4471TIP3    H234973   5.596   0.821   2.718  0.1522 -1.1926  1.2109
 4472TIP3   OH234974   1.628   6.192   2.361 -0.4150 -0.7158  0.2214
 4472TIP3    H134975   1.582   6.265   2.402  0.1701 -0.8136  1.0970
 4472TIP3    H234976   1.668   6.145   2.435  1.1057 -0.6108 -0.4892
 4473TIP3   OH234977   1.404   2.163   7.142 -0.3759 -0.1730 -0.3894
 4473TIP3    H134978   1.387   2.107   7.217  0.1792 -0.7658 -0.7010
 4473TIP3    H234979   1.499   2.167   7.135 -0.3866  1.0350 -0.2147
 4474TIP3   OH234980   2.339   4.406   0.238  0.2344  0.0096  0.1396
 4474TIP3    H134981   2.309   4.485   0.283  1.3746 -0.4359  1.7518
 4474TIP3    H234982   2.420   4.433   0.194 -1.6754  0.8899 -3.2078
 4475TIP3   OH234983   5.151   3.446   0.821  0.0094  0.5043  0.1389
 4475TIP3    H134984   5.194   3.518   0.775  3.2869 -2.7570 -2.4742
 4475TIP3    H234985   5.195   3.444   0.907  0.6889  0.9431 -0.1863
 4476TIP3   OH234986   5.151   6.743   0.622  0.2367 -0.5471 -0.2185
 4476TIP3    H134987   5.071   6.752   0.569  1.0564 -1.0361 -1.5811
 4476TIP3    H234988   5.218   6.788   0.571  1.0641 -1.0819  0.3821
 4477TIP3   OH234989   0.035   5.046   8.347  0.3526  0.2836  0.4026
 4477TIP3    H134990   0.002   5.005   8.428 -0.6883  1.3013  0.5227
 4477TIP3    H234991   0.092   5.116   8.377  0.6788  0.0900  0.2340
 4478TIP3   OH234992   4.702   4.067   0.373 -0.1450  0.1942 -0.4318
 4478TIP3    H134993   4.752   4.064   0.291  0.1236 -0.1906 -0.2557
 4478TIP3    H234994   4.614   4.094   0.346  0.3775  1.8440 -0.6273
 4479TIP3   OH234995   2.101   1.415   7.089  0.6456 -0.3640 -0.3984
 4479TIP3    H134996   2.129   1.417   6.997  2.0108  0.2914  0.0063
 4479TIP3    H234997   2.101   1.506   7.116  2.6288 -0.6938  0.9103
 4480TIP3   OH234998   5.195   5.870   1.614 -0.0234 -0.0037  0.0474
 4480TIP3    H134999   5.243   5.904   1.538 -1.1786  2.9680  0.5071
 4480TIP3    H235000   5.240   5.789   1.637 -0.0053 -1.4266 -4.1596
 4481TIP3   OH235001   0.469   1.751   1.102 -0.3046  0.8088  0.0211
 4481TIP3    H135002   0.466   1.790   1.189 -2.5660  0.1636  0.3000
 4481TIP3    H235003   0.499   1.661   1.116 -0.4646  0.7698  0.1148
 4482TIP3   OH235004   3.486   2.624   2.285 -0.4102 -0.2795  0.4203
 4482TIP3    H135005   3.524   2.699   2.330 -0.8314  0.3424 -0.2381
 4482TIP3    H235006   3.445   2.572   2.355 -3.1556  1.8754  0.5983
 4483TIP3   OH235007   0.040   0.132   7.750  0.2217  0.4902  0.0670
 4483TIP3    H135008   0.048   0.228   7.749 -0.1196  0.6074  2.3987
 4483TIP3    H235009   0.045   0.107   7.658  2.0633  2.5876 -0.5050
 4484TIP3   OH235010   0.407   5.106   0.447  0.3894 -0.3794 -0.1758
 4484TIP3    H135011   0.407   5.046   0.373  0.2367 -0.1588 -0.3530
 4484TIP3    H235012   0.315   5.116   0.471  0.1487  1.6808 -1.6858
 4485TIP3   OH235013   6.516   3.964   0.049 -0.6167 -0.8836 -0.2958
 4485TIP3    H135014   6.579   3.978   0.119  0.6169 -0.6722 -1.4139
 4485TIP3    H235015   6.560   3.905  -0.012 -0.7051  0.7298 -2.0313
 4486TIP3   OH235016   6.475   5.579   2.201  0.2367 -0.3326  0.6233
 4486TIP3    H135017   6.499   5.653   2.144  0.5869 -0.5464  0.4875
 4486TIP3    H235018   6.398   5.609   2.249 -2.0863 -1.2729 -2.2644
 4487TIP3   OH235019   0.905   6.396   7.060  0.0389  0.2162 -0.1842
 4487TIP3    H135020   0.891   6.427   6.971 -0.6212  2.7871  0.7037
 4487TIP3    H235021   1.000   6.392   7.070  0.1203 -0.8835 -1.2094
 4488TIP3   OH235022   6.692   3.844   1.762 -0.2833  0.1935 -0.0422
 4488TIP3    H135023   6.661   3.854   1.852  1.1501 -0.3197  0.5435
 4488TIP3    H235024   6.740   3.761   1.763 -0.7436 -0.1034 -1.4372
 4489TIP3   OH235025   6.311   6.428   1.551  0.3177 -0.3273  0.2337
 4489TIP3    H135026   6.246   6.370   1.510 -0.6880  1.0355 -0.1930
 4489TIP3    H235027   6.260   6.480   1.614  0.7899  1.3655 -0.7170
 4490TIP3   OH235028   2.870   4.162   8.451  0.0409 -1.1589 -0.2085
 4490TIP3    H135029   2.824   4.121   8.377 -1.2001 -1.0908  0.4983
 4490TIP3    H235030   2.866   4.097   8.521  0.4718 -0.8984  0.0607
 4491TIP3   OH235031   3.463   4.241   8.109  0.0272  0.1653 -0.0103
 4491TIP3    H135032   3.496   4.248   8.199  1.5304 -0.9005 -0.4436
 4491TIP3    H235033   3.494   4.156   8.079 -0.1576  0.6574 -1.6711
 4492TIP3   OH235034   0.666   3.265   1.114  0.2060 -0.2837 -0.1609
 4492TIP3    H135035   0.683   3.299   1.201  0.4112  0.8309 -0.6180
 4492TIP3    H235036   0.587   3.211   1.124  0.0816  0.0403  0.6537
 4493TIP3   OH235037   4.728   3.397   7.299  0.9599  0.6122 -0.1046
 4493TIP3    H135038   4.716   3.356   7.214  0.0162  1.1869 -0.2625
 4493TIP3    H235039   4.687   3.483   7.291 -1.2866 -0.1897  1.6065
 4494TIP3   OH235040   4.629   0.733   1.042  0.0719  0.5146  0.2686
 4494TIP3    H135041   4.718   0.699   1.057  1.3286  2.7791 -1.4143
 4494TIP3    H235042   4.575   0.655   1.033  1.9411 -0.9479  1.0320
 4495TIP3   OH235043   5.845   4.858   8.270  0.8906 -0.0159 -0.0674
 4495TIP3    H135044   5.915   4.840   8.207  1.5578  0.1813  0.6067
 4495TIP3    H235045   5.779   4.905   8.219  0.2196 -2.1106 -1.2495
 4496TIP3   OH235046   2.979   0.796   1.813  0.1404  0.5964  0.5283
 4496TIP3    H135047   2.912   0.858   1.842  0.6422  1.6031 -0.3607
 4496TIP3    H235048   2.988   0.813   1.719  0.3478 -0.7928  0.2755
 4497TIP3   OH235049   2.596   5.671   2.703 -0.7852  0.5015 -0.0822
 4497TIP3    H135050   2.640   5.664   2.619  0.0872 -1.2194  0.4753
 4497TIP3    H235051   2.652   5.728   2.755 -1.0666  1.1552 -0.4734
 4498TIP3   OH235052   0.136   4.780   1.826 -0.2117 -0.0172  0.1147
 4498TIP3    H135053   0.053   4.768   1.872 -1.8243  1.6835 -2.0679
 4498TIP3    H235054   0.180   4.851   1.874 -1.2832  0.8848 -0.1892
 4499TIP3   OH235055   5.410   3.563   0.295 -0.6273  0.4820 -0.0393
 4499TIP3    H135056   5.436   3.481   0.338  0.7636  0.9477  0.0541
 4499TIP3    H235057   5.489   3.617   0.296 -0.4039  0.4592 -3.3632
 4500TIP3   OH235058   0.770   4.540   1.420 -0.5823 -0.4342 -0.2630
 4500TIP3    H135059   0.772   4.558   1.514  1.0084 -1.9653  0.0405
 4500TIP3    H235060   0.823   4.461   1.409 -0.9628 -0.4527 -2.4201
 4501TIP3   OH235061   3.400   0.176   1.691 -0.0966 -0.4327 -0.0788
 4501TIP3    H135062   3.405   0.202   1.783 -0.1530 -1.1268  0.1290
 4501TIP3    H235063   3.352   0.094   1.692 -1.0270  0.0851 -0.8455
 4502TIP3   OH235064   6.574   2.937   7.896 -0.2956 -0.0457 -0.1472
 4502TIP3    H135065   6.586   2.845   7.872  0.0577  0.3029 -1.3703
 4502TIP3    H235066   6.491   2.939   7.944  0.7890 -1.3465  1.9441
 4503TIP3   OH235067   1.089   1.964   0.333 -0.4483  0.2553 -0.5796
 4503TIP3    H135068   1.079   1.955   0.427  0.6180  1.3183 -0.3508
 4503TIP3    H235069   1.171   1.920   0.312 -0.8239 -0.2374 -1.0694
 4504TIP3   OH235070   0.665   3.114   0.502 -0.6174 -0.4612 -0.1817
 4504TIP3    H135071   0.741   3.101   0.559 -1.0757  0.5006  0.6934
 4504TIP3    H235072   0.699   3.160   0.425 -0.4109  0.6276  0.5378
 4505TIP3   OH235073   6.868   1.794   1.001 -0.7177  0.2429 -0.1859
 4505TIP3    H135074   6.904   1.864   1.056 -0.4080 -1.0487  1.3253
 4505TIP3    H235075   6.780   1.781   1.034  0.1524 -1.9517  1.5086
 4506TIP3   OH235076   0.616   1.359   0.680 -0.5347  0.2083 -0.2104
 4506TIP3    H135077   0.687   1.408   0.638 -1.1308  0.5944 -0.7793
 4506TIP3    H235078   0.544   1.421   0.687 -0.6997 -0.0765  0.7040
 4507TIP3   OH235079   4.835   2.784   7.639  0.4888  0.3281 -0.3702
 4507TIP3    H135080   4.849   2.828   7.723  1.5635 -0.1404 -0.2929
 4507TIP3    H235081   4.827   2.856   7.576 -3.1321  0.8581  0.4176
 4508TIP3   OH235082   0.389   5.683   7.615  0.5755 -0.6393  0.1413
 4508TIP3    H135083   0.329   5.751   7.646 -0.6914 -1.3127 -0.7233
 4508TIP3    H235084   0.456   5.730   7.566 -1.6466 -0.0994 -2.6010
 4509TIP3   OH235085   3.719   2.795   2.427  0.1285 -0.0530 -0.1801
 4509TIP3    H135086   3.717   2.890   2.443 -0.5943  0.1257 -1.1821
 4509TIP3    H235087   3.811   2.773   2.427  0.2668 -0.0650  3.7807
 4510TIP3   OH235088   0.840   2.892   7.319  0.1059  0.3370 -0.0369
 4510TIP3    H135089   0.851   2.946   7.397  1.6794  0.8736 -0.5944
 4510TIP3    H235090   0.748   2.865   7.321 -0.0456  0.8826  1.6349
 4511TIP3   OH235091   2.074   5.454   0.495  0.5626  0.2904  0.0653
 4511TIP3    H135092   2.015   5.411   0.433  0.4755  0.9367 -0.3028
 4511TIP3    H235093   2.102   5.384   0.554  1.7684 -0.6449 -1.5501
 4512TIP3   OH235094   0.527   5.681   8.532  0.3097 -0.1330 -0.2543
 4512TIP3    H135095   0.442   5.638   8.531  0.1968  0.0992 -1.2269
 4512TIP3    H235096   0.554   5.685   8.441  0.6603  1.1793 -0.1214
 4513TIP3   OH235097   3.427   0.707   1.297  0.1354  0.4981  0.4481
 4513TIP3    H135098   3.449   0.635   1.356  1.7001  1.1838  0.7596
 4513TIP3    H235099   3.434   0.785   1.353 -0.0173  1.0137 -0.2494
 4514TIP3   OH235100   1.027   2.358   0.868  0.5226  0.0597 -0.0726
 4514TIP3    H135101   1.025   2.290   0.800 -0.8121  0.5208 -0.5305
 4514TIP3    H235102   1.107   2.406   0.852  1.3299 -1.1957  0.0566
 4515TIP3   OH235103   1.781   2.361   0.445 -0.3562  0.0444 -0.1871
 4515TIP3    H135104   1.783   2.359   0.540  0.1152 -0.4131 -0.2013
 4515TIP3    H235105   1.835   2.436   0.421  0.3837 -0.4598 -0.1140
 4516TIP3   OH235106   4.716   3.487   7.838  0.6114  0.1795 -0.1707
 4516TIP3    H135107   4.721   3.538   7.757  0.1905  1.5210  0.6121
 4516TIP3    H235108   4.727   3.396   7.810 -2.3646  0.2796 -2.1221
 4517TIP3   OH235109   4.492   2.282   8.185  0.2225 -0.1885 -0.2904
 4517TIP3    H135110   4.538   2.362   8.207  1.4277 -1.3132  1.6111
 4517TIP3    H235111   4.405   2.310   8.156  0.8520  1.7946 -0.3486
 4518TIP3   OH235112   1.063   0.329   0.002 -0.0764 -0.1552  0.3692
 4518TIP3    H135113   1.154   0.323  -0.028  0.4028  1.4085  1.4196
 4518TIP3    H235114   1.045   0.243   0.041  1.3166 -0.1384  1.1044
 4519TIP3   OH235115   5.933   4.657   0.781 -0.6879  0.6460  0.3033
 4519TIP3    H135116   5.952   4.743   0.744 -1.2616  0.7767  0.3030
 4519TIP3    H235117   5.972   4.595   0.719 -1.9818  0.8436 -0.7663
 4520TIP3   OH235118   2.184   1.296   1.043  0.7232 -0.1695 -0.1587
 4520TIP3    H135119   2.116   1.230   1.055 -0.5549  1.0358 -0.5577
 4520TIP3    H235120   2.138   1.380   1.044  2.3619  0.7901  0.9101
 4521TIP3   OH235121   1.372   3.528   2.139  0.2928 -0.0380  0.1836
 4521TIP3    H135122   1.344   3.476   2.215 -1.6685 -0.2344 -0.6238
 4521TIP3    H235123   1.321   3.609   2.147 -0.3032 -0.2659 -1.1760
 4522TIP3   OH235124   1.899   3.606   0.946 -0.2444 -0.7524 -0.4347
 4522TIP3    H135125   1.925   3.514   0.942 -1.2364 -1.0400 -0.6169
 4522TIP3    H235126   1.960   3.651   0.887 -0.5670 -1.4967 -1.3696
 4523TIP3   OH235127   1.752   2.780   1.837  0.1621  0.2263 -0.3985
 4523TIP3    H135128   1.700   2.841   1.785  0.2301 -0.8372 -1.7525
 4523TIP3    H235129   1.734   2.694   1.799 -0.4647 -0.7397  1.8871
 4524TIP3   OH235130   3.972   3.474   6.866 -0.0050 -0.3506  0.5022
 4524TIP3    H135131   3.978   3.466   6.771  0.4392  1.3140  0.3508
 4524TIP3    H235132   3.950   3.566   6.881 -0.0511 -0.5759  2.0144
 4525TIP3   OH235133   3.369   0.204   6.634  0.0517  0.1814 -0.1141
 4525TIP3    H135134   3.438   0.256   6.676  0.1038 -0.0193  0.0531
 4525TIP3    H235135   3.402   0.114   6.637 -0.1230  0.1136 -0.2276
 4526TIP3   OH235136   3.751   2.389   7.108 -0.1333 -0.4896  0.1625
 4526TIP3    H135137   3.781   2.347   7.027  0.9293  0.9155 -0.2075
 4526TIP3    H235138   3.717   2.316   7.160  0.5389 -1.6461 -0.9305
 4527TIP3   OH235139   5.028   5.017   0.354 -0.4886  0.0604  0.1293
 4527TIP3    H135140   5.046   5.088   0.292 -0.9373 -0.3702 -0.5110
 4527TIP3    H235141   4.959   4.966   0.312 -1.3488  0.1839  1.3238
 4528TIP3   OH235142   6.806   6.143   1.562 -1.0791  0.3192 -0.0103
 4528TIP3    H135143   6.727   6.144   1.616 -0.5540 -0.3259  0.7810
 4528TIP3    H235144   6.848   6.060   1.582  0.3855  1.1358  0.4451
 4529TIP3   OH235145   0.622   0.012   7.558  0.5552  0.1116  0.1521
 4529TIP3    H135146   0.610   0.086   7.617  0.8848 -0.2868  0.7329
 4529TIP3    H235147   0.681  -0.047   7.605  1.2514  0.0266 -0.7988
 4530TIP3   OH235148   2.603   6.532   0.112  0.4467 -0.4692  0.4195
 4530TIP3    H135149   2.659   6.568   0.181 -0.9413  1.2628  0.7190
 4530TIP3    H235150   2.665   6.498   0.047  1.9605  2.3442  0.2099
 4531TIP3   OH235151   1.362   5.786   6.700  0.5146 -0.4454  0.2124
 4531TIP3    H135152   1.434   5.820   6.752 -0.4001  2.9377 -0.4778
 4531TIP3    H235153   1.388   5.802   6.609 -0.5542 -0.3540 -0.0961
 4532TIP3   OH235154   2.580   3.419   8.363  0.2557 -0.1109 -0.0371
 4532TIP3    H135155   2.583   3.424   8.267 -1.6086 -0.5996 -0.1771
 4532TIP3    H235156   2.546   3.331   8.381  0.2798  0.0892  1.0556
 4533TIP3   OH235157   5.239   2.752   1.525 -0.0080 -0.3478  0.1031
 4533TIP3    H135158   5.278   2.675   1.566  0.5947  0.6493  1.5347
 4533TIP3    H235159   5.222   2.811   1.599  1.6164  1.7699 -1.0883
 4534TIP3   OH235160   0.549   4.504   1.876  0.0301 -0.7005 -0.2903
 4534TIP3    H135161   0.509   4.562   1.941  2.2049 -0.3557  0.8221
 4534TIP3    H235162   0.522   4.416   1.903 -1.3455 -0.4046 -0.6003
 4535TIP3   OH235163   0.615   1.812   7.156  0.3700 -0.1900  0.1132
 4535TIP3    H135164   0.582   1.789   7.243 -0.0286 -2.7297 -0.6485
 4535TIP3    H235165   0.700   1.769   7.150  0.2492 -0.3157 -0.8810
 4536TIP3   OH235166   0.049   4.671   1.132 -0.1182  0.1176  0.0744
 4536TIP3    H135167   0.124   4.726   1.107  0.5495 -1.3358 -1.2920
 4536TIP3    H235168   0.048   4.602   1.066 -2.0323 -0.5026  0.7116
 4537TIP3   OH235169   5.040   1.345   7.001  0.0725 -0.1709 -0.1161
 4537TIP3    H135170   4.964   1.358   6.943  0.2562 -0.3887 -0.4104
 4537TIP3    H235171   5.088   1.273   6.961 -0.0843 -0.6914  0.6137
 4538TIP3   OH235172   3.917   1.219   0.436 -0.2139 -0.2125 -0.1690
 4538TIP3    H135173   4.002   1.222   0.480 -0.1596 -2.6186  0.0626
 4538TIP3    H235174   3.893   1.310   0.424  3.6138  0.7320 -2.6863
 4539TIP3   OH235175   4.095   2.281   0.669  0.0906 -0.6197 -0.2250
 4539TIP3    H135176   4.089   2.277   0.574 -1.6815  0.0732 -0.1885
 4539TIP3    H235177   4.138   2.365   0.687  0.8150 -0.9445 -0.4002
 4540TIP3   OH235178   6.146   2.228   0.256 -0.0507 -0.0919  0.2019
 4540TIP3    H135179   6.092   2.196   0.183  0.5681 -0.0238 -0.2959
 4540TIP3    H235180   6.233   2.193   0.238 -0.1189 -0.9451  1.4812
 4541TIP3   OH235181   3.991   2.322   1.593  0.2056 -0.3610 -0.3331
 4541TIP3    H135182   3.964   2.231   1.578  1.2913 -0.7083 -0.2389
 4541TIP3    H235183   3.966   2.339   1.684 -0.0399 -0.5448 -0.3628
 4542TIP3   OH235184   0.053   5.791   1.034 -0.1615  0.1859 -0.3464
 4542TIP3    H135185   0.112   5.846   1.085  1.7182 -2.4871  0.5769
 4542TIP3    H235186   0.049   5.834   0.948  1.2843  1.6696  0.2770
 4543TIP3   OH235187   5.664   0.959   7.878  0.0094 -0.1460 -0.1556
 4543TIP3    H135188   5.572   0.940   7.894 -0.0313 -0.6717 -0.9395
 4543TIP3    H235189   5.669   0.977   7.784  0.6621  0.1139 -0.0800
 4544TIP3   OH235190   1.395   1.307   1.781  0.1788 -0.2883 -0.0244
 4544TIP3    H135191   1.341   1.316   1.702  0.4086  2.6096  0.0630
 4544TIP3    H235192   1.343   1.252   1.840  0.1838 -2.9327 -2.2552
 4545TIP3   OH235193   4.660   0.289   7.749  0.3758  0.1312  0.4632
 4545TIP3    H135194   4.574   0.298   7.790 -0.1087  1.0926 -0.6742
 4545TIP3    H235195   4.640   0.269   7.657  1.3173  1.6872 -0.1207
 4546TIP3   OH235196   4.601   4.044   7.691 -0.5141 -0.4113 -0.3929
 4546TIP3    H135197   4.557   4.124   7.718 -1.2630 -0.5698 -1.0886
 4546TIP3    H235198   4.574   3.979   7.756 -1.3318 -0.5075 -0.8155
 4547TIP3   OH235199   3.401   2.833   8.195  0.8543  0.1412 -0.0463
 4547TIP3    H135200   3.484   2.785   8.205  0.5788  0.0004  1.7287
 4547TIP3    H235201   3.406   2.904   8.258 -0.4103  0.1038  0.1197
 4548TIP3   OH235202   6.038   0.292   1.661 -0.2513  0.1060 -0.0358
 4548TIP3    H135203   6.064   0.340   1.582 -0.4508 -0.3689 -0.3938
 4548TIP3    H235204   6.042   0.357   1.730 -1.2028  0.8291 -0.6348
 4549TIP3   OH235205   4.546   5.284   0.981  0.8866 -0.4104 -0.1330
 4549TIP3    H135206   4.599   5.205   0.992 -0.7952 -1.5494  0.2967
 4549TIP3    H235207   4.461   5.251   0.952 -0.0096  1.2184  0.5227
 4550TIP3   OH235208   6.504   5.030   8.078  0.3785  0.9200 -0.4045
 4550TIP3    H135209   6.484   5.023   8.171  0.6961 -0.3636 -0.4148
 4550TIP3    H235210   6.580   4.974   8.065 -0.1948  0.3686 -1.5883
 4551TIP3   OH235211   3.892   5.166   6.339  0.2383  0.2668  0.5895
 4551TIP3    H135212   3.871   5.082   6.298  1.4017  0.1511  0.1691
 4551TIP3    H235213   3.815   5.220   6.324 -0.9776 -1.0481  1.8209
 4552TIP3   OH235214   1.232   6.797   1.044  0.1224 -0.3394  0.0258
 4552TIP3    H135215   1.205   6.882   1.078 -0.7321 -0.0260 -1.3691
 4552TIP3    H235216   1.294   6.764   1.108 -1.6308  0.0818  2.0504
 4553TIP3   OH235217   6.767   5.672   0.086 -0.3492 -0.1411  0.0703
 4553TIP3    H135218   6.785   5.708  -0.001  0.2356  0.3131  0.3685
 4553TIP3    H235219   6.847   5.689   0.136 -1.5670  2.0382  1.4836
 4554TIP3   OH235220   6.585   6.784   1.980 -0.2561  0.0064  0.0825
 4554TIP3    H135221   6.656   6.839   2.013 -0.5891  0.4184  0.1179
 4554TIP3    H235222   6.629   6.704   1.952  0.2914  0.4570 -0.3772
 4555TIP3   OH235223   3.817   3.297   5.986 -0.3927 -0.4833  0.3113
 4555TIP3    H135224   3.903   3.278   5.950  1.0102  0.6242  2.8089
 4555TIP3    H235225   3.809   3.239   6.062 -0.8684  0.8951  1.3727
 4556TIP3   OH235226   4.284   6.186   8.496 -0.6182 -0.2459 -0.5738
 4556TIP3    H135227   4.233   6.195   8.415  0.0402 -0.7817 -1.0650
 4556TIP3    H235228   4.364   6.237   8.479 -0.7879  0.2227  0.0154
 4557TIP3   OH235229   3.737   2.243   6.862 -0.4285 -0.5633  0.6148
 4557TIP3    H135230   3.827   2.255   6.831 -1.4075  1.8203 -1.7461
 4557TIP3    H235231   3.734   2.153   6.895  2.5865 -0.9797  0.0168
 4558TIP3   OH235232   1.364   0.783   1.262  1.3118 -0.0050  0.2022
 4558TIP3    H135233   1.328   0.755   1.346 -0.5661 -2.7834 -1.3534
 4558TIP3    H235234   1.432   0.718   1.243  0.3312 -0.6362 -1.2784
 4559TIP3   OH235235   0.497   6.391   6.521 -0.0145 -0.1578  0.5727
 4559TIP3    H135236   0.544   6.324   6.570  1.3251  1.8795  2.2234
 4559TIP3    H235237   0.414   6.402   6.567  0.2310  0.0806  0.9586
 4560TIP3   OH235238   3.955   4.752   8.047  0.1789  0.0538  0.1759
 4560TIP3    H135239   3.892   4.733   7.977  0.1785  2.0219 -0.4223
 4560TIP3    H235240   3.902   4.761   8.126 -0.3932  1.9058 -0.3598
 4561TIP3   OH235241   0.469   3.806   8.275  0.0367 -0.1446  0.6253
 4561TIP3    H135242   0.409   3.845   8.339 -0.7055 -1.4861  0.7784
 4561TIP3    H235243   0.556   3.834   8.303 -0.5216  3.0470 -0.4151
 4562TIP3   OH235244   6.745   1.987   2.009  0.2365 -0.3802 -0.0967
 4562TIP3    H135245   6.712   1.992   2.099  1.5613 -0.9792  0.4521
 4562TIP3    H235246   6.667   1.973   1.956 -0.5145 -0.6048  1.0143
 4563TIP3   OH235247   1.918   4.250   7.619  0.3066 -0.0216 -0.1365
 4563TIP3    H135248   1.886   4.213   7.536 -0.6268 -1.4329  0.8053
 4563TIP3    H235249   1.863   4.327   7.633  0.3357  0.1157 -0.7315
 4564TIP3   OH235250   3.688   4.311   1.630 -0.5308 -0.5740 -0.3674
 4564TIP3    H135251   3.673   4.227   1.587 -0.9417 -1.4884  1.4543
 4564TIP3    H235252   3.779   4.306   1.661 -0.4401 -0.1855 -0.5572
 4565TIP3   OH235253   3.220   6.794   0.361  0.2217 -0.2175 -0.1118
 4565TIP3    H135254   3.247   6.721   0.416  0.2437  0.1131  0.3250
 4565TIP3    H235255   3.179   6.753   0.285  2.5514 -0.7476 -1.1485
 4566TIP3   OH235256   5.863   0.344   6.924  0.2443  0.4709 -0.4556
 4566TIP3    H135257   5.780   0.374   6.887 -0.2492 -0.8698 -0.4858
 4566TIP3    H235258   5.887   0.413   6.986 -1.4199  0.4293  0.3066
 4567TIP3   OH235259   0.277   0.611   0.661  0.1826 -0.1454 -0.4081
 4567TIP3    H135260   0.198   0.557   0.663  0.2343 -0.2289  1.6069
 4567TIP3    H235261   0.321   0.590   0.743  2.3879 -0.1984 -1.5434
 4568TIP3   OH235262   6.601   5.193   0.393 -0.7159  0.2377  0.2107
 4568TIP3    H135263   6.681   5.244   0.397 -0.2562 -0.5224  1.6198
 4568TIP3    H235264   6.537   5.251   0.352 -0.6036  2.5042  2.9694
 4569TIP3   OH235265   1.465   2.874   1.074  0.0009  0.2064  0.0127
 4569TIP3    H135266   1.402   2.810   1.105 -0.3585  0.5411 -0.0179
 4569TIP3    H235267   1.536   2.871   1.138  0.0412 -0.2978 -0.0509
 4570TIP3   OH235268   6.430   1.328   1.758  0.2456 -0.0254  0.0029
 4570TIP3    H135269   6.440   1.257   1.821  1.7031  0.5125  0.4335
 4570TIP3    H235270   6.348   1.310   1.713  0.2636 -1.6018  0.5620
 4571TIP3   OH235271   5.367   3.240   7.334 -0.2717 -0.3861  0.2374
 4571TIP3    H135272   5.362   3.229   7.429  0.2131 -0.4772  0.2575
 4571TIP3    H235273   5.279   3.268   7.308  0.2712  2.3970  1.0747
 4572TIP3   OH235274   1.908   2.588   0.406 -0.2288  0.4390  0.1310
 4572TIP3    H135275   1.868   2.669   0.375  0.1912  0.5299 -0.1887
 4572TIP3    H235276   1.966   2.562   0.334 -0.4106 -0.1767  0.2042
 4573TIP3   OH235277   3.617   2.010   6.981  0.1598  0.1414  0.2480
 4573TIP3    H135278   3.677   1.992   7.053 -0.5925  0.5503  0.9879
 4573TIP3    H235279   3.560   1.933   6.976 -0.3336  0.4745  0.6516
 4574TIP3   OH235280   1.797   3.225   6.672  0.1038 -0.0783 -0.2222
 4574TIP3    H135281   1.797   3.320   6.687 -0.1285 -0.1041 -0.0372
 4574TIP3    H235282   1.828   3.188   6.755  2.5030 -0.0777 -1.0406
 4575TIP3   OH235283   6.388   2.465   0.852  0.1497 -0.1504  0.0982
 4575TIP3    H135284   6.310   2.504   0.813  0.6927  0.1729 -0.6936
 4575TIP3    H235285   6.384   2.490   0.945 -0.1608  0.7276 -0.1411
 4576TIP3   OH235286   5.036   4.983   1.014 -0.3231  0.3611  0.3840
 4576TIP3    H135287   4.999   4.905   1.056  0.6792 -0.3776 -0.0598
 4576TIP3    H235288   5.009   4.976   0.923 -0.7299  0.8578  0.4621
 4577TIP3   OH235289   6.717   6.493   7.734 -0.3544 -0.0979  0.0523
 4577TIP3    H135290   6.681   6.413   7.696 -2.3736  0.2145  1.1436
 4577TIP3    H235291   6.698   6.561   7.669 -1.3173 -0.0336  0.3812
 4578TIP3   OH235292   1.794   4.296   7.036  0.4143 -0.6192 -0.9588
 4578TIP3    H135293   1.883   4.330   7.025  0.2925 -0.3685 -1.1979
 4578TIP3    H235294   1.762   4.338   7.115  0.7402 -1.2209 -0.4968
 4579TIP3   OH235295   2.492   2.602   0.669 -0.0712  0.3079 -0.3100
 4579TIP3    H135296   2.543   2.681   0.649 -0.6063  1.6786  2.9721
 4579TIP3    H235297   2.433   2.593   0.595  0.5544  2.5568 -1.1917
 4580TIP3   OH235298   0.589   6.183   6.683 -0.1629 -0.3413  0.3181
 4580TIP3    H135299   0.589   6.088   6.694 -1.6608 -0.3922  0.1044
 4580TIP3    H235300   0.679   6.204   6.660  0.5959 -1.4872  2.0522
 4581TIP3   OH235301   1.895   1.826   2.887 -0.1367 -0.0157 -0.4527
 4581TIP3    H135302   1.802   1.816   2.866 -0.7230  1.3211  1.2779
 4581TIP3    H235303   1.908   1.770   2.963  1.0609 -1.9207 -1.9693
 4582TIP3   OH235304   1.999   3.116   7.237  0.3925  0.0964 -0.0918
 4582TIP3    H135305   2.055   3.092   7.163 -2.7254 -0.3731 -2.4956
 4582TIP3    H235306   1.992   3.211   7.233  1.3459  0.2156  0.5638
 4583TIP3   OH235307   4.245   1.533   1.051  0.2394 -0.0452  0.3040
 4583TIP3    H135308   4.277   1.610   1.004  0.8577  0.6382  1.7810
 4583TIP3    H235309   4.151   1.548   1.062  0.3467  0.4921  0.5404
 4584TIP3   OH235310   0.980   0.043   0.081 -0.7845 -0.8480  0.0036
 4584TIP3    H135311   1.040  -0.027   0.106  1.7114  0.8601 -0.8847
 4584TIP3    H235312   0.962   0.090   0.162 -1.0841 -1.4522  0.2945
 4585TIP3   OH235313   1.015   6.396   0.753 -0.4231 -0.2187  0.0407
 4585TIP3    H135314   0.947   6.451   0.715  0.1838 -0.0143 -0.7778
 4585TIP3    H235315   1.085   6.396   0.688 -0.0539 -1.2449  0.4176
 4586TIP3   OH235316   1.810   2.231   1.328 -0.7777  0.5988  0.1384
 4586TIP3    H135317   1.882   2.266   1.275  0.3946  1.7990  2.3690
 4586TIP3    H235318   1.766   2.168   1.270  2.0926 -0.2577 -1.3422
 4587TIP3   OH235319   0.651   3.483   1.819 -0.5589  0.2513  0.5234
 4587TIP3    H135320   0.640   3.506   1.911  1.9697  0.5465  0.8232
 4587TIP3    H235321   0.605   3.551   1.771  1.2031  2.2528  1.5411
 4588TIP3   OH235322   4.907   4.231   1.943 -0.5357 -0.0052  0.2600
 4588TIP3    H135323   4.854   4.305   1.913 -0.1206 -0.4129 -1.5972
 4588TIP3    H235324   4.866   4.154   1.903  0.4800 -0.4980  0.1435
 4589TIP3   OH235325   1.769   1.608   0.270  0.2730 -0.1103  0.8701
 4589TIP3    H135326   1.758   1.681   0.331 -0.1284  0.1770  0.4529
 4589TIP3    H235327   1.680   1.578   0.251  0.4356 -0.7575  1.0957
 4590TIP3   OH235328   3.740   0.314   8.353  0.5186  0.5690  0.1416
 4590TIP3    H135329   3.834   0.330   8.345  0.8096 -0.6785  0.6498
 4590TIP3    H235330   3.711   0.293   8.265  0.6014  1.4815 -0.1095
 4591TIP3   OH235331   3.708   2.714   8.493  0.3078  0.3072  0.4996
 4591TIP3    H135332   3.703   2.809   8.508 -1.0231  0.3553 -0.1739
 4591TIP3    H235333   3.768   2.704   8.419 -0.1712  0.6835  0.0568
 4592TIP3   OH235334   6.671   0.479   7.468  0.9230 -0.0495 -0.0513
 4592TIP3    H135335   6.604   0.411   7.461 -0.0419  0.9783 -1.2647
 4592TIP3    H235336   6.715   0.461   7.551  1.0966 -2.4806 -0.6087
 4593TIP3   OH235337   3.822   0.935   1.575  0.3127  0.0832 -0.3138
 4593TIP3    H135338   3.815   0.854   1.525 -0.4540 -0.3738  0.5219
 4593TIP3    H235339   3.880   0.913   1.648  0.8525  0.5528 -0.5906
 4594TIP3   OH235340   0.830   2.898   7.825 -0.2201  0.9334  0.1833
 4594TIP3    H135341   0.766   2.938   7.885  1.7518  2.7594  1.2113
 4594TIP3    H235342   0.898   2.863   7.883 -1.0914 -2.7527 -0.7681
 4595TIP3   OH235343   1.707   5.790   8.339 -0.0141  0.0325  0.6440
 4595TIP3    H135344   1.661   5.823   8.262  1.1974  0.1298 -0.0535
 4595TIP3    H235345   1.721   5.868   8.393  1.2166  0.3781 -0.1489
 4596TIP3   OH235346   0.013   3.586   6.611 -0.2689 -0.0510  0.1654
 4596TIP3    H135347  -0.061   3.619   6.662 -1.1686  0.4025 -1.3783
 4596TIP3    H235348  -0.008   3.495   6.594 -0.2797 -0.0346  0.0877
 4597TIP3   OH235349   5.489   2.727   0.475  0.2891  0.3011  1.0692
 4597TIP3    H135350   5.536   2.789   0.419  1.8738 -0.2227  1.7488
 4597TIP3    H235351   5.537   2.729   0.558 -2.1321  1.2590  2.5547
 4598TIP3   OH235352   2.620   0.819   1.267  0.2160  0.0511 -0.3674
 4598TIP3    H135353   2.621   0.809   1.362 -0.9253 -0.8383 -0.4258
 4598TIP3    H235354   2.546   0.877   1.250 -0.3940 -0.8207 -0.7753
 4599TIP3   OH235355   3.399   3.387   6.599 -0.0470  0.0963  0.0718
 4599TIP3    H135356   3.409   3.322   6.529  2.0874  1.6643 -1.1835
 4599TIP3    H235357   3.487   3.400   6.633 -0.9698 -0.3654  2.9482
 4600TIP3   OH235358   0.342   0.100   1.928  0.2739 -0.2902  0.1639
 4600TIP3    H135359   0.396   0.078   2.005  2.5743  2.5544 -0.4904
 4600TIP3    H235360   0.403   0.094   1.854 -0.6666  1.5402 -0.8112
 4601TIP3   OH235361   3.238   3.244   1.059  0.0020 -0.1737  0.1816
 4601TIP3    H135362   3.146   3.225   1.040 -0.5640  1.3378  1.2436
 4601TIP3    H235363   3.261   3.184   1.130 -0.0751 -0.7085 -0.2350
 4602TIP3   OH235364   4.824   6.210   0.223 -0.3445 -0.0482 -0.2117
 4602TIP3    H135365   4.729   6.196   0.218 -0.4777  0.5700  0.5374
 4602TIP3    H235366   4.834   6.305   0.230  0.3695 -0.0543 -0.9784
 4603TIP3   OH235367   5.392   3.556   7.442 -0.0475  0.4300 -0.2792
 4603TIP3    H135368   5.296   3.557   7.448 -0.0396  2.1721  0.3110
 4603TIP3    H235369   5.412   3.616   7.370  0.6254  2.0911  1.2167
 4604TIP3   OH235370   4.151   2.229   0.412 -0.1513 -0.5356 -0.2222
 4604TIP3    H135371   4.097   2.256   0.338  0.0980  1.0518  0.1325
 4604TIP3    H235372   4.165   2.135   0.399 -0.9088 -0.4780 -1.6521
 4605TIP3   OH235373   3.537   1.095   8.094  0.1008 -0.3368  0.2287
 4605TIP3    H135374   3.447   1.125   8.101  0.4450  0.7007  0.2767
 4605TIP3    H235375   3.578   1.122   8.176  0.8868  0.6996 -0.4884
 4606TIP3   OH235376   0.430   0.030   7.164 -0.4261 -0.5773 -0.3823
 4606TIP3    H135377   0.347   0.025   7.118  0.5587 -2.5139 -2.1216
 4606TIP3    H235378   0.490   0.070   7.101  0.4416 -1.1381  0.0696
 4607TIP3   OH235379   2.726   5.901   1.953 -0.4375 -0.0489  0.2496
 4607TIP3    H135380   2.749   5.959   1.881 -0.9261  0.3456  0.4049
 4607TIP3    H235381   2.662   5.840   1.916 -0.4702 -0.0280  0.2706
 4608TIP3   OH235382   2.083   1.817   7.725 -0.4273  0.0351 -0.4343
 4608TIP3    H135383   2.075   1.872   7.803  0.0448  2.1796 -1.8076
 4608TIP3    H235384   2.175   1.789   7.725 -0.5731 -0.4611  0.0673
 4609TIP3   OH235385   5.857   6.855   7.140  0.6342  0.1965 -0.3866
 4609TIP3    H135386   5.895   6.850   7.052 -2.2740  0.9779 -1.8220
 4609TIP3    H235387   5.772   6.812   7.132  0.3626  0.1337  2.1152
 4610TIP3   OH235388   6.305   0.368   7.291 -0.3119  0.3345  0.0540
 4610TIP3    H135389   6.358   0.446   7.276 -0.6051  0.3678 -0.8590
 4610TIP3    H235390   6.215   0.396   7.273 -0.4149 -0.2034 -0.2984
 4611TIP3   OH235391   1.171   6.677   8.456 -0.7341 -0.7762  0.2616
 4611TIP3    H135392   1.238   6.635   8.401  0.4861 -0.7595  1.6658
 4611TIP3    H235393   1.142   6.608   8.515  1.0336  0.1323  2.3507
 4612TIP3   OH235394   4.266   6.864   0.556  0.1586  0.3547  0.0898
 4612TIP3    H135395   4.220   6.832   0.634  0.5166  0.5316  0.3783
 4612TIP3    H235396   4.220   6.945   0.533  0.8802  1.0354  0.9335
 4613TIP3   OH235397   4.428   4.632   6.997  0.1445  0.0400  0.0181
 4613TIP3    H135398   4.519   4.653   7.015  0.4889 -1.9411  0.8172
 4613TIP3    H235399   4.432   4.565   6.929 -0.6781 -0.5606  0.5525
 4614TIP3   OH235400   0.187   6.695   8.318  0.1179  0.3225 -0.2177
 4614TIP3    H135401   0.217   6.704   8.228 -1.8324 -0.0423 -0.9411
 4614TIP3    H235402   0.160   6.603   8.325  0.0974  0.3842  0.7053
 4615TIP3   OH235403   3.179   3.100   8.511  0.2768  0.0167  0.0857
 4615TIP3    H135404   3.093   3.142   8.513 -0.5635 -1.6441  0.7363
 4615TIP3    H235405   3.208   3.110   8.420 -2.2894 -2.5338 -1.1458
 4616TIP3   OH235406   5.306   6.112   8.183  0.1335 -0.6470  0.0263
 4616TIP3    H135407   5.293   6.171   8.257 -1.6810 -0.4198 -0.4312
 4616TIP3    H235408   5.383   6.060   8.207  0.4149  0.3698  1.4330
 4617TIP3   OH235409   4.426   5.690   0.200 -0.4663 -0.5341 -0.4955
 4617TIP3    H135410   4.378   5.698   0.118  2.1459 -2.1523 -2.3111
 4617TIP3    H235411   4.406   5.602   0.231  1.4778 -1.3793 -1.4809
 4618TIP3   OH235412   6.089   4.963   0.254 -0.3481  0.4621  0.2434
 4618TIP3    H135413   6.092   5.024   0.328  0.2616  0.9822 -0.1960
 4618TIP3    H235414   6.156   4.996   0.194 -2.3035  1.3783 -1.5484
 4619TIP3   OH235415   2.333   2.845   8.000  0.0506 -0.1749 -0.2819
 4619TIP3    H135416   2.378   2.919   7.960 -2.8305  1.3951 -0.9176
 4619TIP3    H235417   2.271   2.816   7.933  1.5526 -3.7584 -0.3516
 4620TIP3   OH235418   3.818   0.697   1.421  0.4472  0.5328 -0.6484
 4620TIP3    H135419   3.818   0.607   1.453  0.2340  0.1728 -1.6415
 4620TIP3    H235420   3.802   0.690   1.327  1.0638  1.5690 -0.8512
 4621TIP3   OH235421   3.815   4.522   7.698  0.5037 -0.2389  0.3337
 4621TIP3    H135422   3.757   4.463   7.746 -0.0648  0.5110  0.5731
 4621TIP3    H235423   3.855   4.466   7.631 -1.2858 -0.5572 -0.5229
 4622TIP3   OH235424   1.561   4.397   6.551 -0.2864  0.1738  0.8379
 4622TIP3    H135425   1.579   4.351   6.633  0.4091  2.8436  2.3153
 4622TIP3    H235426   1.467   4.412   6.552 -0.4105 -0.5316  0.6853
 4623TIP3   OH235427   5.205   0.949   7.767 -0.4475  0.5859 -0.1759
 4623TIP3    H135428   5.142   0.890   7.724  1.6259 -2.2249  0.2947
 4623TIP3    H235429   5.220   1.019   7.703 -2.3233  0.0993 -1.2177
 4624TIP3   OH235430   2.487   1.707   0.285  0.2517 -0.0756 -0.0228
 4624TIP3    H135431   2.462   1.800   0.284  0.6530  0.0411  0.5111
 4624TIP3    H235432   2.571   1.704   0.240  0.4632 -0.1159  0.3787
 4625TIP3   OH235433   6.400   5.663   2.480  0.1242 -1.0006 -0.3481
 4625TIP3    H135434   6.415   5.755   2.458  1.4354 -0.9408  0.6361
 4625TIP3    H235435   6.330   5.665   2.546  0.5742 -0.6344  0.1302
 4626TIP3   OH235436   6.155   4.032   1.968  0.0862  0.5044 -0.1281
 4626TIP3    H135437   6.174   4.121   1.939  0.3027 -0.1893 -2.2999
 4626TIP3    H235438   6.228   3.979   1.935 -0.5155 -0.6236  0.2809
 4627TIP3   OH235439   4.311   3.302   7.984  0.0397  0.2409 -0.4353
 4627TIP3    H135440   4.382   3.366   7.981 -0.1745  0.4636 -1.3034
 4627TIP3    H235441   4.263   3.317   7.902 -1.9234  1.1461  0.8093
 4628TIP3   OH235442   5.870   5.031   7.727  0.1964 -0.0432 -0.5685
 4628TIP3    H135443   5.849   4.938   7.726 -1.6551  0.2668  1.5781
 4628TIP3    H235444   5.924   5.043   7.805 -1.3118  0.9579  0.3690
 4629TIP3   OH235445   4.301   3.606   0.769  0.3090 -0.0879 -0.5038
 4629TIP3    H135446   4.341   3.689   0.741 -2.0241  0.8786 -1.2536
 4629TIP3    H235447   4.287   3.558   0.688  0.9713 -0.9263 -0.1382
 4630TIP3   OH235448   2.054   5.250   1.490  0.1790  0.2170 -0.2919
 4630TIP3    H135449   2.140   5.284   1.464 -0.3322  0.4275 -1.7938
 4630TIP3    H235450   2.008   5.325   1.527 -0.1786  0.6855 -1.6401
 4631TIP3   OH235451   6.513   0.238   8.114  0.2356  0.3524  0.0044
 4631TIP3    H135452   6.456   0.279   8.049 -0.2623 -0.9641 -0.4224
 4631TIP3    H235453   6.600   0.241   8.074  0.0719  0.3034 -0.3603
 4632TIP3   OH235454   6.109   3.007   7.826 -0.5075 -0.3354  0.1944
 4632TIP3    H135455   6.031   3.051   7.793  0.3845 -0.1398 -1.7611
 4632TIP3    H235456   6.100   2.916   7.797  0.2583 -0.1767 -0.5801
 4633TIP3   OH235457   6.912   3.564   7.256  0.6010 -0.2120  0.4086
 4633TIP3    H135458   6.823   3.560   7.293  0.6884  2.3884  1.0872
 4633TIP3    H235459   6.914   3.493   7.192 -1.8890 -0.5222  0.5585
 4634TIP3   OH235460   6.173   6.337   0.673 -0.1765  0.0158  0.3120
 4634TIP3    H135461   6.196   6.270   0.738 -1.9002 -0.7507  0.1906
 4634TIP3    H235462   6.183   6.293   0.589  0.7839  0.6046  0.1090
 4635TIP3   OH235463   6.233   5.050   0.028  0.3560 -0.1839  0.0785
 4635TIP3    H135464   6.182   5.130   0.024  0.1577 -0.2492  1.0149
 4635TIP3    H235465   6.323   5.079   0.041  0.1728 -0.0982  1.3607
 4636TIP3   OH235466   1.306   5.530   0.158  0.6987  0.2346 -0.1960
 4636TIP3    H135467   1.395   5.532   0.123  1.1235 -1.1641  0.7579
 4636TIP3    H235468   1.253   5.492   0.088  1.6728 -3.2861  0.7860
 4637TIP3   OH235469   3.948   3.670   8.336 -0.2115 -0.2609  0.7896
 4637TIP3    H135470   3.858   3.654   8.307  0.0486 -0.4092  0.0258
 4637TIP3    H235471   3.944   3.756   8.379 -0.5513  0.1743 -0.0644
 4638TIP3   OH235472   3.534   0.941   0.791 -0.0643  0.3792 -0.2592
 4638TIP3    H135473   3.527   1.003   0.864  1.8043 -0.4165  0.6582
 4638TIP3    H235474   3.540   0.855   0.833  0.0924 -0.1860 -1.4017
 4639TIP3   OH235475   2.554   0.150   1.323 -0.4349  0.4422 -0.2844
 4639TIP3    H135476   2.571   0.108   1.239 -0.6280  0.4553 -0.3301
 4639TIP3    H235477   2.461   0.135   1.339 -0.3164  0.1188  0.1036
 4640TIP3   OH235478   0.895   4.544   0.864  0.2360  0.1744 -0.1804
 4640TIP3    H135479   0.950   4.467   0.849  0.9001  0.8323 -1.2826
 4640TIP3    H235480   0.805   4.511   0.861  0.5222 -0.6028 -0.3407
 4641TIP3   OH235481   6.676   2.696   7.749  0.1718 -0.9919 -0.1846
 4641TIP3    H135482   6.695   2.638   7.823 -1.5532 -0.2406  0.9084
 4641TIP3    H235483   6.638   2.638   7.683 -1.6547 -1.1569  0.9450
 4642TIP3   OH235484   1.990   5.839   8.558 -1.0497 -0.1098  0.1820
 4642TIP3    H135485   2.009   5.831   8.464  0.7893  0.1723  0.5016
 4642TIP3    H235486   2.002   5.932   8.578  1.4138 -0.5598  1.2024
 4643TIP3   OH235487   3.035   2.426   0.276  0.1495 -0.2913  0.3744
 4643TIP3    H135488   3.127   2.427   0.249 -0.0548 -0.2753 -0.3571
 4643TIP3    H235489   3.006   2.516   0.263 -0.0699 -0.3812  0.2418
 4644TIP3   OH235490   1.832   4.529   1.115  0.1859  0.3699 -0.1297
 4644TIP3    H135491   1.917   4.529   1.071  0.3431  1.7238  0.1412
 4644TIP3    H235492   1.804   4.437   1.114  1.6013 -0.0745 -0.3073
 4645TIP3   OH235493   5.206   2.571   7.843 -0.1821 -0.1955  0.1129
 4645TIP3    H135494   5.223   2.654   7.799  0.2909  0.3805  1.3330
 4645TIP3    H235495   5.293   2.534   7.860 -0.2873  0.1937  1.6312
 4646TIP3   OH235496   5.042   6.854   1.561  0.3132  0.1831  0.5163
 4646TIP3    H135497   4.977   6.857   1.491 -0.0998 -2.1090  0.7208
 4646TIP3    H235498   5.000   6.899   1.635 -0.8370 -0.7607  0.4644
 4647TIP3   OH235499   3.294   3.879   7.113  0.0642 -0.5734  0.1511
 4647TIP3    H135500   3.249   3.954   7.073  2.0893  0.1974 -0.8426
 4647TIP3    H235501   3.358   3.853   7.047  0.4452 -2.2225  1.1322
 4648TIP3   OH235502   0.343   2.267   7.664 -0.0317  0.6230  0.0655
 4648TIP3    H135503   0.362   2.174   7.678 -1.5338  0.5029  1.6934
 4648TIP3    H235504   0.368   2.283   7.573 -0.1727 -1.5016 -0.4099
 4649TIP3   OH235505   5.213   3.131   0.155  0.0563  0.0321 -0.3253
 4649TIP3    H135506   5.178   3.130   0.066  2.0584  0.2264 -1.1504
 4649TIP3    H235507   5.218   3.039   0.180 -0.1583 -0.0396 -0.5432
 4650TIP3   OH235508   5.023   6.187   0.927 -0.2153 -0.6285 -0.7156
 4650TIP3    H135509   5.012   6.181   1.022  0.4111 -0.2312 -0.6153
 4650TIP3    H235510   5.050   6.099   0.900  1.5529 -0.2666 -0.2502
 4651TIP3   OH235511   4.729   3.266   7.028 -0.4768  0.9698 -0.0971
 4651TIP3    H135512   4.694   3.356   7.029 -1.4998  0.6515 -2.2466
 4651TIP3    H235513   4.777   3.260   6.946  0.7454 -0.0650  0.6654
 4652TIP3   OH235514   5.491   6.838   2.160  0.3206  0.3584  0.3635
 4652TIP3    H135515   5.415   6.857   2.106  0.3179  0.1642  0.2977
 4652TIP3    H235516   5.461   6.772   2.223  0.5679 -0.0942  0.0119
 4653TIP3   OH235517   3.732   6.067   1.077  0.3820 -0.2493  0.0536
 4653TIP3    H135518   3.807   6.055   1.135  1.5188 -0.1432 -1.3406
 4653TIP3    H235519   3.668   6.001   1.105  1.4951 -1.1759  0.4418
 4654TIP3   OH235520   2.931   6.812   1.796 -0.2586 -0.1621  0.1116
 4654TIP3    H135521   2.939   6.726   1.836  1.2832 -0.5569 -0.9692
 4654TIP3    H235522   3.002   6.863   1.835 -0.3219  0.2129 -0.2634
 4655TIP3   OH235523   6.702   4.895   7.162  0.4113  0.6594  0.0937
 4655TIP3    H135524   6.737   4.858   7.081 -1.5423  1.1551 -1.0496
 4655TIP3    H235525   6.697   4.820   7.222 -0.1522 -0.2135 -0.9908
 4656TIP3   OH235526   1.652   0.222   1.485 -0.0381 -0.8892  0.1273
 4656TIP3    H135527   1.645   0.190   1.396  3.1773 -2.8259  0.4056
 4656TIP3    H235528   1.688   0.310   1.476  0.4924 -1.1611 -0.5115
 4657TIP3   OH235529   2.032   4.401   8.181  0.2616 -0.1129 -0.0722
 4657TIP3    H135530   2.044   4.321   8.232 -0.6606 -0.0030  0.3559
 4657TIP3    H235531   1.967   4.451   8.231  1.2987  1.2002  0.0066
 4658TIP3   OH235532   4.299   1.689   0.307  0.0329  0.0917  0.2577
 4658TIP3    H135533   4.367   1.665   0.371  0.4768 -0.1405 -0.2915
 4658TIP3    H235534   4.336   1.663   0.222  0.1131  1.8227 -0.2663
 4659TIP3   OH235535   2.816   6.690   0.776 -0.1152 -0.4020 -0.3364
 4659TIP3    H135536   2.733   6.733   0.797 -1.5465 -2.6307 -1.1055
 4659TIP3    H235537   2.862   6.685   0.860 -0.4944  1.2860  0.0203
 4660TIP3   OH235538   2.955   2.867   7.654  0.3616  0.4121 -0.5184
 4660TIP3    H135539   3.008   2.879   7.575 -0.0101  1.4688 -0.6193
 4660TIP3    H235540   2.999   2.797   7.702 -0.6742 -1.9490 -2.7588
 4661TIP3   OH235541   4.040   3.090   6.773  0.4801 -0.6122  0.2551
 4661TIP3    H135542   3.963   3.111   6.720  0.4671  2.1268  1.2443
 4661TIP3    H235543   4.115   3.122   6.722  0.4858  1.7997  1.6336
 4662TIP3   OH235544   4.978   1.735   0.962 -0.5583 -0.1262  0.7076
 4662TIP3    H135545   4.976   1.721   0.867  1.9103  0.8769  0.4311
 4662TIP3    H235546   4.988   1.829   0.972 -0.1162 -0.2826  1.9442
 4663TIP3   OH235547   1.611   5.406   1.453 -0.2634 -0.2961  0.2357
 4663TIP3    H135548   1.623   5.368   1.540  0.2606 -0.3560  0.1389
 4663TIP3    H235549   1.688   5.379   1.404 -1.2740 -1.5805 -0.7414
 4664TIP3   OH235550   1.058   2.657   7.411 -0.0934 -0.2513 -0.3611
 4664TIP3    H135551   1.053   2.723   7.480 -0.6666  0.2527 -0.8748
 4664TIP3    H235552   0.967   2.643   7.384 -0.2021 -2.5566  0.9361
 4665TIP3   OH235553   1.008   0.248   8.113 -0.1575  0.1061  0.0580
 4665TIP3    H135554   0.959   0.187   8.169 -0.0835 -1.6010 -1.6290
 4665TIP3    H235555   0.943   0.277   8.048 -0.1657  1.8099  0.7849
 4666TIP3   OH235556   0.697   4.866   1.719  0.6760 -0.5976 -0.3543
 4666TIP3    H135557   0.682   4.942   1.775  0.2332 -1.4890  0.7802
 4666TIP3    H235558   0.780   4.829   1.751  1.6566  0.1889 -1.8473
 4667TIP3   OH235559   0.348   6.640   3.133  0.2006 -0.5163  0.0079
 4667TIP3    H135560   0.442   6.647   3.118 -0.1355  0.6547 -1.8676
 4667TIP3    H235561   0.328   6.712   3.193  0.4377 -0.5347  0.1092
 4668TIP3   OH235562   5.679   2.542   6.342 -0.4764 -0.2157  0.0882
 4668TIP3    H135563   5.691   2.452   6.373  0.3163  0.2423  1.1975
 4668TIP3    H235564   5.758   2.561   6.291  0.8426  0.7672  2.2953
 4669TIP3   OH235565   0.438   3.013   6.815 -0.1561  0.0350 -0.1683
 4669TIP3    H135566   0.483   2.928   6.811  0.6112  0.3837  0.7417
 4669TIP3    H235567   0.355   2.994   6.858  0.7501  0.0135  1.6532
 4670TIP3   OH235568   1.470   2.100   0.707 -0.1532  0.2976  0.0255
 4670TIP3    H135569   1.493   2.149   0.628 -0.2022  0.7012  0.2594
 4670TIP3    H235570   1.518   2.018   0.698 -1.1812 -0.2224 -1.0624
 4671TIP3   OH235571   3.456   4.481   0.644  0.1650  0.6028 -0.0132
 4671TIP3    H135572   3.535   4.504   0.595 -0.3098  0.2017 -1.0026
 4671TIP3    H235573   3.415   4.565   0.663  0.7819  0.8088  0.4285
 4672TIP3   OH235574   6.513   0.810   8.170 -0.4700  0.2098  0.4161
 4672TIP3    H135575   6.537   0.822   8.262  0.3781 -0.3761  0.2760
 4672TIP3    H235576   6.511   0.898   8.134  3.2474  0.2528  0.0049
 4673TIP3   OH235577   4.590   1.730   7.944 -0.0913 -0.4052 -0.5366
 4673TIP3    H135578   4.649   1.658   7.966  0.2887 -1.2603 -3.8186
 4673TIP3    H235579   4.641   1.809   7.963  1.7842 -1.1253 -2.2746
 4674TIP3   OH235580   1.588   5.863   0.607 -0.1691  0.1941 -0.4813
 4674TIP3    H135581   1.517   5.801   0.626  0.0071 -0.0660 -0.6662
 4674TIP3    H235582   1.565   5.898   0.521 -0.2339  0.3415 -0.4055
 4675TIP3   OH235583   3.223   3.334   1.508  0.0164 -0.2411 -0.4988
 4675TIP3    H135584   3.155   3.281   1.468  1.4820 -0.9794 -2.1388
 4675TIP3    H235585   3.281   3.271   1.551  1.1041  0.1086 -1.4078
 4676TIP3   OH235586   3.132   5.850   1.570  0.2700 -0.0900 -0.1344
 4676TIP3    H135587   3.077   5.774   1.555 -0.2574  0.6729 -2.3916
 4676TIP3    H235588   3.099   5.888   1.651 -0.6438 -1.2253  0.0458
 4677TIP3   OH235589   4.737   2.837   0.580  0.0465 -0.0044  0.4664
 4677TIP3    H135590   4.772   2.909   0.527  0.2366 -0.0289  0.5590
 4677TIP3    H235591   4.814   2.788   0.609 -0.1386 -2.9401 -3.2784
 4678TIP3   OH235592   6.654   6.088   6.918  0.4435  0.1466  0.5021
 4678TIP3    H135593   6.568   6.101   6.959  0.1040  1.4396 -0.5591
 4678TIP3    H235594   6.638   6.021   6.851  0.0747  0.9002 -0.1823
 4679TIP3   OH235595   1.558   4.216   0.945 -0.1085 -0.4595 -0.2023
 4679TIP3    H135596   1.472   4.200   0.906 -0.1505  0.3974 -0.4725
 4679TIP3    H235597   1.605   4.133   0.931 -0.7411 -0.7945 -0.4231
 4680TIP3   OH235598   1.199   6.803   0.147  0.3204 -0.5211  0.3087
 4680TIP3    H135599   1.206   6.729   0.087 -1.9388  0.1377 -0.8750
 4680TIP3    H235600   1.280   6.852   0.134  0.1973 -0.7749 -1.7368
 4681TIP3   OH235601   3.108   4.555   6.600  0.1612  0.2124 -0.3558
 4681TIP3    H135602   3.061   4.588   6.523 -0.1778 -0.3596 -0.3966
 4681TIP3    H235603   3.159   4.630   6.630  2.1729 -0.1472 -2.5537
 4682TIP3   OH235604   6.834   3.885   1.428 -0.1763 -0.4029  0.3648
 4682TIP3    H135605   6.824   3.959   1.489  0.4111 -1.2517  1.5317
 4682TIP3    H235606   6.928   3.865   1.430  0.0268  0.1267 -1.5633
 4683TIP3   OH235607   1.996   0.039   7.550  0.2680 -0.6114 -0.0795
 4683TIP3    H135608   1.905   0.022   7.572  0.0295 -0.4868 -0.9329
 4683TIP3    H235609   1.994   0.068   7.459  0.9551  1.2765  0.4712
 4684TIP3   OH235610   0.017   1.199   7.324  0.2357  0.0396  0.0804
 4684TIP3    H135611   0.011   1.202   7.228  2.0613  0.3831 -0.0508
 4684TIP3    H235612  -0.029   1.118   7.348  1.4406 -1.1119 -1.2686
 4685TIP3   OH235613   2.360   0.544   1.946  0.1858  0.0303  0.4693
 4685TIP3    H135614   2.363   0.509   1.857  1.8809  1.0989  0.0507
 4685TIP3    H235615   2.271   0.576   1.956  0.2090  0.7617 -1.2291
 4686TIP3   OH235616   2.159   6.475   8.386 -0.4937 -0.1584  0.2373
 4686TIP3    H135617   2.253   6.483   8.403 -0.5002  2.0799 -0.4137
 4686TIP3    H235618   2.118   6.482   8.472 -0.1090  0.6800  0.3644
 4687TIP3   OH235619   3.203   3.941   0.479 -0.1460  0.3038 -0.4186
 4687TIP3    H135620   3.230   4.004   0.413 -1.1788  1.1690 -0.0496
 4687TIP3    H235621   3.285   3.909   0.517  0.4235  0.5133 -1.4440
 4688TIP3   OH235622   4.461   4.286   7.763  0.2143 -0.0089 -0.2208
 4688TIP3    H135623   4.466   4.379   7.741 -0.5791 -0.4209 -2.4969
 4688TIP3    H235624   4.476   4.282   7.857  0.7043  2.3663 -0.1390
 4689TIP3   OH235625   3.285   4.766   0.369 -0.6919  0.2728 -0.0884
 4689TIP3    H135626   3.207   4.711   0.375 -1.2538  1.2068  2.1390
 4689TIP3    H235627   3.266   4.827   0.299 -1.1533 -0.6959 -0.8349
 4690TIP3   OH235628   5.179   0.406   0.605 -0.2578 -0.0519  0.0506
 4690TIP3    H135629   5.257   0.351   0.609 -0.0337  0.2703  0.0697
 4690TIP3    H235630   5.205   0.482   0.554 -0.2710  0.5268  0.8931
 4691TIP3   OH235631   5.889   3.971   1.338  0.0226 -0.3982  0.8016
 4691TIP3    H135632   5.968   3.917   1.344  0.4508  0.1046 -0.1757
 4691TIP3    H235633   5.867   3.990   1.429  1.3235 -0.1316  1.0827
 4692TIP3   OH235634   4.787   5.710   7.658  0.1108 -0.1286  0.2830
 4692TIP3    H135635   4.745   5.796   7.663  2.0366  0.9169 -0.4109
 4692TIP3    H235636   4.878   5.729   7.632  0.4472 -2.4041 -0.4507
 4693TIP3   OH235637   5.686   0.378   2.153  0.0082  0.0520 -0.0851
 4693TIP3    H135638   5.730   0.403   2.234  0.4373 -1.5366  0.2039
 4693TIP3    H235639   5.596   0.361   2.180  0.3152 -1.1784  0.2254
 4694TIP3   OH235640   6.208   1.646   1.037  0.0108  0.4574  0.2881
 4694TIP3    H135641   6.168   1.577   0.984 -0.9652  0.6307  0.7698
 4694TIP3    H235642   6.190   1.726   0.988 -0.6708  0.5889  0.7403
 4695TIP3   OH235643   5.678   2.521   8.103  0.1553 -0.2087 -0.3302
 4695TIP3    H135644   5.750   2.481   8.054  0.4240  0.5790 -0.5912
 4695TIP3    H235645   5.634   2.448   8.146  1.9053 -0.5692  0.9136
 4696TIP3   OH235646   3.149   2.591   1.478  0.1112  0.1592 -0.2077
 4696TIP3    H135647   3.146   2.498   1.455 -2.3442  0.4860 -1.5751
 4696TIP3    H235648   3.238   2.619   1.457  0.4039 -1.5072 -1.3784
 4697TIP3   OH235649   4.123   0.956   7.361  0.1812 -0.3392  0.4457
 4697TIP3    H135650   4.196   0.899   7.383  0.3998  0.0325  0.6869
 4697TIP3    H235651   4.158   1.045   7.371  0.1379 -0.1473 -0.8484
 4698TIP3   OH235652   3.964   2.056   0.801 -0.4870 -0.2997  0.1728
 4698TIP3    H135653   4.020   2.122   0.761 -0.3472 -0.2481  0.4517
 4698TIP3    H235654   3.975   2.069   0.896 -1.0107 -0.2539  0.2308
 4699TIP3   OH235655   4.635   6.682   7.101 -0.1884  0.3809  0.3224
 4699TIP3    H135656   4.554   6.726   7.076 -0.3705 -0.1218 -0.0067
 4699TIP3    H235657   4.607   6.617   7.166  0.0756  0.7442  0.8051
 4700TIP3   OH235658   1.428   6.329   0.891  0.0143  0.8150 -0.2130
 4700TIP3    H135659   1.350   6.283   0.860  0.0204 -0.3426  1.3729
 4700TIP3    H235660   1.495   6.310   0.825 -0.6031  0.4375 -0.7362
 4701TIP3   OH235661   1.000   4.829   0.157 -0.0204  0.2659  0.3814
 4701TIP3    H135662   0.945   4.905   0.177 -2.2577 -0.7399 -1.4793
 4701TIP3    H235663   0.941   4.754   0.164  1.4478 -1.0322 -0.4578
 4702TIP3   OH235664   4.681   5.694   1.346  0.4617 -0.3213  0.1092
 4702TIP3    H135665   4.638   5.752   1.409  0.9639 -0.8908  1.0077
 4702TIP3    H235666   4.623   5.617   1.342  0.7548 -0.5619  0.3847
 4703TIP3   OH235667   2.340   3.193   0.797 -0.4745 -0.6810  0.5908
 4703TIP3    H135668   2.362   3.108   0.759  0.5986  0.1999 -0.8528
 4703TIP3    H235669   2.403   3.203   0.869  1.2612  0.0041 -0.9240
 4704TIP3   OH235670   3.184   1.953   0.906 -0.3678  0.1820 -0.1255
 4704TIP3    H135671   3.109   1.940   0.964 -0.6090  3.6913  0.5252
 4704TIP3    H235672   3.247   2.002   0.958  2.3216 -2.2590 -0.8072
 4705TIP3   OH235673   2.239   3.349   2.178  0.0059 -0.1687  0.4012
 4705TIP3    H135674   2.313   3.351   2.240 -0.5574 -0.9889  1.1231
 4705TIP3    H235675   2.185   3.425   2.203  1.7070  1.8478 -1.6001
 4706TIP3   OH235676   5.510   0.928   0.733  0.2340  0.3470  0.0188
 4706TIP3    H135677   5.532   0.914   0.641 -1.1592 -2.2954 -0.0128
 4706TIP3    H235678   5.434   0.987   0.731 -0.1652 -0.1733 -0.5762
 4707TIP3   OH235679   1.819   1.777   7.689 -0.4169 -0.3616  0.3701
 4707TIP3    H135680   1.792   1.768   7.598 -0.7620  0.6252  0.3681
 4707TIP3    H235681   1.901   1.826   7.685 -0.0837 -0.8846  0.5623
 4708TIP3   OH235682   3.823   1.399   8.142  0.1424 -0.4334  0.2306
 4708TIP3    H135683   3.810   1.321   8.087 -0.3495  0.4122 -0.9066
 4708TIP3    H235684   3.740   1.446   8.136  0.8620  0.8278 -0.1639
 4709TIP3   OH235685   5.320   6.506   6.920  0.0326  0.7962 -0.2420
 4709TIP3    H135686   5.287   6.546   7.001  0.9773  1.4335 -0.1644
 4709TIP3    H235687   5.414   6.521   6.922  0.2298 -0.2723 -0.8714
 4710TIP3   OH235688   5.737   1.905   1.882 -0.0929  0.0130  0.4280
 4710TIP3    H135689   5.668   1.939   1.826 -0.0971 -1.3758 -0.4487
 4710TIP3    H235690   5.692   1.842   1.939  0.1940  0.2142  0.8791
 4711TIP3   OH235691   1.385   0.917   6.281  0.4713  0.0947  0.4141
 4711TIP3    H135692   1.377   0.928   6.186 -0.5675  0.8481  0.5755
 4711TIP3    H235693   1.429   0.833   6.291  1.4547  0.4356 -0.7446
 4712TIP3   OH235694   2.735   6.111   2.731  0.0397 -0.0247  0.1045
 4712TIP3    H135695   2.679   6.036   2.752 -0.4756  0.0758 -0.8715
 4712TIP3    H235696   2.673   6.181   2.710  0.5306  0.2919 -0.2963
 4713TIP3   OH235697   1.126   6.483   1.180 -0.0880 -0.2876  0.5095
 4713TIP3    H135698   1.100   6.417   1.116 -1.5374 -0.3229  1.0996
 4713TIP3    H235699   1.201   6.527   1.140 -0.2623 -1.0552 -0.7075
 4714TIP3   OH235700   2.135   2.804   7.119  0.0556 -0.0822 -0.4781
 4714TIP3    H135701   2.097   2.879   7.074 -3.1855 -1.8994 -1.0837
 4714TIP3    H235702   2.066   2.773   7.177  0.5662 -3.5136 -1.4462
 4715TIP3   OH235703   4.445   4.369   7.324 -0.0848 -0.0803 -0.7095
 4715TIP3    H135704   4.441   4.460   7.294  1.5542 -0.2619 -1.5970
 4715TIP3    H235705   4.536   4.356   7.348 -0.5341 -1.1853  0.4841
 4716TIP3   OH235706   2.031   0.832   2.951 -0.0035 -0.4921  0.9631
 4716TIP3    H135707   1.974   0.873   2.886  0.9834  0.6231  0.7542
 4716TIP3    H235708   1.997   0.744   2.961 -0.1041 -0.7514 -1.1910
 4717TIP3   OH235709   6.498   2.144   8.456 -0.2111  0.1801 -0.0011
 4717TIP3    H135710   6.589   2.122   8.435 -0.0041 -1.8999  2.5356
 4717TIP3    H235711   6.504   2.225   8.505  0.3041 -0.0021  0.2471
 4718TIP3   OH235712   4.374   1.748   8.346  0.0881  0.0267 -0.0208
 4718TIP3    H135713   4.382   1.838   8.314 -2.1372  0.9523  1.7682
 4718TIP3    H235714   4.310   1.707   8.288 -1.5224  0.7217  1.1978
 4719TIP3   OH235715   3.716   2.268   7.830  0.2725  0.0056 -0.3569
 4719TIP3    H135716   3.801   2.235   7.859  0.0517  0.6531  1.0958
 4719TIP3    H235717   3.688   2.327   7.899  0.0905  2.3126 -2.2707
 4720TIP3   OH235718   1.617   6.830   2.153 -0.3430 -0.0165  0.2140
 4720TIP3    H135719   1.618   6.895   2.083  1.0027 -0.0816  0.1379
 4720TIP3    H235720   1.680   6.863   2.217 -1.1913 -0.2077  1.1749
 4721TIP3   OH235721   1.941   0.106   1.208  0.1355 -0.5852 -0.3819
 4721TIP3    H135722   1.948   0.070   1.296 -0.0032 -1.1010 -0.5788
 4721TIP3    H235723   1.916   0.031   1.153  0.8270 -0.4033 -0.9613
 4722TIP3   OH235724   4.422   2.017   0.528 -0.2468  0.1037 -0.0381
 4722TIP3    H135725   4.358   2.024   0.599 -1.0632  0.8310 -0.8239
 4722TIP3    H235726   4.370   2.009   0.449  0.6516 -0.4839 -0.5869
 4723TIP3   OH235727   0.786   2.386   1.100 -0.0580 -0.3071 -0.1766
 4723TIP3    H135728   0.691   2.399   1.096 -0.1386 -0.0459  1.5908
 4723TIP3    H235729   0.820   2.439   1.028 -1.1514  1.0873  0.2717
 4724TIP3   OH235730   2.003   2.794   7.786  0.0465 -0.1233  0.4133
 4724TIP3    H135731   1.916   2.809   7.824  0.0922 -0.5511  0.6983
 4724TIP3    H235732   2.050   2.876   7.800 -0.1417 -0.0658  0.7267
 4725TIP3   OH235733   0.872   2.197   1.578  1.2332  0.1993  0.9708
 4725TIP3    H135734   0.907   2.171   1.493 -0.0178 -0.4745  0.6328
 4725TIP3    H235735   0.900   2.288   1.589 -0.8160  1.2282 -1.4155
 4726TIP3   OH235736   3.678   4.175   0.723 -0.1025 -0.1254  0.5857
 4726TIP3    H135737   3.727   4.179   0.641  0.8454  0.2015  1.1511
 4726TIP3    H235738   3.743   4.152   0.789 -1.1931 -2.2646  1.0029
 4727TIP3   OH235739   3.227   4.765   2.062 -0.2318 -0.1370  0.4058
 4727TIP3    H135740   3.240   4.853   2.096  1.1809 -0.7668  1.6275
 4727TIP3    H235741   3.156   4.729   2.115 -0.0927 -0.0762  0.6374
 4728TIP3   OH235742   2.334   1.702   7.765  0.1487  0.3652 -0.2444
 4728TIP3    H135743   2.343   1.722   7.858  0.5696 -0.4258 -0.1049
 4728TIP3    H235744   2.391   1.626   7.752  2.8877  2.5102 -1.8539
 4729TIP3   OH235745   4.697   5.228   8.311 -0.0807 -0.4822  0.2142
 4729TIP3    H135746   4.727   5.308   8.270  1.2328 -0.0124  1.9903
 4729TIP3    H235747   4.630   5.256   8.373  0.5075 -0.7020  0.9694
 4730TIP3   OH235748   4.621   3.661   8.346  0.0326  0.3156  0.3763
 4730TIP3    H135749   4.535   3.624   8.364  0.4147 -1.4470 -1.0429
 4730TIP3    H235750   4.678   3.623   8.413  0.0241 -0.0054  0.2060
 4731TIP3   OH235751   2.054   5.457   7.900 -0.0917  0.0570 -0.1633
 4731TIP3    H135752   2.103   5.516   7.957 -1.2274  0.1042  0.7882
 4731TIP3    H235753   2.057   5.372   7.945 -3.7585  0.7791  1.7758
 4732TIP3   OH235754   0.186   6.911   7.033  0.1698  0.1480 -0.1116
 4732TIP3    H135755   0.135   6.830   7.036 -0.8282  0.7769  0.7485
 4732TIP3    H235756   0.171   6.946   6.945 -1.7164  0.8016  0.4146
 4733TIP3   OH235757   4.501   1.317   1.595 -0.1539 -0.3946 -0.5013
 4733TIP3    H135758   4.556   1.288   1.522 -0.4804 -0.6114 -0.6613
 4733TIP3    H235759   4.435   1.249   1.604  0.9788 -1.3423  1.2102
 4734TIP3   OH235760   1.334   0.674   1.979  0.2371  0.6382 -0.6567
 4734TIP3    H135761   1.357   0.645   1.891 -0.6905  1.0009 -1.0319
 4734TIP3    H235762   1.266   0.740   1.965 -2.0355 -1.3052  0.4221
 4735TIP3   OH235763   3.323   1.857   8.154 -0.4209 -0.3838  0.1837
 4735TIP3    H135764   3.260   1.787   8.172 -1.1647  0.5179  1.2059
 4735TIP3    H235765   3.281   1.911   8.088 -0.6540  0.1287  0.7475
 4736TIP3   OH235766   2.378   4.009   7.314  0.6142 -0.0433 -0.5743
 4736TIP3    H135767   2.337   3.942   7.368  0.2935 -0.2258 -1.0320
 4736TIP3    H235768   2.361   3.980   7.224  1.3581  0.1183 -0.7684
 4737TIP3   OH235769   3.058   6.169   8.537 -0.2126 -0.0915  0.3597
 4737TIP3    H135770   3.098   6.118   8.467 -0.0670  2.3473 -1.4713
 4737TIP3    H235771   2.964   6.153   8.529 -0.0993 -0.8017  0.4359
 4738TIP3   OH235772   0.779   4.112   0.775  0.7086  0.4120  0.3148
 4738TIP3    H135773   0.843   4.057   0.732 -0.1693 -0.8393  0.5550
 4738TIP3    H235774   0.799   4.104   0.868 -0.4005 -0.8372  0.4800
 4739TIP3   OH235775   6.443   4.463   1.639 -0.2841 -0.0476  0.6328
 4739TIP3    H135776   6.420   4.552   1.665 -0.0531  0.2032  0.0043
 4739TIP3    H235777   6.475   4.472   1.549 -1.4472 -0.9271  0.1032
 4740TIP3   OH235778   1.681   0.186   6.893 -0.0841  0.1113  0.3449
 4740TIP3    H135779   1.704   0.198   6.801 -3.3661  1.3195 -0.4446
 4740TIP3    H235780   1.612   0.120   6.892 -0.7913  0.7827  1.8402
 4741TIP3   OH235781   0.205   1.913   1.807 -0.1347  0.8033 -0.0575
 4741TIP3    H135782   0.161   1.962   1.876  0.0341  1.5305 -0.4446
 4741TIP3    H235783   0.294   1.901   1.839  0.7334  3.4173 -1.1511
 4742TIP3   OH235784   1.046   2.691   1.241 -0.4701  0.4894 -0.6034
 4742TIP3    H135785   1.017   2.760   1.300 -1.2530 -0.7973  0.6017
 4742TIP3    H235786   0.985   2.695   1.168 -0.8807  0.7004 -0.2541
 4743TIP3   OH235787   3.646   2.650   1.834  0.1813  0.4627 -0.0493
 4743TIP3    H135788   3.718   2.631   1.894  0.3156 -3.1146 -1.1071
 4743TIP3    H235789   3.567   2.628   1.883 -0.0342  1.4560  0.0845
 4744TIP3   OH235790   1.951   6.011   8.297 -0.4239 -0.3735 -0.5879
 4744TIP3    H135791   2.034   5.977   8.330  0.2624 -0.5246 -2.3536
 4744TIP3    H235792   1.972   6.098   8.263 -1.1051 -0.2118 -0.6177
 4745TIP3   OH235793   0.337   4.981   1.890 -0.0162  0.3026  0.2739
 4745TIP3    H135794   0.372   5.032   1.816 -2.6026  1.1685 -0.4557
 4745TIP3    H235795   0.292   5.046   1.944 -4.2768 -1.0837 -1.1835
 4746TIP3   OH235796   6.868   1.026   1.720 -0.0527 -0.3099  0.2156
 4746TIP3    H135797   6.915   1.110   1.722  0.9108 -0.8419  1.0204
 4746TIP3    H235798   6.936   0.962   1.698 -1.1862 -0.6525 -2.6778
 4747TIP3   OH235799   0.184   3.049   8.017 -0.3848 -0.7319 -0.9447
 4747TIP3    H135800   0.213   2.958   8.004  2.6092  0.3181 -2.7379
 4747TIP3    H235801   0.116   3.062   7.951 -0.0626 -1.3971 -1.4282
 4748TIP3   OH235802   6.244   4.046   6.521  0.2048  0.3138 -0.3067
 4748TIP3    H135803   6.338   4.051   6.501  0.5569 -0.9411  0.8813
 4748TIP3    H235804   6.208   3.989   6.452  0.3225  0.7497 -0.7304
 4749TIP3   OH235805   5.513   0.027   1.721 -0.2754  0.4296  0.7747
 4749TIP3    H135806   5.448   0.089   1.754 -2.6359 -1.4448 -0.0835
 4749TIP3    H235807   5.553  -0.010   1.800 -1.8268  0.0646  1.4123
 4750TIP3   OH235808   6.503   2.407   7.721  0.0007  0.1526 -1.0903
 4750TIP3    H135809   6.437   2.476   7.719  1.7021  1.9672  0.6703
 4750TIP3    H235810   6.572   2.438   7.663  0.0225 -0.9364 -1.6623
 4751TIP3   OH235811   3.700   0.633   0.789  0.7015 -0.3414  0.9347
 4751TIP3    H135812   3.774   0.678   0.830  0.5656 -1.6371  2.7248
 4751TIP3    H235813   3.645   0.605   0.862 -0.7151 -0.8684 -0.2735
 4752TIP3   OH235814   1.662   6.599   0.457 -0.4100  0.5244 -0.1423
 4752TIP3    H135815   1.694   6.555   0.536 -0.1632 -0.0419 -0.5490
 4752TIP3    H235816   1.579   6.555   0.438 -2.0711  2.6878  1.5171
 4753TIP3   OH235817   5.680   4.972   0.132 -0.3068  0.8426 -0.3201
 4753TIP3    H135818   5.647   5.059   0.111  2.5630  1.7148 -1.8559
 4753TIP3    H235819   5.710   4.937   0.047 -0.6445 -1.3030  0.3951
 4754TIP3   OH235820   1.157   1.496   8.021  0.0232 -0.5336  0.5243
 4754TIP3    H135821   1.187   1.480   8.110 -1.3795 -0.5880  1.0136
 4754TIP3    H235822   1.062   1.496   8.027 -0.1014 -0.2984 -0.9387
 4755TIP3   OH235823   2.270   1.297   7.812  0.2000 -0.3980  0.7820
 4755TIP3    H135824   2.184   1.341   7.808 -0.0449 -0.8280  1.2423
 4755TIP3    H235825   2.260   1.222   7.755  0.5988  0.0986  0.0486
 4756TIP3   OH235826   1.576   2.496   0.255 -0.0098  0.2567 -0.4834
 4756TIP3    H135827   1.641   2.426   0.258  0.4004  0.6612  0.3684
 4756TIP3    H235828   1.626   2.576   0.268 -0.9900  0.3783  3.8477
 4757TIP3   OH235829   2.645   2.903   7.709  0.0668 -0.3341 -0.2253
 4757TIP3    H135830   2.585   2.828   7.712  1.0292 -1.1572 -1.1834
 4757TIP3    H235831   2.732   2.864   7.706  0.5498  0.7935 -1.7628
 4758TIP3   OH235832   5.579   0.694   1.137 -0.2030  0.1908 -0.1633
 4758TIP3    H135833   5.658   0.748   1.133  0.3987 -0.5447  1.2213
 4758TIP3    H235834   5.508   0.753   1.111  0.3756  1.7798  1.6891
 4759TIP3   OH235835   0.985   1.831   0.082  0.6437  0.6535  0.5644
 4759TIP3    H135836   1.054   1.800   0.141  0.3546  1.8215  1.5771
 4759TIP3    H235837   0.928   1.885   0.138  0.2187  1.6102 -0.7279
 4760TIP3   OH235838   1.303   5.253   1.350  0.0992 -0.4882  0.2433
 4760TIP3    H135839   1.399   5.247   1.345  0.2389  1.8439 -1.3723
 4760TIP3    H235840   1.286   5.346   1.368 -1.8769 -1.1230  2.0662
 4761TIP3   OH235841   6.532   3.898   7.034  0.0676  0.8900  0.3026
 4761TIP3    H135842   6.486   3.979   7.056 -0.3919  1.3951 -2.2170
 4761TIP3    H235843   6.467   3.829   7.047 -0.3165  1.2105  0.0964
 4762TIP3   OH235844   3.445   5.093   7.069  0.3662 -0.4794  0.4477
 4762TIP3    H135845   3.511   5.029   7.042 -1.7934 -1.6843 -2.5903
 4762TIP3    H235846   3.476   5.176   7.033  1.0215 -0.7030  0.4848
 4763TIP3   OH235847   0.924   4.346   1.614  0.1904 -0.7041 -0.4138
 4763TIP3    H135848   0.939   4.297   1.695 -1.3198  0.2674  0.5122
 4763TIP3    H235849   0.857   4.410   1.637 -1.1817 -1.1890 -2.7626
 4764TIP3   OH235850   1.127   3.718   1.846 -0.0827  0.0708 -0.1053
 4764TIP3    H135851   1.104   3.775   1.772  0.9135  1.4152  0.5899
 4764TIP3    H235852   1.217   3.690   1.827  0.5279  1.1905  1.0457
 4765TIP3   OH235853   3.947   0.604   6.616  0.3783 -0.2348  0.4329
 4765TIP3    H135854   3.856   0.603   6.648 -0.2601 -0.0308 -1.2692
 4765TIP3    H235855   3.948   0.673   6.550  2.0386  0.4170  1.1023
 4766TIP3   OH235856   6.878   5.762   2.185 -0.1884  0.3172 -0.0289
 4766TIP3    H135857   6.788   5.766   2.152 -0.8167 -1.0725  1.3715
 4766TIP3    H235858   6.909   5.675   2.160  0.8954  0.8993 -0.7719
 4767TIP3   OH235859   4.256   3.492   0.519 -0.5404  0.1560  0.2610
 4767TIP3    H135860   4.227   3.518   0.432 -1.9109 -0.5280  0.4735
 4767TIP3    H235861   4.174   3.477   0.567  0.1207 -2.5536  0.7137
 4768TIP3   OH235862   1.773   2.207   8.466 -0.0787  0.1785 -0.3313
 4768TIP3    H135863   1.798   2.143   8.399  0.5758 -1.1696  1.1276
 4768TIP3    H235864   1.813   2.289   8.437 -0.7067 -0.1031 -2.1133
 4769TIP3   OH235865   5.932   1.951   8.046  0.2386  0.5010 -0.0695
 4769TIP3    H135866   5.949   1.895   8.121 -0.7180  0.8258  0.4089
 4769TIP3    H235867   6.018   1.980   8.017  0.6764 -0.4006  0.3039
 4770TIP3   OH235868   1.021   5.928   8.151 -0.0357 -0.1784  0.2009
 4770TIP3    H135869   1.083   5.880   8.205  0.3255 -0.4855 -0.4651
 4770TIP3    H235870   0.940   5.928   8.201 -0.1001 -1.6605  0.1522
 4771TIP3   OH235871   1.432   5.862   7.334  0.0015  0.0496  0.6475
 4771TIP3    H135872   1.489   5.920   7.282 -0.2019  1.9997  2.4692
 4771TIP3    H235873   1.397   5.800   7.270  1.4055  0.9963 -1.1542
 4772TIP3   OH235874   4.190   2.158   1.056  0.7579  0.7459 -0.3240
 4772TIP3    H135875   4.260   2.098   1.084 -0.7853 -0.3807  1.3889
 4772TIP3    H235876   4.112   2.128   1.104 -0.2877  3.6649  0.0169
 4773TIP3   OH235877   1.539   1.370   0.448  0.0016 -0.7074 -0.0679
 4773TIP3    H135878   1.461   1.350   0.499 -1.0851 -0.1395 -1.4193
 4773TIP3    H235879   1.596   1.419   0.508  0.2214 -2.8002  1.5227
 4774TIP3   OH235880   0.376   5.530   0.626  0.7671  0.2575  0.7478
 4774TIP3    H135881   0.437   5.603   0.615  2.7967 -1.1052  2.2478
 4774TIP3    H235882   0.306   5.565   0.682  0.3301  1.6996 -0.6061
 4775TIP3   OH235883   3.995   2.680   0.810 -0.0330  0.5881 -0.3794
 4775TIP3    H135884   3.988   2.586   0.796  2.5061  0.6910 -3.3495
 4775TIP3    H235885   3.944   2.719   0.739  1.8803  1.3677 -1.3735
 4776TIP3   OH235886   3.361   4.331   7.112  0.2541 -0.3834  0.5060
 4776TIP3    H135887   3.410   4.407   7.141  3.3776 -1.4535 -1.3874
 4776TIP3    H235888   3.351   4.344   7.017 -0.4576 -1.6165  0.3926
 4777TIP3   OH235889   4.921   0.562   0.130 -0.3501  0.0233 -0.1513
 4777TIP3    H135890   4.962   0.635   0.083 -1.0832  0.5481  0.0004
 4777TIP3    H235891   4.988   0.532   0.191  0.6080 -0.6447 -1.4823
 4778TIP3   OH235892   3.470   5.443   1.307  0.1771 -0.4095  0.4639
 4778TIP3    H135893   3.478   5.526   1.354 -0.5653 -0.1124  0.0853
 4778TIP3    H235894   3.388   5.405   1.338  0.2942 -0.7973  0.3094
 4779TIP3   OH235895   0.742   2.476   1.624  0.1686 -0.2854 -0.1574
 4779TIP3    H135896   0.716   2.495   1.534 -0.4010  1.7289  0.3942
 4779TIP3    H235897   0.786   2.555   1.654  0.0515 -0.8052  1.4675
 4780TIP3   OH235898   3.743   3.215   0.598  0.5659 -0.0353 -0.0381
 4780TIP3    H135899   3.725   3.133   0.552 -1.0749 -0.9006  2.0014
 4780TIP3    H235900   3.787   3.189   0.678  0.6929  1.1454  0.2944
 4781TIP3   OH235901   1.487   5.052   8.345  0.0611  0.6791  0.2834
 4781TIP3    H135902   1.484   5.116   8.416  2.6304 -0.1143  1.2365
 4781TIP3    H235903   1.580   5.042   8.327 -0.3203 -1.9919 -0.5681
 4782TIP3   OH235904   3.352   3.443   6.979  0.0648  0.5262  0.3645
 4782TIP3    H135905   3.295   3.369   6.956 -0.9967  0.3598  3.1498
 4782TIP3    H235906   3.307   3.519   6.942  0.2181 -0.0080 -0.9724
 4783TIP3   OH235907   4.446   3.052   0.746  0.1054 -0.3775 -0.5964
 4783TIP3    H135908   4.491   2.967   0.749  0.7362 -0.0680 -1.0799
 4783TIP3    H235909   4.481   3.100   0.820 -1.2147 -0.9930  0.4660
 4784TIP3   OH235910   6.350   2.106   6.754  0.1115  0.0152 -0.2989
 4784TIP3    H135911   6.255   2.107   6.769  0.1457 -1.3763  0.1179
 4784TIP3    H235912   6.359   2.110   6.659 -0.3130  1.4556 -0.2986
 4785TIP3   OH235913   5.123   3.528   8.420  0.4610  0.3802 -0.3542
 4785TIP3    H135914   5.181   3.596   8.387 -0.2411  0.5403 -1.2899
 4785TIP3    H235915   5.157   3.508   8.507  0.6945  1.9180 -0.0579
 4786TIP3   OH235916   4.724   0.620   2.066  0.0589  0.1366  0.5444
 4786TIP3    H135917   4.755   0.693   2.012  1.0347  1.9428  3.2985
 4786TIP3    H235918   4.661   0.660   2.126  0.1457 -1.3936  1.7140
 4787TIP3   OH235919   1.881   5.489   7.690 -0.5976  0.1557 -0.7474
 4787TIP3    H135920   1.919   5.566   7.648 -3.1136  2.3142  0.6887
 4787TIP3    H235921   1.931   5.479   7.772  0.6886 -0.7252 -1.5918
 4788TIP3   OH235922   3.357   2.014   1.811  0.2955 -0.1149  0.0075
 4788TIP3    H135923   3.407   2.095   1.824  1.1051 -0.7104  0.6816
 4788TIP3    H235924   3.275   2.030   1.857  0.3808  0.3842 -0.0028
 4789TIP3   OH235925   2.082   6.151   1.902  0.0145 -0.4962  0.4668
 4789TIP3    H135926   2.038   6.088   1.845  1.3226 -3.7920  2.7632
 4789TIP3    H235927   2.018   6.171   1.971 -0.7178  1.5699 -0.7242
 4790TIP3   OH235928   3.430   5.211   7.855  0.1681 -0.1395 -0.3655
 4790TIP3    H135929   3.383   5.274   7.799  2.4355  0.4746 -1.7087
 4790TIP3    H235930   3.385   5.128   7.839 -2.0205  0.8179  0.3806
 4791TIP3   OH235931   4.837   5.450   8.228  0.9041 -0.0101 -0.2733
 4791TIP3    H135932   4.914   5.445   8.171  0.8147  0.0456 -0.3985
 4791TIP3    H235933   4.795   5.533   8.205  1.7786  0.8368  1.0396
 4792TIP3   OH235934   0.992   3.598   1.324 -0.1769 -0.7525  0.3358
 4792TIP3    H135935   0.960   3.686   1.344  1.0239 -0.5576  1.5443
 4792TIP3    H235936   0.916   3.553   1.287 -1.2919  0.2727  1.2871
 4793TIP3   OH235937   0.892   0.554   7.931  0.0686  0.0397 -0.0404
 4793TIP3    H135938   0.941   0.589   8.005  1.5887 -0.1893 -0.8918
 4793TIP3    H235939   0.914   0.460   7.929 -0.2545 -0.0326 -0.5537
 4794TIP3   OH235940   2.741   2.967   0.791  0.6197 -0.1561 -0.3468
 4794TIP3    H135941   2.771   3.057   0.778  0.8226 -0.4512 -2.1418
 4794TIP3    H235942   2.810   2.926   0.843  2.0922 -0.0879 -2.1372
 4795TIP3   OH235943   6.899   5.796   7.311 -0.7497 -0.1871 -0.2921
 4795TIP3    H135944   6.850   5.760   7.236  1.7456 -2.1579 -1.0968
 4795TIP3    H235945   6.991   5.790   7.285  0.0560  2.8318  1.3939
 4796TIP3   OH235946   2.255   5.941   1.517  0.3396  0.1284 -0.1584
 4796TIP3    H135947   2.317   5.915   1.449 -1.6831  0.0348 -2.0760
 4796TIP3    H235948   2.308   5.949   1.596  2.6918 -0.3529 -1.5950
 4797TIP3   OH235949   6.074   3.114   7.483  0.0070 -0.1537 -0.2647
 4797TIP3    H135950   6.162   3.085   7.507  0.3294  0.2496 -0.9314
 4797TIP3    H235951   6.068   3.203   7.518  0.3315  0.2858 -1.2788
 4798TIP3   OH235952   6.689   6.037   8.538  0.4221 -0.4750  0.1975
 4798TIP3    H135953   6.659   5.971   8.476  0.5219 -0.3935  0.0627
 4798TIP3    H235954   6.785   6.033   8.534  0.4348 -0.8475  0.7461
 4799TIP3   OH235955   4.741   5.283   7.832 -0.7137 -0.4226  0.1727
 4799TIP3    H135956   4.739   5.376   7.854 -1.4963 -0.5307  0.6142
 4799TIP3    H235957   4.706   5.240   7.910 -1.7653 -0.9699 -0.5708
 4800TIP3   OH235958   5.909   1.483   0.410  0.4732  0.1352  0.7059
 4800TIP3    H135959   5.842   1.512   0.472  0.7268 -0.8098  1.4297
 4800TIP3    H235960   5.890   1.391   0.395  1.7089 -0.1812  1.0433
 4801TIP3   OH235961   0.769   2.854   0.341  0.1429 -0.6814 -0.2191
 4801TIP3    H135962   0.822   2.931   0.362  0.0088 -1.0701  1.7852
 4801TIP3    H235963   0.832   2.782   0.334  0.1998 -0.5319 -1.4063
 4802TIP3   OH235964   0.303   6.106   0.894 -0.1844 -1.0464 -0.6317
 4802TIP3    H135965   0.252   6.181   0.922 -0.1535 -0.9647 -0.7932
 4802TIP3    H235966   0.300   6.109   0.798 -1.1930 -1.9403 -0.6468
 4803TIP3   OH235967   1.005   1.183   8.079 -0.3623  0.2594  0.3725
 4803TIP3    H135968   0.980   1.275   8.083 -1.8851 -0.1312  0.4638
 4803TIP3    H235969   1.086   1.178   8.129  0.9919  1.9164 -1.4952
 4804TIP3   OH235970   0.028   3.682   8.100  0.6967  0.1503  0.1460
 4804TIP3    H135971   0.082   3.631   8.040  2.2599 -0.4084  1.9064
 4804TIP3    H235972  -0.019   3.616   8.151  1.0630  0.5099  0.9758
 4805TIP3   OH235973   0.008   6.802   2.660  0.4989 -0.3706 -0.0136
 4805TIP3    H135974   0.084   6.857   2.642  0.1911 -0.2802 -1.1362
 4805TIP3    H235975  -0.029   6.837   2.740  1.8757 -0.6872  0.8019
 4806TIP3   OH235976   2.040   2.883   8.131 -0.0238 -0.5795  0.2958
 4806TIP3    H135977   2.052   2.957   8.191 -0.8895 -1.6210  1.8356
 4806TIP3    H235978   2.015   2.923   8.048  1.4565  0.9353  0.5158
 4807TIP3   OH235979   4.708   2.165   1.625  0.0611  0.1588 -0.2833
 4807TIP3    H135980   4.730   2.258   1.633  1.0909  0.0204 -1.2563
 4807TIP3    H235981   4.741   2.140   1.538 -0.7701 -0.9633 -0.2918
 4808TIP3   OH235982   3.738   5.399   0.012 -0.3534 -0.1476  0.0568
 4808TIP3    H135983   3.803   5.333  -0.013  0.2809 -0.5318  2.4631
 4808TIP3    H235984   3.655   5.353   0.009 -0.2894 -0.2196 -1.0681
 4809TIP3   OH235985   1.017   0.278   1.570  1.3524 -0.2021  0.0288
 4809TIP3    H135986   0.942   0.337   1.581  0.5789 -1.0701 -0.4195
 4809TIP3    H235987   1.064   0.313   1.495  2.6997  1.6537  1.6512
 4810TIP3   OH235988   3.493   2.379   6.850  0.0212  0.0107 -0.2442
 4810TIP3    H135989   3.545   2.330   6.914 -1.4328  0.4899  1.3874
 4810TIP3    H235990   3.549   2.453   6.826 -0.2827  1.3123  2.5453
 4811TIP3   OH235991   1.998   0.847   0.814  0.8509 -0.4482  0.0112
 4811TIP3    H135992   1.928   0.799   0.771  2.2577 -0.8910 -1.8861
 4811TIP3    H235993   2.058   0.872   0.744  1.6307  1.6194  1.3081
 4812TIP3   OH235994   6.613   4.762   1.775 -0.7155  0.1540  0.1001
 4812TIP3    H135995   6.680   4.729   1.834 -0.5550  0.0644 -0.1325
 4812TIP3    H235996   6.653   4.837   1.731 -0.4669 -0.4079 -0.6567
 4813TIP3   OH235997   1.577   1.828   8.434 -0.1887 -0.4139 -0.2064
 4813TIP3    H135998   1.512   1.823   8.364  2.2290 -0.2279 -2.6336
 4813TIP3    H235999   1.635   1.899   8.408  1.5966 -1.2442  1.2803
 4814TIP3   OH236000   0.542   1.152   1.063 -0.1144 -0.3591 -0.1281
 4814TIP3    H136001   0.538   1.098   0.983 -1.0017 -0.9071  0.2700
 4814TIP3    H236002   0.501   1.235   1.038 -1.8348 -1.0720  0.1384
 4815TIP3   OH236003   2.810   1.413   6.521 -0.0129  0.3914  0.0849
 4815TIP3    H136004   2.796   1.374   6.435 -0.0500  2.0395 -0.6892
 4815TIP3    H236005   2.861   1.347   6.569  0.3431 -0.3881 -1.3144
 4816TIP3   OH236006   0.128   5.675   0.158 -0.1309  0.3526 -0.0508
 4816TIP3    H136007   0.186   5.649   0.086 -1.8975  1.6939 -2.0759
 4816TIP3    H236008   0.186   5.683   0.233  1.8675 -0.7953 -1.3642
 4817TIP3   OH236009   4.828   2.809   6.760 -0.1667  0.8719 -0.3359
 4817TIP3    H136010   4.846   2.822   6.667  0.0979  0.2846 -0.3698
 4817TIP3    H236011   4.777   2.886   6.785  0.9558  1.7538 -0.6390
 4818TIP3   OH236012   3.988   6.664   1.623  0.1278 -0.0405 -0.3174
 4818TIP3    H136013   4.024   6.686   1.709 -0.9219 -1.6712  0.5669
 4818TIP3    H236014   4.065   6.636   1.572  0.7258  0.7407  0.1273
 4819TIP3   OH236015   2.699   0.650   1.872  0.0094 -0.0862 -0.0314
 4819TIP3    H136016   2.789   0.664   1.901 -0.0064 -3.8299  2.5097
 4819TIP3    H236017   2.705   0.648   1.776  2.5097  0.2863  0.0621
 4820TIP3   OH236018   1.505   4.388   2.072  0.0780  0.0731  0.4321
 4820TIP3    H136019   1.435   4.328   2.099 -0.5076 -0.9700 -2.9805
 4820TIP3    H236020   1.549   4.411   2.154 -0.5712 -3.8552  2.1003
 4821TIP3   OH236021   5.576   3.455   1.525 -0.5592 -0.3090 -0.0079
 4821TIP3    H136022   5.491   3.492   1.549 -0.1770  1.2606 -0.9336
 4821TIP3    H236023   5.640   3.513   1.565  0.0589  0.1767 -1.6160
 4822TIP3   OH236024   5.313   0.126   8.125 -0.0349 -0.4859  0.1525
 4822TIP3    H136025   5.294   0.219   8.111  2.7645  0.2504  0.5486
 4822TIP3    H236026   5.239   0.080   8.086 -1.2602  1.8937 -0.5199
 4823TIP3   OH236027   6.229   4.605   6.450 -0.1429 -0.1695  0.3383
 4823TIP3    H136028   6.137   4.583   6.440 -0.1606 -2.3785  3.6741
 4823TIP3    H236029   6.273   4.520   6.461  1.9898  0.9069  0.7843
 4824TIP3   OH236030   1.028   1.932   0.606  0.0514  0.0404 -0.0393
 4824TIP3    H136031   1.077   1.977   0.675 -0.3079  0.8619 -0.2925
 4824TIP3    H236032   0.937   1.934   0.638 -0.3826  1.8731 -1.2132
 4825TIP3   OH236033   5.597   3.370   7.276 -0.8703  0.1573  0.0420
 4825TIP3    H136034   5.561   3.403   7.194 -0.4404  1.7382  0.4610
 4825TIP3    H236035   5.522   3.329   7.320 -1.5199  0.9270 -0.3263
 4826TIP3   OH236036   3.835   5.611   7.449  0.1341  0.0737 -0.6180
 4826TIP3    H136037   3.856   5.661   7.528 -0.1753  0.1230 -0.5651
 4826TIP3    H236038   3.907   5.549   7.440 -0.0447 -0.2269 -0.0482
 4827TIP3   OH236039   5.567   1.436   8.094  0.3690  0.0914 -0.7361
 4827TIP3    H136040   5.488   1.489   8.085  0.0836 -0.5943 -3.0979
 4827TIP3    H236041   5.571   1.414   8.187 -1.6228  1.0339 -0.3650
 4828TIP3   OH236042   5.022   1.365   7.912  0.1867  0.4488  0.1083
 4828TIP3    H136043   5.025   1.400   7.823  2.2900 -0.8029 -0.3813
 4828TIP3    H236044   5.084   1.418   7.961  0.7913 -0.3239  0.2131
 4829TIP3   OH236045   1.985   2.384   8.349 -0.5441 -0.2199  0.6279
 4829TIP3    H136046   2.004   2.473   8.320 -3.0083 -0.0033 -0.5917
 4829TIP3    H236047   2.071   2.346   8.369  0.6959  1.8888 -0.3659
 4830TIP3   OH236048   2.732   3.577   0.828 -0.0617  0.0639 -0.1676
 4830TIP3    H136049   2.802   3.639   0.808  0.7896 -1.4542 -2.3077
 4830TIP3    H236050   2.751   3.547   0.916  2.2030 -0.5114 -0.7974
 4831TIP3   OH236051   1.831   0.206   6.650 -0.8348  0.2975 -0.3241
 4831TIP3    H136052   1.903   0.253   6.608 -2.5978  1.7127 -1.9585
 4831TIP3    H236053   1.791   0.155   6.580 -2.5325  0.9882  0.0884
 4832TIP3   OH236054   3.094   2.691   2.019  0.3181 -0.1346  0.0756
 4832TIP3    H136055   3.167   2.741   1.983 -0.7112 -0.8031 -3.3291
 4832TIP3    H236056   3.133   2.607   2.044  1.2213  0.6388  1.3859
 4833TIP3   OH236057   4.421   6.305   6.803 -0.5506 -0.1151 -0.6537
 4833TIP3    H136058   4.346   6.247   6.784 -1.0926  0.4370 -0.2553
 4833TIP3    H236059   4.381   6.391   6.817  0.1915  0.2353 -0.6544
 4834TIP3   OH236060   6.000   6.623   1.379 -0.4917 -0.0485  0.9778
 4834TIP3    H136061   6.051   6.649   1.303 -1.6291  1.3348  0.6417
 4834TIP3    H236062   6.065   6.610   1.448  0.4223  0.1545  0.1768
 4835TIP3   OH236063   4.723   5.623   1.675 -0.9362 -0.3566  0.0816
 4835TIP3    H136064   4.653   5.673   1.633 -0.7486 -1.7314 -1.9882
 4835TIP3    H236065   4.803   5.648   1.628 -0.5686 -1.2948  0.1865
 4836TIP3   OH236066   1.830   1.336   1.315 -0.0758 -0.1664 -0.1389
 4836TIP3    H136067   1.832   1.299   1.403  1.1002 -0.0118 -0.0793
 4836TIP3    H236068   1.739   1.326   1.286  0.4520 -4.7423 -0.8633
 4837TIP3   OH236069   3.093   5.221   7.252 -0.1303  0.1062 -0.2633
 4837TIP3    H136070   3.068   5.311   7.274  1.2462  0.6305 -0.7259
 4837TIP3    H236071   3.135   5.228   7.166 -0.7712 -1.1167 -0.6948
 4838TIP3   OH236072   3.008   2.911   7.351 -0.0397  0.7994  0.0384
 4838TIP3    H136073   2.999   2.860   7.271 -0.0440  1.8691 -0.6738
 4838TIP3    H236074   2.922   2.904   7.394 -0.5074  1.3670 -0.7766
 4839TIP3   OH236075   5.195   5.504   1.542 -0.4593 -0.5960  0.2092
 4839TIP3    H136076   5.273   5.514   1.597 -1.5230 -0.1039  1.6627
 4839TIP3    H236077   5.128   5.557   1.585 -1.0679  0.6829 -2.1165
 4840TIP3   OH236078   5.520   5.475   0.695 -0.3187 -0.0781  0.0516
 4840TIP3    H136079   5.552   5.547   0.640  0.5886  0.5773  1.3878
 4840TIP3    H236080   5.586   5.466   0.764  0.3043 -3.1370 -0.8226
 4841TIP3   OH236081   3.244   6.353   8.382  0.1870 -0.2233 -0.5245
 4841TIP3    H136082   3.194   6.283   8.422  0.6386 -1.0668 -1.3941
 4841TIP3    H236083   3.334   6.320   8.379  0.6200  0.8463  0.0732
 4842TIP3   OH236084   2.174   4.195   0.346  0.1255 -0.1891  0.1861
 4842TIP3    H136085   2.139   4.137   0.279  3.0495 -1.8916 -0.0628
 4842TIP3    H236086   2.232   4.254   0.298 -0.3079  0.7929  0.8486
 4843TIP3   OH236087   3.736   6.756   0.775  0.1812  0.2967  0.2382
 4843TIP3    H136088   3.741   6.837   0.825 -0.5625 -0.8439  2.3069
 4843TIP3    H236089   3.665   6.707   0.817 -2.0101  0.0974 -3.3451
 4844TIP3   OH236090   3.758   6.565   0.571 -0.3937  0.1750  0.7255
 4844TIP3    H136091   3.712   6.491   0.611  1.0898 -1.1662  0.0761
 4844TIP3    H236092   3.779   6.623   0.644 -1.1201 -0.3056  1.3260
 4845TIP3   OH236093   0.199   6.493   2.713  0.4798 -0.8110 -0.5502
 4845TIP3    H136094   0.190   6.544   2.632 -0.5575 -0.7928 -0.4336
 4845TIP3    H236095   0.133   6.425   2.706 -2.2739  1.3428  1.8635
 4846TIP3   OH236096   6.446   6.363   1.976  0.2771  0.2076 -0.2135
 4846TIP3    H136097   6.511   6.431   1.959  1.0002 -0.2997  0.3942
 4846TIP3    H236098   6.413   6.383   2.063  0.2083  0.0119 -0.1941
 4847TIP3   OH236099   5.612   5.690   0.570 -0.2257 -0.0442  0.0960
 4847TIP3    H136100   5.552   5.763   0.559 -0.5649 -0.3611 -0.1485
 4847TIP3    H236101   5.691   5.716   0.522  0.1589  0.7340  1.1032
 4848TIP3   OH236102   6.392   6.626   2.263  0.1589 -0.0458 -0.5996
 4848TIP3    H136103   6.319   6.628   2.201  1.6162 -0.2609 -2.4156
 4848TIP3    H236104   6.425   6.536   2.259  1.8945  0.5674 -1.5947
 4849TIP3   OH236105   4.411   0.291   1.547  0.2627  0.6409  0.7607
 4849TIP3    H136106   4.428   0.384   1.529 -0.2264  0.4559 -0.8023
 4849TIP3    H236107   4.315   0.284   1.544  0.2905  0.1088  1.0251
 4850TIP3   OH236108   0.592   4.285   0.633 -0.8434  0.6958  0.5944
 4850TIP3    H136109   0.665   4.238   0.671 -0.4770  0.1465 -0.7349
 4850TIP3    H236110   0.559   4.341   0.704 -0.0590 -0.1129  1.6152
 4851TIP3   OH236111   3.620   4.918   7.747 -0.2181  1.0418  0.6363
 4851TIP3    H136112   3.591   4.987   7.688  0.0454 -0.0065 -0.7988
 4851TIP3    H236113   3.714   4.910   7.729 -0.4506 -0.4263 -0.0808
 4852TIP3   OH236114   1.644   6.470   1.180  0.0683  0.0424 -0.4843
 4852TIP3    H136115   1.700   6.546   1.191 -0.3451  0.4033 -0.8289
 4852TIP3    H236116   1.662   6.416   1.257 -1.0735  1.4218  0.8238
 4853TIP3   OH236117   0.856   3.774   6.833  0.3526  0.0447 -0.2345
 4853TIP3    H136118   0.943   3.747   6.805  1.0001  0.8403  0.9459
 4853TIP3    H236119   0.854   3.868   6.817 -0.6444 -0.1008 -1.1040
 4854TIP3   OH236120   6.450   5.775   0.780 -0.4964  0.2915 -0.6653
 4854TIP3    H136121   6.435   5.829   0.857 -0.6815  0.5096 -0.8531
 4854TIP3    H236122   6.375   5.792   0.723 -1.5021 -1.5436  0.0486
 4855TIP3   OH236123   1.599   0.360   0.797  0.3512  0.0896  0.0928
 4855TIP3    H136124   1.622   0.372   0.889 -0.2593  0.4619  0.2034
 4855TIP3    H236125   1.559   0.443   0.771 -0.7901 -0.5000 -0.1021
 4856TIP3   OH236126   3.618   2.239   7.326 -0.6810  0.0738  0.2330
 4856TIP3    H136127   3.614   2.290   7.407  2.4386  2.1412 -0.7463
 4856TIP3    H236128   3.672   2.163   7.347  0.1447  0.6209  0.1327
 4857TIP3   OH236129   3.544   2.833   0.717 -0.2599 -0.1545  0.6736
 4857TIP3    H136130   3.516   2.908   0.771  0.4381 -1.0295  2.3368
 4857TIP3    H236131   3.626   2.861   0.678 -0.2545  0.1271  0.8841
 4858TIP3   OH236132   6.623   6.397   3.235  0.1061  0.1023 -0.1243
 4858TIP3    H136133   6.559   6.343   3.282  0.5318 -0.8425 -0.5895
 4858TIP3    H236134   6.703   6.345   3.236  1.3286  1.8611  1.6696
 4859TIP3   OH236135   2.243   1.665   8.355 -0.7110 -0.1813  0.1622
 4859TIP3    H136136   2.175   1.603   8.380  0.0665 -1.1879 -0.1757
 4859TIP3    H236137   2.268   1.708   8.437 -0.7130 -0.8639  0.5221
 4860TIP3   OH236138   5.595   0.600   7.623  0.4698 -0.5117  0.1884
 4860TIP3    H136139   5.510   0.640   7.643 -0.8331 -1.8118 -2.3649
 4860TIP3    H236140   5.638   0.661   7.564  0.4733 -0.7469 -0.0553
 4861TIP3   OH236141   4.025   2.770   7.773 -0.6801  0.3898  0.6868
 4861TIP3    H136142   4.072   2.702   7.723  4.5036  2.0346  2.6248
 4861TIP3    H236143   4.002   2.728   7.855  2.8184  0.7510  2.0214
 4862TIP3   OH236144   2.284   0.538   7.986  0.0210 -0.4331  0.4699
 4862TIP3    H136145   2.224   0.586   8.044  0.3602 -0.4428  0.8310
 4862TIP3    H236146   2.229   0.470   7.946 -0.0836 -0.8216  1.2483
 4863TIP3   OH236147   2.656   4.645   6.316  0.1786  0.2831 -0.4348
 4863TIP3    H136148   2.627   4.709   6.381 -2.7454 -1.8314  0.5290
 4863TIP3    H236149   2.748   4.630   6.338  0.3728  2.5175  0.6396
 4864TIP3   OH236150   3.605   1.557   7.601  0.0889  0.2861 -0.7101
 4864TIP3    H136151   3.593   1.562   7.696 -1.6662 -0.7089 -0.8366
 4864TIP3    H236152   3.610   1.648   7.572  0.6892  0.5951  0.3202
 4865TIP3   OH236153   4.226   1.193   0.415  0.6364 -0.2274 -0.4420
 4865TIP3    H136154   4.297   1.249   0.445 -0.8528  0.4136  2.1427
 4865TIP3    H236155   4.251   1.105   0.443  0.5508 -0.0377  0.2500
 4866TIP3   OH236156   0.366   3.686   7.451 -0.1050 -0.3061  0.4310
 4866TIP3    H136157   0.408   3.744   7.515 -1.5058  0.8818  0.3227
 4866TIP3    H236158   0.335   3.745   7.382 -3.4092 -0.8455  1.3164
 4867TIP3   OH236159   5.690   2.444   8.556 -0.2176 -0.1588  0.1856
 4867TIP3    H136160   5.635   2.391   8.613  0.6073 -1.7541 -0.4070
 4867TIP3    H236161   5.774   2.451   8.603  0.1060 -0.5361 -0.3191
 4868TIP3   OH236162   5.485   3.101   2.021  0.3159  0.3307 -0.0786
 4868TIP3    H136163   5.543   3.087   2.096  1.2929  1.6539 -0.5474
 4868TIP3    H236164   5.541   3.138   1.953 -1.1332  2.1491 -0.3839
 4869TIP3   OH236165   0.708   2.905   6.339 -0.6003  0.7947 -0.2812
 4869TIP3    H136166   0.738   2.893   6.429 -2.8738  2.7598  0.8337
 4869TIP3    H236167   0.731   2.995   6.317  0.0963  0.2892 -1.7817
 4870TIP3   OH236168   0.922   2.754   0.720 -0.2366 -0.1460 -0.0782
 4870TIP3    H136169   0.988   2.805   0.674 -0.0884  0.3814  0.6985
 4870TIP3    H236170   0.917   2.672   0.671  2.2271 -0.9168  0.7680
 4871TIP3   OH236171   3.298   6.575   0.852 -0.1100 -0.0353 -0.0977
 4871TIP3    H136172   3.391   6.598   0.865 -0.1078  1.5670 -2.3248
 4871TIP3    H236173   3.250   6.646   0.895 -0.3281 -0.7782  0.9093
 4872TIP3   OH236174   3.793   4.424   6.229  0.0044 -0.2504 -0.5364
 4872TIP3    H136175   3.876   4.439   6.275  0.8373  0.2083 -2.0986
 4872TIP3    H236176   3.803   4.336   6.191  0.6119  0.5208 -2.2887
 4873TIP3   OH236177   3.008   5.754   0.873 -0.0134  0.0293 -0.0289
 4873TIP3    H136178   3.002   5.684   0.808  2.5907  0.6979 -1.1278
 4873TIP3    H236179   3.046   5.827   0.825 -2.6430  2.3101  1.0666
 4874TIP3   OH236180   6.145   5.177   1.615  0.3507 -0.2006 -0.1484
 4874TIP3    H136181   6.200   5.240   1.568  1.1218 -0.8240 -0.0978
 4874TIP3    H236182   6.097   5.132   1.546 -0.3597  0.5719 -0.1738
 4875TIP3   OH236183   6.435   6.469   0.679 -0.0363 -0.4380 -0.6560
 4875TIP3    H136184   6.352   6.426   0.698 -0.2676  0.4154  0.3947
 4875TIP3    H236185   6.410   6.555   0.644  0.4060 -1.2273 -3.1126
 4876TIP3   OH236186   0.125   2.976   0.694 -0.1445  0.3111 -0.2396
 4876TIP3    H136187   0.201   2.991   0.636  0.8691  1.6441  1.3368
 4876TIP3    H236188   0.073   2.910   0.648  1.5965 -0.1196 -1.7335
 4877TIP3   OH236189   4.068   6.459   1.850  0.1384  0.2572 -0.4725
 4877TIP3    H136190   4.102   6.434   1.764  0.0211  0.5412 -0.6028
 4877TIP3    H236191   4.094   6.551   1.860 -0.3073  0.3813 -0.4347
 4878TIP3   OH236192   3.202   1.660   1.020 -0.8116 -0.6204  0.4336
 4878TIP3    H136193   3.145   1.734   1.000 -1.5024 -1.4771 -0.9069
 4878TIP3    H236194   3.286   1.700   1.042 -1.1620  0.5648 -0.2741
 4879TIP3   OH236195   3.876   0.679   8.332 -0.2531  0.2751  0.4164
 4879TIP3    H136196   3.956   0.729   8.317  0.7344 -0.8783  1.6402
 4879TIP3    H236197   3.841   0.663   8.244  1.5020 -0.1983 -0.2421
 4880TIP3   OH236198   4.865   6.271   8.330 -0.1707 -0.1076 -0.5647
 4880TIP3    H136199   4.936   6.228   8.282  0.5118 -1.3268  1.4339
 4880TIP3    H236200   4.792   6.210   8.325 -0.4414  0.2356 -0.8979
 4881TIP3   OH236201   4.241   2.779   1.211  0.5052  0.5780 -0.1111
 4881TIP3    H136202   4.277   2.833   1.140  0.2611  1.3452  0.3415
 4881TIP3    H236203   4.177   2.834   1.254 -0.5933 -0.4781 -0.3421
 4882TIP3   OH236204   1.558   3.785   8.291  0.8727  0.8348  0.2929
 4882TIP3    H136205   1.652   3.786   8.308  1.1529 -1.3489 -0.7078
 4882TIP3    H236206   1.527   3.707   8.338  0.1452 -0.2171 -1.8363
 4883TIP3   OH236207   1.155   0.897   6.834 -0.1377 -0.4009 -0.3641
 4883TIP3    H136208   1.212   0.929   6.764 -0.9959  0.7279 -0.5765
 4883TIP3    H236209   1.202   0.823   6.871  0.9165 -0.2332 -1.3079
 4884TIP3   OH236210   3.176   4.267   0.003  0.0938 -0.2754  0.3899
 4884TIP3    H136211   3.081   4.259   0.011  0.0987 -0.9313 -0.0840
 4884TIP3    H236212   3.207   4.284   0.092 -0.3557 -1.3249  0.7551
 4885TIP3   OH236213   6.027   0.281   0.754 -0.7027 -0.4842  0.6195
 4885TIP3    H136214   5.948   0.334   0.762 -0.9486 -0.8692  0.7140
 4885TIP3    H236215   6.092   0.327   0.808 -0.0665  1.3098 -1.5036
 4886TIP3   OH236216   6.764   3.438   7.950 -0.3273 -0.3861  0.0929
 4886TIP3    H136217   6.810   3.422   7.868 -1.3179 -0.4064 -0.4787
 4886TIP3    H236218   6.738   3.352   7.980 -1.1504 -0.2799 -0.2912
 4887TIP3   OH236219   3.136   1.789   1.735 -0.1367 -0.0748  0.7821
 4887TIP3    H136220   3.045   1.816   1.735 -0.2710 -0.5003  1.2944
 4887TIP3    H236221   3.186   1.869   1.749 -0.3687  0.3102 -0.4718
 4888TIP3   OH236222   5.140   0.150   1.778  0.2733  0.3102 -0.2543
 4888TIP3    H136223   5.144   0.055   1.788  1.8588  0.1941 -1.6076
 4888TIP3    H236224   5.096   0.180   1.857  0.8506 -1.4560  0.8017
 4889TIP3   OH236225   1.096   4.026   8.041  0.0930 -0.6611 -0.6137
 4889TIP3    H136226   1.052   4.103   8.078 -1.8431 -1.9793 -0.0113
 4889TIP3    H236227   1.189   4.040   8.060 -0.2629  1.2623 -0.0648
 4890TIP3   OH236228   6.139   0.537   0.127 -0.3709 -0.1325  0.3265
 4890TIP3    H136229   6.157   0.465   0.066  0.7760  0.3973  0.0177
 4890TIP3    H236230   6.146   0.497   0.214  1.4211 -0.1825  0.2000
 4891TIP3   OH236231   4.790   6.034   6.908 -0.7408 -0.1456 -0.1149
 4891TIP3    H136232   4.745   6.118   6.900  1.4728  1.1185 -0.1649
 4891TIP3    H236233   4.858   6.050   6.973  0.6047 -1.4725 -1.1303
 4892TIP3   OH236234   6.140   2.018   2.204  0.0471  0.5318 -0.5829
 4892TIP3    H136235   6.194   1.969   2.142  1.1538  0.7414  0.1831
 4892TIP3    H236236   6.202   2.073   2.252 -0.7999  0.4845  0.6093
 4893TIP3   OH236237   6.871   3.636   2.389  0.3366  0.1449 -0.2397
 4893TIP3    H136238   6.790   3.676   2.356 -0.5378 -0.9975  0.4150
 4893TIP3    H236239   6.872   3.656   2.482  0.9433  0.3668 -0.2927
 4894TIP3   OH236240   3.520   2.927   7.047 -0.7546  0.0732 -0.2592
 4894TIP3    H136241   3.507   2.843   7.092 -1.4944  0.7626  0.8663
 4894TIP3    H236242   3.597   2.965   7.088 -2.2215  1.3291  1.4915
 4895TIP3   OH236243   3.892   5.898   1.495  0.3168  0.3201  0.0845
 4895TIP3    H136244   3.846   5.948   1.427  0.1927  0.0264 -0.0470
 4895TIP3    H236245   3.822   5.858   1.547  0.4151 -0.9260 -0.7052
 4896TIP3   OH236246   5.982   1.276   8.170  0.6025 -0.6940 -0.4790
 4896TIP3    H136247   5.902   1.282   8.117 -0.0428  1.5654  0.6121
 4896TIP3    H236248   5.965   1.202   8.229 -1.0202  0.1445  0.1753
 4897TIP3   OH236249   3.379   4.915   1.244  0.6211  0.5584  0.4918
 4897TIP3    H136250   3.341   4.910   1.156 -0.2996  0.0684  0.9021
 4897TIP3    H236251   3.314   4.962   1.295  1.2242  0.9760  0.8856
 4898TIP3   OH236252   6.594   2.047   0.726  0.1804 -0.3000 -0.0917
 4898TIP3    H136253   6.654   2.023   0.655  0.5848 -2.2458  0.8561
 4898TIP3    H236254   6.645   2.104   0.783  0.4350 -0.2039 -0.4136
 4899TIP3   OH236255   5.125   0.476   7.726  0.3319 -0.0219  0.5240
 4899TIP3    H136256   5.149   0.484   7.633 -0.3197 -0.1942  0.3393
 4899TIP3    H236257   5.033   0.500   7.729  0.7292  1.5703  1.3778
 4900TIP3   OH236258   6.263   0.361   8.045  0.2439  0.2552 -0.7274
 4900TIP3    H136259   6.216   0.422   8.102 -0.3878 -0.9218  0.0386
 4900TIP3    H236260   6.198   0.332   7.981  0.3333 -0.1820 -0.6254
 4901TIP3   OH236261   6.741   3.961   8.316  0.2738  0.2132 -0.0706
 4901TIP3    H136262   6.772   4.051   8.326  2.4938 -0.1747 -2.4346
 4901TIP3    H236263   6.813   3.907   8.348 -0.1281 -0.7382 -0.7334
 4902TIP3   OH236264   3.082   4.176   1.476 -0.3434  0.1487 -0.3901
 4902TIP3    H136265   3.091   4.214   1.563  0.6382  1.7410 -1.1247
 4902TIP3    H236266   2.988   4.171   1.461 -0.5782  2.9010 -0.4193
 4903TIP3   OH236267   6.107   6.010   0.297 -0.4701  0.3498  0.5049
 4903TIP3    H136268   6.183   5.951   0.292 -0.1678  0.7885 -0.4407
 4903TIP3    H236269   6.039   5.964   0.248 -0.2829  0.6924 -0.0960
 4904TIP3   OH236270   0.188   3.402   1.161  0.1122  0.4313 -0.0100
 4904TIP3    H136271   0.120   3.364   1.106  0.0944 -0.6257  0.7051
 4904TIP3    H236272   0.210   3.333   1.223  2.2690  0.5153 -0.5830
 4905TIP3   OH236273   0.614   1.281   8.249 -0.8983 -0.4347 -0.4385
 4905TIP3    H136274   0.546   1.345   8.227 -0.6014 -0.2819 -0.9324
 4905TIP3    H236275   0.566   1.198   8.258 -1.3948 -0.0264  0.9597
 4906TIP3   OH236276   2.819   5.349   0.667 -0.4587  0.7215 -0.1085
 4906TIP3    H136277   2.729   5.367   0.696 -0.1404  0.1432  1.3297
 4906TIP3    H236278   2.837   5.261   0.700  0.6079  0.7979 -0.4630
 4907TIP3   OH236279   2.257   0.287   7.308  0.2654  0.1251  0.3365
 4907TIP3    H136280   2.290   0.321   7.224  0.4362 -1.7839 -0.4306
 4907TIP3    H236281   2.205   0.211   7.283 -0.5216  0.1220  1.9267
 4908TIP3   OH236282   2.405   4.538   0.888 -0.1053  0.0551 -0.2160
 4908TIP3    H136283   2.379   4.477   0.957 -1.2251  1.4017  0.6173
 4908TIP3    H236284   2.495   4.562   0.910  0.5462 -1.6138 -0.8436
 4909TIP3   OH236285   4.612   5.845   1.950  0.5706  0.0102  0.5876
 4909TIP3    H136286   4.647   5.866   1.863 -1.9879 -0.2123 -0.5749
 4909TIP3    H236287   4.642   5.917   2.006  0.5836  1.2321 -0.9394
 4910TIP3   OH236288   5.427   4.509   1.808  0.2373  0.3855  0.8403
 4910TIP3    H136289   5.510   4.497   1.762 -1.0217 -1.3501 -1.1960
 4910TIP3    H236290   5.408   4.602   1.800  1.2418  0.5332 -0.0529
 4911TIP3   OH236291   0.943   1.069   1.776  0.0848  0.4217  0.4881
 4911TIP3    H136292   0.952   0.975   1.764 -0.2054  0.3064  1.1099
 4911TIP3    H236293   1.030   1.099   1.803  0.6633  0.6388 -1.4663
 4912TIP3   OH236294   6.116   2.487   6.792 -0.2845 -0.0331 -0.2002
 4912TIP3    H136295   6.136   2.520   6.705 -0.6038  1.7714  0.3686
 4912TIP3    H236296   6.037   2.435   6.781  0.6863 -1.3516 -1.2662
 4913TIP3   OH236297   3.366   2.730   1.929  0.0711 -0.2017 -0.2140
 4913TIP3    H136298   3.367   2.719   1.834  2.1408 -2.4028 -0.0289
 4913TIP3    H236299   3.424   2.805   1.944  0.3012 -0.2880 -0.6393
 4914TIP3   OH236300   4.196   0.257   7.460 -0.3296 -0.0395  0.4804
 4914TIP3    H136301   4.219   0.170   7.493 -2.2702 -1.0304 -0.5776
 4914TIP3    H236302   4.178   0.244   7.367 -0.3966  1.5596  0.2334
 4915TIP3   OH236303   1.467   6.352   8.426  0.0942  0.4413  0.4855
 4915TIP3    H136304   1.521   6.314   8.357 -1.5746  0.2872 -0.8153
 4915TIP3    H236305   1.474   6.292   8.500  0.1594 -0.6021 -0.3553
 4916TIP3   OH236306   5.308   4.953   1.219  0.4847  0.0466  0.3159
 4916TIP3    H136307   5.282   4.877   1.168  0.0168  0.2428  0.2499
 4916TIP3    H236308   5.264   4.940   1.304  1.5589 -0.4658  0.8060
 4917TIP3   OH236309   3.507   0.514   2.784 -0.2452 -0.4449 -0.4398
 4917TIP3    H136310   3.477   0.459   2.712  1.0339  0.1912 -1.5100
 4917TIP3    H236311   3.435   0.574   2.801 -0.7040 -0.8492 -0.9352
 4918TIP3   OH236312   2.255   3.423   1.055 -0.6935  0.1895 -0.3784
 4918TIP3    H136313   2.320   3.385   1.115 -0.9430  0.1017 -0.1610
 4918TIP3    H236314   2.254   3.516   1.076 -0.0121  0.3394 -0.9769
 4919TIP3   OH236315   5.248   6.761   1.700 -0.4217  0.1664 -0.3510
 4919TIP3    H136316   5.309   6.714   1.644  0.5556  3.5031 -2.3420
 4919TIP3    H236317   5.171   6.774   1.646 -1.3799 -0.5232  0.7806
 4920TIP3   OH236318   4.013   2.203   2.543  0.3132 -0.4781  0.5745
 4920TIP3    H136319   4.020   2.109   2.557  1.2728 -0.4022  0.6681
 4920TIP3    H236320   3.988   2.238   2.629 -0.9358 -0.7225  0.3288
 4921TIP3   OH236321   6.908   0.366   2.205  0.6029 -0.0114  0.6855
 4921TIP3    H136322   6.917   0.382   2.111  0.8512  1.0819  0.8831
 4921TIP3    H236323   6.819   0.334   2.216  0.9459 -1.3045 -0.0612
 4922TIP3   OH236324   0.743   0.317   2.144 -0.4177 -0.4983  0.3384
 4922TIP3    H136325   0.831   0.314   2.182 -0.0027 -0.4542 -0.5714
 4922TIP3    H236326   0.685   0.337   2.217  0.3389 -0.4654  0.9412
 4923TIP3   OH236327   6.168   5.328   8.521 -0.5972 -0.3970 -0.1514
 4923TIP3    H136328   6.226   5.398   8.490 -0.7815  0.1917  0.8007
 4923TIP3    H236329   6.152   5.274   8.443 -0.7722  0.8384 -1.0061
 4924TIP3   OH236330   0.281   0.988   7.146 -0.0803  0.2152 -0.1160
 4924TIP3    H136331   0.197   1.035   7.145 -0.0770  0.3474  2.0614
 4924TIP3    H236332   0.256   0.896   7.153 -0.0611  0.2657  0.6968
 4925TIP3   OH236333   0.912   6.282   8.006  0.2896 -0.1640  0.5690
 4925TIP3    H136334   0.908   6.259   8.099  1.4248  1.6547  1.1249
 4925TIP3    H236335   1.005   6.295   7.989 -0.0433  1.1046 -0.4040
 4926TIP3   OH236336   3.656   4.152   0.193  0.0797  0.0782 -0.5975
 4926TIP3    H136337   3.693   4.071   0.157  0.9035 -0.3212  1.0526
 4926TIP3    H236338   3.704   4.167   0.274 -1.8571  0.7716  0.5066
 4927TIP3   OH236339   6.140   0.434   0.377  0.5723  0.6944 -1.0974
 4927TIP3    H136340   6.229   0.440   0.413  0.0536 -0.0750  0.4140
 4927TIP3    H236341   6.083   0.460   0.450 -0.4350  2.2680 -2.3736
 4928TIP3   OH236342   6.115   4.276   0.590  0.0617 -0.2694  0.1203
 4928TIP3    H136343   6.169   4.202   0.562 -0.8871 -0.4491 -1.3681
 4928TIP3    H236344   6.072   4.246   0.670 -3.7959 -3.2788 -2.6356
 4929TIP3   OH236345   2.632   1.763   6.783 -0.2315  0.4058  0.1767
 4929TIP3    H136346   2.568   1.729   6.721  1.7677 -1.3007 -1.0784
 4929TIP3    H236347   2.700   1.802   6.728  2.1061 -2.0345  1.1236
 4930TIP3   OH236348   5.384   4.610   7.774  0.2114  0.2215  0.2711
 4930TIP3    H136349   5.342   4.684   7.819 -1.4192  1.3470 -2.8012
 4930TIP3    H236350   5.354   4.533   7.821 -2.0324  1.2773  0.7074
 4931TIP3   OH236351   3.918   6.045   1.935  0.0069 -0.2295  0.1918
 4931TIP3    H136352   3.923   6.138   1.959 -0.0743  0.0481 -0.8194
 4931TIP3    H236353   3.825   6.029   1.921  0.0149 -0.4829  0.4246
 4932TIP3   OH236354   4.072   3.331   1.041 -0.0518 -0.0305  0.3019
 4932TIP3    H136355   4.048   3.272   1.113 -0.0378 -0.3545  0.0459
 4932TIP3    H236356   4.084   3.416   1.082  1.7690 -0.5639  1.0049
 4933TIP3   OH236357   3.369   6.562   7.634  0.3005  0.1047 -0.0243
 4933TIP3    H136358   3.449   6.568   7.581  0.1324 -1.1803 -0.4728
 4933TIP3    H236359   3.305   6.616   7.587 -0.0831 -1.6423 -1.6595
 4934TIP3   OH236360   1.958   4.014   1.203  0.0096 -0.0536 -0.4531
 4934TIP3    H136361   1.939   4.098   1.245  1.7016  0.7247 -1.1698
 4934TIP3    H236362   1.904   3.951   1.252 -0.4344  1.2595  0.8472
 4935TIP3   OH236363   3.672   5.641   1.419 -0.6087  0.2223  0.0042
 4935TIP3    H136364   3.722   5.561   1.436 -1.4850 -0.1722  0.7892
 4935TIP3    H236365   3.649   5.675   1.505 -1.3244  0.6321 -0.3342
 4936TIP3   OH236366   2.902   1.844   0.376  0.2798  0.4851 -0.1132
 4936TIP3    H136367   2.898   1.757   0.416 -0.1539  0.4113 -0.3116
 4936TIP3    H236368   2.903   1.904   0.451  1.2476  0.2986  0.0387
 4937TIP3   OH236369   2.338   4.018   0.510 -0.3823  1.5257  0.0721
 4937TIP3    H136370   2.296   4.093   0.469 -1.1203  0.1490 -1.8021
 4937TIP3    H236371   2.387   3.976   0.440 -1.0868 -0.5146  0.7329
 4938TIP3   OH236372   0.361   6.851   7.627 -0.4562 -0.7048 -0.2183
 4938TIP3    H136373   0.443   6.880   7.587 -0.2796 -1.3982 -0.3778
 4938TIP3    H236374   0.379   6.852   7.721  0.3170 -2.4376 -0.2949
 4939TIP3   OH236375   2.169   1.261   7.295  0.3408 -0.3466 -0.5032
 4939TIP3    H136376   2.106   1.262   7.368  0.8959  0.5634 -0.0118
 4939TIP3    H236377   2.122   1.302   7.222 -0.8411 -2.8406 -1.2573
 4940TIP3   OH236378   2.456   2.625   1.256 -0.2459 -0.4682  0.1307
 4940TIP3    H136379   2.430   2.551   1.311  0.1544  0.5615  1.7816
 4940TIP3    H236380   2.549   2.612   1.240 -0.6090 -1.4004 -1.3620
 4941TIP3   OH236381   0.241   2.417   0.481 -0.0684 -0.8259  0.1199
 4941TIP3    H136382   0.322   2.368   0.469 -0.2074 -0.5830 -2.4027
 4941TIP3    H236383   0.197   2.374   0.554  0.3247 -3.8030 -1.2312
 4942TIP3   OH236384   2.592   0.087   7.805 -0.2488 -0.0231 -0.1212
 4942TIP3    H136385   2.500   0.086   7.779 -0.2209  1.5106 -0.3793
 4942TIP3    H236386   2.638   0.126   7.730  0.8268 -2.0104 -0.5631
 4943TIP3   OH236387   5.588   6.759   7.051  0.3474 -0.0560 -0.1387
 4943TIP3    H136388   5.521   6.826   7.036 -1.2378 -1.5182  0.1613
 4943TIP3    H236389   5.582   6.703   6.974  0.9262 -0.4481  0.1024
 4944TIP3   OH236390   6.461   6.006   8.164  0.4110 -0.0455  0.1028
 4944TIP3    H136391   6.366   6.010   8.180  0.5278 -0.1617  0.8314
 4944TIP3    H236392   6.476   6.073   8.097 -0.6094 -1.9180 -2.1644
 4945TIP3   OH236393   3.466   3.742   6.898  0.5886 -0.4380 -0.7039
 4945TIP3    H136394   3.388   3.754   6.845 -1.0125 -0.1168  1.5610
 4945TIP3    H236395   3.536   3.725   6.835 -1.0002  0.6929 -2.9037
 4946TIP3   OH236396   0.745   6.046   0.950 -0.2545 -0.3145  0.3295
 4946TIP3    H136397   0.697   6.128   0.949 -0.9395 -0.6353  2.5336
 4946TIP3    H236398   0.808   6.054   0.878 -0.0437  2.2661  0.7288
 4947TIP3   OH236399   1.524   0.597   2.136 -0.6069  0.4333  0.2413
 4947TIP3    H136400   1.487   0.637   2.057  0.9062  1.6069  0.0778
 4947TIP3    H236401   1.530   0.670   2.199  0.0052 -0.0668  0.7702
 4948TIP3   OH236402   5.961   4.930   1.416 -0.0403 -0.4371  0.6168
 4948TIP3    H136403   5.906   4.903   1.342  1.3165 -0.6282 -0.3660
 4948TIP3    H236404   5.952   5.025   1.420 -0.4633 -0.4706  0.4806
 4949TIP3   OH236405   4.665   5.463   0.102  0.1305 -0.1106  0.8636
 4949TIP3    H136406   4.574   5.453   0.073 -0.0471  1.1863  0.9295
 4949TIP3    H236407   4.667   5.548   0.146  1.3427 -0.2029  1.0163
 4950TIP3   OH236408   0.251   1.169   0.804 -0.3101 -0.2524 -0.0906
 4950TIP3    H136409   0.249   1.080   0.839  0.0942 -0.6238 -0.9876
 4950TIP3    H236410   0.188   1.169   0.732  0.5370 -0.1435 -0.8467
 4951TIP3   OH236411   0.593   4.470   7.851  0.2161  0.2596  0.5823
 4951TIP3    H136412   0.687   4.490   7.852  0.7913 -1.3276 -3.5702
 4951TIP3    H236413   0.553   4.542   7.803 -0.5789  0.4560  1.5156
 4952TIP3   OH236414   3.106   4.248   6.555 -0.0549 -0.2865  0.7026
 4952TIP3    H136415   3.100   4.343   6.542 -0.0068 -0.2466  0.9726
 4952TIP3    H236416   3.199   4.233   6.574 -0.3391 -0.1878  2.2521
 4953TIP3   OH236417   5.708   0.107   6.682 -0.4380  0.2634 -0.4606
 4953TIP3    H136418   5.682   0.017   6.700 -1.0411  0.0179 -2.3486
 4953TIP3    H236419   5.653   0.160   6.739  0.3595 -0.5515  1.1312
 4954TIP3   OH236420   3.010   0.388   1.544 -0.0474 -0.3633  1.0759
 4954TIP3    H136421   3.052   0.465   1.582  0.0010  0.3056 -0.2668
 4954TIP3    H236422   2.963   0.347   1.617 -2.6972  2.6618  1.2935
 4955TIP3   OH236423   6.441   0.556   2.421 -0.6937 -0.1526 -0.3797
 4955TIP3    H136424   6.467   0.634   2.468  0.7008  0.8208 -2.5919
 4955TIP3    H236425   6.413   0.494   2.489  2.6607  0.5495  1.8460
 4956TIP3   OH236426   0.874   5.957   6.859 -0.3564  0.0083 -0.1853
 4956TIP3    H136427   0.950   5.967   6.915 -0.8268 -1.2119  0.7312
 4956TIP3    H236428   0.817   6.031   6.880  1.1049  1.7179 -1.8642
 4957TIP3   OH236429   0.518   5.774   0.588 -0.5779  0.8076  0.7479
 4957TIP3    H136430   0.452   5.838   0.560  0.6214  1.4539 -0.7425
 4957TIP3    H236431   0.557   5.813   0.666 -2.1065  0.2797  1.8260
 4958TIP3   OH236432   3.337   5.355   0.153  0.0335 -0.1012 -0.3023
 4958TIP3    H136433   3.394   5.335   0.078  1.1937  0.5557  0.3683
 4958TIP3    H236434   3.361   5.444   0.178 -0.7136 -0.1194  0.5132
 4959TIP3   OH236435   1.737   6.867   0.355  0.0686  0.0154 -0.5159
 4959TIP3    H136436   1.728   6.778   0.388 -0.6157  0.1517 -0.3019
 4959TIP3    H236437   1.829   6.888   0.365  0.6237 -1.2985 -2.1959
 4960TIP3   OH236438   2.918   4.573   7.460  0.1392  0.2751  0.1805
 4960TIP3    H136439   2.922   4.592   7.367 -1.2853  2.0657  0.4330
 4960TIP3    H236440   2.864   4.494   7.467  0.8793 -0.3005 -0.5378
 4961TIP3   OH236441   2.709   2.092   1.561 -0.2602 -0.1242  0.1276
 4961TIP3    H136442   2.695   2.154   1.632 -0.3968 -0.6961  0.6125
 4961TIP3    H236443   2.639   2.027   1.572 -1.7721  1.0311 -1.9466
 4962TIP3   OH236444   3.825   1.252   6.965 -0.4745  0.0502  0.3189
 4962TIP3    H136445   3.734   1.262   6.938 -0.2659 -0.3536 -0.5796
 4962TIP3    H236446   3.876   1.270   6.886  0.2668  1.0029  0.9872
 4963TIP3   OH236447   3.605   3.661   7.135 -0.1390 -0.2973  0.4935
 4963TIP3    H136448   3.563   3.707   7.063 -0.0543  0.3765  0.8632
 4963TIP3    H236449   3.593   3.568   7.116 -0.1971 -0.1214 -0.3357
 4964TIP3   OH236450   4.564   1.903   7.094  0.2853 -0.2912  0.1674
 4964TIP3    H136451   4.615   1.921   7.015 -0.4264  2.1789  0.2035
 4964TIP3    H236452   4.553   1.988   7.136  1.4631 -1.6280  3.5181
 4965TIP3   OH236453   5.808   2.876   7.975  0.1863 -0.7796  0.5435
 4965TIP3    H136454   5.815   2.954   7.920  1.4168 -3.1174 -3.0211
 4965TIP3    H236455   5.866   2.892   8.049  0.4119  1.6308 -0.1015
 4966TIP3   OH236456   5.881   4.435   0.341 -0.8647 -0.2889  0.1092
 4966TIP3    H136457   5.790   4.430   0.371 -1.0888 -0.8511 -0.6333
 4966TIP3    H236458   5.905   4.527   0.353 -0.9166 -0.4877  2.0181
 4967TIP3   OH236459   4.735   3.663   7.335 -0.5276 -0.4501 -0.8983
 4967TIP3    H136460   4.653   3.711   7.343 -1.3569 -2.0348  0.8902
 4967TIP3    H236461   4.801   3.724   7.369 -1.0579  0.5142 -1.5339
 4968TIP3   OH236462   6.162   1.868   6.783  0.1098  0.6741 -0.4884
 4968TIP3    H136463   6.119   1.954   6.783 -1.4122 -0.0515 -0.4824
 4968TIP3    H236464   6.210   1.865   6.865  0.8261  1.8205 -0.8446
 4969TIP3   OH236465   0.127   5.655   8.320  0.1788  0.1443 -0.1930
 4969TIP3    H136466   0.147   5.649   8.227 -3.0357 -1.4502 -0.9133
 4969TIP3    H236467   0.104   5.747   8.334  0.4157  0.3319 -1.0155
 4970TIP3   OH236468   0.734   0.110   0.717  0.3900 -0.2787  0.0078
 4970TIP3    H136469   0.680   0.161   0.656  0.6885 -1.9696 -1.7714
 4970TIP3    H236470   0.818   0.101   0.673  1.1052 -0.3390  1.3372
 4971TIP3   OH236471   1.999   5.271   7.551 -0.2932 -0.0558 -0.1026
 4971TIP3    H136472   2.092   5.250   7.555 -0.2108  0.3851  3.2301
 4971TIP3    H236473   1.994   5.364   7.575 -1.5566  0.0176 -0.5965
 4972TIP3   OH236474   4.594   2.644   1.791  0.0832 -0.2013 -0.3958
 4972TIP3    H136475   4.576   2.617   1.881 -0.4567 -0.0355 -0.4528
 4972TIP3    H236476   4.656   2.717   1.800  1.0779 -1.0419 -0.2182
 4973TIP3   OH236477   3.137   6.836   6.891  0.2491 -0.4182 -0.1205
 4973TIP3    H136478   3.115   6.794   6.974  0.2545 -0.3449 -0.0812
 4973TIP3    H236479   3.054   6.845   6.845 -0.0150  1.0292  0.5739
 4974TIP3   OH236480   2.397   6.899   1.843  0.2926  0.7082  0.5928
 4974TIP3    H136481   2.488   6.884   1.816  0.3831 -0.0925  1.2791
 4974TIP3    H236482   2.351   6.921   1.762  0.9166  0.1926  0.0822
 4975TIP3   OH236483   2.708   3.420   7.783  0.4302 -0.1504  0.1560
 4975TIP3    H136484   2.743   3.456   7.701 -0.9352  0.6337 -0.1036
 4975TIP3    H236485   2.702   3.326   7.766 -0.1163  0.0334 -0.7804
 4976TIP3   OH236486   5.485   4.613   8.172  0.4454 -0.0590 -0.2952
 4976TIP3    H136487   5.466   4.522   8.191  0.2001 -0.1239 -0.8378
 4976TIP3    H236488   5.455   4.661   8.250  0.3536 -0.4107 -0.1115
 4977TIP3   OH236489   1.444   6.632   2.214 -0.4748  0.0916 -0.6433
 4977TIP3    H136490   1.370   6.681   2.250  0.3243  0.9426 -0.1270
 4977TIP3    H236491   1.514   6.697   2.205  0.0975 -0.6174 -1.4972
 4978TIP3   OH236492   5.222   6.048   7.866 -0.1886  0.2716  0.3417
 4978TIP3    H136493   5.230   5.989   7.941 -1.9630  1.8940  1.9153
 4978TIP3    H236494   5.188   5.993   7.796  0.0104 -0.9590  1.1747
 4979TIP3   OH236495   1.033   2.506   7.727 -0.3395  0.2250  0.8570
 4979TIP3    H136496   1.115   2.545   7.695 -1.0871  2.0266  1.0018
 4979TIP3    H236497   0.995   2.464   7.651  0.5315 -0.3283  0.7062
 4980TIP3   OH236498   1.308   5.627   7.179  0.0908 -0.8426  0.1987
 4980TIP3    H136499   1.328   5.540   7.144  2.7654 -0.2282 -0.0110
 4980TIP3    H236500   1.304   5.684   7.103 -0.4862 -0.5696  0.4255
 4981TIP3   OH236501   1.544   5.669   8.142 -0.3962 -0.4103  0.3206
 4981TIP3    H136502   1.462   5.720   8.136  0.1685  0.7023  1.6458
 4981TIP3    H236503   1.553   5.629   8.055 -2.0733 -0.1349 -0.0185
 4982TIP3   OH236504   4.479   3.582   1.423  0.1615 -0.2871  0.5591
 4982TIP3    H136505   4.550   3.568   1.360 -0.0078 -0.7787  0.4773
 4982TIP3    H236506   4.498   3.521   1.495 -0.3707 -0.6748  0.3756
 4983TIP3   OH236507   0.042   6.290   0.659  0.2173 -0.0844 -0.0043
 4983TIP3    H136508  -0.038   6.300   0.607  0.4965  2.8106 -0.0401
 4983TIP3    H236509   0.012   6.256   0.743 -0.7112 -1.2590 -0.7758
 4984TIP3   OH236510   1.231   2.931   7.135  0.1315 -0.4329  0.1583
 4984TIP3    H136511   1.287   2.868   7.180 -0.8969 -1.6622 -0.2023
 4984TIP3    H236512   1.158   2.878   7.102 -0.1723  0.7593 -1.1855
 4985TIP3   OH236513   4.642   1.848   0.434 -0.6094 -0.2931  0.4806
 4985TIP3    H136514   4.727   1.886   0.454  1.2031 -3.9970  0.6455
 4985TIP3    H236515   4.592   1.857   0.516  0.7876 -0.7983  1.4322
 4986TIP3   OH236516   5.266   5.227   8.364 -0.8337 -0.2823  0.6655
 4986TIP3    H136517   5.193   5.173   8.335 -0.8254  0.6511 -1.2957
 4986TIP3    H236518   5.342   5.169   8.361 -0.6261 -0.0401 -2.5044
 4987TIP3   OH236519   1.889   3.014   1.383 -0.5166 -0.3816 -0.0395
 4987TIP3    H136520   1.892   3.045   1.293  0.7837 -2.7375 -0.9033
 4987TIP3    H236521   1.879   3.093   1.436 -0.5915  1.1259 -2.1940
 4988TIP3   OH236522   6.203   0.134   2.673 -0.1323 -0.1834  0.1722
 4988TIP3    H136523   6.168   0.052   2.638  0.7034 -0.9020  0.9738
 4988TIP3    H236524   6.128   0.178   2.712 -0.6763 -0.3455 -0.6672
 4989TIP3   OH236525   5.807   2.920   6.765 -0.3215  0.8199 -0.4457
 4989TIP3    H136526   5.737   2.862   6.735 -0.7563  0.8141  0.5286
 4989TIP3    H236527   5.762   3.000   6.790 -0.1307  0.5016  1.0424
 4990TIP3   OH236528   5.761   4.704   0.340  0.2389 -0.5125  0.1363
 4990TIP3    H136529   5.776   4.798   0.352  0.2608 -0.4787 -0.1459
 4990TIP3    H236530   5.675   4.698   0.299  0.0825 -0.6369  0.4754
 4991TIP3   OH236531   2.177   3.728   1.056  0.0950  0.7751  0.3764
 4991TIP3    H136532   2.202   3.776   1.135 -1.2006  0.5992  0.9339
 4991TIP3    H236533   2.097   3.681   1.082  0.8200 -0.9910 -0.4055
 4992TIP3   OH236534   3.541   1.865   0.408 -0.7663  0.0061  0.9582
 4992TIP3    H136535   3.522   1.850   0.501  0.4906  1.0998  1.4214
 4992TIP3    H236536   3.518   1.957   0.394 -1.2852 -0.2509  0.0891
 4993TIP3   OH236537   4.472   2.084   1.725 -0.1406 -0.2059 -0.2222
 4993TIP3    H136538   4.433   2.034   1.653  0.5674 -1.5902  0.3244
 4993TIP3    H236539   4.555   2.116   1.689 -0.3824  0.1887 -0.4288
 4994TIP3   OH236540   1.226   0.086   6.244  0.7672  0.1550 -0.1074
 4994TIP3    H136541   1.270   0.020   6.298 -1.1090 -1.7735 -0.7893
 4994TIP3    H236542   1.140   0.097   6.284 -0.4555 -0.8893 -2.2631
 4995TIP3   OH236543   5.961   3.764   1.667 -0.1474  0.9530  0.1239
 4995TIP3    H136544   6.022   3.836   1.684  0.1111  0.9982 -0.8760
 4995TIP3    H236545   5.981   3.700   1.735 -0.3793  1.8148  1.0264
 4996TIP3   OH236546   4.656   5.480   1.124 -0.5327 -0.4624 -0.4917
 4996TIP3    H136547   4.617   5.430   1.052  2.2123 -2.8305 -0.5207
 4996TIP3    H236548   4.612   5.448   1.202 -0.4649 -1.1821 -0.7420
 4997TIP3   OH236549   1.101   5.077   2.219 -0.2068 -0.0499 -0.3051
 4997TIP3    H136550   1.152   4.996   2.223  1.7058  1.0666 -0.9722
 4997TIP3    H236551   1.021   5.052   2.172  1.1468 -1.1966 -2.1598
 4998TIP3   OH236552   3.280   2.444   8.224 -0.5172 -0.1327 -0.2600
 4998TIP3    H136553   3.286   2.349   8.216 -1.7279 -0.2572  0.0355
 4998TIP3    H236554   3.202   2.468   8.173  0.6075  0.8939 -1.5744
 4999TIP3   OH236555   3.492   4.593   6.878  0.2976  0.0978 -0.5115
 4999TIP3    H136556   3.512   4.605   6.785 -0.0948 -0.4795 -0.6768
 4999TIP3    H236557   3.450   4.507   6.883  0.1251  0.2126  0.1703
 5000TIP3   OH236558   0.242   4.861   7.735  0.0969 -0.2194 -0.0017
 5000TIP3    H136559   0.174   4.806   7.773  0.1756  0.9084  1.9182
 5000TIP3    H236560   0.324   4.826   7.771  0.5224 -1.2131 -1.8431
 5001TIP3   OH236561   6.012   3.780   2.211 -0.3728  0.2805  0.2585
 5001TIP3    H136562   6.042   3.842   2.278 -1.0360  1.8611 -0.8407
 5001TIP3    H236563   6.091   3.734   2.185  0.7356  2.6219 -0.8155
 5002TIP3   OH236564   6.786   3.581   1.804 -0.1137 -0.3440 -0.2972
 5002TIP3    H136565   6.809   3.563   1.713  0.3070 -0.6165 -0.1386
 5002TIP3    H236566   6.870   3.586   1.849 -0.3320 -0.4063  0.1153
 5003TIP3   OH236567   4.307   1.399   0.806 -0.1815  0.1717  0.1351
 5003TIP3    H136568   4.214   1.394   0.784  0.0580  0.8149 -1.0790
 5003TIP3    H236569   4.308   1.412   0.901 -1.2565 -2.6053  0.6375
 5004TIP3   OH236570   1.286   2.801   2.262 -0.2019 -0.6718 -0.3405
 5004TIP3    H136571   1.239   2.756   2.192 -0.4993 -2.6745  1.0491
 5004TIP3    H236572   1.285   2.739   2.335  1.5968  0.6275  0.8773
 5005TIP3   OH236573   4.745   4.798   8.109  0.0587 -0.2364  0.2246
 5005TIP3    H136574   4.776   4.852   8.181  1.3575 -1.5235  0.6834
 5005TIP3    H236575   4.718   4.716   8.151  0.6748 -0.9429 -0.7343
 5006TIP3   OH236576   4.580   4.519   0.945 -0.5032  0.6741  0.1620
 5006TIP3    H136577   4.656   4.540   1.000 -0.0676 -0.7595  0.1547
 5006TIP3    H236578   4.510   4.574   0.980  0.4162  1.6843  0.4695
 5007TIP3   OH236579   2.777   1.993   0.928 -0.0972  0.4238 -0.2491
 5007TIP3    H136580   2.697   1.993   0.980 -0.7160 -2.3141 -1.0220
 5007TIP3    H236581   2.765   2.066   0.867 -1.0349  1.3433  0.9617
 5008TIP3   OH236582   2.589   1.600   2.266  0.0124  0.2834  0.4110
 5008TIP3    H136583   2.631   1.687   2.265  1.3589 -0.3193 -1.6059
 5008TIP3    H236584   2.590   1.574   2.358  4.4356  0.2082  0.5253
 5009TIP3   OH236585   5.371   4.763   1.994 -0.0376  0.0508 -0.0602
 5009TIP3    H136586   5.322   4.699   1.944  0.3713  1.1532 -1.9642
 5009TIP3    H236587   5.306   4.807   2.048 -0.2606 -2.1992  1.6350
 5010TIP3   OH236588   5.896   0.998   1.101  0.2453  0.3070  0.3173
 5010TIP3    H136589   5.806   1.010   1.070  0.6243 -0.0739 -0.9988
 5010TIP3    H236590   5.932   1.087   1.105  0.5817  0.3155 -1.6747
 5011TIP3   OH236591   2.498   5.500   2.037  0.4806 -0.0774 -0.1743
 5011TIP3    H136592   2.580   5.550   2.043  0.4077  0.2053 -1.3341
 5011TIP3    H236593   2.526   5.413   2.007  0.4747 -0.3774  0.6561
 5012TIP3   OH236594   2.310   4.867   7.165  0.2675  0.6578  0.0977
 5012TIP3    H136595   2.254   4.942   7.143 -0.1929  0.7605  1.4968
 5012TIP3    H236596   2.260   4.791   7.138  0.1488  0.8087 -0.1110
 5013TIP3   OH236597   3.561   1.711   6.409  0.2629  0.3856  0.0912
 5013TIP3    H136598   3.618   1.692   6.483  0.0633  1.1000  0.4363
 5013TIP3    H236599   3.554   1.806   6.407 -0.1945  0.3492 -0.4963
 5014TIP3   OH236600   5.004   4.803   1.448  0.1864 -0.0957 -0.3558
 5014TIP3    H136601   4.947   4.825   1.522 -2.9313 -1.8009 -2.0348
 5014TIP3    H236602   5.016   4.709   1.453 -0.7078 -0.3654 -2.3577
 5015TIP3   OH236603   3.931   5.203   1.281 -0.1313  0.1230  0.2346
 5015TIP3    H136604   3.904   5.230   1.194 -2.0804  0.9964  1.0491
 5015TIP3    H236605   3.971   5.117   1.268  0.7708  0.7666 -1.6481
 5016TIP3   OH236606   5.943   2.458   0.117 -0.1724  0.0655  0.0803
 5016TIP3    H136607   5.917   2.521   0.184  1.2350  1.1126 -0.3109
 5016TIP3    H236608   6.031   2.430   0.142 -0.5496 -1.3029 -0.0817
 5017TIP3   OH236609   2.045   0.954   1.289 -0.6755 -0.2218 -0.0569
 5017TIP3    H136610   2.012   1.023   1.232 -0.5413  1.0617  1.3321
 5017TIP3    H236611   2.089   0.892   1.231  0.3709  1.5611 -1.2504
 5018TIP3   OH236612   6.499   4.902   6.473 -0.2292  0.3664 -0.3954
 5018TIP3    H136613   6.542   4.964   6.532 -0.3561 -0.7960  0.9686
 5018TIP3    H236614   6.557   4.896   6.398  1.2060  0.0348  0.7022
 5019TIP3   OH236615   4.163   4.828   1.108  0.0172 -0.4761  0.0440
 5019TIP3    H136616   4.095   4.891   1.082  0.2020 -0.2182  0.1846
 5019TIP3    H236617   4.230   4.835   1.040  0.4103  0.0597  0.4724
 5020TIP3   OH236618   3.026   1.830   6.372 -0.0393  0.1759  0.2460
 5020TIP3    H136619   3.014   1.924   6.386 -1.4733  0.0583 -0.0345
 5020TIP3    H236620   3.079   1.824   6.292  0.1040  0.7444  0.2936
 5021TIP3   OH236621   3.291   4.434   1.542 -0.3105  0.4187  0.0392
 5021TIP3    H136622   3.252   4.426   1.455  1.3414 -0.4219 -0.6771
 5021TIP3    H236623   3.379   4.467   1.526 -0.0419  0.4486  1.4193
 5022TIP3   OH236624   3.998   1.325   1.846 -0.6156  0.0061 -0.0990
 5022TIP3    H136625   3.936   1.252   1.845 -3.1252  1.9952 -1.0828
 5022TIP3    H236626   3.958   1.390   1.905  1.4443  0.7134  0.6095
 5023TIP3   OH236627   5.348   5.756   6.902  0.5263 -0.1116  0.6140
 5023TIP3    H136628   5.302   5.672   6.912 -0.1728  0.1244 -0.5158
 5023TIP3    H236629   5.401   5.744   6.823  0.9205  0.2994  0.8154
 5024TIP3   OH236630   1.480   4.130   1.316  0.4399 -0.6427  0.3258
 5024TIP3    H136631   1.513   4.217   1.338 -0.7021  0.0139 -0.4549
 5024TIP3    H236632   1.433   4.142   1.233 -0.6092 -1.7961  0.7179
 5025TIP3   OH236633   0.938   1.113   2.141 -0.2610  0.9749  0.0084
 5025TIP3    H136634   0.956   1.083   2.230 -0.8146 -1.6638 -0.6999
 5025TIP3    H236635   1.024   1.134   2.105 -0.0339  2.1510  1.1316
 5026TIP3   OH236636   1.618   1.831   2.802  0.3314  0.0280 -0.5484
 5026TIP3    H136637   1.630   1.872   2.716  1.5788 -0.5059 -0.6413
 5026TIP3    H236638   1.551   1.764   2.788  2.1259 -1.6265 -1.6815
 5027TIP3   OH236639   1.571   1.482   7.223 -0.6403 -0.0641 -0.0534
 5027TIP3    H136640   1.497   1.429   7.196 -0.6920  0.7157 -1.5566
 5027TIP3    H236641   1.635   1.471   7.153 -0.6816  1.8612 -0.4443
 5028TIP3   OH236642   2.186   6.770   0.857  0.5248 -0.1682  0.2291
 5028TIP3    H136643   2.144   6.825   0.923 -0.6870  0.1630 -0.7779
 5028TIP3    H236644   2.270   6.746   0.896 -0.0651  0.1766  1.7930
 5029TIP3   OH236645   6.048   4.193   0.219  0.1886  0.1224 -0.2167
 5029TIP3    H136646   5.979   4.256   0.240 -1.8971 -1.7866 -0.9298
 5029TIP3    H236647   6.126   4.246   0.208 -1.3197  2.4983 -0.1861
 5030TIP3   OH236648   3.985   3.765   1.418 -0.0407 -0.0384 -0.3833
 5030TIP3    H136649   3.966   3.816   1.339  0.2213 -0.1537 -0.5237
 5030TIP3    H236650   4.052   3.703   1.390 -0.1367 -0.2558 -0.1351
 5031TIP3   OH236651   0.717   3.269   1.637  0.0803  0.0951  0.9852
 5031TIP3    H136652   0.673   3.312   1.710 -0.7102  0.4474  0.3131
 5031TIP3    H236653   0.753   3.189   1.675 -0.2350  0.3196  1.7796
 5032TIP3   OH236654   0.072   1.019   2.473 -0.2816 -0.0805  0.5729
 5032TIP3    H136655  -0.015   1.040   2.509  0.0836  0.1021  1.3590
 5032TIP3    H236656   0.064   0.929   2.442 -0.8871  0.0881  0.2188
 5033TIP3   OH236657   5.583   6.584   6.818  0.2792  0.2537 -0.2602
 5033TIP3    H136658   5.605   6.496   6.789  0.2358  0.1796 -0.0723
 5033TIP3    H236659   5.637   6.641   6.764 -0.0882  0.1389 -0.7560
 5034TIP3   OH236660   3.630   6.344   0.639  0.4700 -0.3114  0.4503
 5034TIP3    H136661   3.622   6.296   0.721 -0.1706  0.0280  0.5912
 5034TIP3    H236662   3.571   6.299   0.578  0.0461  0.1435  0.5160
 5035TIP3   OH236663   0.279   3.836   6.761 -0.1188 -0.1834 -0.1576
 5035TIP3    H136664   0.209   3.806   6.820  1.0514  1.2603  2.1231
 5035TIP3    H236665   0.360   3.819   6.809  1.0732 -0.7970 -2.2679
 5036TIP3   OH236666   3.956   2.114   7.913  0.1316 -0.0923  0.0136
 5036TIP3    H136667   4.025   2.162   7.960  0.7596  0.5243 -1.4918
 5036TIP3    H236668   3.919   2.055   7.979  2.0928 -0.4340  0.8813
 5037TIP3   OH236669   3.180   4.093   0.253  0.5648 -0.3693  0.1089
 5037TIP3    H136670   3.085   4.081   0.245  0.5201 -0.9688  1.2405
 5037TIP3    H236671   3.215   4.066   0.168 -0.0698 -2.9944  0.5928
 5038TIP3   OH236672   0.686   3.348   0.127  0.0064  0.6100  0.7110
 5038TIP3    H136673   0.710   3.435   0.159  0.0320  0.4499  1.1257
 5038TIP3    H236674   0.593   3.340   0.145 -0.1562  0.8248  0.0291
 5039TIP3   OH236675   3.677   3.161   8.191 -0.4838  0.1948  0.0580
 5039TIP3    H136676   3.726   3.096   8.140 -1.2721 -0.3499 -0.0241
 5039TIP3    H236677   3.633   3.110   8.259  1.0932  0.9813  1.7752
 5040TIP3   OH236678   3.559   3.761   1.164 -0.1219  0.6090 -0.2452
 5040TIP3    H136679   3.493   3.717   1.111 -0.6423  0.0526  0.8314
 5040TIP3    H236680   3.625   3.693   1.181 -0.0253  0.7470 -0.0685
 5041TIP3   OH236681   0.336   0.298   2.766  0.5683 -0.2027  0.3193
 5041TIP3    H136682   0.412   0.243   2.747  0.3227 -0.8361  1.1342
 5041TIP3    H236683   0.372   0.372   2.815  0.8247  0.1119 -0.3344
 5042TIP3   OH236684   3.989   0.662   7.768 -0.3387  0.4921  0.0060
 5042TIP3    H136685   4.007   0.603   7.695  0.1733 -2.2410  2.1424
 5042TIP3    H236686   4.073   0.669   7.814 -1.1133  0.3052  1.5197
 5043TIP3   OH236687   1.970   4.305   2.264  0.2754 -0.2744 -0.6316
 5043TIP3    H136688   2.006   4.243   2.200  0.6624 -1.3108  0.5425
 5043TIP3    H236689   2.033   4.377   2.265  3.1851 -2.5690  2.2253
 5044TIP3   OH236690   0.696   3.946   8.355  0.2035 -0.4496 -0.0975
 5044TIP3    H136691   0.790   3.964   8.364  0.0603  0.0676  0.4322
 5044TIP3    H236692   0.654   4.007   8.415 -0.5384 -0.0336 -1.0190
 5045TIP3   OH236693   3.820   4.216   0.424  0.2234  0.4884 -0.1418
 5045TIP3    H136694   3.871   4.276   0.478 -0.4917  3.4501 -2.4848
 5045TIP3    H236695   3.872   4.203   0.345 -0.1314 -1.2132 -0.1526
 5046TIP3   OH236696   0.015   1.771   7.317 -0.9070  0.0734  0.0202
 5046TIP3    H136697  -0.019   1.841   7.260  0.2522  0.3882 -0.3133
 5046TIP3    H236698   0.032   1.698   7.258  0.4015  0.4377 -0.0762
 5047TIP3   OH236699   0.831   2.399   7.203  0.5122 -0.4618 -0.4008
 5047TIP3    H136700   0.919   2.416   7.171  0.2577 -0.0059 -0.8621
 5047TIP3    H236701   0.843   2.334   7.272  1.3011  0.1982  0.1068
 5048TIP3   OH236702   3.389   4.200   6.592  0.1756  0.2862  0.0114
 5048TIP3    H136703   3.465   4.148   6.616 -0.8209 -1.3745 -0.2437
 5048TIP3    H236704   3.422   4.266   6.531  1.6336  0.5913  1.0845
 5049TIP3   OH236705   5.241   3.242   2.090 -0.5582 -0.1069 -0.5730
 5049TIP3    H136706   5.335   3.225   2.098 -0.3975  1.1343  0.5117
 5049TIP3    H236707   5.201   3.156   2.106  0.3735 -0.6714 -1.1242
 5050TIP3   OH236708   1.940   2.726   8.546 -0.2049 -0.6536  0.3152
 5050TIP3    H136709   1.876   2.680   8.599 -0.3854 -0.9377 -0.1397
 5050TIP3    H236710   1.921   2.699   8.456  0.4149 -0.5780  0.1504
 5051TIP3   OH236711   5.427   4.402   8.474  0.0603  0.5155 -0.7073
 5051TIP3    H136712   5.469   4.487   8.463  2.3928 -0.6712 -1.5135
 5051TIP3    H236713   5.477   4.342   8.418 -0.5899 -1.6820  0.9048
 5052TIP3   OH236714   4.839   3.261   6.781 -0.2323 -0.4472 -0.4346
 5052TIP3    H136715   4.844   3.343   6.733  0.0176 -0.6980 -0.8402
 5052TIP3    H236716   4.829   3.194   6.713  1.4618 -0.9369 -0.2279
 5053TIP3   OH236717   6.632   6.288   1.353 -0.9392  0.5389 -0.6152
 5053TIP3    H136718   6.538   6.293   1.366 -0.8540  2.0659 -0.4418
 5053TIP3    H236719   6.661   6.220   1.414 -2.1232 -1.2775 -1.9636
 5054TIP3   OH236720   5.499   1.816   0.809 -0.4930  0.1032  0.4163
 5054TIP3    H136721   5.424   1.859   0.850 -1.0697  0.6583 -1.1661
 5054TIP3    H236722   5.477   1.723   0.808 -1.5530  0.3413 -0.7590
 5055TIP3   OH236723   2.108   5.714   6.974  0.1522  0.1200  0.3705
 5055TIP3    H136724   2.034   5.677   6.926  0.8706 -0.5182 -0.2731
 5055TIP3    H236725   2.068   5.773   7.038 -0.8648  0.4747 -0.5615
 5056TIP3   OH236726   6.884   0.529   0.422  0.0957  0.4307  0.4085
 5056TIP3    H136727   6.929   0.492   0.498 -0.9035 -0.8368  0.4246
 5056TIP3    H236728   6.822   0.593   0.458 -0.7139 -0.5086  0.7404
 5057TIP3   OH236729   1.098   1.581   7.730 -0.6449 -0.4394 -0.0439
 5057TIP3    H136730   1.163   1.651   7.728 -0.6839 -0.2649  2.0410
 5057TIP3    H236731   1.123   1.527   7.805 -2.1793 -1.0711  0.0544
 5058TIP3   OH236732   6.247   0.094   7.196  0.0826 -0.0981  0.7001
 5058TIP3    H136733   6.187   0.102   7.122 -0.7077 -1.5583  1.1271
 5058TIP3    H236734   6.252   0.182   7.233 -1.7671  0.0941  0.5906
 5059TIP3   OH236735   1.510   5.536   7.476  0.3618 -0.5775  0.1407
 5059TIP3    H136736   1.447   5.539   7.405  0.6855 -2.4182 -0.2604
 5059TIP3    H236737   1.462   5.569   7.553 -0.1280  0.9661 -0.7813
 5060TIP3   OH236738   6.277   4.945   7.169  0.2807 -0.1042  0.1641
 5060TIP3    H136739   6.222   4.882   7.123 -2.0334  1.4884  0.5345
 5060TIP3    H236740   6.336   4.979   7.102 -0.9735 -0.0213 -0.9482
 5061TIP3   OH236741   5.269   3.737   8.320  0.5779  1.1273  0.0668
 5061TIP3    H136742   5.320   3.740   8.239 -0.6039 -0.8504 -0.8249
 5061TIP3    H236743   5.180   3.759   8.293  0.2306  0.7647  0.8881
 5062TIP3   OH236744   4.547   2.198   0.154 -0.6554  0.1419 -0.0086
 5062TIP3    H136745   4.583   2.260   0.091 -1.7319 -0.0414 -0.8311
 5062TIP3    H236746   4.496   2.252   0.214 -0.8153  0.1573 -0.1581
 5063TIP3   OH236747   2.460   2.890   6.943  0.6611  0.1682 -0.2522
 5063TIP3    H136748   2.375   2.866   6.906 -0.5071  1.8563  1.2094
 5063TIP3    H236749   2.454   2.984   6.958  2.7917  0.3171 -0.0375
 5064TIP3   OH236750   0.802   0.462   8.531  0.0920  0.3872  1.0280
 5064TIP3    H136751   0.886   0.419   8.518 -0.1817 -0.1194  0.9408
 5064TIP3    H236752   0.798   0.528   8.461 -0.8167 -1.4762 -0.7609
 5065TIP3   OH236753   1.345   5.509   1.450  0.0496  0.0261  0.2548
 5065TIP3    H136754   1.428   5.471   1.420  0.0841  0.9306 -0.8560
 5065TIP3    H236755   1.369   5.593   1.489 -0.1218 -0.6580  1.9535
 5066TIP3   OH236756   4.751   5.208   0.536  0.5421  0.0199  0.3521
 5066TIP3    H136757   4.662   5.192   0.503 -0.0080 -2.2889  2.6411
 5066TIP3    H236758   4.774   5.293   0.500 -2.2477  0.3198 -1.0469
 5067TIP3   OH236759   0.552   3.474   6.902 -0.0998 -0.6160 -0.2131
 5067TIP3    H136760   0.540   3.443   6.992  1.6457 -1.4517 -0.2189
 5067TIP3    H236761   0.557   3.394   6.850  1.0527 -0.2289 -0.7246
 5068TIP3   OH236762   5.694   2.785   1.826 -0.0511 -0.4898 -0.2612
 5068TIP3    H136763   5.758   2.843   1.867 -0.6102 -0.8462  1.1642
 5068TIP3    H236764   5.647   2.745   1.899 -2.7693  0.6945 -1.2239
 5069TIP3   OH236765   6.720   3.292   1.161  0.1389  0.6086 -0.1003
 5069TIP3    H136766   6.752   3.243   1.085  0.5965 -1.4830  1.3449
 5069TIP3    H236767   6.794   3.296   1.221 -1.4756 -2.4186  2.3916
 5070TIP3   OH236768   0.336   0.937   7.906 -0.5041 -0.2014 -0.8502
 5070TIP3    H136769   0.308   0.880   7.834 -2.1746  0.7104 -0.9868
 5070TIP3    H236770   0.348   0.878   7.981 -0.2016 -0.9687 -1.4860
 5071TIP3   OH236771   0.379   4.947   6.809  0.2043 -0.1012  0.6365
 5071TIP3    H136772   0.436   4.874   6.833 -1.0599 -0.3324  3.2896
 5071TIP3    H236773   0.299   4.905   6.776  1.6264  0.2058 -3.9068
 5072TIP3   OH236774   2.088   0.642   1.983 -0.2354 -0.2652 -0.0071
 5072TIP3    H136775   2.043   0.716   1.943 -1.2254 -1.8541 -1.9882
 5072TIP3    H236776   2.018   0.589   2.020  0.2977 -1.1450 -0.2445
 5073TIP3   OH236777   4.169   3.914   8.171 -0.0971 -0.1079 -0.2549
 5073TIP3    H136778   4.262   3.934   8.171  0.1535 -1.2042  0.9897
 5073TIP3    H236779   4.160   3.841   8.109 -0.3401  0.7758 -1.3036
 5074TIP3   OH236780   6.763   1.382   0.419 -0.1427  0.2429 -0.7775
 5074TIP3    H136781   6.757   1.457   0.360 -0.3112 -0.1389 -1.2511
 5074TIP3    H236782   6.714   1.313   0.375  0.5911 -0.3552 -0.6734
 5075TIP3   OH236783   0.969   5.100   7.604 -0.1096 -0.3780 -0.3318
 5075TIP3    H136784   0.949   5.162   7.534  0.4423 -0.2580 -0.3900
 5075TIP3    H236785   1.012   5.153   7.671 -0.8395 -0.4471  0.2019
 5076TIP3   OH236786   1.721   2.070   7.475  0.0122  0.3570 -0.3282
 5076TIP3    H136787   1.805   2.029   7.494 -0.4422 -0.3717  0.2088
 5076TIP3    H236788   1.700   2.041   7.387 -0.0446 -0.1370 -0.1597
 5077TIP3   OH236789   1.707   3.587   6.689 -0.0795 -0.1083  0.4967
 5077TIP3    H136790   1.802   3.575   6.693  0.0400  0.8319  0.7761
 5077TIP3    H236791   1.693   3.678   6.718 -0.9506  0.2024 -0.8242
 5078TIP3   OH236792   0.532   5.556   6.972  0.1313  0.1309  0.0506
 5078TIP3    H136793   0.478   5.477   6.961  1.3346 -0.5879 -1.0094
 5078TIP3    H236794   0.497   5.598   7.051 -1.4695 -0.6937 -0.1721
 5079TIP3   OH236795   5.067   0.131   7.759  0.2299 -0.2007  0.5939
 5079TIP3    H136796   5.099   0.045   7.731  1.3824 -0.5941  2.8668
 5079TIP3    H236797   4.972   0.120   7.766  0.2376 -0.9188 -0.3133
 5080TIP3   OH236798   6.775   5.616   0.436 -0.0209  0.4333  0.2147
 5080TIP3    H136799   6.868   5.637   0.430 -0.7413  3.6507 -2.5387
 5080TIP3    H236800   6.739   5.683   0.495 -0.8658  0.5717 -0.4344
 5081TIP3   OH236801   3.834   4.162   8.442  0.1445  0.0625 -0.1947
 5081TIP3    H136802   3.890   4.121   8.376  0.4815 -1.4385  0.9691
 5081TIP3    H236803   3.809   4.091   8.500  0.4490  1.4296  1.7311
 5082TIP3   OH236804   5.433   1.871   1.866 -0.0636 -0.6418  0.7175
 5082TIP3    H136805   5.402   1.912   1.947 -0.0294 -0.1641  0.4969
 5082TIP3    H236806   5.419   1.778   1.879 -0.8580 -0.4963  0.9321
 5083TIP3   OH236807   2.973   4.860   0.498  0.4120 -0.3866 -0.8134
 5083TIP3    H136808   2.993   4.782   0.447  1.6262 -1.7082  1.4958
 5083TIP3    H236809   2.882   4.879   0.477  0.0054 -2.5653 -1.3231
 5084TIP3   OH236810   1.759   6.488   7.243  0.0081 -0.4263  0.3604
 5084TIP3    H136811   1.700   6.526   7.308  0.3585 -0.5402  0.7485
 5084TIP3    H236812   1.758   6.551   7.171 -0.5515 -0.4043  0.3763
 5085TIP3   OH236813   6.535   4.403   1.085 -0.3038 -0.3200 -0.5453
 5085TIP3    H136814   6.493   4.355   1.014  1.6998 -0.9668 -1.3717
 5085TIP3    H236815   6.620   4.361   1.096 -0.1119  0.4594  1.5326
 5086TIP3   OH236816   4.120   2.690   0.076 -0.1958  0.0110 -0.7352
 5086TIP3    H136817   4.085   2.758   0.134  1.2321  2.2664 -2.4009
 5086TIP3    H236818   4.129   2.614   0.133  0.7300  1.9598  1.9334
 5087TIP3   OH236819   0.380   5.157   1.276  0.5754  0.4619  0.2894
 5087TIP3    H136820   0.434   5.231   1.305 -0.4943  0.7416  1.6595
 5087TIP3    H236821   0.323   5.138   1.350 -0.5145 -0.4824 -0.7483
 5088TIP3   OH236822   6.734   1.920   7.180  0.2334  0.5951  0.2814
 5088TIP3    H136823   6.715   1.886   7.092  1.2940  0.6747  0.0051
 5088TIP3    H236824   6.651   1.912   7.227  0.1535 -1.4262 -0.0921
 5089TIP3   OH236825   2.778   1.022   6.650 -0.3357 -0.2197 -0.6994
 5089TIP3    H136826   2.735   1.042   6.567 -0.4044 -1.2525 -0.9186
 5089TIP3    H236827   2.860   1.071   6.647 -1.0670  1.0689 -0.6491
 5090TIP3   OH236828   1.790   4.990   7.600  0.0224  0.0771  0.0378
 5090TIP3    H136829   1.751   5.059   7.548 -1.9531 -0.2142  1.0429
 5090TIP3    H236830   1.742   4.911   7.575  0.2846 -0.3926  0.9590
 5091TIP3   OH236831   2.007   1.560   7.440 -0.3654  0.1950 -0.2486
 5091TIP3    H136832   1.994   1.468   7.465  1.7955 -0.7881 -2.2940
 5091TIP3    H236833   2.098   1.578   7.462 -0.1905  1.1940 -1.6588
 5092TIP3   OH236834   3.697   3.759   0.615 -0.2497 -0.3813 -0.0598
 5092TIP3    H136835   3.653   3.695   0.671 -1.0141  1.4258  1.5442
 5092TIP3    H236836   3.632   3.782   0.549 -0.6119  0.0100  0.4272
 5093TIP3   OH236837   3.178   5.807   0.212 -0.2186  0.2035 -0.0476
 5093TIP3    H136838   3.119   5.820   0.138 -0.5997  2.0340  0.5196
 5093TIP3    H236839   3.148   5.870   0.278  1.8485  0.6214  0.5743
 5094TIP3   OH236840   2.658   5.101   7.636  0.4213 -0.2396 -0.2440
 5094TIP3    H136841   2.707   5.020   7.649  2.2531  0.5631 -1.6286
 5094TIP3    H236842   2.569   5.073   7.616  0.6432 -1.8249  0.8810
 5095TIP3   OH236843   5.096   4.530   1.505 -0.6203  0.2861 -0.0341
 5095TIP3    H136844   5.062   4.466   1.567  0.9271 -1.6207 -1.0545
 5095TIP3    H236845   5.161   4.579   1.554  0.9936 -1.5745 -0.1911
 5096TIP3   OH236846   2.783   1.229   1.321  0.3918  0.4792 -0.1006
 5096TIP3    H136847   2.812   1.318   1.302 -0.6529  0.2954 -3.2208
 5096TIP3    H236848   2.812   1.178   1.245  0.1554 -1.6728  1.1662
 5097TIP3   OH236849   6.333   3.392   8.383 -0.1216 -0.2890  0.3175
 5097TIP3    H136850   6.372   3.308   8.407 -0.4759  0.3096  3.4647
 5097TIP3    H236851   6.246   3.390   8.423 -1.2118  0.5641 -1.8742
 5098TIP3   OH236852   4.468   3.469   0.285  0.5067  0.1197  0.3404
 5098TIP3    H136853   4.556   3.432   0.281  0.8734  1.0198 -0.0936
 5098TIP3    H236854   4.458   3.498   0.377 -0.1692 -1.9207  0.9558
 5099TIP3   OH236855   1.754   4.365   7.324 -0.3218  0.1927 -0.1519
 5099TIP3    H136856   1.661   4.377   7.305 -0.6423 -0.6567  0.8024
 5099TIP3    H236857   1.772   4.428   7.394 -0.3395 -0.1107  0.1244
 5100TIP3   OH236858   1.765   5.464   7.428  0.7145 -0.1497 -0.2125
 5100TIP3    H136859   1.676   5.475   7.461 -0.1721 -1.5799 -1.9627
 5100TIP3    H236860   1.821   5.484   7.504 -1.1111 -0.7514  1.3806
 5101TIP3   OH236861   1.570   1.560   0.935 -0.5380 -0.4782 -0.3481
 5101TIP3    H136862   1.484   1.598   0.953 -0.8807 -1.6460  0.5842
 5101TIP3    H236863   1.620   1.575   1.015  0.9065  2.1055 -1.6020
 5102TIP3   OH236864   6.858   5.002   2.202  0.4026  0.0303 -0.5571
 5102TIP3    H136865   6.883   4.971   2.290  0.8706  0.6312 -0.4726
 5102TIP3    H236866   6.798   4.935   2.169 -2.9502  1.5938  1.7512
 5103TIP3   OH236867   0.030   1.264   1.252  0.1481  0.2847 -0.0943
 5103TIP3    H136868   0.016   1.297   1.340 -0.9151 -0.4303  0.0353
 5103TIP3    H236869   0.017   1.340   1.195 -1.1424  0.3484  0.2574
 5104TIP3   OH236870   4.455   3.750   0.245 -0.1803  0.3230 -0.0721
 5104TIP3    H136871   4.461   3.663   0.282  0.2576  0.8505  1.1477
 5104TIP3    H236872   4.532   3.758   0.189  1.1493  0.7852  1.7545
 5105TIP3   OH236873   1.596   2.160   0.453  0.4905 -0.8903  0.0986
 5105TIP3    H136874   1.667   2.219   0.428 -0.5141 -0.2639 -1.4633
 5105TIP3    H236875   1.597   2.092   0.385 -1.7225  0.3289 -1.2818
 5106TIP3   OH236876   3.307   5.682   0.505  0.3408 -0.4253  0.2921
 5106TIP3    H136877   3.319   5.663   0.598  0.9390  0.3752  0.3880
 5106TIP3    H236878   3.245   5.616   0.475  2.2881 -2.5386  0.6221
 5107TIP3   OH236879   5.383   0.932   1.018 -0.7892 -0.4409  0.5845
 5107TIP3    H136880   5.326   0.857   1.033 -0.5913 -0.5615  0.7353
 5107TIP3    H236881   5.332   0.991   0.963 -0.9862 -0.6361  0.5606
 5108TIP3   OH236882   6.338   1.066   0.490  0.2946 -0.0083 -0.2030
 5108TIP3    H136883   6.267   1.098   0.545  0.4896  0.0053  0.0419
 5108TIP3    H236884   6.397   1.020   0.550  0.5523  0.0802 -0.3850
 5109TIP3   OH236885   2.295   2.433   7.531 -0.4257  0.4069  0.4719
 5109TIP3    H136886   2.332   2.440   7.619 -2.3081  0.4687  1.3213
 5109TIP3    H236887   2.245   2.352   7.533  1.4808 -0.8990 -1.3947
 5110TIP3   OH236888   4.900   6.412   0.022 -0.4318 -0.4133  0.0860
 5110TIP3    H136889   4.896   6.375  -0.066 -0.6753  2.4527 -1.2217
 5110TIP3    H236890   4.966   6.360   0.067  0.8989 -0.9563 -2.3200
 5111TIP3   OH236891   3.888   5.592   0.486 -0.0324  0.4561 -0.4057
 5111TIP3    H136892   3.896   5.652   0.560  1.5317 -0.9078  0.5998
 5111TIP3    H236893   3.854   5.511   0.524 -0.4764  0.1473 -1.4206
 5112TIP3   OH236894   2.650   4.410   7.131 -0.1569 -0.3791  0.0077
 5112TIP3    H136895   2.579   4.473   7.142 -0.6326 -0.6074 -1.4617
 5112TIP3    H236896   2.606   4.325   7.124  0.5581 -1.3107  4.0924
 5113TIP3   OH236897   3.272   4.947   6.950  0.4928 -0.2639  0.1995
 5113TIP3    H136898   3.242   4.997   6.875 -0.0489 -0.0962  0.5177
 5113TIP3    H236899   3.324   5.009   7.002  1.7988 -0.6756 -0.5783
 5114TIP3   OH236900   4.650   5.563   7.492 -0.0300 -1.1818 -0.1734
 5114TIP3    H136901   4.696   5.603   7.566  1.9381 -1.6270 -1.1111
 5114TIP3    H236902   4.620   5.478   7.527  0.2967 -1.1034  0.3161
 5115TIP3   OH236903   0.722   4.677   2.176  0.0834  0.1393 -0.1036
 5115TIP3    H136904   0.746   4.601   2.229 -0.0521  0.1724  0.0047
 5115TIP3    H236905   0.633   4.659   2.147  0.0930  0.2040 -0.1736
 5116TIP3   OH236906   3.134   5.041   1.430  0.3751 -0.0257  0.2102
 5116TIP3    H136907   3.206   5.104   1.437  0.7758 -0.5892  1.5491
 5116TIP3    H236908   3.057   5.095   1.411  0.8006  0.8282  0.8172
 5117TIP3   OH236909   3.271   5.760   8.392 -0.1571 -0.3176 -1.0810
 5117TIP3    H136910   3.332   5.730   8.460 -1.5336 -0.6716  0.0344
 5117TIP3    H236911   3.301   5.716   8.312  0.1214 -1.7096 -0.2385
 5118TIP3   OH236912   5.404   3.460   7.101 -0.4281 -0.3686 -0.1854
 5118TIP3    H136913   5.331   3.401   7.082 -0.1565  0.3665 -4.3071
 5118TIP3    H236914   5.364   3.547   7.105 -0.0538 -0.1916 -0.2952
 5119TIP3   OH236915   2.796   0.372   1.870 -0.8042 -0.6059  0.3431
 5119TIP3    H136916   2.765   0.460   1.891  0.4876  0.0046 -0.1969
 5119TIP3    H236917   2.873   0.360   1.925 -0.2774 -0.9264 -0.4494
 5120TIP3   OH236918   5.514   1.371   1.203  0.1398  0.0269 -0.6005
 5120TIP3    H136919   5.500   1.459   1.169 -0.3169 -0.5777 -2.0343
 5120TIP3    H236920   5.568   1.327   1.138  2.8215  0.0475  1.4260
 5121TIP3   OH236921   2.464   4.515   8.137  0.3315 -0.2453  0.2889
 5121TIP3    H136922   2.514   4.587   8.097 -1.0182  0.0604 -0.9246
 5121TIP3    H236923   2.479   4.441   8.078  0.6718 -0.6194  0.8343
 5122TIP3   OH236924   0.556   0.563   2.057 -0.4520 -0.0575 -0.1441
 5122TIP3    H136925   0.541   0.469   2.056 -0.8164 -0.0016 -1.3494
 5122TIP3    H236926   0.468   0.601   2.059 -0.3050  0.2660  0.5147
 5123TIP3   OH236927   4.343   4.179   0.777  0.4673 -0.5476  0.2501
 5123TIP3    H136928   4.425   4.228   0.782  1.3400 -1.9816  0.8090
 5123TIP3    H236929   4.304   4.189   0.864  0.0748  0.0788  0.0055
 5124TIP3   OH236930   3.719   3.015   7.198  0.4454 -0.2020 -0.1846
 5124TIP3    H136931   3.807   3.039   7.169  0.8126  1.2417  1.9327
 5124TIP3    H236932   3.732   2.970   7.281 -0.8229  1.5666  1.0656
 5125TIP3   OH236933   3.417   0.341   8.194 -0.3888 -0.0098 -0.1825
 5125TIP3    H136934   3.425   0.435   8.179 -1.1364  0.5296  2.2854
 5125TIP3    H236935   3.495   0.303   8.153 -0.3849  1.5997 -1.7447
 5126TIP3   OH236936   3.235   4.529   7.437  0.4703 -0.4144 -0.4622
 5126TIP3    H136937   3.269   4.532   7.348  1.1283 -0.4769 -0.2203
 5126TIP3    H236938   3.245   4.438   7.463  1.4516 -0.1703  0.1034
 5127TIP3   OH236939   1.145   4.044   1.781 -0.3360 -0.1476  0.2987
 5127TIP3    H136940   1.066   4.034   1.727  0.7494 -2.5314 -1.0068
 5127TIP3    H236941   1.117   4.019   1.869 -1.0850 -0.8352 -0.1225
 5128TIP3   OH236942   5.222   3.013   1.730  0.3519 -0.2827 -0.0149
 5128TIP3    H136943   5.301   2.961   1.745  0.5362  0.2112  0.8062
 5128TIP3    H236944   5.249   3.103   1.751 -0.6140 -0.2093  0.9656
 5129TIP3   OH236945   1.361   5.965   1.138  0.1232  0.6372  0.3545
 5129TIP3    H136946   1.431   6.030   1.146 -0.4194  1.1438  1.0734
 5129TIP3    H236947   1.282   6.016   1.122 -0.1745  0.1043  0.1001
 5130TIP3   OH236948   2.949   4.801   8.489 -0.1242 -0.8693 -0.1063
 5130TIP3    H136949   3.045   4.793   8.482  0.1984 -3.0104  3.9938
 5130TIP3    H236950   2.934   4.895   8.498  1.8668 -0.6057  1.1571
 5131TIP3   OH236951   6.721   0.940   0.554  0.4050 -0.0565 -0.3437
 5131TIP3    H136952   6.751   0.962   0.465  0.4426  0.3741 -0.2259
 5131TIP3    H236953   6.733   1.021   0.604  0.2280 -0.2505  0.0148
 5132TIP3   OH236954   4.363   6.313   1.172  0.3168 -0.1653  0.4383
 5132TIP3    H136955   4.299   6.262   1.122  0.4778  0.2397 -0.1975
 5132TIP3    H236956   4.427   6.342   1.106  0.1197  1.0254  0.7490
 5133TIP3   OH236957   6.163   3.592   1.104  0.1275  0.4466 -0.5295
 5133TIP3    H136958   6.139   3.613   1.013 -1.0554  2.3387  0.1508
 5133TIP3    H236959   6.086   3.617   1.155  1.3169  0.8379  1.1430
 5134TIP3   OH236960   5.148   6.755   8.032  0.2132  0.1548 -1.0284
 5134TIP3    H136961   5.103   6.671   8.020 -0.8753  0.3884  0.9123
 5134TIP3    H236962   5.086   6.808   8.082  1.3746  1.6852 -1.1457
 5135TIP3   OH236963   2.959   3.724   0.869  0.5507  0.3192  0.3352
 5135TIP3    H136964   3.030   3.712   0.806  0.5785 -1.5053  0.6539
 5135TIP3    H236965   2.987   3.797   0.923  0.2837  2.3335 -2.0368
 5136TIP3   OH236966   2.796   0.680   0.113 -0.0855 -0.7657 -0.1921
 5136TIP3    H136967   2.860   0.700   0.181 -1.8449  0.1050  1.2685
 5136TIP3    H236968   2.845   0.625   0.051  1.7467 -1.0826  1.4143
 5137TIP3   OH236969   1.471   1.849   5.857  0.1635  0.2707 -0.6679
 5137TIP3    H136970   1.540   1.914   5.871  0.6788 -0.2704 -0.6830
 5137TIP3    H236971   1.389   1.898   5.871  0.5210  1.0604 -1.2156
 5138TIP3   OH236972   1.962   3.763   0.032  0.2559  0.1283 -0.5424
 5138TIP3    H136973   1.952   3.693   0.097  1.4059 -0.1851 -0.6771
 5138TIP3    H236974   1.894   3.827   0.055  0.6744  0.0552  1.0038
 5139TIP3   OH236975   6.770   4.463   0.588 -0.3341 -0.0684  0.0012
 5139TIP3    H136976   6.683   4.427   0.572  0.3517 -2.4462  1.1341
 5139TIP3    H236977   6.758   4.526   0.660 -0.8676 -1.8812  1.5730
 5140TIP3   OH236978   2.292   5.511   8.061  0.2422  0.4188  0.2835
 5140TIP3    H136979   2.260   5.458   8.134 -0.5384  0.5532  0.0492
 5140TIP3    H236980   2.387   5.504   8.065  0.2189  0.6678  1.4907
 5141TIP3   OH236981   0.061   2.499   8.382 -0.4525 -0.3823 -0.3692
 5141TIP3    H136982  -0.016   2.556   8.380 -0.9671 -1.0571  0.0748
 5141TIP3    H236983   0.131   2.555   8.418 -0.7968  0.1485 -0.5139
 5142TIP3   OH236984   1.120   4.986   0.768  0.4264 -0.2560  0.2390
 5142TIP3    H136985   1.124   5.048   0.841 -0.7522  0.9034 -0.6375
 5142TIP3    H236986   1.047   4.928   0.790  0.7177 -0.5414  0.4568
 5143TIP3   OH236987   6.679   3.956   8.049 -0.1810 -0.2466  0.3998
 5143TIP3    H136988   6.720   3.956   8.136 -0.9369 -1.6397  0.7900
 5143TIP3    H236989   6.747   3.923   7.991  0.0649 -0.1037  0.6024
 5144TIP3   OH236990   1.783   3.339   2.059 -0.3073 -0.1582  0.1939
 5144TIP3    H136991   1.726   3.290   1.999  1.1799  0.1941 -1.6123
 5144TIP3    H236992   1.829   3.272   2.109 -0.8050 -0.4882  0.2244
 5145TIP3   OH236993   0.328   2.000   7.719 -0.6925  0.2897 -0.0393
 5145TIP3    H136994   0.338   1.987   7.813  0.9919 -0.5740 -0.2979
 5145TIP3    H236995   0.260   1.938   7.693 -0.5039 -0.1317  0.4693
 5146TIP3   OH236996   0.494   4.710   7.739 -0.4610  0.2312 -0.5078
 5146TIP3    H136997   0.514   4.757   7.819  1.1177 -1.7094  0.3308
 5146TIP3    H236998   0.547   4.753   7.672  1.0647 -0.3385  0.2705
 5147TIP3   OH236999   3.156   6.232   7.431  0.1878 -0.4424  0.1609
 5147TIP3    H137000   3.105   6.312   7.419 -0.5145 -0.6508  1.5749
 5147TIP3    H237001   3.187   6.237   7.522  0.8241 -1.3940  0.0065
 5148TIP3   OH237002   3.073   0.695   8.274  0.0274 -0.2236  0.0940
 5148TIP3    H137003   3.162   0.677   8.304  0.1851  0.0487 -0.1922
 5148TIP3    H237004   3.029   0.733   8.350  0.0108 -0.7996  0.3779
 5149TIP3   OH237005   2.134   3.945   1.528 -0.0813 -0.6340  0.0654
 5149TIP3    H137006   2.087   3.932   1.611  0.3250 -1.8000  0.1241
 5149TIP3    H237007   2.202   3.877   1.528 -1.4968 -2.1878 -2.2548
 5150TIP3   OH237008   3.301   2.704   0.742 -0.6802 -0.2576 -0.1552
 5150TIP3    H137009   3.394   2.726   0.745 -0.6372 -0.5049  2.2860
 5150TIP3    H237010   3.299   2.609   0.746 -1.0387 -0.2053  1.2274
 5151TIP3   OH237011   3.435   6.808   0.547 -0.4431  0.7964  0.1662
 5151TIP3    H137012   3.422   6.714   0.543  2.4922  0.2589 -3.6202
 5151TIP3    H237013   3.494   6.822   0.621  0.0896 -0.5831  0.0264
 5152TIP3   OH237014   5.679   1.190   1.381 -0.1451  0.1811  0.1040
 5152TIP3    H137015   5.704   1.282   1.369 -1.3447  0.4045 -0.7757
 5152TIP3    H237016   5.704   1.171   1.472 -3.3654  2.5345  1.6797
 5153TIP3   OH237017   4.414   3.856   6.793 -0.3038  0.2144  0.1165
 5153TIP3    H137018   4.338   3.907   6.763 -0.9872 -0.5237  0.5485
 5153TIP3    H237019   4.452   3.910   6.862 -1.3607 -0.0823  0.9680
 5154TIP3   OH237020   2.998   3.540   6.998  0.0365  0.4504  0.1128
 5154TIP3    H137021   2.977   3.452   6.967  1.8008 -1.2257  3.1897
 5154TIP3    H237022   2.913   3.579   7.018 -0.7462 -1.2488  0.3010
 5155TIP3   OH237023   4.241   6.395   0.864 -0.0250  0.0305  0.2076
 5155TIP3    H137024   4.296   6.419   0.789  0.8860  0.1634  0.9042
 5155TIP3    H237025   4.263   6.460   0.931 -0.8961 -0.0331  0.5632
 5156TIP3   OH237026   4.281   2.820   0.884  0.5494 -0.4061  0.1863
 5156TIP3    H137027   4.256   2.729   0.871  0.0579 -0.0673 -1.4056
 5156TIP3    H237028   4.370   2.826   0.849  0.0305  0.0335 -1.1103
 5157TIP3   OH237029   5.771   1.497   0.852  0.6038 -0.1444  0.2001
 5157TIP3    H137030   5.783   1.575   0.905 -0.8009 -0.0645  0.4324
 5157TIP3    H237031   5.835   1.506   0.781  0.7024  1.0393  0.4248
 5158TIP3   OH237032   4.754   1.077   7.163  0.9034  0.8419  0.5040
 5158TIP3    H137033   4.745   1.172   7.170  0.2247  0.7552  0.9392
 5158TIP3    H237034   4.677   1.043   7.208  0.9744  0.0890  0.0623
 5159TIP3   OH237035   0.399   5.083   7.654 -0.1783 -0.1581  0.0827
 5159TIP3    H137036   0.462   5.095   7.725  0.5154 -0.3525 -0.5028
 5159TIP3    H237037   0.336   5.020   7.689  0.7558 -1.0822  0.1381
 5160TIP3   OH237038   2.174   3.764   0.332 -0.1793  0.3198  0.7981
 5160TIP3    H137039   2.142   3.830   0.270 -0.6067  1.0973  1.8304
 5160TIP3    H237040   2.241   3.716   0.282  0.5486  1.8798  0.1890
 5161TIP3   OH237041   3.287   2.345   6.699 -0.5780  0.0444 -0.1052
 5161TIP3    H137042   3.366   2.343   6.752 -0.3191 -0.8444 -0.4998
 5161TIP3    H237043   3.216   2.361   6.761 -0.4041 -1.9951  0.7057
 5162TIP3   OH237044   1.833   4.698   0.519 -0.3045 -0.1715 -0.0075
 5162TIP3    H137045   1.803   4.609   0.536 -0.7587 -0.1044 -0.4273
 5162TIP3    H237046   1.804   4.716   0.430  1.4834 -0.3049 -0.6713
 5163TIP3   OH237047   5.075   0.426   0.301  0.0968 -0.0079 -0.5781
 5163TIP3    H137048   5.091   0.488   0.372  2.0390  0.8810 -1.7127
 5163TIP3    H237049   5.159   0.381   0.288 -0.5067 -0.8999 -1.6155
 5164TIP3   OH237050   3.522   2.834   1.670  0.5677 -0.2272 -0.6638
 5164TIP3    H137051   3.588   2.770   1.695  2.0621  1.8081  0.9221
 5164TIP3    H237052   3.488   2.867   1.753  0.3580  1.5306 -1.4039
 5165TIP3   OH237053   3.527   6.810   1.005  0.3234 -0.4326 -0.2132
 5165TIP3    H137054   3.537   6.723   1.045 -1.8133 -0.2854  0.7988
 5165TIP3    H237055   3.432   6.822   0.997  0.4995  2.2832  0.7584
 5166TIP3   OH237056   1.298   5.435   8.441  0.8055 -0.2691 -0.2809
 5166TIP3    H137057   1.284   5.424   8.347  3.2293  0.1982 -0.7700
 5166TIP3    H237058   1.364   5.504   8.447  1.1253 -0.6993  1.7316
 5167TIP3   OH237059   4.284   4.058   7.337 -0.0600  0.1552 -0.1162
 5167TIP3    H137060   4.366   4.046   7.290  0.8609 -1.6989  1.8212
 5167TIP3    H237061   4.295   4.139   7.386  0.2947  0.3413 -0.5096
 5168TIP3   OH237062   3.310   6.042   1.487  0.0901 -0.2124  0.1365
 5168TIP3    H137063   3.267   5.968   1.530  0.6021 -0.1020  0.8435
 5168TIP3    H237064   3.332   6.009   1.400  1.2193 -1.2270  0.7795
 5169TIP3   OH237065   3.226   1.210   1.060 -0.2714  0.0410 -0.0235
 5169TIP3    H137066   3.274   1.134   1.095  0.3606 -0.2796 -1.5022
 5169TIP3    H237067   3.279   1.240   0.986 -0.5306  1.9355  0.5124
 5170TIP3   OH237068   3.076   1.150   8.288  0.2265 -0.4833  0.4681
 5170TIP3    H137069   3.029   1.087   8.233  3.2314 -1.9223 -0.7028
 5170TIP3    H237070   3.069   1.114   8.377  1.7258 -2.5454 -0.1445
 5171TIP3   OH237071   5.151   6.339   1.272  0.1409  0.2888  0.0059
 5171TIP3    H137072   5.078   6.364   1.328 -0.8101  2.5585 -2.0466
 5171TIP3    H237073   5.226   6.335   1.330 -1.3751 -1.0545  2.0002
 5172TIP3   OH237074   3.069   1.258   7.992  0.2838 -0.4245  0.2034
 5172TIP3    H137075   3.099   1.318   7.924  0.5595 -0.9371 -0.1299
 5172TIP3    H237076   3.142   1.252   8.053 -0.4177  1.0442  1.2648
 5173TIP3   OH237077   2.422   2.904   1.227 -0.1299  0.0009 -0.3667
 5173TIP3    H137078   2.371   2.894   1.146 -0.5884 -1.5984  0.0871
 5173TIP3    H237079   2.460   2.818   1.242 -1.0942 -0.1163  1.7915
 5174TIP3   OH237080   0.548   0.930   2.010 -0.2299  0.9227  0.4058
 5174TIP3    H137081   0.578   0.884   2.089 -0.6016  2.7917  1.6933
 5174TIP3    H237082   0.622   0.987   1.986 -0.5901  1.2775  0.1286
 5175TIP3   OH237083   4.765   5.955   0.865 -0.4136  0.2166  0.2413
 5175TIP3    H137084   4.722   6.031   0.828  0.4718 -0.8386 -3.2846
 5175TIP3    H237085   4.858   5.978   0.867  0.1726 -1.3102 -2.8729
 5176TIP3   OH237086   1.958   5.714   8.286 -0.8352 -0.5052  0.4242
 5176TIP3    H137087   1.868   5.748   8.287  0.1345  2.3559 -0.7393
 5176TIP3    H237088   1.982   5.712   8.193  0.0196 -2.1496  0.6460
 5177TIP3   OH237089   4.568   1.421   6.945  0.0786  0.2443 -0.2878
 5177TIP3    H137090   4.484   1.466   6.947  0.3023  0.6490  0.7935
 5177TIP3    H237091   4.545   1.328   6.936 -0.5342  0.2605  0.9509
 5178TIP3   OH237092   2.245   2.792   6.778 -0.0240 -0.0370  0.5475
 5178TIP3    H137093   2.274   2.740   6.703  0.0489  1.2067 -0.3154
 5178TIP3    H237094   2.228   2.879   6.742 -0.6428  0.4141  1.8553
 5179TIP3   OH237095   1.184   6.416   3.084  0.6517  0.1333 -0.9539
 5179TIP3    H137096   1.090   6.401   3.073  0.7473  0.1172 -1.7910
 5179TIP3    H237097   1.201   6.392   3.175 -0.1591  0.1701 -0.7827
 5180TIP3   OH237098   3.541   5.636   1.947 -0.2590 -0.3160  0.2191
 5180TIP3    H137099   3.464   5.658   2.000 -0.6671  0.9216 -0.8067
 5180TIP3    H237100   3.533   5.543   1.929 -1.9754 -0.0705 -0.5007
 5181TIP3   OH237101   6.207   1.054   0.263  0.1435 -1.0250 -0.1472
 5181TIP3    H137102   6.195   0.961   0.244  0.7896 -1.0808 -0.2970
 5181TIP3    H237103   6.267   1.055   0.337 -1.2775 -0.7697  1.0586
 5182TIP3   OH237104   4.742   1.837   1.191 -0.1216 -0.3058 -0.2181
 5182TIP3    H137105   4.831   1.854   1.160 -0.1452  0.5230  0.1496
 5182TIP3    H237106   4.715   1.919   1.232 -1.2903 -0.3563 -0.8605
 5183TIP3   OH237107   0.066   0.046   1.881 -0.4618 -0.3815  0.4076
 5183TIP3    H137108   0.077   0.066   1.788 -1.1832  1.6573  0.7175
 5183TIP3    H237109   0.151   0.069   1.921 -0.5787  0.0151  0.4342
 5184TIP3   OH237110   2.324   4.695   7.866 -0.3286 -0.0927 -0.1215
 5184TIP3    H137111   2.305   4.641   7.942  0.2888 -0.9080 -0.5249
 5184TIP3    H237112   2.316   4.785   7.897  2.6999 -0.3137  1.7083
 5185TIP3   OH237113   0.684   1.087   7.575  0.1446 -0.4666 -0.5957
 5185TIP3    H137114   0.673   1.156   7.641 -0.0041  1.7182 -2.7951
 5185TIP3    H237115   0.611   1.099   7.515 -0.2687 -3.0271 -0.7069
 5186TIP3   OH237116   0.385   3.520   1.012 -0.0824 -0.0042  0.5243
 5186TIP3    H137117   0.316   3.489   1.070 -1.9426  0.4163 -1.3631
 5186TIP3    H237118   0.412   3.603   1.052 -0.6393 -0.1727  1.2952
 5187TIP3   OH237119   4.690   5.716   0.253 -0.1370 -0.6603 -0.2900
 5187TIP3    H137120   4.713   5.770   0.177  0.8022 -2.6403 -1.4882
 5187TIP3    H237121   4.607   5.752   0.283 -0.7459 -0.0602 -2.5053
 5188TIP3   OH237122   4.560   0.665   7.610 -0.1850  0.0902 -0.4852
 5188TIP3    H137123   4.637   0.632   7.564 -0.2148 -1.4246  0.4638
 5188TIP3    H237124   4.498   0.593   7.607 -1.6641  1.3484 -1.3627
 5189TIP3   OH237125   0.215   4.228   0.948  0.1430  0.1883  0.0497
 5189TIP3    H137126   0.178   4.295   1.006 -0.4752 -2.5332  3.1074
 5189TIP3    H237127   0.301   4.209   0.985  0.3429 -0.6636 -0.8101
 5190TIP3   OH237128   1.764   4.555   7.888 -0.0456 -0.1392 -0.1429
 5190TIP3    H137129   1.848   4.509   7.888 -0.2788 -0.5654 -0.0068
 5190TIP3    H237130   1.782   4.637   7.840  0.5133 -0.0970  0.1279
 5191TIP3   OH237131   3.919   4.715   6.365 -0.1377 -0.3863  0.1701
 5191TIP3    H137132   3.837   4.729   6.413  0.5324 -0.2243  1.3116
 5191TIP3    H237133   3.922   4.786   6.301 -0.1403  0.5744  1.1954
 5192TIP3   OH237134   2.548   2.699   7.109 -0.6410  0.1695 -0.4078
 5192TIP3    H137135   2.536   2.770   7.045 -1.7111 -0.9813 -1.5447
 5192TIP3    H237136   2.568   2.622   7.056 -0.4046 -0.5705  0.7342
 5193TIP3   OH237137   2.826   5.088   1.128  0.5989 -0.6225  0.5233
 5193TIP3    H137138   2.874   5.150   1.183  1.3791 -0.2686 -0.5203
 5193TIP3    H237139   2.753   5.139   1.093  2.2688  0.3306 -1.8150
 5194TIP3   OH237140   3.853   3.230   1.519  0.2017  0.2553 -0.8628
 5194TIP3    H137141   3.928   3.276   1.558 -0.3837  2.2225 -1.9048
 5194TIP3    H237142   3.786   3.231   1.587  0.6579 -0.3336 -0.3914
 5195TIP3   OH237143   4.461   4.512   1.353  0.0549  0.1077  0.7955
 5195TIP3    H137144   4.402   4.436   1.357 -0.6635  0.4838 -1.3226
 5195TIP3    H237145   4.422   4.575   1.413  0.4245 -1.0096  2.2638
 5196TIP3   OH237146   4.257   0.820   0.899 -0.2485  0.1147 -0.1485
 5196TIP3    H137147   4.314   0.897   0.894 -1.5307  1.0301 -1.0396
 5196TIP3    H237148   4.306   0.751   0.854  1.9272 -0.3292  2.5491
 5197TIP3   OH237149   6.045   5.130   2.371 -0.7886  0.1749 -0.1334
 5197TIP3    H137150   6.098   5.202   2.336 -0.4656 -0.1398 -0.3007
 5197TIP3    H237151   6.031   5.152   2.463 -1.8716  1.1502 -0.5072
 5198TIP3   OH237152   2.601   6.798   1.474  0.0575 -0.4774  0.0154
 5198TIP3    H137153   2.528   6.849   1.510  1.3069  0.9724  0.6461
 5198TIP3    H237154   2.628   6.847   1.396  0.6785 -0.6943  0.0884
 5199TIP3   OH237155   2.133   1.775   0.854 -0.1933  0.4924 -0.3481
 5199TIP3    H137156   2.133   1.809   0.943  1.1757 -1.1911  0.3560
 5199TIP3    H237157   2.186   1.837   0.805 -0.1973  0.9525  0.2209
 5200TIP3   OH237158   4.492   0.066   1.885 -0.1236  0.4158 -0.4540
 5200TIP3    H137159   4.535   0.004   1.943 -1.0823  0.6993  0.5857
 5200TIP3    H237160   4.420   0.102   1.937  0.0375  1.9465 -1.2328
 5201TIP3   OH237161   2.680   4.190   6.660 -0.2921  0.5889 -0.1318
 5201TIP3    H137162   2.664   4.115   6.716  0.3685  0.9451  0.5485
 5201TIP3    H237163   2.595   4.235   6.654 -0.2149  0.9541  1.1859
 5202TIP3   OH237164   5.016   1.776   7.846  0.1006 -0.2491 -0.1410
 5202TIP3    H137165   5.105   1.742   7.853 -0.4898 -1.7294  0.7493
 5202TIP3    H237166   4.969   1.708   7.797 -0.2746  1.1227 -1.8041
 5203TIP3   OH237167   4.323   2.813   8.009  0.3701  0.1602 -0.2055
 5203TIP3    H137168   4.409   2.795   7.971 -0.1176  1.2776 -1.9526
 5203TIP3    H237169   4.276   2.860   7.940 -1.1993  0.7166  1.1856
 5204TIP3   OH237170   2.946   3.635   7.403 -0.2906 -0.2296 -0.6857
 5204TIP3    H137171   3.022   3.624   7.346  0.3887  0.0879  0.1347
 5204TIP3    H237172   2.932   3.729   7.407  2.2324  0.1999  2.8340
 5205TIP3   OH237173   6.090   1.056   1.766 -0.5320  0.5553 -0.3742
 5205TIP3    H137174   6.019   1.017   1.715 -0.1522 -0.3177 -0.2540
 5205TIP3    H237175   6.045   1.104   1.836 -1.0142  0.3728 -0.5533
 5206TIP3   OH237176   2.528   3.819   7.982 -0.2883  0.0922 -0.8455
 5206TIP3    H137177   2.531   3.867   8.064 -0.3584 -0.4083 -0.5434
 5206TIP3    H237178   2.447   3.847   7.940  0.5623  1.6227 -1.5433
 5207TIP3   OH237179   6.242   3.413   7.920 -0.2902  0.4034 -0.3566
 5207TIP3    H137180   6.287   3.477   7.865  0.0256  0.4305 -0.0685
 5207TIP3    H237181   6.213   3.463   7.996  0.2231  0.1444  0.0128
 5208TIP3   OH237182   2.311   3.100   7.251  0.0616 -0.0753  0.9453
 5208TIP3    H137183   2.288   3.092   7.159  2.8817  0.4739  0.1094
 5208TIP3    H237184   2.301   3.012   7.287  0.3658 -0.5961 -0.2391
 5209TIP3   OH237185   2.824   4.217   7.723 -0.2065  0.7233 -0.4278
 5209TIP3    H137186   2.754   4.261   7.675  0.5788  0.6787 -1.6587
 5209TIP3    H237187   2.798   4.125   7.723  0.3185  0.5459 -1.7938
 5210TIP3   OH237188   1.148   6.716   6.653  0.1284  0.4410  0.2609
 5210TIP3    H137189   1.134   6.646   6.590  1.1002  0.6132 -0.1507
 5210TIP3    H237190   1.059   6.738   6.683 -0.3962  0.6044 -1.3062
 5211TIP3   OH237191   3.433   4.099   0.830  0.0426  0.0055 -0.2346
 5211TIP3    H137192   3.507   4.145   0.792 -0.6757  2.6912  1.3742
 5211TIP3    H237193   3.465   4.068   0.915 -0.1263 -0.6119 -0.3867
 5212TIP3   OH237194   6.335   5.313   1.338  0.3943  0.7116 -0.2144
 5212TIP3    H137195   6.390   5.384   1.306  0.9417 -0.1191 -1.2185
 5212TIP3    H237196   6.246   5.337   1.313  0.4288  1.5389  0.4230
 5213TIP3   OH237197   5.923   0.431   6.634  0.7957  0.1258 -0.1309
 5213TIP3    H137198   5.918   0.408   6.541 -0.7352 -0.5021  0.0656
 5213TIP3    H237199   5.923   0.346   6.679 -0.1148  0.4351  0.4755
 5214TIP3   OH237200   6.509   0.773   2.176 -0.0600  0.4328 -0.2311
 5214TIP3    H137201   6.425   0.779   2.222 -0.9829  0.2115 -1.7860
 5214TIP3    H237202   6.484   0.765   2.084  1.6933  0.5446 -0.7431
 5215TIP3   OH237203   2.360   0.313   0.554  0.2012  0.7421  0.5272
 5215TIP3    H137204   2.383   0.261   0.631 -2.0065  2.4936  2.5225
 5215TIP3    H237205   2.350   0.402   0.587  0.5307  1.8473 -2.1080
 5216TIP3   OH237206   1.531   6.114   0.375  0.0495  0.0294 -0.2143
 5216TIP3    H137207   1.480   6.032   0.369  0.4740 -0.3429  0.9211
 5216TIP3    H237208   1.621   6.087   0.362  0.3062  0.1261  1.1583
 5217TIP3   OH237209   2.575   5.467   0.786 -0.4362 -0.3592 -0.3539
 5217TIP3    H137210   2.603   5.524   0.857 -0.2833 -0.0459 -0.6653
 5217TIP3    H237211   2.484   5.445   0.808  0.1544 -1.7359  0.8858
 5218TIP3   OH237212   5.262   6.490   0.053 -0.7310  0.5872  0.4568
 5218TIP3    H137213   5.233   6.444   0.132 -2.2658  3.4312  1.6722
 5218TIP3    H237214   5.347   6.527   0.078 -0.2621 -0.1873  0.0407
 5219TIP3   OH237215   4.002   1.013   2.358  0.1898 -0.0101  0.0908
 5219TIP3    H137216   4.060   0.969   2.296  2.4356  0.2194  1.9211
 5219TIP3    H237217   3.990   1.101   2.321  1.9830  0.3268  0.2437
 5220TIP3   OH237218   0.629   2.063   1.610  0.1153  0.1176  0.1485
 5220TIP3    H137219   0.715   2.100   1.587  0.4341 -0.2522  0.7225
 5220TIP3    H237220   0.645   2.013   1.690 -0.7248  0.3734  0.4869
 5221TIP3   OH237221   6.296   2.238   1.390  0.4501  0.1992 -0.0496
 5221TIP3    H137222   6.366   2.259   1.452  0.1967  1.3354 -0.1341
 5221TIP3    H237223   6.268   2.150   1.415 -0.2624  0.9587  2.0592
 5222TIP3   OH237224   1.712   0.132   1.971 -0.2686  0.4782  0.3292
 5222TIP3    H137225   1.754   0.204   1.924  1.0146 -1.1052 -1.0705
 5222TIP3    H237226   1.745   0.053   1.929 -1.2245 -0.9751  2.1532
 5223TIP3   OH237227   2.864   1.323   2.011  0.6163  0.1657 -0.4248
 5223TIP3    H137228   2.793   1.319   2.075 -0.1469  0.0783 -1.2511
 5223TIP3    H237229   2.942   1.298   2.059 -0.0810 -0.7302  0.2613
 5224TIP3   OH237230   2.413   4.143   6.608 -0.3777  0.1833  0.7386
 5224TIP3    H137231   2.425   4.078   6.539  1.1037  0.6055  0.5609
 5224TIP3    H237232   2.341   4.198   6.578 -0.8660 -0.6562  0.3432
 5225TIP3   OH237233   0.196   4.253   1.534  0.1817  0.3489  0.1615
 5225TIP3    H137234   0.132   4.289   1.473 -0.7014 -1.5426 -0.1175
 5225TIP3    H237235   0.250   4.327   1.559 -0.3114  1.4599 -1.8303
 5226TIP3   OH237236   5.126   3.144   0.824  0.1528  0.0943 -0.6274
 5226TIP3    H137237   5.177   3.125   0.745  1.1425  1.8985 -0.4892
 5226TIP3    H237238   5.110   3.239   0.819 -0.0902  0.1725  1.1381
 5227TIP3   OH237239   0.522   0.254   1.482 -0.0934 -0.2757  0.1142
 5227TIP3    H137240   0.561   0.266   1.396  1.8676  1.8841  1.1722
 5227TIP3    H237241   0.571   0.182   1.521 -0.6445 -0.9194 -0.3546
 5228TIP3   OH237242   3.731   2.005   7.623 -0.1853  0.4374  0.0649
 5228TIP3    H137243   3.764   1.937   7.681 -0.4004  0.3680  0.1045
 5228TIP3    H237244   3.697   2.072   7.682 -0.8319  0.1582  0.0173
 5229TIP3   OH237245   3.775   1.207   7.577 -0.2091  0.2306  0.0663
 5229TIP3    H137246   3.716   1.264   7.627  0.3389  0.3848  0.5455
 5229TIP3    H237247   3.832   1.167   7.643  0.8215  0.7799 -0.4703
 5230TIP3   OH237248   1.056   6.196   2.718 -0.0263  0.4622  0.1183
 5230TIP3    H137249   0.971   6.235   2.738 -0.3270 -0.2590  0.2737
 5230TIP3    H237250   1.064   6.123   2.779 -0.4171 -1.0361 -1.5381
 5231TIP3   OH237251   5.087   5.591   2.392  0.4748 -0.5268 -0.6215
 5231TIP3    H137252   5.079   5.554   2.304  1.1682 -0.1029 -0.8753
 5231TIP3    H237253   5.068   5.684   2.381  0.6538 -0.4546 -0.3395
 5232TIP3   OH237254   0.259   4.572   0.347  0.1925  0.1178 -0.5331
 5232TIP3    H137255   0.204   4.494   0.340 -0.8774  0.6234  1.4317
 5232TIP3    H237256   0.345   4.544   0.317 -0.4874 -1.4367 -1.1143
 5233TIP3   OH237257   0.909   6.814   8.330  0.3547 -0.2872  0.4462
 5233TIP3    H137258   0.896   6.896   8.378  0.3943  1.9837 -3.0218
 5233TIP3    H237259   1.003   6.799   8.332  0.7725  1.6249 -1.4614
 5234TIP3   OH237260   6.241   2.194   1.116  0.3847 -0.0778 -0.2516
 5234TIP3    H137261   6.265   2.235   1.199  0.7690  0.7777 -0.7730
 5234TIP3    H237262   6.325   2.178   1.072  0.2781 -1.7885  0.0867
 5235TIP3   OH237263   0.428   4.499   0.110 -0.2447 -0.2500 -0.0632
 5235TIP3    H137264   0.476   4.562   0.165 -1.7046 -1.4011  2.6788
 5235TIP3    H237265   0.468   4.414   0.131  0.0539 -0.5962 -1.8706
 5236TIP3   OH237266   6.408   1.628   1.312 -0.0023 -0.2146  0.2029
 5236TIP3    H137267   6.341   1.695   1.299 -0.7040 -0.7238  1.0845
 5236TIP3    H237268   6.365   1.546   1.288  0.5976 -0.4472 -0.0984
 5237TIP3   OH237269   3.245   1.054   2.391  0.8344 -0.3843  0.7658
 5237TIP3    H137270   3.189   1.079   2.317  1.0722 -2.8666 -0.3918
 5237TIP3    H237271   3.210   1.102   2.466  0.5343  2.1749 -0.9191
 5238TIP3   OH237272   5.826   6.053   7.389 -0.1364 -0.2294 -0.1223
 5238TIP3    H137273   5.781   6.062   7.306  1.2862 -1.7788 -1.1425
 5238TIP3    H237274   5.815   5.960   7.412  0.4736 -0.0845  0.8140
 5239TIP3   OH237275   0.087   5.087   1.119  0.1474  0.2624  0.4913
 5239TIP3    H137276  -0.004   5.059   1.109  0.7119 -0.9152 -2.7505
 5239TIP3    H237277   0.130   5.012   1.159 -0.1786  0.6988  1.7251
 5240TIP3   OH237278   1.247   4.940   7.670 -0.1921 -0.2560  0.2147
 5240TIP3    H137279   1.319   4.924   7.609 -1.5070  1.2531 -1.8659
 5240TIP3    H237280   1.254   5.033   7.693 -0.9867 -0.2907  0.6498
 5241TIP3   OH237281   1.339   3.040   2.123  0.3758  0.4303  0.5884
 5241TIP3    H137282   1.348   2.963   2.179 -0.2715  0.8115  1.2314
 5241TIP3    H237283   1.245   3.054   2.115  0.4229 -0.0629 -1.2422
 5242TIP3   OH237284   1.246   4.259   1.643  0.2280  0.0990 -1.0000
 5242TIP3    H137285   1.251   4.203   1.566 -0.7624 -1.3304 -0.0925
 5242TIP3    H237286   1.190   4.210   1.704 -0.3754  1.9306 -0.0053
 5243TIP3   OH237287   4.150   1.029   8.378 -0.2408 -0.1339 -0.1120
 5243TIP3    H137288   4.239   1.032   8.343  0.6281  0.0383  1.9603
 5243TIP3    H237289   4.132   0.936   8.390  0.2504 -0.1177  0.8206
 5244TIP3   OH237290   5.337   2.167   0.172 -0.2104  0.2944 -0.3761
 5244TIP3    H137291   5.335   2.096   0.236 -1.8565  0.2708 -0.4198
 5244TIP3    H237292   5.346   2.123   0.087  0.8764  0.2751 -0.2723
 5245TIP3   OH237293   6.872   2.588   6.719  0.2527  0.0478  0.1813
 5245TIP3    H137294   6.809   2.565   6.651 -0.7940  0.1426  1.0845
 5245TIP3    H237295   6.895   2.679   6.700 -0.0807  0.0941 -0.0056
 5246TIP3   OH237296   6.536   5.912   7.856 -0.3599 -0.6659 -0.0003
 5246TIP3    H137297   6.468   5.850   7.884  0.9190 -2.0701  0.0921
 5246TIP3    H237298   6.498   5.998   7.875 -1.9959 -1.4101  0.3066
 5247TIP3   OH237299   6.585   1.764   0.860 -0.5088  0.2795 -0.7126
 5247TIP3    H137300   6.680   1.760   0.871 -0.7097  0.9721  2.1051
 5247TIP3    H237301   6.571   1.842   0.806  0.4946  1.7386  0.9993
 5248TIP3   OH237302   1.752   2.918   6.314 -0.1845 -0.0690  0.2425
 5248TIP3    H137303   1.815   2.980   6.353 -2.1527 -0.1737  3.9869
 5248TIP3    H237304   1.785   2.832   6.339 -1.6370 -0.1266  2.1910
 5249TIP3   OH237305   1.967   6.547   0.011  0.0487 -0.0719 -0.0385
 5249TIP3    H137306   1.906   6.501   0.068  0.5146  0.1439  0.6503
 5249TIP3    H237307   1.951   6.640   0.028 -0.1845  0.0110 -0.6678
 5250TIP3   OH237308   5.674   0.029   1.316 -0.4221  0.1906 -0.1236
 5250TIP3    H137309   5.693   0.070   1.400 -1.4968  1.8334 -0.6360
 5250TIP3    H237310   5.720  -0.055   1.320  1.6753  1.2983  1.0838
 5251TIP3   OH237311   3.405   1.287   0.878 -0.2581  0.0037 -0.3643
 5251TIP3    H137312   3.347   1.316   0.807 -2.5066 -1.1621  0.8821
 5251TIP3    H237313   3.487   1.266   0.835 -1.1284  0.5856 -2.4234
 5252TIP3   OH237314   6.387   6.631   1.878  0.0938  0.6063  0.6661
 5252TIP3    H137315   6.447   6.683   1.931  0.6023 -0.2228  0.9316
 5252TIP3    H237316   6.443   6.589   1.812 -0.3372  0.5725  0.3191
 5253TIP3   OH237317   0.784   0.435   0.642  0.7037 -0.5336 -0.1100
 5253TIP3    H137318   0.872   0.444   0.606  0.9962  3.1542  1.0848
 5253TIP3    H237319   0.797   0.394   0.727  1.1404 -0.7625 -0.2830
 5254TIP3   OH237320   6.781   1.979   8.232  0.8491  0.2712  0.8600
 5254TIP3    H137321   6.718   2.016   8.169  0.8997  0.3487  0.8546
 5254TIP3    H237322   6.761   2.024   8.314 -0.7068 -1.4162  1.4702
 5255TIP3   OH237323   6.564   4.227   6.994 -0.0478  0.7335  0.1909
 5255TIP3    H137324   6.593   4.178   6.918 -0.1948 -1.0334  1.2114
 5255TIP3    H237325   6.623   4.303   6.998  0.1379  0.7104 -1.4783
 5256TIP3   OH237326   4.197   0.835   0.350  0.5179 -0.3478 -0.2019
 5256TIP3    H137327   4.251   0.876   0.283  0.7953 -0.0735  0.1852
 5256TIP3    H237328   4.220   0.881   0.431 -1.2048  0.6711 -0.2272
 5257TIP3   OH237329   0.372   2.826   1.343 -0.0649 -0.3669 -0.0503
 5257TIP3    H137330   0.327   2.826   1.258 -0.1486 -1.9087 -0.0328
 5257TIP3    H237331   0.364   2.736   1.374  0.7725 -0.0375  1.1781
 5258TIP3   OH237332   2.301   2.012   0.731  0.0332  0.9879 -0.4607
 5258TIP3    H137333   2.329   2.085   0.787  1.0875  0.0837  0.2359
 5258TIP3    H237334   2.295   2.049   0.643  1.4925  1.7065 -0.2875
 5259TIP3   OH237335   4.276   2.304   7.529 -0.0412  0.0680  0.1834
 5259TIP3    H137336   4.363   2.267   7.544  0.6303  0.9322 -1.2460
 5259TIP3    H237337   4.269   2.309   7.433 -0.3050  2.9706  0.2529
 5260TIP3   OH237338   0.317   5.036   0.899 -0.1374 -0.3149 -0.2785
 5260TIP3    H137339   0.405   5.053   0.865  0.1048 -2.9323 -1.1419
 5260TIP3    H237340   0.260   5.041   0.823 -0.4682 -0.4856 -0.0463
 5261TIP3   OH237341   2.579   6.339   0.414 -0.0806  0.2701  0.1497
 5261TIP3    H137342   2.568   6.371   0.504 -1.6692 -0.2888  0.1913
 5261TIP3    H237343   2.673   6.320   0.407  0.5239  2.6467  0.8676
 5262TIP3   OH237344   0.475   6.188   7.094 -0.0193 -0.5391  0.1006
 5262TIP3    H137345   0.429   6.106   7.076 -1.4225  0.2575 -0.1250
 5262TIP3    H237346   0.491   6.186   7.189 -0.3704 -0.9178  0.1573
 5263TIP3   OH237347   3.062   5.905   1.820 -0.0835  0.3848  0.2023
 5263TIP3    H137348   3.009   5.866   1.890  0.4347  0.8515  0.8660
 5263TIP3    H237349   3.140   5.937   1.864  1.1087 -0.9287 -0.8695
 5264TIP3   OH237350   1.465   4.936   7.501 -0.3917 -0.4509 -0.1722
 5264TIP3    H137351   1.469   5.028   7.527 -0.8433 -0.5270  0.1857
 5264TIP3    H237352   1.451   4.939   7.406 -0.3037 -0.1504 -0.1766
 5265TIP3   OH237353   6.773   2.561   0.056  0.1829 -0.1183  0.7867
 5265TIP3    H137354   6.866   2.575   0.077  0.0176 -0.0519  1.5053
 5265TIP3    H237355   6.726   2.607   0.125 -0.3864 -0.5597  0.7012
 5266TIP3   OH237356   1.264   6.114   7.415  0.0417 -0.8769 -0.4709
 5266TIP3    H137357   1.174   6.147   7.410  0.6204  1.0990  0.9039
 5266TIP3    H237358   1.256   6.020   7.398 -2.4799 -1.0340  1.0629
 5267TIP3   OH237359   0.134   4.659   7.902 -0.1631  0.1461  0.0256
 5267TIP3    H137360   0.189   4.614   7.966 -0.7795 -3.1702 -1.5737
 5267TIP3    H237361   0.070   4.707   7.955  1.7835  0.8455  1.8603
 5268TIP3   OH237362   0.212   4.053   0.731 -0.4528  0.1620 -0.1788
 5268TIP3    H137363   0.189   4.144   0.751 -3.8068 -1.0444  2.5192
 5268TIP3    H237364   0.237   4.016   0.816  0.5245 -1.5342 -1.1524
 5269TIP3   OH237365   2.172   0.039   1.077  0.0112  0.0087  0.1709
 5269TIP3    H137366   2.107   0.076   1.136 -0.3929  1.1022 -0.9141
 5269TIP3    H237367   2.197   0.112   1.020 -0.3529 -1.2325 -1.6622
 5270TIP3   OH237368   6.469   6.834   2.429  0.8707  0.6101 -0.1406
 5270TIP3    H137369   6.441   6.754   2.384  2.3221 -0.2045  0.3435
 5270TIP3    H237370   6.529   6.803   2.497 -0.3838  1.8971  1.6426
 5271TIP3   OH237371   0.762   5.015   1.940  0.4042 -0.4339 -0.2347
 5271TIP3    H137372   0.686   5.050   1.985 -0.4877 -0.3451 -1.7408
 5271TIP3    H237373   0.780   4.932   1.985 -0.6608 -0.5124  0.0770
 5272TIP3   OH237374   2.229   0.361   1.506  0.4386  0.4773 -0.2658
 5272TIP3    H137375   2.271   0.367   1.591  1.9505  0.2255 -0.9494
 5272TIP3    H237376   2.302   0.359   1.444 -0.5778 -0.8267 -1.4782
 5273TIP3   OH237377   2.879   4.337   0.783  0.1670  0.2233 -0.2201
 5273TIP3    H137378   2.955   4.394   0.773 -0.0620  0.7811  1.0408
 5273TIP3    H237379   2.811   4.377   0.729  0.3449  0.5207 -0.2258
 5274TIP3   OH237380   6.074   6.560   2.619 -0.1479 -0.0949 -0.0673
 5274TIP3    H137381   5.996   6.608   2.646 -1.1476 -1.6688 -0.0992
 5274TIP3    H237382   6.097   6.506   2.695  1.8493  1.4320  0.5229
 5275TIP3   OH237383   4.460   6.103   0.496  0.0319  0.5353  0.1204
 5275TIP3    H137384   4.394   6.077   0.561  1.9103 -3.0788  0.7978
 5275TIP3    H237385   4.438   6.053   0.418  1.1687  0.3090 -0.0680
 5276TIP3   OH237386   4.703   0.257   8.130  0.2959 -0.5461  0.1665
 5276TIP3    H137387   4.782   0.312   8.134  0.7014 -0.9967 -1.2078
 5276TIP3    H237388   4.722   0.193   8.061 -1.8043  0.2227 -1.2134
 5277TIP3   OH237389   6.185   2.027   7.963 -0.0209 -0.0712 -0.1962
 5277TIP3    H137390   6.202   2.103   7.907 -0.7615  0.9468  0.9133
 5277TIP3    H237391   6.268   1.979   7.965  0.2674  0.3416 -1.4355
 5278TIP3   OH237392   0.396   6.434   1.700 -0.9686  0.0296  0.3514
 5278TIP3    H137393   0.308   6.396   1.704 -0.6322 -0.7543  0.6668
 5278TIP3    H237394   0.433   6.416   1.786 -0.5867  0.5778  0.3044
 5279TIP3   OH237395   4.234   4.630   0.403  0.0415 -0.2935 -0.2610
 5279TIP3    H137396   4.327   4.632   0.384 -0.3051 -3.5935 -3.4787
 5279TIP3    H237397   4.226   4.572   0.479  0.6071 -0.9135 -0.6624
 5280TIP3   OH237398   5.250   5.477   0.789 -0.1445  0.4142  0.1866
 5280TIP3    H137399   5.336   5.484   0.746 -0.0842  0.2267  0.2747
 5280TIP3    H237400   5.193   5.532   0.736 -0.8017 -2.1868 -2.0573
 5281TIP3   OH237401   2.980   5.837   0.034  0.3500 -0.2898  0.1125
 5281TIP3    H137402   2.898   5.883   0.017  0.7660  0.0925 -0.9655
 5281TIP3    H237403   2.999   5.791  -0.047  2.1283  1.1105 -0.3431
 5282TIP3   OH237404   6.345   4.770   0.167 -0.4231 -0.0113  0.3880
 5282TIP3    H137405   6.257   4.773   0.203 -0.6318  0.3391 -0.1368
 5282TIP3    H237406   6.395   4.718   0.229 -1.3320 -1.4629 -0.0597
 5283TIP3   OH237407   6.353   6.665   8.059 -0.4422 -0.0990  0.6914
 5283TIP3    H137408   6.420   6.677   7.992 -1.3853  0.3219 -0.2051
 5283TIP3    H237409   6.354   6.571   8.078  0.1191 -0.1548  0.4089
 5284TIP3   OH237410   4.160   5.532   0.084  0.6077  0.0056  0.3425
 5284TIP3    H137411   4.148   5.600   0.150 -0.7024  1.6254 -1.4414
 5284TIP3    H237412   4.101   5.462   0.111 -3.2963  2.3588 -1.0929
 5285TIP3   OH237413   5.443   2.882   1.768 -0.7594  0.3823 -0.0403
 5285TIP3    H137414   5.526   2.848   1.736 -0.2966  2.2879 -0.9939
 5285TIP3    H237415   5.393   2.804   1.794  1.5453 -0.7709  1.2078
 5286TIP3   OH237416   2.544   6.037   7.448  0.7373 -0.3161  0.4232
 5286TIP3    H137417   2.621   5.986   7.423  1.5271  2.0658 -2.5933
 5286TIP3    H237418   2.477   6.014   7.383  0.9003  1.8642 -0.6066
 5287TIP3   OH237419   6.189   0.057   7.469 -0.1537  0.4120 -0.1276
 5287TIP3    H137420   6.272   0.052   7.515 -0.0822  1.7343 -0.0696
 5287TIP3    H237421   6.211   0.039   7.378 -0.2376 -1.8342  0.2393
 5288TIP3   OH237422   6.176   2.338   8.095  0.4219 -0.0505  0.0123
 5288TIP3    H137423   6.189   2.345   8.001  0.7941 -1.3231 -0.0452
 5288TIP3    H237424   6.249   2.283   8.125  0.5623  0.7020  1.1051
 5289TIP3   OH237425   5.592   5.468   7.529 -0.4813 -0.4079  0.4195
 5289TIP3    H137426   5.579   5.472   7.434  0.6558  1.4524  0.2929
 5289TIP3    H237427   5.625   5.379   7.545  0.7777 -0.2734 -1.1544
 5290TIP3   OH237428   0.797   6.333   1.282  0.0307 -0.1217 -0.2571
 5290TIP3    H137429   0.746   6.398   1.233  1.2889  1.3802  0.3449
 5290TIP3    H237430   0.886   6.367   1.280  0.4240 -0.9691  1.5173
 5291TIP3   OH237431   5.662   6.179   2.018  0.7627  0.3434 -0.3522
 5291TIP3    H137432   5.612   6.177   1.936  1.9384  0.7642 -1.1132
 5291TIP3    H237433   5.685   6.088   2.034 -3.0187 -0.4185  1.8582
 5292TIP3   OH237434   6.070   3.348   8.488  0.5747  0.2627 -0.0737
 5292TIP3    H137435   6.014   3.287   8.440  0.2276  0.7098 -0.2455
 5292TIP3    H237436   6.091   3.303   8.569  1.8733 -0.8802 -0.9848
 5293TIP3   OH237437   4.388   4.090   1.732  0.4546  0.3861 -0.7651
 5293TIP3    H137438   4.459   4.153   1.745  0.3138  0.2093  1.2876
 5293TIP3    H237439   4.407   4.019   1.794 -1.4727  0.3348 -0.1368
 5294TIP3   OH237440   1.857   5.992   8.053  0.4145 -0.4886 -0.0964
 5294TIP3    H137441   1.766   5.985   8.081  0.7813 -3.0404  0.6998
 5294TIP3    H237442   1.907   5.991   8.135  1.2274 -1.3738 -0.5789
 5295TIP3   OH237443   1.947   1.026   8.323 -0.8674 -0.2938 -0.0608
 5295TIP3    H137444   2.033   1.000   8.356 -0.8755  0.4281  0.5602
 5295TIP3    H237445   1.965   1.070   8.240 -0.0556  4.1892  2.2205
 5296TIP3   OH237446   6.829   4.430   0.947  0.0950  0.0737 -0.2618
 5296TIP3    H137447   6.810   4.406   1.037 -1.9678  1.6286 -0.2130
 5296TIP3    H237448   6.820   4.348   0.898 -0.0758 -0.5377  0.7536
 5297TIP3   OH237449   6.669   1.719   1.218  0.6356 -0.1135  0.5363
 5297TIP3    H137450   6.592   1.699   1.271 -0.2181  3.8174  1.1574
 5297TIP3    H237451   6.739   1.735   1.282  0.6293  0.9024  0.3203
 5298TIP3   OH237452   0.735   0.226   7.225  0.4121  0.4206  0.1575
 5298TIP3    H137453   0.672   0.214   7.154  0.3039  0.1436  0.2992
 5298TIP3    H237454   0.814   0.260   7.182  0.0588  1.0813  0.0252
 5299TIP3   OH237455   5.245   0.656   1.239 -0.1700 -0.1898  0.7207
 5299TIP3    H137456   5.201   0.606   1.308 -0.7005  0.4703  0.8778
 5299TIP3    H237457   5.223   0.610   1.158 -1.4063  0.2719  0.7663
 5300TIP3   OH237458   3.727   6.215   7.403 -0.2271 -0.4748  0.3564
 5300TIP3    H137459   3.729   6.300   7.360 -2.4252 -1.1713 -1.3462
 5300TIP3    H237460   3.794   6.220   7.471  0.2397  2.3067 -0.2026
 5301TIP3   OH237461   0.299   5.404   7.828 -0.4933 -0.2027 -0.0339
 5301TIP3    H137462   0.264   5.317   7.809 -1.5238  0.1647  0.0941
 5301TIP3    H237463   0.244   5.463   7.776 -0.2077  0.4167  0.3640
 5302TIP3   OH237464   3.426   2.212   7.130 -0.0707  0.0794  0.9200
 5302TIP3    H137465   3.442   2.121   7.106  0.6834  0.7631 -1.4308
 5302TIP3    H237466   3.499   2.234   7.189  0.3992 -0.5225  0.5804
 5303TIP3   OH237467   6.167   6.351   7.886 -0.5539 -0.5729 -0.3660
 5303TIP3    H137468   6.205   6.336   7.973 -0.5364 -1.8248 -0.5679
 5303TIP3    H237469   6.240   6.340   7.825 -0.0594  2.4766 -0.4632
 5304TIP3   OH237470   5.067   6.347   3.192  0.1713 -0.3028  0.4254
 5304TIP3    H137471   5.110   6.383   3.114 -0.6275  0.5728  0.3801
 5304TIP3    H237472   5.115   6.266   3.210  0.2026 -0.6558 -1.1253
 5305TIP3   OH237473   3.046   1.104   1.977 -0.3878 -0.4178  0.3827
 5305TIP3    H137474   2.986   1.135   1.909 -1.8415 -1.3025  1.2104
 5305TIP3    H237475   3.125   1.080   1.930  0.0302  2.4425 -0.5464
 5306TIP3   OH237476   2.429   5.396   8.307 -0.2051  0.3606 -0.2324
 5306TIP3    H137477   2.495   5.417   8.241 -0.0931 -1.0033 -0.5905
 5306TIP3    H237478   2.461   5.316   8.349 -0.0599  1.4325  1.8128
 5307TIP3   OH237479   3.216   1.347   6.965 -0.1105 -0.1066  0.4056
 5307TIP3    H137480   3.227   1.428   6.915  0.1825  0.7234  1.7654
 5307TIP3    H237481   3.296   1.297   6.946 -0.7417 -0.5517 -1.2287
 5308TIP3   OH237482   2.066   2.808   0.246  0.3216 -0.4838 -0.0528
 5308TIP3    H137483   1.989   2.865   0.239 -0.1163 -0.8136  1.6590
 5308TIP3    H237484   2.053   2.743   0.177  0.0475  0.5721 -1.0259
 5309TIP3   OH237485   0.483   4.060   0.875  0.1534  0.5253  0.4140
 5309TIP3    H137486   0.466   4.147   0.838  1.8630  0.8032  0.2097
 5309TIP3    H237487   0.553   4.024   0.821 -0.6000 -1.0485  0.4282
 5310TIP3   OH237488   5.084   3.799   8.110 -0.3405  0.4335  0.3495
 5310TIP3    H137489   5.102   3.883   8.068  1.0705 -0.7017 -1.4801
 5310TIP3    H237490   4.997   3.810   8.148 -0.9302  2.1662 -1.3012
 5311TIP3   OH237491   0.038   2.705   7.776 -0.1321 -0.4334  0.2863
 5311TIP3    H137492   0.098   2.632   7.760 -0.1282 -0.8819  2.0984
 5311TIP3    H237493  -0.046   2.676   7.740  0.5856  0.0009 -1.8401
 5312TIP3   OH237494   3.161   4.538   8.366  0.1299  0.0697  0.5109
 5312TIP3    H137495   3.090   4.512   8.307  0.8195  1.6684 -1.1136
 5312TIP3    H237496   3.183   4.458   8.414  0.0110 -1.5372 -1.9396
 5313TIP3   OH237497   0.279   5.436   1.159 -0.5086 -0.0545 -0.4013
 5313TIP3    H137498   0.326   5.516   1.137 -0.5947 -0.1195 -0.8164
 5313TIP3    H237499   0.189   5.464   1.173 -0.2763  0.1415  0.8283
 5314TIP3   OH237500   1.480   5.334   0.893  0.0023  0.6913 -0.1184
 5314TIP3    H137501   1.391   5.369   0.885 -0.0444  0.4702 -0.5698
 5314TIP3    H237502   1.485   5.266   0.827  0.1060 -0.1445  0.7351
 5315TIP3   OH237503   3.519   0.016   2.503  0.5971 -0.5952  0.7325
 5315TIP3    H137504   3.491  -0.074   2.483  1.1056 -0.8630  1.2205
 5315TIP3    H237505   3.466   0.041   2.579 -0.9663  0.2403 -0.5664
 5316TIP3   OH237506   3.569   3.633   0.868  0.0106 -0.3530  0.4478
 5316TIP3    H137507   3.512   3.704   0.897  1.4752  1.0387  0.0407
 5316TIP3    H237508   3.633   3.623   0.938 -0.2979 -1.4449  0.5961
 5317TIP3   OH237509   3.814   0.486   7.309  0.0902 -0.0339 -0.3017
 5317TIP3    H137510   3.908   0.505   7.303  0.2913 -1.0260 -0.3734
 5317TIP3    H237511   3.801   0.411   7.252 -0.6013 -0.4246  0.3601
 5318TIP3   OH237512   2.548   2.964   1.625  0.6596  0.2842 -0.5288
 5318TIP3    H137513   2.501   2.960   1.709 -4.0771  0.9233 -2.7993
 5318TIP3    H237514   2.609   2.891   1.629  0.0040 -0.3026  3.0727
 5319TIP3   OH237515   0.565   0.255   8.348  0.5779 -0.0180 -0.2093
 5319TIP3    H137516   0.631   0.191   8.376  1.4591  0.1072 -1.8415
 5319TIP3    H237517   0.616   0.331   8.319 -0.3735  0.7092 -0.0385
 5320TIP3   OH237518   0.099   2.468   1.239 -0.0378 -0.3079  0.2823
 5320TIP3    H137519   0.181   2.497   1.277  0.6570 -1.6639 -0.1130
 5320TIP3    H237520   0.036   2.473   1.311  0.6423 -0.2721  0.8879
 5321TIP3   OH237521   1.229   4.091   8.494 -0.1696  0.0868 -0.2500
 5321TIP3    H137522   1.255   4.183   8.488  0.4146 -0.1390 -1.5984
 5321TIP3    H237523   1.228   4.061   8.403 -1.2793 -0.9955  0.0922
 5322TIP3   OH237524   0.790   5.560   0.776 -0.1200  0.6954 -0.1262
 5322TIP3    H137525   0.733   5.498   0.729 -0.2047  0.5563  0.1573
 5322TIP3    H237526   0.878   5.532   0.753 -0.0643 -1.1332  1.9476
 5323TIP3   OH237527   0.610   2.444   6.992  0.3993 -0.1917  0.7408
 5323TIP3    H137528   0.669   2.401   6.930  0.3808 -0.6231  1.0221
 5323TIP3    H237529   0.526   2.449   6.946  0.7116  0.6491  0.2455
 5324TIP3   OH237530   5.066   0.964   0.581 -0.0767 -0.1670 -0.3977
 5324TIP3    H137531   5.071   1.045   0.531  2.7882 -1.1076 -1.9016
 5324TIP3    H237532   5.012   0.906   0.527 -1.7082  0.4993  0.4401
 5325TIP3   OH237533   3.069   4.596   0.374  0.2013  0.1677  0.4426
 5325TIP3    H137534   3.106   4.524   0.426  1.1026  0.0747 -0.3147
 5325TIP3    H237535   2.987   4.561   0.340  0.3960 -0.3333  0.4804
 5326TIP3   OH237536   6.475   5.880   2.807 -0.1731  0.0653 -0.0062
 5326TIP3    H137537   6.556   5.881   2.858 -1.8724  2.9855  3.1487
 5326TIP3    H237538   6.433   5.797   2.830  0.8767 -0.4247  0.1900
 5327TIP3   OH237539   1.454   3.993   1.747  0.4707  0.0294  0.2410
 5327TIP3    H137540   1.360   4.011   1.738  0.5207 -0.4240 -1.8335
 5327TIP3    H237541   1.467   3.975   1.840 -2.0287 -2.6848  0.1840
 5328TIP3   OH237542   0.207   4.992   7.027  0.0129 -0.1648 -0.2749
 5328TIP3    H137543   0.273   4.976   6.959  0.4063 -1.6725  0.4195
 5328TIP3    H237544   0.145   5.053   6.986  0.4867 -0.6655 -1.8229
 5329TIP3   OH237545   5.747   2.332   0.938  0.0783 -0.4277  0.6887
 5329TIP3    H137546   5.740   2.402   1.003  0.9246 -0.5647  0.9408
 5329TIP3    H237547   5.820   2.279   0.968  1.2719  0.1847 -1.0054
 5330TIP3   OH237548   0.092   2.792   1.174 -0.5007  0.0153 -0.5668
 5330TIP3    H137549   0.073   2.753   1.259 -0.1239 -0.0016 -0.4884
 5330TIP3    H237550   0.090   2.718   1.113 -0.3687 -0.0367 -0.5090
 5331TIP3   OH237551   4.979   3.121   1.770 -0.3302 -0.6066 -0.5823
 5331TIP3    H137552   4.979   3.168   1.854 -0.8431 -1.8099  0.1255
 5331TIP3    H237553   5.063   3.076   1.768  0.0376  0.0938 -1.1214
 5332TIP3   OH237554   6.664   0.572   8.250  0.2027  0.3123 -0.1534
 5332TIP3    H137555   6.587   0.521   8.275 -0.4553  2.3103  2.2599
 5332TIP3    H237556   6.633   0.662   8.246  2.2650  1.0893  0.1000
 5333TIP3   OH237557   1.701   4.967   1.537  0.1445  0.2104 -0.8518
 5333TIP3    H137558   1.741   4.972   1.623 -0.2269  0.8587 -0.7139
 5333TIP3    H237559   1.609   4.948   1.554  0.0973  0.1910 -1.1168
 5334TIP3   OH237560   5.816   3.520   7.359 -0.3202  0.2351 -0.1440
 5334TIP3    H137561   5.875   3.533   7.284 -0.6687  2.3202 -0.0963
 5334TIP3    H237562   5.737   3.483   7.320 -1.5503  3.7836 -1.3309
 5335TIP3   OH237563   1.339   6.545   2.925 -0.3535 -0.2202 -0.0852
 5335TIP3    H137564   1.286   6.494   2.986 -0.4595  0.2981  0.2627
 5335TIP3    H237565   1.277   6.604   2.883 -0.0155  0.6104  0.5550
 5336TIP3   OH237566   2.447   5.062   1.934 -0.2281 -0.7344  0.3430
 5336TIP3    H137567   2.521   5.003   1.920 -0.7288 -1.0272 -1.2371
 5336TIP3    H237568   2.421   5.046   2.025  0.1672 -2.3688  0.2136
 5337TIP3   OH237569   6.506   0.226   1.104 -0.6353  0.3504  0.0075
 5337TIP3    H137570   6.481   0.191   1.189  0.4407 -1.4466 -0.3756
 5337TIP3    H237571   6.425   0.226   1.053 -0.8281 -0.8517  0.2858
 5338TIP3   OH237572   4.460   0.553   1.564 -0.2228  0.2821  0.3097
 5338TIP3    H137573   4.553   0.574   1.563 -0.5219  1.6958  0.4429
 5338TIP3    H237574   4.424   0.597   1.487 -0.5552 -1.4821 -0.5991
 5339TIP3   OH237575   2.082   2.549   1.110 -0.0528  0.1822  0.4832
 5339TIP3    H137576   2.057   2.642   1.108 -0.0948  0.1713  0.4917
 5339TIP3    H237577   2.093   2.529   1.202 -1.5274 -0.2107  0.6010
 5340TIP3   OH237578   2.232   6.108   2.993  0.3651 -0.0175 -0.1761
 5340TIP3    H137579   2.192   6.195   2.988  1.2308  0.5265  1.6629
 5340TIP3    H237580   2.184   6.064   3.064  0.8399 -0.5490 -0.1796
 5341TIP3   OH237581   3.940   3.957   8.317 -0.2845  0.0672 -0.5498
 5341TIP3    H137582   3.880   3.957   8.243 -0.4576 -0.2919 -0.4070
 5341TIP3    H237583   4.026   3.938   8.279 -0.5566 -1.3187 -0.5084
 5342TIP3   OH237584   0.559   1.554   2.381 -0.7174 -0.3000 -0.1035
 5342TIP3    H137585   0.654   1.549   2.373 -0.8306 -3.9173 -1.3520
 5342TIP3    H237586   0.544   1.591   2.468  1.7755  0.7224 -0.0181
 5343TIP3   OH237587   4.773   6.481   7.448 -0.2455  0.1370  0.3755
 5343TIP3    H137588   4.839   6.454   7.385  1.2304  0.2086  1.8252
 5343TIP3    H237589   4.727   6.554   7.406  0.3424 -0.1723 -0.8140
 5344TIP3   OH237590   5.733   3.249   1.426 -0.3839 -0.1649  0.1785
 5344TIP3    H137591   5.660   3.303   1.457  0.5810  1.4928 -0.3675
 5344TIP3    H237592   5.760   3.289   1.344  0.9178 -0.9751  0.1846
 5345TIP3   OH237593   0.885   0.189   0.293  0.1510 -0.0692 -0.1061
 5345TIP3    H137594   0.863   0.281   0.311  2.1226  0.8437 -1.9417
 5345TIP3    H237595   0.907   0.153   0.379 -1.1329  1.0052  0.7194
 5346TIP3   OH237596   5.064   5.545   0.546 -0.3479  0.1523 -0.1219
 5346TIP3    H137597   5.148   5.513   0.512 -0.8790 -1.3968 -0.0467
 5346TIP3    H237598   5.011   5.560   0.468 -0.1006  0.8781 -0.1568
 5347TIP3   OH237599   6.473   1.074   0.055  0.3562 -0.5208  0.4644
 5347TIP3    H137600   6.446   1.004   0.115  0.1813 -0.3758  0.5561
 5347TIP3    H237601   6.395   1.094   0.005  0.5998 -0.9022 -0.0809
 5348TIP3   OH237602   2.898   0.304   2.344  0.1471  0.2327  0.0756
 5348TIP3    H137603   2.932   0.216   2.363 -0.6529 -0.1259 -0.1239
 5348TIP3    H237604   2.857   0.332   2.425 -1.4527 -0.4535 -0.4656
 5349TIP3   OH237605   0.159   1.714   8.165 -0.4234  0.0098 -0.2142
 5349TIP3    H137606   0.139   1.639   8.221  0.4136  0.3782  0.6065
 5349TIP3    H237607   0.136   1.790   8.218  0.0013  0.3608 -0.5245
 5350TIP3   OH237608   4.648   4.896   7.853  0.2888  0.0451  0.0817
 5350TIP3    H137609   4.650   4.838   7.929 -0.6628  1.2064  1.0174
 5350TIP3    H237610   4.712   4.964   7.873 -0.5659  0.8212  0.2513
 5351TIP3   OH237611   6.307   0.677   1.991  0.4008  0.1544 -0.3626
 5351TIP3    H137612   6.255   0.622   1.932  0.6727  0.7835 -1.2096
 5351TIP3    H237613   6.279   0.766   1.971  2.2393  0.5747 -1.3295
 5352TIP3   OH237614   6.707   1.654   1.655 -0.8516 -0.4347  0.6086
 5352TIP3    H137615   6.698   1.560   1.667 -0.2602 -0.3859  1.6250
 5352TIP3    H237616   6.739   1.665   1.566 -0.0453 -1.2632  0.7814
 5353TIP3   OH237617   6.712   5.347   0.832 -0.9766  0.5302  0.0457
 5353TIP3    H137618   6.723   5.402   0.910 -0.4226 -1.0895  1.1695
 5353TIP3    H237619   6.631   5.299   0.848 -1.2010  0.6554 -0.6880
 5354TIP3   OH237620   5.962   5.938   2.761 -0.4203 -0.5385 -0.6362
 5354TIP3    H137621   6.038   5.994   2.745 -0.2155 -0.8702 -0.8328
 5354TIP3    H237622   5.917   5.979   2.835 -0.3454 -0.0411 -0.8582
 5355TIP3   OH237623   6.577   2.555   7.181  0.3099 -1.0415  0.3250
 5355TIP3    H137624   6.589   2.608   7.102  1.0756 -3.5778 -1.4161
 5355TIP3    H237625   6.520   2.607   7.237  2.3250  2.2836 -0.4486
 5356TIP3   OH237626   0.880   3.749   1.970 -0.3098  0.0197  0.2900
 5356TIP3    H137627   0.921   3.813   2.029 -0.7996  0.1291  0.5189
 5356TIP3    H237628   0.948   3.728   1.906  0.4412 -0.5393  1.2278
 5357TIP3   OH237629   5.615   0.709   1.717  0.2723  0.4504 -0.6441
 5357TIP3    H137630   5.527   0.746   1.717 -0.7482 -1.8312 -1.4698
 5357TIP3    H237631   5.622   0.666   1.802  0.4775  0.3492 -0.7128
 5358TIP3   OH237632   4.764   2.427   1.724  0.6952  0.1143  0.2986
 5358TIP3    H137633   4.809   2.471   1.652  2.0802  0.4726  1.3344
 5358TIP3    H237634   4.711   2.496   1.765  1.3003  0.3535  0.6945
 5359TIP3   OH237635   1.002   3.047   0.892  0.0393 -0.2154  0.5398
 5359TIP3    H137636   0.958   3.012   0.970 -0.1066 -0.4139  0.3678
 5359TIP3    H237637   1.076   2.987   0.878  2.4786  1.9687  2.8500
 5360TIP3   OH237638   0.354   0.881   0.644 -0.4547  0.3952 -0.1287
 5360TIP3    H137639   0.344   0.786   0.650 -1.3924  0.3573 -1.7374
 5360TIP3    H237640   0.366   0.898   0.550  0.0515  1.8429  0.1694
 5361TIP3   OH237641   5.273   0.931   2.043  0.0096  0.2539 -0.2244
 5361TIP3    H137642   5.368   0.926   2.028  0.3710 -0.6753  1.9781
 5361TIP3    H237643   5.257   0.869   2.114 -2.0319  1.4481  0.4418
 5362TIP3   OH237644   2.397   6.900   7.496 -0.2795  0.1309 -0.0824
 5362TIP3    H137645   2.412   6.979   7.548 -1.9292  0.5162 -0.1378
 5362TIP3    H237646   2.448   6.833   7.540  1.2583  1.2362 -0.1004
 5363TIP3   OH237647   6.847   6.455   2.349 -0.1277 -0.0089 -0.5400
 5363TIP3    H137648   6.843   6.548   2.326 -0.3050  1.3411  3.9225
 5363TIP3    H237649   6.757   6.434   2.377  0.6362 -0.3443  1.8881
 5364TIP3   OH237650   5.076   1.508   2.489 -0.0245  0.2156 -0.3212
 5364TIP3    H137651   5.052   1.564   2.415  1.3050  0.6906 -0.4197
 5364TIP3    H237652   5.051   1.557   2.567 -1.4462 -0.2926 -0.4216
 5365TIP3   OH237653   5.091   5.224   0.196 -0.0635 -0.7550 -0.1166
 5365TIP3    H137654   5.152   5.258   0.261 -1.1070  1.2416 -0.1062
 5365TIP3    H237655   5.109   5.275   0.117 -1.6629 -0.1137 -0.1174
 5366TIP3   OH237656   4.492   6.840   8.358 -0.1257  0.0404  0.0181
 5366TIP3    H137657   4.548   6.763   8.365  0.5416  0.6258  2.4887
 5366TIP3    H237658   4.548   6.912   8.388 -1.4194  1.0968 -0.0113
 5367TIP3   OH237659   2.190   5.193   1.060 -0.0702 -0.0604 -0.3078
 5367TIP3    H137660   2.138   5.150   0.992 -0.2975 -2.0076  0.9957
 5367TIP3    H237661   2.208   5.123   1.124 -0.4583  1.8240  1.9884
 5368TIP3   OH237662   1.262   5.207   2.735  0.2710 -0.3648  0.3939
 5368TIP3    H137663   1.200   5.250   2.794  0.5362 -0.2152  0.5631
 5368TIP3    H237664   1.224   5.219   2.648  0.4961  0.4967  0.3984
 5369TIP3   OH237665   6.577   6.636   0.256  0.2313  0.0874 -0.3924
 5369TIP3    H137666   6.656   6.686   0.238  2.5495 -3.4337 -0.9011
 5369TIP3    H237667   6.523   6.648   0.178  3.1361 -2.3413 -3.0062
 5370TIP3   OH237668   3.130   2.124   1.931  0.5687  0.1508  0.1816
 5370TIP3    H137669   3.100   2.165   2.012 -0.9697  0.0047 -0.2745
 5370TIP3    H237670   3.130   2.195   1.867 -0.3921 -0.1757 -0.1968
 5371TIP3   OH237671   5.549   1.600   0.335 -0.3107 -0.2314  0.1657
 5371TIP3    H137672   5.510   1.661   0.397 -1.7440 -1.6232  0.7015
 5371TIP3    H237673   5.632   1.641   0.310 -0.5987  1.2720  1.5007
 5372TIP3   OH237674   5.703   6.088   7.895  0.0579 -0.5455 -0.3775
 5372TIP3    H137675   5.683   5.998   7.868 -0.3446 -1.1675  1.7183
 5372TIP3    H237676   5.718   6.081   7.990 -0.0871  1.6267 -0.1427
 5373TIP3   OH237677   5.970   2.306   0.694 -0.0894 -0.3004  0.6868
 5373TIP3    H137678   5.931   2.287   0.608  0.8360  1.3577 -0.1517
 5373TIP3    H237679   5.944   2.232   0.749 -3.2569  0.0056 -0.1745
 5374TIP3   OH237680   4.566   6.021   2.257  0.5977 -0.0414 -0.2170
 5374TIP3    H137681   4.590   6.049   2.345  0.8144 -0.4763 -0.1377
 5374TIP3    H237682   4.480   5.981   2.267  0.4204  0.3163 -0.2816
 5375TIP3   OH237683   6.895   1.004   7.091  0.8097 -0.1359 -0.3867
 5375TIP3    H137684   6.842   0.928   7.117 -0.6330  1.1363  0.6449
 5375TIP3    H237685   6.840   1.051   7.028  1.8163 -0.1005 -1.2519
 5376TIP3   OH237686   0.704   5.539   8.042 -0.1047  0.5654  0.2705
 5376TIP3    H137687   0.631   5.586   8.003 -0.6435 -0.3967  0.0697
 5376TIP3    H237688   0.697   5.450   8.006 -0.7737 -0.4562  2.6493
 5377TIP3   OH237689   2.278   4.719   0.714 -0.0657 -0.4109  0.1034
 5377TIP3    H137690   2.198   4.753   0.754  0.5289  0.5933  0.4737
 5377TIP3    H237691   2.315   4.661   0.780  0.5324  0.6754  0.7481
 5378TIP3   OH237692   0.821   0.281   0.928 -0.1009 -0.2935  0.0155
 5378TIP3    H137693   0.758   0.318   0.990  0.3168 -1.5444  1.2294
 5378TIP3    H237694   0.767   0.229   0.868 -0.3242 -0.6921  0.5496
 5379TIP3   OH237695   6.864   2.873   8.286 -0.3914  0.8758  0.5029
 5379TIP3    H137696   6.954   2.894   8.263 -0.9611  2.1730 -0.7013
 5379TIP3    H237697   6.827   2.835   8.206 -1.1970  1.3326  0.6478
 5380TIP3   OH237698   0.024   5.202   0.166  0.8450  0.0135 -0.0270
 5380TIP3    H137699   0.081   5.228   0.094 -1.5621  1.1813 -1.6107
 5380TIP3    H237700  -0.007   5.115   0.142 -0.0049  0.4270 -0.4557
 5381TIP3   OH237701   3.880   0.000   1.907 -0.0019 -0.6635  1.1426
 5381TIP3    H137702   3.813  -0.004   1.839  0.2251 -0.6539  0.9174
 5381TIP3    H237703   3.920  -0.087   1.907  0.2544 -0.5469  1.0028
 5382TIP3   OH237704   1.204   1.275   0.320  0.2982  0.2535 -0.4397
 5382TIP3    H137705   1.299   1.284   0.306  0.2526  1.3612 -0.1176
 5382TIP3    H237706   1.197   1.217   0.396  0.7422  0.8675  0.0764
 5383TIP3   OH237707   3.171   2.607   7.036 -0.4222 -0.6248 -0.0564
 5383TIP3    H137708   3.104   2.674   7.046 -2.0072 -2.1680 -0.0403
 5383TIP3    H237709   3.249   2.656   7.009 -0.5327  1.6467  3.1992
 5384TIP3   OH237710   5.492   0.044   7.735 -0.1655 -0.2074  0.4117
 5384TIP3    H137711   5.398   0.027   7.739 -0.1868 -0.4937 -0.9493
 5384TIP3    H237712   5.533  -0.040   7.755 -0.1921 -0.1366  0.7766
 5385TIP3   OH237713   3.317   2.347   7.534  0.4259  0.0917  0.0539
 5385TIP3    H137714   3.329   2.256   7.508 -1.7986 -0.4260  0.5988
 5385TIP3    H237715   3.252   2.381   7.472  0.2077  0.8846  0.6961
 5386TIP3   OH237716   0.048   6.585   2.982 -0.4888  0.1802 -0.9210
 5386TIP3    H137717  -0.012   6.633   3.040  1.1337 -0.8432  1.7550
 5386TIP3    H237718   0.008   6.499   2.973 -0.2045 -0.0114 -0.3925
 5387TIP3   OH237719   3.459   1.795   6.815  0.4008  0.0202 -0.0852
 5387TIP3    H137720   3.476   1.701   6.814  0.1158 -0.0756 -2.9782
 5387TIP3    H237721   3.533   1.833   6.768  0.5261  1.2891  1.0733
 5388TIP3   OH237722   5.654   1.454   1.840 -0.1367 -0.3122  0.4323
 5388TIP3    H137723   5.595   1.426   1.770 -1.7524 -0.6316  1.8881
 5388TIP3    H237724   5.597   1.490   1.907  1.4490  0.7294  1.2796
 5389TIP3   OH237725   2.202   2.456   1.988  0.3444  0.0065  0.4717
 5389TIP3    H137726   2.204   2.397   2.063  1.1590  0.4902  0.8431
 5389TIP3    H237727   2.113   2.492   1.989 -0.8659 -2.6580 -0.9470
 5390TIP3   OH237728   3.173   2.022   0.344  0.2957  0.3706  0.4395
 5390TIP3    H137729   3.082   1.993   0.343 -0.1401  1.6412  1.1262
 5390TIP3    H237730   3.175   2.095   0.283  1.2977 -0.8166 -1.0051
 5391TIP3   OH237731   0.085   4.078   0.460 -0.5815 -0.0407  0.8042
 5391TIP3    H137732   0.005   4.060   0.510 -1.5295  2.7767  0.4445
 5391TIP3    H237733   0.143   4.122   0.522 -0.2329  0.0169  0.4422
 5392TIP3   OH237734   5.286   1.870   1.324  0.2520 -0.6294  0.0227
 5392TIP3    H137735   5.277   1.791   1.378 -1.9143 -0.7861 -0.4660
 5392TIP3    H237736   5.262   1.942   1.383 -1.8439 -0.7755 -0.5710
 5393TIP3   OH237737   0.269   5.129   1.532  0.1814  0.3221 -0.1306
 5393TIP3    H137738   0.237   5.217   1.552 -0.0609  0.6755 -1.9009
 5393TIP3    H237739   0.347   5.119   1.586 -0.7437  0.9469  1.3663
 5394TIP3   OH237740   2.371   6.086   1.986 -0.4398  0.1569  0.8488
 5394TIP3    H137741   2.282   6.099   1.953 -0.5442  0.2416  1.1531
 5394TIP3    H237742   2.399   6.174   2.012 -0.3045  0.1149  0.8427
 5395TIP3   OH237743   5.091   2.305   0.221 -0.2833 -0.1739 -0.7718
 5395TIP3    H137744   5.174   2.258   0.228 -0.7476 -1.3443 -2.4285
 5395TIP3    H237745   5.106   2.370   0.152  0.2022  1.8735  1.1646
 5396TIP3   OH237746   2.424   4.996   7.361  0.2478  0.2698  0.2002
 5396TIP3    H137747   2.379   4.931   7.307  2.3341 -1.7432  0.7137
 5396TIP3    H237748   2.456   5.061   7.298  0.3997 -0.6347 -0.6887
 5397TIP3   OH237749   6.815   5.340   0.370 -0.2355 -0.2756 -0.1803
 5397TIP3    H137750   6.811   5.432   0.341 -3.3664 -1.0961 -3.0575
 5397TIP3    H237751   6.890   5.304   0.323 -0.1893  0.3771 -0.6340
 5398TIP3   OH237752   5.405   0.110   1.460 -0.2043  0.1017 -0.1266
 5398TIP3    H137753   5.428   0.080   1.548 -0.5858  1.6684  0.5445
 5398TIP3    H237754   5.477   0.081   1.404 -0.8288 -2.5246  0.3248
 5399TIP3   OH237755   2.142   2.069   0.987 -0.1773  0.2351  0.3477
 5399TIP3    H137756   2.088   2.134   1.033  0.0725  0.3908  0.4220
 5399TIP3    H237757   2.141   2.098   0.896 -0.0289  0.3679  0.3885
 5400TIP3   OH237758   3.720   0.217   8.073 -0.2133 -0.0312  0.1811
 5400TIP3    H137759   3.784   0.285   8.050 -1.5857  1.8968  1.7644
 5400TIP3    H237760   3.669   0.204   7.993  3.1089 -3.0041 -1.7894
 5401TIP3   OH237761   2.683   1.652   7.147  0.5410 -0.5258 -0.8568
 5401TIP3    H137762   2.764   1.685   7.108 -0.4951  1.1854 -1.6707
 5401TIP3    H237763   2.707   1.566   7.183  3.0444  0.5273  0.1746
 5402TIP3   OH237764   1.241   2.373   0.717 -0.0899  0.3512 -0.4853
 5402TIP3    H137765   1.193   2.293   0.695  0.2110 -0.8484  2.7301
 5402TIP3    H237766   1.293   2.392   0.638  0.3445 -3.0343 -1.1809
 5403TIP3   OH237767   6.073   1.336   1.703 -0.2416  0.0066  0.0057
 5403TIP3    H137768   5.991   1.287   1.700  1.8053 -3.7779 -0.8483
 5403TIP3    H237769   6.103   1.326   1.793  1.6296 -3.4275 -0.7844
 5404TIP3   OH237770   6.235   4.850   6.499  0.3518  0.1787  0.3935
 5404TIP3    H137771   6.326   4.873   6.478  0.4880 -0.8073 -0.1540
 5404TIP3    H237772   6.228   4.758   6.477 -0.3518 -0.1738  1.9711
 5405TIP3   OH237773   3.763   3.475   8.502 -0.4078 -0.2383 -0.2923
 5405TIP3    H137774   3.762   3.473   8.406 -0.8546 -1.7755 -0.2787
 5405TIP3    H237775   3.672   3.490   8.527 -0.3083  0.0579 -0.1074
 5406TIP3   OH237776   0.021   6.311   2.629 -0.0758  0.5327 -0.8378
 5406TIP3    H137777  -0.035   6.343   2.558 -0.2385  0.5297 -0.7130
 5406TIP3    H237778  -0.030   6.240   2.669  0.4941 -0.2126 -1.4243
 5407TIP3   OH237779   6.235   1.088   1.213  0.3650 -0.4008 -0.3347
 5407TIP3    H137780   6.218   1.060   1.302  0.1536  0.2178 -0.1771
 5407TIP3    H237781   6.200   1.018   1.158 -1.0593 -0.0005  0.0199
 5408TIP3   OH237782   5.954   6.645   0.183  0.4047 -0.0337  0.5732
 5408TIP3    H137783   6.030   6.625   0.237  0.7800 -1.2437 -0.3291
 5408TIP3    H237784   5.991   6.676   0.100  0.0356 -1.9787 -0.3999
 5409TIP3   OH237785   0.428   3.322   0.218  0.4158 -0.3577  0.6871
 5409TIP3    H137786   0.386   3.317   0.304  0.0232 -2.7681  0.4223
 5409TIP3    H237787   0.442   3.231   0.192  0.6570  0.2879 -1.7502
 5410TIP3   OH237788   6.459   5.662   8.268  0.4019  0.8185 -0.4868
 5410TIP3    H137789   6.420   5.610   8.198 -0.1784  0.4732  0.0801
 5410TIP3    H237790   6.553   5.659   8.250  0.3228  0.0867 -0.8132
 5411TIP3   OH237791   2.256   5.341   6.315  0.1626 -0.3877 -0.2714
 5411TIP3    H137792   2.170   5.374   6.341  0.4247  0.1447 -0.0681
 5411TIP3    H237793   2.314   5.416   6.323  0.9976 -1.1534  1.2461
 5412TIP3   OH237794   1.201   5.657   0.385  0.0083 -0.0739 -1.1973
 5412TIP3    H137795   1.108   5.665   0.365  0.0924  1.1124 -1.1926
 5412TIP3    H237796   1.238   5.610   0.310 -0.4553  0.1464 -1.5714
 5413TIP3   OH237797   4.152   5.956   1.296  0.4900 -0.3873 -0.4855
 5413TIP3    H137798   4.219   6.007   1.342  0.7340 -0.0350 -1.2030
 5413TIP3    H237799   4.070   6.000   1.318  0.7585  0.7001 -1.5597
 5414TIP3   OH237800   6.806   3.658   0.786  0.2222 -0.6939 -0.1034
 5414TIP3    H137801   6.779   3.697   0.703 -0.8721 -0.1752  0.4760
 5414TIP3    H237802   6.873   3.593   0.762  0.1184 -0.3582 -1.3477
 5415TIP3   OH237803   5.817   4.813   1.184  0.5708  0.1464  0.3183
 5415TIP3    H137804   5.807   4.801   1.090  2.4407 -2.8465  0.3648
 5415TIP3    H237805   5.728   4.822   1.217 -0.1919  0.0247 -1.5940
 5416TIP3   OH237806   1.980   0.568   1.002 -0.7587 -0.2543 -0.4167
 5416TIP3    H137807   1.974   0.484   1.047 -0.9999 -0.5548 -0.9961
 5416TIP3    H237808   1.943   0.552   0.915 -1.0976  0.5296 -0.4278
 5417TIP3   OH237809   1.694   3.829   1.669 -0.1512  0.4748 -0.1153
 5417TIP3    H137810   1.612   3.805   1.627  0.0078  1.3669 -0.9601
 5417TIP3    H237811   1.701   3.924   1.656  1.3334  0.3141 -0.6586
 5418TIP3   OH237812   4.102   6.712   7.776  0.2088  0.1059 -0.0316
 5418TIP3    H137813   4.080   6.675   7.691  0.0366  0.7965 -0.2966
 5418TIP3    H237814   4.020   6.750   7.809  0.7454  1.9126 -0.6332
 5419TIP3   OH237815   6.591   0.823   8.429 -0.4967  0.5217  0.3687
 5419TIP3    H137816   6.553   0.898   8.474 -1.4529 -0.3349  1.0621
 5419TIP3    H237817   6.572   0.749   8.487  1.0265 -0.1538  0.0389
 5420TIP3   OH237818   6.350   6.811   0.993 -0.1182 -0.2462  0.1921
 5420TIP3    H137819   6.291   6.861   1.050 -0.6670  0.2739 -0.7942
 5420TIP3    H237820   6.436   6.849   1.009 -0.0657 -0.8612  1.4832
 5421TIP3   OH237821   5.137   3.893   0.916  0.1878  1.0750  0.6952
 5421TIP3    H137822   5.205   3.943   0.962 -0.7116  0.0963  3.2976
 5421TIP3    H237823   5.136   3.809   0.961 -0.7246 -0.0373 -1.2954
 5422TIP3   OH237824   2.299   0.384   7.046  1.1198 -0.0346  0.2339
 5422TIP3    H137825   2.309   0.471   7.008  0.1510 -0.1504 -0.3252
 5422TIP3    H237826   2.237   0.339   6.988  1.2199 -0.9268  0.7907
 5423TIP3   OH237827   1.492   1.956   1.272  0.5612  0.3915  0.7427
 5423TIP3    H137828   1.583   1.957   1.244 -0.5894 -0.7182 -3.8666
 5423TIP3    H237829   1.477   1.867   1.304  0.8639  0.2981  0.6209
 5424TIP3   OH237830   0.133   1.831   7.540 -0.5246  0.1868 -0.7023
 5424TIP3    H137831   0.099   1.808   7.454 -0.8589 -1.4798 -0.1654
 5424TIP3    H237832   0.102   1.761   7.597  1.4858  0.1013  0.3535
 5425TIP3   OH237833   5.969   0.143   6.631  0.2421  0.0231  0.3503
 5425TIP3    H137834   6.010   0.078   6.689 -0.4221  0.2087  1.0459
 5425TIP3    H237835   5.876   0.140   6.653  0.1294  0.8534  0.0401
 5426TIP3   OH237836   6.817   2.349   7.302 -0.0223 -0.0253 -0.1012
 5426TIP3    H137837   6.836   2.426   7.249  0.6311  0.1861  0.4189
 5426TIP3    H237838   6.904   2.315   7.325 -0.2869  0.0440  1.0411
 5427TIP3   OH237839   5.747   3.964   7.071 -0.0625  0.1722 -0.5850
 5427TIP3    H137840   5.799   3.885   7.088  0.1156  0.0905 -1.4570
 5427TIP3    H237841   5.774   4.026   7.139 -0.3562 -0.5781  0.2399
 5428TIP3   OH237842   2.312   5.935   7.334  0.1932 -0.5547 -0.0281
 5428TIP3    H137843   2.290   5.874   7.405  0.2806  0.1653  0.6418
 5428TIP3    H237844   2.327   5.880   7.258  0.4525 -1.3817  0.6078
 5429TIP3   OH237845   2.323   6.514   7.410 -0.1558  0.6390  0.2180
 5429TIP3    H137846   2.265   6.563   7.469 -0.8256 -2.5609  2.5270
 5429TIP3    H237847   2.408   6.516   7.454 -1.0842 -3.4513  2.7899
 5430TIP3   OH237848   0.033   6.301   0.323 -0.0293  0.2896 -0.3193
 5430TIP3    H137849   0.120   6.335   0.345 -0.2680  0.1922  0.8529
 5430TIP3    H237850   0.047   6.207   0.312 -0.3008 -0.0751  1.9250
 5431TIP3   OH237851   5.442   0.482   8.025 -0.3827 -0.0955  0.0879
 5431TIP3    H137852   5.364   0.510   8.073 -0.4204 -0.9439  0.5520
 5431TIP3    H237853   5.408   0.422   7.958 -0.3317  1.0768 -1.0198
 5432TIP3   OH237854   3.928   2.400   1.838 -0.8711 -0.3304 -0.6999
 5432TIP3    H137855   3.975   2.390   1.922 -1.0290 -0.0139 -0.5741
 5432TIP3    H237856   3.836   2.394   1.862 -0.8937 -1.9480 -1.0725
 5433TIP3   OH237857   0.949   5.400   7.879  0.3891 -0.2319 -0.3823
 5433TIP3    H137858   0.967   5.313   7.913 -2.1799 -0.6338  0.1058
 5433TIP3    H237859   0.854   5.409   7.881  0.3551  1.5051 -3.1210
 5434TIP3   OH237860   4.367   1.806   1.449 -0.2123  0.5886 -0.6183
 5434TIP3    H137861   4.445   1.762   1.483 -1.2757 -0.1387  1.0126
 5434TIP3    H237862   4.342   1.867   1.517 -1.1039  0.7764 -1.0960
 5435TIP3   OH237863   3.780   3.707   8.031 -0.2891  0.2887  0.5285
 5435TIP3    H137864   3.843   3.660   7.977 -1.1014 -0.3199  0.0784
 5435TIP3    H237865   3.706   3.647   8.039 -0.8694  1.0372  0.9151
 5436TIP3   OH237866   2.592   4.187   0.853  0.1887  0.0912  0.5915
 5436TIP3    H137867   2.635   4.135   0.785 -0.0005 -0.6478  1.0236
 5436TIP3    H237868   2.653   4.185   0.927  0.6804  1.4133  0.2542
 5437TIP3   OH237869   6.356   6.385   8.136  0.4224 -0.0269  0.0581
 5437TIP3    H137870   6.300   6.362   8.210  1.6504 -0.0919  0.9954
 5437TIP3    H237871   6.440   6.344   8.156  0.6056 -0.6095 -1.7069
 5438TIP3   OH237872   2.208   2.305   7.797  0.2919 -0.3434 -0.6022
 5438TIP3    H137873   2.280   2.312   7.860  0.1577  0.4930 -0.5413
 5438TIP3    H237874   2.158   2.229   7.827  0.0177  0.2606  0.5232
 5439TIP3   OH237875   5.645   0.688   8.034 -0.3190  0.0877 -0.5492
 5439TIP3    H137876   5.624   0.772   7.995 -1.5838 -0.0163 -0.1461
 5439TIP3    H237877   5.571   0.632   8.013  0.0570 -0.6453 -0.0003
 5440TIP3   OH237878   5.393   1.202   8.306  0.0138  0.1899 -0.5962
 5440TIP3    H137879   5.428   1.160   8.384  1.0810 -0.2065 -1.2682
 5440TIP3    H237880   5.468   1.211   8.247 -0.3852  2.1117 -0.8935
 5441TIP3   OH237881   2.730   5.400   8.355 -0.0718  0.1097 -0.0612
 5441TIP3    H137882   2.731   5.495   8.357  2.1282  0.1477 -0.2332
 5441TIP3    H237883   2.735   5.373   8.447  2.1499  0.2445 -0.1026
 5442TIP3   OH237884   4.579   6.346   0.485  0.2085  0.3344  0.2593
 5442TIP3    H137885   4.530   6.266   0.465 -1.8640  1.6871 -0.4063
 5442TIP3    H237886   4.660   6.315   0.526 -1.2564 -2.0394  1.5796
 5443TIP3   OH237887   6.246   6.061   7.443 -0.1161 -0.2687 -0.5969
 5443TIP3    H137888   6.271   6.099   7.359  0.4764 -0.0148 -0.3111
 5443TIP3    H237889   6.163   6.104   7.465 -0.2865 -0.3567 -1.0611
 5444TIP3   OH237890   1.055   3.091   7.349  0.2052 -0.1956 -0.0923
 5444TIP3    H137891   1.076   3.020   7.409 -1.3488 -0.2483  0.4408
 5444TIP3    H237892   1.005   3.050   7.279  2.0662 -0.1414 -1.5152
 5445TIP3   OH237893   3.224   6.184   2.580  0.5928 -0.3571 -0.5087
 5445TIP3    H137894   3.267   6.101   2.557  0.6094 -0.8355  1.1121
 5445TIP3    H237895   3.296   6.244   2.598  0.6355 -0.8757  1.2327
 5446TIP3   OH237896   6.181   6.626   2.088 -0.0331  0.3005  0.2033
 5446TIP3    H137897   6.130   6.547   2.105 -0.5397  0.6053  0.1051
 5446TIP3    H237898   6.229   6.607   2.008 -2.1123  1.0193 -1.2961
 5447TIP3   OH237899   6.691   5.516   7.639 -0.2919 -0.4020  0.5107
 5447TIP3    H137900   6.614   5.483   7.686 -1.2149 -0.1905 -0.7889
 5447TIP3    H237901   6.706   5.603   7.675  1.1655 -1.5242  2.8257
 5448TIP3   OH237902   3.077   3.398   0.787 -0.3134  0.2298  0.1676
 5448TIP3    H137903   3.171   3.412   0.783 -0.5073  1.3574 -1.2613
 5448TIP3    H237904   3.041   3.455   0.719 -1.9065 -1.2765 -0.3100
 5449TIP3   OH237905   5.804   5.462   1.134 -0.0039 -0.6246 -0.0901
 5449TIP3    H137906   5.759   5.377   1.137 -0.5433 -0.3139  0.9017
 5449TIP3    H237907   5.745   5.523   1.177  0.1052  0.4095 -1.3473
 5450TIP3   OH237908   2.857   2.633   1.850  0.0616  0.1923  0.3467
 5450TIP3    H137909   2.917   2.626   1.924 -1.0126 -1.6312  1.0990
 5450TIP3    H237910   2.770   2.619   1.887 -0.7908  1.8865 -0.8626
 5451TIP3   OH237911   5.805   1.684   0.240 -0.2600 -0.2569  0.0788
 5451TIP3    H137912   5.814   1.740   0.163  0.6238  1.9032  1.6594
 5451TIP3    H237913   5.863   1.610   0.223  1.6088  1.2551 -0.4396
 5452TIP3   OH237914   0.578   4.177   1.554 -0.2487  0.2884  0.5564
 5452TIP3    H137915   0.501   4.156   1.606 -1.9129  1.0481 -1.4987
 5452TIP3    H237916   0.569   4.270   1.533  0.8088  0.2107 -0.3526
 5453TIP3   OH237917   3.483   2.936   1.139  0.2431  0.0191  0.1833
 5453TIP3    H137918   3.530   2.939   1.056  0.9127  1.6704  0.5866
 5453TIP3    H237919   3.548   2.905   1.202 -0.1862 -0.9651  0.1629
 5454TIP3   OH237920   5.196   5.314   7.331  0.6166 -0.3084 -0.0034
 5454TIP3    H137921   5.266   5.373   7.303 -1.2521  1.6843 -0.7421
 5454TIP3    H237922   5.158   5.282   7.249 -0.9910  0.7282  0.3049
 5455TIP3   OH237923   4.252   5.415   1.398  0.0168  0.0144  0.3109
 5455TIP3    H137924   4.332   5.391   1.443 -0.4562 -1.9683  0.1685
 5455TIP3    H237925   4.183   5.366   1.442 -1.2783  2.2249  0.9032
 5456TIP3   OH237926   3.759   2.586   7.423  0.2292  0.2912 -0.1656
 5456TIP3    H137927   3.688   2.596   7.359 -1.7013  0.5339  1.9015
 5456TIP3    H237928   3.724   2.523   7.487  1.8477  0.5046  0.9672
 5457TIP3   OH237929   4.671   6.291   6.926  0.2079 -0.1250  0.7077
 5457TIP3    H137930   4.589   6.274   6.881  0.0252 -0.9441  1.3299
 5457TIP3    H237931   4.687   6.385   6.912 -1.3355  0.2790  1.4072
 5458TIP3   OH237932   0.898   6.146   2.340  0.2457 -0.2829 -0.4237
 5458TIP3    H137933   0.927   6.228   2.301 -2.6987  0.7676 -0.6218
 5458TIP3    H237934   0.871   6.091   2.266  0.5601 -0.7704 -0.1875
 5459TIP3   OH237935   1.694   2.043   6.661 -0.5283  0.6143  0.2229
 5459TIP3    H137936   1.732   2.099   6.594  2.2821 -0.4352  0.7607
 5459TIP3    H237937   1.700   1.955   6.624  0.1725  0.1329  1.4042
 5460TIP3   OH237938   4.764   3.031   7.156 -0.4181 -0.0685  0.1365
 5460TIP3    H137939   4.734   3.116   7.126  0.4390 -0.2006 -1.1677
 5460TIP3    H237940   4.693   2.971   7.136 -1.1224  0.3425  1.2717
 5461TIP3   OH237941   4.441   4.973   8.238 -0.3013  0.2799  0.0863
 5461TIP3    H137942   4.415   4.937   8.154 -1.6042 -0.0665  0.6222
 5461TIP3    H237943   4.375   4.943   8.300 -0.9419  2.7722  0.7430
 5462TIP3   OH237944   5.391   5.001   0.030 -0.0446  0.2487 -0.1658
 5462TIP3    H137945   5.306   4.974   0.065  0.3207 -2.2627 -0.9895
 5462TIP3    H237946   5.436   5.040   0.105  0.1209 -3.4713  1.9206
 5463TIP3   OH237947   3.173   2.424   2.127  0.5306 -0.1441 -0.3535
 5463TIP3    H137948   3.131   2.348   2.165  0.0282  0.6458  0.7167
 5463TIP3    H237949   3.248   2.442   2.184  0.0489  0.7638  0.0197
 5464TIP3   OH237950   4.614   1.141   6.918  0.0281 -0.0196  0.4902
 5464TIP3    H137951   4.557   1.065   6.912 -1.1519  0.6939  1.8631
 5464TIP3    H237952   4.691   1.110   6.964  0.1616 -0.6910 -0.1790
 5465TIP3   OH237953   4.400   0.929   1.164 -0.2325  0.3912  0.2785
 5465TIP3    H137954   4.379   1.007   1.112 -2.8587 -1.6148 -1.9925
 5465TIP3    H237955   4.468   0.884   1.113 -0.5231 -0.0194  0.2517
 5466TIP3   OH237956   4.837   6.848   1.360 -0.3830  0.0088  0.4838
 5466TIP3    H137957   4.793   6.927   1.391  2.5246  1.3126  1.6579
 5466TIP3    H237958   4.847   6.861   1.266  0.4829  1.2784  0.7370
 5467TIP3   OH237959   4.340   2.624   1.676  0.0681  0.1501  0.1873
 5467TIP3    H137960   4.331   2.535   1.641 -1.8303  0.4563 -0.2010
 5467TIP3    H237961   4.431   2.628   1.707  0.9286 -1.1256 -1.9415
 5468TIP3   OH237962   1.860   4.894   0.927 -0.2509 -0.2563  0.5431
 5468TIP3    H137963   1.779   4.896   0.876  0.2449  0.3658 -0.2421
 5468TIP3    H237964   1.835   4.853   1.010 -1.0602 -1.3595 -0.2108
 5469TIP3   OH237965   0.775   2.673   8.110 -0.6351  0.3124 -0.0288
 5469TIP3    H137966   0.719   2.739   8.069  0.7712 -0.2494 -3.2247
 5469TIP3    H237967   0.853   2.672   8.054  2.2919  0.4907  3.6853
 5470TIP3   OH237968   4.753   1.517   8.111 -0.3704  0.7540  0.2608
 5470TIP3    H137969   4.766   1.423   8.106 -2.2071  0.5420 -2.0906
 5470TIP3    H237970   4.690   1.529   8.182 -2.1878 -0.1186 -1.1293
 5471TIP3   OH237971   3.893   4.920   7.646 -0.0556 -0.1658  0.1470
 5471TIP3    H137972   3.929   4.996   7.691 -0.0711 -0.6749  1.0492
 5471TIP3    H237973   3.969   4.870   7.617 -0.0238  0.8439 -1.6452
 5472TIP3   OH237974   6.835   6.888   0.788 -0.1620 -0.2413 -0.0136
 5472TIP3    H137975   6.837   6.793   0.800  0.6529 -0.7902 -3.3730
 5472TIP3    H237976   6.926   6.915   0.795 -0.4350  0.4353  1.3529
 5473TIP3   OH237977   3.879   0.741   2.183 -0.4372  0.0582 -0.2662
 5473TIP3    H137978   3.892   0.742   2.278 -1.2063  1.4868 -0.1452
 5473TIP3    H237979   3.954   0.790   2.149 -0.5622  0.2033 -0.3330
 5474TIP3   OH237980   0.151   2.245   7.331  0.1108 -0.0188 -0.3806
 5474TIP3    H137981   0.190   2.328   7.303 -1.1882  0.6000 -0.4319
 5474TIP3    H237982   0.181   2.181   7.266 -1.2435  1.0043 -2.0701
 5475TIP3   OH237983   0.865   1.676   7.622 -0.5626  0.2637  0.2205
 5475TIP3    H137984   0.787   1.622   7.635  0.0853 -0.7255  0.1657
 5475TIP3    H237985   0.928   1.644   7.687 -0.0775  0.7846  0.0199
 5476TIP3   OH237986   2.349   0.442   1.227 -0.0128  0.3767  0.5762
 5476TIP3    H137987   2.299   0.513   1.269  0.1439  0.1387  1.1725
 5476TIP3    H237988   2.440   0.464   1.242  0.0535 -1.0057  2.6331
 5477TIP3   OH237989   5.162   2.904   7.925 -0.0109 -0.5783  0.5851
 5477TIP3    H137990   5.071   2.907   7.897 -0.0425 -2.1734  0.4204
 5477TIP3    H237991   5.207   2.859   7.854  0.7801 -0.4532  0.9991
 5478TIP3   OH237992   1.825   4.173   2.507 -0.0822  0.4214 -0.3736
 5478TIP3    H137993   1.847   4.248   2.451  1.5051 -0.2822 -0.7504
 5478TIP3    H237994   1.811   4.211   2.594 -0.2188  1.2521 -0.7505
 5479TIP3   OH237995   6.886   6.542   1.343 -0.0015  0.5208 -0.2091
 5479TIP3    H137996   6.800   6.555   1.305 -0.2618  0.2996  0.2977
 5479TIP3    H237997   6.938   6.504   1.272 -1.3612 -3.0362  0.4645
 5480TIP3   OH237998   2.220   1.576   0.234 -0.1838  0.2095  0.2087
 5480TIP3    H137999   2.312   1.597   0.248  0.4021 -1.5812 -0.5973
 5480TIP3    H238000   2.203   1.501   0.292 -1.4082  1.0559  1.0080
 5481TIP3   OH238001   1.299   2.752   8.015  0.3657  0.0489  0.1493
 5481TIP3    H138002   1.387   2.726   8.042  0.6768  0.2126 -0.6920
 5481TIP3    H238003   1.305   2.847   8.005 -0.0334  0.1175  0.5306
 5482TIP3   OH238004   5.551   2.777   7.881 -0.4175  0.5273  0.1461
 5482TIP3    H138005   5.616   2.707   7.891  0.5982  1.5937  1.3599
 5482TIP3    H238006   5.593   2.854   7.920 -1.8125  1.6318 -0.4640
 5483TIP3   OH238007   6.040   6.847   2.211 -0.1572  0.3090  0.2443
 5483TIP3    H138008   6.047   6.828   2.305 -1.1895 -0.5258  0.1654
 5483TIP3    H238009   6.095   6.781   2.169  0.3203  0.6949  0.2374
 5484TIP3   OH238010   0.202   1.641   0.280 -0.6281  0.1912 -0.2042
 5484TIP3    H138011   0.269   1.698   0.241 -0.6865  0.4247  0.0327
 5484TIP3    H238012   0.138   1.702   0.317 -0.2876 -0.0214  0.7507
 5485TIP3   OH238013   3.193   5.412   1.080 -0.0628  0.3367  0.4662
 5485TIP3    H138014   3.115   5.445   1.125  0.3111  0.7960  0.7878
 5485TIP3    H238015   3.160   5.342   1.023 -0.6850  0.4183  0.7154
 5486TIP3   OH238016   1.102   5.960   0.521  0.2737 -0.0552 -0.8057
 5486TIP3    H138017   1.048   6.037   0.505  0.7823  0.9579  1.7696
 5486TIP3    H238018   1.040   5.891   0.544 -0.0562  0.4286 -0.2247
 5487TIP3   OH238019   4.244   0.333   0.788  0.3573 -0.6110 -0.4633
 5487TIP3    H138020   4.298   0.413   0.791 -0.2074 -0.2232 -0.4226
 5487TIP3    H238021   4.172   0.351   0.849  1.4370 -2.0682  1.3409
 5488TIP3   OH238022   5.594   3.513   8.436  0.3031  0.6765  0.1502
 5488TIP3    H138023   5.505   3.510   8.472  0.5754  0.7682  0.8400
 5488TIP3    H238024   5.601   3.433   8.384  0.0674  0.3024  0.6873
 5489TIP3   OH238025   3.652   0.608   1.734 -0.3168  0.0025  0.1875
 5489TIP3    H138026   3.639   0.514   1.747  1.3176 -0.1112  1.4432
 5489TIP3    H238027   3.747   0.618   1.727 -0.4953  1.5037 -0.6375
 5490TIP3   OH238028   3.007   6.192   1.687 -0.2566  0.3179 -0.1664
 5490TIP3    H138029   3.017   6.287   1.682  0.0937  0.2996  0.1862
 5490TIP3    H238030   3.034   6.169   1.775 -1.3386  0.0046  0.1043
 5491TIP3   OH238031   4.590   2.032   2.219  0.6182 -0.0477 -0.8228
 5491TIP3    H138032   4.564   1.991   2.136 -0.3698 -0.9998 -0.0784
 5491TIP3    H238033   4.619   1.959   2.273 -0.2837  0.3392  0.2173
 5492TIP3   OH238034   0.224   5.971   1.125 -0.3331 -0.0119 -0.0208
 5492TIP3    H138035   0.244   6.008   1.038  1.8629 -0.0304  0.4112
 5492TIP3    H238036   0.304   5.987   1.176 -0.9913 -1.4145  1.5176
 5493TIP3   OH238037   1.428   5.176   8.073 -0.3952  0.2000  0.3547
 5493TIP3    H138038   1.500   5.142   8.126  0.8991  0.2878 -1.2476
 5493TIP3    H238039   1.405   5.260   8.114 -0.2610 -0.2939  1.4554
 5494TIP3   OH238040   0.564   5.037   0.707  0.0591 -0.3280 -0.1186
 5494TIP3    H138041   0.650   5.010   0.739 -0.7249 -2.0798  0.6685
 5494TIP3    H238042   0.582   5.086   0.627  1.8079 -0.2452  0.2965
 5495TIP3   OH238043   3.994   1.724   1.719 -0.2726  0.2594 -0.2597
 5495TIP3    H138044   4.005   1.816   1.745 -0.7204  1.0337 -2.5665
 5495TIP3    H238045   3.929   1.727   1.649 -2.0035 -2.1347  1.1210
 5496TIP3   OH238046   0.858   6.293   8.294 -0.0542  0.4418 -0.0160
 5496TIP3    H138047   0.842   6.237   8.370  3.7013  1.3048  1.6566
 5496TIP3    H238048   0.855   6.382   8.328 -0.9884  1.0521 -1.5528
 5497TIP3   OH238049   1.148   3.317   7.487 -0.2387  0.1206 -0.2148
 5497TIP3    H138050   1.155   3.229   7.452  0.0913 -0.9121  2.2016
 5497TIP3    H238051   1.096   3.307   7.567  1.1429  1.8065  0.9849
 5498TIP3   OH238052   4.436   5.114   1.666 -0.2446  0.9144  0.0592
 5498TIP3    H138053   4.529   5.110   1.643  0.0438 -0.1687  1.3386
 5498TIP3    H238054   4.426   5.198   1.711  0.2694  0.7072  0.5666
 5499TIP3   OH238055   0.074   6.726   7.373  0.3455 -0.1101  0.9948
 5499TIP3    H138056  -0.017   6.702   7.388 -0.7589  2.5134 -0.8383
 5499TIP3    H238057   0.087   6.805   7.425  1.3702 -0.0309  0.6490
 5500TIP3   OH238058   3.649   6.677   7.589  0.1240 -0.0507 -0.0168
 5500TIP3    H138059   3.621   6.684   7.680  0.5288  0.4739  0.0724
 5500TIP3    H238060   3.591   6.737   7.542 -0.1992 -0.4507 -0.1371
 5501TIP3   OH238061   4.934   2.557   7.809  0.2168  0.1290  0.8727
 5501TIP3    H138062   4.907   2.595   7.725 -1.4309 -0.9911  0.8351
 5501TIP3    H238063   5.028   2.573   7.814  0.1650  1.1572 -0.6889
 5502TIP3   OH238064   4.189   4.090   6.688 -1.2171  0.0459  0.2214
 5502TIP3    H138065   4.158   4.109   6.777 -0.4246  0.6707  0.3824
 5502TIP3    H238066   4.121   4.124   6.631 -1.2245  0.6624  0.5821
 5503TIP3   OH238067   1.543   0.673   8.147  0.0103  0.2058  1.0602
 5503TIP3    H138068   1.553   0.601   8.085  0.5794  0.6767  0.6046
 5503TIP3    H238069   1.462   0.652   8.194 -0.9335  0.3321 -0.4709
 5504TIP3   OH238070   1.456   6.862   0.488 -0.0497 -0.3278 -0.2130
 5504TIP3    H138071   1.477   6.769   0.474  0.6422  0.1454 -2.8795
 5504TIP3    H238072   1.537   6.908   0.467 -0.8697  0.9630 -0.6272
 5505TIP3   OH238073   0.291   5.825   7.322  0.1615  0.0806  0.1361
 5505TIP3    H138074   0.313   5.901   7.377  1.0153 -0.2343  0.2428
 5505TIP3    H238075   0.342   5.753   7.359 -1.2780 -0.7654  0.5740
 5506TIP3   OH238076   1.019   0.209   6.644 -0.0930  0.0410  0.4183
 5506TIP3    H138077   1.057   0.224   6.731 -0.6347 -2.1988  1.1196
 5506TIP3    H238078   0.927   0.235   6.654  0.1179  0.9092  0.1483
 5507TIP3   OH238079   4.235   4.079   2.106 -0.1637  0.1327 -0.1331
 5507TIP3    H138080   4.303   4.145   2.124 -2.0618  1.9067  0.9480
 5507TIP3    H238081   4.189   4.111   2.029 -2.2438  1.1126  1.4371
 5508TIP3   OH238082   0.179   4.194   7.730  0.1148  0.0931  0.0060
 5508TIP3    H138083   0.186   4.285   7.701  0.2308  0.9444  2.4912
 5508TIP3    H238084   0.137   4.199   7.815  0.5906 -2.1608  0.4404
 5509TIP3   OH238085   1.557   0.589   1.220  0.1445  0.3920  0.1157
 5509TIP3    H138086   1.585   0.551   1.304  0.2397 -0.2203 -0.1826
 5509TIP3    H238087   1.492   0.527   1.187  0.7897  0.1339 -0.7036
 5510TIP3   OH238088   1.273   4.224   1.122 -0.4229 -0.7238 -0.1292
 5510TIP3    H138089   1.229   4.165   1.059 -0.5538 -0.6047 -0.1507
 5510TIP3    H238090   1.252   4.312   1.090 -1.7852 -0.6222  0.9382
 5511TIP3   OH238091   0.017   2.683   6.359  0.0529  0.5495 -0.3815
 5511TIP3    H138092  -0.012   2.731   6.282 -2.6830  1.9022  1.3546
 5511TIP3    H238093  -0.056   2.625   6.381  2.2184 -2.6289 -0.8444
 5512TIP3   OH238094   2.680   3.157   7.701 -0.0635 -0.4032 -0.2985
 5512TIP3    H138095   2.685   3.061   7.696 -0.7492 -0.4101 -1.1824
 5512TIP3    H238096   2.599   3.174   7.748 -0.0787 -0.2556 -0.3790
 5513TIP3   OH238097   1.290   6.061   3.244 -0.3802 -1.0090  0.2444
 5513TIP3    H138098   1.300   5.990   3.179 -0.8218  0.1794 -1.1691
 5513TIP3    H238099   1.230   6.026   3.309 -1.0716 -1.7260 -0.7574
 5514TIP3   OH238100   5.366   0.695   7.707 -0.0667  0.2348 -0.3374
 5514TIP3    H138101   5.344   0.782   7.740  0.7431  0.1920  0.3379
 5514TIP3    H238102   5.328   0.634   7.770 -1.3213  0.0456 -1.2200
 5515TIP3   OH238103   6.072   0.166   7.002 -0.1046 -0.6996  0.2942
 5515TIP3    H138104   6.078   0.101   6.932  1.3236 -0.9524  0.6231
 5515TIP3    H238105   5.991   0.213   6.984  1.2128  0.6698 -2.7798
 5516TIP3   OH238106   6.238   0.908   8.067 -0.2551 -0.0613 -0.2416
 5516TIP3    H138107   6.293   0.985   8.080  0.0735 -0.4965  1.0604
 5516TIP3    H238108   6.237   0.895   7.972 -0.1393  1.4011 -0.4649
 5517TIP3   OH238109   1.401   6.413   7.409  0.2745  0.4100 -0.0335
 5517TIP3    H138110   1.434   6.471   7.341  0.2087 -1.5620 -1.8593
 5517TIP3    H238111   1.310   6.397   7.385  0.3642 -0.6332  0.2454
 5518TIP3   OH238112   4.403   1.688   0.041  0.6717 -0.4282  0.2960
 5518TIP3    H138113   4.403   1.716  -0.050  0.3235 -0.3496  0.3209
 5518TIP3    H238114   4.450   1.757   0.088  2.1726 -1.1731 -0.0382
 5519TIP3   OH238115   1.751   2.309   0.744  0.8162 -0.0136  0.3614
 5519TIP3    H138116   1.827   2.337   0.795  0.9021 -0.9411  0.7579
 5519TIP3    H238117   1.686   2.285   0.809 -0.0150  1.2198  0.0309
 5520TIP3   OH238118   6.756   0.476   0.852  0.0732 -0.0101 -0.0635
 5520TIP3    H138119   6.757   0.400   0.793  1.3589  0.7180 -1.0486
 5520TIP3    H238120   6.848   0.501   0.859 -0.3130  1.3500  0.3697
 5521TIP3   OH238121   5.225   4.281   2.277 -0.0233 -0.6362  0.2749
 5521TIP3    H138122   5.253   4.373   2.279  1.0437 -0.9542  0.2872
 5521TIP3    H238123   5.301   4.232   2.306  0.9770 -1.9134 -3.8983
 5522TIP3   OH238124   0.058   2.819   7.499  0.2333  0.0402 -0.0244
 5522TIP3    H138125   0.048   2.775   7.584  2.8452 -0.5816  0.0398
 5522TIP3    H238126   0.073   2.911   7.521  1.9042 -0.2821  0.2928
 5523TIP3   OH238127   4.812   3.555   8.509 -0.2826 -0.0216 -0.0413
 5523TIP3    H138128   4.876   3.561   8.580 -0.1028 -0.6196 -0.1435
 5523TIP3    H238129   4.861   3.515   8.437 -0.9642 -1.2513  0.1405
 5524TIP3   OH238130   4.665   3.124   1.399 -0.1829 -0.3469 -0.7861
 5524TIP3    H138131   4.747   3.088   1.365  0.2768 -0.6383  0.5818
 5524TIP3    H238132   4.648   3.075   1.479 -0.8285  0.8227 -0.1738
 5525TIP3   OH238133   5.927   4.442   0.032 -0.4639  0.2232  0.0851
 5525TIP3    H138134   5.942   4.530  -0.003 -3.0120  0.6355 -0.1636
 5525TIP3    H238135   5.988   4.435   0.106  0.4503  1.8145 -0.4671
 5526TIP3   OH238136   4.283   4.313   0.416  0.0726 -0.0229  0.4048
 5526TIP3    H138137   4.215   4.268   0.467  0.6746 -0.7795  0.5627
 5526TIP3    H238138   4.364   4.268   0.440  0.5301  0.3865 -0.3414
 5527TIP3   OH238139   1.170   4.964   1.925  0.1566  0.0943  0.0307
 5527TIP3    H138140   1.171   4.899   1.996  2.6393  0.2762  0.2618
 5527TIP3    H238141   1.123   5.038   1.962  1.6767  0.3148  1.6901
 5528TIP3   OH238142   2.163   2.233   0.157 -0.5866 -0.6038  0.2523
 5528TIP3    H138143   2.188   2.218   0.066 -0.7347  0.4766  0.0089
 5528TIP3    H238144   2.223   2.179   0.208 -0.9206 -1.7116 -0.5051
 5529TIP3   OH238145   1.130   3.769   2.587  0.2382 -0.0618  0.2148
 5529TIP3    H138146   1.110   3.807   2.502  0.5333 -1.2271 -0.4046
 5529TIP3    H238147   1.163   3.842   2.640  0.0550  0.6675 -0.6655
 5530TIP3   OH238148   1.293   4.457   6.575 -0.1048  0.2866  0.3022
 5530TIP3    H138149   1.260   4.544   6.596  0.4360  0.1572  1.7964
 5530TIP3    H238150   1.217   4.412   6.536 -1.2723  0.5204  2.1669
 5531TIP3   OH238151   1.684   3.681   7.303  0.2794  0.3857 -0.1268
 5531TIP3    H138152   1.619   3.665   7.371 -0.1706  0.1262 -0.6053
 5531TIP3    H238153   1.638   3.660   7.221 -0.5427  4.3955 -0.9150
 5532TIP3   OH238154   0.011   2.999   7.827  0.0596  0.0071 -0.1680
 5532TIP3    H138155   0.021   2.904   7.823  0.2338 -0.0436  1.0724
 5532TIP3    H238156  -0.082   3.014   7.805 -0.3343 -0.5774  1.0338
 5533TIP3   OH238157   4.491   3.338   0.636  0.2036 -0.1962 -0.2618
 5533TIP3    H138158   4.528   3.258   0.598 -0.6666 -0.5870 -0.3081
 5533TIP3    H238159   4.403   3.345   0.597  0.0481  0.4691  0.1838
 5534TIP3   OH238160   3.668   3.385   2.086  0.5450  0.0529  0.7825
 5534TIP3    H138161   3.750   3.379   2.037  0.4732 -1.0795  0.7855
 5534TIP3    H238162   3.655   3.299   2.124 -1.4288 -0.3098 -0.5105
 5535TIP3   OH238163   1.042   3.463   0.335  0.3174  0.5289  0.2813
 5535TIP3    H138164   0.979   3.454   0.406 -1.5995 -0.5887 -1.4596
 5535TIP3    H238165   1.067   3.373   0.313  3.6939  0.9199  1.7800
 5536TIP3   OH238166   4.783   3.827   1.691  0.6275 -0.4387  0.1764
 5536TIP3    H138167   4.718   3.819   1.621  2.3040  1.0009 -1.6453
 5536TIP3    H238168   4.788   3.921   1.709  0.7476 -0.7224  1.7764
 5537TIP3   OH238169   1.633   1.180   6.771  0.1057 -0.0459  0.1323
 5537TIP3    H138170   1.686   1.257   6.792 -0.1960  0.4887 -0.9805
 5537TIP3    H238171   1.649   1.119   6.843  1.4202  0.5111  0.3375
 5538TIP3   OH238172   4.209   1.236   7.429  0.1960 -0.5605  0.7222
 5538TIP3    H138173   4.186   1.217   7.520  0.2913  1.3611  1.1863
 5538TIP3    H238174   4.184   1.328   7.416 -1.0364 -1.1207 -1.5902
 5539TIP3   OH238175   5.938   2.026   0.830  0.0178 -0.7104 -0.5387
 5539TIP3    H138176   5.904   1.990   0.748 -2.2695  2.5238 -1.1868
 5539TIP3    H238177   5.867   2.013   0.893 -0.2842  1.1935 -0.4266
 5540TIP3   OH238178   6.218   2.177   0.719  0.0944  0.0002  0.0156
 5540TIP3    H138179   6.145   2.224   0.680 -1.1423 -0.5497  1.5554
 5540TIP3    H238180   6.231   2.219   0.804  2.3329  0.8043 -0.6667
 5541TIP3   OH238181   3.547   3.577   2.219 -0.1240  0.2511  0.6082
 5541TIP3    H138182   3.614   3.642   2.242 -0.0799  0.9305 -1.2380
 5541TIP3    H238183   3.593   3.512   2.167 -0.5459 -0.2751  0.8811
 5542TIP3   OH238184   6.107   5.529   2.362 -0.2622  0.1683 -0.0216
 5542TIP3    H138185   6.028   5.583   2.363 -0.3348  0.0548  0.4073
 5542TIP3    H238186   6.141   5.534   2.451  0.4243  0.5207 -0.2916
 5543TIP3   OH238187   0.839   2.611   6.978  0.3136 -0.9554 -0.8861
 5543TIP3    H138188   0.787   2.646   6.906  1.1910 -0.0360 -1.0880
 5543TIP3    H238189   0.776   2.565   7.034 -0.4894 -1.0080 -1.8274
 5544TIP3   OH238190   3.391   4.158   1.541  0.0773 -0.0377  0.1716
 5544TIP3    H138191   3.473   4.161   1.491  0.2039 -1.4150  0.2499
 5544TIP3    H238192   3.359   4.248   1.539  0.6721  0.1818 -1.3918
 5545TIP3   OH238193   5.538   4.936   2.317 -0.0787  0.1574  0.2472
 5545TIP3    H138194   5.484   5.010   2.345 -0.5650  0.3068 -1.0297
 5545TIP3    H238195   5.489   4.859   2.346  0.8475  0.2899  2.3535
 5546TIP3   OH238196   4.059   0.558   0.648  0.2913 -0.1990  0.0868
 5546TIP3    H138197   4.061   0.544   0.743  0.3383  0.8737  0.2539
 5546TIP3    H238198   4.111   0.486   0.613 -2.9393 -2.9861  0.5395
 5547TIP3   OH238199   3.798   3.973   8.101 -0.3713  0.2065  0.3070
 5547TIP3    H138200   3.785   3.893   8.050 -1.1298  0.3654  0.2333
 5547TIP3    H238201   3.816   4.040   8.036  0.5581  0.0483  0.3893
 5548TIP3   OH238202   0.656   0.959   0.567 -0.0786  0.0973 -0.4204
 5548TIP3    H138203   0.562   0.970   0.555  0.0912  2.0001 -0.3328
 5548TIP3    H238204   0.683   0.898   0.498 -1.4321 -0.8478 -0.1365
 5549TIP3   OH238205   0.351   0.877   7.616  0.2189  0.4650 -0.3249
 5549TIP3    H138206   0.277   0.857   7.558 -0.6109  0.0009  0.8631
 5549TIP3    H238207   0.358   0.972   7.614  0.2696  0.4581 -1.2415
 5550TIP3   OH238208   4.921   0.480   0.543 -0.0114 -0.2684  0.1813
 5550TIP3    H138209   4.948   0.569   0.568 -0.4530 -0.1909  0.3990
 5550TIP3    H238210   5.003   0.434   0.525  0.1626  0.5953 -1.3378
 5551TIP3   OH238211   1.229   5.558   1.147 -0.1446 -0.6318  0.1799
 5551TIP3    H138212   1.303   5.538   1.204 -0.5933 -0.6098  0.7844
 5551TIP3    H238213   1.153   5.524   1.194 -0.9991  2.6954  1.4280
 5552TIP3   OH238214   6.439   4.514   1.369  0.0378 -0.8278  0.0655
 5552TIP3    H138215   6.386   4.564   1.307  1.6884  1.3952  0.3215
 5552TIP3    H238216   6.528   4.518   1.333  0.4560 -2.4468  0.8376
 5553TIP3   OH238217   3.089   1.118   7.339  0.1995  0.6339  0.7248
 5553TIP3    H138218   3.166   1.176   7.344 -0.4996  1.5785  0.8403
 5553TIP3    H238219   3.075   1.090   7.429 -0.3764  1.5437  0.9369
 5554TIP3   OH238220   0.475   5.960   1.241 -0.3203 -0.6026 -0.0174
 5554TIP3    H138221   0.443   5.888   1.295 -0.4000 -1.0505 -0.6493
 5554TIP3    H238222   0.565   5.974   1.269 -0.0693 -1.4311 -0.3763
 5555TIP3   OH238223   1.237   1.782   2.443  0.5129 -0.3032  0.6936
 5555TIP3    H138224   1.165   1.730   2.407  0.8352  0.4562 -1.1800
 5555TIP3    H238225   1.273   1.728   2.514 -0.1128 -1.9506 -0.1911
 5556TIP3   OH238226   4.377   5.286   0.610  0.7030  0.1720 -0.2975
 5556TIP3    H138227   4.290   5.325   0.603  1.0001  1.0569  0.6360
 5556TIP3    H238228   4.395   5.251   0.523  0.3337  1.9769 -1.1413
 5557TIP3   OH238229   4.342   5.755   6.907  0.2045  0.3962 -0.2140
 5557TIP3    H138230   4.357   5.739   7.000  1.1944 -0.8263 -0.5483
 5557TIP3    H238231   4.307   5.844   6.903  2.4257  1.4383  1.1646
 5558TIP3   OH238232   0.948   6.234   7.418 -0.1373  0.0736 -0.1759
 5558TIP3    H138233   0.900   6.206   7.496  0.1855  1.1407  0.4282
 5558TIP3    H238234   0.916   6.177   7.348 -0.6737 -0.6808  0.6657
 5559TIP3   OH238235   1.687   3.337   0.765  0.3429 -0.7297 -0.0133
 5559TIP3    H138236   1.607   3.384   0.740  0.9361  0.7690  0.8096
 5559TIP3    H238237   1.660   3.283   0.840  0.0607 -0.3521  0.1605
 5560TIP3   OH238238   5.465   2.871   7.182 -0.2883 -0.2416 -0.0420
 5560TIP3    H138239   5.405   2.810   7.224  0.2319 -0.7837 -0.0699
 5560TIP3    H238240   5.541   2.818   7.158  0.8032  0.6760  1.2121
 5561TIP3   OH238241   6.184   3.046   6.998 -0.0145  0.3039  0.0527
 5561TIP3    H138242   6.275   3.040   7.028 -0.3963 -2.7993  1.0105
 5561TIP3    H238243   6.134   3.068   7.078 -0.1253  2.8402 -0.6254
 5562TIP3   OH238244   0.372   0.382   7.117 -0.4946 -0.5704  0.1736
 5562TIP3    H138245   0.289   0.421   7.093  0.3579  1.0685 -0.2817
 5562TIP3    H238246   0.415   0.362   7.034  0.8416  1.5104  0.3076
 5563TIP3   OH238247   0.664   1.731   7.821  0.0908  0.1926 -0.6972
 5563TIP3    H138248   0.595   1.680   7.777 -1.2187  2.3266 -1.2435
 5563TIP3    H238249   0.655   1.819   7.785  1.8532  0.9872  0.6954
 5564TIP3   OH238250   0.009   3.202   1.326 -0.2922 -0.3412  0.3346
 5564TIP3    H138251   0.040   3.115   1.301  0.6827  0.3795 -1.0634
 5564TIP3    H238252   0.080   3.238   1.379  0.3974  0.5099 -1.1215
 5565TIP3   OH238253   5.103   2.184   7.917 -0.4779 -0.2957  0.1344
 5565TIP3    H138254   5.032   2.223   7.866 -1.4963 -1.8078  0.3141
 5565TIP3    H238255   5.153   2.133   7.854  0.6758  1.0073 -0.0483
 5566TIP3   OH238256   5.427   3.368   7.635 -0.5283  0.1565  0.1898
 5566TIP3    H138257   5.439   3.435   7.567 -1.7279 -1.0233 -1.2506
 5566TIP3    H238258   5.337   3.381   7.666 -0.2257  0.2238  1.0562
 5567TIP3   OH238259   6.711   0.026   7.847  0.1684 -0.3079  0.1667
 5567TIP3    H138260   6.713   0.076   7.929  0.0892  1.5167 -0.8838
 5567TIP3    H238261   6.795   0.046   7.805  0.9033 -2.5043  0.4798
 5568TIP3   OH238262   1.373   5.686   0.632 -0.5938  0.4107 -0.2710
 5568TIP3    H138263   1.322   5.757   0.670 -1.5005 -1.0165  1.3447
 5568TIP3    H238264   1.313   5.644   0.569 -0.6570  0.0748  0.0087
 5569TIP3   OH238265   2.462   2.123   7.203  0.6217  0.2454  0.4016
 5569TIP3    H138266   2.418   2.208   7.198 -0.0110  0.0546  1.9406
 5569TIP3    H238267   2.443   2.081   7.119  0.9206  1.5899 -0.3701
 5570TIP3   OH238268   4.237   3.152   1.764 -0.8014  0.0896  0.2470
 5570TIP3    H138269   4.196   3.221   1.712  2.3050  1.5351 -0.4925
 5570TIP3    H238270   4.233   3.185   1.854 -0.4606  0.6729  0.0566
 5571TIP3   OH238271   4.167   2.213   7.174  0.6327  0.3750  0.2054
 5571TIP3    H138272   4.244   2.267   7.187  0.6732  0.0363  1.5919
 5571TIP3    H238273   4.099   2.254   7.228  0.4391 -0.4797  0.6420
 5572TIP3   OH238274   3.048   3.119   7.787 -0.0445  0.3534  0.1500
 5572TIP3    H138275   3.079   3.081   7.704 -1.5276  0.6695 -0.5744
 5572TIP3    H238276   2.954   3.102   7.788 -0.1364  0.7888  1.5577
 5573TIP3   OH238277   4.255   1.698   7.672  0.0212  0.6044 -0.0626
 5573TIP3    H138278   4.173   1.748   7.674  0.0000  0.5596  1.5422
 5573TIP3    H238279   4.237   1.624   7.614 -0.1089  2.1498 -2.0955
 5574TIP3   OH238280   5.161   4.502   2.008  0.3381 -0.5062 -0.0229
 5574TIP3    H138281   5.208   4.552   2.075 -0.4557 -0.3638  0.4414
 5574TIP3    H238282   5.094   4.563   1.976 -0.6519 -1.2542  0.5609
 5575TIP3   OH238283   1.426   3.711   0.335  0.2687 -0.2228 -0.0887
 5575TIP3    H138284   1.384   3.659   0.266 -0.6737  0.7545 -0.2736
 5575TIP3    H238285   1.505   3.745   0.294 -1.3311  2.1283 -1.4947
 5576TIP3   OH238286   1.193   1.692   8.353 -0.3786 -0.4152  0.1430
 5576TIP3    H138287   1.142   1.612   8.367 -2.1788  0.6971  0.2031
 5576TIP3    H238288   1.160   1.753   8.418  0.0455  0.8179 -0.7689
 5577TIP3   OH238289   3.735   4.438   0.186  0.2470  0.9960  0.1748
 5577TIP3    H138290   3.684   4.362   0.157 -0.1977  1.5854 -0.6025
 5577TIP3    H238291   3.800   4.401   0.246  0.6249 -0.1245 -0.8913
 5578TIP3   OH238292   3.803   2.566   1.463  0.1197 -0.4984  0.0090
 5578TIP3    H138293   3.869   2.618   1.508 -1.4578  1.5105  0.1337
 5578TIP3    H238294   3.852   2.494   1.423  2.5113  1.3548 -0.6256
 5579TIP3   OH238295   2.350   1.633   8.116  0.5574 -0.1684 -0.1326
 5579TIP3    H138296   2.446   1.627   8.113  0.8793  2.1335  2.1680
 5579TIP3    H238297   2.328   1.603   8.204 -0.8076 -0.2029 -0.4731
 5580TIP3   OH238298   2.540   6.529   8.160  0.2251 -0.3313  0.0443
 5580TIP3    H138299   2.587   6.446   8.160 -0.2906 -0.6477  1.1984
 5580TIP3    H238300   2.495   6.531   8.245 -0.2926  0.8273 -0.2366
 5581TIP3   OH238301   0.973   6.906   1.597  0.1253  0.3640  0.0010
 5581TIP3    H138302   1.013   6.992   1.587 -0.9258  1.0533  1.3782
 5581TIP3    H238303   0.968   6.893   1.692  0.6728 -1.4312 -0.1756
 5582TIP3   OH238304   5.255   2.187   8.149 -0.3778 -0.1314  0.1324
 5582TIP3    H138305   5.244   2.097   8.178 -1.0914  0.0347  0.3868
 5582TIP3    H238306   5.193   2.197   8.077  1.8018 -0.7283 -1.9644
 5583TIP3   OH238307   1.339   1.577   6.944  0.2401 -0.3095  0.0893
 5583TIP3    H138308   1.344   1.663   6.902 -1.9526 -0.0739  0.2296
 5583TIP3    H238309   1.314   1.596   7.035  0.7396 -1.0625  0.3964
 5584TIP3   OH238310   2.730   3.270   7.452  0.2554  0.4798  0.0893
 5584TIP3    H138311   2.646   3.264   7.407 -0.1415  0.9407  0.7621
 5584TIP3    H238312   2.709   3.257   7.545  0.9830  0.1440  0.2135
 5585TIP3   OH238313   2.426   3.983   1.066  0.7103  0.3557 -0.1575
 5585TIP3    H138314   2.474   4.019   1.141 -1.5875 -1.4152  2.3517
 5585TIP3    H238315   2.469   3.899   1.048 -0.4108 -0.5069  1.0641
 5586TIP3   OH238316   1.934   0.576   8.082  0.3993  0.0837  0.8121
 5586TIP3    H138317   1.965   0.490   8.108 -1.5060 -0.3768  1.7379
 5586TIP3    H238318   1.902   0.564   7.992 -1.2109 -0.5914  1.4380
 5587TIP3   OH238319   2.814   1.603   0.483  0.1042  0.3893 -0.3492
 5587TIP3    H138320   2.797   1.512   0.505  1.9506  0.0438 -0.1601
 5587TIP3    H238321   2.748   1.653   0.532 -1.2429 -0.8396 -0.8529
 5588TIP3   OH238322   2.750   4.714   0.651 -0.3011 -0.2000  0.2061
 5588TIP3    H138323   2.741   4.786   0.714  2.1284 -1.0053  1.6159
 5588TIP3    H238324   2.706   4.640   0.693  0.9871 -0.6371  0.8229
 5589TIP3   OH238325   1.202   4.360   0.609  0.7550  0.1148 -0.3446
 5589TIP3    H138326   1.221   4.388   0.520  0.5874 -0.2096 -0.4842
 5589TIP3    H238327   1.107   4.368   0.617  0.7696  0.1523 -0.1906
 5590TIP3   OH238328   1.405   3.306   1.959  0.3748 -0.4450  0.1594
 5590TIP3    H138329   1.359   3.381   1.997  0.1201 -1.0759  1.1525
 5590TIP3    H238330   1.362   3.230   1.998 -0.3648 -1.1746 -1.9432
 5591TIP3   OH238331   0.930   4.443   1.192 -0.2070  0.1446  0.1094
 5591TIP3    H138332   0.926   4.534   1.165 -2.1617  0.3806  1.0270
 5591TIP3    H238333   0.981   4.399   1.124  2.3641  2.1850  0.5463
 5592TIP3   OH238334   5.908   0.982   1.970 -0.2525 -0.3655  0.2831
 5592TIP3    H138335   5.966   1.025   2.033 -0.2704 -0.1385  0.1461
 5592TIP3    H238336   5.820   1.014   1.993 -0.0972  0.9513 -0.8363
 5593TIP3   OH238337   2.601   2.602   1.934 -0.0180  0.0634  0.4399
 5593TIP3    H138338   2.534   2.653   1.979 -0.4237  0.3410 -0.4545
 5593TIP3    H238339   2.561   2.578   1.851  0.3372 -1.3071  0.6318
 5594TIP3   OH238340   5.424   5.652   8.432  0.0392 -0.2455 -0.3331
 5594TIP3    H138341   5.383   5.654   8.346  0.4762  1.4191 -0.5525
 5594TIP3    H238342   5.516   5.636   8.414 -0.0458 -1.0321 -0.0786
 5595TIP3   OH238343   4.084   2.685   1.572  0.1764 -0.5976 -0.1793
 5595TIP3    H138344   4.089   2.597   1.608 -1.4627 -0.3740  0.7236
 5595TIP3    H238345   4.171   2.722   1.584  0.3162 -1.3848  1.3494
 5596TIP3   OH238346   4.048   4.409   6.927 -0.2099  0.4349 -0.2784
 5596TIP3    H138347   4.091   4.415   7.013  0.1082 -0.8525 -0.3330
 5596TIP3    H238348   4.109   4.452   6.867  0.1511  0.2287 -0.0609
 5597TIP3   OH238349   1.450   5.950   8.466 -0.0466 -0.3958  0.5657
 5597TIP3    H138350   1.441   6.001   8.546  0.4455 -0.2283  0.5164
 5597TIP3    H238351   1.544   5.951   8.447 -0.3483  1.1868 -1.0770
 5598TIP3   OH238352   5.842   0.943   1.370 -0.0597  0.1850  0.3181
 5598TIP3    H138353   5.890   1.024   1.388 -0.6946  0.0220  3.1296
 5598TIP3    H238354   5.770   0.971   1.314  0.6976  1.2420 -0.1697
 5599TIP3   OH238355   2.605   2.472   6.612 -0.0848  0.1614  0.1638
 5599TIP3    H138356   2.603   2.427   6.527  1.9105  0.4867 -0.1223
 5599TIP3    H238357   2.668   2.422   6.664  0.3163  1.1880  0.6919
 5600TIP3   OH238358   1.077   2.872   1.426  0.0872  0.1157  0.0976
 5600TIP3    H138359   1.006   2.935   1.412  0.6092  0.4850 -1.0172
 5600TIP3    H238360   1.099   2.880   1.519 -1.1546  0.1624  0.4074
 5601TIP3   OH238361   0.075   6.125   8.044  0.1023 -0.0820  0.1884
 5601TIP3    H138362   0.035   6.194   8.097 -0.0916 -0.3494  0.3955
 5601TIP3    H238363   0.152   6.166   8.004  1.4651 -0.3890  2.3154
 5602TIP3   OH238364   1.532   0.380   0.081  0.3723  0.4230 -0.4513
 5602TIP3    H138365   1.580   0.413   0.005 -0.1332  0.4105 -0.7793
 5602TIP3    H238366   1.600   0.351   0.141  0.8518  2.3022 -0.0284
 5603TIP3   OH238367   2.249   5.747   0.087 -0.1773  0.2851 -0.6284
 5603TIP3    H138368   2.305   5.714   0.017 -0.7678 -0.9513 -0.5501
 5603TIP3    H238369   2.163   5.759   0.046 -0.0308  1.6045 -0.6065
 5604TIP3   OH238370   0.457   1.546   1.409  0.2081  0.0532  0.2105
 5604TIP3    H138371   0.486   1.506   1.492  0.1350  0.6421  0.5226
 5604TIP3    H238372   0.406   1.622   1.436  1.0863  0.8690 -0.3830
 5605TIP3   OH238373   6.742   0.258   0.689  0.0946  0.1827 -0.4208
 5605TIP3    H138374   6.687   0.253   0.611 -2.9638 -1.6286  1.6255
 5605TIP3    H238375   6.720   0.180   0.739  2.3537  0.9535  2.0272
 5606TIP3   OH238376   4.541   1.598   0.414  0.5096 -0.3448 -0.3143
 5606TIP3    H138377   4.581   1.577   0.499  0.4720  0.5987 -0.0409
 5606TIP3    H238378   4.566   1.690   0.399 -1.0662  0.0929 -0.4089
 5607TIP3   OH238379   0.643   5.474   0.126  0.1749  0.6051  0.0582
 5607TIP3    H138380   0.556   5.451   0.158  0.6607 -0.2839  0.8124
 5607TIP3    H238381   0.634   5.562   0.089 -1.0054  0.5638  0.2272
 5608TIP3   OH238382   0.476   0.036   2.177 -0.2428 -0.5220 -0.3246
 5608TIP3    H138383   0.557  -0.013   2.164 -0.2129 -0.3810 -0.6821
 5608TIP3    H238384   0.463   0.036   2.272  0.4532 -0.0968 -0.2214
 5609TIP3   OH238385   6.727   5.748   7.762  0.2976 -0.3539 -0.1207
 5609TIP3    H138386   6.776   5.811   7.709  0.4635 -0.0332  0.3979
 5609TIP3    H238387   6.671   5.801   7.817  1.2403 -0.5748  1.1144
 5610TIP3   OH238388   0.731   2.119   1.085  0.1503  0.2576 -0.0378
 5610TIP3    H138389   0.739   2.215   1.086 -0.1872  0.2969 -0.8804
 5610TIP3    H238390   0.637   2.103   1.088  0.2157 -0.1142  2.9021
 5611TIP3   OH238391   2.398   2.705   2.110 -0.6341 -0.1108 -0.3277
 5611TIP3    H138392   2.414   2.722   2.203 -1.5785  0.8472 -0.3344
 5611TIP3    H238393   2.303   2.702   2.102 -0.5620  0.0318 -1.3034
 5612TIP3   OH238394   1.188   4.416   7.177  0.4109  0.5652 -0.1822
 5612TIP3    H138395   1.234   4.361   7.114  0.6003  1.5652 -0.9547
 5612TIP3    H238396   1.218   4.505   7.157 -1.9092  1.2907 -0.8193
 5613TIP3   OH238397   0.560   4.203   6.392  0.0486  0.7758 -0.3735
 5613TIP3    H138398   0.588   4.293   6.378  2.8913 -0.2622 -2.2028
 5613TIP3    H238399   0.629   4.164   6.445 -1.4801 -0.2218  0.9899
 5614TIP3   OH238400   4.108   1.187   7.674  0.2575 -0.7880 -0.3169
 5614TIP3    H138401   4.174   1.130   7.714  0.1290  0.0358  1.1383
 5614TIP3    H238402   4.025   1.159   7.712  0.1978  0.3667  0.4507
 5615TIP3   OH238403   6.718   6.181   0.446 -0.4340 -0.3989  0.1140
 5615TIP3    H138404   6.757   6.210   0.363 -0.3658  1.2186  0.6912
 5615TIP3    H238405   6.665   6.254   0.475 -0.6569 -1.0389  1.3928
 5616TIP3   OH238406   6.076   4.076   7.477 -0.2535 -0.8728 -0.0487
 5616TIP3    H138407   6.070   4.131   7.555  0.9198  1.8926 -1.7460
 5616TIP3    H238408   6.009   4.110   7.418 -0.3972 -2.1810 -0.6838
 5617TIP3   OH238409   6.296   5.066   3.090 -0.0761 -0.6957  0.3162
 5617TIP3    H138410   6.227   5.115   3.045 -0.1644 -0.1564  1.0071
 5617TIP3    H238411   6.377   5.109   3.064 -0.1426 -0.2522  0.8092
 5618TIP3   OH238412   4.764   5.942   1.750 -0.2308  0.1609  0.1970
 5618TIP3    H138413   4.733   6.031   1.761 -1.1386  0.2045 -2.0820
 5618TIP3    H238414   4.859   5.950   1.746 -0.3053  1.0497 -0.0557
 5619TIP3   OH238415   2.000   0.845   1.835  0.2499  0.0042 -0.2918
 5619TIP3    H138416   2.030   0.861   1.746  0.2223 -0.7903 -0.4497
 5619TIP3    H238417   1.911   0.812   1.825  0.3637 -0.4071  0.0017
 5620TIP3   OH238418   1.489   5.195   7.628  0.4984  0.4061 -0.3574
 5620TIP3    H138419   1.532   5.221   7.547  0.0161  2.7321  0.0828
 5620TIP3    H238420   1.538   5.239   7.697 -0.6283  0.5083  0.4039
 5621TIP3   OH238421   2.295   3.123   7.565 -0.2897 -1.1756  0.4238
 5621TIP3    H138422   2.200   3.114   7.571 -0.7363  1.0255 -1.7241
 5621TIP3    H238423   2.315   3.107   7.473  1.1609  0.2361  0.4514
 5622TIP3   OH238424   5.767   1.573   7.905 -0.1518  0.1106  0.3597
 5622TIP3    H138425   5.828   1.555   7.976  0.3060 -0.3921 -0.1551
 5622TIP3    H238426   5.682   1.544   7.938  0.1170 -0.4304  0.5769
 5623TIP3   OH238427   0.188   2.059   0.246  0.2891 -0.1584  0.9682
 5623TIP3    H138428   0.227   2.017   0.170  0.9940 -0.4194  1.4583
 5623TIP3    H238429   0.134   2.129   0.211 -0.0360 -0.7902  0.1911
 5624TIP3   OH238430   0.458   2.626   1.697 -0.4730  0.4584 -0.1415
 5624TIP3    H138431   0.514   2.694   1.661  1.3646 -0.7354  0.3471
 5624TIP3    H238432   0.414   2.588   1.621  0.2537  0.6513 -0.6656
 5625TIP3   OH238433   2.151   4.055   7.535 -0.3389 -0.4781 -0.6914
 5625TIP3    H138434   2.188   4.125   7.481 -0.9990 -1.5383 -2.5946
 5625TIP3    H238435   2.061   4.082   7.552  0.4036  0.8071  1.6706
 5626TIP3   OH238436   3.551   6.586   1.201  0.1833 -0.2251 -0.3563
 5626TIP3    H138437   3.485   6.552   1.262 -0.1204 -0.0843 -0.6034
 5626TIP3    H238438   3.604   6.646   1.255 -0.0975 -0.0832 -0.2343
 5627TIP3   OH238439   3.048   0.738   0.229 -0.3550  0.0177  0.2195
 5627TIP3    H138440   3.132   0.698   0.211 -0.4946  0.2390 -0.9791
 5627TIP3    H238441   3.070   0.822   0.270 -0.0625 -1.1057  2.5319
 5628TIP3   OH238442   6.779   0.257   1.873 -0.8603  0.0728 -0.1676
 5628TIP3    H138443   6.842   0.328   1.870 -0.9426  0.1506 -0.0799
 5628TIP3    H238444   6.829   0.182   1.907 -0.9146  0.2442  0.3043
 5629TIP3   OH238445   4.083   0.518   8.540 -0.2905  0.0727 -0.2662
 5629TIP3    H138446   4.169   0.551   8.565 -0.3174 -1.1781  1.6667
 5629TIP3    H238447   4.100   0.448   8.478  0.0483  0.2229 -0.3402
 5630TIP3   OH238448   0.711   3.919   7.798  0.0233 -0.0152 -0.2735
 5630TIP3    H138449   0.713   3.847   7.861  3.5622  0.3842  0.2974
 5630TIP3    H238450   0.731   3.878   7.714  0.4805  0.0789 -0.2142
 5631TIP3   OH238451   3.610   0.728   2.294  0.5190 -0.5206  0.1666
 5631TIP3    H138452   3.520   0.744   2.324  0.0679  1.7278 -2.0875
 5631TIP3    H238453   3.665   0.761   2.365 -0.4521  0.4203  0.5098
 5632TIP3   OH238454   1.054   6.026   1.084 -0.4319 -0.2022 -0.7064
 5632TIP3    H138455   1.093   5.939   1.075 -0.7735 -0.6286  1.3498
 5632TIP3    H238456   0.962   6.014   1.060 -0.2149 -0.1016 -1.6346
 5633TIP3   OH238457   4.193   2.570   7.406 -0.2450 -0.1076  0.3058
 5633TIP3    H138458   4.250   2.543   7.334 -1.1632 -1.1292 -0.0776
 5633TIP3    H238459   4.129   2.499   7.413 -2.2287  1.5130 -0.1210
 5634TIP3   OH238460   2.982   2.147   6.711  0.1318 -0.3524 -0.2248
 5634TIP3    H138461   2.887   2.159   6.703  0.4968  2.0639 -1.9612
 5634TIP3    H238462   3.013   2.229   6.749  1.7435 -0.2065 -1.7819
 5635TIP3   OH238463   4.159   3.114   0.413  0.4950  0.4193 -0.0969
 5635TIP3    H138464   4.173   3.150   0.500  1.0311 -0.1814  0.0694
 5635TIP3    H238465   4.076   3.152   0.385  1.7984  3.1576 -0.6388
 5636TIP3   OH238466   2.612   3.424   1.356 -0.3606 -0.2760 -0.1947
 5636TIP3    H138467   2.534   3.467   1.389  0.3524 -0.0212  1.2074
 5636TIP3    H238468   2.617   3.342   1.405 -0.3086 -0.7981 -1.0370
 5637TIP3   OH238469   2.032   4.810   1.251  0.8675 -0.3703  0.5363
 5637TIP3    H138470   2.009   4.732   1.303 -1.5488  0.7091  1.2562
 5637TIP3    H238471   2.066   4.872   1.315  1.7747 -0.4508  0.1387
 5638TIP3   OH238472   0.243   0.705   6.542 -0.5236  0.4505  0.0302
 5638TIP3    H138473   0.277   0.792   6.523  0.3412 -0.2025 -1.6752
 5638TIP3    H238474   0.192   0.682   6.465 -0.0476 -0.8687  0.0749
 5639TIP3   OH238475   0.472   2.216   0.571  0.0213  0.2443 -0.5765
 5639TIP3    H138476   0.474   2.234   0.665  1.5758  0.0703 -0.5464
 5639TIP3    H238477   0.486   2.301   0.530 -1.1060  0.3929 -0.6789
 5640TIP3   OH238478   4.308   0.980   0.551  0.2672 -0.0042 -0.2816
 5640TIP3    H138479   4.239   0.993   0.616  0.7604  2.3448 -0.1379
 5640TIP3    H238480   4.378   1.038   0.579  0.5878  0.9080 -2.7499
 5641TIP3   OH238481   6.529   4.563   2.327 -0.2597 -0.0082  0.3362
 5641TIP3    H138482   6.499   4.477   2.297  0.5790  0.1737 -1.0789
 5641TIP3    H238483   6.468   4.585   2.398 -0.5496 -1.7138  0.6802
 5642TIP3   OH238484   6.317   5.934   2.219 -0.1165 -0.1182  0.0177
 5642TIP3    H138485   6.236   5.979   2.196 -0.6928 -1.3700 -0.5201
 5642TIP3    H238486   6.376   5.951   2.146 -0.2000  0.0825 -0.0018
 5643TIP3   OH238487   2.266   3.967   8.524  0.3260 -0.1309  0.2551
 5643TIP3    H138488   2.284   3.873   8.520  1.1292 -0.0150  1.0229
 5643TIP3    H238489   2.352   4.009   8.529 -0.0125  0.6711 -0.3235
 5644TIP3   OH238490   3.890   3.886   1.193 -0.5682  0.0300 -0.1808
 5644TIP3    H138491   3.874   3.972   1.232  0.0885  0.8340 -1.6365
 5644TIP3    H238492   3.950   3.903   1.121 -0.7772 -1.5977 -0.7678
 5645TIP3   OH238493   3.310   5.910   1.919  0.3320 -0.2774  0.0272
 5645TIP3    H138494   3.315   5.855   1.996 -2.0743  0.5689  0.8939
 5645TIP3    H238495   3.340   5.996   1.949  2.2695 -0.6111 -0.8222
 5646TIP3   OH238496   4.513   1.917   0.187  0.5162 -0.4753  0.0935
 5646TIP3    H138497   4.508   2.013   0.180 -0.8279 -0.6032 -1.3134
 5646TIP3    H238498   4.534   1.901   0.279  0.6517  1.1667  0.3820
 5647TIP3   OH238499   5.489   5.897   1.825  0.0615  0.4137  0.0530
 5647TIP3    H138500   5.442   5.880   1.907 -2.0965 -0.3138 -1.2784
 5647TIP3    H238501   5.475   5.991   1.810  0.5283  0.5676  0.5263
 5648TIP3   OH238502   0.516   5.116   1.709  0.2174  0.4707  0.9656
 5648TIP3    H138503   0.578   5.092   1.641 -1.6312 -2.3735  0.0658
 5648TIP3    H238504   0.543   5.203   1.739  1.9484  1.2221 -2.3931
 5649TIP3   OH238505   0.988   4.238   7.212 -0.8258 -0.8306 -0.3286
 5649TIP3    H138506   1.001   4.209   7.302  0.3213 -1.1312 -0.5837
 5649TIP3    H238507   1.052   4.308   7.200 -0.4513 -1.3015 -1.1426
 5650TIP3   OH238508   4.684   3.794   0.127 -0.4955  0.1030  0.0077
 5650TIP3    H138509   4.763   3.808   0.179 -0.1327 -2.9634  0.4478
 5650TIP3    H238510   4.706   3.721   0.068 -2.0228  1.1962 -2.0732
 5651TIP3   OH238511   4.843   2.584   1.188 -0.2741  0.5354 -0.4672
 5651TIP3    H138512   4.754   2.604   1.214 -0.2413  0.3441 -0.1974
 5651TIP3    H238513   4.897   2.651   1.231 -0.1278 -0.3215  0.7350
 5652TIP3   OH238514   1.744   6.295   1.612 -0.5266 -0.5643  0.3972
 5652TIP3    H138515   1.753   6.206   1.647  0.5887 -0.0061  1.5890
 5652TIP3    H238516   1.697   6.283   1.529  0.3263 -2.3568  0.1219
 5653TIP3   OH238517   1.799   0.352   7.277 -0.0730 -0.2312  0.7295
 5653TIP3    H138518   1.716   0.313   7.250 -0.5744  0.9594  0.4773
 5653TIP3    H238519   1.775   0.441   7.305  1.2891  0.5965 -0.6112
 5654TIP3   OH238520   6.650   4.969   0.774 -0.1924  0.0255  0.3130
 5654TIP3    H138521   6.690   5.013   0.698 -0.1172  1.6071  1.2223
 5654TIP3    H238522   6.653   4.876   0.752 -1.5094  0.5025 -2.2719
 5655TIP3   OH238523   3.301   2.015   6.327  0.1508  0.4348  0.5924
 5655TIP3    H138524   3.391   1.985   6.320 -0.1248 -0.3949  0.5033
 5655TIP3    H238525   3.308   2.109   6.347  1.0212  0.4216  0.3777
 5656TIP3   OH238526   1.989   0.520   2.203  0.1792  0.0199 -0.2941
 5656TIP3    H138527   1.967   0.586   2.269  2.0685 -0.3372  0.7805
 5656TIP3    H238528   1.966   0.437   2.244 -0.2837 -0.1096 -0.8140
 5657TIP3   OH238529   3.079   0.350   8.560 -0.4546 -0.1785 -0.0635
 5657TIP3    H138530   3.030   0.306   8.629 -1.3210  2.0795  0.8805
 5657TIP3    H238531   3.171   0.335   8.581 -0.7229 -1.1706  0.4335
 5658TIP3   OH238532   5.604   6.118   7.191  0.7178  0.2847  0.0892
 5658TIP3    H138533   5.589   6.070   7.109  1.1622  0.5793 -0.1674
 5658TIP3    H238534   5.516   6.138   7.224  0.4812 -1.4491  0.6469
 5659TIP3   OH238535   5.715   6.429   2.083  0.4067 -0.4639  0.1702
 5659TIP3    H138536   5.696   6.335   2.073  0.1960 -0.3796 -0.2503
 5659TIP3    H238537   5.685   6.468   2.001 -0.0747  0.0618  0.5907
 5660TIP3   OH238538   4.722   4.307   7.362  0.0934 -0.1484 -0.1750
 5660TIP3    H138539   4.770   4.287   7.442 -0.9047 -0.8466  0.2704
 5660TIP3    H238540   4.732   4.230   7.307  2.6355  1.1512 -1.7215
 5661TIP3   OH238541   3.113   6.039   8.058 -0.5690  0.5060  0.2513
 5661TIP3    H138542   3.090   5.975   7.991 -0.5155  0.9361 -0.1788
 5661TIP3    H238543   3.207   6.054   8.047 -0.7183  1.2109 -0.1404
 5662TIP3   OH238544   3.573   6.352   7.671 -0.3097  0.6008  0.0069
 5662TIP3    H138545   3.582   6.315   7.584 -0.8483  1.0535 -0.2429
 5662TIP3    H238546   3.544   6.278   7.726 -1.3368  0.6346 -0.4767
 5663TIP3   OH238547   0.515   4.157   2.042  0.1046 -0.4979  0.1884
 5663TIP3    H138548   0.515   4.085   2.105 -1.1611  0.1465  0.9501
 5663TIP3    H238549   0.431   4.201   2.055 -0.0624 -0.1568 -1.7313
 5664TIP3   OH238550   4.672   1.292   1.356  0.2032  0.4654  0.1068
 5664TIP3    H138551   4.749   1.348   1.346  0.2145  0.3947 -0.2165
 5664TIP3    H238552   4.599   1.346   1.329  0.1699  0.4435  0.1513
 5665TIP3   OH238553   5.700   1.262   7.718 -0.1799  0.6403 -0.0637
 5665TIP3    H138554   5.727   1.226   7.802  0.9180  1.1361 -0.1868
 5665TIP3    H238555   5.688   1.185   7.662 -0.3036  0.3383  0.3757
 5666TIP3   OH238556   5.470   6.790   0.868  0.4831  0.1731 -0.2295
 5666TIP3    H138557   5.542   6.854   0.876 -0.4183  1.1066  0.8159
 5666TIP3    H238558   5.436   6.782   0.957 -1.3024  0.4653 -0.8593
 5667TIP3   OH238559   5.940   3.945   0.981  0.0483 -0.3376 -0.6854
 5667TIP3    H138560   5.903   3.858   0.997  0.0866 -0.3549 -0.6903
 5667TIP3    H238561   6.030   3.939   1.015  0.0677 -0.3154 -0.7330
 5668TIP3   OH238562   1.213   1.379   1.534 -0.1082  0.4566 -0.4604
 5668TIP3    H138563   1.174   1.460   1.565 -1.5838 -0.6043  0.6172
 5668TIP3    H238564   1.140   1.330   1.495  0.5479 -0.7234 -0.2541
 5669TIP3   OH238565   0.763   1.994   0.760  0.2951  0.1264  0.0626
 5669TIP3    H138566   0.743   1.943   0.838 -0.9923 -0.0591 -0.3638
 5669TIP3    H238567   0.695   1.970   0.697  1.2087  0.3845 -1.0722
 5670TIP3   OH238568   4.210   4.017   8.454  0.5319 -0.0593  0.3720
 5670TIP3    H138569   4.179   4.020   8.364  0.3502  0.5227  0.4500
 5670TIP3    H238570   4.206   4.108   8.484 -0.5080 -0.4051  1.3304
 5671TIP3   OH238571   2.416   2.007   6.950  0.5839 -0.4665 -0.1467
 5671TIP3    H138572   2.386   1.917   6.939 -1.0521  0.1550 -1.1939
 5671TIP3    H238573   2.395   2.049   6.867  0.1852  1.1669  0.7399
 5672TIP3   OH238574   3.014   0.700   1.296 -0.2556  0.6237 -0.3783
 5672TIP3    H138575   3.060   0.767   1.245 -0.7447  0.3176 -1.2548
 5672TIP3    H238576   2.932   0.685   1.247 -2.2883  2.5736  2.1557
 5673TIP3   OH238577   4.775   0.299   1.973 -0.1343  0.6547  0.0862
 5673TIP3    H138578   4.821   0.230   2.020  2.3462  1.4506 -0.9972
 5673TIP3    H238579   4.786   0.276   1.881 -1.8189  0.9991 -0.2367
 5674TIP3   OH238580   3.860   1.181   0.163  0.0693 -0.5776  0.5688
 5674TIP3    H138581   3.780   1.231   0.148  1.2343  0.6028 -2.6964
 5674TIP3    H238582   3.869   1.178   0.258 -1.9448  2.3997  0.9946
 5675TIP3   OH238583   0.721   2.335   0.791  0.5219 -0.4598  0.0530
 5675TIP3    H138584   0.728   2.302   0.702  0.9154  1.3432 -0.6332
 5675TIP3    H238585   0.812   2.343   0.821  0.4420 -0.0319  0.1938
 5676TIP3   OH238586   5.492   6.373   7.400 -0.0226 -0.0286 -0.4363
 5676TIP3    H138587   5.523   6.448   7.349 -0.3359 -0.3408 -1.1036
 5676TIP3    H238588   5.564   6.310   7.397 -0.7372 -0.8215 -2.1265
 5677TIP3   OH238589   2.245   1.257   0.363  0.1500 -0.5240 -0.4188
 5677TIP3    H138590   2.257   1.215   0.448 -1.3470  0.1567  0.1564
 5677TIP3    H238591   2.334   1.275   0.332  0.7038 -0.3533  1.1987
 5678TIP3   OH238592   0.369   0.601   7.494 -0.0942 -0.6773 -0.4896
 5678TIP3    H138593   0.430   0.595   7.420  1.3635 -1.1048  0.6811
 5678TIP3    H238594   0.285   0.622   7.455  0.5154 -1.4651 -2.3139
 5679TIP3   OH238595   0.551   1.336   6.855 -0.0470  0.3398  0.3282
 5679TIP3    H138596   0.569   1.419   6.811 -0.6762 -0.5722 -1.7566
 5679TIP3    H238597   0.632   1.285   6.844 -0.8667 -0.6306 -1.6237
 5680TIP3   OH238598   0.749   4.555   1.699  0.1099  0.4259  0.0147
 5680TIP3    H138599   0.672   4.542   1.754 -0.0721 -2.6236 -0.7745
 5680TIP3    H238600   0.784   4.640   1.726 -0.2438 -0.5938  4.4159
 5681TIP3   OH238601   6.915   2.143   1.863 -0.1361  0.6418 -0.4100
 5681TIP3    H138602   6.869   2.077   1.915 -0.0385 -0.0734 -1.2184
 5681TIP3    H238603   6.999   2.155   1.908  0.4445 -0.8494 -1.0504
 5682TIP3   OH238604   1.217   0.154   1.117 -0.1852  0.0335 -0.4219
 5682TIP3    H138605   1.246   0.213   1.048 -0.1697 -0.2670 -0.6758
 5682TIP3    H238606   1.224   0.205   1.197 -1.0625  0.6866 -0.7490
 5683TIP3   OH238607   3.014   6.390   7.998  0.4096  0.1754  0.2923
 5683TIP3    H138608   3.003   6.390   8.093  0.8935 -0.0888  0.3540
 5683TIP3    H238609   3.108   6.383   7.985  0.3579  0.3626 -0.2085
 5684TIP3   OH238610   6.711   4.647   7.311 -0.4164 -0.1977 -0.0010
 5684TIP3    H138611   6.767   4.670   7.385  0.5489  1.1796 -1.1045
 5684TIP3    H238612   6.769   4.604   7.249 -0.8998 -0.1005 -0.5354
 5685TIP3   OH238613   0.949   2.663   1.763  0.3992  0.6740 -0.7388
 5685TIP3    H138614   0.928   2.641   1.853 -0.7238 -2.5514 -1.6599
 5685TIP3    H238615   1.017   2.601   1.738  0.6500  1.4646 -2.1619
 5686TIP3   OH238616   6.233   2.941   0.328  0.3706 -0.6364 -0.9279
 5686TIP3    H138617   6.251   2.951   0.234 -0.6738 -1.2007 -1.2054
 5686TIP3    H238618   6.308   2.982   0.371  0.9538 -0.5200 -2.0078
 5687TIP3   OH238619   5.022   1.069   7.926 -0.0962 -0.8608 -0.1203
 5687TIP3    H138620   4.968   1.141   7.895  0.2988 -0.6338 -0.2767
 5687TIP3    H238621   5.073   1.041   7.850  0.2013 -0.9017  0.0911
 5688TIP3   OH238622   6.115   3.790   7.006  0.3307 -0.6009  0.2289
 5688TIP3    H138623   6.151   3.868   7.047  0.5804 -1.1248  1.0241
 5688TIP3    H238624   6.062   3.823   6.934 -1.1045  0.4153  1.6927
 5689TIP3   OH238625   1.470   3.730   1.527  0.3159 -0.2857  0.1195
 5689TIP3    H138626   1.380   3.710   1.501 -0.9709  2.3051  2.1527
 5689TIP3    H238627   1.510   3.766   1.448 -0.4446 -1.2940 -0.7648
 5690TIP3   OH238628   5.472   2.301   1.841 -0.4277  0.4381 -0.8790
 5690TIP3    H138629   5.429   2.320   1.924  1.5745  0.4106  0.2225
 5690TIP3    H238630   5.520   2.381   1.820  1.6555 -0.5824 -0.3043
 5691TIP3   OH238631   1.433   0.868   8.404 -0.0201 -0.1708  0.2603
 5691TIP3    H138632   1.525   0.843   8.407  0.3132  0.9346 -0.0607
 5691TIP3    H238633   1.395   0.832   8.484  0.1136 -2.7004 -0.7366
 5692TIP3   OH238634   1.978   4.711   0.765 -0.1196 -0.2076 -0.7522
 5692TIP3    H138635   1.928   4.720   0.685 -1.7017 -0.5935  0.1422
 5692TIP3    H238636   1.934   4.768   0.828  1.7751  0.9860 -0.4271
 5693TIP3   OH238637   2.256   0.439   2.188 -0.0055 -0.4058  0.0869
 5693TIP3    H138638   2.169   0.470   2.161  0.4343  1.3373  0.5577
 5693TIP3    H238639   2.311   0.455   2.111  0.0434 -0.8747  0.0249
 5694TIP3   OH238640   1.703   0.076   7.142 -0.2261  0.8633  0.2004
 5694TIP3    H138641   1.708   0.119   7.057  0.8604 -0.4178 -0.4263
 5694TIP3    H238642   1.624   0.022   7.137 -0.7084  1.5314  0.3977
 5695TIP3   OH238643   3.054   5.637   7.751  0.2556 -0.0589 -0.2759
 5695TIP3    H138644   3.103   5.561   7.782 -2.2665 -1.5461  0.3198
 5695TIP3    H238645   2.987   5.601   7.692 -1.2615  1.6265  0.3226
 5696TIP3   OH238646   5.937   6.717   8.310 -0.0767 -0.1929  0.4355
 5696TIP3    H138647   6.025   6.725   8.272 -0.0747 -3.2679 -0.5269
 5696TIP3    H238648   5.878   6.743   8.240 -0.0124  1.3442  0.9049
 5697TIP3   OH238649   3.271   4.600   1.247 -0.6027  0.1563 -0.4016
 5697TIP3    H138650   3.224   4.682   1.232 -1.2458 -0.0967  0.1827
 5697TIP3    H238651   3.361   4.619   1.221  0.0726  2.1038  2.8833
 5698TIP3   OH238652   4.353   2.042   2.480 -0.4475  0.3653  0.2352
 5698TIP3    H138653   4.288   2.055   2.411  0.1595 -1.4188 -0.7438
 5698TIP3    H238654   4.375   1.949   2.474 -0.2963  0.1702  2.7904
 5699TIP3   OH238655   2.215   3.536   1.315 -0.4517  0.2853  0.6600
 5699TIP3    H138656   2.269   3.549   1.394 -0.2381  0.4054  0.4975
 5699TIP3    H238657   2.263   3.582   1.247 -0.9009  0.6218  0.5673
 5700TIP3   OH238658   4.517   3.054   0.351 -0.3445 -0.0611  0.3055
 5700TIP3    H138659   4.421   3.048   0.353 -0.3490  0.0650  0.4390
 5700TIP3    H238660   4.536   3.080   0.261 -0.5064  1.0833  0.5890
 5701TIP3   OH238661   5.083   1.046   8.532  0.3680 -0.2720  0.7041
 5701TIP3    H138662   5.175   1.063   8.552  1.0313 -0.8471 -1.5987
 5701TIP3    H238663   5.047   1.008   8.613  1.9886  0.4958  1.8206
 5702TIP3   OH238664   1.719   0.045   6.443 -0.2515  0.5059 -0.3295
 5702TIP3    H138665   1.660  -0.010   6.495 -0.2872 -0.4329 -1.3360
 5702TIP3    H238666   1.679   0.048   6.356  0.9722  0.1777 -0.9254
 5703TIP3   OH238667   2.134   2.939   0.001 -0.0625  0.3320 -0.1913
 5703TIP3    H138668   2.164   2.892   0.079  1.4809 -1.4836 -1.7770
 5703TIP3    H238669   2.067   2.882  -0.038 -0.8777  1.2551 -0.2005
 5704TIP3   OH238670   1.028   5.912   8.558 -0.0559 -0.0636 -0.1348
 5704TIP3    H138671   1.088   5.866   8.499  0.9273 -1.1979  1.6684
 5704TIP3    H238672   0.977   5.843   8.600 -0.8935  0.7284  0.2013
 5705TIP3   OH238673   5.417   5.198   1.323 -0.4627 -0.5555 -0.2157
 5705TIP3    H138674   5.408   5.124   1.382 -2.5617  1.6121  2.4674
 5705TIP3    H238675   5.332   5.203   1.278  0.1877 -0.6091 -1.4909
 5706TIP3   OH238676   2.146   5.061   7.086  0.6456 -0.1934 -0.4602
 5706TIP3    H138677   2.112   5.150   7.087  1.6034  0.2033 -1.3097
 5706TIP3    H238678   2.157   5.041   6.993  1.6696 -0.7081 -0.2374
 5707TIP3   OH238679   1.519   2.032   7.924  0.4837  0.4593  0.1975
 5707TIP3    H138680   1.449   2.034   7.989 -0.4531  1.4083 -0.8107
 5707TIP3    H238681   1.589   1.982   7.966 -0.7191 -0.3727  1.2968
 5708TIP3   OH238682   4.531   1.734   1.028  0.0261 -0.3184  0.1991
 5708TIP3    H138683   4.610   1.764   1.074 -0.3564  1.5743 -0.2791
 5708TIP3    H238684   4.507   1.653   1.072  0.4510  0.7010  2.4680
 5709TIP3   OH238685   1.617   6.031   0.930  0.3494  0.5095  0.0352
 5709TIP3    H138686   1.580   6.049   0.843 -1.3690 -1.7857  0.1919
 5709TIP3    H238687   1.572   6.092   0.988 -0.7929 -0.0185 -0.2742
 5710TIP3   OH238688   0.261   2.008   7.197 -0.2229 -0.0788 -0.0380
 5710TIP3    H138689   0.215   1.944   7.143  0.4262  0.6378 -1.5035
 5710TIP3    H238690   0.322   1.956   7.250  0.7544 -0.6781 -1.6569
 5711TIP3   OH238691   1.913   5.912   0.510  0.2674  0.2672  0.3823
 5711TIP3    H138692   1.964   5.831   0.502  1.9854  1.4170 -1.2773
 5711TIP3    H238693   1.963   5.966   0.571  0.3363  0.8813 -0.1985
 5712TIP3   OH238694   2.550   5.489   2.915 -0.1386 -0.4567  0.5560
 5712TIP3    H138695   2.560   5.400   2.882  0.4527 -0.5881  1.0701
 5712TIP3    H238696   2.539   5.543   2.836  0.4669 -0.8655  0.1812
 5713TIP3   OH238697   4.113   1.359   8.121 -0.1847  0.0010 -0.2239
 5713TIP3    H138698   4.022   1.390   8.120 -0.4467 -0.7196  0.1742
 5713TIP3    H238699   4.110   1.277   8.071 -0.0099 -0.6815  0.8491
 5714TIP3   OH238700   1.429   6.070   1.793 -0.0081  0.9079 -0.2476
 5714TIP3    H138701   1.470   6.048   1.709  0.8833 -0.8574  0.5801
 5714TIP3    H238702   1.492   6.041   1.858 -1.2431  1.0287  1.0521
 5715TIP3   OH238703   2.503   1.281   7.988 -0.2562  0.1444 -0.1306
 5715TIP3    H138704   2.527   1.249   7.901  0.8257 -1.0343  0.5686
 5715TIP3    H238705   2.416   1.246   8.004  0.9049 -2.7014  0.6386
 5716TIP3   OH238706   3.564   6.017   0.614 -0.3608 -0.0220  0.2081
 5716TIP3    H138707   3.475   6.005   0.579 -1.1056  2.3448  1.1204
 5716TIP3    H238708   3.619   6.026   0.536 -0.8919 -1.3401 -0.3666
 5717TIP3   OH238709   0.973   4.791   0.896  0.3659 -0.0922 -0.0881
 5717TIP3    H138710   0.945   4.700   0.882  0.0478  0.3056 -2.3428
 5717TIP3    H238711   1.022   4.788   0.978  0.3095 -2.2865 -0.0702
 5718TIP3   OH238712   4.071   3.331   7.499  0.2815  0.0510 -0.0190
 5718TIP3    H138713   3.996   3.293   7.454  1.5790 -1.0932 -1.3042
 5718TIP3    H238714   4.119   3.378   7.430  1.0057  0.3355  0.6629
 5719TIP3   OH238715   3.567   5.418   7.484  0.1512  0.7240  0.0048
 5719TIP3    H138716   3.488   5.466   7.507  0.2069  0.8203 -0.0084
 5719TIP3    H238717   3.640   5.474   7.510  0.2971 -0.6192  2.8572
 5720TIP3   OH238718   6.675   2.176   1.721  0.0736  0.0150  0.1749
 5720TIP3    H138719   6.765   2.150   1.740  0.2661  0.7366  0.2976
 5720TIP3    H238720   6.646   2.115   1.654  1.0933  0.5468 -0.7910
 5721TIP3   OH238721   1.632   5.299   0.359  0.0772  0.6232 -0.1444
 5721TIP3    H138722   1.640   5.315   0.453  0.6436  0.4066 -0.1540
 5721TIP3    H238723   1.652   5.206   0.349 -1.4948  0.2618 -0.2964
 5722TIP3   OH238724   5.800   0.424   0.705  0.2264 -0.1885  0.3129
 5722TIP3    H138725   5.768   0.391   0.621 -0.0463 -0.9570  0.7041
 5722TIP3    H238726   5.730   0.482   0.735  1.0278  1.3816 -0.7194
 5723TIP3   OH238727   0.782   5.843   7.739  0.4886 -0.0105  0.0545
 5723TIP3    H138728   0.731   5.815   7.815 -1.1292  1.2421 -0.5219
 5723TIP3    H238729   0.871   5.855   7.772  0.1414 -0.9390  1.3891
 5724TIP3   OH238730   5.171   0.071   1.324  0.6656  0.8446 -0.6142
 5724TIP3    H138731   5.133   0.034   1.404  0.5120 -0.9480 -1.4691
 5724TIP3    H238732   5.259   0.099   1.349  1.7651 -2.4266 -0.4263
 5725TIP3   OH238733   4.558   4.614   7.264  0.1860  0.0099  0.0759
 5725TIP3    H138734   4.548   4.709   7.272  2.1881  0.4280 -1.3435
 5725TIP3    H238735   4.653   4.601   7.262 -0.0529 -2.0570  0.3969
 5726TIP3   OH238736   5.411   0.787   3.028 -0.0346 -0.5580  0.1692
 5726TIP3    H138737   5.397   0.845   2.953  0.6790 -0.6934 -0.0725
 5726TIP3    H238738   5.358   0.710   3.010 -0.0372 -0.4954 -0.0854
 5727TIP3   OH238739   6.848   2.761   0.656 -0.1335 -0.1636 -0.0102
 5727TIP3    H138740   6.870   2.679   0.700 -0.1886 -0.3722 -0.3687
 5727TIP3    H238741   6.787   2.735   0.586 -1.1885  0.3318  0.6863
 5728TIP3   OH238742   6.439   6.861   1.507 -0.7860 -0.1743  0.1476
 5728TIP3    H138743   6.458   6.908   1.588 -1.6680  0.0071  0.2676
 5728TIP3    H238744   6.516   6.807   1.491 -0.2364  0.4625  0.6234
 5729TIP3   OH238745   2.278   5.706   1.792 -0.2135  0.1127  0.3092
 5729TIP3    H138746   2.289   5.655   1.712  1.5996  0.6523  0.1628
 5729TIP3    H238747   2.206   5.765   1.774 -2.0902 -2.0257  0.3254
 5730TIP3   OH238748   3.051   3.984   1.973 -0.4906 -0.1585 -0.1509
 5730TIP3    H138749   3.059   3.927   2.049  0.5827  1.0894  0.7139
 5730TIP3    H238750   3.025   4.069   2.009  1.6563  0.9069 -0.9317
 5731TIP3   OH238751   5.756   4.817   0.619 -0.3334 -0.4542  0.7132
 5731TIP3    H138752   5.791   4.742   0.572  1.6972 -0.2461  1.7990
 5731TIP3    H238753   5.782   4.893   0.566  0.1280 -0.3565  1.0693
 5732TIP3   OH238754   6.898   1.501   7.211  0.3224 -0.3842  0.5761
 5732TIP3    H138755   6.833   1.447   7.254 -0.7319  1.1700  1.0184
 5732TIP3    H238756   6.858   1.526   7.128  0.7170 -0.1536  0.4498
 5733TIP3   OH238757   4.851   2.561   7.490 -0.0407  0.4160 -0.3487
 5733TIP3    H138758   4.834   2.634   7.549  1.4936 -0.2326  0.9623
 5733TIP3    H238759   4.835   2.597   7.402 -1.3103  1.7023  0.3691
 5734TIP3   OH238760   3.925   0.654   2.438 -0.5068 -0.2709  0.2174
 5734TIP3    H138761   4.007   0.637   2.484  0.7668  1.3587 -1.2904
 5734TIP3    H238762   3.857   0.615   2.493  1.1482 -0.5622  2.1531
 5735TIP3   OH238763   5.872   2.993   0.299 -0.3930  0.2048  0.1860
 5735TIP3    H138764   5.865   2.994   0.394  2.0625 -0.9028  0.4677
 5735TIP3    H238765   5.788   2.957   0.269  0.2119 -3.4498  2.2451
 5736TIP3   OH238766   2.773   6.071   8.555  0.2702 -0.1603  0.3869
 5736TIP3    H138767   2.704   6.108   8.500  0.0729 -3.4799 -1.9341
 5736TIP3    H238768   2.743   5.982   8.574  2.3265 -0.5280  2.3517
 5737TIP3   OH238769   5.328   2.675   7.291  0.2185 -0.2944 -0.0799
 5737TIP3    H138770   5.235   2.689   7.307  0.0509 -1.9749  0.5963
 5737TIP3    H238771   5.334   2.583   7.266  1.8321 -0.5053  0.9811
 5738TIP3   OH238772   0.606   0.474   8.124 -0.1665 -0.0674 -0.0629
 5738TIP3    H138773   0.669   0.530   8.079  1.7389 -1.0664  1.2371
 5738TIP3    H238774   0.563   0.533   8.187  1.3654  0.1278  0.8503
 5739TIP3   OH238775   2.829   1.826   7.441  0.3600  0.2123 -0.4394
 5739TIP3    H138776   2.750   1.773   7.450  0.8577 -0.3531  0.9006
 5739TIP3    H238777   2.883   1.776   7.379  0.4925 -0.4482  0.1969
 5740TIP3   OH238778   1.503   3.576   8.506  0.0902 -0.5690 -0.3260
 5740TIP3    H138779   1.426   3.610   8.553 -1.0560 -1.9734 -1.1197
 5740TIP3    H238780   1.557   3.537   8.574 -0.8955 -1.3692  0.0184
 5741TIP3   OH238781   6.069   5.139   0.455 -0.6578 -0.5855 -0.0359
 5741TIP3    H138782   6.053   5.168   0.545  1.3046 -1.1781  0.5333
 5741TIP3    H238783   6.102   5.217   0.411 -0.0189 -0.7160  0.2075
 5742TIP3   OH238784   1.163   5.760   7.640 -0.0573  0.2437  0.5655
 5742TIP3    H138785   1.113   5.839   7.619 -1.4847 -0.3574  1.4823
 5742TIP3    H238786   1.125   5.692   7.585  0.1501 -0.1070  0.8500
 5743TIP3   OH238787   4.095   1.942   0.049  0.1388 -0.5500 -0.1517
 5743TIP3    H138788   4.189   1.942   0.034  0.0767  0.7528 -0.7606
 5743TIP3    H238789   4.057   1.913  -0.034  0.0039 -1.0456  0.0832
 5744TIP3   OH238790   2.463   5.393   1.117  0.2683 -0.1535  0.2069
 5744TIP3    H138791   2.414   5.355   1.044  0.1380  0.5657 -0.0851
 5744TIP3    H238792   2.506   5.318   1.159  0.6789 -0.5329 -0.8551
 5745TIP3   OH238793   2.259   3.682   1.592  0.0010 -0.3821 -0.0540
 5745TIP3    H138794   2.351   3.654   1.596  0.0833 -0.0219  0.9762
 5745TIP3    H238795   2.250   3.743   1.666 -0.2107  2.1939 -2.0523
 5746TIP3   OH238796   1.224   5.457   8.103 -0.2745 -0.0690  0.2419
 5746TIP3    H138797   1.295   5.436   8.042 -0.0970  0.3456  0.3011
 5746TIP3    H238798   1.177   5.529   8.061  0.2225  0.6331  0.8803
 5747TIP3   OH238799   2.028   6.905   2.415  0.5292  0.0863  0.0456
 5747TIP3    H138800   1.933   6.904   2.412  0.5021 -0.4961 -3.4507
 5747TIP3    H238801   2.051   6.996   2.433 -0.8025  0.9455 -2.1756
 5748TIP3   OH238802   0.212   5.172   6.646  0.0865  0.0639  0.2919
 5748TIP3    H138803   0.192   5.133   6.731  1.3367  1.4863  1.2892
 5748TIP3    H238804   0.132   5.219   6.621  0.4220  1.5137  1.7981
 5749TIP3   OH238805   1.714   6.329   8.181  0.3327  0.5958  0.0020
 5749TIP3    H138806   1.807   6.349   8.172 -0.0786  1.7029 -3.1366
 5749TIP3    H238807   1.677   6.348   8.094 -2.4349 -1.9982  0.4406
 5750TIP3   OH238808   6.025   4.247   1.202 -0.3863  0.0699 -0.3029
 5750TIP3    H138809   5.953   4.275   1.259 -1.4082 -1.3194 -0.8363
 5750TIP3    H238810   6.104   4.262   1.253 -1.1605  0.2657  0.8841
 5751TIP3   OH238811   0.441   4.177   0.199  0.2173 -0.2416  0.5167
 5751TIP3    H138812   0.369   4.114   0.194  0.2014 -0.2408  0.7359
 5751TIP3    H238813   0.416   4.235   0.270  0.2564 -0.0164  0.3460
 5752TIP3   OH238814   4.410   1.316   8.311 -0.0858  0.4265  0.2812
 5752TIP3    H138815   4.502   1.317   8.285 -0.1612  1.3247  0.0241
 5752TIP3    H238816   4.388   1.223   8.318  0.1916  0.1388 -1.9232
 5753TIP3   OH238817   4.255   0.969   7.785  0.0234  0.0309  0.2660
 5753TIP3    H138818   4.235   1.001   7.873  0.0679  0.6442  0.0590
 5753TIP3    H238819   4.350   0.966   7.781  0.1001  1.7805 -0.3549
 5754TIP3   OH238820   4.589   0.299   2.171  0.5481 -0.2877 -0.1559
 5754TIP3    H138821   4.659   0.274   2.111 -0.7485 -0.3741 -1.7187
 5754TIP3    H238822   4.550   0.216   2.198 -0.4204 -0.1873 -1.1735
 5755TIP3   OH238823   4.320   2.400   1.051  0.1478  0.0674 -0.0121
 5755TIP3    H138824   4.268   2.321   1.036  0.8306 -0.4434  0.2562
 5755TIP3    H238825   4.259   2.462   1.090 -0.3192 -0.4433  0.0815
 5756TIP3   OH238826   4.224   1.097   8.017 -0.4450  0.3370  0.3107
 5756TIP3    H138827   4.315   1.123   8.006  0.6923 -3.0122  0.5659
 5756TIP3    H238828   4.222   1.053   8.102 -1.1238 -3.4948 -1.4698
 5757TIP3   OH238829   1.338   2.867   8.312  0.0910  0.0107 -0.3348
 5757TIP3    H138830   1.249   2.863   8.278 -0.3599  1.5678  0.5214
 5757TIP3    H238831   1.386   2.802   8.262 -2.3933 -4.0084  1.9557
 5758TIP3   OH238832   3.359   0.574   1.807 -0.0329 -0.1819  0.2158
 5758TIP3    H138833   3.327   0.628   1.880  0.4118  0.3453  0.0314
 5758TIP3    H238834   3.449   0.605   1.792 -0.0301 -0.4673 -0.3800
 5759TIP3   OH238835   1.835   1.701   8.283  0.2983 -0.0837 -0.2918
 5759TIP3    H138836   1.747   1.680   8.313  0.9554  0.2159  1.9995
 5759TIP3    H238837   1.868   1.619   8.247 -1.3476  0.1240 -2.5143
 5760TIP3   OH238838   5.535   3.399   1.916  0.1853 -0.0752  0.7843
 5760TIP3    H138839   5.614   3.385   1.864  0.3115  3.2488 -0.1320
 5760TIP3    H238840   5.567   3.408   2.006  0.9903  1.6203  0.3763
 5761TIP3   OH238841   4.041   3.654   2.435  0.0467 -0.0985 -0.2957
 5761TIP3    H138842   3.952   3.685   2.414  0.3357  0.3559 -0.8847
 5761TIP3    H238843   4.027   3.575   2.487 -0.7069  0.0654 -0.2312
 5762TIP3   OH238844   2.746   0.524   7.966 -0.0251 -0.5873 -0.0730
 5762TIP3    H138845   2.720   0.432   7.972  0.9568 -1.0193 -1.6774
 5762TIP3    H238846   2.771   0.535   7.874 -0.5907  1.4215 -0.0345
 5763TIP3   OH238847   1.380   6.246   7.045 -0.3367 -0.3175  0.0676
 5763TIP3    H138848   1.435   6.220   6.971 -0.5555 -0.1319 -0.1635
 5763TIP3    H238849   1.374   6.167   7.099  0.8831 -0.0906  0.5647
 5764TIP3   OH238850   0.014   5.957   0.543 -0.3236 -0.1248 -0.6858
 5764TIP3    H138851  -0.056   6.022   0.544 -1.0356 -0.8742 -0.4455
 5764TIP3    H238852   0.019   5.929   0.452  1.1859  1.4938 -1.1576
 5765TIP3   OH238853   1.667   4.622   6.409 -0.1439 -0.2046 -0.3604
 5765TIP3    H138854   1.675   4.527   6.401  0.0703 -0.0760 -2.1367
 5765TIP3    H238855   1.638   4.651   6.323  1.3307  1.4874 -0.3480
 5766TIP3   OH238856   6.418   1.554   6.515 -0.6903  0.2317 -0.1606
 5766TIP3    H138857   6.384   1.480   6.566 -0.3262  0.7781  0.9203
 5766TIP3    H238858   6.438   1.620   6.581 -0.4320  1.0634 -1.0592
 5767TIP3   OH238859   3.238   6.178   1.205  0.1291 -0.5785 -0.3910
 5767TIP3    H138860   3.312   6.120   1.224  0.9139  1.0686  2.2608
 5767TIP3    H238861   3.265   6.228   1.128  2.7263  1.2350  1.5223
 5768TIP3   OH238862   5.301   5.494   7.604  0.0910  0.6367  0.0552
 5768TIP3    H138863   5.391   5.528   7.600  0.1732  0.4652  0.4016
 5768TIP3    H238864   5.250   5.555   7.550  0.4367  0.6688 -0.2371
 5769TIP3   OH238865   5.730   1.616   7.100 -0.2223 -0.3101 -0.4393
 5769TIP3    H138866   5.681   1.696   7.119 -0.0721 -0.5822  1.1517
 5769TIP3    H238867   5.820   1.645   7.090 -0.0200 -0.3756  1.0380
 5770TIP3   OH238868   5.084   3.805   2.306  0.2236  0.3558  0.9536
 5770TIP3    H138869   5.037   3.887   2.292  0.4653  0.3732  0.1849
 5770TIP3    H238870   5.176   3.826   2.287  0.0679 -0.4636 -0.9245
 5771TIP3   OH238871   0.412   4.558   7.029 -0.0898  0.0062 -0.1668
 5771TIP3    H138872   0.423   4.586   7.120 -0.1762  0.0891 -0.1810
 5771TIP3    H238873   0.464   4.620   6.978 -0.8789  0.6091 -0.2622
 5772TIP3   OH238874   1.005   5.430   1.292  0.0455 -0.2965  0.2122
 5772TIP3    H138875   0.940   5.405   1.226 -1.1758 -0.2544  1.3548
 5772TIP3    H238876   1.010   5.355   1.350  0.6819 -0.1136  0.3978
 5773TIP3   OH238877   1.048   1.633   1.509 -0.5253 -0.0775 -0.1175
 5773TIP3    H138878   0.988   1.641   1.584 -1.4177 -0.0225 -0.8118
 5773TIP3    H238879   1.077   1.722   1.492 -2.2624  0.3045 -1.3454
 5774TIP3   OH238880   0.834   5.651   1.053 -0.4442 -0.5826 -0.5911
 5774TIP3    H138881   0.805   5.622   0.967 -0.6536 -2.4711  0.0802
 5774TIP3    H238882   0.834   5.572   1.107  0.6680  0.3641  0.8845
 5775TIP3   OH238883   3.120   1.767   6.959  0.4062  0.4394 -0.2338
 5775TIP3    H138884   3.149   1.683   6.925 -0.5096  0.7510 -1.8451
 5775TIP3    H238885   3.202   1.814   6.978  1.0036  0.3857 -2.3864
 5776TIP3   OH238886   3.759   1.092   1.007  0.0850 -0.0780  0.0764
 5776TIP3    H138887   3.711   1.147   1.068 -0.7127 -1.9852  1.2735
 5776TIP3    H238888   3.795   1.022   1.062  2.3448  0.0371 -1.1331
 5777TIP3   OH238889   4.362   0.601   0.789 -0.6019  0.4061  0.3837
 5777TIP3    H138890   4.456   0.593   0.773 -0.4970 -3.5980  1.8040
 5777TIP3    H238891   4.325   0.617   0.702  1.2893  0.2069 -0.5125
 5778TIP3   OH238892   2.280   1.787   0.008  0.0158  0.0971 -0.3474
 5778TIP3    H138893   2.279   1.755   0.099  0.4806  0.9915 -0.0096
 5778TIP3    H238894   2.320   1.874   0.014 -1.0278  0.6729 -1.2482
 5779TIP3   OH238895   0.045   3.677   7.582  0.0625  0.4957  0.2152
 5779TIP3    H138896   0.103   3.753   7.578 -0.8432  1.1584 -1.0278
 5779TIP3    H238897   0.015   3.664   7.492  0.1191 -1.2925  0.4199
 5780TIP3   OH238898   3.817   4.668   0.971 -0.2624  0.4020 -0.3117
 5780TIP3    H138899   3.782   4.651   0.883  2.1656 -1.7735 -0.9865
 5780TIP3    H238900   3.850   4.758   0.966  1.6367 -0.3145 -2.3964
 5781TIP3   OH238901   1.763   6.028   1.722 -0.2794  0.4849 -0.7521
 5781TIP3    H138902   1.787   5.994   1.636  0.1064  0.6711 -0.7225
 5781TIP3    H238903   1.697   5.968   1.755  0.8409 -0.6120 -0.4232
 5782TIP3   OH238904   5.151   6.612   6.725 -0.6005 -0.1989 -0.4468
 5782TIP3    H138905   5.100   6.531   6.714 -2.2326 -0.2692  4.7807
 5782TIP3    H238906   5.237   6.582   6.756 -0.7146 -0.0222  0.0608
 5783TIP3   OH238907   6.286   1.181   1.544  0.3565 -0.1595  0.1701
 5783TIP3    H138908   6.195   1.191   1.570  0.8937  1.8432  1.5416
 5783TIP3    H238909   6.318   1.109   1.599 -0.5229 -1.3720 -0.8424
 5784TIP3   OH238910   2.647   5.073   6.942  0.3661 -0.2980 -0.1031
 5784TIP3    H138911   2.629   4.988   6.982 -1.5240  1.1613  2.4322
 5784TIP3    H238912   2.644   5.056   6.848 -1.1882 -2.7919  0.2970
 5785TIP3   OH238913   0.510   3.747   6.871  0.4699 -0.5916  0.2809
 5785TIP3    H138914   0.497   3.653   6.878  0.2239 -1.1400 -4.6002
 5785TIP3    H238915   0.600   3.757   6.840 -0.2893  0.5240 -1.7013
 5786TIP3   OH238916   2.283   1.623   2.566  0.8810  0.8672  0.1727
 5786TIP3    H138917   2.330   1.576   2.635  1.3821  0.9872 -0.0814
 5786TIP3    H238918   2.314   1.713   2.571 -0.1536  1.2086  0.7197
 5787TIP3   OH238919   2.546   1.704   7.539  0.1064  0.1858  0.5275
 5787TIP3    H138920   2.547   1.703   7.443  2.0242 -0.3664  0.5279
 5787TIP3    H238921   2.454   1.691   7.561 -0.3676  0.2525 -1.2297
 5788TIP3   OH238922   0.974   0.191   2.225 -0.4232  0.1575  0.2213
 5788TIP3    H138923   1.055   0.142   2.210 -0.6802 -0.6216  1.2122
 5788TIP3    H238924   0.913   0.125   2.260 -0.6671  1.2539  1.9742
 5789TIP3   OH238925   6.274   4.221   6.945  0.3437  0.4127 -0.2310
 5789TIP3    H138926   6.361   4.207   6.983 -0.0426 -0.1135  0.4824
 5789TIP3    H238927   6.261   4.148   6.886 -0.6564 -1.0016  1.6282
 5790TIP3   OH238928   3.638   1.211   0.758 -0.1946  0.0600  0.5693
 5790TIP3    H138929   3.644   1.150   0.684 -0.4407  0.1048  0.5105
 5790TIP3    H238930   3.698   1.176   0.824  0.3327  0.2396  0.1934
 5791TIP3   OH238931   2.553   1.440   2.543  0.1695 -0.6114 -0.3190
 5791TIP3    H138932   2.559   1.441   2.638  1.0554  0.3261 -0.3606
 5791TIP3    H238933   2.522   1.353   2.521 -0.6300 -0.6308  0.8543
 5792TIP3   OH238934   6.338   6.557   7.452  0.2184 -0.6276  0.4591
 5792TIP3    H138935   6.358   6.643   7.414 -0.4193 -0.7602 -0.1952
 5792TIP3    H238936   6.322   6.576   7.545 -4.1118  0.7388 -0.3521
 5793TIP3   OH238937   4.207   5.612   7.345 -0.4027  0.2135 -0.0028
 5793TIP3    H138938   4.150   5.681   7.378  0.2895 -0.0048  1.7799
 5793TIP3    H238939   4.244   5.572   7.424  0.7175 -0.9065 -1.0505
 5794TIP3   OH238940   6.038   1.581   6.817 -0.2963  0.2534  0.2410
 5794TIP3    H138941   6.114   1.562   6.872 -0.0357  0.8683  0.1008
 5794TIP3    H238942   6.039   1.676   6.806 -2.5063  0.6215  2.2994
 5795TIP3   OH238943   1.567   1.117   7.048 -0.0862  0.2570 -0.2811
 5795TIP3    H138944   1.510   1.192   7.034 -0.0956  0.6250  1.4798
 5795TIP3    H238945   1.530   1.073   7.124  1.2098 -0.2487  0.0885
 5796TIP3   OH238946   4.012   2.214   6.286 -0.3106  0.4321 -0.4126
 5796TIP3    H138947   3.967   2.171   6.359  0.6363  0.5434  0.2503
 5796TIP3    H238948   4.031   2.302   6.318  0.5473  0.3247 -0.6095
 5797TIP3   OH238949   6.480   1.973   1.943 -0.0336  0.3762  0.6201
 5797TIP3    H138950   6.435   2.026   1.877 -0.2668  0.4950  0.8657
 5797TIP3    H238951   6.420   1.900   1.959 -0.5096  0.9298  1.4915
 5798TIP3   OH238952   1.992   5.221   8.450 -0.3194  0.1151  0.3453
 5798TIP3    H138953   1.900   5.233   8.427 -0.2045  0.0739 -0.1487
 5798TIP3    H238954   2.023   5.308   8.474 -0.4462  0.1570  0.3581
 5799TIP3   OH238955   0.147   0.035   7.480  0.2616 -0.1393 -0.5484
 5799TIP3    H138956   0.190   0.106   7.432  0.2978  0.5579  0.4935
 5799TIP3    H238957   0.218  -0.008   7.528  0.1423 -0.4964 -0.6840
 5800TIP3   OH238958   6.737   4.995   1.243 -0.4554  0.0739  0.2004
 5800TIP3    H138959   6.802   4.981   1.312 -0.9645  1.0088  0.8864
 5800TIP3    H238960   6.675   4.922   1.254 -1.0612  0.7345  1.3663
 5801TIP3   OH238961   4.919   1.729   8.175  0.0037  0.8216  0.1957
 5801TIP3    H138962   4.895   1.815   8.139  0.5866  1.2285  0.7655
 5801TIP3    H238963   4.857   1.668   8.134  0.0085  1.4142 -0.7217
 5802TIP3   OH238964   0.604   1.975   7.732  0.3429  0.1131 -0.3619
 5802TIP3    H138965   0.648   2.044   7.682 -0.5479  3.5399  3.0830
 5802TIP3    H238966   0.511   1.995   7.725 -0.0345 -1.4319 -0.1211
 5803TIP3   OH238967   5.669   5.297   1.625  0.1115  0.1217 -0.0691
 5803TIP3    H138968   5.646   5.208   1.596 -2.2252  0.0007  1.8899
 5803TIP3    H238969   5.739   5.283   1.689 -0.0687 -0.2821  0.0467
 5804TIP3   OH238970   0.130   3.425   1.887 -0.5347  0.3021 -0.6113
 5804TIP3    H138971   0.099   3.381   1.967 -0.3551  0.9173 -0.1932
 5804TIP3    H238972   0.115   3.361   1.817 -0.2787 -0.4209 -0.0233
 5805TIP3   OH238973   1.479   1.027   7.762 -0.2674 -0.0624  0.6114
 5805TIP3    H138974   1.492   1.114   7.798 -2.1613  0.9787 -1.0442
 5805TIP3    H238975   1.399   0.995   7.804 -0.4226 -0.3667  0.1008
 5806TIP3   OH238976   3.188   5.177   8.424 -0.7862  0.0024  0.2706
 5806TIP3    H138977   3.283   5.177   8.426 -0.7836 -0.6135  1.9434
 5806TIP3    H238978   3.166   5.140   8.338  0.5026 -1.4970  0.5370
 5807TIP3   OH238979   0.139   3.667   7.852  0.0504 -0.4053 -0.5709
 5807TIP3    H138980   0.091   3.675   7.769 -1.2259  0.7774  0.2385
 5807TIP3    H238981   0.230   3.686   7.829 -0.5308  1.5753 -1.4614
 5808TIP3   OH238982   0.713   6.493   1.690 -0.0864  0.2209 -0.0089
 5808TIP3    H138983   0.706   6.572   1.636 -0.1665  1.4317  1.6824
 5808TIP3    H238984   0.689   6.422   1.632  1.2455  1.2906 -1.9567
 5809TIP3   OH238985   0.261   4.035   7.969 -0.5394  0.2389  0.0760
 5809TIP3    H138986   0.252   4.069   7.880 -1.8880 -0.9202 -0.2687
 5809TIP3    H238987   0.172   4.037   8.004 -0.3329 -1.0853  0.7188
 5810TIP3   OH238988   1.961   1.977   0.154  0.1358  0.2455  0.5693
 5810TIP3    H138989   1.986   2.070   0.151  0.9432  0.0259  0.3948
 5810TIP3    H238990   1.935   1.956   0.064  0.3976  0.1842  0.5070
 5811TIP3   OH238991   3.983   4.347   0.716 -0.2429  0.6172  0.0315
 5811TIP3    H138992   4.041   4.402   0.769 -1.2615  3.0776 -1.2861
 5811TIP3    H238993   4.043   4.293   0.664  0.8701  2.1203 -0.3180
 5812TIP3   OH238994   5.404   0.874   8.256  0.1996  0.3345  0.1629
 5812TIP3    H138995   5.310   0.892   8.256  0.5064  2.0982 -0.5876
 5812TIP3    H238996   5.427   0.871   8.349 -0.5102  0.4161  0.3484
 5813TIP3   OH238997   0.861   6.533   8.123  0.6219 -0.4973 -0.2339
 5813TIP3    H138998   0.952   6.561   8.136  0.8317 -1.3510  0.2640
 5813TIP3    H238999   0.869   6.440   8.099 -0.1153 -0.5482 -0.2968
 5814TIP3   OH239000   6.843   4.238   7.047 -0.0952  0.0776 -0.1955
 5814TIP3    H139001   6.869   4.193   6.967 -1.0010  1.2738 -1.2159
 5814TIP3    H239002   6.781   4.179   7.089  0.4252 -0.5870 -0.3586
 5815TIP3   OH239003   5.221   4.798   7.921  0.1407 -0.2915 -0.1630
 5815TIP3    H139004   5.225   4.849   7.841 -0.3336 -0.3258 -0.2098
 5815TIP3    H239005   5.161   4.846   7.978 -0.2924 -0.7738 -0.2000
 5816TIP3   OH239006   2.278   4.550   7.157 -0.5041 -0.1341  0.4907
 5816TIP3    H139007   2.308   4.467   7.195 -0.9734 -1.0929 -1.1097
 5816TIP3    H239008   2.316   4.550   7.069 -2.3653  0.2367 -0.3583
 5817TIP3   OH239009   1.302   3.800   1.095 -0.0225  0.1660  0.6901
 5817TIP3    H139010   1.338   3.755   1.019 -0.9966  0.5230  0.0098
 5817TIP3    H239011   1.245   3.868   1.059 -0.3756  0.4403  1.7321
 5818TIP3   OH239012   5.813   1.597   1.654  0.0099  0.2287  0.5844
 5818TIP3    H139013   5.774   1.551   1.728  0.8733 -0.0245  0.8862
 5818TIP3    H239014   5.905   1.609   1.678 -0.2058  2.2599  0.6012
 5819TIP3   OH239015   6.087   0.983   0.776  0.3105  0.6452 -0.1267
 5819TIP3    H139016   6.074   0.908   0.718  1.3425  1.5751 -1.6458
 5819TIP3    H239017   6.023   1.048   0.747  1.6910  1.6086 -1.1860
 5820TIP3   OH239018   4.734   3.314   0.045 -0.0005 -0.4501 -0.4557
 5820TIP3    H139019   4.769   3.293   0.132  0.6720  0.0690 -0.5911
 5820TIP3    H239020   4.713   3.407   0.050 -0.7847 -0.6181 -0.5772
 5821TIP3   OH239021   2.522   4.642   6.769  0.3322 -0.4178 -0.2383
 5821TIP3    H139022   2.568   4.675   6.846 -1.4323  0.5619  0.4482
 5821TIP3    H239023   2.540   4.707   6.701 -1.3510  0.8999  0.5069
 5822TIP3   OH239024   2.744   2.274   1.755  0.6464 -0.2241  0.4809
 5822TIP3    H139025   2.780   2.241   1.837  0.7779 -0.0945  0.4752
 5822TIP3    H239026   2.814   2.328   1.718 -0.0974  1.3193  1.2241
 5823TIP3   OH239027   2.528   0.504   6.605  0.3302 -0.0587  0.7656
 5823TIP3    H139028   2.521   0.576   6.667 -1.9582  0.0672  0.4605
 5823TIP3    H239029   2.496   0.427   6.653 -0.1202 -0.2404  0.1961
 5824TIP3   OH239030   5.445   2.671   6.447  0.0184 -0.1731 -0.2115
 5824TIP3    H139031   5.513   2.623   6.401 -0.8451 -0.8096 -0.8541
 5824TIP3    H239032   5.476   2.762   6.449  0.9129 -0.4659 -0.4073
 5825TIP3   OH239033   2.348   2.931   1.907  0.1071  0.2333 -0.2565
 5825TIP3    H139034   2.387   2.934   1.995  0.9596  1.3845 -0.6434
 5825TIP3    H239035   2.379   2.849   1.869  0.5110  0.1777  0.1850
 5826TIP3   OH239036   3.795   1.117   1.799 -0.2375 -0.0026  0.3743
 5826TIP3    H139037   3.781   1.115   1.704 -1.5462 -1.5989  0.5638
 5826TIP3    H239038   3.867   1.056   1.814 -0.9823 -0.8712  0.5164
 5827TIP3   OH239039   0.908   3.959   7.081  0.2233 -0.2433 -0.0671
 5827TIP3    H139040   0.914   4.039   7.133  0.8971 -0.2088 -0.1898
 5827TIP3    H239041   0.986   3.959   7.027 -1.7473  1.1561 -3.2055
 5828TIP3   OH239042   2.205   2.252   8.084  0.4345  0.0325 -0.4706
 5828TIP3    H139043   2.258   2.240   8.163  2.9973 -0.2760 -2.0962
 5828TIP3    H239044   2.199   2.347   8.073  0.4142  0.0715 -0.1154
 5829TIP3   OH239045   0.102   4.411   0.539 -0.3151  0.6897  0.1046
 5829TIP3    H139046   0.008   4.425   0.553 -0.2159  0.5220  1.0450
 5829TIP3    H239047   0.144   4.459   0.611  0.2869  0.2707  0.0380
 5830TIP3   OH239048   1.639   2.382   7.662 -0.6238  0.7378  0.6827
 5830TIP3    H139049   1.564   2.392   7.721  0.3248 -1.2719  2.3405
 5830TIP3    H239050   1.671   2.294   7.678  0.0650  0.2927 -2.4754
 5831TIP3   OH239051   6.867   6.147   7.632 -0.0650 -0.4430 -0.0061
 5831TIP3    H139052   6.816   6.225   7.608  1.0008  0.3739  0.2661
 5831TIP3    H239053   6.881   6.157   7.727  0.4882 -0.7129 -0.0578
 5832TIP3   OH239054   3.009   3.787   1.792  0.0450  0.2554 -0.4710
 5832TIP3    H139055   3.007   3.870   1.839 -0.2083 -0.4713  0.8700
 5832TIP3    H239056   2.958   3.727   1.847  0.5769 -0.8873 -1.1841
 5833TIP3   OH239057   6.160   0.030   0.051  0.1003  0.2424  0.3009
 5833TIP3    H139058   6.139   0.062   0.138  0.6244  0.4872  0.3410
 5833TIP3    H239059   6.204  -0.054   0.067  2.7380  1.5716  0.4461
 5834TIP3   OH239060   4.815   0.334   0.891 -0.2143 -0.1193 -0.0232
 5834TIP3    H139061   4.817   0.291   0.806  0.2393 -1.7405  0.7699
 5834TIP3    H239062   4.905   0.361   0.906 -0.3518  0.4512 -0.1656
 5835TIP3   OH239063   3.264   4.139   1.208 -0.3271 -0.2798  0.2493
 5835TIP3    H139064   3.349   4.183   1.211 -0.5402  0.0897  1.5217
 5835TIP3    H239065   3.215   4.186   1.140  0.1497  0.1348  0.1854
 5836TIP3   OH239066   2.411   3.389   7.067  0.3605 -0.2109  0.3387
 5836TIP3    H139067   2.446   3.319   7.011 -1.2168 -1.0621  0.3315
 5836TIP3    H239068   2.346   3.432   7.012 -1.1251 -0.9729  1.4147
 5837TIP3   OH239069   6.747   5.916   2.904 -0.0799 -0.2701  0.4464
 5837TIP3    H139070   6.751   6.003   2.944  0.1611  1.1524 -2.4108
 5837TIP3    H239071   6.813   5.865   2.951  1.0395  1.6408  1.0635
 5838TIP3   OH239072   2.845   1.654   1.243 -0.1124  0.1099  0.6022
 5838TIP3    H139073   2.851   1.592   1.170  1.8825  1.0353 -0.1005
 5838TIP3    H239074   2.760   1.696   1.233 -0.4320 -0.7277 -0.3789
 5839TIP3   OH239075   6.661   3.428   0.653 -0.1728  0.4933 -0.1598
 5839TIP3    H139076   6.716   3.366   0.605  0.1567  0.3514  0.3973
 5839TIP3    H239077   6.706   3.512   0.644 -0.0932  0.4603 -0.0712
 5840TIP3   OH239078   4.850   0.033   1.814 -0.3772 -0.2936  0.0250
 5840TIP3    H139079   4.760   0.009   1.834 -0.2415 -1.9202 -1.0935
 5840TIP3    H239080   4.900   0.002   1.889 -0.9098  2.6044  1.7287
 5841TIP3   OH239081   1.818   6.840   1.847  0.2584  0.6570  0.4276
 5841TIP3    H139082   1.909   6.862   1.825  0.8818 -0.9422  1.2778
 5841TIP3    H239083   1.816   6.744   1.847 -1.4342  0.6700  0.4626
 5842TIP3   OH239084   5.659   6.330   0.071  0.1435 -1.0834  0.0570
 5842TIP3    H139085   5.679   6.349   0.163  0.2032  0.1120 -0.1887
 5842TIP3    H239086   5.692   6.406   0.023 -1.5156 -0.8469 -0.7684
 5843TIP3   OH239087   5.392   6.282   0.886  0.3083 -0.4258 -0.0082
 5843TIP3    H139088   5.350   6.368   0.889 -0.9535 -1.0308  0.4166
 5843TIP3    H239089   5.483   6.300   0.867  0.1740  1.0502  0.6652
 5844TIP3   OH239090   6.161   2.289   6.544 -0.0871 -0.3162 -0.2507
 5844TIP3    H139091   6.246   2.248   6.556 -0.9728 -2.1777 -0.0539
 5844TIP3    H239092   6.181   2.381   6.525  1.8675 -0.0204  2.6565
 5845TIP3   OH239093   6.044   0.541   7.537  0.7086  0.3067 -0.5257
 5845TIP3    H139094   5.990   0.471   7.573  1.1890  0.4807  0.5993
 5845TIP3    H239095   6.037   0.532   7.442  0.1635 -0.7888 -0.3880
 5846TIP3   OH239096   3.380   1.829   7.057  0.1435  0.0421 -0.0937
 5846TIP3    H139097   3.383   1.847   6.963 -2.5253  0.7272 -0.1327
 5846TIP3    H239098   3.403   1.736   7.065  1.6750  0.2821 -1.2347
 5847TIP3   OH239099   2.578   2.240   7.409 -0.9444 -0.3470 -0.1835
 5847TIP3    H139100   2.515   2.207   7.344  0.0510  1.8092 -2.4229
 5847TIP3    H239101   2.585   2.334   7.389  1.1146 -0.0570  1.6224
 5848TIP3   OH239102   0.692   0.976   7.268  0.4969  0.4095  0.3951
 5848TIP3    H139103   0.636   1.038   7.221 -1.0138 -1.2421 -0.1143
 5848TIP3    H239104   0.688   0.896   7.215 -0.6305 -1.2985  2.8543
 5849TIP3   OH239105   5.719   5.752   1.495  0.7989 -0.7843 -0.2861
 5849TIP3    H139106   5.674   5.709   1.422  0.9696 -0.5673 -0.5230
 5849TIP3    H239107   5.722   5.687   1.564 -1.9103 -0.1083  0.5769
 5850TIP3   OH239108   4.515   2.275   2.044  0.0784  0.4748 -0.6017
 5850TIP3    H139109   4.552   2.363   2.032 -0.1000  0.7204  0.5427
 5850TIP3    H239110   4.583   2.227   2.091 -0.7018  0.6911  0.7990
 5851TIP3   OH239111   0.081   3.652   0.063  0.6151 -0.3568 -0.5246
 5851TIP3    H139112   0.159   3.598   0.077  0.2881 -0.9870 -1.0802
 5851TIP3    H239113   0.008   3.595   0.083  0.2852  0.2297 -0.0331
 5852TIP3   OH239114   4.261   2.263   1.942  0.2479 -0.2140 -0.0739
 5852TIP3    H139115   4.239   2.351   1.910  0.1494  0.3479  1.4496
 5852TIP3    H239116   4.351   2.271   1.974  0.1195 -0.5669  0.3827
 5853TIP3   OH239117   5.516   6.303   7.945 -0.1412  0.5775  0.0693
 5853TIP3    H139118   5.565   6.229   7.910  0.9018  0.3039  1.9661
 5853TIP3    H239119   5.424   6.282   7.927  0.2302 -0.5053 -0.6444
 5854TIP3   OH239120   1.039   0.559   8.136 -0.5222  0.5082 -0.3230
 5854TIP3    H139121   1.077   0.476   8.165  1.2440  0.7595 -1.7296
 5854TIP3    H239122   1.013   0.603   8.216 -0.8020 -1.0883  0.4928
 5855TIP3   OH239123   6.577   2.404   8.157 -0.3590  0.2707 -0.0111
 5855TIP3    H139124   6.646   2.439   8.212  1.1521 -0.3208 -1.4332
 5855TIP3    H239125   6.501   2.461   8.173  0.2470  0.5434  2.0558
 5856TIP3   OH239126   5.880   4.545   1.309 -0.1228 -0.3633 -0.0641
 5856TIP3    H139127   5.929   4.578   1.384  3.1954 -1.2331 -1.6617
 5856TIP3    H239128   5.906   4.603   1.237 -1.3520 -1.0059 -1.0506
 5857TIP3   OH239129   6.915   0.339   6.600 -0.2371  0.3600 -0.0209
 5857TIP3    H139130   6.825   0.369   6.586 -1.1192 -1.8759  0.4957
 5857TIP3    H239131   6.959   0.356   6.516 -0.2835  3.8853  0.4809
 5858TIP3   OH239132   0.100   1.062   6.774  0.7067 -0.2734 -0.1720
 5858TIP3    H139133   0.113   0.970   6.797 -1.2166 -0.5362 -0.0278
 5858TIP3    H239134   0.166   1.108   6.826  0.7302 -1.4386  0.9011
 5859TIP3   OH239135   5.435   1.892   1.598 -0.0018 -0.2047 -0.2079
 5859TIP3    H139136   5.450   1.807   1.556 -0.4539 -0.3882 -0.0078
 5859TIP3    H239137   5.389   1.871   1.679  0.1953  0.2072  0.0147
 5860TIP3   OH239138   4.986   3.176   7.750  0.2663  0.3051 -0.3512
 5860TIP3    H139139   5.011   3.084   7.760 -0.3987  0.3286  2.1333
 5860TIP3    H239140   4.894   3.178   7.774  0.2672  1.6227 -0.3964
 5861TIP3   OH239141   1.601   0.419   6.626 -0.4930 -0.2078 -0.2527
 5861TIP3    H139142   1.629   0.453   6.710  0.7484 -1.4242 -0.1320
 5861TIP3    H239143   1.683   0.405   6.577 -1.2019  0.8724 -1.8327
 5862TIP3   OH239144   3.014   3.948   1.012 -1.0478  0.1081  0.7154
 5862TIP3    H139145   2.977   4.036   1.014 -1.4707 -0.0225 -0.6639
 5862TIP3    H239146   3.099   3.959   0.970 -1.2245 -0.1797  0.2772
 5863TIP3   OH239147   6.908   3.509   1.541 -0.0872 -0.6771 -0.5040
 5863TIP3    H139148   6.886   3.528   1.450 -0.1838 -0.5534 -0.4554
 5863TIP3    H239149   6.998   3.476   1.538  0.1295 -0.0940 -0.5745
 5864TIP3   OH239150   5.373   3.321   1.008  0.2769  0.0043  0.1822
 5864TIP3    H139151   5.338   3.318   1.097 -0.6456  1.7188 -0.0870
 5864TIP3    H239152   5.412   3.408   1.000  1.0422 -0.4052 -0.8596
 5865TIP3   OH239153   2.374   4.439   6.921  0.0295 -0.1459 -0.4838
 5865TIP3    H139154   2.421   4.471   6.844  2.0993 -0.7333  0.4583
 5865TIP3    H239155   2.371   4.344   6.910 -0.5177 -0.1584 -0.2808
 5866TIP3   OH239156   6.699   4.141   7.822  0.0777 -0.3111 -0.2718
 5866TIP3    H139157   6.754   4.080   7.773  1.2828  1.0826 -0.7106
 5866TIP3    H239158   6.655   4.086   7.888  0.9640 -1.6701 -0.7750
 5867TIP3   OH239159   5.189   3.726   1.311  0.4815 -0.4222 -0.6202
 5867TIP3    H139160   5.202   3.638   1.347  1.5455 -0.2016 -0.4159
 5867TIP3    H239161   5.275   3.750   1.276  0.0721  0.3380 -1.1296
 5868TIP3   OH239162   1.078   2.890   1.722  0.2802  0.0613 -0.7971
 5868TIP3    H139163   1.150   2.910   1.781  0.0483 -1.0251 -0.1150
 5868TIP3    H239164   1.042   2.808   1.755  0.2833 -0.7119 -2.5893
 5869TIP3   OH239165   0.218   0.054   2.934  0.0434 -0.1046 -0.1202
 5869TIP3    H139166   0.151   0.014   2.990  1.4577 -0.4719  1.3700
 5869TIP3    H239167   0.188   0.145   2.922 -0.3749 -0.0653  1.1081
 5870TIP3   OH239168   0.038   0.970   7.555  0.1260  0.6690 -0.0370
 5870TIP3    H139169   0.097   1.044   7.570 -0.9859  1.2209  1.8649
 5870TIP3    H239170  -0.015   0.997   7.480  1.4365  0.6710 -0.9973
 5871TIP3   OH239171   1.703   2.610   6.361  0.3497  1.0139  0.2628
 5871TIP3    H139172   1.732   2.591   6.272 -1.4514  0.6453 -0.2776
 5871TIP3    H239173   1.608   2.617   6.355 -0.1562 -1.8062  2.6219
 5872TIP3   OH239174   5.387   2.101   2.038  0.6699 -0.3711  0.0956
 5872TIP3    H139175   5.367   2.173   2.097  1.4381  0.2340 -0.3656
 5872TIP3    H239176   5.349   2.127   1.954 -0.9906 -1.5205  0.4332
 5873TIP3   OH239177   1.109   1.104   0.117  0.3253 -0.0197 -0.0897
 5873TIP3    H139178   1.148   1.149   0.191  1.5907 -2.7834  1.0798
 5873TIP3    H239179   1.016   1.122   0.124  0.5342  0.5336  1.6419
 5874TIP3   OH239180   1.387   2.362   8.255 -0.2567 -0.5595  0.5929
 5874TIP3    H139181   1.302   2.323   8.276 -0.0422 -0.8873  0.8825
 5874TIP3    H239182   1.370   2.455   8.245 -0.9380 -0.8192 -0.9443
 5875TIP3   OH239183   3.373   5.910   7.688  0.2058  0.7789  0.2436
 5875TIP3    H139184   3.375   5.943   7.598 -2.0669  0.6505  0.0696
 5875TIP3    H239185   3.411   5.980   7.741  2.7731  0.3363 -0.8879
 5876TIP3   OH239186   1.346   2.174   1.349  0.0879 -0.1191 -0.5743
 5876TIP3    H139187   1.277   2.207   1.293 -1.8451 -0.3274  1.5541
 5876TIP3    H239188   1.375   2.093   1.306  1.3576  1.5609 -3.1530
 5877TIP3   OH239189   1.372   3.646   1.788  0.2329 -0.0165 -0.2095
 5877TIP3    H139190   1.447   3.639   1.847 -0.6587  2.4023  1.3718
 5877TIP3    H239191   1.408   3.686   1.709  0.8340  0.0452  0.0867
 5878TIP3   OH239192   4.753   3.863   6.629 -0.1532 -0.2964  1.1387
 5878TIP3    H139193   4.692   3.818   6.688 -0.7037  1.4583  1.9859
 5878TIP3    H239194   4.826   3.888   6.686  1.2901 -2.1107  0.1940
 5879TIP3   OH239195   5.755   5.284   8.356 -0.7728 -0.5061  0.0024
 5879TIP3    H139196   5.711   5.199   8.356  1.1361 -1.5581 -0.9922
 5879TIP3    H239197   5.711   5.333   8.426 -1.5920 -2.4685  0.9558
 5880TIP3   OH239198   2.120   0.880   6.705  0.2151 -0.3702  0.0302
 5880TIP3    H139199   2.025   0.872   6.714  0.1860  0.0361  0.0787
 5880TIP3    H239200   2.133   0.942   6.634  0.4360  0.0535  0.4298
 5881TIP3   OH239201   3.469   0.613   7.877 -0.2101 -0.2384  0.2075
 5881TIP3    H139202   3.508   0.526   7.865 -0.6255 -0.7069  1.9231
 5881TIP3    H239203   3.461   0.622   7.972 -2.1714  0.7986 -0.0124
 5882TIP3   OH239204   0.804   5.464   7.074  0.3565  0.2487  0.8927
 5882TIP3    H139205   0.745   5.449   7.148  0.0323 -1.2093  0.3703
 5882TIP3    H239206   0.753   5.516   7.012 -0.4721 -1.1579  0.3638
 5883TIP3   OH239207   3.320   3.733   0.956  0.5262 -0.4132  0.0925
 5883TIP3    H139208   3.274   3.745   0.873  0.5236  0.9999  0.2672
 5883TIP3    H239209   3.251   3.716   1.020  0.3763  0.1649  0.0888
 5884TIP3   OH239210   1.452   5.517   2.685 -0.1169  0.2871  0.0810
 5884TIP3    H139211   1.545   5.535   2.679  0.8461 -3.4652  1.1172
 5884TIP3    H239212   1.425   5.553   2.769  0.5342  0.7538  0.0928
 5885TIP3   OH239213   5.016   0.161   0.411 -0.1591 -0.3827  0.0029
 5885TIP3    H139214   5.110   0.175   0.402 -0.0622 -1.1918 -0.2553
 5885TIP3    H239215   4.976   0.237   0.367  0.3623 -0.0173  0.1509
 5886TIP3   OH239216   6.235   1.579   7.519  0.1031  0.5501  0.1799
 5886TIP3    H139217   6.245   1.609   7.610 -0.9185  1.2183  0.0912
 5886TIP3    H239218   6.323   1.551   7.494  0.9676  2.6348  0.5895
 5887TIP3   OH239219   3.871   4.387   8.042  0.1788  0.1584  0.1839
 5887TIP3    H139220   3.835   4.389   7.953  0.2423 -1.3257  0.1033
 5887TIP3    H239221   3.966   4.388   8.030  0.1955 -0.5432  0.1949
 5888TIP3   OH239222   1.284   3.552   0.162  0.0170  0.0465 -0.1953
 5888TIP3    H139223   1.231   3.585   0.090 -1.4733 -0.4900  0.6239
 5888TIP3    H239224   1.226   3.494   0.211  1.0427  0.2321  1.3304
 5889TIP3   OH239225   3.251   0.859   7.200 -0.2394 -0.3380 -0.5831
 5889TIP3    H139226   3.214   0.946   7.214 -0.7419 -0.6798  0.2996
 5889TIP3    H239227   3.198   0.821   7.130  0.1812  0.1631 -1.1933
 5890TIP3   OH239228   1.506   4.349   6.874  0.3226 -0.9122 -0.3134
 5890TIP3    H139229   1.428   4.346   6.928  0.6370 -1.8629  0.1056
 5890TIP3    H239230   1.566   4.407   6.921 -0.3662  0.4035 -0.9926
 5891TIP3   OH239231   1.193   2.310   1.126  0.9161  0.3405  0.0649
 5891TIP3    H139232   1.252   2.259   1.071  0.0870  0.1482 -0.6671
 5891TIP3    H239233   1.116   2.326   1.071  1.2914  2.7061  0.1233
 5892TIP3   OH239234   4.329   0.353   1.158  0.5418  0.3478  0.5601
 5892TIP3    H139235   4.412   0.360   1.109 -2.2438  0.2657 -4.9564
 5892TIP3    H239236   4.311   0.259   1.161  0.8898  0.3045  2.4684
 5893TIP3   OH239237   1.733   4.345   1.509  0.3245 -0.9351 -0.0592
 5893TIP3    H139238   1.661   4.372   1.452 -0.3200 -3.2493 -0.4235
 5893TIP3    H239239   1.690   4.318   1.590  0.8403 -1.6010 -0.0042
 5894TIP3   OH239240   4.565   1.976   7.626  0.6693  0.6936 -0.0018
 5894TIP3    H139241   4.534   2.044   7.686 -0.1469  1.2190 -0.9809
 5894TIP3    H239242   4.660   1.986   7.625  0.6629  0.9495  0.8676
 5895TIP3   OH239243   3.965   1.304   6.738  0.2111  0.6425 -0.1579
 5895TIP3    H139244   3.901   1.341   6.677  0.3637 -0.2459 -0.8760
 5895TIP3    H239245   4.047   1.301   6.689  1.0336  2.4942  1.0058
 5896TIP3   OH239246   5.202   2.293   8.503  0.1301  0.5184  0.3559
 5896TIP3    H139247   5.189   2.387   8.510 -2.4026  0.5797 -2.6472
 5896TIP3    H239248   5.282   2.283   8.452 -0.6476  1.1742 -1.0402
 5897TIP3   OH239249   0.996   3.791   8.359  0.1093  0.3701 -0.5434
 5897TIP3    H139250   0.957   3.876   8.381 -0.4806 -0.0548  0.1037
 5897TIP3    H239251   1.018   3.798   8.266  0.0801  1.2379 -0.4913
 5898TIP3   OH239252   5.590   0.623   0.721  0.2078 -0.2442  0.1221
 5898TIP3    H139253   5.519   0.677   0.687  0.7318  0.6834  0.4613
 5898TIP3    H239254   5.647   0.684   0.768  1.0507 -1.0160  0.1461
 5899TIP3   OH239255   3.098   3.377   7.953  0.1816  0.4329  0.3789
 5899TIP3    H139256   3.092   3.426   7.871  0.2840  0.4455  0.3786
 5899TIP3    H239257   3.087   3.286   7.927  2.3080  0.2058  0.0495
 5900TIP3   OH239258   6.733   1.704   8.520  0.0170  0.0838  0.2973
 5900TIP3    H139259   6.663   1.770   8.516  0.1126  0.1881  0.3436
 5900TIP3    H239260   6.688   1.620   8.508  0.1580  0.2898 -2.2108
 5901TIP3   OH239261   1.658   3.262   7.273  0.0754 -0.4470 -0.2553
 5901TIP3    H139262   1.627   3.306   7.352  0.0790  2.0448 -1.5490
 5901TIP3    H239263   1.744   3.299   7.257 -0.3393 -0.1407 -1.9715
 5902TIP3   OH239264   5.186   6.871   0.873  0.2059 -0.0772 -0.0179
 5902TIP3    H139265   5.153   6.822   0.797  0.7527 -0.9109  0.2763
 5902TIP3    H239266   5.281   6.864   0.867  0.2517 -0.2344  0.8037
 5903TIP3   OH239267   3.330   0.169   0.502  0.1075 -0.0050  0.4170
 5903TIP3    H139268   3.360   0.079   0.498 -1.9911 -0.9114  2.5562
 5903TIP3    H239269   3.244   0.168   0.461  0.7455  1.4412 -1.0781
 5904TIP3   OH239270   6.605   6.734   8.528  0.2800 -0.2404  0.0399
 5904TIP3    H139271   6.630   6.806   8.585 -0.5590  1.0176 -1.1344
 5904TIP3    H239272   6.576   6.775   8.447  0.9170 -1.9421 -1.1297
 5905TIP3   OH239273   3.780   5.422   0.712  0.4720 -0.0460 -0.4224
 5905TIP3    H139274   3.727   5.342   0.710  1.4327 -0.7223 -0.1578
 5905TIP3    H239275   3.756   5.465   0.794  0.9383 -0.7955  0.1225
 5906TIP3   OH239276   5.378   1.873   7.344  0.1280  0.0335 -0.2008
 5906TIP3    H139277   5.340   1.896   7.259 -1.3178 -2.9753 -0.4986
 5906TIP3    H239278   5.321   1.914   7.408 -0.4855 -0.0585 -0.6850
 5907TIP3   OH239279   5.311   5.033   0.513 -0.0363  0.1631 -0.4072
 5907TIP3    H139280   5.268   5.111   0.548 -1.1981 -1.4221  1.9671
 5907TIP3    H239281   5.269   5.020   0.428 -1.1894  1.0746 -0.0096
 5908TIP3   OH239282   0.287   2.656   8.528  0.4137  0.1634 -0.3294
 5908TIP3    H139283   0.334   2.730   8.566  0.7006 -0.7928  1.3056
 5908TIP3    H239284   0.351   2.614   8.470  0.9198  0.0799  0.2717
 5909TIP3   OH239285   5.786   4.256   0.593  0.7549 -0.1036  0.1834
 5909TIP3    H139286   5.874   4.292   0.586  0.2442  1.2556  0.3902
 5909TIP3    H239287   5.731   4.332   0.611 -0.9219 -0.3283 -3.1449
 5910TIP3   OH239288   2.514   3.158   8.383 -0.5654  0.0491  0.2081
 5910TIP3    H139289   2.484   3.091   8.321 -1.4686  0.7202 -0.1072
 5910TIP3    H239290   2.450   3.154   8.455  1.8269 -2.4365  2.4003
 5911TIP3   OH239291   3.931   2.011   1.511 -0.0772  0.1857 -0.3145
 5911TIP3    H139292   3.898   2.014   1.421 -0.0144  0.9590 -0.3142
 5911TIP3    H239293   3.852   2.012   1.565 -0.1019  0.2248 -0.3504
 5912TIP3   OH239294   5.269   4.646   1.258 -0.6512  0.3441  0.0262
 5912TIP3    H139295   5.312   4.562   1.243  0.4501  1.2609 -2.4477
 5912TIP3    H239296   5.182   4.636   1.219 -0.5959  0.2861 -0.0823
 5913TIP3   OH239297   1.182   5.057   0.114 -0.5206 -0.5588 -0.0199
 5913TIP3    H139298   1.158   4.964   0.111  1.0095 -0.9892  0.1074
 5913TIP3    H239299   1.147   5.093   0.033 -3.0477 -0.7103  0.9111
 5914TIP3   OH239300   6.766   5.497   7.936  0.1035 -0.1584  0.2637
 5914TIP3    H139301   6.853   5.462   7.958  0.7299  0.9020 -0.4140
 5914TIP3    H239302   6.754   5.570   7.997  0.0565  0.2082 -0.1795
 5915TIP3   OH239303   3.351   0.241   7.710 -0.3019  0.2481  0.3862
 5915TIP3    H139304   3.266   0.277   7.736 -0.9586  0.9982 -2.4364
 5915TIP3    H239305   3.350   0.151   7.741 -2.2930  0.1425  0.1223
 5916TIP3   OH239306   3.615   6.484   7.352  0.1233 -0.5796 -0.0901
 5916TIP3    H139307   3.610   6.549   7.423  1.3121  0.2756 -0.7658
 5916TIP3    H239308   3.524   6.458   7.338 -0.6421  2.1750 -0.8925
 5917TIP3   OH239309   4.177   1.010   1.390 -0.1754  0.6017 -0.0041
 5917TIP3    H139310   4.144   0.981   1.305 -1.7123  0.5120  0.5881
 5917TIP3    H239311   4.190   0.930   1.439  2.2861  0.5359 -0.6453
 5918TIP3   OH239312   0.659   1.212   0.299 -0.2139 -0.1967 -0.4865
 5918TIP3    H139313   0.598   1.281   0.273  0.5140  0.8264  0.4359
 5918TIP3    H239314   0.627   1.184   0.385 -1.0615 -1.7196 -1.2406
 5919TIP3   OH239315   1.413   5.831   2.366  0.0259 -0.5104 -0.4037
 5919TIP3    H139316   1.352   5.772   2.322  0.5618 -0.8594 -0.6898
 5919TIP3    H239317   1.482   5.774   2.398  0.3831 -0.0770 -0.3942
 5920TIP3   OH239318   6.813   6.273   1.109  0.3284  0.0498  0.2577
 5920TIP3    H139319   6.737   6.268   1.168 -0.0794 -2.3189 -0.3693
 5920TIP3    H239320   6.887   6.251   1.165  0.2914  0.3101  0.4145
 5921TIP3   OH239321   2.789   6.395   2.580  0.3109  0.4217 -0.0813
 5921TIP3    H139322   2.701   6.361   2.567  0.4730  0.2964 -0.9331
 5921TIP3    H239323   2.778   6.489   2.588 -0.0323  0.2919  1.2320
 5922TIP3   OH239324   2.638   5.116   7.932 -0.1708  0.0195 -0.0190
 5922TIP3    H139325   2.653   5.042   7.990  0.3455  0.1050 -0.0397
 5922TIP3    H239326   2.656   5.081   7.844  0.3759  0.2518  0.0005
 5923TIP3   OH239327   6.750   4.067   0.570 -0.5233 -0.1440  0.3696
 5923TIP3    H139328   6.725   4.159   0.574 -0.0762 -0.0457  2.2555
 5923TIP3    H239329   6.673   4.020   0.602 -0.2489 -0.2863  0.8400
 5924TIP3   OH239330   0.795   2.178   2.314 -0.0904 -0.2090  0.9989
 5924TIP3    H139331   0.878   2.171   2.268 -0.6070 -2.1577  0.2450
 5924TIP3    H239332   0.771   2.270   2.307  2.4439  0.6121  2.1143
 5925TIP3   OH239333   6.854   5.876   7.029 -0.4580 -0.3806  0.0224
 5925TIP3    H139334   6.885   5.819   6.959  1.6878  1.3842 -0.5486
 5925TIP3    H239335   6.815   5.951   6.984  0.1422  0.3660  0.7204
 5926TIP3   OH239336   2.426   5.874   1.332  0.2720  0.4076 -0.1723
 5926TIP3    H139337   2.497   5.937   1.339 -0.0691  0.8995 -1.0511
 5926TIP3    H239338   2.460   5.805   1.274 -0.1237  0.8737 -0.9674
 5927TIP3   OH239339   1.854   2.922   0.906 -0.0726 -0.2879  0.1172
 5927TIP3    H139340   1.796   2.848   0.885 -1.2018  0.7758 -0.6513
 5927TIP3    H239341   1.941   2.891   0.883 -0.5706 -1.2477 -0.5581
 5928TIP3   OH239342   0.255   5.515   3.168 -0.4067 -0.6584  0.1636
 5928TIP3    H139343   0.223   5.570   3.097 -1.1818 -2.5687 -1.0369
 5928TIP3    H239344   0.349   5.534   3.171 -0.5107  0.1214 -0.7444
 5929TIP3   OH239345   6.593   3.954   6.541 -0.0577 -0.5893  0.6262
 5929TIP3    H139346   6.678   3.967   6.499  0.7186 -1.3630  1.8715
 5929TIP3    H239347   6.535   4.017   6.499  0.8495 -0.8071 -1.0287
 5930TIP3   OH239348   3.214   1.340   2.510  0.2986  0.1391 -0.1142
 5930TIP3    H139349   3.281   1.354   2.443 -0.1577 -0.5927 -0.7375
 5930TIP3    H239350   3.159   1.419   2.507  0.5168  0.2807 -0.3197
 5931TIP3   OH239351   5.206   6.521   7.414  0.2840 -0.6032 -0.0727
 5931TIP3    H139352   5.250   6.596   7.454 -0.5824 -0.0887 -0.0785
 5931TIP3    H239353   5.259   6.446   7.441  1.2549  0.0143 -0.2109
 5932TIP3   OH239354   3.011   3.872   1.292 -0.1579 -0.0096 -0.0160
 5932TIP3    H139355   2.944   3.808   1.315  0.1414 -0.2293  0.2438
 5932TIP3    H239356   3.011   3.874   1.196  0.3786 -0.9820 -0.0447
 5933TIP3   OH239357   0.365   1.878   2.278 -0.1389  0.4629 -0.2566
 5933TIP3    H139358   0.320   1.892   2.362 -0.6401 -1.5612 -0.1196
 5933TIP3    H239359   0.456   1.902   2.295 -0.7626  2.8211  0.0134
 5934TIP3   OH239360   1.347   0.356   0.556  0.9092 -0.0278 -0.0805
 5934TIP3    H139361   1.314   0.309   0.480 -0.1335 -0.8377  0.8458
 5934TIP3    H239362   1.395   0.290   0.607  1.7252  0.5362 -0.0828
 5935TIP3   OH239363   2.821   1.952   8.479 -0.3860  0.2901  0.1155
 5935TIP3    H139364   2.843   1.934   8.570 -1.7257  2.9763  1.0696
 5935TIP3    H239365   2.731   1.922   8.470  0.5618 -2.5040 -1.2244
 5936TIP3   OH239366   1.018   5.382   8.546 -0.2945 -0.2515 -0.2668
 5936TIP3    H139367   1.040   5.295   8.514 -2.0694 -0.3987 -1.2147
 5936TIP3    H239368   1.078   5.441   8.500 -0.6386 -0.7748 -1.4222
 5937TIP3   OH239369   4.777   0.924   1.850  0.0929  0.8991  0.7689
 5937TIP3    H139370   4.820   0.896   1.931 -0.1669  0.6622  0.8266
 5937TIP3    H239371   4.689   0.948   1.878 -0.0080  0.7823  0.5459
 5938TIP3   OH239372   6.548   5.537   0.079 -0.4436 -0.2371  0.4522
 5938TIP3    H139373   6.630   5.586   0.086 -0.0704 -0.7319 -0.3298
 5938TIP3    H239374   6.571   5.459   0.029 -1.7918  0.5027 -1.4403
 5939TIP3   OH239375   4.538   0.986   1.942 -0.2114  0.1582 -0.0505
 5939TIP3    H139376   4.467   1.050   1.933  0.2377  1.1128  2.4424
 5939TIP3    H239377   4.503   0.920   2.001  0.8685  0.5616  1.0939
 5940TIP3   OH239378   4.176   2.089   2.206  0.0873  0.2770  0.4467
 5940TIP3    H139379   4.264   2.107   2.174 -0.4705  1.6086 -0.4494
 5940TIP3    H239380   4.119   2.109   2.132 -0.9564 -0.9322  0.8875
 5941TIP3   OH239381   5.527   5.383   7.279 -0.5117  0.2666  0.0072
 5941TIP3    H139382   5.477   5.428   7.211  0.4906  0.7644 -0.4154
 5941TIP3    H239383   5.523   5.290   7.255 -0.2008  0.4345 -0.7130
 5942TIP3   OH239384   0.161   1.566   1.315  0.2771  0.0424  0.5684
 5942TIP3    H139385   0.190   1.650   1.350  1.7750  0.6748 -1.8885
 5942TIP3    H239386   0.211   1.556   1.234 -2.1855 -1.7196 -0.8676
 5943TIP3   OH239387   6.829   4.012   6.412 -0.1363 -0.2264  0.0026
 5943TIP3    H139388   6.868   4.065   6.342 -1.2349 -0.4859 -0.8442
 5943TIP3    H239389   6.901   3.956   6.443  1.1487  1.9514  1.1646
 5944TIP3   OH239390   4.714   5.689   8.143  0.3129 -0.3062  0.3368
 5944TIP3    H139391   4.704   5.783   8.161  1.3272  0.6105 -3.1868
 5944TIP3    H239392   4.624   5.658   8.132  0.0158  0.7728 -0.5031
 5945TIP3   OH239393   3.745   2.937   0.579  0.1898 -0.4999  0.3914
 5945TIP3    H139394   3.812   2.869   0.579  0.6815 -0.0690 -1.7612
 5945TIP3    H239395   3.717   2.944   0.488 -1.0849  0.9930  0.8448
 5946TIP3   OH239396   5.661   0.060   0.932  0.3309 -0.2432 -0.4510
 5946TIP3    H139397   5.632   0.058   1.023  1.4079 -0.9634 -0.1120
 5946TIP3    H239398   5.708   0.143   0.924 -0.3452  0.1435 -0.5561
 5947TIP3   OH239399   5.289   2.679   1.868  0.3561  0.2064  0.4001
 5947TIP3    H139400   5.199   2.712   1.868  0.5280  0.6775  0.5409
 5947TIP3    H239401   5.281   2.588   1.898 -0.0975  0.1711  0.1769
 5948TIP3   OH239402   5.605   5.274   2.442  0.9364 -0.3552 -0.6307
 5948TIP3    H139403   5.656   5.280   2.523 -0.8473  0.8642  0.4544
 5948TIP3    H239404   5.527   5.224   2.465  0.2944  0.1896 -1.5323
 5949TIP3   OH239405   0.476   4.803   0.584 -0.6274  0.4472 -0.4672
 5949TIP3    H139406   0.389   4.829   0.553 -0.5180  2.4049  0.7190
 5949TIP3    H239407   0.509   4.880   0.630  1.5916 -0.3909 -0.5494
 5950TIP3   OH239408   2.403   5.817   2.127  0.4257 -0.0185 -0.3125
 5950TIP3    H139409   2.387   5.744   2.068 -2.2120  0.1473  0.0735
 5950TIP3    H239410   2.386   5.895   2.073  0.4732  0.2133  0.0067
 5951TIP3   OH239411   1.212   1.880   8.032  0.0407  0.2016 -0.3181
 5951TIP3    H139412   1.172   1.950   8.084 -0.7609  1.7871 -2.8883
 5951TIP3    H239413   1.138   1.838   7.988  0.7554 -0.3648 -1.0079
 5952TIP3   OH239414   2.076   6.283   8.202  0.2650 -0.1251  0.2387
 5952TIP3    H139415   2.108   6.350   8.262  1.6962 -2.1267  1.9170
 5952TIP3    H239416   2.114   6.306   8.117  0.4419  1.3245  0.6873
 5953TIP3   OH239417   2.300   6.042   0.398  0.1176 -0.2995 -0.1255
 5953TIP3    H139418   2.254   6.110   0.447 -1.6704 -1.1866 -0.4585
 5953TIP3    H239419   2.296   6.071   0.306 -1.0963 -1.0523 -0.3301
 5954TIP3   OH239420   1.857   4.168   8.539  0.8116  0.2294  0.3012
 5954TIP3    H139421   1.938   4.206   8.573  1.1817 -0.8174  0.6508
 5954TIP3    H239422   1.878   4.145   8.448  1.1783 -0.7484  0.6181
 5955TIP3   OH239423   3.624   3.535   6.401 -0.1109  0.7852 -0.1421
 5955TIP3    H139424   3.606   3.495   6.486  1.9301  0.8075  0.3606
 5955TIP3    H239425   3.633   3.629   6.421  1.6333  0.6522 -0.0824
 5956TIP3   OH239426   6.860   2.463   1.488  0.0089 -0.0943  0.6732
 5956TIP3    H139427   6.876   2.425   1.574  0.0586 -0.7032  0.4045
 5956TIP3    H239428   6.815   2.394   1.439  0.2324  0.1373  0.1240
 5957TIP3   OH239429   4.552   6.393   0.964 -0.4629  0.3319  0.5396
 5957TIP3    H139430   4.640   6.400   1.000 -0.0094  0.9354 -0.6406
 5957TIP3    H239431   4.537   6.477   0.921 -0.6795 -0.6210 -1.3084
 5958TIP3   OH239432   2.751   4.804   7.239  0.1295  0.3004  0.0991
 5958TIP3    H139433   2.806   4.852   7.301  0.9199  0.3400 -0.6151
 5958TIP3    H239434   2.683   4.764   7.293  1.1659 -0.1826  1.0935
 5959TIP3   OH239435   4.398   0.833   1.720 -0.5472  0.2430 -0.1211
 5959TIP3    H139436   4.485   0.838   1.681 -0.7512  2.2500 -0.4389
 5959TIP3    H239437   4.412   0.846   1.814 -0.4547 -0.0075 -0.1005
 5960TIP3   OH239438   2.405   6.582   7.887 -0.5242 -0.1219  0.2147
 5960TIP3    H139439   2.367   6.655   7.936  2.0805  0.3594  1.6708
 5960TIP3    H239440   2.399   6.507   7.947  3.3122  0.6223  1.8226
 5961TIP3   OH239441   0.097   6.667   1.640  0.5835  0.0695 -0.3468
 5961TIP3    H139442   0.071   6.586   1.597 -1.6223  0.3716  0.2826
 5961TIP3    H239443   0.022   6.691   1.694  1.6548  1.8846  0.4559
 5962TIP3   OH239444   4.977   6.444   7.276 -0.4871  0.5877  0.1527
 5962TIP3    H139445   5.021   6.361   7.257 -0.2251  1.5252 -4.5742
 5962TIP3    H239446   5.044   6.498   7.317  0.6315 -0.2516 -0.5122
 5963TIP3   OH239447   1.735   2.808   7.826 -0.0176  0.1040  0.0596
 5963TIP3    H139448   1.719   2.718   7.854  0.0543  0.5609  1.6650
 5963TIP3    H239449   1.691   2.815   7.741 -0.1764 -1.3834 -0.0030
 5964TIP3   OH239450   3.624   2.348   2.287  0.1398 -0.4863 -0.3703
 5964TIP3    H139451   3.712   2.319   2.311 -0.5719 -1.5725  1.0735
 5964TIP3    H239452   3.591   2.278   2.230  0.3727  0.1602 -1.3183
 5965TIP3   OH239453   0.594   5.148   7.068  0.3073 -0.5653  0.1770
 5965TIP3    H139454   0.621   5.195   7.148  2.1292  0.4874 -0.9726
 5965TIP3    H239455   0.511   5.187   7.044  0.8815  0.7962  0.2951
 5966TIP3   OH239456   4.211   6.028   0.634  0.0862 -0.0442 -0.0805
 5966TIP3    H139457   4.118   6.051   0.626  0.5569  1.5033 -1.8957
 5966TIP3    H239458   4.221   5.948   0.583 -0.3044 -0.4351  0.4451
 5967TIP3   OH239459   0.716   4.566   0.090  0.1616  0.1269 -0.4242
 5967TIP3    H139460   0.800   4.580   0.046  1.3840  1.8578  2.2075
 5967TIP3    H239461   0.710   4.472   0.100  0.8425 -0.1647 -2.2975
 5968TIP3   OH239462   5.526   1.672   1.442  0.5079  0.4720 -0.2076
 5968TIP3    H139463   5.504   1.628   1.525 -0.1666  0.6649 -0.2763
 5968TIP3    H239464   5.584   1.611   1.398 -0.7575 -0.5766 -0.4902
 5969TIP3   OH239465   1.415   1.757   0.500  0.1199  0.1055  0.0216
 5969TIP3    H139466   1.325   1.739   0.526  0.1980 -1.6876 -0.8554
 5969TIP3    H239467   1.465   1.754   0.582 -0.4451  0.0312  0.3666
 5970TIP3   OH239468   4.090   5.698   0.817  0.6124 -0.1951 -0.0218
 5970TIP3    H139469   4.101   5.739   0.902 -1.7039 -1.6433  1.0940
 5970TIP3    H239470   4.030   5.756   0.769 -1.0018 -1.1175  0.7792
 5971TIP3   OH239471   4.643   4.363   1.498  0.2195  0.6863 -0.1577
 5971TIP3    H139472   4.689   4.337   1.418 -0.4763  1.0818 -0.7035
 5971TIP3    H239473   4.573   4.421   1.467 -1.5709 -1.0244  0.4819
 5972TIP3   OH239474   0.081   4.118   2.367 -0.3278  0.8640 -0.4484
 5972TIP3    H139475   0.168   4.157   2.367  0.2103 -0.3046 -0.4791
 5972TIP3    H239476   0.096   4.024   2.372 -1.6051  0.6622  0.1922
 5973TIP3   OH239477   0.557   5.285   3.309  0.2954 -0.4902 -0.3243
 5973TIP3    H139478   0.478   5.283   3.363  0.6566 -2.2387  0.2121
 5973TIP3    H239479   0.574   5.193   3.288  1.5620 -0.0469 -1.3638
 5974TIP3   OH239480   4.363   1.253   1.049 -0.1412  0.5203 -0.2397
 5974TIP3    H139481   4.395   1.246   1.139  0.4649  0.9548 -0.4075
 5974TIP3    H239482   4.273   1.284   1.058 -1.1687 -2.3881  0.3056
 5975TIP3   OH239483   4.676   5.800   2.681  0.2256 -0.0260 -0.2614
 5975TIP3    H139484   4.701   5.708   2.670 -1.7037 -0.9406  2.2266
 5975TIP3    H239485   4.749   5.838   2.730 -0.0143 -0.8836  0.8140
 5976TIP3   OH239486   4.287   2.974   7.766 -0.0235 -0.6480 -0.0977
 5976TIP3    H139487   4.247   2.991   7.681  0.5618  0.7986 -0.1064
 5976TIP3    H239488   4.380   2.991   7.754  0.3705 -2.2461  0.3801
 5977TIP3   OH239489   0.317   0.507   2.297 -0.1979  0.0260  0.3100
 5977TIP3    H139490   0.274   0.506   2.382  1.4284 -0.8653  1.1695
 5977TIP3    H239491   0.297   0.421   2.259 -0.8600  0.3944 -0.1894
 5978TIP3   OH239492   2.814   5.737   8.033  0.0057  0.6990 -0.1774
 5978TIP3    H139493   2.747   5.795   7.997 -0.4511  0.6938  0.6579
 5978TIP3    H239494   2.863   5.707   7.956 -1.8427 -0.4295 -0.9967
 5979TIP3   OH239495   0.718   1.124   0.776 -0.0402 -0.5704  0.0338
 5979TIP3    H139496   0.674   1.208   0.762 -0.9390 -0.7466  1.6133
 5979TIP3    H239497   0.708   1.078   0.692 -0.5597  0.4400 -0.4746
 5980TIP3   OH239498   4.453   0.409   7.264 -0.5127 -0.3710 -0.2124
 5980TIP3    H139499   4.479   0.389   7.354 -0.2382  1.1380  0.0696
 5980TIP3    H239500   4.510   0.353   7.210  0.7375  0.1520  0.5147
 5981TIP3   OH239501   3.147   3.641   0.305 -0.4923  0.3818  0.8241
 5981TIP3    H139502   3.220   3.666   0.248  0.3160  0.9785  2.0636
 5981TIP3    H239503   3.072   3.633   0.247  0.6286 -0.5517 -0.5336
 5982TIP3   OH239504   2.100   4.262   0.595 -0.0731  0.3537 -0.1600
 5982TIP3    H139505   2.133   4.351   0.585  1.9440 -0.2726  0.4433
 5982TIP3    H239506   2.101   4.225   0.507 -0.4494  0.7758 -0.3407
 5983TIP3   OH239507   0.543   6.230   2.441 -0.6937 -0.0856  0.4516
 5983TIP3    H139508   0.568   6.265   2.356 -0.2411  0.7753  0.9303
 5983TIP3    H239509   0.450   6.248   2.449 -0.7105 -0.0643  0.1840
 5984TIP3   OH239510   1.542   3.021   7.129 -0.2267  0.6750 -0.2404
 5984TIP3    H139511   1.607   3.084   7.158 -0.1666  1.0524 -1.1389
 5984TIP3    H239512   1.587   2.969   7.062 -1.3283  2.1459 -2.2250
 5985TIP3   OH239513   0.230   3.148   1.997  0.6920 -0.2353 -0.3641
 5985TIP3    H139514   0.170   3.204   2.046  1.7434  0.4045  0.2376
 5985TIP3    H239515   0.177   3.114   1.925 -0.8614 -1.0784  1.0891
 5986TIP3   OH239516   2.715   3.543   7.478 -0.1448  0.0208 -0.2126
 5986TIP3    H139517   2.798   3.587   7.460  0.4626 -0.0906  2.0082
 5986TIP3    H239518   2.737   3.450   7.474 -0.0567 -0.0085  0.6428
 5987TIP3   OH239519   5.200   4.697   0.398 -0.3603 -0.3488  0.2003
 5987TIP3    H139520   5.130   4.632   0.407 -1.0248  0.4931  1.4632
 5987TIP3    H239521   5.156   4.781   0.408  0.4129  0.3623 -1.8559
 5988TIP3   OH239522   3.388   3.179   1.625  0.1013 -0.3910  0.4226
 5988TIP3    H139523   3.473   3.196   1.583  0.1017 -1.5649 -0.0879
 5988TIP3    H239524   3.409   3.170   1.718 -0.0568  3.4675  0.9947
 5989TIP3   OH239525   4.496   6.627   0.840 -0.4222  0.7264 -0.0542
 5989TIP3    H139526   4.531   6.712   0.813  2.7506 -1.0165 -2.0448
 5989TIP3    H239527   4.435   6.603   0.771  1.0002  0.1568 -1.1808
 5990TIP3   OH239528   3.120   0.852   6.723  0.1068 -0.3934  0.3333
 5990TIP3    H139529   3.028   0.836   6.746  0.4326 -1.4639  0.9972
 5990TIP3    H239530   3.117   0.913   6.650 -1.1237 -0.1232  0.5958
 5991TIP3   OH239531   2.768   2.965   0.287 -0.4094  0.2006  0.4233
 5991TIP3    H139532   2.784   2.914   0.367 -1.5592 -0.0777  0.5015
 5991TIP3    H239533   2.825   3.042   0.296  0.9879 -0.8137  0.5329
 5992TIP3   OH239534   5.594   4.206   8.345 -0.0931 -0.1448 -0.2856
 5992TIP3    H139535   5.616   4.114   8.359 -0.1784  0.0918  1.6741
 5992TIP3    H239536   5.678   4.251   8.346 -0.1646 -0.0246  0.3036
 5993TIP3   OH239537   6.803   3.532   1.031  0.4801 -0.2196  0.1608
 5993TIP3    H139538   6.801   3.584   0.951  1.0029 -0.9976 -0.3604
 5993TIP3    H239539   6.719   3.486   1.032  0.2410  0.2124  0.3500
 5994TIP3   OH239540   4.574   5.309   7.567 -0.1465 -0.2516 -0.0184
 5994TIP3    H139541   4.634   5.315   7.641 -0.3261 -2.4195  0.3557
 5994TIP3    H239542   4.565   5.215   7.550 -2.1699  0.0776 -1.1094
 5995TIP3   OH239543   5.709   4.887   7.432 -0.2293  0.3716  0.2915
 5995TIP3    H139544   5.749   4.882   7.345 -0.6762 -0.7703  0.1386
 5995TIP3    H239545   5.741   4.970   7.468  1.3704  0.0318 -0.2664
 5996TIP3   OH239546   1.213   4.746   1.753  0.4756  0.4283  0.1124
 5996TIP3    H139547   1.177   4.665   1.789 -0.2356  0.3685 -0.6957
 5996TIP3    H239548   1.243   4.795   1.830  0.1697 -0.2426  0.6733
 5997TIP3   OH239549   1.713   0.099   8.511  0.6543  0.4559 -0.2665
 5997TIP3    H139550   1.658   0.032   8.472 -0.2418  1.3094 -0.4984
 5997TIP3    H239551   1.776   0.051   8.564 -2.4121 -0.4584  2.8272
 5998TIP3   OH239552   2.259   4.750   6.917 -0.2605 -0.4618 -0.3630
 5998TIP3    H139553   2.339   4.737   6.866  0.1595 -0.6306  0.3364
 5998TIP3    H239554   2.207   4.811   6.864  1.8996  2.6606  0.8571
 5999TIP3   OH239555   1.123   0.719   8.403  0.2527  1.0627 -0.2764
 5999TIP3    H139556   1.120   0.814   8.406 -0.0721  1.0738 -0.8040
 5999TIP3    H239557   1.124   0.692   8.495  2.3594  1.6219 -0.0856
 6000TIP3   OH239558   6.447   5.601   1.305 -0.5192 -0.0124  0.1924
 6000TIP3    H139559   6.473   5.625   1.394 -2.5673  1.5960  0.4354
 6000TIP3    H239560   6.454   5.683   1.256 -0.7739 -0.5643 -0.7843
 6001TIP3   OH239561   1.734   5.950   1.259 -0.3048 -0.4429 -0.4581
 6001TIP3    H139562   1.805   5.904   1.215 -0.4106 -0.3306 -0.7471
 6001TIP3    H239563   1.740   5.921   1.350  1.5305  1.2535  0.0518
 6002TIP3   OH239564   6.895   0.776   1.915  0.1640  0.2468 -0.5514
 6002TIP3    H139565   6.803   0.778   1.889  0.3364 -0.6139 -1.2942
 6002TIP3    H239566   6.894   0.786   2.010 -0.8586 -1.9116 -0.2793
 6003TIP3   OH239567   4.526   6.499   7.270 -0.1727  0.1370  0.0932
 6003TIP3    H139568   4.454   6.515   7.330 -1.3423 -1.6167 -0.7809
 6003TIP3    H239569   4.547   6.406   7.280  0.7073  0.1836 -1.0245
 6004TIP3   OH239570   5.588   2.254   0.131 -0.1842  0.2846  0.3923
 6004TIP3    H139571   5.607   2.197   0.056  1.7080  1.3768 -0.0361
 6004TIP3    H239572   5.510   2.216   0.171  0.1597 -1.7368 -0.7114
 6005TIP3   OH239573   1.168   5.530   7.427  0.0966 -0.1142  0.3477
 6005TIP3    H139574   1.203   5.598   7.368  0.8210 -0.5412  0.2761
 6005TIP3    H239575   1.234   5.460   7.425 -1.1971 -1.3662 -0.5428
 6006TIP3   OH239576   4.293   6.565   8.422  0.0934 -0.1650  0.1532
 6006TIP3    H139577   4.280   6.512   8.343  1.0338 -0.0548 -0.0862
 6006TIP3    H239578   4.388   6.574   8.429 -0.0297  0.8199  0.6435
 6007TIP3   OH239579   2.712   4.396   1.431  0.1740  0.3166  0.0191
 6007TIP3    H139580   2.621   4.424   1.443  0.3921  1.2175 -0.3235
 6007TIP3    H239581   2.734   4.351   1.512 -0.4307  0.5134  0.3010
 6008TIP3   OH239582   1.311   2.598   0.172  0.1349 -0.3133 -0.2950
 6008TIP3    H139583   1.393   2.555   0.195  0.9195  0.4777 -1.5283
 6008TIP3    H239584   1.296   2.574   0.081  0.0233  1.0993 -0.6734
 6009TIP3   OH239585   5.860   1.425   0.069 -0.5111  0.1705 -0.3797
 6009TIP3    H139586   5.859   1.330   0.077 -0.4144  0.1956 -0.0806
 6009TIP3    H239587   5.780   1.445   0.020 -1.4778  0.0695  1.1006
 6010TIP3   OH239588   0.013   0.505   1.132 -0.0573 -0.1145  0.1063
 6010TIP3    H139589  -0.060   0.447   1.154 -0.1137  0.8229  2.7193
 6010TIP3    H239590   0.038   0.545   1.215  0.6112  2.8760 -1.3893
 6011TIP3   OH239591   3.046   0.230   8.316 -0.0044  0.0762  0.4814
 6011TIP3    H139592   3.035   0.278   8.399 -0.0183  0.4457  0.2697
 6011TIP3    H239593   3.062   0.299   8.251 -2.8581  0.0660 -0.3476
 6012TIP3   OH239594   2.676   3.195   1.954  0.0264  0.4276 -0.4294
 6012TIP3    H139595   2.582   3.192   1.937  0.3530 -1.6763 -2.3777
 6012TIP3    H239596   2.689   3.277   2.002 -2.0907  3.6932 -4.7189
 6013TIP3   OH239597   1.545   0.530   7.921  0.2339  0.3386 -0.0727
 6013TIP3    H139598   1.633   0.547   7.885 -0.4649 -0.1259 -2.1797
 6013TIP3    H239599   1.542   0.435   7.931  0.1053  0.3895  0.3727
 6014TIP3   OH239600   3.092   5.364   2.221 -0.0847 -0.6648 -0.2110
 6014TIP3    H139601   3.095   5.446   2.271  0.6732 -1.3352  0.8927
 6014TIP3    H239602   3.135   5.385   2.139  0.7391 -0.1206  0.3423
 6015TIP3   OH239603   3.391   2.002   8.394  0.0825 -0.2758  0.2899
 6015TIP3    H139604   3.355   1.961   8.316 -1.1365 -0.3876  0.8891
 6015TIP3    H239605   3.316   2.043   8.437  0.7763  0.0173  1.2627
 6016TIP3   OH239606   1.870   6.484   7.777  0.6963  0.0698  0.3738
 6016TIP3    H139607   1.936   6.553   7.781  0.2704  0.5494 -0.7257
 6016TIP3    H239608   1.911   6.410   7.822  1.2401  0.9488  1.3711
 6017TIP3   OH239609   6.648   6.427   8.014 -0.0924 -0.2362 -0.0828
 6017TIP3    H139610   6.672   6.481   7.940 -1.7597 -1.5871 -1.7101
 6017TIP3    H239611   6.652   6.486   8.089  2.1286  1.0411 -1.1188
 6018TIP3   OH239612   1.041   1.753   0.898  0.2228 -0.1402 -0.4775
 6018TIP3    H139613   0.951   1.785   0.908 -0.5857 -2.4283  0.2934
 6018TIP3    H239614   1.031   1.663   0.870  2.2524 -0.8603  0.8786
 6019TIP3   OH239615   3.028   5.834   1.143  1.0622 -0.3077  0.4828
 6019TIP3    H139616   3.053   5.926   1.134 -0.9929  0.1392 -1.6298
 6019TIP3    H239617   3.003   5.807   1.055 -1.2165 -1.9809  1.5266
 6020TIP3   OH239618   2.922   4.388   8.313 -0.1063  0.3781  0.9604
 6020TIP3    H139619   2.919   4.337   8.232  3.0631  1.9518 -0.3120
 6020TIP3    H239620   2.911   4.324   8.383 -1.3008 -1.2532 -0.6240
 6021TIP3   OH239621   3.742   0.550   2.615  0.2203  0.1550  1.0613
 6021TIP3    H139622   3.673   0.550   2.681 -0.3476 -0.4427  0.4807
 6021TIP3    H239623   3.803   0.482   2.644  0.5291  0.6189  1.5234
 6022TIP3   OH239624   5.382   3.412   7.956  0.4579 -0.0204 -0.1146
 6022TIP3    H139625   5.379   3.488   8.013 -1.7510  0.1471 -0.3583
 6022TIP3    H239626   5.403   3.447   7.869 -2.2352  0.6449 -0.5854
 6023TIP3   OH239627   3.937   3.149   8.334  0.1526  0.3634 -0.0473
 6023TIP3    H139628   3.930   3.243   8.314 -1.3404  0.0786 -1.0158
 6023TIP3    H239629   4.000   3.116   8.271  2.0974  0.9945  1.4680
 6024TIP3   OH239630   5.659   3.993   0.256 -0.1822  0.0815  0.6241
 6024TIP3    H139631   5.634   4.077   0.218  1.0876 -0.4087 -1.4809
 6024TIP3    H239632   5.726   4.015   0.321 -0.1403  0.7095  0.3757
 6025TIP3   OH239633   3.122   3.777   8.510 -0.1094  0.5865  0.0445
 6025TIP3    H139634   3.095   3.803   8.423 -0.0252 -0.1206 -0.2038
 6025TIP3    H239635   3.203   3.825   8.526 -0.1884  0.8060 -0.2203
 6026TIP3   OH239636   3.177   2.058   1.566  0.3193  0.2225 -0.2953
 6026TIP3    H139637   3.086   2.047   1.595 -0.0060  0.6411 -1.1229
 6026TIP3    H239638   3.182   2.149   1.537  1.5246  0.7828  1.4860
 6027TIP3   OH239639   2.454   1.716   7.025 -1.0392 -0.4063  0.2617
 6027TIP3    H139640   2.522   1.690   7.088 -1.7212 -1.3760  0.6146
 6027TIP3    H239641   2.503   1.733   6.944 -0.2332  0.1430  0.8432
 6028TIP3   OH239642   5.602   1.094   0.193 -0.1787 -0.1845  0.0660
 6028TIP3    H139643   5.696   1.116   0.192 -0.0399 -0.6961  1.0285
 6028TIP3    H239644   5.564   1.153   0.128  0.5621  1.1697  0.8079
 6029TIP3   OH239645   0.213   0.687   1.032 -0.3294  0.1056 -0.1374
 6029TIP3    H139646   0.135   0.633   1.018  0.2337 -0.4685 -1.2083
 6029TIP3    H239647   0.202   0.760   0.970 -0.6071  0.6982  0.5994
 6030TIP3   OH239648   3.831   4.851   7.158 -0.0366  0.5175 -0.1060
 6030TIP3    H139649   3.810   4.860   7.251 -1.1179  0.7598 -0.3668
 6030TIP3    H239650   3.843   4.941   7.127 -1.8968  0.6038 -0.6847
 6031TIP3   OH239651   1.048   1.875   2.049  0.1228  0.3074  0.0536
 6031TIP3    H139652   1.004   1.797   2.084 -0.6744  0.8941  0.4044
 6031TIP3    H239653   0.997   1.948   2.083  1.0672  1.0025  0.0120
 6032TIP3   OH239654   5.969   6.111   8.010  0.1427 -0.7191  0.5670
 6032TIP3    H139655   5.968   6.204   7.988 -0.2645 -0.5953  1.1049
 6032TIP3    H239656   5.894   6.074   7.963  1.0465 -1.0292 -0.6896
 6033TIP3   OH239657   5.335   3.910   7.441 -0.2849 -0.1605 -0.1483
 6033TIP3    H139658   5.323   3.869   7.527  0.9315 -1.0268 -0.3557
 6033TIP3    H239659   5.364   3.999   7.460  0.6042 -0.5482  0.3646
 6034TIP3   OH239660   3.661   4.068   1.488 -0.3667 -0.4099  0.3965
 6034TIP3    H139661   3.690   3.978   1.504 -1.7893 -0.7876  0.9527
 6034TIP3    H239662   3.677   4.082   1.395 -0.6429 -1.4382  0.1789
 6035TIP3   OH239663   3.726   4.525   8.235  0.0527 -0.0802  0.1007
 6035TIP3    H139664   3.794   4.494   8.176 -0.4634  1.4589 -1.3883
 6035TIP3    H239665   3.668   4.450   8.246 -1.4899  0.2557 -3.8573
 6036TIP3   OH239666   6.117   6.579   8.514  0.7566 -0.0526  0.3930
 6036TIP3    H139667   6.068   6.622   8.444  0.1485  0.3213  1.0374
 6036TIP3    H239668   6.134   6.490   8.480 -2.5266 -1.0664  1.0601
 6037TIP3   OH239669   1.365   3.662   7.879 -0.2523 -0.2387 -0.4398
 6037TIP3    H139670   1.338   3.690   7.966 -0.6145  1.6885 -1.1138
 6037TIP3    H239671   1.409   3.578   7.893  0.7327  0.5583  1.7387
 6038TIP3   OH239672   2.153   5.066   1.822 -0.0041  0.0079  0.1943
 6038TIP3    H139673   2.117   5.085   1.736 -1.0813  0.2925  0.6970
 6038TIP3    H239674   2.222   5.131   1.833  1.0716 -0.8785 -0.9892
 6039TIP3   OH239675   1.443   2.569   1.105 -0.0283 -1.0122 -0.3139
 6039TIP3    H139676   1.405   2.621   1.176  0.9609  0.3033 -0.7058
 6039TIP3    H239677   1.431   2.479   1.133 -2.8786 -0.6671 -0.1675
 6040TIP3   OH239678   5.088   0.753   7.510 -0.3556  0.0909 -0.0180
 6040TIP3    H139679   5.014   0.784   7.563 -0.1011 -1.3502  1.2819
 6040TIP3    H239680   5.060   0.666   7.481  0.9239 -0.6076  0.7621
 6041TIP3   OH239681   3.636   6.057   1.428  0.0846  0.1570  0.2228
 6041TIP3    H139682   3.548   6.092   1.413  0.1721  0.2906  0.0249
 6041TIP3    H239683   3.621   5.980   1.482 -0.3403 -1.0554 -1.5471
 6042TIP3   OH239684   2.757   1.334   0.584  0.2373  0.3267 -0.1180
 6042TIP3    H139685   2.759   1.250   0.630  3.1438  0.0583 -0.5515
 6042TIP3    H239686   2.748   1.400   0.653  0.5970 -0.2302  0.4686
 6043TIP3   OH239687   0.717   3.339   8.402 -0.3209  0.3153  0.0283
 6043TIP3    H139688   0.627   3.310   8.390 -0.2352  0.8535 -2.8203
 6043TIP3    H239689   0.720   3.374   8.491 -3.0037  0.5844  0.1018
 6044TIP3   OH239690   4.368   2.384   1.562 -0.2406 -0.8488 -0.1787
 6044TIP3    H139691   4.296   2.366   1.502 -0.8239 -1.5073  0.6881
 6044TIP3    H239692   4.358   2.319   1.632  0.6739 -0.3867  0.4035
 6045TIP3   OH239693   0.368   4.780   7.293 -0.1174 -0.5842  0.2222
 6045TIP3    H139694   0.326   4.865   7.281  1.2013  0.2953  1.4798
 6045TIP3    H239695   0.448   4.786   7.241  0.4058 -0.7146  1.0038
 6046TIP3   OH239696   0.281   1.151   1.896 -0.0236  0.6011  0.4301
 6046TIP3    H139697   0.299   1.224   1.956  1.3711  1.9544 -1.5094
 6046TIP3    H239698   0.247   1.192   1.817  1.3300 -0.7762 -0.9375
 6047TIP3   OH239699   3.145   6.234   1.956  0.2920  0.6636 -0.5038
 6047TIP3    H139700   3.211   6.185   2.004 -0.4020 -2.4052 -2.4501
 6047TIP3    H239701   3.075   6.250   2.020  0.1808 -1.7015  0.0463
 6048TIP3   OH239702   0.110   5.847   1.818  0.1119  0.1732  0.2466
 6048TIP3    H139703   0.160   5.842   1.899  1.6125  1.2270 -0.5686
 6048TIP3    H239704   0.047   5.918   1.834 -1.5274 -1.4650  1.4388
 6049TIP3   OH239705   3.309   0.368   1.523  0.0825 -0.3521 -0.1207
 6049TIP3    H139706   3.214   0.365   1.519  0.1017 -1.6844  0.0703
 6049TIP3    H239707   3.333   0.304   1.589  1.0716  1.1187  1.0210
 6050TIP3   OH239708   1.622   0.933   8.160 -0.0919  0.5999 -1.1433
 6050TIP3    H139709   1.642   0.934   8.254 -0.9737 -1.2455 -0.9058
 6050TIP3    H239710   1.607   0.841   8.140  0.8398  0.8640 -3.2878
 6051TIP3   OH239711   3.287   4.383   0.217 -0.4386 -0.5312 -0.0148
 6051TIP3    H139712   3.306   4.474   0.239 -1.9765 -0.0626 -0.4392
 6051TIP3    H239713   3.245   4.347   0.295 -3.0333  0.2144 -0.9387
 6052TIP3   OH239714   5.435   3.890   8.502 -0.2973  0.3374  0.0509
 6052TIP3    H139715   5.527   3.903   8.480 -0.9091  3.7580 -1.0319
 6052TIP3    H239716   5.401   3.837   8.430  0.2075  1.7202 -1.2509
 6053TIP3   OH239717   1.123   3.380   8.139  0.2982 -0.2843  0.7978
 6053TIP3    H139718   1.196   3.442   8.138 -0.3402  0.4869  0.4024
 6053TIP3    H239719   1.062   3.417   8.202 -0.8805  0.4861 -0.7067
 6054TIP3   OH239720   0.399   4.178   1.785 -0.0167 -0.2269  0.0480
 6054TIP3    H139721   0.409   4.189   1.880  0.7519  0.8018 -0.1227
 6054TIP3    H239722   0.402   4.084   1.771  0.2898 -0.3746  1.0083
 6055TIP3   OH239723   0.942   4.847   6.938 -0.3996  0.5327 -0.2008
 6055TIP3    H139724   0.878   4.818   6.873 -0.6013  2.2045 -0.8095
 6055TIP3    H239725   1.025   4.848   6.890 -0.5115  1.5560 -0.3958
 6056TIP3   OH239726   1.665   0.875   7.878  0.6783 -0.8742 -0.2206
 6056TIP3    H139727   1.677   0.893   7.971 -0.6405 -2.0740  0.2171
 6056TIP3    H239728   1.577   0.910   7.859  1.1025 -0.2610 -1.1289
 6057TIP3   OH239729   4.143   2.253   8.050  0.4169 -0.0252  0.1800
 6057TIP3    H139730   4.191   2.325   8.009  1.7813 -0.9049  0.1484
 6057TIP3    H239731   4.082   2.295   8.110  2.1649  1.1536  1.2267
 6058TIP3   OH239732   6.397   2.924   6.196 -0.1805  0.3092  0.0385
 6058TIP3    H139733   6.381   2.861   6.266  1.2141  1.0016  1.0377
 6058TIP3    H239734   6.312   2.964   6.179 -1.3955 -2.7128 -1.5795
 6059TIP3   OH239735   3.461   6.453   1.782 -0.3587  0.3844  0.2543
 6059TIP3    H139736   3.392   6.490   1.836 -1.8901  1.0288 -1.9832
 6059TIP3    H239737   3.488   6.526   1.725  0.4193 -0.5102 -0.5659
 6060TIP3   OH239738   6.433   0.855   6.808 -0.2177  0.0050  0.2782
 6060TIP3    H139739   6.499   0.811   6.754  0.4411  0.3700  0.7681
 6060TIP3    H239740   6.423   0.942   6.769  1.9060  1.1145  1.9708
 6061TIP3   OH239741   1.488   6.101   6.821  0.4082 -0.1986  0.0383
 6061TIP3    H139742   1.517   6.013   6.844 -2.1313 -1.1045  0.0860
 6061TIP3    H239743   1.519   6.114   6.731 -0.1620 -1.6109 -0.3853
 6062TIP3   OH239744   5.846   2.837   1.226 -0.4999  0.2078  0.1982
 6062TIP3    H139745   5.861   2.928   1.202 -0.5978  0.7037  1.8677
 6062TIP3    H239746   5.758   2.837   1.265 -0.8460 -0.7716 -0.5566
 6063TIP3   OH239747   0.224   1.061   0.137 -0.1965  0.1594 -0.0032
 6063TIP3    H139748   0.146   1.098   0.095 -0.9664 -1.2142  0.1636
 6063TIP3    H239749   0.297   1.095   0.085 -0.8373  1.9546  0.2019
 6064TIP3   OH239750   6.107   3.360   1.662 -0.2285  0.0581 -0.2052
 6064TIP3    H139751   6.158   3.338   1.741 -1.3789 -0.9574  0.2922
 6064TIP3    H239752   6.167   3.413   1.609  0.9553 -0.1625  0.8513
 6065TIP3   OH239753   2.526   0.528   8.489  0.5396  0.3829 -0.0408
 6065TIP3    H139754   2.602   0.531   8.546  0.6340  1.8738 -0.1876
 6065TIP3    H239755   2.452   0.551   8.545 -0.3452 -3.5919  0.7468
 6066TIP3   OH239756   6.178   6.188   0.075  0.1545 -0.8311 -0.0587
 6066TIP3    H139757   6.131   6.270   0.089  0.3018 -0.7014 -0.3007
 6066TIP3    H239758   6.144   6.128   0.141 -0.5199 -0.8092 -0.3862
 6067TIP3   OH239759   5.905   6.859   1.959 -0.0474  0.1122  0.3064
 6067TIP3    H139760   5.866   6.946   1.966 -1.8645 -0.7434  1.3126
 6067TIP3    H239761   5.965   6.854   2.033  0.9442  0.8870 -0.4049
 6068TIP3   OH239762   0.316   6.430   2.313 -0.5623 -0.6841 -0.1660
 6068TIP3    H139763   0.277   6.487   2.379 -0.8130 -0.1445 -0.7655
 6068TIP3    H239764   0.247   6.366   2.293 -1.1595  0.2485 -1.2014
 6069TIP3   OH239765   3.332   5.616   0.797  0.0866 -0.2136 -0.1490
 6069TIP3    H139766   3.416   5.654   0.772  0.6590 -0.9032  0.6880
 6069TIP3    H239767   3.315   5.651   0.885  0.3430 -1.4030  0.3939
 6070TIP3   OH239768   1.010   1.254   1.411  0.5502 -0.2547 -0.1241
 6070TIP3    H139769   1.002   1.162   1.435  0.6736 -0.4706 -0.8719
 6070TIP3    H239770   0.923   1.290   1.423  0.3603 -0.6150 -0.3919
 6071TIP3   OH239771   3.129   5.107   6.297  0.5819 -0.1895  0.3084
 6071TIP3    H139772   3.190   5.091   6.226 -1.3915  1.9096 -2.0554
 6071TIP3    H239773   3.044   5.078   6.264 -0.2156 -0.4144  2.3703
 6072TIP3   OH239774   4.857   6.710   8.312 -0.0858 -0.5313  0.2710
 6072TIP3    H139775   4.836   6.772   8.382  0.9267  0.6788 -0.4623
 6072TIP3    H239776   4.899   6.764   8.245  0.3382 -1.9400 -0.6154
 6073TIP3   OH239777   3.571   2.181   8.232 -0.3758 -0.4430  0.1538
 6073TIP3    H139778   3.600   2.264   8.269 -1.6437  1.0376 -1.9937
 6073TIP3    H239779   3.513   2.144   8.298 -1.3463  1.3595  0.3613
 6074TIP3   OH239780   4.283   0.318   6.878  0.2496 -0.1138  0.0588
 6074TIP3    H139781   4.198   0.353   6.853  0.6173 -0.1609 -1.3673
 6074TIP3    H239782   4.332   0.314   6.795  1.2568 -1.1156  0.6798
 6075TIP3   OH239783   5.284   4.621   6.728 -0.0334 -0.2700 -0.6443
 6075TIP3    H139784   5.315   4.532   6.746 -2.8834 -1.1870  0.2169
 6075TIP3    H239785   5.274   4.623   6.632 -1.1452 -1.3850 -0.5889
 6076TIP3   OH239786   2.540   4.548   0.066  0.0977 -0.2204  0.1440
 6076TIP3    H139787   2.510   4.634   0.096 -0.0906  0.2545 -1.3465
 6076TIP3    H239788   2.634   4.560   0.050  0.2643 -0.5640  0.8025
 6077TIP3   OH239789   3.807   1.387   1.431  0.6616  0.2803 -0.0989
 6077TIP3    H139790   3.791   1.440   1.509  4.0369  3.0357 -1.0046
 6077TIP3    H239791   3.862   1.315   1.462 -0.4322 -0.3098  0.4938
 6078TIP3   OH239792   5.810   0.759   0.848 -0.2596 -0.1305  0.3032
 6078TIP3    H139793   5.798   0.843   0.890  2.0708 -0.3148  1.4778
 6078TIP3    H239794   5.862   0.778   0.769 -0.2236 -0.3915  0.2607
 6079TIP3   OH239795   6.691   1.647   8.221 -0.6492  0.4793  0.3260
 6079TIP3    H139796   6.674   1.724   8.167  0.0733  0.2068 -0.3081
 6079TIP3    H239797   6.760   1.599   8.174 -1.4335 -0.8133  0.4518
 6080TIP3   OH239798   1.098   5.866   1.605  0.4098 -0.5313  0.4245
 6080TIP3    H139799   1.117   5.938   1.664  2.6484 -0.5644 -0.1677
 6080TIP3    H239800   1.165   5.872   1.537 -0.8206 -1.7282 -0.9730
 6081TIP3   OH239801   1.319   0.676   7.971  0.1950  0.3872 -0.1883
 6081TIP3    H139802   1.414   0.668   7.981  0.3173  1.4743 -0.3565
 6081TIP3    H239803   1.284   0.647   8.055  0.7031  0.4170  0.0405
 6082TIP3   OH239804   1.195   0.298   1.840 -0.8739 -0.1843  0.1902
 6082TIP3    H139805   1.226   0.347   1.764 -0.7843 -0.2148  0.2070
 6082TIP3    H239806   1.208   0.206   1.817  0.8002 -0.1652  0.9282
 6083TIP3   OH239807   3.769   2.558   2.113  0.4384  0.0056  0.2202
 6083TIP3    H139808   3.690   2.504   2.119 -0.5858  1.5509  1.1245
 6083TIP3    H239809   3.796   2.572   2.204  2.0903 -0.9082 -0.0782
 6084TIP3   OH239810   6.400   3.479   1.117 -0.4402 -0.3795  0.2805
 6084TIP3    H139811   6.451   3.479   1.036  1.1960 -1.0918  1.2590
 6084TIP3    H239812   6.331   3.543   1.102  1.1711  1.1684 -0.8653
 6085TIP3   OH239813   2.464   1.465   7.701  0.2823 -0.2888 -0.0686
 6085TIP3    H139814   2.401   1.414   7.753  1.2764 -1.2178  0.2645
 6085TIP3    H239815   2.462   1.424   7.615 -0.2182  0.2585 -0.3231
 6086TIP3   OH239816   6.722   4.737   0.495 -0.1935 -0.2504  0.6053
 6086TIP3    H139817   6.713   4.698   0.407 -0.6304  0.6553  0.2335
 6086TIP3    H239818   6.780   4.677   0.542  0.7436 -0.3146 -0.5706
 6087TIP3   OH239819   6.355   3.264   7.422  0.3239  0.2221 -0.0985
 6087TIP3    H139820   6.405   3.218   7.355 -0.9557  0.4974 -1.2897
 6087TIP3    H239821   6.359   3.206   7.498  0.6160 -0.7927 -0.8612
 6088TIP3   OH239822   6.213   0.443   1.851  0.7179 -0.0821 -0.4572
 6088TIP3    H139823   6.265   0.363   1.859 -1.5453 -1.8090 -1.6201
 6088TIP3    H239824   6.247   0.486   1.772 -1.8907 -3.2415 -3.6308
 6089TIP3   OH239825   0.883   4.741   6.519 -0.0303  0.1849 -0.0351
 6089TIP3    H139826   0.817   4.756   6.587  1.3487  1.6138  1.0866
 6089TIP3    H239827   0.886   4.824   6.471  0.7363  0.0365 -0.2528
 6090TIP3   OH239828   2.641   1.104   6.427 -0.5616  0.3594  0.0748
 6090TIP3    H139829   2.651   1.050   6.349  0.2887  0.9489 -0.2376
 6090TIP3    H239830   2.627   1.193   6.394 -1.4626  0.4182  0.5887
 6091TIP3   OH239831   5.656   3.089   8.454 -0.3683 -0.9882  0.4474
 6091TIP3    H139832   5.721   3.021   8.435 -0.5533 -1.0388 -0.0135
 6091TIP3    H239833   5.574   3.041   8.465 -0.5123 -0.8327  0.0508
 6092TIP3   OH239834   3.036   2.320   0.920  0.2488  0.3030 -0.2733
 6092TIP3    H139835   2.949   2.344   0.889 -0.5184 -1.6657  0.2203
 6092TIP3    H239836   3.065   2.251   0.861  0.8623 -0.0386  0.4130
 6093TIP3   OH239837   4.871   6.006   0.553 -0.0499 -0.3734 -0.0566
 6093TIP3    H139838   4.860   6.101   0.549 -0.7508 -0.4842 -1.2027
 6093TIP3    H239839   4.934   5.986   0.483 -0.4009 -0.8088 -0.2559
 6094TIP3   OH239840   2.730   2.966   7.366 -0.4319  0.0005  0.3265
 6094TIP3    H139841   2.686   2.987   7.449  0.7113  0.8526  0.7463
 6094TIP3    H239842   2.703   3.036   7.306  0.2099  0.4452  0.5437
 6095TIP3   OH239843   4.822   6.557   2.206 -0.2134 -0.2036 -0.7926
 6095TIP3    H139844   4.829   6.470   2.245 -0.4358  0.3826  0.6151
 6095TIP3    H239845   4.730   6.582   2.222  0.1416  0.7400 -0.1535
 6096TIP3   OH239846   2.354   0.533   7.638  0.2825 -0.0631 -0.2038
 6096TIP3    H139847   2.353   0.627   7.622 -1.5227 -0.0404 -0.1547
 6096TIP3    H239848   2.404   0.522   7.719 -1.3575  1.0933  1.0190
 6097TIP3   OH239849   0.252   2.554   8.134 -0.1971  0.4566  0.2806
 6097TIP3    H139850   0.164   2.525   8.159 -0.3883  1.3947  0.7465
 6097TIP3    H239851   0.311   2.488   8.170 -0.7452 -0.6706 -0.7985
 6098TIP3   OH239852   0.665   0.955   0.054 -0.6195 -0.0248  0.3127
 6098TIP3    H139853   0.714   1.031   0.085 -1.2887  0.4309  0.2592
 6098TIP3    H239854   0.702   0.937  -0.033 -0.2718  0.0625  0.4379
 6099TIP3   OH239855   5.844   3.756   8.181 -0.5528  0.7560  0.2204
 6099TIP3    H139856   5.869   3.717   8.265 -1.2590 -0.9256 -0.3209
 6099TIP3    H239857   5.916   3.734   8.122  0.2039  2.4017  0.4751
 6100TIP3   OH239858   4.925   0.624   1.061  0.6500  0.6170  0.0283
 6100TIP3    H139859   4.978   0.702   1.075 -0.1548  1.3377 -0.7992
 6100TIP3    H239860   4.950   0.593   0.975  0.0068  0.7472 -0.2117
 6101TIP3   OH239861   4.047   3.977   7.638  0.0886  0.3199  0.0488
 6101TIP3    H139862   4.115   3.919   7.601 -0.8991 -0.9942  0.2119
 6101TIP3    H239863   3.979   3.978   7.571 -0.6502 -0.1030  0.7794
 6102TIP3   OH239864   1.905   4.920   7.202 -0.0901  0.1503 -0.0328
 6102TIP3    H139865   1.981   4.966   7.236 -0.2028  0.8202 -0.6819
 6102TIP3    H239866   1.938   4.870   7.127 -0.5654  1.6662 -1.2994
 6103TIP3   OH239867   1.958   5.463   1.648 -0.4738  0.2762 -0.6866
 6103TIP3    H139868   1.969   5.408   1.725  0.5678 -2.4328 -2.6433
 6103TIP3    H239869   1.975   5.552   1.680  2.0587 -0.9595  1.7883
 6104TIP3   OH239870   3.711   2.827   1.280 -0.1200 -0.4606  0.2669
 6104TIP3    H139871   3.776   2.825   1.351  1.2677 -0.4618 -0.9503
 6104TIP3    H239872   3.750   2.774   1.210 -0.6280  0.9660 -1.1581
 6105TIP3   OH239873   1.497   4.418   7.160  0.3980 -0.0569  0.2374
 6105TIP3    H139874   1.516   4.497   7.109  2.7083 -0.2178  0.7268
 6105TIP3    H239875   1.427   4.444   7.220 -0.5015  0.8973 -1.1588
 6106TIP3   OH239876   0.538   1.909   1.339  0.3741 -0.1611 -0.3309
 6106TIP3    H139877   0.525   1.885   1.431 -0.1922 -3.2298 -1.1155
 6106TIP3    H239878   0.630   1.888   1.323  1.1311  2.5060  0.0163
 6107TIP3   OH239879   6.259   6.319   8.394  0.2773 -0.2272 -0.2309
 6107TIP3    H139880   6.352   6.306   8.378  0.5013  1.1657 -0.1756
 6107TIP3    H239881   6.236   6.252   8.458  1.1814 -0.7519 -0.4443
 6108TIP3   OH239882   1.078   3.620   8.555  0.0338  0.3565 -0.0944
 6108TIP3    H139883   1.014   3.649   8.620  0.3616 -0.4875  0.6241
 6108TIP3    H239884   1.071   3.684   8.484 -0.0880  1.5140  0.9237
 6109TIP3   OH239885   2.751   3.295   6.472 -0.1662 -0.3804 -0.2637
 6109TIP3    H139886   2.704   3.227   6.422 -1.1115  0.7609 -0.9815
 6109TIP3    H239887   2.691   3.370   6.472  0.5705  0.2264  1.1133
 6110TIP3   OH239888   5.365   6.478   7.665  0.8786  0.4636 -0.2506
 6110TIP3    H139889   5.455   6.455   7.642  0.3556  0.2403 -2.3426
 6110TIP3    H239890   5.342   6.549   7.604 -0.5518  0.0615 -0.2262
 6111TIP3   OH239891   3.554   1.448   7.985  0.4943 -0.4487  0.4086
 6111TIP3    H139892   3.620   1.382   7.962  1.1599 -0.1449  1.3934
 6111TIP3    H239893   3.471   1.400   7.986  1.0970 -1.5445  2.1380
 6112TIP3   OH239894   4.713   3.319   6.466 -0.4061 -0.0024  0.1693
 6112TIP3    H139895   4.708   3.363   6.551  1.4914 -0.3505  0.5154
 6112TIP3    H239896   4.759   3.237   6.484 -2.9783 -1.7233 -0.6489
 6113TIP3   OH239897   3.474   6.318   2.182 -0.7778 -0.0516 -0.3492
 6113TIP3    H139898   3.444   6.394   2.232 -0.1700  0.7306 -1.1643
 6113TIP3    H239899   3.478   6.248   2.247  1.7286  1.3527  1.1630
 6114TIP3   OH239900   3.620   3.231   1.139 -0.7610  0.4595 -0.2369
 6114TIP3    H139901   3.590   3.142   1.157  0.3149  0.2237  0.5262
 6114TIP3    H239902   3.662   3.226   1.053  0.5498 -0.1211  0.4068
 6115TIP3   OH239903   2.031   1.491   0.806  0.0869  0.5175 -0.1894
 6115TIP3    H139904   2.038   1.562   0.870 -1.2281 -0.3283  0.9401
 6115TIP3    H239905   1.990   1.532   0.730 -1.0423  0.9086  0.5975
 6116TIP3   OH239906   5.472   4.035   7.119 -0.2013 -0.1025  0.0218
 6116TIP3    H139907   5.510   4.104   7.065 -2.2121  0.4827 -0.7134
 6116TIP3    H239908   5.540   3.968   7.123  1.4036  1.4401 -0.1220
 6117TIP3   OH239909   6.703   6.679   7.289  0.3563  0.4861  0.9806
 6117TIP3    H139910   6.730   6.618   7.219 -0.4217  3.1254 -1.8523
 6117TIP3    H239911   6.608   6.668   7.295  0.3709  0.5651  1.3522
 6118TIP3   OH239912   6.449   4.820   2.141  0.0927  0.2113  0.7300
 6118TIP3    H139913   6.424   4.743   2.089 -0.9146  0.2366  1.1534
 6118TIP3    H239914   6.538   4.801   2.171 -0.3513 -1.0464  1.2982
 6119TIP3   OH239915   2.526   5.322   2.704  0.0095 -0.3441  0.3848
 6119TIP3    H139916   2.480   5.239   2.689  0.9784 -0.5141 -2.0166
 6119TIP3    H239917   2.583   5.332   2.628 -1.4993  3.4974 -0.4757
 6120TIP3   OH239918   4.986   2.972   0.428 -0.0148  0.4378 -0.2186
 6120TIP3    H139919   5.063   2.966   0.485  0.6508 -1.8353 -1.2581
 6120TIP3    H239920   5.006   2.914   0.355 -1.9036  1.3629 -1.5430
 6121TIP3   OH239921   6.404   0.508   0.465  0.0891  0.5784  0.3804
 6121TIP3    H139922   6.425   0.600   0.484  3.5782 -0.3235  1.6000
 6121TIP3    H239923   6.379   0.471   0.549 -1.2245  0.3320 -0.0913
 6122TIP3   OH239924   2.267   1.072   8.061  0.5727  0.2422 -0.2379
 6122TIP3    H139925   2.347   1.019   8.054  0.8601  0.4382  1.1606
 6122TIP3    H239926   2.261   1.093   8.154 -1.0051  0.4110 -0.3474
 6123TIP3   OH239927   6.765   6.247   2.051 -0.4801 -0.6279  0.2080
 6123TIP3    H139928   6.734   6.292   1.971 -0.5299 -0.9184  0.0617
 6123TIP3    H239929   6.709   6.281   2.120  0.2230  0.3829  0.2994
 6124TIP3   OH239930   4.548   0.755   8.524  0.4433  0.0605 -0.5968
 6124TIP3    H139931   4.563   0.753   8.429  1.5726  1.2856 -0.4806
 6124TIP3    H239932   4.617   0.813   8.557 -0.0971 -0.1476  0.9443
 6125TIP3   OH239933   1.539   0.872   7.509 -0.8636 -0.6156 -0.2900
 6125TIP3    H139934   1.521   0.781   7.533 -2.2780 -0.4174 -0.5124
 6125TIP3    H239935   1.513   0.923   7.585 -1.4172 -0.2986 -0.6825
 6126TIP3   OH239936   3.129   3.560   1.422  0.0518 -0.3733 -0.1629
 6126TIP3    H139937   3.036   3.547   1.406 -0.1105 -0.0547  0.4913
 6126TIP3    H239938   3.164   3.472   1.434 -0.3344 -0.4510  0.4594
 6127TIP3   OH239939   3.923   2.881   1.466  0.1804 -0.4866  0.2748
 6127TIP3    H139940   3.972   2.802   1.488  0.5153 -0.7982 -1.4284
 6127TIP3    H239941   3.990   2.948   1.452 -0.0648 -0.0755  1.0074
 6128TIP3   OH239942   6.000   0.171   7.662  0.9091 -0.6105 -0.4785
 6128TIP3    H139943   6.067   0.165   7.594 -0.9118 -0.0890 -2.4349
 6128TIP3    H239944   5.918   0.184   7.614 -0.5379 -0.6129  1.8226
 6129TIP3   OH239945   0.169   3.698   1.824  0.0432  0.4611 -0.9992
 6129TIP3    H139946   0.180   3.604   1.840  1.8267  0.7364 -0.2587
 6129TIP3    H239947   0.193   3.710   1.732  2.9343  0.5152 -0.3531
 6130TIP3   OH239948   4.330   2.557   0.793 -0.5885 -0.1722 -0.3635
 6130TIP3    H139949   4.387   2.504   0.738  0.1778 -0.3710  0.5896
 6130TIP3    H239950   4.373   2.557   0.879 -1.8003  0.0293  0.2682
 6131TIP3   OH239951   2.940   3.980   0.170 -0.4040 -0.4243 -0.4846
 6131TIP3    H139952   2.958   3.910   0.108  1.1716 -0.0181 -0.5154
 6131TIP3    H239953   2.942   3.937   0.256 -0.3938 -0.5917 -0.5683
 6132TIP3   OH239954   6.894   3.917   0.074  0.1457 -0.1004 -0.4063
 6132TIP3    H139955   6.805   3.898   0.045  0.8205 -2.6473 -1.1243
 6132TIP3    H239956   6.942   3.835   0.059  1.8752  0.1000  2.9186
 6133TIP3   OH239957   1.381   5.504   1.823 -0.6499  0.3549  0.0761
 6133TIP3    H139958   1.316   5.498   1.893 -1.1549  1.7530 -0.2480
 6133TIP3    H239959   1.386   5.415   1.787 -0.6066 -0.3185  1.6555
 6134TIP3   OH239960   1.597   5.917   1.950 -0.3022 -0.2402  0.0793
 6134TIP3    H139961   1.618   5.837   1.901  0.1701 -0.7376  1.0657
 6134TIP3    H239962   1.631   5.901   2.038 -1.5286  0.4627  0.7033
 6135TIP3   OH239963   5.589   5.002   8.407 -0.0322 -0.4786 -0.2525
 6135TIP3    H139964   5.517   4.990   8.468  0.2831  1.9522  0.6919
 6135TIP3    H239965   5.548   5.036   8.327  0.0658  2.1946  0.7214
 6136TIP3   OH239966   5.306   4.905   7.641  0.0200 -0.0966  0.1543
 6136TIP3    H139967   5.301   4.985   7.589 -0.3304 -0.4268 -0.3387
 6136TIP3    H239968   5.389   4.912   7.688 -0.7894  1.3245  1.4400
 6137TIP3   OH239969   6.290   6.885   7.865  0.1210  0.4275  1.0036
 6137TIP3    H139970   6.307   6.840   7.948 -2.4167 -2.5160  0.0681
 6137TIP3    H239971   6.195   6.887   7.857  0.0793  4.4484 -0.0034
 6138TIP3   OH239972   1.636   4.582   7.005  0.0402 -0.0808  0.5398
 6138TIP3    H139973   1.689   4.610   7.079  0.8575 -1.3362  0.4761
 6138TIP3    H239974   1.654   4.646   6.936  0.2880  0.3623  1.0155
 6139TIP3   OH239975   2.544   3.160   6.950  0.3809 -0.3941  0.0063
 6139TIP3    H139976   2.573   3.207   6.872  0.0629  0.3480  0.3211
 6139TIP3    H239977   2.624   3.148   7.001  0.2652  1.1126  0.5921
 6140TIP3   OH239978   1.644   1.149   2.607  0.1943 -0.0296 -0.2389
 6140TIP3    H139979   1.557   1.189   2.605 -0.6381 -1.5290  2.3142
 6140TIP3    H239980   1.704   1.224   2.609 -1.0743  1.0327 -0.5633
 6141TIP3   OH239981   5.778   1.675   7.456 -0.5159  0.3837  0.5727
 6141TIP3    H139982   5.729   1.722   7.389  0.2888 -0.2724 -0.5025
 6141TIP3    H239983   5.719   1.604   7.483 -0.7303  0.4772  0.3598
 6142TIP3   OH239984   0.904   1.033   6.597  0.0621  0.0982  0.5992
 6142TIP3    H139985   0.832   0.971   6.609 -1.1828  1.1175 -1.0049
 6142TIP3    H239986   0.952   1.000   6.522  0.1929  0.3586  0.5670
 6143TIP3   OH239987   1.795   4.882   0.069 -0.1265  0.0618  0.5248
 6143TIP3    H139988   1.887   4.881   0.094 -0.4279 -0.4042  1.6895
 6143TIP3    H239989   1.795   4.915  -0.021  1.0686  1.2445  0.9263
 6144TIP3   OH239990   6.778   4.083   1.608  0.8067 -0.4733  0.1902
 6144TIP3    H139991   6.745   4.000   1.643 -1.4276 -0.7097 -2.0694
 6144TIP3    H239992   6.771   4.145   1.680 -0.4987 -1.5873  1.0702
 6145TIP3   OH239993   0.854   4.167   7.976 -0.2609  0.5176 -0.3274
 6145TIP3    H139994   0.776   4.144   8.026 -0.5371  0.6865 -0.6713
 6145TIP3    H239995   0.825   4.164   7.884  0.6332 -1.3103 -0.5825
 6146TIP3   OH239996   4.995   3.548   0.192  0.3161 -0.6782 -0.0805
 6146TIP3    H139997   5.021   3.479   0.253 -0.7309 -0.3045  0.8074
 6146TIP3    H239998   5.056   3.620   0.209 -0.5941 -0.1989  1.2482
 6147TIP3   OH239999   1.528   6.183   0.660 -0.0608  0.1528  0.0731
 6147TIP3    H140000   1.445   6.178   0.613 -0.4077  1.4296  0.4997
 6147TIP3    H240001   1.594   6.157   0.596 -0.8134 -1.3244 -0.1423
 6148TIP3   OH240002   3.033   1.239   7.664  0.1016 -1.0442 -0.2803
 6148TIP3    H140003   3.100   1.171   7.660 -1.0484 -2.2912  0.4597
 6148TIP3    H240004   3.070   1.307   7.720  0.5316 -1.9957  0.6308
 6149TIP3   OH240005   6.104   5.999   1.087 -0.4496 -0.3307  0.2451
 6149TIP3    H140006   6.045   6.058   1.040 -0.3752 -0.4420  0.0102
 6149TIP3    H240007   6.104   6.032   1.177  1.2384  1.3615 -0.2999
 6150TIP3   OH240008   1.597   4.078   8.462 -0.2862  0.0396  0.1764
 6150TIP3    H140009   1.537   4.010   8.493 -0.2453 -0.4337 -0.7411
 6150TIP3    H240010   1.679   4.059   8.506 -0.0201 -1.0797 -0.7457
 6151TIP3   OH240011   4.243   6.673   1.498 -0.3235  0.4198  0.3214
 6151TIP3    H140012   4.274   6.675   1.588  1.3475 -1.5969 -0.1208
 6151TIP3    H240013   4.320   6.644   1.447 -1.5248  0.4003 -1.5723
 6152TIP3   OH240014   3.958   5.224   8.520  0.5364  0.5171 -0.0908
 6152TIP3    H140015   4.037   5.186   8.559  0.4546  0.7189  0.2815
 6152TIP3    H240016   3.983   5.247   8.431  0.7419  0.0779 -0.1482
 6153TIP3   OH240017   1.782   4.458   8.195 -0.7891 -0.3457  0.2770
 6153TIP3    H140018   1.714   4.453   8.262 -0.3793  0.5759  0.7734
 6153TIP3    H240019   1.753   4.527   8.135  0.1199  0.6860  0.9911
 6154TIP3   OH240020   5.518   1.706   7.633 -0.0948  0.1668 -0.2836
 6154TIP3    H140021   5.428   1.727   7.659 -0.6566 -1.4601 -0.7455
 6154TIP3    H240022   5.542   1.631   7.688  0.1417 -0.8062 -1.6570
 6155TIP3   OH240023   2.967   3.329   7.332  0.3300 -0.2438  0.0103
 6155TIP3    H140024   2.970   3.425   7.336 -0.0788 -0.1965 -0.6030
 6155TIP3    H240025   2.876   3.307   7.354  0.0611 -0.3981 -1.1696
 6156TIP3   OH240026   3.422   2.462   7.899  0.8380  0.0999  0.0134
 6156TIP3    H140027   3.400   2.446   7.807  2.1685 -1.2476 -0.1218
 6156TIP3    H240028   3.346   2.431   7.948 -0.3175  1.7991 -0.6481
 6157TIP3   OH240029   1.555   2.344   1.245 -0.0758 -0.2423 -0.6472
 6157TIP3    H140030   1.478   2.304   1.288  0.7846 -0.8464  0.3958
 6157TIP3    H240031   1.630   2.310   1.294  0.8318  0.8766 -1.2070
 6158TIP3   OH240032   4.903   4.771   6.619  0.1580 -0.2653  0.1585
 6158TIP3    H140033   4.851   4.708   6.668 -0.3249  0.0522  0.0615
 6158TIP3    H240034   4.973   4.797   6.679 -1.5424  1.6061  1.4469
 6159TIP3   OH240035   4.881   0.706   7.876  0.7989  0.4623 -0.0593
 6159TIP3    H140036   4.900   0.765   7.803 -1.5030  0.1820 -0.9468
 6159TIP3    H240037   4.841   0.629   7.836 -1.4825  0.7314  1.5289
 6160TIP3   OH240038   5.279   2.771   8.265 -0.7189  0.0062  0.7679
 6160TIP3    H140039   5.306   2.706   8.200 -0.8479  0.4049  0.3081
 6160TIP3    H240040   5.301   2.856   8.225 -0.5571  0.2452  1.3601
 6161TIP3   OH240041   4.508   1.111   8.527 -0.4116  0.2036 -0.4282
 6161TIP3    H140042   4.430   1.056   8.541  0.4702 -0.7385  0.9628
 6161TIP3    H240043   4.477   1.200   8.541 -0.8359 -0.2899  2.1933
 6162TIP3   OH240044   0.544   0.936   0.853  0.0744 -0.0709  0.2136
 6162TIP3    H140045   0.499   0.924   0.770 -0.3880 -1.2226  0.6077
 6162TIP3    H240046   0.616   0.995   0.833  0.9327 -1.5724 -1.3690
 6163TIP3   OH240047   4.053   4.132   1.241 -0.2249 -0.3879 -0.3833
 6163TIP3    H140048   4.050   4.098   1.330  0.2829 -1.9723 -0.9316
 6163TIP3    H240049   4.047   4.227   1.251 -0.1861 -0.5358  1.3279
 6164TIP3   OH240050   2.930   1.948   0.140  0.0367  0.5514  0.0312
 6164TIP3    H140051   3.023   1.966   0.132  0.4365 -2.0121 -2.2147
 6164TIP3    H240052   2.918   1.923   0.232  1.3554  1.6307  0.5296
 6165TIP3   OH240053   0.872   0.321   2.451 -0.0546 -0.2204 -0.2192
 6165TIP3    H140054   0.900   0.280   2.369  1.4775 -0.1506  0.2385
 6165TIP3    H240055   0.837   0.248   2.503 -1.8073 -0.1469 -1.1886
 6166TIP3   OH240056   4.786   4.269   7.845  0.2528  0.4528  0.0678
 6166TIP3    H140057   4.711   4.298   7.897 -0.3448  1.8221 -1.4662
 6166TIP3    H240058   4.819   4.349   7.804  1.8500 -0.3015 -0.2060
 6167TIP3   OH240059   5.729   5.984   0.479 -0.0924 -0.0588  0.3157
 6167TIP3    H140060   5.635   5.979   0.497  0.0982  0.2306  1.5266
 6167TIP3    H240061   5.748   5.905   0.428 -0.9553 -0.2299  0.2422
 6168TIP3   OH240062   5.465   0.707   0.420 -0.3317  0.6875  0.0386
 6168TIP3    H140063   5.552   0.675   0.395  0.4096  1.5970  1.3130
 6168TIP3    H240064   5.413   0.700   0.340  0.7069 -0.5665 -0.5574
 6169TIP3   OH240065   3.922   3.407   6.588 -0.7121  0.3451 -0.0299
 6169TIP3    H140066   3.907   3.315   6.565 -2.2941  0.1370  1.6370
 6169TIP3    H240067   3.997   3.433   6.534  0.1630 -2.0900 -0.0976
 6170TIP3   OH240068   0.516   5.923   0.819 -0.0192 -0.1576  0.1859
 6170TIP3    H140069   0.580   5.946   0.885 -1.3992  1.2687  1.1001
 6170TIP3    H240070   0.442   5.982   0.835 -2.3755 -2.8918  0.4068
 6171TIP3   OH240071   5.620   1.019   1.646 -0.6917 -0.1460 -0.5550
 6171TIP3    H140072   5.525   1.015   1.636 -0.6826  0.4287 -0.8906
 6171TIP3    H240073   5.634   1.010   1.740 -1.1171  0.4739 -0.4297
 6172TIP3   OH240074   5.981   2.105   7.353 -0.1798  0.7579 -0.2404
 6172TIP3    H140075   5.999   2.160   7.277  2.4876  2.0784  1.2065
 6172TIP3    H240076   5.913   2.153   7.402  0.2042  1.4219 -0.3433
 6173TIP3   OH240077   6.908   5.308   0.646 -0.2641 -0.2822  0.0897
 6173TIP3    H140078   6.856   5.333   0.570 -0.8472  0.2139  0.6356
 6173TIP3    H240079   6.848   5.319   0.720  1.2157  2.5901  1.0483
 6174TIP3   OH240080   6.499   0.254   7.429  0.0271  0.2064 -0.0970
 6174TIP3    H140081   6.465   0.227   7.514  1.7280  1.9011  1.2006
 6174TIP3    H240082   6.420   0.273   7.377 -1.1131  2.1232  2.1427
 6175TIP3   OH240083   5.512   1.287   1.661 -0.3255 -0.1215  0.1019
 6175TIP3    H140084   5.498   1.230   1.737 -0.5454  0.4550  0.5044
 6175TIP3    H240085   5.492   1.232   1.585 -1.9606 -0.1777  0.5417
 6176TIP3   OH240086   5.168   1.594   1.113 -0.2047 -0.4426  0.0525
 6176TIP3    H140087   5.089   1.638   1.083 -0.4260  0.1321  1.4090
 6176TIP3    H240088   5.190   1.534   1.041 -1.2314  0.1715 -0.8177
 6177TIP3   OH240089   3.979   2.346   6.766  0.0516 -0.4154 -0.3019
 6177TIP3    H140090   4.048   2.380   6.710  1.0153  1.7117  1.9667
 6177TIP3    H240091   3.904   2.402   6.749  0.1263 -0.2252 -0.0263
 6178TIP3   OH240092   5.787   6.884   0.484  0.3301  0.2776 -0.6317
 6178TIP3    H140093   5.873   6.917   0.510 -0.1447  0.7396  0.4544
 6178TIP3    H240094   5.801   6.792   0.463  0.8594 -0.0235  0.9111
 6179TIP3   OH240095   6.636   0.811   1.114  0.2677  0.3255 -0.2124
 6179TIP3    H140096   6.633   0.721   1.083  1.4468  0.6413 -1.2961
 6179TIP3    H240097   6.695   0.808   1.190  0.1388  0.1533 -0.1184
 6180TIP3   OH240098   0.291   5.967   7.072  0.5077 -0.0559 -0.9355
 6180TIP3    H140099   0.303   5.900   7.140  0.7487  0.0581 -0.8630
 6180TIP3    H240100   0.274   5.917   6.992  1.1550 -0.2228 -0.9755
 6181TIP3   OH240101   5.629   5.728   7.994 -0.0018 -0.2866  0.1406
 6181TIP3    H140102   5.674   5.772   7.922  2.2015  0.7818  2.0091
 6181TIP3    H240103   5.699   5.685   8.043 -1.3096 -0.5129  1.9205
 6182TIP3   OH240104   4.702   6.478   8.210  0.3285  0.4781  0.9492
 6182TIP3    H140105   4.758   6.407   8.241 -0.9686 -0.3286  1.5382
 6182TIP3    H240106   4.750   6.557   8.232  1.7575 -0.1914  0.3906
 6183TIP3   OH240107   1.359   4.823   2.483 -0.3214 -0.2244  0.1970
 6183TIP3    H140108   1.391   4.906   2.448 -1.0786 -0.1481 -0.3425
 6183TIP3    H240109   1.367   4.832   2.578  0.0491  0.2817  0.1184
 6184TIP3   OH240110   3.291   6.842   1.726  0.3735 -0.0055  0.2974
 6184TIP3    H140111   3.210   6.886   1.752  0.5766  2.4149 -2.5746
 6184TIP3    H240112   3.263   6.771   1.669  0.1858  1.0691 -1.0108
 6185TIP3   OH240113   2.971   0.236   7.465 -0.8729 -0.0978  0.4039
 6185TIP3    H140114   3.012   0.311   7.508 -3.2228  1.1759  0.5903
 6185TIP3    H240115   2.923   0.273   7.391 -0.1616 -1.7659 -0.9889
 6186TIP3   OH240116   3.836   0.114   7.346 -0.4672  0.3345 -0.1359
 6186TIP3    H140117   3.905   0.101   7.412 -1.0728 -0.9728  0.2938
 6186TIP3    H240118   3.882   0.117   7.263  0.2213  0.8769  0.2588
 6187TIP3   OH240119   5.639   6.813   1.925 -0.5847  0.2859 -0.4372
 6187TIP3    H140120   5.731   6.812   1.953 -0.2208 -1.6207 -1.5098
 6187TIP3    H240121   5.589   6.813   2.007  0.3793  0.1511  0.1739
 6188TIP3   OH240122   0.029   1.836   8.405  0.4913 -0.0389 -0.1983
 6188TIP3    H140123  -0.014   1.885   8.335  0.6398  0.3555 -0.0168
 6188TIP3    H240124  -0.040   1.781   8.442  0.2813  0.1737 -0.2790
 6189TIP3   OH240125   0.450   2.604   0.201 -0.3432  0.2444  0.4617
 6189TIP3    H140126   0.436   2.665   0.273 -0.8286  1.0420 -0.2946
 6189TIP3    H240127   0.497   2.654   0.135 -1.0995 -0.0770 -0.3329
 6190TIP3   OH240128   5.134   5.194   1.615  0.3312  0.3274  0.2203
 6190TIP3    H140129   5.081   5.239   1.681 -0.2165 -0.4442  0.3286
 6190TIP3    H240130   5.159   5.263   1.553  1.2263  1.1483  1.4526
 6191TIP3   OH240131   5.251   6.645   8.383  0.0516 -0.5323 -0.6835
 6191TIP3    H140132   5.243   6.586   8.458 -1.1516  0.4652  0.0139
 6191TIP3    H240133   5.234   6.732   8.419  0.3942  0.0826 -1.9491
 6192TIP3   OH240134   3.381   0.990   1.201  0.0443 -0.6266  0.0221
 6192TIP3    H140135   3.459   0.936   1.185  0.9735  0.2312  1.4994
 6192TIP3    H240136   3.395   1.028   1.287 -1.0286  1.2655 -0.5903
 6193TIP3   OH240137   2.983   2.905   8.327 -0.0712  0.4427  0.2509
 6193TIP3    H140138   2.923   2.978   8.311 -1.7519 -0.9640 -0.1548
 6193TIP3    H240139   2.945   2.858   8.401 -0.2733 -1.2746 -0.9008
 6194TIP3   OH240140   6.742   0.756   0.213 -0.1316 -0.3064 -0.2426
 6194TIP3    H140141   6.650   0.738   0.194  0.2136  0.1722 -2.6798
 6194TIP3    H240142   6.743   0.847   0.242 -0.6334 -0.9483  1.9775
 6195TIP3   OH240143   6.035   2.821   6.072 -0.3957  0.4917  0.5242
 6195TIP3    H140144   6.058   2.881   6.143  0.6722  1.7631 -0.8488
 6195TIP3    H240145   6.117   2.776   6.051 -1.0907 -1.1959  1.2512
 6196TIP3   OH240146   0.383   4.245   1.184 -0.5042  0.3072 -0.7050
 6196TIP3    H140147   0.338   4.321   1.222 -1.4378  0.8389 -2.7357
 6196TIP3    H240148   0.469   4.279   1.159 -0.8963  0.7124 -1.5493
 6197TIP3   OH240149   4.693   4.111   1.184  0.2126 -0.4529  0.7931
 6197TIP3    H140150   4.733   4.197   1.197  0.5194 -0.7563  1.9945
 6197TIP3    H240151   4.766   4.051   1.171  0.1213 -0.8037  1.7371
 6198TIP3   OH240152   0.139   0.479   7.011 -0.4154  0.1557  0.0963
 6198TIP3    H140153   0.110   0.510   6.925 -1.6452  1.7802  1.0226
 6198TIP3    H240154   0.073   0.414   7.037  0.0449 -0.4534 -0.2407
 6199TIP3   OH240155   3.645   5.851   1.646  0.4229  0.3314 -0.0830
 6199TIP3    H140156   3.666   5.871   1.738 -0.1630 -0.9973  0.3600
 6199TIP3    H240157   3.553   5.825   1.647  0.7942 -1.1318 -0.7807
 6200TIP3   OH240158   6.428   2.942   7.106 -0.2597 -0.8235 -0.1077
 6200TIP3    H140159   6.383   2.877   7.160  0.1261 -0.3094  0.8541
 6200TIP3    H240160   6.502   2.895   7.069  1.3203 -0.4289  2.3652
 6201TIP3   OH240161   2.649   0.818   1.622  0.1480 -0.8142 -0.1016
 6201TIP3    H140162   2.560   0.849   1.604 -0.7326 -3.4428 -0.6969
 6201TIP3    H240163   2.669   0.854   1.709 -1.2666  0.2868 -0.1808
 6202TIP3   OH240164   1.570   4.740   2.717 -0.4816  0.6982 -0.3501
 6202TIP3    H140165   1.655   4.768   2.752  0.9747 -3.1080 -0.3339
 6202TIP3    H240166   1.508   4.804   2.750  2.1752  2.9489  0.7064
 6203TIP3   OH240167   2.654   6.484   1.988 -0.7389  0.0457  0.6695
 6203TIP3    H140168   2.694   6.400   2.008  1.1214  0.6026 -0.4513
 6203TIP3    H240169   2.619   6.515   2.072  2.0498 -0.0757  1.9712
 6204TIP3   OH240170   2.468   1.923   1.553  0.2374  0.1324 -0.5478
 6204TIP3    H140171   2.524   1.847   1.568 -0.4143 -0.1303  0.6559
 6204TIP3    H240172   2.462   1.966   1.638 -0.5623  0.7270 -0.8890
 6205TIP3   OH240173   0.155   2.692   1.603  0.0379  0.5128  0.1519
 6205TIP3    H140174   0.231   2.653   1.560  1.8393  0.0680  3.3666
 6205TIP3    H240175   0.081   2.669   1.548  2.2021  1.5004 -3.5259
 6206TIP3   OH240176   4.658   5.086   7.058  0.9903 -0.9102 -0.4646
 6206TIP3    H140177   4.640   5.179   7.045  0.7726 -0.8260  0.3739
 6206TIP3    H240178   4.601   5.041   6.996 -0.4214 -0.5532  0.5104
 6207TIP3   OH240179   4.371   1.203   1.329  0.3184 -0.1550 -0.5479
 6207TIP3    H140180   4.316   1.132   1.361 -1.3946  0.6943 -1.5032
 6207TIP3    H240181   4.316   1.280   1.333  0.9773  0.5039 -2.7905
 6208TIP3   OH240182   1.029   4.150   7.478 -0.1929 -0.6496  0.0163
 6208TIP3    H140183   1.023   4.082   7.545 -0.0062 -0.2555  0.4395
 6208TIP3    H240184   0.996   4.229   7.521 -0.0999 -0.4015 -0.3643
 6209TIP3   OH240185   0.145   3.699   6.963 -0.2602  0.3504 -0.2239
 6209TIP3    H140186   0.219   3.679   7.020 -0.3174  0.2087 -0.2003
 6209TIP3    H240187   0.117   3.614   6.928  0.6240  0.5602 -1.5322
 6210TIP3   OH240188   2.843   6.401   0.814 -0.9800 -0.0462 -0.0408
 6210TIP3    H140189   2.823   6.494   0.810 -1.3499 -0.1499 -0.9968
 6210TIP3    H240190   2.877   6.387   0.902 -0.9722  0.9782  0.1303
 6211TIP3   OH240191   0.743   0.768   7.030  0.1771 -0.0045 -0.2978
 6211TIP3    H140192   0.737   0.721   6.946  0.0569  1.6264 -1.2399
 6211TIP3    H240193   0.793   0.847   7.010  0.1174  0.4413  1.1785
 6212TIP3   OH240194   0.279   4.474   1.310 -0.4043  0.4859 -0.0298
 6212TIP3    H140195   0.323   4.557   1.331 -0.5480  0.8125 -0.9678
 6212TIP3    H240196   0.191   4.485   1.345 -0.0245  0.1902  1.0427
 6213TIP3   OH240197   0.336   0.055   7.898 -0.4617  0.0251 -0.1570
 6213TIP3    H140198   0.256   0.105   7.880 -0.4010  0.7304  1.3492
 6213TIP3    H240199   0.400   0.121   7.927  0.1496 -0.7159  0.2389
 6214TIP3   OH240200   2.566   5.651   3.136  1.0263 -0.3519  0.2346
 6214TIP3    H140201   2.568   5.600   3.055 -1.7399  0.0534 -0.1592
 6214TIP3    H240202   2.536   5.738   3.109  2.6188  0.6096  1.3593
 6215TIP3   OH240203   4.172   2.837   0.443  0.1807 -0.8036 -0.5806
 6215TIP3    H140204   4.203   2.928   0.441  0.1454 -0.8098 -2.0725
 6215TIP3    H240205   4.253   2.785   0.445  0.2042 -0.7585  1.1637
 6216TIP3   OH240206   3.266   0.555   0.889 -0.3362 -0.1376  0.1941
 6216TIP3    H140207   3.205   0.483   0.879  0.2526 -0.5726 -0.3248
 6216TIP3    H240208   3.214   0.625   0.930 -1.1481 -0.5224 -0.1567
 6217TIP3   OH240209   4.628   4.755   1.540 -0.6829 -0.6120  0.0456
 6217TIP3    H140210   4.671   4.841   1.545  0.4855 -1.1932  0.5143
 6217TIP3    H240211   4.556   4.760   1.602  0.2265 -0.4027  1.1341
 6218TIP3   OH240212   1.789   2.388   7.447  0.2911 -0.1244 -0.6400
 6218TIP3    H140213   1.833   2.304   7.433 -0.6883 -0.6164 -0.7901
 6218TIP3    H240214   1.724   2.371   7.515 -0.6387  0.2406 -1.4174
 6219TIP3   OH240215   1.753   1.000   1.364  0.8172  0.3069 -0.7464
 6219TIP3    H140216   1.677   1.020   1.309  1.2181 -0.6087 -1.6583
 6219TIP3    H240217   1.767   1.080   1.415 -1.0170  0.3497 -0.2303
 6220TIP3   OH240218   3.997   0.061   7.544  0.4697 -0.0613  0.6942
 6220TIP3    H140219   3.957   0.050   7.630 -0.2188 -0.4128  0.3390
 6220TIP3    H240220   4.086   0.030   7.555  0.6832  0.7717  1.5150
 6221TIP3   OH240221   0.380   0.360   6.849  0.1709  0.1217  0.8268
 6221TIP3    H140222   0.412   0.398   6.767 -1.5681 -1.0224 -0.4476
 6221TIP3    H240223   0.333   0.432   6.891  2.0799  1.0666  1.4690
 6222TIP3   OH240224   3.663   5.536   8.280 -0.2298 -0.3928  0.2484
 6222TIP3    H140225   3.642   5.597   8.351 -2.1867 -2.6063  1.7311
 6222TIP3    H240226   3.598   5.467   8.288 -0.9822 -0.4693 -4.1891
 6223TIP3   OH240227   4.112   0.153   2.304  0.5806 -0.2791  0.2421
 6223TIP3    H140228   4.168   0.172   2.379 -1.0098 -0.8936  1.6385
 6223TIP3    H240229   4.065   0.235   2.288  1.2382 -0.0107 -0.4163
 6224TIP3   OH240230   1.164   4.655   2.601 -0.5857  0.4330  0.6355
 6224TIP3    H140231   1.229   4.682   2.537  0.7693 -0.6765  1.4901
 6224TIP3    H240232   1.119   4.736   2.626 -0.3618  1.0417 -0.8316
 6225TIP3   OH240233   5.179   4.692   0.716  0.2139 -0.3471  0.0377
 6225TIP3    H140234   5.157   4.775   0.673 -1.1567 -0.0589  1.2177
 6225TIP3    H240235   5.184   4.714   0.809  1.4020 -1.2908  0.2103
 6226TIP3   OH240236   6.185   3.435   0.596 -0.4357 -0.0755  0.3486
 6226TIP3    H140237   6.155   3.372   0.530 -0.4529  0.4268 -0.1251
 6226TIP3    H240238   6.267   3.398   0.629 -1.8180 -1.8065  2.1169
 6227TIP3   OH240239   3.964   6.033   8.446 -0.3314  0.2164 -0.4816
 6227TIP3    H140240   4.004   6.063   8.365  1.1619 -0.4158 -0.0219
 6227TIP3    H240241   4.013   6.079   8.515 -0.1230 -0.8487  0.1058
 6228TIP3   OH240242   5.661   6.523   1.836 -0.7968 -0.5103  0.0100
 6228TIP3    H140243   5.630   6.614   1.830 -3.2421 -1.1552  1.5472
 6228TIP3    H240244   5.596   6.473   1.787 -0.0607 -1.5537  0.0757
 6229TIP3   OH240245   4.666   3.033   8.065 -0.6502 -0.1780  0.0759
 6229TIP3    H140246   4.639   2.944   8.042 -1.6323  0.2915 -0.7105
 6229TIP3    H240247   4.588   3.071   8.107 -0.5831  0.6107 -0.4884
 6230TIP3   OH240248   5.547   4.879   6.582  0.1981  0.3009 -0.0545
 6230TIP3    H140249   5.608   4.949   6.559  0.5473  0.0712  0.1463
 6230TIP3    H240250   5.463   4.922   6.595  0.1203  0.5156 -1.1730
 6231TIP3   OH240251   1.176   1.967   1.048  0.0431  0.2058  0.5489
 6231TIP3    H140252   1.157   1.941   1.138  0.7529  0.9190  0.9202
 6231TIP3    H240253   1.117   1.914   0.995  0.3717 -1.0138  1.3593
 6232TIP3   OH240254   3.581   2.318   7.584  0.6813 -0.5003 -0.2094
 6232TIP3    H140255   3.500   2.365   7.602  0.6078 -0.2976 -1.0602
 6232TIP3    H240256   3.609   2.285   7.670 -0.4703 -0.8587  0.0427
 6233TIP3   OH240257   4.232   6.347   1.635 -0.2626 -0.0842 -0.0489
 6233TIP3    H140258   4.184   6.265   1.631 -1.8904  0.8878 -1.4758
 6233TIP3    H240259   4.224   6.385   1.548 -0.5723  2.1559  0.8849
 6234TIP3   OH240260   0.172   4.451   7.721  0.3585 -0.1241 -0.5348
 6234TIP3    H140261   0.184   4.516   7.652  1.7647  0.2261  0.0000
 6234TIP3    H240262   0.150   4.503   7.798 -0.7164 -0.4711 -0.6015
 6235TIP3   OH240263   2.847   6.841   7.852 -0.1074  0.7685 -0.1027
 6235TIP3    H140264   2.778   6.871   7.793  1.8159  0.8289 -2.4660
 6235TIP3    H240265   2.802   6.783   7.914 -2.3420  1.2809 -1.1479
 6236TIP3   OH240266   2.009   2.101   0.570  0.3879 -0.2668 -0.0049
 6236TIP3    H140267   1.918   2.125   0.552  0.3620 -0.7411 -0.5519
 6236TIP3    H240268   2.021   2.017   0.525  1.4998  0.4819 -1.1991
 6237TIP3   OH240269   6.732   4.874   7.630 -0.0060  0.0940  0.2163
 6237TIP3    H140270   6.801   4.859   7.565 -0.2265  0.1572 -0.0300
 6237TIP3    H240271   6.704   4.786   7.656  0.2620  0.0651  0.4217
 6238TIP3   OH240272   6.157   5.620   2.108  0.4719  0.9337 -0.0319
 6238TIP3    H140273   6.172   5.582   2.195  0.4232  0.2812 -0.3072
 6238TIP3    H240274   6.158   5.545   2.048 -0.0157  1.3223 -0.5332
 6239TIP3   OH240275   6.270   1.835   7.047  0.7294  0.2113  0.3925
 6239TIP3    H140276   6.295   1.868   7.133  4.2981  1.3999 -0.9225
 6239TIP3    H240277   6.316   1.751   7.038 -1.3013 -0.9651  0.3664
 6240TIP3   OH240278   4.006   6.070   0.183  0.7818  0.5910 -0.7704
 6240TIP3    H140279   4.030   6.111   0.266  0.3375  0.6790 -0.6815
 6240TIP3    H240280   3.921   6.109   0.161  0.7439  0.3261 -1.1017
 6241TIP3   OH240281   4.126   1.498   1.648  0.0690  0.0811  0.2476
 6241TIP3    H140282   4.084   1.580   1.673  0.2273 -0.2524  1.6521
 6241TIP3    H240283   4.077   1.430   1.693  1.3260 -0.4124  0.9323
 6242TIP3   OH240284   2.407   1.291   0.866  0.6867  0.5674 -0.0940
 6242TIP3    H140285   2.405   1.202   0.902  1.0858 -0.7540 -3.0615
 6242TIP3    H240286   2.356   1.343   0.928 -1.1739 -2.1063  0.7974
 6243TIP3   OH240287   6.599   5.224   7.712 -0.4190 -0.2566  0.3028
 6243TIP3    H140288   6.570   5.267   7.793 -0.5278 -1.5500  0.9754
 6243TIP3    H240289   6.683   5.184   7.735  0.5253  0.9931 -0.8062
 6244TIP3   OH240290   6.804   5.753   1.710  0.1402 -0.1419  0.4618
 6244TIP3    H140291   6.879   5.755   1.770  0.4072  0.0282  0.1277
 6244TIP3    H240292   6.758   5.835   1.726  1.2274  0.7732 -0.8285
 6245TIP3   OH240293   0.711   3.737   8.016  0.1904 -0.2347  0.5587
 6245TIP3    H140294   0.800   3.722   8.046  0.5830 -0.7254 -0.7712
 6245TIP3    H240295   0.656   3.688   8.076  0.8395 -0.2087  1.1795
 6246TIP3   OH240296   6.165   4.309   2.046  0.0993  0.4926 -0.2467
 6246TIP3    H140297   6.125   4.357   2.119  0.2604 -0.8688  0.7723
 6246TIP3    H240298   6.109   4.327   1.971 -0.7210  0.9939  0.4743
 6247TIP3   OH240299   4.176   6.339   0.139  0.0166 -0.4484 -0.2290
 6247TIP3    H140300   4.218   6.288   0.071 -1.2464 -0.5927 -0.9433
 6247TIP3    H240301   4.131   6.275   0.194  4.1683 -0.7846  3.2357
 6248TIP3   OH240302   6.834   2.692   2.166  0.5144 -0.3648  0.1330
 6248TIP3    H140303   6.845   2.768   2.223 -1.1609  0.3977 -0.5072
 6248TIP3    H240304   6.848   2.726   2.078 -0.4658 -0.7251 -0.1772
 6249TIP3   OH240305   5.110   4.096   8.103 -0.0727 -0.6036 -0.2408
 6249TIP3    H140306   5.079   4.059   8.185  1.4839 -0.0075  0.6546
 6249TIP3    H240307   5.153   4.177   8.128  2.2658 -1.4018 -1.3340
 6250TIP3   OH240308   5.542   4.740   0.186  0.1445 -0.5286 -0.5340
 6250TIP3    H140309   5.540   4.694   0.102  1.6077  0.1994 -0.9867
 6250TIP3    H240310   5.574   4.827   0.165  0.7943 -0.4186  0.8304
 6251TIP3   OH240311   2.732   3.766   0.502 -0.1129 -0.2630 -0.5649
 6251TIP3    H140312   2.757   3.714   0.425  2.1005  0.0019 -0.0992
 6251TIP3    H240313   2.815   3.793   0.540 -1.1826  0.6873  1.2175
 6252TIP3   OH240314   0.407   2.189   8.012  0.3517 -0.0749 -0.2392
 6252TIP3    H140315   0.442   2.268   7.971 -2.2902  1.9735  1.0601
 6252TIP3    H240316   0.472   2.163   8.077  0.9326  1.5714 -0.1331
 6253TIP3   OH240317   4.012   5.304   8.252  0.2233  0.4997  0.5063
 6253TIP3    H140318   3.921   5.281   8.237 -0.4161  2.7346  0.5378
 6253TIP3    H240319   4.028   5.379   8.194  2.3336 -0.3948 -0.1815
 6254TIP3   OH240320   6.693   2.521   7.534  0.3836 -0.0883 -0.7184
 6254TIP3    H140321   6.757   2.458   7.501 -1.9883 -2.8695 -0.4133
 6254TIP3    H240322   6.637   2.539   7.458 -0.0229  0.2372 -0.3401
 6255TIP3   OH240323   0.394   6.086   0.213  0.2412 -0.2565  0.3277
 6255TIP3    H140324   0.410   6.173   0.176  0.8357 -0.2379  0.6145
 6255TIP3    H240325   0.437   6.088   0.299 -0.7894 -0.4284  0.8591
 6256TIP3   OH240326   2.343   1.137   0.596  0.2605 -0.0451 -0.2738
 6256TIP3    H140327   2.325   1.194   0.670 -2.1137 -1.7082  0.5749
 6256TIP3    H240328   2.425   1.093   0.618 -0.1781 -0.1745  1.1739
 6257TIP3   OH240329   3.888   3.328   8.018 -0.1004 -0.3968 -0.0741
 6257TIP3    H140330   3.908   3.409   7.971 -0.6928 -0.2380 -0.0608
 6257TIP3    H240331   3.839   3.275   7.955  0.7924 -1.0031 -0.2874
 6258TIP3   OH240332   2.496   1.271   0.227  0.3988  0.3524  0.2093
 6258TIP3    H140333   2.537   1.341   0.176  1.6677 -1.1543 -0.9312
 6258TIP3    H240334   2.490   1.197   0.166 -0.4181 -0.7069  1.5184
 6259TIP3   OH240335   4.402   6.047   7.548 -0.4052 -0.1432  0.4699
 6259TIP3    H140336   4.390   6.134   7.511 -0.0466  0.0081  0.6942
 6259TIP3    H240337   4.342   6.044   7.623  0.7650  0.5443  1.4836
 6260TIP3   OH240338   6.727   0.562   2.019  1.2097  0.9040 -0.0762
 6260TIP3    H140339   6.674   0.614   1.959  1.1275  0.0344 -0.7718
 6260TIP3    H240340   6.816   0.567   1.984  1.1806  0.4801 -0.2134
 6261TIP3   OH240341   2.408   3.652   0.213 -0.6838  0.3334 -0.2301
 6261TIP3    H140342   2.455   3.715   0.269 -2.0449  0.1927  1.1498
 6261TIP3    H240343   2.467   3.637   0.140  0.8789  1.0927  0.8038
 6262TIP3   OH240344   6.585   2.957   7.457 -0.0491  0.7064 -0.2164
 6262TIP3    H140345   6.625   2.994   7.535  0.0608  1.3417 -0.5679
 6262TIP3    H240346   6.624   2.869   7.450  0.2511  0.7998  0.2050
 6263TIP3   OH240347   3.866   0.143   0.598  0.4773 -0.6687 -0.7176
 6263TIP3    H140348   3.787   0.098   0.568 -1.3915  0.9029  1.4963
 6263TIP3    H240349   3.854   0.153   0.693  0.9825  3.7537 -0.8783
 6264TIP3   OH240350   6.122   1.276   0.120 -0.7247 -0.1039 -0.0137
 6264TIP3    H140351   6.166   1.208   0.172  0.2203  0.9015  0.5343
 6264TIP3    H240352   6.126   1.355   0.174 -2.6003  0.2089 -0.2631
 6265TIP3   OH240353   0.757   2.456   7.537  0.1587  0.1097  0.4170
 6265TIP3    H140354   0.741   2.549   7.522  0.8293  0.0898 -0.4911
 6265TIP3    H240355   0.701   2.434   7.611  0.4316  1.3642  1.0217
 6266TIP3   OH240356   1.211   1.870   7.568  0.2315 -0.2698 -0.1036
 6266TIP3    H140357   1.234   1.780   7.545  1.7035 -0.1390  0.7022
 6266TIP3    H240358   1.260   1.887   7.649 -0.1996  1.1783 -0.1170
 6267TIP3   OH240359   4.400   1.444   2.064  0.1351 -0.1840  0.4352
 6267TIP3    H140360   4.336   1.388   2.109  0.5666  0.6671  2.1940
 6267TIP3    H240361   4.485   1.406   2.086  0.3302 -0.2887 -0.4572
 6268TIP3   OH240362   6.557   5.852   0.155  0.3494  0.4567 -0.4069
 6268TIP3    H140363   6.596   5.919   0.099 -0.1691 -0.2671 -1.6636
 6268TIP3    H240364   6.631   5.795   0.178  0.6890  1.1261  0.2215
 6269TIP3   OH240365   1.918   3.599   0.277  0.1075 -0.7585 -0.6009
 6269TIP3    H140366   2.010   3.572   0.282  1.1872  1.6868 -3.7413
 6269TIP3    H240367   1.897   3.627   0.366  3.4936  1.4513 -0.3134
 6270TIP3   OH240368   1.013   1.244   6.308  0.1231  0.4396 -0.2521
 6270TIP3    H140369   1.042   1.329   6.274 -1.8551  1.2351 -0.0821
 6270TIP3    H240370   0.927   1.262   6.346  0.4317 -1.2897  1.4002
 6271TIP3   OH240371   3.485   4.307   1.209  0.7289 -0.4627 -0.3686
 6271TIP3    H140372   3.554   4.348   1.260  1.1799  0.5824 -1.7616
 6271TIP3    H240373   3.496   4.341   1.121 -0.7616 -1.2923 -0.9235
 6272TIP3   OH240374   4.806   4.459   1.861  0.3825 -0.0126  0.2395
 6272TIP3    H140375   4.843   4.494   1.943 -0.1829 -0.9481  0.9222
 6272TIP3    H240376   4.825   4.525   1.795 -0.2861  1.3673  1.3872
 6273TIP3   OH240377   2.351   3.131   0.033  0.1108  0.1225  0.2869
 6273TIP3    H140378   2.414   3.102   0.099 -0.9134  0.7423  1.5690
 6273TIP3    H240379   2.280   3.066   0.037 -0.7984  1.1240  1.0930
 6274TIP3   OH240380   6.834   6.434   1.582 -0.1383  0.6170 -0.2388
 6274TIP3    H140381   6.840   6.483   1.501 -0.6253  1.5959  0.2947
 6274TIP3    H240382   6.810   6.345   1.556  0.2331  0.7916 -1.1863
 6275TIP3   OH240383   3.660   0.269   2.430  0.0767 -0.2251 -0.4007
 6275TIP3    H140384   3.577   0.296   2.390  0.9276  1.6982 -1.0111
 6275TIP3    H240385   3.635   0.213   2.503 -1.8006  0.9387 -0.0894
 6276TIP3   OH240386   3.791   3.663   1.043 -0.4925  0.1706 -0.2526
 6276TIP3    H140387   3.822   3.610   1.116 -0.8641  1.9637  1.3082
 6276TIP3    H240388   3.800   3.754   1.074 -2.7848  0.9222 -1.5385
 6277TIP3   OH240389   5.471   5.636   1.270 -0.4462  0.2563  0.4946
 6277TIP3    H140390   5.546   5.587   1.303 -0.9591 -0.4665  0.6034
 6277TIP3    H240391   5.396   5.577   1.283 -0.8361  0.4346 -0.8295
 6278TIP3   OH240392   1.922   3.331   7.844 -0.0348 -0.4301  0.3918
 6278TIP3    H140393   1.896   3.423   7.850 -0.8727 -0.7333  1.9995
 6278TIP3    H240394   1.873   3.298   7.769 -1.1362  0.0109  0.8938
 6279TIP3   OH240395   5.594   5.316   8.007 -0.2762  0.2193 -0.4211
 6279TIP3    H140396   5.573   5.384   7.943  0.9604  0.6705 -0.3797
 6279TIP3    H240397   5.686   5.331   8.028 -0.8168  0.5799  2.0433
 6280TIP3   OH240398   3.136   0.957   0.371 -0.0144 -0.2795 -0.1412
 6280TIP3    H140399   3.192   1.004   0.309  0.3765 -0.7060 -0.1209
 6280TIP3    H240400   3.061   1.014   0.384  0.0958 -0.0005 -0.6969
 6281TIP3   OH240401   2.044   5.766   8.008  0.2133 -0.2915  0.3773
 6281TIP3    H140402   2.010   5.711   7.938 -0.1947 -0.0048  0.3472
 6281TIP3    H240403   1.996   5.848   8.000  1.1763  0.2634  0.0906
 6282TIP3   OH240404   5.698   5.200   2.188 -0.0830  0.6536 -0.5103
 6282TIP3    H140405   5.666   5.226   2.274  0.9047  1.0728 -0.2524
 6282TIP3    H240406   5.775   5.255   2.173  0.8289 -0.6474 -0.8625
 6283TIP3   OH240407   2.754   2.691   7.320 -1.1328 -0.3341  0.6639
 6283TIP3    H140408   2.666   2.695   7.283 -1.5658 -0.7285  1.6153
 6283TIP3    H240409   2.768   2.777   7.359 -0.4876  0.2487 -0.7801
 6284TIP3   OH240410   1.399   3.351   8.004 -0.5605 -0.1003  0.4313
 6284TIP3    H140411   1.405   3.417   8.073 -0.2446 -0.3039  0.5948
 6284TIP3    H240412   1.344   3.282   8.041 -0.3256 -0.2464  0.5093
 6285TIP3   OH240413   4.240   3.444   6.986  0.3143  0.4405  0.4703
 6285TIP3    H140414   4.246   3.349   6.991  0.8688  0.5061  1.1784
 6285TIP3    H240415   4.147   3.461   6.968  0.4040 -0.2607 -0.7827
 6286TIP3   OH240416   1.203   3.132   8.415  0.0392  0.1960  0.3950
 6286TIP3    H140417   1.248   3.152   8.333 -0.3802  2.0878  0.5927
 6286TIP3    H240418   1.143   3.061   8.392 -0.4241  1.0187 -1.0676
 6287TIP3   OH240419   2.210   2.592   8.349  0.2402  0.2167  0.9318
 6287TIP3    H140420   2.278   2.598   8.281 -1.0683  2.7143 -0.3292
 6287TIP3    H240421   2.256   2.605   8.431  1.5021  0.1208  0.2551
 6288TIP3   OH240422   0.945   3.428   6.781  0.2974  0.4257  0.4699
 6288TIP3    H140423   1.022   3.426   6.725  0.1815  1.5766  0.2423
 6288TIP3    H240424   0.916   3.337   6.786 -0.4113  0.4180 -2.3451
 6289TIP3   OH240425   3.133   6.073   0.297  0.2962  0.7302  0.2092
 6289TIP3    H140426   3.084   6.117   0.366 -0.0404 -1.1742  1.2473
 6289TIP3    H240427   3.090   6.100   0.216 -2.8283 -1.1361  1.0793
 6290TIP3   OH240428   0.785   0.058   8.130  0.1442  0.2348 -0.3227
 6290TIP3    H140429   0.857   0.007   8.168  0.3671  1.3610  0.8527
 6290TIP3    H240430   0.712  -0.004   8.124  0.2763 -0.1661  1.4716
 6291TIP3   OH240431   5.823   4.964   0.377 -0.0766  0.5266 -0.0071
 6291TIP3    H140432   5.899   5.024   0.380  1.0763 -0.8758 -0.1708
 6291TIP3    H240433   5.791   4.972   0.287 -1.1366  2.2817  0.4694
 6292TIP3   OH240434   5.412   4.062   1.569 -0.5446 -0.2614 -0.9661
 6292TIP3    H140435   5.424   4.039   1.661 -0.9760 -0.0402 -0.8513
 6292TIP3    H240436   5.483   4.017   1.523 -0.7817 -1.0153 -0.6197
 6293TIP3   OH240437   4.654   6.250   1.282 -0.0078 -0.1776 -0.2014
 6293TIP3    H140438   4.648   6.185   1.212 -0.0906  0.4202 -0.7673
 6293TIP3    H240439   4.579   6.233   1.338  0.1241 -0.7379 -0.1907
 6294TIP3   OH240440   4.809   3.105   0.242  0.6705 -0.4399 -0.0423
 6294TIP3    H140441   4.894   3.094   0.284  0.0473  0.5166  1.5729
 6294TIP3    H240442   4.752   3.136   0.312 -0.8110 -0.2696 -1.2783
 6295TIP3   OH240443   1.226   0.430   6.770  0.6296  0.0069  0.9426
 6295TIP3    H140444   1.173   0.493   6.820  1.5740  0.1678  1.7752
 6295TIP3    H240445   1.299   0.482   6.736  1.1729 -0.5465  1.2506
 6296TIP3   OH240446   6.152   1.880   0.885 -0.4909  0.0200  0.3844
 6296TIP3    H140447   6.067   1.922   0.870  0.0947  0.6942 -1.2997
 6296TIP3    H240448   6.198   1.889   0.801  1.6553  0.6250  1.5670
 6297TIP3   OH240449   3.581   4.583   7.484  0.2247  0.5835 -0.4669
 6297TIP3    H140450   3.533   4.540   7.555  0.7580 -1.7716 -1.4347
 6297TIP3    H240451   3.656   4.624   7.527 -1.0532  1.8361  0.6770
 6298TIP3   OH240452   0.593   3.295   2.058  0.6830 -0.0261  0.2806
 6298TIP3    H140453   0.669   3.248   2.022  0.8648  0.6517 -0.2295
 6298TIP3    H240454   0.614   3.307   2.151  0.9104 -0.4066  0.2801
 6299TIP3   OH240455   5.579   0.968   1.247 -0.1451 -0.3077 -0.8381
 6299TIP3    H140456   5.607   1.059   1.260 -2.0025  0.6798 -3.0431
 6299TIP3    H240457   5.515   0.973   1.176 -1.4016 -3.1686 -0.0345
 6300TIP3   OH240458   4.032   5.676   0.276  0.7934  0.1071  0.4423
 6300TIP3    H140459   3.994   5.653   0.361  0.8730  1.3242  0.8219
 6300TIP3    H240460   3.956   5.693   0.220  0.7276 -1.2490  0.0909
 6301TIP3   OH240461   3.226   6.149   2.217 -0.6747  0.8519 -0.1621
 6301TIP3    H140462   3.193   6.059   2.221  1.2746  0.0094 -1.4238
 6301TIP3    H240463   3.311   6.145   2.261 -0.9357  2.3034  0.5331
 6302TIP3   OH240464   2.769   6.026   1.728  0.6702 -0.4036  0.0316
 6302TIP3    H140465   2.730   6.046   1.643  0.5856  0.1473  0.2003
 6302TIP3    H240466   2.861   6.051   1.718  0.9076 -1.3467 -0.2430
 6303TIP3   OH240467   4.391   2.949   8.404 -0.7668  0.0974  0.0005
 6303TIP3    H140468   4.376   2.858   8.381 -1.1204 -0.1075  0.9873
 6303TIP3    H240469   4.386   2.996   8.320 -1.0094 -0.7304 -0.4611
 6304TIP3   OH240470   1.674   1.997   5.937 -0.1816  0.5948  0.3452
 6304TIP3    H140471   1.755   1.969   5.895 -0.7609  1.0399 -1.1066
 6304TIP3    H240472   1.703   2.062   6.002  0.6149  0.9795 -0.3703
 6305TIP3   OH240473   1.139   2.274   8.352  0.1205  0.2950  0.3065
 6305TIP3    H140474   1.176   2.204   8.297  0.2329  0.7014 -0.1457
 6305TIP3    H240475   1.120   2.232   8.435 -2.1444 -0.8918 -0.7293
 6306TIP3   OH240476   5.770   3.352   0.309  0.2995 -0.3836 -0.0896
 6306TIP3    H140477   5.746   3.348   0.216  3.2716  0.9107 -1.0596
 6306TIP3    H240478   5.698   3.309   0.354 -1.2221 -1.2000 -2.9962
 6307TIP3   OH240479   3.084   1.407   7.204  0.3178 -0.6487  0.5982
 6307TIP3    H140480   3.114   1.352   7.276  2.3675 -0.6806 -0.2150
 6307TIP3    H240481   3.108   1.359   7.125 -0.1087  0.2693 -0.1131
 6308TIP3   OH240482   4.961   2.008   1.043  0.1017  0.0591  0.4232
 6308TIP3    H140483   4.983   2.010   1.136 -0.2179 -0.8249  0.5308
 6308TIP3    H240484   5.032   2.056   1.000  0.0265  0.8602  1.1568
 6309TIP3   OH240485   4.049   6.497   0.454 -0.1738  0.5938  0.1552
 6309TIP3    H140486   4.137   6.536   0.455  0.5379 -0.7472 -2.0672
 6309TIP3    H240487   3.994   6.561   0.500  1.9284  1.4870  1.6112
 6310TIP3   OH240488   6.695   5.618   7.061  0.3930 -0.1362  0.0390
 6310TIP3    H140489   6.758   5.682   7.028 -1.6265  0.0539 -4.2345
 6310TIP3    H240490   6.729   5.533   7.032  1.0855 -0.6688  2.2193
 6311TIP3   OH240491   1.534   6.655   0.807 -0.0738  0.0324 -0.5157
 6311TIP3    H140492   1.441   6.671   0.793 -0.3572 -1.2898 -0.2328
 6311TIP3    H240493   1.578   6.727   0.761 -1.1758 -0.1885 -1.9859
 6312TIP3   OH240494   0.801   1.862   1.003  0.4596  0.5416  0.2069
 6312TIP3    H140495   0.813   1.954   1.028 -1.0215  0.9952 -0.5828
 6312TIP3    H240496   0.764   1.821   1.081  2.0781  0.3350  0.9099
 6313TIP3   OH240497   3.291   6.579   8.062 -0.0557  0.5746  0.1584
 6313TIP3    H140498   3.259   6.633   8.134 -0.1813  0.2895  0.3173
 6313TIP3    H240499   3.247   6.615   7.985 -0.6867  0.2593  0.3585
 6314TIP3   OH240500   4.382   5.975   6.253 -0.1292  0.5506 -0.2733
 6314TIP3    H140501   4.344   6.056   6.286 -0.4711  0.6053 -0.7995
 6314TIP3    H240502   4.448   5.952   6.318 -3.1234 -1.2524  2.4475
 6315TIP3   OH240503   3.924   4.618   7.450  0.3791 -0.1937 -0.1312
 6315TIP3    H140504   3.908   4.625   7.544 -0.1266 -1.1120 -0.1365
 6315TIP3    H240505   3.844   4.653   7.410  0.2082 -0.6602 -0.2041
 6316TIP3   OH240506   4.241   3.056   2.424  0.5051  0.0422  0.2199
 6316TIP3    H140507   4.256   2.962   2.430 -3.8402 -0.7939  1.9967
 6316TIP3    H240508   4.285   3.093   2.501  0.4062 -0.9138  0.7470
 6317TIP3   OH240509   5.919   5.943   1.498  0.6198 -0.5299 -0.0924
 6317TIP3    H140510   5.887   5.949   1.588  3.8190 -1.6290  1.2810
 6317TIP3    H240511   5.861   5.879   1.456 -0.2335 -0.8770  1.5436
 6318TIP3   OH240512   4.645   0.164   6.688  0.0094  0.4342  0.4483
 6318TIP3    H140513   4.608   0.245   6.723 -0.6298 -0.1067  1.0461
 6318TIP3    H240514   4.738   0.183   6.676 -0.0377  1.0896  1.0718
 6319TIP3   OH240515   4.582   3.315   1.239  0.9139  0.2458 -0.0109
 6319TIP3    H140516   4.640   3.390   1.251  2.0698 -0.5078 -0.6798
 6319TIP3    H240517   4.608   3.254   1.308 -0.0188  0.4546  0.5305
 6320TIP3   OH240518   5.230   0.884   7.316 -0.4862  0.1377 -0.4248
 6320TIP3    H140519   5.215   0.824   7.389  0.3737 -1.1425 -1.2524
 6320TIP3    H240520   5.145   0.889   7.272 -1.6676  2.7494  1.8912
 6321TIP3   OH240521   3.280   4.291   1.995  0.2334  0.2359  0.2589
 6321TIP3    H140522   3.257   4.258   2.082 -0.0599  0.0354  0.1084
 6321TIP3    H240523   3.364   4.336   2.008  0.8740 -0.9490  0.3882
 6322TIP3   OH240524   1.385   1.023   0.518  0.1348  0.4661  0.2653
 6322TIP3    H140525   1.406   1.040   0.426 -0.9213  0.0482 -0.0758
 6322TIP3    H240526   1.415   0.933   0.533 -3.0984 -0.9826 -0.8607
 6323TIP3   OH240527   2.278   3.526   6.604  0.4381 -0.1010  0.4399
 6323TIP3    H140528   2.247   3.608   6.566 -0.5006 -0.0488  1.2553
 6323TIP3    H240529   2.272   3.463   6.532 -2.0001 -0.1747  0.6199
 6324TIP3   OH240530   3.941   4.986   1.043 -0.0691 -0.6306 -0.4731
 6324TIP3    H140531   3.937   4.950   0.955  1.1501  0.3459 -0.9470
 6324TIP3    H240532   3.914   5.077   1.033 -0.1829 -0.5833  0.2140
 6325TIP3   OH240533   3.377   5.688   8.136 -0.0331  0.1708 -0.1566
 6325TIP3    H140534   3.361   5.595   8.149  1.1055 -0.1713 -1.0583
 6325TIP3    H240535   3.360   5.703   8.043  1.4137  0.4768 -0.4061
 6326TIP3   OH240536   1.571   2.932   1.690  0.4347 -0.2483  0.6760
 6326TIP3    H140537   1.578   3.017   1.734  2.6895  0.0952 -0.2488
 6326TIP3    H240538   1.571   2.953   1.596 -5.0990 -0.8847  0.1415
 6327TIP3   OH240539   2.997   1.506   0.283 -0.1039  0.0833 -0.5092
 6327TIP3    H140540   3.073   1.525   0.337 -0.0401 -0.8893 -0.2351
 6327TIP3    H240541   2.922   1.528   0.339 -0.0336  0.3507 -0.5182
 6328TIP3   OH240542   5.129   1.715   2.149  0.2366  0.7470 -0.4285
 6328TIP3    H140543   5.042   1.724   2.188  0.9125 -1.4704  1.9169
 6328TIP3    H240544   5.173   1.798   2.169  0.1489  0.1704  2.7973
 6329TIP3   OH240545   0.163   0.245   0.071 -0.4064  0.6662  0.3726
 6329TIP3    H140546   0.144   0.155   0.045 -3.4327  0.2282  3.4288
 6329TIP3    H240547   0.218   0.237   0.149  0.2966  1.5581 -0.0076
 6330TIP3   OH240548   6.040   0.083   0.556  0.2371 -0.2272 -0.1315
 6330TIP3    H140549   6.015   0.146   0.623  0.2464 -0.1141 -0.2352
 6330TIP3    H240550   6.131   0.104   0.536  1.0993 -1.9050  1.6968
 6331TIP3   OH240551   1.331   4.769   0.424  0.1867  0.0932 -0.5433
 6331TIP3    H140552   1.358   4.699   0.483 -0.6173 -0.9648 -1.3902
 6331TIP3    H240553   1.278   4.827   0.478  0.0777 -0.4669 -0.0432
 6332TIP3   OH240554   4.318   1.155   1.950 -0.4298 -1.0289 -0.4571
 6332TIP3    H140555   4.312   1.225   1.885 -0.7018 -0.8103 -0.2007
 6332TIP3    H240556   4.232   1.154   1.992  0.2670 -0.0038  1.0822
 6333TIP3   OH240557   2.829   4.879   7.692  0.2128  0.0742 -0.3754
 6333TIP3    H140558   2.866   4.908   7.775 -0.0175  1.3928 -0.7041
 6333TIP3    H240559   2.765   4.812   7.716  0.2774  0.3127  0.4918
 6334TIP3   OH240560   6.866   4.500   7.138  0.0063 -0.1944 -0.4305
 6334TIP3    H140561   6.854   4.411   7.104  1.7101 -0.5812 -0.0834
 6334TIP3    H240562   6.941   4.535   7.090  0.8911  0.1508  1.1112
 6335TIP3   OH240563   3.567   1.256   7.130 -0.7813  0.3422 -0.1277
 6335TIP3    H140564   3.528   1.231   7.046 -0.8985  0.2433 -0.0429
 6335TIP3    H240565   3.500   1.237   7.195 -0.6199  0.2392  0.0095
 6336TIP3   OH240566   0.126   1.401   0.959  0.0109  0.3257 -0.1733
 6336TIP3    H140567   0.120   1.311   0.929 -1.4890 -0.0830  1.2002
 6336TIP3    H240568   0.206   1.404   1.012 -0.5578 -0.5403  0.7654
 6337TIP3   OH240569   5.087   2.373   1.679 -0.0962  0.0580 -0.0346
 6337TIP3    H140570   5.067   2.385   1.587 -0.4271 -0.4881 -0.0343
 6337TIP3    H240571   5.102   2.462   1.712  0.0110  0.2543 -0.6056
 6338TIP3   OH240572   6.450   0.376   8.356  0.7028  0.2681 -0.0959
 6338TIP3    H140573   6.363   0.409   8.335  0.1345 -0.3044  1.2763
 6338TIP3    H240574   6.465   0.306   8.291  0.0266  0.1826 -0.1701
 6339TIP3   OH240575   6.669   4.211   6.738 -0.6829 -0.1451  0.1211
 6339TIP3    H140576   6.751   4.212   6.689 -0.6766  0.2942  0.1379
 6339TIP3    H240577   6.602   4.235   6.675 -0.5081  1.7781  0.6010
 6340TIP3   OH240578   2.355   6.913   8.307  0.5748 -0.3376 -0.4045
 6340TIP3    H140579   2.435   6.931   8.256  2.4290 -0.3443  2.2895
 6340TIP3    H240580   2.292   6.882   8.242  2.1375  1.4242 -2.9458
 6341TIP3   OH240581   6.068   6.066   2.193 -0.2116  0.1636  0.3465
 6341TIP3    H140582   6.044   5.997   2.254  1.5177 -1.1695 -0.3994
 6341TIP3    H240583   6.064   6.146   2.244  0.7412 -0.8489  2.1038
 6342TIP3   OH240584   5.829   3.532   0.508 -0.7499  0.0570  0.0846
 6342TIP3    H140585   5.860   3.606   0.456  2.7660  0.3614  2.2915
 6342TIP3    H240586   5.796   3.470   0.444  0.3279  1.7150 -2.2179
 6343TIP3   OH240587   4.132   0.582   6.918  0.1668  0.3923 -0.1540
 6343TIP3    H140588   4.182   0.618   6.845 -0.5930  1.4815 -0.1552
 6343TIP3    H240589   4.143   0.646   6.988  0.1842 -0.2217  0.4178
 6344TIP3   OH240590   0.448   5.665   7.907  0.5117 -0.0669 -0.3030
 6344TIP3    H140591   0.448   5.752   7.869 -1.2469  0.2774  0.3744
 6344TIP3    H240592   0.415   5.608   7.837 -2.7131  0.5642  0.5451
 6345TIP3   OH240593   2.627   4.285   1.173  0.8653  0.2594  0.4780
 6345TIP3    H140594   2.535   4.313   1.166  0.4592 -1.2043 -0.6815
 6345TIP3    H240595   2.665   4.343   1.239 -1.0588  0.4808  1.4628
 6346TIP3   OH240596   5.853   5.599   1.912  0.0693 -0.1559  0.2923
 6346TIP3    H140597   5.914   5.549   1.857 -0.8318  0.8780 -1.7721
 6346TIP3    H240598   5.901   5.678   1.936  0.6959 -0.9050  1.6284
 6347TIP3   OH240599   4.020   1.043   2.021  0.1246 -0.4606 -0.0150
 6347TIP3    H140600   3.991   1.105   2.088 -0.0504 -1.3321  0.7326
 6347TIP3    H240601   4.085   0.988   2.065  1.3610  0.0933 -1.0694
 6348TIP3   OH240602   5.461   0.147   8.471  0.0363  0.4444  0.3584
 6348TIP3    H140603   5.415   0.231   8.464  0.7553  0.8069 -0.1994
 6348TIP3    H240604   5.545   0.169   8.511 -0.1043 -0.1512  1.0102
 6349TIP3   OH240605   0.793   5.611   8.335 -0.4450  0.5131 -0.2676
 6349TIP3    H140606   0.741   5.582   8.260 -1.2990 -0.7061  0.7518
 6349TIP3    H240607   0.884   5.608   8.304 -0.6235 -1.7778 -0.7497
 6350TIP3   OH240608   0.303   6.379   0.886  0.2419  0.3761 -0.3634
 6350TIP3    H140609   0.306   6.473   0.899 -1.1384  0.5910 -1.3629
 6350TIP3    H240610   0.257   6.367   0.803 -0.3624 -1.1966  0.1416
 6351TIP3   OH240611   2.258   2.214   8.420 -0.2058 -0.5091  0.4535
 6351TIP3    H140612   2.334   2.170   8.459  0.3482 -1.0708 -1.1676
 6351TIP3    H240613   2.203   2.142   8.388 -0.5383 -0.0651  0.0254
 6352TIP3   OH240614   5.926   5.845   8.116 -0.2328 -0.3872 -0.3013
 6352TIP3    H140615   5.839   5.874   8.086 -0.0021  0.4335 -0.1981
 6352TIP3    H240616   5.975   5.926   8.130  0.1110 -0.7823  0.9710
 6353TIP3   OH240617   1.333   4.502   1.509 -0.4508  0.5537  0.2957
 6353TIP3    H140618   1.392   4.540   1.574  2.3017 -2.3330 -0.2509
 6353TIP3    H240619   1.304   4.420   1.549  0.9219 -1.0440 -1.7750
 6354TIP3   OH240620   2.928   3.871   7.285  0.5552  0.5856  0.0800
 6354TIP3    H140621   2.838   3.863   7.254  0.0079 -1.7894  2.0056
 6354TIP3    H240622   2.979   3.889   7.206 -1.3795  0.3772 -1.2978
 6355TIP3   OH240623   3.522   0.967   1.801 -0.5267  0.3174 -0.2582
 6355TIP3    H140624   3.437   0.956   1.844 -0.6336 -2.7843 -1.0349
 6355TIP3    H240625   3.583   0.917   1.856 -0.0691 -1.0215 -1.8997
 6356TIP3   OH240626   0.434   0.142   2.435 -1.0411  0.0417 -0.3383
 6356TIP3    H140627   0.500   0.179   2.493  0.0240 -0.3944 -1.2365
 6356TIP3    H240628   0.411   0.215   2.377 -1.9252  0.4073  0.4467
 6357TIP3   OH240629   4.521   6.721   0.231  0.4470 -0.3153 -0.1262
 6357TIP3    H140630   4.460   6.658   0.194  1.0022 -0.4656 -0.8077
 6357TIP3    H240631   4.580   6.742   0.159  0.8378  0.2722  0.3589
 6358TIP3   OH240632   3.972   0.907   7.993 -0.0296 -0.2531 -0.0301
 6358TIP3    H140633   3.955   0.972   8.061  1.3439  0.1767 -0.0697
 6358TIP3    H240634   4.062   0.877   8.009  0.4046  0.0105 -1.7566
 6359TIP3   OH240635   2.638   6.230   1.175 -0.4269  0.9281 -0.3265
 6359TIP3    H140636   2.728   6.201   1.192 -1.7399 -2.3607  1.9189
 6359TIP3    H240637   2.625   6.302   1.237 -0.2228 -0.6842  1.7249
 6360TIP3   OH240638   5.339   2.513   1.587  0.1913 -0.1133  0.2131
 6360TIP3    H140639   5.427   2.510   1.550  0.7335  2.2629  1.1269
 6360TIP3    H240640   5.336   2.440   1.649  0.8039 -1.4010 -1.2298
 6361TIP3   OH240641   3.750   4.821   2.242  0.3049 -0.5449  0.2308
 6361TIP3    H140642   3.724   4.849   2.154 -0.2449 -0.3795  0.4405
 6361TIP3    H240643   3.825   4.877   2.263  0.5204 -0.6770 -0.1862
 6362TIP3   OH240644   2.142   4.649   0.249  0.3005 -0.7419  0.0895
 6362TIP3    H140645   2.051   4.668   0.273  0.5977  3.8288 -1.2595
 6362TIP3    H240646   2.137   4.617   0.159  0.0037 -2.8775  0.8153
 6363TIP3   OH240647   3.972   2.917   0.209 -0.0869 -0.2664 -0.4492
 6363TIP3    H140648   3.977   2.998   0.158 -1.4916 -0.2258 -0.5721
 6363TIP3    H240649   4.007   2.941   0.295 -0.5444  0.5034 -0.4624
 6364TIP3   OH240650   4.083   3.974   7.153  0.2038 -0.0565 -0.0830
 6364TIP3    H140651   4.171   3.993   7.185 -0.0062 -1.4126  1.4131
 6364TIP3    H240652   4.027   3.978   7.231 -1.1872  1.3567 -1.0959
 6365TIP3   OH240653   0.222   3.436   7.361 -0.0654 -0.4239 -0.5247
 6365TIP3    H140654   0.283   3.490   7.409  1.3279 -0.1319 -2.5125
 6365TIP3    H240655   0.181   3.495   7.298 -0.4110 -1.1744 -1.0278
 6366TIP3   OH240656   1.940   0.373   1.167  0.6712  0.1512 -0.3498
 6366TIP3    H140657   1.960   0.281   1.182  0.1931  0.0827 -0.1337
 6366TIP3    H240658   1.995   0.420   1.229 -0.2574 -0.0648  0.6712
 6367TIP3   OH240659   2.051   5.909   7.470 -0.2225  0.1101 -0.0648
 6367TIP3    H140660   1.986   5.964   7.428 -0.5063  0.5071  0.8731
 6367TIP3    H240661   2.132   5.925   7.421 -0.7357 -0.0965 -0.9876
 6368TIP3   OH240662   1.594   5.456   0.102  0.0290  0.1678 -0.6094
 6368TIP3    H140663   1.661   5.521   0.080  0.8300 -0.6924 -0.8251
 6368TIP3    H240664   1.600   5.446   0.197  0.1183  0.1881 -0.6127
 6369TIP3   OH240665   5.957   0.060   8.428  0.3868  0.3955 -0.5117
 6369TIP3    H140666   5.934  -0.017   8.375  0.3793 -0.7774  1.1360
 6369TIP3    H240667   6.036   0.034   8.474 -1.5790 -0.0919  2.8826
 6370TIP3   OH240668   5.753   1.411   2.392 -0.5546 -0.6528  0.8036
 6370TIP3    H140669   5.702   1.449   2.463 -0.8415 -2.0180  1.3644
 6370TIP3    H240670   5.690   1.358   2.343 -0.0097 -1.0899  0.5602
 6371TIP3   OH240671   2.160   3.833   7.379 -0.2907 -0.5180  0.7868
 6371TIP3    H140672   2.154   3.766   7.448  0.3860  0.3107  1.6736
 6371TIP3    H240673   2.140   3.915   7.424 -0.9863 -0.0925 -0.2659
 6372TIP3   OH240674   1.272   4.369   8.467  0.6021 -0.0790 -0.0160
 6372TIP3    H140675   1.191   4.408   8.500 -0.0550 -0.5349 -1.0339
 6372TIP3    H240676   1.318   4.441   8.425 -0.4225 -0.2691 -1.5432
 6373TIP3   OH240677   1.185   0.722   7.263 -1.0178 -0.4346 -0.2798
 6373TIP3    H140678   1.223   0.787   7.321 -1.3583 -1.6158  1.3224
 6373TIP3    H240679   1.123   0.771   7.209  0.6743  1.0132 -1.0096
 6374TIP3   OH240680   1.379   6.579   8.310  0.1714 -1.0018 -0.2230
 6374TIP3    H140681   1.443   6.596   8.241 -1.3229 -1.5523 -1.8267
 6374TIP3    H240682   1.417   6.508   8.362  1.5221 -0.2747 -0.1838
 6375TIP3   OH240683   0.399   3.779   6.508  0.6449  0.5146 -0.2360
 6375TIP3    H140684   0.393   3.817   6.595 -0.3775 -0.2878  0.0571
 6375TIP3    H240685   0.313   3.739   6.493  0.6527  1.0144 -1.7822
 6376TIP3   OH240686   3.350   3.578   6.112  0.1794 -0.1641 -0.3822
 6376TIP3    H140687   3.366   3.670   6.091 -0.8266  0.0164 -0.3887
 6376TIP3    H240688   3.426   3.532   6.078 -0.0674  0.4664 -1.8389
 6377TIP3   OH240689   4.960   2.857   2.488  0.3678  0.4416 -0.3458
 6377TIP3    H140690   5.011   2.841   2.408  0.5319 -0.6672 -0.0325
 6377TIP3    H240691   4.944   2.770   2.524 -0.0623  0.9066  0.6143
 6378TIP3   OH240692   6.399   3.215   8.120 -0.1055  0.0625  0.5291
 6378TIP3    H140693   6.359   3.275   8.056  2.7149 -0.5694 -2.0975
 6378TIP3    H240694   6.350   3.133   8.110  0.2622 -0.0177 -0.9056
 6379TIP3   OH240695   1.261   2.201   0.363 -0.1769 -0.3022  0.0092
 6379TIP3    H140696   1.227   2.232   0.279  0.7721  1.5405  0.2546
 6379TIP3    H240697   1.273   2.107   0.350 -1.1029 -0.2544 -1.5362
 6380TIP3   OH240698   3.005   3.197   1.477 -0.3533  0.3178  0.5422
 6380TIP3    H140699   2.911   3.181   1.478 -0.4075  0.6210  0.5155
 6380TIP3    H240700   3.044   3.110   1.474 -0.6340  0.1914  0.4844
 6381TIP3   OH240701   5.908   3.490   0.960  0.1457  0.4712  0.2926
 6381TIP3    H140702   5.998   3.494   0.926  0.0423 -1.6349 -0.3690
 6381TIP3    H240703   5.856   3.536   0.894  0.2747 -1.5393 -1.3008
 6382TIP3   OH240704   2.869   1.758   1.485 -0.2564  0.2793  0.3387
 6382TIP3    H140705   2.873   1.752   1.390 -1.0902 -1.1316  0.3727
 6382TIP3    H240706   2.959   1.777   1.513  0.2303 -0.5729 -0.6380
 6383TIP3   OH240707   6.126   5.194   8.273 -0.3117 -0.2361  0.7868
 6383TIP3    H140708   6.125   5.104   8.239  1.0093 -0.7506  1.9993
 6383TIP3    H240709   6.169   5.245   8.205 -1.4562 -0.4079 -0.1017
 6384TIP3   OH240710   6.106   4.674   0.272 -0.0133  0.1622 -0.1560
 6384TIP3    H140711   6.086   4.674   0.365 -2.2469  0.2236 -0.5765
 6384TIP3    H240712   6.050   4.742   0.235  0.9312  0.2380 -1.5379
 6385TIP3   OH240713   4.085   1.100   0.663 -0.2681 -0.3183 -0.4332
 6385TIP3    H140714   4.036   1.029   0.706 -1.6885 -0.2131 -1.8030
 6385TIP3    H240715   4.044   1.180   0.697  0.4552 -0.1553  0.0920
 6386TIP3   OH240716   3.923   4.180   6.165  0.2159  0.2761  0.2823
 6386TIP3    H140717   3.906   4.086   6.170  0.2580  0.3304  2.0208
 6386TIP3    H240718   3.990   4.196   6.232  0.0044  1.5924  0.2083
 6387TIP3   OH240719   1.034   1.432   1.882 -0.3437  0.9347 -0.0528
 6387TIP3    H140720   1.097   1.360   1.878 -0.7041  0.6504 -1.1244
 6387TIP3    H240721   1.088   1.511   1.894  0.0252  0.4617  1.5015
 6388TIP3   OH240722   5.850   1.823   7.826  0.2958  0.0152 -0.7458
 6388TIP3    H140723   5.826   1.734   7.852  1.4264 -0.2835 -0.6674
 6388TIP3    H240724   5.866   1.868   7.909 -1.1499  0.5677 -0.7444
 6389TIP3   OH240725   6.450   4.902   1.295 -0.4388 -0.5316  0.5934
 6389TIP3    H140726   6.426   4.820   1.252  0.3713  0.0882 -1.1299
 6389TIP3    H240727   6.407   4.970   1.242  1.6870  0.3446 -0.0968
 6390TIP3   OH240728   4.548   3.612   0.496 -0.2338  0.1016 -0.5220
 6390TIP3    H140729   4.627   3.569   0.529  0.0732  0.2692 -1.0262
 6390TIP3    H240730   4.483   3.600   0.566  0.1039 -0.4185 -0.2936
 6391TIP3   OH240731   1.322   1.401   1.302  0.0203 -0.0994  0.0993
 6391TIP3    H140732   1.276   1.387   1.384  0.0228  0.2608  0.1661
 6391TIP3    H240733   1.256   1.436   1.243  0.0714 -0.1392  0.0176
 6392TIP3   OH240734   5.035   1.437   0.482  0.0827 -0.0757  0.9170
 6392TIP3    H140735   5.128   1.434   0.460 -0.2446  0.2507 -0.6521
 6392TIP3    H240736   5.011   1.529   0.472 -0.2877 -0.0447  1.9539
 6393TIP3   OH240737   5.808   2.234   1.698  0.0017 -0.0121 -0.3041
 6393TIP3    H140738   5.773   2.323   1.698 -0.6762 -0.2750 -0.4782
 6393TIP3    H240739   5.740   2.181   1.658  0.2198 -0.6857  0.1929
 6394TIP3   OH240740   3.057   2.207   7.185 -0.3643  0.4467  0.0486
 6394TIP3    H140741   3.021   2.144   7.248 -2.0476  1.7087  0.4232
 6394TIP3    H240742   3.101   2.272   7.239  0.0576  0.3968 -0.2337
 6395TIP3   OH240743   5.136   6.220   7.500  0.2268 -0.2833 -0.2445
 6395TIP3    H140744   5.232   6.218   7.504  0.1914 -0.0205  1.0585
 6395TIP3    H240745   5.116   6.207   7.407  1.5028 -0.9780 -0.4467
 6396TIP3   OH240746   6.268   6.212   0.455 -0.0835 -0.0262  0.1265
 6396TIP3    H140747   6.320   6.133   0.471  2.4312  1.8559  1.9528
 6396TIP3    H240748   6.320   6.263   0.392 -1.3613  0.5013 -0.5496
 6397TIP3   OH240749   0.205   6.027   1.538  0.5495  0.0970  0.5818
 6397TIP3    H140750   0.158   5.949   1.566 -0.8626  1.4302  2.2253
 6397TIP3    H240751   0.296   6.012   1.566  0.3997 -1.0916  0.4825
 6398TIP3   OH240752   2.986   5.552   0.699  0.0020  0.0828 -0.0903
 6398TIP3    H140753   2.934   5.474   0.679 -0.8054  0.0700  1.8799
 6398TIP3    H240754   3.069   5.538   0.652 -0.2079 -1.8530  0.0227
 6399TIP3   OH240755   4.988   4.305   0.125 -0.4270 -0.1690 -0.1706
 6399TIP3    H140756   4.910   4.351   0.155  1.3015  2.8975 -0.0376
 6399TIP3    H240757   4.963   4.270   0.039 -2.1605  0.0059  0.2149
 6400TIP3   OH240758   2.752   2.666   2.403  0.5726  0.0575 -0.2755
 6400TIP3    H140759   2.800   2.595   2.444 -1.1896  0.0970  2.0734
 6400TIP3    H240760   2.817   2.712   2.350  2.7501 -0.7784  1.5210
 6401TIP3   OH240761   1.326   0.528   0.292  0.8392 -0.1208 -0.2144
 6401TIP3    H140762   1.353   0.467   0.360  0.1774  0.9041  1.0286
 6401TIP3    H240763   1.387   0.513   0.220  1.4100 -1.4131  0.5092
 6402TIP3   OH240764   3.141   2.822   8.114  0.4807 -0.1542 -0.2280
 6402TIP3    H140765   3.100   2.860   8.192  0.7575  1.5611 -0.8682
 6402TIP3    H240766   3.235   2.825   8.133  0.6402  1.4188 -1.0544
 6403TIP3   OH240767   6.335   6.705   0.080  0.5616 -0.8527  0.5607
 6403TIP3    H140768   6.261   6.661   0.039  0.1554 -1.2668  1.6822
 6403TIP3    H240769   6.407   6.697   0.018 -0.7153  0.9560 -1.2829
 6404TIP3   OH240770   3.059   1.190   0.659  0.2179  0.0807 -0.1544
 6404TIP3    H140771   3.000   1.169   0.587 -0.7401 -3.6419  1.4501
 6404TIP3    H240772   3.033   1.278   0.688 -0.4127  1.0029 -3.2077
 6405TIP3   OH240773   3.128   0.772   0.958  0.3334 -0.5063  0.6187
 6405TIP3    H140774   3.195   0.816   0.905  0.1317 -0.2526  0.5744
 6405TIP3    H240775   3.052   0.830   0.953  0.0653 -0.8607  0.5593
 6406TIP3   OH240776   1.619   0.084   2.519 -0.1531  0.4284 -0.0153
 6406TIP3    H140777   1.593   0.042   2.601  1.6589 -0.3047  0.2371
 6406TIP3    H240778   1.686   0.026   2.483  0.3149  1.6286 -1.1561
 6407TIP3   OH240779   3.242   0.785   6.358  0.0235  0.0955 -0.0305
 6407TIP3    H140780   3.157   0.830   6.359  1.3524  2.7855  0.1878
 6407TIP3    H240781   3.261   0.769   6.451 -1.3309 -2.9492 -0.1537
 6408TIP3   OH240782   6.455   1.167   1.966 -0.0051 -1.0219 -0.1902
 6408TIP3    H140783   6.414   1.081   1.953 -0.2153 -0.7551 -1.4093
 6408TIP3    H240784   6.390   1.218   2.012  0.3052 -1.6526  0.9869
 6409TIP3   OH240785   4.158   6.613   8.054 -0.7383  0.1715  0.4043
 6409TIP3    H140786   4.218   6.678   8.090 -0.3177 -0.6746  1.2471
 6409TIP3    H240787   4.140   6.644   7.965  0.9845  0.4144  0.1148
 6410TIP3   OH240788   1.975   6.434   0.414  0.0800 -0.0840  0.4401
 6410TIP3    H140789   2.056   6.483   0.429  0.0501  0.0151  0.2782
 6410TIP3    H240790   1.927   6.441   0.497 -0.3025  0.8695  0.1496
 6411TIP3   OH240791   3.496   6.265   1.233  0.3369  0.0580  0.1644
 6411TIP3    H140792   3.460   6.341   1.279  1.2212  0.8243 -0.3875
 6411TIP3    H240793   3.590   6.280   1.231  0.4115 -0.4663 -0.9821
 6412TIP3   OH240794   3.679   1.550   1.969 -0.0964 -0.7788 -0.3136
 6412TIP3    H140795   3.679   1.514   1.880 -0.0590 -0.7177 -0.3381
 6412TIP3    H240796   3.745   1.498   2.015  0.6834 -0.0728 -0.6175
 6413TIP3   OH240797   0.903   5.779   0.616 -0.0693 -0.3627  0.4725
 6413TIP3    H140798   0.925   5.690   0.589 -0.9726 -0.6881  0.7744
 6413TIP3    H240799   0.854   5.768   0.697  2.1248  0.5735  2.0082
 6414TIP3   OH240800   4.127   4.570   1.181  0.0293  0.1390  0.1643
 6414TIP3    H140801   4.098   4.645   1.130  0.0388 -0.5793 -0.9264
 6414TIP3    H240802   4.050   4.543   1.231 -0.9511 -1.1366 -1.9444
 6415TIP3   OH240803   0.766   1.725   8.070 -0.3989 -0.0144  0.5955
 6415TIP3    H140804   0.735   1.698   7.983  3.0500 -2.8156  0.0115
 6415TIP3    H240805   0.805   1.811   8.056 -1.9694  0.6469 -0.0172
 6416TIP3   OH240806   1.374   6.693   7.670  0.1765  0.3639  0.5209
 6416TIP3    H140807   1.432   6.726   7.739  0.3773  0.0759  0.4928
 6416TIP3    H240808   1.433   6.669   7.598  0.0133  0.1893  0.4426
 6417TIP3   OH240809   6.559   3.342   7.619 -0.0957 -0.2930 -0.2049
 6417TIP3    H140810   6.485   3.350   7.558  1.2860  3.8069 -1.6600
 6417TIP3    H240811   6.584   3.432   7.639  1.7742 -1.4786  3.8278
 6418TIP3   OH240812   3.177   3.610   7.229  0.8891  0.0604  0.5267
 6418TIP3    H140813   3.138   3.586   7.146  0.3458  0.3321  0.6967
 6418TIP3    H240814   3.230   3.687   7.210 -0.3813  1.0018  0.6915
 6419TIP3   OH240815   5.927   5.923   0.121  0.3464  0.1849  0.5770
 6419TIP3    H140816   5.849   5.895   0.169  0.8428 -1.0989  0.6574
 6419TIP3    H240817   5.944   5.853   0.059  0.8000  0.9733 -0.2225
 6420TIP3   OH240818   0.228   1.983   8.007  0.0786 -0.0930  0.3020
 6420TIP3    H140819   0.139   2.017   8.000  0.4215  0.6526 -0.5474
 6420TIP3    H240820   0.283   2.060   8.023  0.5335 -0.5952  1.2709
 6421TIP3   OH240821   4.616   6.667   1.605 -0.2006 -0.0533 -0.2964
 6421TIP3    H140822   4.570   6.670   1.521  0.9885  0.2123 -0.9585
 6421TIP3    H240823   4.606   6.755   1.641  0.3868  0.2228 -0.7847
 6422TIP3   OH240824   0.960   6.679   0.912  0.1230  0.2512  0.5206
 6422TIP3    H140825   1.008   6.728   0.979 -0.3603  0.8692  0.4351
 6422TIP3    H240826   0.956   6.590   0.945  2.0339 -0.0280  0.1482
 6423TIP3   OH240827   4.572   2.597   2.056 -0.8431  0.0866 -0.0841
 6423TIP3    H140828   4.529   2.644   2.127  0.4559  0.4710  0.4860
 6423TIP3    H240829   4.650   2.559   2.096 -1.9378 -2.8061 -0.4571
 6424TIP3   OH240830   2.203   4.278   7.386  0.1921  0.0974  0.5110
 6424TIP3    H140831   2.281   4.283   7.332 -0.4799  1.5397 -0.3990
 6424TIP3    H240832   2.136   4.242   7.328  0.2260 -1.4622  1.3820
 6425TIP3   OH240833   1.235   2.695   7.642 -0.3357 -0.1945  0.3446
 6425TIP3    H140834   1.267   2.716   7.730  0.5566 -1.0194  0.2240
 6425TIP3    H240835   1.312   2.666   7.595 -0.9199 -0.3199 -0.5498
 6426TIP3   OH240836   1.235   6.326   3.340  0.5037 -0.3625 -0.1869
 6426TIP3    H140837   1.140   6.319   3.336  0.5423 -1.2352  0.1575
 6426TIP3    H240838   1.266   6.237   3.323  1.2964  0.1002 -1.3184
 6427TIP3   OH240839   5.437   1.754   8.138 -0.3443  0.2659 -0.3598
 6427TIP3    H140840   5.357   1.708   8.162 -0.1526  0.2335  0.2308
 6427TIP3    H240841   5.495   1.743   8.214  0.6947 -0.7921 -1.2535
 6428TIP3   OH240842   2.320   5.318   0.602 -0.2894 -0.3245 -0.3060
 6428TIP3    H140843   2.287   5.346   0.687 -0.5307 -1.1027 -0.1429
 6428TIP3    H240844   2.344   5.400   0.558 -2.4556  0.3015 -0.4307
 6429TIP3   OH240845   2.731   5.818   6.685  0.0595 -0.3561 -0.1123
 6429TIP3    H140846   2.677   5.804   6.763  0.4906  1.4051  0.5550
 6429TIP3    H240847   2.739   5.913   6.678  0.8470 -0.5122 -1.7543
 6430TIP3   OH240848   0.712   3.324   1.379 -0.0388  0.1807  0.1113
 6430TIP3    H140849   0.724   3.305   1.471 -0.7070 -1.6287 -0.1443
 6430TIP3    H240850   0.628   3.371   1.375 -0.5907 -0.7629  0.3265
 6431TIP3   OH240851   1.022   6.465   7.620  0.0893  0.0565 -0.1499
 6431TIP3    H140852   1.064   6.408   7.685 -1.2967 -1.7880 -0.7672
 6431TIP3    H240853   1.069   6.448   7.539 -0.6029 -0.5798 -0.4307
 6432TIP3   OH240854   2.187   0.216   0.157  0.1946 -0.1827  0.5819
 6432TIP3    H140855   2.100   0.189   0.125  0.2107 -0.3953  0.7154
 6432TIP3    H240856   2.168   0.283   0.222  0.2087  1.0922 -0.6877
 6433TIP3   OH240857   5.333   5.126   6.726  0.5432  0.1707 -0.8203
 6433TIP3    H140858   5.403   5.122   6.791  2.3991  0.2181 -2.6893
 6433TIP3    H240859   5.375   5.167   6.649 -2.0924  2.0815 -1.3792
 6434TIP3   OH240860   1.041   5.783   6.477  0.0804  0.3405  0.2716
 6434TIP3    H140861   1.061   5.713   6.538 -1.3709 -0.7713 -0.4744
 6434TIP3    H240862   1.121   5.793   6.425  0.7396  0.1513  1.2131
 6435TIP3   OH240863   4.032   5.833   1.840  0.5528  0.0208  0.3853
 6435TIP3    H140864   4.076   5.814   1.923 -1.9870 -2.7415  1.2762
 6435TIP3    H240865   4.010   5.926   1.845  1.1751  0.1177  2.4196
 6436TIP3   OH240866   4.136   4.156   0.603  0.5392 -0.3832  0.4094
 6436TIP3    H140867   4.219   4.162   0.651  0.9178  0.6066 -0.3422
 6436TIP3    H240868   4.126   4.062   0.586  0.5667 -0.7271  2.0818
 6437TIP3   OH240869   6.250   1.837   1.226  0.1625 -0.1309  0.4834
 6437TIP3    H140870   6.259   1.766   1.163 -0.0078  0.2171  0.0573
 6437TIP3    H240871   6.216   1.911   1.174 -0.9671 -0.1332  1.1876
 6438TIP3   OH240872   4.542   5.724   8.450  0.0772 -0.6413  0.0425
 6438TIP3    H140873   4.506   5.640   8.479  0.0504 -0.7737 -0.3755
 6438TIP3    H240874   4.553   5.715   8.356 -2.2432  0.6753 -0.4241
 6439TIP3   OH240875   0.674   5.388   7.626 -0.9537 -0.4780 -0.1500
 6439TIP3    H140876   0.761   5.401   7.589 -0.6783 -0.8769  0.3510
 6439TIP3    H240877   0.632   5.474   7.619  0.1755  0.2530  1.3741
 6440TIP3   OH240878   2.901   0.822   6.391 -0.0082  0.1937  0.1751
 6440TIP3    H140879   2.939   0.909   6.404  0.5422 -0.2592  1.8213
 6440TIP3    H240880   2.883   0.790   6.479 -0.5118 -1.2463 -0.4187
 6441TIP3   OH240881   0.607   4.596   0.715  0.2042 -0.0233 -0.6262
 6441TIP3    H140882   0.553   4.656   0.664  1.0572  1.5160  0.2037
 6441TIP3    H240883   0.545   4.555   0.776 -0.3803  0.1025 -1.1257
 6442TIP3   OH240884   1.432   0.217   1.640  0.2143 -0.2110 -0.0805
 6442TIP3    H140885   1.452   0.178   1.725  0.4769  1.4090  0.6414
 6442TIP3    H240886   1.517   0.222   1.596  0.2479 -0.0951 -0.0043
 6443TIP3   OH240887   0.337   6.085   2.200  0.3462 -0.5678 -0.2084
 6443TIP3    H140888   0.368   6.024   2.266  0.7515  0.1693  0.3012
 6443TIP3    H240889   0.281   6.146   2.247 -0.7210 -1.0224 -0.8623
 6444TIP3   OH240890   3.228   1.353   8.562 -0.1484  0.4612  0.7824
 6444TIP3    H140891   3.226   1.371   8.468  1.1387 -2.2239  0.1615
 6444TIP3    H240892   3.174   1.423   8.600 -0.4693  1.8111 -1.8807
 6445TIP3   OH240893   5.838   3.709   1.135  0.7031 -0.4525  0.0222
 6445TIP3    H140894   5.798   3.777   1.189  2.3063 -0.0817  0.8368
 6445TIP3    H240895   5.841   3.632   1.192  1.2722 -0.4279  0.0321
 6446TIP3   OH240896   2.654   6.823   1.759 -0.5240 -0.0641 -0.3551
 6446TIP3    H140897   2.647   6.821   1.664 -0.1480 -0.3680 -0.3809
 6446TIP3    H240898   2.748   6.820   1.776 -0.6014 -0.4813  0.0300
 6447TIP3   OH240899   6.815   0.263   6.846 -0.0533  0.0752  0.1292
 6447TIP3    H140900   6.732   0.309   6.845  0.0823  0.3681 -1.6317
 6447TIP3    H240901   6.842   0.261   6.754  0.7648 -2.0366  0.3652
 6448TIP3   OH240902   1.652   5.570   1.878  0.2575  0.0610  0.0240
 6448TIP3    H140903   1.687   5.486   1.848 -0.6569  0.0548 -1.0669
 6448TIP3    H240904   1.558   5.558   1.881  0.1653  0.8002  0.6945
 6449TIP3   OH240905   6.046   1.185   0.551 -0.9794 -0.0676  0.2224
 6449TIP3    H140906   6.060   1.110   0.492 -0.5594 -0.3947  0.7246
 6449TIP3    H240907   5.965   1.164   0.598 -1.3904  0.2599 -0.3319
 6450TIP3   OH240908   5.498   5.385   6.699 -0.8411 -0.2298  0.2333
 6450TIP3    H140909   5.511   5.357   6.790 -0.9483 -3.0955 -0.5708
 6450TIP3    H240910   5.404   5.373   6.684 -1.1738  1.9472  0.1982
 6451TIP3   OH240911   2.879   0.189   7.046  0.0217 -0.6642 -0.0166
 6451TIP3    H140912   2.969   0.211   7.072 -0.0180 -0.0241 -0.3856
 6451TIP3    H240913   2.881   0.189   6.951 -0.6860  0.8064 -0.0595
 6452TIP3   OH240914   4.609   6.127   8.216  0.0674 -0.3758  0.0345
 6452TIP3    H140915   4.544   6.057   8.222  0.7914 -0.9821  1.6155
 6452TIP3    H240916   4.625   6.138   8.122 -0.4752 -1.9667 -0.2700
 6453TIP3   OH240917   5.148   2.881   2.276 -0.0811  0.2808  0.0939
 6453TIP3    H140918   5.094   2.945   2.229 -0.7599 -0.7628 -0.5817
 6453TIP3    H240919   5.234   2.887   2.234 -0.1750  0.6605 -0.0501
 6454TIP3   OH240920   1.066   4.615   1.448  0.1601 -0.5962 -0.2300
 6454TIP3    H140921   1.026   4.550   1.391  1.6117 -0.5473 -1.3775
 6454TIP3    H240922   1.126   4.565   1.503 -1.2962 -0.6561  1.3856
 6455TIP3   OH240923   4.413   1.116   6.061  0.2970  0.1888 -0.4420
 6455TIP3    H140924   4.325   1.147   6.039  0.1286 -1.2541 -2.0949
 6455TIP3    H240925   4.439   1.065   5.984  1.3753 -1.8490  1.1857
 6456TIP3   OH240926   0.086   6.441   7.784 -0.1616 -0.3031  0.8523
 6456TIP3    H140927   0.140   6.479   7.854 -0.0991 -2.2498  1.9334
 6456TIP3    H240928  -0.002   6.475   7.801 -0.0219 -0.2366  1.4781
 6457TIP3   OH240929   0.931   5.675   0.271  0.4136 -0.6601  0.8653
 6457TIP3    H140930   0.889   5.609   0.326  0.2026 -0.6219  0.7514
 6457TIP3    H240931   0.859   5.720   0.228  0.6004 -2.2187 -1.2479
 6458TIP3   OH240932   3.296   3.042   7.919  0.1275 -0.1881 -0.2969
 6458TIP3    H140933   3.326   3.085   7.999  0.0262  2.8857 -1.7619
 6458TIP3    H240934   3.204   3.070   7.910 -0.9560 -3.2173  0.1521
 6459TIP3   OH240935   3.353   5.638   7.523 -0.0923  0.0523 -0.0374
 6459TIP3    H140936   3.264   5.638   7.559  0.3615 -0.0190  1.1239
 6459TIP3    H240937   3.369   5.730   7.501  0.0701  0.3032  1.1057
 6460TIP3   OH240938   4.589   5.912   7.721 -0.3634  0.2381  0.0332
 6460TIP3    H140939   4.523   5.855   7.762 -0.8923  0.0218 -1.0934
 6460TIP3    H240940   4.538   5.975   7.670  0.2278 -1.7738 -3.3643
 6461TIP3   OH240941   4.203   1.055   6.319  0.3684  0.0909  0.0984
 6461TIP3    H140942   4.149   0.992   6.272  0.2681  0.1677  0.1105
 6461TIP3    H240943   4.257   1.095   6.251  0.6000 -0.1724  0.1220
 6462TIP3   OH240944   1.992   5.623   0.709  0.6540  0.0167 -0.5492
 6462TIP3    H140945   2.006   5.547   0.652 -0.0885 -0.2972 -0.3338
 6462TIP3    H240946   1.979   5.585   0.796 -1.9000  0.1937 -0.7855
 6463TIP3   OH240947   3.251   0.074   0.109  0.6225  0.5265 -0.4561
 6463TIP3    H140948   3.169   0.122   0.102 -0.4662 -1.0486  0.6936
 6463TIP3    H240949   3.242   0.002   0.046  0.3103 -0.6760  0.9055
 6464TIP3   OH240950   2.759   4.030   1.149 -0.3281 -0.0356 -0.0214
 6464TIP3    H140951   2.840   4.081   1.142 -0.8465  0.8868  0.4210
 6464TIP3    H240952   2.689   4.095   1.138 -1.0475 -0.2986  2.4225
 6465TIP3   OH240953   0.350   1.067   2.689 -0.0171 -0.1947 -0.4120
 6465TIP3    H140954   0.300   0.992   2.659 -1.1405  0.4491 -0.2112
 6465TIP3    H240955   0.287   1.139   2.690  0.8275  0.5623  0.1995
 6466TIP3   OH240956   1.843   4.246   8.003  0.2183 -0.6064  0.7943
 6466TIP3    H140957   1.854   4.309   8.074 -0.8041  0.9571 -0.3543
 6466TIP3    H240958   1.785   4.179   8.039 -1.3955  0.8679  1.0766
 6467TIP3   OH240959   0.051   5.354   8.087 -0.0457 -0.0545  0.2174
 6467TIP3    H140960   0.141   5.359   8.118 -0.6373  2.9952  1.8246
 6467TIP3    H240961   0.028   5.261   8.095  1.7650 -0.3761  3.4357
 6468TIP3   OH240962   3.673   3.453   6.665 -0.1514  0.4064 -0.0192
 6468TIP3    H140963   3.691   3.543   6.692  0.9556  0.7586 -1.7518
 6468TIP3    H240964   3.757   3.421   6.631 -0.6096 -1.1823  0.2382
 6469TIP3   OH240965   2.157   1.391   1.462  0.2955  0.1848  0.0597
 6469TIP3    H140966   2.148   1.486   1.457 -1.5203 -0.0259 -2.0631
 6469TIP3    H240967   2.168   1.363   1.371  1.8068 -1.5983  0.7198
 6470TIP3   OH240968   3.486   2.060   7.951 -0.0404  0.0041  0.0413
 6470TIP3    H140969   3.558   2.121   7.963 -0.5515  0.5028  0.7058
 6470TIP3    H240970   3.510   2.007   7.875 -0.2439  1.9806 -1.4598
 6471TIP3   OH240971   2.351   2.767   0.201 -0.0786  0.3965 -0.1775
 6471TIP3    H140972   2.384   2.698   0.144  0.1396  0.9576 -0.7551
 6471TIP3    H240973   2.291   2.723   0.261 -1.1168 -0.0615 -1.5047
 6472TIP3   OH240974   0.604   6.524   1.231  0.2457 -0.5923  0.1763
 6472TIP3    H140975   0.566   6.602   1.273 -0.8602 -2.1351  2.2032
 6472TIP3    H240976   0.550   6.452   1.262  0.1556 -2.0459 -2.9856
 6473TIP3   OH240977   5.755   5.409   0.834 -0.5246 -0.1046 -0.1574
 6473TIP3    H140978   5.719   5.320   0.834  1.1766 -0.8353 -0.6226
 6473TIP3    H240979   5.837   5.401   0.882 -1.1409  1.5984  1.2556
 6474TIP3   OH240980   6.429   5.321   2.087 -0.2698 -0.3995  0.2946
 6474TIP3    H140981   6.477   5.387   2.139 -1.5575 -0.9399  2.2453
 6474TIP3    H240982   6.495   5.254   2.068  0.5529  0.4492  0.0172
 6475TIP3   OH240983   2.474   5.848   0.234  0.0550 -0.2777  0.1903
 6475TIP3    H140984   2.460   5.907   0.307 -0.4742  1.1607 -1.0231
 6475TIP3    H240985   2.386   5.824   0.205  0.1990  0.5304 -1.0033
 6476TIP3   OH240986   1.144   2.101   7.724  0.0821 -0.6248 -0.5535
 6476TIP3    H140987   1.163   2.038   7.654  0.1443 -0.8046 -0.3786
 6476TIP3    H240988   1.162   2.186   7.686  2.4277 -0.8288 -0.0728
 6477TIP3   OH240989   3.910   0.661   1.914 -0.2748 -0.2042  0.3221
 6477TIP3    H140990   3.984   0.633   1.967 -1.1952 -1.6618  0.9198
 6477TIP3    H240991   3.845   0.692   1.977 -0.3354  0.7239 -0.1673
 6478TIP3   OH240992   0.872   6.045   7.247 -0.0154 -0.4902 -0.6416
 6478TIP3    H140993   0.943   6.055   7.183  1.0297 -1.6667  0.2743
 6478TIP3    H240994   0.792   6.047   7.194  0.5131  2.7486 -1.5197
 6479TIP3   OH240995   1.304   5.801   8.080 -0.1714 -0.3552 -0.3096
 6479TIP3    H140996   1.226   5.761   8.042  0.3239 -0.1682 -1.5810
 6479TIP3    H240997   1.340   5.855   8.009  2.3456 -2.1699 -0.5260
 6480TIP3   OH240998   2.834   3.759   1.588 -0.3901  0.0424  0.0200
 6480TIP3    H140999   2.861   3.681   1.540 -0.5567 -1.4690  2.1935
 6480TIP3    H241000   2.898   3.766   1.659  0.0931  2.4074 -0.5819
 6481TIP3   OH241001   6.706   2.529   7.968 -0.6978  0.5606  0.0402
 6481TIP3    H141002   6.652   2.473   8.024 -1.4300 -0.5714 -1.7213
 6481TIP3    H241003   6.795   2.494   7.978 -1.0532 -0.5610 -0.5646
 6482TIP3   OH241004   5.651   6.221   1.526  0.9084 -0.0601  0.2263
 6482TIP3    H141005   5.667   6.177   1.442  0.8037 -1.7146  1.0529
 6482TIP3    H241006   5.724   6.283   1.534  1.0363 -0.0274 -0.9780
 6483TIP3   OH241007   0.187   1.453   7.939  0.4926  0.7632 -0.5019
 6483TIP3    H141008   0.246   1.437   8.012  1.0200  1.5272 -0.7509
 6483TIP3    H241009   0.167   1.366   7.905 -2.5744 -0.0337  2.6936
 6484TIP3   OH241010   5.407   6.522   2.764 -0.0085  0.0702 -0.3866
 6484TIP3    H141011   5.376   6.589   2.702  0.7212  1.4027  0.6331
 6484TIP3    H241012   5.482   6.563   2.808  2.1438 -2.3740 -1.5159
 6485TIP3   OH241013   4.301   5.436   7.160  0.1851  0.0364 -0.0263
 6485TIP3    H141014   4.225   5.381   7.142  1.6359 -1.7666 -0.8923
 6485TIP3    H241015   4.266   5.506   7.217 -2.2941 -0.1294 -1.1967
 6486TIP3   OH241016   1.900   0.047   1.499  0.1336  0.3491  0.0581
 6486TIP3    H141017   1.806   0.043   1.516 -0.2357  0.2778 -1.8601
 6486TIP3    H241018   1.932  -0.039   1.526  0.0060  0.9758  2.4304
 6487TIP3   OH241019   3.190   5.473   8.158  0.0988  0.4337  0.1302
 6487TIP3    H141020   3.174   5.406   8.091  0.1501  2.8609 -2.4795
 6487TIP3    H241021   3.105   5.516   8.170  0.5375  1.3441  0.0720
 6488TIP3   OH241022   2.415   4.880   8.285 -0.3105  0.5370  0.3652
 6488TIP3    H141023   2.419   4.870   8.190  0.3582  0.2404  0.4223
 6488TIP3    H241024   2.368   4.963   8.298  0.5824  1.1569 -0.2460
 6489TIP3   OH241025   3.300   1.486   0.358  0.0430 -0.1872 -0.3358
 6489TIP3    H141026   3.377   1.445   0.319  0.6673 -0.5948  1.2605
 6489TIP3    H241027   3.309   1.579   0.337  1.1732 -0.1789  0.1312
 6490TIP3   OH241028   3.821   5.763   8.245 -0.1485  0.4605 -0.1470
 6490TIP3    H141029   3.803   5.669   8.241  0.6811  0.2685  0.2984
 6490TIP3    H241030   3.853   5.777   8.334 -0.0496  1.1267 -0.2826
 6491TIP3   OH241031   5.993   5.356   0.978 -0.8005 -0.4987 -0.2270
 6491TIP3    H141032   5.937   5.390   1.048  0.1794  0.3600  0.1680
 6491TIP3    H241033   6.078   5.344   1.019 -0.7724 -2.2057 -0.7132
 6492TIP3   OH241034   1.755   2.430   1.513 -0.1054 -0.0723  0.0993
 6492TIP3    H141035   1.749   2.370   1.439  0.4172  0.0553 -0.0468
 6492TIP3    H241036   1.694   2.394   1.577 -1.7408  0.6651 -0.9749
 6493TIP3   OH241037   1.617   3.611   8.057 -0.0803 -0.1724 -0.9171
 6493TIP3    H141038   1.658   3.525   8.068  2.1250  0.8475 -0.5967
 6493TIP3    H241039   1.555   3.618   8.129  0.9363 -0.8656  0.0492
 6494TIP3   OH241040   3.329   0.361   2.633  0.1407  0.8927 -0.0407
 6494TIP3    H141041   3.234   0.367   2.645  0.1993  2.3026 -0.0518
 6494TIP3    H241042   3.350   0.270   2.653 -0.8978  1.0844  2.2934
 6495TIP3   OH241043   6.692   2.678   1.863  0.1859 -0.5030  0.2831
 6495TIP3    H141044   6.622   2.622   1.899 -1.2999  0.8246 -0.4070
 6495TIP3    H241045   6.686   2.665   1.768 -0.8201  1.4561  0.0237
 6496TIP3   OH241046   2.908   0.744   7.073 -0.1941  0.0854 -0.5406
 6496TIP3    H141047   3.001   0.752   7.052 -0.5006  0.3312 -1.9181
 6496TIP3    H241048   2.906   0.698   7.157  1.1801  0.7086 -0.1365
 6497TIP3   OH241049   4.610   2.556   0.882  0.0554 -0.2834 -0.2036
 6497TIP3    H141050   4.598   2.466   0.851 -0.6573 -0.1041 -0.4861
 6497TIP3    H241051   4.695   2.556   0.924  1.0356 -0.5709 -2.0763
 6498TIP3   OH241052   5.118   2.043   1.650 -0.1477  0.1358  0.3695
 6498TIP3    H141053   5.132   1.955   1.683  1.1530  1.0019  2.2547
 6498TIP3    H241054   5.076   2.090   1.722 -1.1657  1.0050 -0.7317
 6499TIP3   OH241055   3.852   5.525   6.743  0.2437  0.7370 -0.2077
 6499TIP3    H141056   3.814   5.613   6.739 -1.7924 -0.0200  0.7315
 6499TIP3    H241057   3.776   5.467   6.736  1.5023 -0.9500 -0.3750
 6500TIP3   OH241058   5.732   0.979   7.217  0.1444  0.1488  0.7474
 6500TIP3    H141059   5.644   0.960   7.185  0.2443  1.2905 -0.2716
 6500TIP3    H241060   5.790   0.925   7.162  0.2082  0.9108  0.0568
 6501TIP3   OH241061   4.535   0.397   6.791  0.4664 -0.1169  0.4353
 6501TIP3    H141062   4.530   0.492   6.799 -1.0300  0.4147 -4.0055
 6501TIP3    H241063   4.567   0.367   6.876  1.4451  4.3346  1.8776
 6502TIP3   OH241064   5.716   1.283   1.013  0.1829  0.1665 -0.8866
 6502TIP3    H141065   5.705   1.346   0.942  0.1930  2.5868  1.1052
 6502TIP3    H241066   5.805   1.298   1.044 -0.0032 -0.4482 -0.0161
 6503TIP3   OH241067   5.013   1.333   8.539 -0.4908  0.4896 -0.1039
 6503TIP3    H141068   4.972   1.360   8.621 -2.6411  1.6882 -1.4627
 6503TIP3    H241069   4.972   1.249   8.519  1.1902 -0.5941  0.7534
 6504TIP3   OH241070   4.439   2.093   1.354 -0.2969 -0.1880  0.4753
 6504TIP3    H141071   4.381   2.018   1.365  1.3243 -1.3652  1.5352
 6504TIP3    H241072   4.381   2.165   1.331 -1.9729 -1.6388 -0.1104
 6505TIP3   OH241073   2.828   0.264   7.752  0.1329 -0.1771  0.6479
 6505TIP3    H141074   2.815   0.238   7.661 -0.0570  0.6605  0.4245
 6505TIP3    H241075   2.914   0.307   7.752  0.1293 -0.1702  0.8572
 6506TIP3   OH241076   5.716   6.045   8.174  0.2206 -0.0526 -0.0087
 6506TIP3    H141077   5.745   6.031   8.264  0.2090  0.1320  0.0251
 6506TIP3    H241078   5.623   6.020   8.174  0.8377 -2.6408 -0.5954
 6507TIP3   OH241079   3.867   1.803   1.194 -0.1916 -0.1617 -0.3313
 6507TIP3    H141080   3.820   1.774   1.272 -0.5023 -0.5158 -0.6472
 6507TIP3    H241081   3.833   1.748   1.124  0.8946 -0.6164 -0.5117
 6508TIP3   OH241082   1.254   2.301   0.086  0.9904  0.0578 -0.2958
 6508TIP3    H141083   1.269   2.376   0.029  0.8515 -1.0910 -1.9130
 6508TIP3    H241084   1.325   2.241   0.065  0.7599 -0.5141  0.5325
 6509TIP3   OH241085   4.673   6.224   1.708  0.3886  0.1087  0.5380
 6509TIP3    H141086   4.626   6.287   1.654  2.3449  3.0546  2.0518
 6509TIP3    H241087   4.606   6.160   1.733 -2.5808  3.2835  1.4363
 6510TIP3   OH241088   2.344   0.759   0.783 -0.1123  0.1257  0.1132
 6510TIP3    H141089   2.405   0.707   0.731  1.1870  0.4907  1.2194
 6510TIP3    H241090   2.309   0.823   0.721 -0.8596 -1.2667 -0.9881
 6511TIP3   OH241091   2.770   2.015   6.407  0.1228  0.2042  0.0942
 6511TIP3    H141092   2.726   2.094   6.437 -0.6892  1.5621 -4.0287
 6511TIP3    H241093   2.857   2.044   6.381  0.8943 -0.9364  1.2989
 6512TIP3   OH241094   5.238   2.196   0.848 -0.3149 -0.3307 -0.0253
 6512TIP3    H141095   5.267   2.150   0.927  0.7764 -0.5754 -0.5649
 6512TIP3    H241096   5.318   2.225   0.805 -0.9316  0.8815 -0.4226
 6513TIP3   OH241097   6.178   4.333   7.614 -0.4767 -0.2905  0.1686
 6513TIP3    H141098   6.152   4.357   7.525 -0.0482 -1.4301 -0.2705
 6513TIP3    H241099   6.261   4.287   7.604  0.1312  0.5174  1.2739
 6514TIP3   OH241100   4.524   2.157   7.112  0.1825  0.1126  0.5100
 6514TIP3    H141101   4.495   2.221   7.177  1.4218  1.9690 -0.6491
 6514TIP3    H241102   4.565   2.210   7.043 -0.8229 -1.7691 -1.6765
 6515TIP3   OH241103   2.365   1.621   0.765 -0.3888 -0.5612  0.1020
 6515TIP3    H141104   2.293   1.657   0.714  0.2437 -0.0976 -0.4790
 6515TIP3    H241105   2.421   1.577   0.701  0.8021  0.6687  0.2683
 6516TIP3   OH241106   6.634   1.412   6.821  0.0777 -0.5325  0.2189
 6516TIP3    H141107   6.634   1.408   6.725  0.8862 -0.1700  0.1906
 6516TIP3    H241108   6.558   1.361   6.848  0.2679 -1.2756 -0.5966
 6517TIP3   OH241109   6.444   0.288   0.047 -0.1288 -0.5230  0.4446
 6517TIP3    H141110   6.455   0.326  -0.040  0.1729 -1.7939 -0.0870
 6517TIP3    H241111   6.349   0.289   0.062 -0.1968 -0.4968  0.0130
 6518TIP3   OH241112   6.795   2.768   8.053  0.1169 -0.8560  0.3646
 6518TIP3    H141113   6.740   2.821   7.996 -1.8685 -0.3866  2.5624
 6518TIP3    H241114   6.795   2.681   8.014  2.4914  0.3174 -2.6758
 6519TIP3   OH241115   2.206   5.906   7.758  0.0162 -0.2459 -0.4439
 6519TIP3    H141116   2.172   5.848   7.826 -2.3920 -0.6353 -1.8325
 6519TIP3    H241117   2.189   5.858   7.676 -1.3463  2.0273 -1.5906
 6520TIP3   OH241118   3.232   1.044   7.641  0.2745  0.4905 -0.2590
 6520TIP3    H141119   3.325   1.065   7.635  0.4180  0.2869  1.0760
 6520TIP3    H241120   3.229   0.961   7.689 -0.4611 -0.9011 -2.5089
 6521TIP3   OH241121   3.438   3.892   0.619 -0.3371 -0.1249  0.0968
 6521TIP3    H141122   3.484   3.959   0.568  0.2816 -0.3550  0.3523
 6521TIP3    H241123   3.435   3.927   0.708 -1.2063  0.1677 -0.0412
 6522TIP3   OH241124   1.810   5.257   6.713 -0.4043 -0.1765 -0.1255
 6522TIP3    H141125   1.898   5.222   6.701  0.5928  1.3807  1.9188
 6522TIP3    H241126   1.783   5.285   6.626  1.5510  0.2011 -0.6690
 6523TIP3   OH241127   0.430   2.155   1.282  0.2312 -0.5893 -0.3423
 6523TIP3    H141128   0.471   2.069   1.283  0.5595 -0.4520 -1.1028
 6523TIP3    H241129   0.390   2.164   1.369 -1.3120 -2.2046 -0.8368
 6524TIP3   OH241130   1.997   3.078   0.453  0.2083  0.1598 -0.0115
 6524TIP3    H141131   1.907   3.074   0.486 -0.0018 -0.0221 -0.5831
 6524TIP3    H241132   1.995   3.147   0.386 -0.1369 -1.5028 -1.8205
 6525TIP3   OH241133   3.186   4.958   7.900  0.3602  0.1717 -0.2329
 6525TIP3    H141134   3.222   4.965   7.812 -0.0342  3.0432 -0.2584
 6525TIP3    H241135   3.094   4.935   7.887  0.1368  1.2647 -0.6272
 6526TIP3   OH241136   4.486   1.131   2.215 -0.2135 -0.3020 -0.1859
 6526TIP3    H141137   4.418   1.140   2.283 -0.4493  0.3391 -0.5027
 6526TIP3    H241138   4.452   1.180   2.140  0.2877 -0.5627 -0.5893
 6527TIP3   OH241139   1.550   1.829   0.134  0.4168  0.5528 -0.1385
 6527TIP3    H141140   1.578   1.845   0.044 -1.2996  1.1719 -0.6104
 6527TIP3    H241141   1.558   1.734   0.146 -0.2491  0.3306 -1.3012
 6528TIP3   OH241142   4.811   6.672   0.946 -0.0099  0.3849 -0.3942
 6528TIP3    H141143   4.902   6.658   0.971 -0.6378 -1.2202  1.2478
 6528TIP3    H241144   4.766   6.593   0.976 -1.7300  0.5178 -2.4075
 6529TIP3   OH241145   5.078   4.910   2.722 -0.1660  0.0690  0.2243
 6529TIP3    H141146   5.105   4.835   2.775 -1.3743 -1.1478 -0.8147
 6529TIP3    H241147   5.057   4.873   2.636  0.2855  1.7688 -0.6709
 6530TIP3   OH241148   0.561   6.297   0.891 -0.6885 -0.9364  0.0494
 6530TIP3    H141149   0.569   6.393   0.886 -0.0317 -1.0161 -0.7342
 6530TIP3    H241150   0.468   6.282   0.902 -1.0487 -0.2379 -1.6634
 6531TIP3   OH241151   5.412   4.817   1.718  0.1636 -0.2247  0.0397
 6531TIP3    H141152   5.353   4.884   1.685  0.6555 -0.1955 -0.8100
 6531TIP3    H241153   5.408   4.825   1.813  0.5781  1.3163 -0.0600
 6532TIP3   OH241154   4.889   1.675   7.626 -0.0823  0.2528 -0.2838
 6532TIP3    H141155   4.904   1.769   7.623  0.8031  0.3721  3.2885
 6532TIP3    H241156   4.798   1.664   7.598 -0.5005  2.3021  0.1409
 6533TIP3   OH241157   3.588   0.341   7.805 -0.1362 -0.5475  0.1739
 6533TIP3    H141158   3.610   0.386   7.723  2.3363 -0.4186  0.8349
 6533TIP3    H241159   3.516   0.283   7.782  0.5569 -0.5924 -2.1358
 6534TIP3   OH241160   1.895   3.034   0.158  0.0335 -0.7991  0.3661
 6534TIP3    H141161   1.960   3.062   0.222  0.5344  0.1100 -0.5203
 6534TIP3    H241162   1.815   3.079   0.185  0.2175 -0.4996  0.4185
 6535TIP3   OH241163   3.249   4.283   0.551  0.1646 -0.0759  0.1898
 6535TIP3    H141164   3.290   4.352   0.603  0.5365  1.4507 -1.9741
 6535TIP3    H241165   3.315   4.214   0.547  0.7301  0.4314  0.4869
 6536TIP3   OH241166   6.226   3.421   7.178  0.1629  0.2546 -0.2346
 6536TIP3    H141167   6.219   3.379   7.264 -3.8675 -2.3417 -1.5448
 6536TIP3    H241168   6.311   3.392   7.145  0.7931 -0.6028  1.9235
 6537TIP3   OH241169   0.268   3.900   0.975  0.6291  0.6309 -0.6351
 6537TIP3    H141170   0.356   3.924   0.948  1.2881 -1.1170 -0.1362
 6537TIP3    H241171   0.280   3.849   1.055 -0.7070 -0.9992 -1.4296
 6538TIP3   OH241172   3.724   0.353   1.867  0.3141 -0.6935  0.1753
 6538TIP3    H141173   3.709   0.414   1.940  0.5938 -0.2780 -0.1112
 6538TIP3    H241174   3.811   0.318   1.882 -0.2424 -1.8364  0.9152
 6539TIP3   OH241175   4.357   3.618   7.362 -0.2943  0.2230  0.2179
 6539TIP3    H141176   4.381   3.674   7.289 -1.1747  1.8065  1.0884
 6539TIP3    H241177   4.385   3.667   7.440  1.0708 -1.6259  0.9823
 6540TIP3   OH241178   6.484   4.805   8.510 -0.5025 -0.5555 -0.3564
 6540TIP3    H141179   6.431   4.803   8.589 -0.5386 -2.5154 -0.3842
 6540TIP3    H241180   6.554   4.741   8.526  1.1552  1.0332 -0.8287
 6541TIP3   OH241181   5.006   1.749   0.691 -0.1860  0.7556  0.1284
 6541TIP3    H141182   5.083   1.695   0.678 -0.3619  0.6059 -0.3272
 6541TIP3    H241183   5.039   1.839   0.692  0.2278  0.6096  1.8390
 6542TIP3   OH241184   4.198   5.982   7.043 -0.5526 -0.7307 -0.1179
 6542TIP3    H141185   4.207   6.071   7.076 -0.6135 -1.0113  0.6722
 6542TIP3    H241186   4.208   5.927   7.120  0.0643 -1.4374 -0.6891
 6543TIP3   OH241187   4.989   4.716   7.019 -0.1872  0.6057  0.2570
 6543TIP3    H141188   4.932   4.751   7.088  1.3533 -0.6427  2.3189
 6543TIP3    H241189   4.960   4.625   7.009 -0.4523  0.8051 -0.8384
 6544TIP3   OH241190   6.099   6.453   2.352  0.3094 -0.5036 -0.0766
 6544TIP3    H141191   6.008   6.468   2.326  0.3935 -1.1509 -0.7705
 6544TIP3    H241192   6.112   6.510   2.429  0.1305  1.6867 -1.5783
 6545TIP3   OH241193   6.431   2.975   1.437 -0.3706 -0.2729 -0.2730
 6545TIP3    H141194   6.471   3.059   1.415  1.0227 -1.0754 -0.9635
 6545TIP3    H241195   6.442   2.922   1.358 -2.1597 -0.7858 -0.2133
 6546TIP3   OH241196   2.516   5.645   7.821 -0.4320  0.6349 -0.7819
 6546TIP3    H141197   2.569   5.567   7.838  0.1088  1.0167 -0.6773
 6546TIP3    H241198   2.428   5.620   7.848 -0.4975 -0.3103 -1.7891
 6547TIP3   OH241199   5.293   1.213   7.951 -0.2377  0.1686 -0.6784
 6547TIP3    H141200   5.203   1.192   7.976  0.3045 -0.8634  0.5326
 6547TIP3    H241201   5.304   1.305   7.977 -0.5011 -0.1266  0.5254
 6548TIP3   OH241202   0.395   0.590   8.291  0.0601  0.1625 -0.3718
 6548TIP3    H141203   0.405   0.656   8.359  0.9305 -1.2862  0.9638
 6548TIP3    H241204   0.338   0.524   8.329 -1.6818  0.5921 -2.0840
 6549TIP3   OH241205   5.959   3.738   6.540  0.0899 -0.0270  0.0071
 6549TIP3    H141206   5.872   3.704   6.522 -0.1264  1.3350 -1.7952
 6549TIP3    H241207   6.013   3.706   6.467  0.3146  1.7601 -0.6642
 6550TIP3   OH241208   5.362   1.314   1.426 -0.4611  0.0107  0.0246
 6550TIP3    H141209   5.361   1.218   1.433 -1.2741  0.0161 -0.0121
 6550TIP3    H241210   5.429   1.332   1.360 -0.6950 -0.5545 -0.3709
 6551TIP3   OH241211   4.712   5.311   7.280 -0.0455  0.4789 -0.4436
 6551TIP3    H141212   4.663   5.298   7.199 -1.8580  0.1282  0.6410
 6551TIP3    H241213   4.736   5.222   7.308  1.8636  0.6749 -1.2868
 6552TIP3   OH241214   2.103   2.031   1.409  0.1627  0.1359 -0.0722
 6552TIP3    H141215   2.081   1.956   1.354 -0.1296 -0.3541  0.6876
 6552TIP3    H241216   2.164   2.083   1.356 -1.8523  0.9057 -1.7804
 6553TIP3   OH241217   6.906   0.105   1.353 -0.2509  0.0128  0.3554
 6553TIP3    H141218   6.832   0.098   1.413  0.2973 -1.2672  0.9065
 6553TIP3    H241219   6.966   0.166   1.395 -1.0224  1.1772 -0.1647
 6554TIP3   OH241220   1.035   3.779   7.296  0.1131  0.3237  0.3418
 6554TIP3    H141221   1.021   3.690   7.327 -0.1648 -0.2542 -1.3851
 6554TIP3    H241222   0.953   3.804   7.255  0.9156  0.4854 -1.2558
 6555TIP3   OH241223   3.548   4.413   0.933  0.0056 -0.7335 -0.4052
 6555TIP3    H141224   3.577   4.497   0.968  0.6782 -0.9999 -0.2975
 6555TIP3    H241225   3.530   4.431   0.841  0.6303 -0.5708 -0.5045
 6556TIP3   OH241226   0.198   0.418   2.536  0.3562 -0.4927 -0.0813
 6556TIP3    H141227   0.109   0.442   2.562  0.1066  0.6386 -1.8234
 6556TIP3    H241228   0.231   0.366   2.610 -1.4169 -0.1928  0.9907
 6557TIP3   OH241229   5.127   0.577   7.984  0.3055  0.3155  0.6922
 6557TIP3    H141230   5.098   0.528   7.907 -0.4473 -0.2360  1.3056
 6557TIP3    H241231   5.089   0.664   7.973  0.5002  0.3512  0.2734
 6558TIP3   OH241232   3.874   2.224   2.314 -0.4103  0.5648  0.5491
 6558TIP3    H141233   3.912   2.144   2.278  0.3800  1.5203 -0.8879
 6558TIP3    H241234   3.930   2.247   2.387  0.9140  1.1312 -0.6038
 6559TIP3   OH241235   6.288   4.234   1.690  0.1156  0.5001 -0.4813
 6559TIP3    H141236   6.356   4.299   1.672  2.5591 -1.5761  0.6785
 6559TIP3    H241237   6.214   4.286   1.723  1.7178  2.7504 -0.1635
 6560TIP3   OH241238   5.246   5.416   0.015  0.0677  0.2044 -0.0296
 6560TIP3    H141239   5.329   5.441   0.056 -0.5314  2.0102  0.1627
 6560TIP3    H241240   5.271   5.363  -0.061  1.3709  0.3443  0.2862
 6561TIP3   OH241241   0.850   6.281   6.659  0.3968 -0.1658 -0.2370
 6561TIP3    H141242   0.909   6.356   6.667 -0.0681  0.0922  0.9252
 6561TIP3    H241243   0.907   6.207   6.639  1.0222  0.2180  0.1095
 6562TIP3   OH241244   4.441   4.201   1.299 -0.2411  0.6921 -0.3207
 6562TIP3    H141245   4.522   4.152   1.285  0.0210  1.0733 -0.1570
 6562TIP3    H241246   4.412   4.175   1.386 -1.2480 -0.7893 -1.0540
 6563TIP3   OH241247   4.226   0.383   0.441 -0.1653 -0.3993 -0.3688
 6563TIP3    H141248   4.204   0.302   0.489 -0.7420 -0.0052  0.0531
 6563TIP3    H241249   4.160   0.388   0.372  0.0713 -0.4561 -0.5995
 6564TIP3   OH241250   2.920   2.788   2.214 -0.6926 -0.5466  0.2491
 6564TIP3    H141251   2.854   2.844   2.173  0.5141  1.3409  0.7448
 6564TIP3    H241252   2.974   2.757   2.141  0.5514  1.6007  0.1631
 6565TIP3   OH241253   6.324   5.850   0.317 -0.0199  0.0704  0.0749
 6565TIP3    H141254   6.394   5.864   0.253  0.6138  0.2703  0.7927
 6565TIP3    H241255   6.370   5.825   0.397 -0.8030 -0.2597  0.4332
 6566TIP3   OH241256   3.095   5.073   2.378 -0.1837 -0.3781  0.4771
 6566TIP3    H141257   3.037   5.148   2.367  0.8007  0.9802  3.5298
 6566TIP3    H241258   3.152   5.097   2.451  3.2022 -2.2769 -1.2865
 6567TIP3   OH241259   2.929   2.182   0.328  0.1669 -0.0989  0.3124
 6567TIP3    H141260   2.911   2.203   0.420 -0.1915  1.7418 -0.1464
 6567TIP3    H241261   2.974   2.259   0.294 -0.1930 -0.5354 -1.2081
 6568TIP3   OH241262   3.992   5.387   7.377  0.5318 -0.2324  0.0763
 6568TIP3    H141263   3.924   5.341   7.426 -0.7465  1.4778 -0.0060
 6568TIP3    H241264   4.071   5.379   7.431 -0.3671 -0.0345  1.4542
 6569TIP3   OH241265   4.939   1.609   1.859 -0.2026 -0.4607 -0.5615
 6569TIP3    H141266   4.903   1.571   1.939 -0.6202  0.4541 -0.2972
 6569TIP3    H241267   4.896   1.563   1.788  1.1669 -2.2352 -0.3007
 6570TIP3   OH241268   6.759   0.299   1.156 -0.0809  0.8889 -0.2134
 6570TIP3    H141269   6.790   0.211   1.132 -2.8339 -1.7965  4.6130
 6570TIP3    H241270   6.664   0.295   1.144 -0.1000  4.4219 -2.5995
 6571TIP3   OH241271   4.637   0.563   0.728 -0.2765 -0.0310 -0.1474
 6571TIP3    H141272   4.710   0.534   0.782  0.3666  0.6702 -0.6246
 6571TIP3    H241273   4.649   0.519   0.644  1.7999  2.9112 -1.5567
 6572TIP3   OH241274   1.442   3.294   7.499 -0.1893 -0.3986  0.1782
 6572TIP3    H141275   1.384   3.367   7.477 -0.2058 -0.1726  0.9297
 6572TIP3    H241276   1.401   3.254   7.575  0.9516  0.1503  1.1158
 6573TIP3   OH241277   0.081   0.403   0.650 -0.4731  0.2176  0.1859
 6573TIP3    H141278   0.114   0.383   0.737  0.8106  1.9174  0.1301
 6573TIP3    H241279  -0.012   0.379   0.654 -0.7555  1.4190  2.4361
 6574TIP3   OH241280   0.561   6.309   2.153 -0.1162 -0.1064 -0.0111
 6574TIP3    H141281   0.645   6.343   2.123 -0.0428  0.0756  0.3916
 6574TIP3    H241282   0.504   6.386   2.158 -0.4923 -0.3105 -0.8616
 6575TIP3   OH241283   1.706   1.789   0.443 -0.0086  0.3964  0.6912
 6575TIP3    H141284   1.617   1.755   0.442  0.4414 -0.8198  0.7208
 6575TIP3    H241285   1.717   1.823   0.532 -1.1412  2.5709  0.0782
 6576TIP3   OH241286   5.193   1.560   1.386 -0.1345 -0.1667 -0.3128
 6576TIP3    H141287   5.180   1.560   1.291 -0.9149 -0.7744 -0.2224
 6576TIP3    H241288   5.113   1.600   1.421 -0.2867 -0.8349  0.1290
 6577TIP3   OH241289   2.847   3.287   0.536 -0.2683 -0.0839 -0.1247
 6577TIP3    H141290   2.879   3.245   0.616 -0.2779  3.3832  1.8735
 6577TIP3    H241291   2.753   3.270   0.535 -0.3631  0.3525  0.9488
 6578TIP3   OH241292   2.983   5.223   7.603 -0.6117 -0.0866 -0.1109
 6578TIP3    H141293   2.978   5.148   7.663  2.2963 -1.0625 -0.9128
 6578TIP3    H241294   2.960   5.187   7.518  0.5784 -0.0397 -0.4633
 6579TIP3   OH241295   0.953   4.074   8.398 -0.1265 -0.0864 -0.0818
 6579TIP3    H141296   1.037   4.057   8.442 -0.5330 -1.9273  0.0513
 6579TIP3    H241297   0.975   4.134   8.327  1.2266 -0.2133  0.1998
 6580TIP3   OH241298   6.110   3.646   8.460 -0.1240  0.4226  0.4243
 6580TIP3    H141299   6.129   3.559   8.496  1.9899  1.1752  1.2857
 6580TIP3    H241300   6.015   3.648   8.452 -0.2011 -2.3627 -0.6843
 6581TIP3   OH241301   0.529   1.772   2.575 -0.5292 -0.2091 -0.4167
 6581TIP3    H141302   0.593   1.795   2.642  0.4562 -1.6658 -0.8002
 6581TIP3    H241303   0.538   1.841   2.509 -0.5468  0.4974  0.2958
 6582TIP3   OH241304   2.827   5.790   1.378 -0.2842  0.2282  0.9936
 6582TIP3    H141305   2.803   5.874   1.418  0.1136  0.2332  1.2327
 6582TIP3    H241306   2.877   5.814   1.300 -1.1611  0.2200  0.4151
 6583TIP3   OH241307   0.828   6.691   1.225  0.4528  0.2325 -0.2088
 6583TIP3    H141308   0.753   6.647   1.186  2.2939 -1.5765 -1.9477
 6583TIP3    H241309   0.843   6.767   1.169  1.2097 -0.6389 -1.2240
 6584TIP3   OH241310   1.484   0.221   8.273  0.2493 -0.0921  0.2273
 6584TIP3    H141311   1.428   0.230   8.196 -0.8348 -0.3109  0.9656
 6584TIP3    H241312   1.461   0.136   8.310 -0.6797  0.8179  1.8802
 6585TIP3   OH241313   5.696   2.745   7.037  0.4241  0.0091 -0.3448
 6585TIP3    H141314   5.781   2.752   7.081  0.4342  0.3317 -0.4139
 6585TIP3    H241315   5.719   2.734   6.944  0.3913  0.0979 -0.3637
 6586TIP3   OH241316   0.789   0.499   1.625 -0.1171 -0.4056  0.1666
 6586TIP3    H141317   0.795   0.492   1.720 -1.5899  0.2209  0.3273
 6586TIP3    H241318   0.696   0.517   1.608  0.0615 -0.8452 -1.4077
 6587TIP3   OH241319   2.949   3.224   8.154 -0.6182 -0.4148 -0.5623
 6587TIP3    H141320   2.875   3.164   8.158 -0.8195 -0.1651 -0.5129
 6587TIP3    H241321   2.925   3.287   8.085 -1.6211  1.2119  1.1873
 6588TIP3   OH241322   3.489   6.125   7.311  0.1744 -0.3355  0.3812
 6588TIP3    H141323   3.459   6.207   7.273 -1.0641 -0.8328  0.2181
 6588TIP3    H241324   3.571   6.147   7.356 -0.5110  1.1415  0.9663
 6589TIP3   OH241325   4.260   4.864   1.921 -0.6320 -0.4935  0.4411
 6589TIP3    H141326   4.221   4.948   1.945 -0.1813  0.0939 -0.7799
 6589TIP3    H241327   4.309   4.837   1.998  0.5684  1.1892  0.3273
 6590TIP3   OH241328   2.351   3.559   7.727 -0.6436  0.6565  0.5755
 6590TIP3    H141329   2.420   3.493   7.717 -0.7709  0.3615  1.5950
 6590TIP3    H241330   2.323   3.551   7.818 -1.9009  0.9091  0.2208
 6591TIP3   OH241331   3.316   0.916   0.118 -0.2952  0.5266  0.4511
 6591TIP3    H141332   3.241   0.976   0.115 -0.0017  0.8835 -1.9716
 6591TIP3    H241333   3.319   0.879   0.030  2.2568  0.3538  0.5564
 6592TIP3   OH241334   4.843   3.013   7.471 -0.5697 -0.2848  0.3318
 6592TIP3    H141335   4.833   3.002   7.376  0.5749  1.3192 -0.0183
 6592TIP3    H241336   4.766   3.064   7.497  0.2115  1.1814 -0.1466
 6593TIP3   OH241337   3.400   3.641   0.433 -0.4562  0.6905 -0.1081
 6593TIP3    H141338   3.308   3.625   0.412 -0.2076 -0.8751 -0.1529
 6593TIP3    H241339   3.404   3.733   0.457 -1.6703  1.3065 -2.0709
 6594TIP3   OH241340   2.506   2.500   7.382  0.1218 -0.4668 -0.0954
 6594TIP3    H141341   2.419   2.497   7.421  0.6193 -2.4862  0.9715
 6594TIP3    H241342   2.562   2.535   7.451  0.3081  0.0408 -0.4960
 6595TIP3   OH241343   5.329   0.083   0.547 -0.3710  0.6066 -0.0599
 6595TIP3    H141344   5.368   0.064   0.461  0.2701 -0.1528  0.3833
 6595TIP3    H241345   5.403   0.080   0.608 -1.1733 -1.5672  0.9088
 6596TIP3   OH241346   0.832   5.140   8.079 -0.3664 -0.2078  0.2713
 6596TIP3    H141347   0.857   5.169   8.166 -0.3288 -0.8961  0.4997
 6596TIP3    H241348   0.914   5.114   8.037 -0.4434 -0.3891  0.2290
 6597TIP3   OH241349   0.713   2.710   6.770 -0.5261 -0.0209  0.0597
 6597TIP3    H141350   0.696   2.639   6.708  1.4127 -0.0969 -0.4541
 6597TIP3    H241351   0.734   2.785   6.716  0.0809  0.2121  0.6021
 6598TIP3   OH241352   4.777   3.117   0.943  0.4982 -0.4640 -0.1591
 6598TIP3    H141353   4.803   3.205   0.917  0.2569 -0.2239  0.3976
 6598TIP3    H241354   4.687   3.127   0.974  0.7457 -0.7539  0.6650
 6599TIP3   OH241355   0.675   2.973   7.024 -0.4991 -0.1469 -0.0455
 6599TIP3    H141356   0.620   2.901   7.055 -0.1111 -0.9971 -1.2420
 6599TIP3    H241357   0.681   2.959   6.929  1.5696  0.0795  0.0131
 6600TIP3   OH241358   0.029   1.248   8.166  0.1452  0.2946  0.0212
 6600TIP3    H141359  -0.015   1.191   8.102  0.4399 -0.9104  0.8568
 6600TIP3    H241360   0.012   1.206   8.251 -1.4363  2.5956  0.9429
 6601TIP3   OH241361   3.968   2.955   1.152  0.0736 -0.0728  0.0209
 6601TIP3    H141362   3.963   2.871   1.107  1.8036  0.1651 -0.7248
 6601TIP3    H241363   4.022   3.009   1.094 -0.0833  1.1936  1.0225
 6602TIP3   OH241364   1.255   1.787   6.781 -0.4554 -0.0010  0.3017
 6602TIP3    H141365   1.180   1.804   6.725 -1.7687 -1.7190  1.4285
 6602TIP3    H241366   1.325   1.762   6.720 -1.7892 -1.6824 -0.6386
 6603TIP3   OH241367   1.191   2.830   0.080 -0.1814 -0.0351 -0.6264
 6603TIP3    H141368   1.202   2.741   0.113  0.0103 -0.3406 -1.4844
 6603TIP3    H241369   1.099   2.837   0.057 -0.1430 -0.1046 -0.8052
 6604TIP3   OH241370   4.509   4.182   2.166  0.3145 -0.1923  0.3323
 6604TIP3    H141371   4.538   4.176   2.257 -0.7194  0.3741  0.7194
 6604TIP3    H241372   4.526   4.273   2.141  3.3360 -1.0024 -1.0560
 6605TIP3   OH241373   1.205   4.455   0.353  0.8266  0.2563  0.5214
 6605TIP3    H141374   1.257   4.499   0.286  0.7664  0.7330  0.7826
 6605TIP3    H241375   1.126   4.508   0.360  0.0501 -0.7545 -0.2541
 6606TIP3   OH241376   4.490   0.383   0.234 -0.2166 -0.1841 -0.5637
 6606TIP3    H141377   4.485   0.289   0.255  0.9586 -0.3208 -0.8105
 6606TIP3    H241378   4.465   0.427   0.315  1.8170 -0.7307  0.4406
 6607TIP3   OH241379   6.051   1.261   7.664  0.3926 -0.2391  0.0795
 6607TIP3    H141380   6.107   1.211   7.604 -0.4825 -1.1073 -0.0608
 6607TIP3    H241381   5.998   1.194   7.707 -0.9992  0.5762 -0.2934
 6608TIP3   OH241382   2.603   1.456   6.716 -0.9600  0.0655 -0.0241
 6608TIP3    H141383   2.552   1.536   6.702 -1.1923 -0.1951 -0.6786
 6608TIP3    H241384   2.661   1.451   6.640 -0.2165  0.1590  0.5272
 6609TIP3   OH241385   3.645   5.709   7.301  0.2391  0.1487 -0.0421
 6609TIP3    H141386   3.580   5.732   7.367 -2.2679 -1.3044 -1.8062
 6609TIP3    H241387   3.724   5.688   7.351 -0.7192  1.5676  2.2447
 6610TIP3   OH241388   6.244   1.175   7.433  0.2126  0.0359 -0.2332
 6610TIP3    H141389   6.290   1.113   7.489 -0.3300  0.2525  0.4692
 6610TIP3    H241390   6.184   1.121   7.381 -0.7585  0.0256  0.8720
 6611TIP3   OH241391   1.223   5.838   8.336  0.1698 -0.0665  0.9833
 6611TIP3    H141392   1.275   5.899   8.388  0.3712 -0.3317  1.0969
 6611TIP3    H241393   1.270   5.833   8.252 -1.2379  1.9281 -0.0246
 6612TIP3   OH241394   4.367   0.674   1.331 -0.2858 -0.5733  0.0031
 6612TIP3    H141395   4.344   0.607   1.267 -2.1146 -0.6970  0.7148
 6612TIP3    H241396   4.336   0.756   1.291  1.5374 -0.1705 -0.6681
 6613TIP3   OH241397   0.032   1.993   1.550  0.3992  0.9096  0.1021
 6613TIP3    H141398   0.057   1.944   1.628  1.7325  0.8425 -0.3357
 6613TIP3    H241399  -0.062   2.006   1.558  0.1710 -0.8854  0.7043
 6614TIP3   OH241400   4.116   3.885   0.513  0.6265 -0.2609 -0.2191
 6614TIP3    H141401   4.040   3.829   0.529 -0.5466  1.3984  0.2368
 6614TIP3    H241402   4.189   3.837   0.553 -0.5309 -0.9430  1.1886
 6615TIP3   OH241403   0.528   0.555   7.283  0.7170  0.5012 -0.3412
 6615TIP3    H141404   0.612   0.513   7.271  0.3837 -0.4427  0.5095
 6615TIP3    H241405   0.465   0.497   7.241  0.4354  1.0079 -0.6395
 6616TIP3   OH241406   3.279   6.560   0.576 -0.1784  0.0734  0.1588
 6616TIP3    H141407   3.272   6.537   0.668  2.8542 -1.5458  0.1100
 6616TIP3    H241408   3.210   6.508   0.533 -1.2568  0.4311  1.3810
 6617TIP3   OH241409   3.299   0.509   8.387 -0.4863 -0.0446  0.0323
 6617TIP3    H141410   3.280   0.474   8.474 -0.2791 -0.0522  0.0753
 6617TIP3    H241411   3.342   0.437   8.341 -3.6058 -1.2854 -1.2600
 6618TIP3   OH241412   0.358   1.432   7.688 -0.6837  0.0226  0.0193
 6618TIP3    H141413   0.339   1.406   7.597 -0.4748 -1.4464  0.3641
 6618TIP3    H241414   0.280   1.404   7.737 -0.8664  0.9557  0.2817
 6619TIP3   OH241415   0.541   4.773   0.052  0.3827 -0.5009  0.6727
 6619TIP3    H141416   0.589   4.690   0.053 -0.2036 -0.8645  2.4583
 6619TIP3    H241417   0.603   4.837   0.016  2.0905 -1.0307  2.5394
 6620TIP3   OH241418   0.047   2.120   7.556  0.6377 -0.3472 -0.3850
 6620TIP3    H141419   0.082   2.034   7.579 -1.0875 -0.7981  0.7618
 6620TIP3    H241420   0.089   2.142   7.473  1.2829 -2.1971 -0.5831
 6621TIP3   OH241421   4.621   3.198   7.490  0.1603 -0.0359  0.0905
 6621TIP3    H141422   4.630   3.274   7.434 -1.7102 -0.2720 -0.6017
 6621TIP3    H241423   4.534   3.162   7.469  0.7715 -2.0544  0.7574
 6622TIP3   OH241424   1.057   1.479   8.471  0.6447  0.3906  0.3109
 6622TIP3    H141425   0.965   1.456   8.457  1.1744 -0.6246 -1.8996
 6622TIP3    H241426   1.072   1.462   8.564 -1.3624  0.4735  0.6839
 6623TIP3   OH241427   5.993   0.254   1.186 -0.0995  0.3133 -0.5639
 6623TIP3    H141428   6.033   0.186   1.241 -1.2184 -0.8843 -1.1664
 6623TIP3    H241429   5.936   0.302   1.246 -0.4438 -0.2576 -0.4196
 6624TIP3   OH241430   6.618   0.758   1.838 -0.1295  0.0928  0.2846
 6624TIP3    H141431   6.547   0.813   1.803 -0.0550 -0.0549 -0.1081
 6624TIP3    H241432   6.594   0.669   1.812  0.4345  0.0931 -0.2633
 6625TIP3   OH241433   0.454   6.721   0.264  0.7960 -0.1629 -0.0420
 6625TIP3    H141434   0.507   6.721   0.344 -0.9417 -0.6072  1.1544
 6625TIP3    H241435   0.399   6.799   0.270  0.6693 -0.1807 -0.8288
 6626TIP3   OH241436   3.346   1.438   0.637  0.6020  0.0312  0.6781
 6626TIP3    H141437   3.305   1.418   0.553  0.5482 -0.4641  0.8163
 6626TIP3    H241438   3.440   1.446   0.618  0.7090 -1.0033  0.7168
 6627TIP3   OH241439   0.588   2.728   8.556 -0.4366 -0.1536  0.2939
 6627TIP3    H141440   0.621   2.667   8.490  0.8543 -0.5103  1.2041
 6627TIP3    H241441   0.576   2.811   8.510  0.2281 -0.4536 -0.4409
 6628TIP3   OH241442   5.162   2.025   7.426  0.1192  0.3470  0.5502
 6628TIP3    H141443   5.143   2.088   7.496  2.3386  0.2991  1.2523
 6628TIP3    H241444   5.076   1.990   7.402 -0.7789  0.8002  2.8324
 6629TIP3   OH241445   2.386   1.354   1.258 -0.1693  0.7642 -0.0448
 6629TIP3    H141446   2.355   1.441   1.233 -1.0296  0.6314  0.5279
 6629TIP3    H241447   2.347   1.295   1.194 -0.8311  0.6392  0.4597
 6630TIP3   OH241448   3.140   2.721   1.198 -0.4491  0.1976  0.3009
 6630TIP3    H141449   3.072   2.705   1.263 -1.2972 -0.2632 -0.6741
 6630TIP3    H241450   3.180   2.635   1.183 -0.7550  0.1654 -0.3306
 6631TIP3   OH241451   2.963   2.426   1.687  0.8441  0.4907 -1.1713
 6631TIP3    H141452   2.932   2.513   1.714  0.0411 -0.3128  0.6465
 6631TIP3    H241453   3.049   2.418   1.727  0.4067 -0.0137 -0.3217
 6632TIP3   OH241454   0.857   1.564   1.714 -0.2729  0.2401 -0.2639
 6632TIP3    H141455   0.923   1.508   1.754 -0.9496  0.3468  1.0262
 6632TIP3    H241456   0.781   1.507   1.700 -0.6019  0.5831  0.0962
 6633TIP3   OH241457   3.631   1.433   0.611 -0.6526 -0.3291 -0.1719
 6633TIP3    H141458   3.636   1.352   0.662  0.6502  0.0272  0.2970
 6633TIP3    H241459   3.685   1.417   0.534  2.4226  1.1197  1.4724
 6634TIP3   OH241460   6.152   0.455   0.908 -0.1501 -0.1085 -0.0068
 6634TIP3    H141461   6.193   0.440   0.993 -1.8923  0.9276  1.0578
 6634TIP3    H241462   6.063   0.481   0.928 -0.8720 -0.6572 -2.2027
 6635TIP3   OH241463   1.532   4.454   7.477  0.3283 -0.0203 -0.1754
 6635TIP3    H141464   1.503   4.538   7.513  0.6456  0.0845 -0.1625
 6635TIP3    H241465   1.571   4.409   7.551 -1.4957 -0.9618  0.2804
 6636TIP3   OH241466   4.587   4.151   8.232  0.2539 -0.5083 -0.5084
 6636TIP3    H141467   4.553   4.185   8.315  1.9698 -1.8044  0.7880
 6636TIP3    H241468   4.674   4.189   8.225  0.5877 -1.3680 -1.0965
 6637TIP3   OH241469   0.779   0.780   0.892 -0.0683  0.4352  0.4269
 6637TIP3    H141470   0.785   0.751   0.983 -2.2935 -2.4577 -0.1945
 6637TIP3    H241471   0.686   0.797   0.878  0.3272  1.6054 -1.1597
 6638TIP3   OH241472   6.044   0.455   7.287  0.1553 -0.0476  0.0796
 6638TIP3    H141473   6.012   0.370   7.317  0.8074 -0.7388 -1.1183
 6638TIP3    H241474   5.996   0.473   7.207 -0.1097  0.8189  0.4171
 6639TIP3   OH241475   0.219   5.381   1.587  0.3004 -0.6898  0.1077
 6639TIP3    H141476   0.144   5.421   1.631 -0.1141 -1.1954 -0.1201
 6639TIP3    H241477   0.225   5.428   1.504 -1.1010 -2.0131 -0.8093
 6640TIP3   OH241478   5.484   1.092   1.898 -0.7755  0.1205 -0.6765
 6640TIP3    H141479   5.511   1.154   1.965  0.7538  0.6986 -1.7675
 6640TIP3    H241480   5.514   1.007   1.929 -0.1663  0.3722 -0.5786
 6641TIP3   OH241481   2.507   0.029   8.062 -0.5474 -0.4689  0.0537
 6641TIP3    H141482   2.559  -0.049   8.083  0.8853  0.1850 -0.9515
 6641TIP3    H241483   2.527   0.048   7.971 -1.4873  0.6458  0.0548
 6642TIP3   OH241484   4.941   5.628   0.787  0.0411  0.1952 -0.0603
 6642TIP3    H141485   4.965   5.598   0.699 -0.5018 -0.2907 -0.0471
 6642TIP3    H241486   4.927   5.548   0.837 -1.7468  0.4331 -0.1143
 6643TIP3   OH241487   0.563   3.178   7.899  0.0712  0.3326 -0.4582
 6643TIP3    H141488   0.637   3.200   7.956  0.7982  0.2750 -1.3366
 6643TIP3    H241489   0.588   3.214   7.814 -0.3554 -0.7391 -1.0576
 6644TIP3   OH241490   6.574   0.192   2.444  0.4746 -0.4476  0.6129
 6644TIP3    H141491   6.528   0.126   2.496 -2.1684  0.5073 -0.2917
 6644TIP3    H241492   6.595   0.261   2.506  0.8803 -0.9814  1.0840
 6645TIP3   OH241493   2.401   4.014   1.780  0.5483 -0.5390  0.2888
 6645TIP3    H141494   2.481   3.963   1.784  2.2798  2.0414  1.0119
 6645TIP3    H241495   2.364   4.008   1.868 -0.0431 -1.6371 -0.0148
 6646TIP3   OH241496   2.693   5.950   8.221 -0.1931  0.1218 -0.0992
 6646TIP3    H141497   2.698   5.947   8.125 -1.2188 -0.4578 -0.1496
 6646TIP3    H241498   2.766   6.006   8.247 -0.0553  0.4981 -1.2367
 6647TIP3   OH241499   1.641   4.403   2.482 -0.5840  0.1910 -0.0554
 6647TIP3    H141500   1.704   4.458   2.528 -0.3097 -0.5919  0.5329
 6647TIP3    H241501   1.607   4.344   2.549 -1.3526  0.0689 -0.5364
 6648TIP3   OH241502   4.898   0.188   0.658 -0.0825 -0.1702 -0.2406
 6648TIP3    H141503   4.933   0.173   0.570 -1.6293 -2.8517 -0.5157
 6648TIP3    H241504   4.976   0.196   0.714  0.9712 -2.1223 -1.3371
 6649TIP3   OH241505   1.752   5.746   7.282 -0.3773 -0.4960  0.0107
 6649TIP3    H141506   1.823   5.682   7.288 -0.3729 -0.6160 -1.1379
 6649TIP3    H241507   1.733   5.752   7.189 -1.1157  0.3781  0.2041
 6650TIP3   OH241508   1.059   3.974   7.692 -0.0355  0.4088  0.6704
 6650TIP3    H141509   1.021   3.898   7.648 -0.5292  0.6000  0.7640
 6650TIP3    H241510   1.041   3.960   7.785 -1.3204  1.2834  0.5830
 6651TIP3   OH241511   1.197   4.540   8.180 -0.1188 -0.7514 -0.5801
 6651TIP3    H141512   1.264   4.553   8.247 -1.6506 -3.4954  1.6670
 6651TIP3    H241513   1.246   4.520   8.100  1.7292  0.4996  0.1713
 6652TIP3   OH241514   6.143   4.740   7.038  0.1819  0.0010  0.3077
 6652TIP3    H141515   6.153   4.666   6.979  0.6828 -1.4924  2.1385
 6652TIP3    H241516   6.050   4.741   7.061 -0.0227  0.6152 -0.5071
 6653TIP3   OH241517   0.441   6.414   2.952  0.2172  0.3625 -0.1251
 6653TIP3    H141518   0.430   6.328   2.911 -0.0203 -0.1592  1.0094
 6653TIP3    H241519   0.534   6.418   2.974  0.1370  0.1989  0.2465
 6654TIP3   OH241520   1.871   2.484   1.881  0.4849 -0.1596  0.0314
 6654TIP3    H141521   1.792   2.430   1.887  1.2997 -1.2390  2.1365
 6654TIP3    H241522   1.879   2.525   1.967  0.2045  2.9850 -1.3446
 6655TIP3   OH241523   2.284   3.479   6.859  0.4901 -0.2000 -0.2504
 6655TIP3    H141524   2.278   3.504   6.767 -1.3951  0.1239 -0.0659
 6655TIP3    H241525   2.219   3.410   6.870  2.4047 -2.0508  0.3252
 6656TIP3   OH241526   3.260   5.336   0.807 -0.5526 -0.1595 -0.3731
 6656TIP3    H141527   3.242   5.363   0.716  1.3085  0.5749 -0.5650
 6656TIP3    H241528   3.320   5.403   0.840  1.3504 -2.1176  0.3425
 6657TIP3   OH241529   0.852   0.282   6.874  0.0187 -0.3276 -0.0800
 6657TIP3    H141530   0.810   0.205   6.835 -0.7630  0.7032 -1.3727
 6657TIP3    H241531   0.792   0.354   6.856  0.4816  0.5268  1.5585
 6658TIP3   OH241532   6.443   1.753   6.735 -0.7586  0.1709  0.1725
 6658TIP3    H141533   6.396   1.834   6.753 -1.1231  0.3435 -1.4214
 6658TIP3    H241534   6.533   1.770   6.763 -1.3152  0.2919  2.0125
 6659TIP3   OH241535   1.396   4.421   1.815  0.3051  0.4182  0.0749
 6659TIP3    H141536   1.343   4.346   1.791 -1.0661  1.4316 -0.2152
 6659TIP3    H241537   1.438   4.397   1.897 -0.8664 -0.2938  0.4808
 6660TIP3   OH241538   3.735   4.129   1.242 -0.0434 -0.4732 -0.2340
 6660TIP3    H141539   3.743   4.210   1.193  0.1640 -0.5140 -0.2677
 6660TIP3    H241540   3.689   4.069   1.182  0.0893 -0.4810 -0.3284
 6661TIP3   OH241541   5.028   3.000   7.082 -0.2418  0.6190 -0.6704
 6661TIP3    H141542   5.036   2.907   7.062  0.1317  0.7826 -1.3192
 6661TIP3    H241543   4.935   3.013   7.102 -0.0103 -0.2065  1.1340
 6662TIP3   OH241544   6.329   0.465   0.714 -0.2809  0.1584  0.0534
 6662TIP3    H141545   6.415   0.501   0.736  0.4013 -0.9117 -0.7903
 6662TIP3    H241546   6.288   0.447   0.798  0.6080  0.0091  0.4621
 6663TIP3   OH241547   1.410   4.497   2.675  0.1126  0.2399 -0.1567
 6663TIP3    H141548   1.483   4.554   2.699 -0.5640  1.1281 -0.1659
 6663TIP3    H241549   1.333   4.554   2.677 -0.9841 -1.1769  2.2094
 6664TIP3   OH241550   2.841   3.487   8.468 -0.6016  0.3965  0.0564
 6664TIP3    H141551   2.848   3.525   8.381 -0.0524 -0.4433 -0.2812
 6664TIP3    H241552   2.748   3.469   8.480 -0.5092 -0.8704 -0.9741
 6665TIP3   OH241553   3.680   2.967   0.937  0.6508 -0.0171 -0.0323
 6665TIP3    H141554   3.734   3.046   0.943  0.6095 -0.0350  0.6691
 6665TIP3    H241555   3.743   2.895   0.942  0.6079 -0.0328  0.3556
 6666TIP3   OH241556   3.445   2.509   2.025 -0.7222 -0.1383 -0.6864
 6666TIP3    H141557   3.481   2.548   2.105 -1.7782 -0.9020  0.1866
 6666TIP3    H241558   3.396   2.581   1.984 -2.3010 -0.3594  0.6964
 6667TIP3   OH241559   2.035   2.249   0.790 -0.0866 -0.3733 -0.3116
 6667TIP3    H141560   2.048   2.207   0.705 -1.3555 -0.2501 -0.5959
 6667TIP3    H241561   2.053   2.342   0.774 -2.5261  0.0590 -1.0865
 6668TIP3   OH241562   1.087   5.593   8.333  0.2024 -0.6596  0.2987
 6668TIP3    H141563   1.163   5.564   8.284  0.3966  0.5774 -0.1678
 6668TIP3    H241564   1.105   5.685   8.354 -1.5287 -0.0433 -0.6457
 6669TIP3   OH241565   1.706   2.697   7.398 -0.1399 -0.8842 -0.2733
 6669TIP3    H141566   1.662   2.644   7.332 -0.2162 -0.8385 -0.2599
 6669TIP3    H241567   1.771   2.748   7.349  0.8826 -1.9785 -0.1084
 6670TIP3   OH241568   6.464   3.985   8.230  0.1599 -0.3275 -0.2194
 6670TIP3    H141569   6.485   3.903   8.275  1.5960 -0.2251 -0.6559
 6670TIP3    H241570   6.544   4.008   8.183 -0.7032  0.5614 -1.3044
 6671TIP3   OH241571   5.646   3.307   0.075 -0.1172  0.5231 -0.7081
 6671TIP3    H141572   5.581   3.245   0.110 -0.1921  1.7010  1.3906
 6671TIP3    H241573   5.675   3.267  -0.006  0.2976 -2.6245  0.8368
 6672TIP3   OH241574   3.779   6.226   0.174 -0.2694  0.0451  0.7653
 6672TIP3    H141575   3.726   6.248   0.098  0.0639 -0.2285  0.4537
 6672TIP3    H241576   3.799   6.310   0.215 -0.6587  0.1745  0.6931
 6673TIP3   OH241577   1.990   4.584   2.041  0.0358  0.4961  0.3053
 6673TIP3    H141578   2.023   4.550   2.124  0.0253  0.6265  0.3626
 6673TIP3    H241579   2.050   4.655   2.018  0.9369 -0.4997 -0.5500
 6674TIP3   OH241580   3.964   4.955   0.146 -0.2998 -1.0681  0.7893
 6674TIP3    H141581   3.958   4.932   0.053  1.8407 -1.2929  0.6624
 6674TIP3    H241582   3.873   4.972   0.172 -0.9003 -0.4618 -1.4589
 6675TIP3   OH241583   4.922   0.128   8.396 -0.2015 -0.2334 -0.5431
 6675TIP3    H141584   4.840   0.176   8.406  0.7471  1.4930 -0.6148
 6675TIP3    H241585   4.916   0.057   8.460 -1.9907 -0.5349 -0.9813
 6676TIP3   OH241586   0.114   2.478   6.945 -0.1130  0.1604  0.5662
 6676TIP3    H141587   0.062   2.541   6.896 -2.1976 -0.6923  1.5484
 6676TIP3    H241588   0.083   2.485   7.035  2.1213  0.1941  1.3945
 6677TIP3   OH241589   3.542   0.785   8.508 -0.6304  0.0550  0.4222
 6677TIP3    H141590   3.561   0.691   8.518 -3.4273 -0.6173  0.4135
 6677TIP3    H241591   3.594   0.827   8.576  0.4333 -1.5385  0.6608
 6678TIP3   OH241592   3.653   0.315   1.121  0.3370 -0.2868 -0.4070
 6678TIP3    H141593   3.633   0.305   1.028  0.9859  0.1525 -0.6006
 6678TIP3    H241594   3.567   0.320   1.164  0.0034 -2.0565 -0.7880
 6679TIP3   OH241595   0.732   1.878   2.738  0.1201 -0.4904  0.1133
 6679TIP3    H141596   0.802   1.855   2.799  0.9969 -0.3444 -0.8067
 6679TIP3    H241597   0.778   1.911   2.660 -0.9792 -0.1545 -0.4166
 6680TIP3   OH241598   1.061   0.408   0.564 -0.6690 -0.0546 -0.6284
 6680TIP3    H141599   1.141   0.455   0.588 -1.9470  0.9458  2.1409
 6680TIP3    H241600   1.043   0.435   0.474  1.9058 -0.1101 -1.2432
 6681TIP3   OH241601   6.895   5.703   6.831 -0.3440 -0.0398 -0.1526
 6681TIP3    H141602   6.803   5.682   6.812  0.1627  1.0967 -5.2394
 6681TIP3    H241603   6.943   5.624   6.805  0.2751  0.6117 -1.0609
 6682TIP3   OH241604   5.814   4.937   0.925 -0.5682  0.2583 -0.3185
 6682TIP3    H141605   5.787   5.016   0.878 -0.3879  2.1183  2.4459
 6682TIP3    H241606   5.903   4.920   0.896 -1.9491 -1.5912 -4.0842
 6683TIP3   OH241607   1.693   4.126   1.661 -0.4188 -0.3902  0.3269
 6683TIP3    H141608   1.601   4.113   1.683 -1.3300  2.6178 -1.1188
 6683TIP3    H241609   1.697   4.114   1.566  0.5527  0.0877  0.2951
 6684TIP3   OH241610   5.906   2.146   2.569  0.1736  0.0145  0.1762
 6684TIP3    H141611   5.990   2.188   2.548 -0.4003 -0.2407 -3.3085
 6684TIP3    H241612   5.914   2.058   2.533 -1.5713  0.0174 -0.3204
 6685TIP3   OH241613   2.982   5.328   0.196  0.2177 -0.3111 -0.5296
 6685TIP3    H141614   3.011   5.408   0.240  0.4815  0.2678 -1.7115
 6685TIP3    H241615   2.924   5.285   0.259  1.2020  0.0814  0.6760
 6686TIP3   OH241616   3.344   5.117   7.347  0.5008 -1.0735 -0.0652
 6686TIP3    H141617   3.250   5.107   7.331  0.5692 -3.0304  0.5109
 6686TIP3    H241618   3.384   5.103   7.261  0.2273  1.8268 -0.7630
 6687TIP3   OH241619   1.934   6.685   0.720  0.3165  0.4996 -0.6860
 6687TIP3    H141620   2.016   6.691   0.768 -0.5948 -0.1869  1.0590
 6687TIP3    H241621   1.939   6.601   0.676 -0.3730 -0.7015  1.3726
 6688TIP3   OH241622   2.864   2.457   2.547 -0.4015  0.0945  0.4408
 6688TIP3    H141623   2.874   2.378   2.494 -1.5346  0.3148 -0.1325
 6688TIP3    H241624   2.929   2.447   2.617  1.2029 -0.1597 -1.0204
 6689TIP3   OH241625   6.174   1.602   2.145 -0.2058  0.0462  0.1908
 6689TIP3    H141626   6.216   1.516   2.152  1.4808  0.8907  0.9706
 6689TIP3    H241627   6.097   1.595   2.202  0.5330 -0.6146  1.1549
 6690TIP3   OH241628   3.373   2.381   2.376  0.1398 -0.1451  0.0505
 6690TIP3    H141629   3.457   2.378   2.329  0.9804 -2.0399  1.5216
 6690TIP3    H241630   3.373   2.302   2.430 -0.5448  2.0112  3.5306
 6691TIP3   OH241631   1.288   5.807   1.902 -0.1554  0.6490  0.4190
 6691TIP3    H141632   1.289   5.903   1.907 -1.3998  0.8906 -2.1824
 6691TIP3    H241633   1.359   5.786   1.841 -0.3240 -0.0075  0.4420
 6692TIP3   OH241634   4.982   6.035   1.556 -0.8174  0.0147  0.0495
 6692TIP3    H141635   5.064   5.985   1.551 -0.0114  1.3570 -0.9881
 6692TIP3    H241636   4.931   6.005   1.481 -1.4952 -1.1271  0.9341
 6693TIP3   OH241637   5.472   5.267   0.501  0.3719  0.4960  0.4425
 6693TIP3    H141638   5.499   5.334   0.563  0.0533  0.4928  0.5894
 6693TIP3    H241639   5.507   5.186   0.536  0.6002  0.5584  0.3624
 6694TIP3   OH241640   2.324   0.131   7.775  1.1112  0.1398 -0.0178
 6694TIP3    H141641   2.295   0.191   7.706 -1.2456  0.0809  0.8207
 6694TIP3    H241642   2.291   0.170   7.856  0.0725 -1.9205  0.6209
 6695TIP3   OH241643   3.108   2.146   0.713  0.0094  0.1933 -0.2628
 6695TIP3    H141644   3.145   2.075   0.765 -0.1712 -0.0166 -0.4181
 6695TIP3    H241645   3.182   2.180   0.662  0.4280  1.1010  0.8964
 6696TIP3   OH241646   2.922   6.401   1.297  0.1328  0.4704 -0.4186
 6696TIP3    H141647   2.897   6.472   1.356  1.7848  1.4449 -0.8299
 6696TIP3    H241648   2.982   6.348   1.348  1.1627  1.0270 -1.0227
 6697TIP3   OH241649   4.174   4.216   7.981 -0.1509 -0.0447 -0.6304
 6697TIP3    H141650   4.101   4.176   8.028 -1.3814  1.0354 -1.5538
 6697TIP3    H241651   4.225   4.260   8.049 -0.1439 -1.1056  0.0698
 6698TIP3   OH241652   4.546   0.903   7.760  0.1156 -0.4735  0.0788
 6698TIP3    H141653   4.593   0.852   7.693 -0.2826  0.2581 -0.7809
 6698TIP3    H241654   4.548   0.993   7.727  1.2541  0.1918  1.8304
 6699TIP3   OH241655   3.038   3.514   0.540  0.6698 -0.1827  0.4931
 6699TIP3    H141656   2.979   3.444   0.512 -0.5028  0.9846 -0.0765
 6699TIP3    H241657   3.056   3.563   0.459  0.4973  0.8665  1.0700
 6700TIP3   OH241658   4.783   4.701   0.316 -0.1170  0.0699  0.0376
 6700TIP3    H141659   4.755   4.737   0.401  0.4207 -0.1322  0.3066
 6700TIP3    H241660   4.828   4.774   0.273  2.1594 -0.6144  1.1426
 6701TIP3   OH241661   0.640   3.812   0.781  0.2427 -0.3002  0.7889
 6701TIP3    H141662   0.646   3.721   0.752  0.0794 -0.5697  1.5697
 6701TIP3    H241663   0.556   3.842   0.746  0.1648 -0.5413  0.7615
 6702TIP3   OH241664   3.065   3.425   7.663  0.0537 -0.1289 -0.7145
 6702TIP3    H141665   3.124   3.439   7.588  0.3342  0.0717 -0.4582
 6702TIP3    H241666   3.020   3.343   7.642  0.3045 -0.2005 -0.9926
 6703TIP3   OH241667   4.786   5.034   7.290 -0.3619  0.3523 -0.1483
 6703TIP3    H141668   4.826   4.947   7.290  0.6198  0.7551  1.4881
 6703TIP3    H241669   4.743   5.041   7.205  0.3367 -1.3594 -0.6858
 6704TIP3   OH241670   5.958   2.232   1.080 -0.3244 -0.4682  0.2722
 6704TIP3    H141671   5.920   2.216   1.166 -0.5633 -0.4096  0.1771
 6704TIP3    H241672   6.052   2.216   1.092 -0.1137  1.1426  0.9479
 6705TIP3   OH241673   2.120   3.037   7.841 -0.2609  0.2266 -0.1282
 6705TIP3    H141674   2.136   3.083   7.758 -1.0542 -3.9040 -2.8783
 6705TIP3    H241675   2.046   3.083   7.880 -1.2972  1.1031 -2.8665
 6706TIP3   OH241676   0.719   2.443   2.300 -0.2725  0.0149 -0.3285
 6706TIP3    H141677   0.771   2.500   2.243 -0.2065 -1.0365 -1.3623
 6706TIP3    H241678   0.649   2.499   2.333  0.1984  0.8676 -0.7350
 6707TIP3   OH241679   1.850   0.785   0.085 -0.0635 -0.4329 -0.0974
 6707TIP3    H141680   1.927   0.843   0.087 -0.0368 -0.4183 -0.9393
 6707TIP3    H241681   1.792   0.825   0.019 -0.6386 -0.6356  0.2805
 6708TIP3   OH241682   4.312   6.914   7.533 -0.1255  0.3947 -0.2682
 6708TIP3    H141683   4.357   6.846   7.483  0.0937  1.3045 -1.3598
 6708TIP3    H241684   4.330   6.893   7.625 -2.3249 -2.6088 -0.3561
 6709TIP3   OH241685   4.096   4.485   7.820  0.5799 -0.2054 -0.0402
 6709TIP3    H141686   4.127   4.422   7.755 -0.5645 -0.5451 -0.2723
 6709TIP3    H241687   4.022   4.529   7.777  1.1032  1.0276  0.2623
 6710TIP3   OH241688   3.732   1.837   1.900 -0.2243  0.3218 -0.5469
 6710TIP3    H141689   3.694   1.750   1.898  0.3325  0.0876 -1.8110
 6710TIP3    H241690   3.720   1.867   1.990 -1.0131 -0.7857 -0.2728
 6711TIP3   OH241691   3.089   1.377   1.667 -0.0712 -0.3793 -0.0606
 6711TIP3    H141692   3.136   1.431   1.603 -0.2562  0.3434  0.4041
 6711TIP3    H241693   3.148   1.303   1.684 -0.1140 -0.7058 -1.2250
 6712TIP3   OH241694   5.037   6.678   6.983  0.6344  0.3413  0.1478
 6712TIP3    H141695   5.084   6.633   6.913  2.0555  0.6225  0.8980
 6712TIP3    H241696   5.094   6.671   7.059 -0.4586  0.8587  1.0408
 6713TIP3   OH241697   6.391   4.844   0.626 -0.1264  0.0564 -0.1131
 6713TIP3    H141698   6.352   4.845   0.713 -3.2022  0.4118 -1.3896
 6713TIP3    H241699   6.437   4.928   0.620  0.7969 -0.2958  1.3688
 6714TIP3   OH241700   1.431   6.899   8.374 -0.1046 -0.2347 -0.2543
 6714TIP3    H141701   1.472   6.814   8.388  0.5089  0.0710 -0.1836
 6714TIP3    H241702   1.341   6.878   8.348 -0.1684 -0.8876  0.4497
 6715TIP3   OH241703   1.475   4.803   8.539  0.0891  0.1249 -0.2395
 6715TIP3    H141704   1.495   4.879   8.484  0.3750  0.2329  0.0100
 6715TIP3    H241705   1.493   4.832   8.628 -0.0317 -0.1602 -0.1195
 6716TIP3   OH241706   3.507   5.345   0.419  0.0474  0.4334  0.2336
 6716TIP3    H141707   3.530   5.433   0.449 -0.4345 -0.0551  2.1611
 6716TIP3    H241708   3.475   5.358   0.329  1.3797  1.9985 -0.0607
 6717TIP3   OH241709   5.542   2.117   7.560  0.0983 -0.1123 -0.5516
 6717TIP3    H141710   5.587   2.182   7.614 -1.2755 -0.0920  0.6439
 6717TIP3    H241711   5.598   2.039   7.565 -1.0680 -0.9144  2.9774
 6718TIP3   OH241712   4.626   3.968   8.478 -0.2263 -0.1852 -0.2199
 6718TIP3    H141713   4.558   3.929   8.423  0.3659 -0.8221 -0.5133
 6718TIP3    H241714   4.645   3.901   8.543  1.4513 -0.8155 -1.2760
 6719TIP3   OH241715   6.343   1.584   1.791 -0.1208 -0.4496 -0.3899
 6719TIP3    H141716   6.370   1.496   1.767  0.4589 -0.5515  0.5863
 6719TIP3    H241717   6.387   1.601   1.874  1.1642  1.4070 -1.3913
 6720TIP3   OH241718   5.089   6.612   1.496 -0.3225  0.0602  0.1671
 6720TIP3    H141719   5.062   6.701   1.517 -0.6658 -0.0343  0.1239
 6720TIP3    H241720   5.016   6.575   1.445 -0.5014 -0.4879  0.8084
 6721TIP3   OH241721   1.423   2.962   7.780 -0.1839 -0.5712  0.0409
 6721TIP3    H141722   1.479   2.947   7.857  0.8429 -1.1314 -0.7976
 6721TIP3    H241723   1.482   2.951   7.705 -0.8899  1.2000 -0.8066
 6722TIP3   OH241724   6.218   0.861   7.324  0.0085  0.0702 -0.2215
 6722TIP3    H141725   6.294   0.849   7.268 -1.5041  1.1379 -2.6821
 6722TIP3    H241726   6.147   0.817   7.278 -1.5546  1.9382  0.2409
 6723TIP3   OH241727   0.347   2.984   2.322 -0.2929 -0.3299  0.0527
 6723TIP3    H141728   0.344   2.904   2.375 -0.6135  0.0145  0.5634
 6723TIP3    H241729   0.431   3.025   2.346 -0.8655  0.3086  1.0257
 6724TIP3   OH241730   4.553   2.794   7.515  0.8532  0.5385 -0.2084
 6724TIP3    H141731   4.643   2.774   7.488  0.6163  0.0040 -0.6278
 6724TIP3    H241732   4.501   2.781   7.436  0.4060  0.8322  0.0372
 6725TIP3   OH241733   6.529   4.031   1.157  0.0611  0.3335 -0.4725
 6725TIP3    H141734   6.529   4.050   1.063  2.8949 -0.1031 -0.6566
 6725TIP3    H241735   6.621   4.027   1.181 -0.4839 -2.4118  1.7506
 6726TIP3   OH241736   5.798   2.283   7.474  0.2861 -0.0335  0.6952
 6726TIP3    H141737   5.740   2.274   7.550 -0.1651 -0.8437  0.2650
 6726TIP3    H241738   5.829   2.373   7.478 -0.6171  0.2652  1.2099
 6727TIP3   OH241739   1.627   5.046   2.873 -0.7126 -0.1844 -0.1208
 6727TIP3    H141740   1.634   5.139   2.850 -0.3791 -0.4626 -1.1912
 6727TIP3    H241741   1.703   5.029   2.929 -0.6446  0.1335 -0.1165
 6728TIP3   OH241742   3.016   6.826   0.029  0.0582 -0.5844  0.5653
 6728TIP3    H141743   2.978   6.859  -0.053  2.9093 -1.4706 -1.2600
 6728TIP3    H241744   3.009   6.900   0.089 -2.0739  0.1219 -0.4333
 6729TIP3   OH241745   3.798   6.503   8.357  0.1834  0.8494  0.8145
 6729TIP3    H141746   3.753   6.438   8.411 -1.1829  0.4503 -0.7284
 6729TIP3    H241747   3.859   6.452   8.304  0.2591  1.0173  0.7398
 6730TIP3   OH241748   5.888   5.804   8.388 -0.1269 -0.6669 -0.0722
 6730TIP3    H141749   5.926   5.723   8.356  0.5171 -0.5254  0.3252
 6730TIP3    H241750   5.921   5.871   8.328  0.8727 -0.4378  0.7066
 6731TIP3   OH241751   1.399   4.596   8.362 -0.6964 -0.7741  0.4186
 6731TIP3    H141752   1.436   4.653   8.429 -1.7453 -0.4342  0.7325
 6731TIP3    H241753   1.438   4.626   8.280  0.6472 -1.2394  0.8719
 6732TIP3   OH241754   3.226   2.166   0.136  0.2565 -0.3191 -0.4810
 6732TIP3    H141755   3.240   2.252   0.095  0.6146 -0.7988 -1.3954
 6732TIP3    H241756   3.207   2.107   0.062  2.7534 -1.6085 -0.1938
 6733TIP3   OH241757   4.035   5.872   6.605  0.1103  0.9537  0.0755
 6733TIP3    H141758   3.984   5.806   6.652 -1.4559  1.2347 -1.1459
 6733TIP3    H241759   4.038   5.947   6.665 -0.9684  0.9336  0.1801
 6734TIP3   OH241760   6.532   1.661   7.090  0.6766  0.0807  0.5076
 6734TIP3    H141761   6.599   1.699   7.034  0.0759  0.1242 -0.2006
 6734TIP3    H241762   6.527   1.720   7.165  1.6159 -0.0749  0.7051
 6735TIP3   OH241763   0.410   3.790   8.014 -0.2312  0.1498 -0.3442
 6735TIP3    H141764   0.438   3.795   8.105  0.4914  0.1788 -0.5587
 6735TIP3    H241765   0.362   3.871   7.998  1.4722  1.1585 -0.5748
 6736TIP3   OH241766   4.042   0.383   0.234 -0.3183 -0.2903 -0.7630
 6736TIP3    H141767   4.037   0.446   0.163 -1.1670  0.9015  0.3148
 6736TIP3    H241768   3.951   0.366   0.259 -0.0291  0.5516  1.0586
 6737TIP3   OH241769   3.153   3.858   1.567  0.2801  0.2974 -0.3274
 6737TIP3    H141770   3.097   3.846   1.644  1.0440 -1.0651  0.0429
 6737TIP3    H241771   3.131   3.784   1.510  0.2062  0.9243 -1.1262
 6738TIP3   OH241772   1.700   5.111   7.176 -0.1428  0.0495  0.6199
 6738TIP3    H141773   1.653   5.082   7.098 -1.0682 -1.2073  1.6078
 6738TIP3    H241774   1.767   5.044   7.190 -0.3839 -0.0627  1.2537
 6739TIP3   OH241775   4.488   2.717   7.247  0.0325  0.8288 -0.0939
 6739TIP3    H141776   4.536   2.727   7.165 -2.4001  0.3196 -1.6718
 6739TIP3    H241777   4.470   2.624   7.253 -0.3526  0.9476  0.7016
 6740TIP3   OH241778   3.737   1.577   7.018  0.4890  0.1671 -0.3498
 6740TIP3    H141779   3.647   1.569   6.984 -0.7534  1.3238  2.3618
 6740TIP3    H241780   3.785   1.619   6.948 -1.2993  0.2713 -1.5939
 6741TIP3   OH241781   3.574   4.805   0.731  0.5523  0.5073 -0.3883
 6741TIP3    H141782   3.635   4.877   0.714  0.1317  1.3317  1.3987
 6741TIP3    H241783   3.563   4.763   0.646  3.9881 -0.0086 -0.7032
 6742TIP3   OH241784   2.672   1.772   6.466  0.1187  0.3916 -0.0366
 6742TIP3    H141785   2.709   1.710   6.403  0.6723  0.9872 -0.3000
 6742TIP3    H241786   2.700   1.858   6.435  0.1187  0.7164  0.8363
 6743TIP3   OH241787   5.624   4.746   2.122  0.0225 -0.3273  0.1523
 6743TIP3    H141788   5.601   4.709   2.207 -2.0323  3.2090  1.3458
 6743TIP3    H241789   5.543   4.739   2.071  0.2056  0.6163 -0.2783
 6744TIP3   OH241790   0.069   6.451   0.084  0.0202 -0.4812 -0.0059
 6744TIP3    H141791   0.153   6.467   0.128 -1.0982  1.5366  1.5502
 6744TIP3    H241792   0.018   6.401   0.147 -1.4799  2.1397  1.0084
 6745TIP3   OH241793   5.626   5.229   1.176 -0.2158  0.4813  0.3834
 6745TIP3    H141794   5.569   5.204   1.248 -1.1134 -1.9979 -1.0396
 6745TIP3    H241795   5.567   5.235   1.100  1.1254 -0.4219 -0.7886
 6746TIP3   OH241796   6.501   3.578   8.243  0.1644  0.6692  0.1595
 6746TIP3    H141797   6.454   3.496   8.262 -1.0155  1.2923 -0.0231
 6746TIP3    H241798   6.469   3.640   8.308  1.0704  0.9995  0.3072
 6747TIP3   OH241799   0.451   3.235   0.618 -0.0213  0.2220  0.2180
 6747TIP3    H141800   0.512   3.164   0.599 -1.2163 -1.2967  1.7963
 6747TIP3    H241801   0.453   3.244   0.713 -0.6225  1.6596  0.1240
 6748TIP3   OH241802   4.977   5.654   1.604 -0.0502  0.3158 -0.3500
 6748TIP3    H141803   5.027   5.708   1.666  1.4640 -1.1823 -0.1927
 6748TIP3    H241804   4.995   5.693   1.518 -0.5360  1.1916 -0.0682
 6749TIP3   OH241805   3.249   1.958   6.713  0.2488  0.6041  0.1727
 6749TIP3    H141806   3.314   1.891   6.733  0.7374  0.8768 -0.4833
 6749TIP3    H241807   3.292   2.015   6.649 -0.4329  1.1068  0.1572
 6750TIP3   OH241808   6.767   3.671   0.526  0.0655 -0.4846 -0.5906
 6750TIP3    H141809   6.697   3.656   0.463 -1.6595  3.5942  0.0433
 6750TIP3    H241810   6.833   3.721   0.477  0.4805 -0.4760 -0.0342
 6751TIP3   OH241811   1.733   2.514   8.191 -0.4930 -0.2776 -0.0869
 6751TIP3    H141812   1.731   2.422   8.219 -2.3699 -0.2499 -0.0426
 6751TIP3    H241813   1.812   2.549   8.233 -0.1053 -1.6933  0.4491
 6752TIP3   OH241814   6.436   0.081   7.651 -0.3349  0.0725 -0.4457
 6752TIP3    H141815   6.526   0.049   7.650  0.1356  1.3662 -0.7497
 6752TIP3    H241816   6.392   0.027   7.717  0.6942 -0.4369 -0.1605
 6753TIP3   OH241817   0.839   3.789   0.571  0.0768  0.3038 -0.1499
 6753TIP3    H141818   0.757   3.823   0.606 -0.4386 -0.7535 -0.3003
 6753TIP3    H241819   0.896   3.781   0.648 -0.5135 -0.5040  0.2152
 6754TIP3   OH241820   5.230   5.492   1.276 -0.1330  0.0032  0.1110
 6754TIP3    H141821   5.207   5.404   1.246 -3.0576  0.9995 -0.8938
 6754TIP3    H241822   5.215   5.490   1.370  1.2733 -0.9260  0.3503
 6755TIP3   OH241823   2.108   3.114   2.017 -0.5529  0.3055  0.2849
 6755TIP3    H141824   2.019   3.091   2.043 -0.5515  1.0678  1.0278
 6755TIP3    H241825   2.130   3.189   2.073 -0.1105  1.2872 -1.1719
 6756TIP3   OH241826   0.536   5.490   2.115  0.0988 -0.5492 -0.0242
 6756TIP3    H141827   0.460   5.495   2.173  0.2741 -0.0433  0.1663
 6756TIP3    H241828   0.603   5.447   2.167  0.2650 -0.0697  0.1603
 6757TIP3   OH241829   3.339   1.309   1.853 -0.5038 -0.2967 -0.4919
 6757TIP3    H141830   3.396   1.275   1.784 -0.8053  0.9720 -1.3914
 6757TIP3    H241831   3.307   1.393   1.819 -2.8514 -0.9195 -0.0069
 6758TIP3   OH241832   2.981   1.840   1.053 -0.2652 -0.0648 -0.2503
 6758TIP3    H141833   2.943   1.784   1.120 -0.4216  0.4658  0.1178
 6758TIP3    H241834   2.907   1.888   1.016 -0.0070  0.7430  0.2538
 6759TIP3   OH241835   1.813   4.190   0.673 -0.4629  0.0225 -0.2673
 6759TIP3    H141836   1.853   4.255   0.615  1.4104  0.2724  1.2215
 6759TIP3    H241837   1.776   4.241   0.745  1.3531 -0.4974  1.1080
 6760TIP3   OH241838   6.098   0.697   2.275  0.0425 -0.5529 -0.0042
 6760TIP3    H141839   6.157   0.765   2.308 -0.4629 -0.7326  1.3173
 6760TIP3    H241840   6.014   0.715   2.316 -0.2448 -1.6551 -0.0698
 6761TIP3   OH241841   0.554   2.953   8.368  0.3407 -0.1116  0.1345
 6761TIP3    H141842   0.538   3.004   8.288  2.4598 -0.4653 -0.5657
 6761TIP3    H241843   0.599   3.014   8.427  0.8736 -0.5277  0.1615
 6762TIP3   OH241844   0.450   2.371   0.045 -0.0877 -0.5498 -0.1566
 6762TIP3    H141845   0.412   2.447   0.090 -1.6295 -0.8027 -0.9694
 6762TIP3    H241846   0.422   2.296   0.096  0.3712 -0.6739 -0.0783
 6763TIP3   OH241847   1.507   1.941   1.669  0.0672 -0.2533 -0.6256
 6763TIP3    H141848   1.602   1.947   1.664  0.1850 -1.6104 -0.4074
 6763TIP3    H241849   1.476   2.029   1.648  1.3981  0.4805  0.3665
 6764TIP3   OH241850   5.953   4.622   2.405  0.7596  0.3121  0.2058
 6764TIP3    H141851   5.942   4.641   2.312 -1.6942 -0.3311  0.3013
 6764TIP3    H241852   6.015   4.688   2.436  0.8767  1.1390 -1.6851
 6765TIP3   OH241853   2.016   6.396   1.373  0.2456 -0.8248  0.4255
 6765TIP3    H141854   2.047   6.352   1.452 -0.2388 -2.3430 -0.1932
 6765TIP3    H241855   1.942   6.450   1.403  0.3645 -1.0181  1.0838
 6766TIP3   OH241856   6.252   3.119   2.107  0.2940  0.3271  0.3414
 6766TIP3    H141857   6.259   3.213   2.089  1.2213  0.0590 -0.8426
 6766TIP3    H241858   6.340   3.093   2.134 -0.2364 -0.0010  1.8462
 6767TIP3   OH241859   2.445   0.153   8.529  0.2440  0.5409  0.7393
 6767TIP3    H141860   2.410   0.081   8.477 -0.6545  1.4906 -0.0231
 6767TIP3    H241861   2.369   0.188   8.575  0.5707  1.3283  0.6935
 6768TIP3   OH241862   0.718   4.386   0.393  0.5037  0.1533  0.2028
 6768TIP3    H141863   0.691   4.298   0.423  0.9647 -0.0699 -0.0353
 6768TIP3    H241864   0.638   4.438   0.398  0.0409 -0.4808 -0.3975
 6769TIP3   OH241865   2.142   0.901   1.589  0.3922 -0.3717 -0.1397
 6769TIP3    H141866   2.107   0.897   1.500  0.7002 -0.6095 -0.2513
 6769TIP3    H241867   2.223   0.950   1.580 -0.0008  0.3514  0.1508
 6770TIP3   OH241868   3.231   2.325   1.374 -0.4942  0.0788  0.3372
 6770TIP3    H141869   3.314   2.314   1.327 -0.2103  0.5042  0.7225
 6770TIP3    H241870   3.256   2.328   1.466 -0.9075  0.4775  0.4410
 6771TIP3   OH241871   5.148   3.519   7.755  0.0070  0.4861 -0.8001
 6771TIP3    H141872   5.066   3.534   7.803  1.0347  2.0159  0.5551
 6771TIP3    H241873   5.133   3.558   7.669 -0.6638  0.8034 -0.5452
 6772TIP3   OH241874   1.347   4.088   0.347  0.2682 -0.1641  0.1758
 6772TIP3    H141875   1.439   4.063   0.336  0.4807  0.9075 -0.6967
 6772TIP3    H241876   1.350   4.164   0.404 -0.1435 -0.5541  0.7217
 6773TIP3   OH241877   0.271   0.760   8.131 -0.5058  0.2995 -0.1357
 6773TIP3    H141878   0.318   0.695   8.183  0.1921  1.1877  0.3731
 6773TIP3    H241879   0.181   0.757   8.165 -0.8013 -1.2504 -0.9701
 6774TIP3   OH241880   1.481   6.210   0.089  0.1158 -1.0735 -0.3003
 6774TIP3    H141881   1.413   6.177   0.149 -1.2094  0.1943 -1.0205
 6774TIP3    H241882   1.551   6.241   0.147 -2.3843  2.9607  0.9851
 6775TIP3   OH241883   1.469   6.419   2.380 -0.1522 -0.0952 -0.1518
 6775TIP3    H141884   1.539   6.464   2.427  0.3696 -2.0143  1.0122
 6775TIP3    H241885   1.440   6.483   2.315  2.1095  1.0784 -0.1355
 6776TIP3   OH241886   1.884   4.600   1.450  0.9057 -0.1626 -0.1811
 6776TIP3    H141887   1.844   4.605   1.537  1.2820 -1.6338  0.1100
 6776TIP3    H241888   1.824   4.544   1.400  0.3514  1.1985 -1.0909
 6777TIP3   OH241889   2.983   2.374   7.610 -0.1111  0.1293  0.3678
 6777TIP3    H141890   3.028   2.407   7.532 -0.2823  2.6809  1.2523
 6777TIP3    H241891   3.040   2.399   7.683 -0.5816 -1.0630  1.1778
 6778TIP3   OH241892   6.385   6.673   6.462 -0.4689  0.7834  0.2546
 6778TIP3    H141893   6.366   6.741   6.397 -1.5715 -1.2280 -1.6722
 6778TIP3    H241894   6.304   6.622   6.466  0.5903 -0.8812  1.0374
 6779TIP3   OH241895   4.004   2.514   6.425  0.1421  0.1339  0.1569
 6779TIP3    H141896   3.931   2.490   6.482  0.2482 -0.0591  0.2132
 6779TIP3    H241897   4.081   2.512   6.483 -0.0529  2.2672  0.5935
 6780TIP3   OH241898   6.716   3.132   8.362 -0.1497  0.5577  0.1280
 6780TIP3    H141899   6.777   3.091   8.301  0.0848 -0.2684  0.9040
 6780TIP3    H241900   6.679   3.059   8.412  0.2466  1.2684  1.5123
 6781TIP3   OH241901   2.200   0.112   0.439 -0.7412  0.0806 -0.2096
 6781TIP3    H141902   2.253   0.191   0.433 -0.9296  0.2180 -0.0443
 6781TIP3    H241903   2.161   0.115   0.526  0.8778 -1.2029  0.6412
 6782TIP3   OH241904   4.181   3.691   8.018  0.2452 -0.1630 -0.1363
 6782TIP3    H141905   4.231   3.619   8.056 -0.8389 -0.3637  1.0088
 6782TIP3    H241906   4.091   3.657   8.014 -0.2703  1.0718  0.3404
 6783TIP3   OH241907   1.380   2.673   0.816 -0.6687 -0.1739 -0.3560
 6783TIP3    H141908   1.427   2.595   0.788  1.1294  1.2311 -1.4225
 6783TIP3    H241909   1.424   2.699   0.897 -2.3338 -1.1372  0.9212
 6784TIP3   OH241910   2.095   1.660   2.241 -0.1469 -0.0458 -0.5684
 6784TIP3    H141911   2.176   1.617   2.216  0.3064  0.4168  0.0863
 6784TIP3    H241912   2.117   1.710   2.320 -1.1838 -0.3120 -0.0922
 6785TIP3   OH241913   3.934   1.747   6.883  0.3766 -0.1065 -0.4673
 6785TIP3    H141914   3.928   1.778   6.793  0.9001 -3.0476 -1.6447
 6785TIP3    H241915   4.023   1.713   6.891 -0.0077 -0.9153  0.7750
 6786TIP3   OH241916   6.108   2.156   8.406  0.2842  0.0881 -0.5687
 6786TIP3    H141917   6.041   2.186   8.344 -0.5541 -1.5290 -0.4892
 6786TIP3    H241918   6.108   2.061   8.398  0.9471 -0.0927  1.1251
 6787TIP3   OH241919   4.831   5.070   0.775  0.5852  0.3111 -0.2842
 6787TIP3    H141920   4.790   5.125   0.707 -0.8070 -1.4203 -0.9393
 6787TIP3    H241921   4.892   5.014   0.727  1.8124  1.0695  0.3411
 6788TIP3   OH241922   5.227   5.154   0.892 -0.3707 -0.5700 -0.5207
 6788TIP3    H141923   5.161   5.107   0.944 -0.9532  1.1152  0.3389
 6788TIP3    H241924   5.176   5.199   0.824  0.0104 -0.0686 -0.4757
 6789TIP3   OH241925   3.668   6.369   1.462 -0.3561  0.0131 -0.1666
 6789TIP3    H141926   3.718   6.391   1.541  2.0701 -1.5033 -1.1664
 6789TIP3    H241927   3.584   6.336   1.495  0.6676 -0.7764  1.8154
 6790TIP3   OH241928   2.588   2.408   0.361 -0.4560  0.1067 -0.3264
 6790TIP3    H141929   2.671   2.450   0.337  0.1727 -0.2183  1.1962
 6790TIP3    H241930   2.586   2.328   0.308 -0.4562  0.7701 -1.3565
 6791TIP3   OH241931   0.842   3.048   1.749 -0.0546  0.1075  0.5177
 6791TIP3    H141932   0.902   2.974   1.739  0.6763  0.8604 -0.9826
 6791TIP3    H241933   0.871   3.092   1.829  0.0172 -0.7528  0.9753
 6792TIP3   OH241934   0.507   6.258   1.194 -0.0569 -0.0225  0.0624
 6792TIP3    H141935   0.498   6.165   1.212 -1.2103 -0.1168 -0.8620
 6792TIP3    H241936   0.528   6.263   1.101  1.2075  0.6050  0.3613
 6793TIP3   OH241937   3.759   0.784   7.676  0.2011  0.1475  0.3809
 6793TIP3    H141938   3.832   0.733   7.712 -0.1947 -0.9246 -0.2926
 6793TIP3    H241939   3.792   0.816   7.592  0.1786  0.3707  0.4558
 6794TIP3   OH241940   4.563   0.249   2.646  0.4210  0.9112  0.0038
 6794TIP3    H141941   4.593   0.293   2.567 -1.6149  3.8978  0.7311
 6794TIP3    H241942   4.485   0.200   2.619 -1.4035  3.4172  0.3128
 6795TIP3   OH241943   2.259   4.876   1.088  0.4949 -0.3208  1.3993
 6795TIP3    H141944   2.181   4.826   1.112  1.5631 -1.9815  1.5705
 6795TIP3    H241945   2.331   4.827   1.128  2.0420 -1.1812 -2.1206
 6796TIP3   OH241946   2.001   3.994   6.096  0.0585  0.1592  0.5776
 6796TIP3    H141947   2.089   4.032   6.099  0.1568  0.0844 -0.6874
 6796TIP3    H241948   1.946   4.057   6.142  0.6092  0.7167  0.4876
 6797TIP3   OH241949   0.421   5.924   7.784  0.6364  0.2575  0.0991
 6797TIP3    H141950   0.395   5.941   7.875 -0.8166 -0.5838 -0.1330
 6797TIP3    H241951   0.471   6.002   7.759  0.4610  0.8143  1.3831
 6798TIP3   OH241952   1.286   3.105   1.039  0.5531 -0.3058  0.2117
 6798TIP3    H141953   1.317   3.015   1.032 -1.4585 -0.9505 -1.3859
 6798TIP3    H241954   1.200   3.098   1.080 -0.1589  0.7385 -1.0307
 6799TIP3   OH241955   5.245   3.223   6.904  0.3580 -0.4790 -0.3322
 6799TIP3    H141956   5.299   3.244   6.827 -0.9215 -1.8757 -1.6867
 6799TIP3    H241957   5.303   3.174   6.962  1.2576  0.3204 -0.5347
 6800TIP3   OH241958   6.000   1.425   7.320 -0.1006  0.1695  0.4102
 6800TIP3    H141959   6.026   1.337   7.348 -1.5433 -0.3482  0.2430
 6800TIP3    H241960   5.905   1.419   7.309 -0.5510  2.2913  2.3441
 6801TIP3   OH241961   5.106   4.985   0.048  0.2263 -0.2995  0.0682
 6801TIP3    H141962   5.126   5.066   0.094 -0.4244 -0.6089  0.9224
 6801TIP3    H241963   5.045   5.011  -0.022 -1.4482 -0.2781  1.4586
 6802TIP3   OH241964   2.749   2.795   1.293 -0.1399 -0.5132  0.7181
 6802TIP3    H141965   2.749   2.713   1.343 -0.6272 -0.9175  0.0803
 6802TIP3    H241966   2.737   2.767   1.202  1.8193  0.1094  0.2081
 6803TIP3   OH241967   6.186   4.099   8.233  0.2758 -0.0981 -0.6857
 6803TIP3    H141968   6.263   4.042   8.237 -0.5974 -1.3631 -1.2694
 6803TIP3    H241969   6.134   4.074   8.310  0.4448  0.7553 -0.2886
 6804TIP3   OH241970   2.549   4.626   2.497  0.2878 -0.3416  0.7809
 6804TIP3    H141971   2.582   4.715   2.510 -2.0351  0.7402 -0.1277
 6804TIP3    H241972   2.471   4.637   2.443 -0.4143 -2.8896  1.1304
 6805TIP3   OH241973   3.716   5.006   0.617  0.4417  0.1226  0.1634
 6805TIP3    H141974   3.715   5.007   0.521  0.1791  0.1339  0.1637
 6805TIP3    H241975   3.669   5.086   0.642  2.8072  1.5388  0.3252
 6806TIP3   OH241976   6.494   1.505   7.621 -0.7589 -0.0403  0.3019
 6806TIP3    H141977   6.428   1.471   7.681  0.8227 -3.3187  0.4196
 6806TIP3    H241978   6.569   1.526   7.678 -0.1869 -0.6350 -0.2126
 6807TIP3   OH241979   3.645   2.443   8.045  0.1045 -0.4652 -0.0105
 6807TIP3    H141980   3.567   2.455   7.991  0.9956  1.1403 -1.0255
 6807TIP3    H241981   3.628   2.495   8.124 -0.2152 -0.8621  0.1856
 6808TIP3   OH241982   4.003   6.089   6.782  0.1805  0.1671 -0.3169
 6808TIP3    H141983   4.033   6.060   6.868 -0.1045 -0.9139 -0.5637
 6808TIP3    H241984   3.908   6.099   6.792 -0.3094 -2.6900 -1.1805
 6809TIP3   OH241985   6.466   1.896   1.434  0.1629 -0.5332  0.4795
 6809TIP3    H141986   6.397   1.857   1.488 -0.4960 -1.7096 -1.1211
 6809TIP3    H241987   6.420   1.961   1.380  0.3786 -0.9669 -0.2411
 6810TIP3   OH241988   2.527   3.997   8.248  0.5319 -0.5896  0.4263
 6810TIP3    H141989   2.500   4.044   8.327 -1.7412 -0.4517 -0.3478
 6810TIP3    H241990   2.510   3.905   8.268 -1.1355 -0.4627 -0.2271
 6811TIP3   OH241991   5.813   0.364   1.341 -0.1465 -0.3759 -0.2916
 6811TIP3    H141992   5.767   0.444   1.368 -1.3629 -0.6359 -1.4981
 6811TIP3    H241993   5.781   0.297   1.401 -0.4126 -0.3142 -0.3657
 6812TIP3   OH241994   4.936   1.679   0.367  0.2715 -0.0868 -0.2028
 6812TIP3    H141995   5.000   1.725   0.312  0.9603 -0.4627  0.2757
 6812TIP3    H241996   4.901   1.746   0.424  2.4116 -0.3771  1.5814
 6813TIP3   OH241997   1.830   3.592   6.356 -0.3699  0.3380 -0.2433
 6813TIP3    H141998   1.797   3.632   6.436  0.4922 -1.1391  0.8897
 6813TIP3    H241999   1.908   3.643   6.334 -1.3432  1.5964 -0.9507
 6814TIP3   OH242000   5.290   0.372   8.561 -0.5623 -0.2454  0.3847
 6814TIP3    H142001   5.336   0.447   8.598  1.4318 -0.1931 -1.9440
 6814TIP3    H242002   5.271   0.316   8.637 -0.3342  1.6655  1.9262
 6815TIP3   OH242003   2.419   0.004   0.273 -0.1302  0.2283 -0.1792
 6815TIP3    H142004   2.373  -0.031   0.349 -0.3058  0.0441 -0.3732
 6815TIP3    H242005   2.356   0.064   0.232 -0.5971 -0.8327 -1.0629
 6816TIP3   OH242006   3.722   0.512   2.131 -0.3175 -0.3219 -0.1010
 6816TIP3    H142007   3.651   0.538   2.189 -0.8050  0.3669 -0.9694
 6816TIP3    H242008   3.793   0.572   2.151 -0.5519  0.0401 -0.3267
 6817TIP3   OH242009   3.470   6.872   6.632  0.3595 -0.1822  0.3569
 6817TIP3    H142010   3.533   6.865   6.560  0.9365 -0.1039  0.8424
 6817TIP3    H242011   3.442   6.783   6.649 -0.1415 -0.1483 -0.2820
 6818TIP3   OH242012   0.092   0.407   1.889 -0.3449  0.4985 -0.2482
 6818TIP3    H142013   0.148   0.401   1.811  0.2329 -0.2430  0.2016
 6818TIP3    H242014   0.145   0.454   1.953 -1.1807  1.9412 -0.5946
 6819TIP3   OH242015   5.963   2.739   7.753  0.0261  0.1842  0.3980
 6819TIP3    H142016   5.955   2.786   7.671  0.9937 -1.8157 -0.9350
 6819TIP3    H242017   5.898   2.778   7.811 -2.8799 -0.3282 -2.3033
 6820TIP3   OH242018   0.589   3.225   6.781  0.5765 -0.3730 -0.0680
 6820TIP3    H142019   0.543   3.142   6.792 -0.1749  0.0524  0.0900
 6820TIP3    H242020   0.681   3.201   6.776  0.6525 -1.0250  2.6694
 6821TIP3   OH242021   1.108   1.144   0.716  0.0112 -0.4320  0.6223
 6821TIP3    H142022   1.184   1.110   0.763  0.4296  0.7982  0.8575
 6821TIP3    H242023   1.053   1.182   0.784 -0.1006  0.0026  0.2926
 6822TIP3   OH242024   5.859   6.730   1.036  0.1742 -0.4464 -0.3920
 6822TIP3    H142025   5.815   6.719   0.951 -2.2337  1.3207  0.5175
 6822TIP3    H242026   5.922   6.801   1.021 -0.0096 -0.3663 -0.8051
 6823TIP3   OH242027   0.182   4.027   1.219  0.7020  0.0565 -0.2491
 6823TIP3    H142028   0.173   3.983   1.134 -1.3752 -0.3750  0.1422
 6823TIP3    H242029   0.251   4.092   1.204  0.3570  0.0331 -2.2906
 6824TIP3   OH242030   0.105   6.057   0.267 -0.0815  0.2801 -0.7052
 6824TIP3    H142031   0.076   6.028   0.181  0.3747 -1.4979 -0.2987
 6824TIP3    H242032   0.198   6.076   0.257 -0.3298  1.5047 -0.9159
 6825TIP3   OH242033   6.305   1.412   7.309 -0.0554  0.0436 -0.4100
 6825TIP3    H142034   6.286   1.345   7.374  1.7185  0.0326  0.1430
 6825TIP3    H242035   6.237   1.478   7.322  0.2846  0.0686  1.5098
 6826TIP3   OH242036   4.724   2.084   1.332 -0.7131 -0.2429 -0.0760
 6826TIP3    H142037   4.743   2.176   1.314 -0.5420 -0.0206  1.1172
 6826TIP3    H242038   4.630   2.082   1.352 -0.9812 -0.5452 -1.2977
 6827TIP3   OH242039   2.649   2.172   0.244  0.1221 -0.4288  0.3454
 6827TIP3    H142040   2.736   2.152   0.278  0.1581 -1.2030 -0.1757
 6827TIP3    H242041   2.591   2.109   0.287 -0.0797 -0.3457  0.1981
 6828TIP3   OH242042   2.154   4.524   0.547  0.3380  0.2445 -0.0400
 6828TIP3    H142043   2.203   4.588   0.599  0.3666  0.4904 -0.3678
 6828TIP3    H242044   2.075   4.571   0.519 -0.9273 -0.6363  1.8531
 6829TIP3   OH242045   6.806   4.341   7.628 -0.4189  0.5925 -0.1394
 6829TIP3    H142046   6.754   4.263   7.651  0.1098  0.1664 -0.3856
 6829TIP3    H242047   6.894   4.308   7.614  0.1974  1.4815  1.4267
 6830TIP3   OH242048   6.871   1.372   7.535  0.8532 -0.0417  0.4328
 6830TIP3    H142049   6.895   1.315   7.462  0.7328  0.0641  0.3092
 6830TIP3    H242050   6.800   1.325   7.579  1.4800 -0.4975  0.9790
 6831TIP3   OH242051   3.859   5.452   2.234  0.0007  0.1341 -0.2858
 6831TIP3    H142052   3.849   5.468   2.328  0.3653  1.8127 -0.5177
 6831TIP3    H242053   3.862   5.356   2.227 -0.0039 -0.0231  1.4072
 6832TIP3   OH242054   2.062   0.983   7.167  0.7319  0.2700 -0.2058
 6832TIP3    H142055   2.054   1.004   7.260  1.0098 -0.3356 -0.0415
 6832TIP3    H242056   1.972   0.986   7.134  0.7962  2.1314 -0.2929
 6833TIP3   OH242057   2.858   5.120   0.788  0.1898 -0.0721 -0.5088
 6833TIP3    H142058   2.915   5.060   0.741  0.4388 -0.4014  0.1947
 6833TIP3    H242059   2.786   5.066   0.820 -0.0799  0.1840 -0.6705
 6834TIP3   OH242060   3.645   5.301   6.333 -0.5019  0.6687  0.3060
 6834TIP3    H142061   3.550   5.294   6.323 -0.6246 -0.4194  1.8705
 6834TIP3    H242062   3.659   5.387   6.372 -0.6822  1.4529 -1.2614
 6835TIP3   OH242063   5.246   4.977   1.487 -0.0939 -0.3685 -0.2998
 6835TIP3    H142064   5.183   4.906   1.475 -0.1499 -0.3558 -0.0901
 6835TIP3    H242065   5.194   5.048   1.527  0.3706 -0.8879  1.3026
 6836TIP3   OH242066   1.464   3.447   0.634  0.2130 -0.0086 -0.7351
 6836TIP3    H142067   1.390   3.503   0.613  0.8652  0.2038 -2.7358
 6836TIP3    H242068   1.443   3.362   0.594  1.1946  0.1810 -1.7122
 6837TIP3   OH242069   6.470   0.589   7.205  0.2774  0.7466  0.8142
 6837TIP3    H142070   6.528   0.557   7.135 -1.9673 -0.5767 -0.5596
 6837TIP3    H242071   6.448   0.678   7.178 -0.4546  0.2993 -0.1343
 6838TIP3   OH242072   6.171   0.322   8.529 -0.0575  0.0592  0.0217
 6838TIP3    H142073   6.122   0.240   8.537  0.4046 -0.3046 -0.7390
 6838TIP3    H242074   6.137   0.363   8.450 -0.6681  0.8754  0.6978
 6839TIP3   OH242075   4.957   0.024   8.133 -0.6333  0.7144 -0.1778
 6839TIP3    H142076   4.938   0.093   8.197 -0.3116  2.8091 -2.2037
 6839TIP3    H242077   4.918   0.055   8.051 -1.8307 -2.2853 -0.8798
 6840TIP3   OH242078   3.052   6.757   1.240  0.6218 -0.5301  0.2281
 6840TIP3    H142079   3.089   6.684   1.291 -0.0724 -0.7219  0.4693
 6840TIP3    H242080   3.056   6.832   1.299  1.9777 -0.1863 -0.2556
 6841TIP3   OH242081   0.359   0.459   1.043  0.0229 -0.2630 -0.3618
 6841TIP3    H142082   0.349   0.553   1.026 -2.2079 -0.6356 -1.4544
 6841TIP3    H242083   0.272   0.431   1.074  1.1771 -1.6192  1.9421
 6842TIP3   OH242084   2.674   1.753   1.658 -0.3925 -0.2180  0.5331
 6842TIP3    H142085   2.694   1.771   1.750 -1.6612 -3.1673  1.5153
 6842TIP3    H242086   2.758   1.761   1.613  0.4004  0.5805  2.0783
 6843TIP3   OH242087   6.223   0.806   1.673 -0.0023  0.0685 -0.4040
 6843TIP3    H142088   6.306   0.758   1.680 -0.2191 -0.3089 -0.3884
 6843TIP3    H242089   6.237   0.886   1.724 -0.4673 -1.1363  1.7405
 6844TIP3   OH242090   2.902   4.923   6.200 -0.1554  0.2365  0.5845
 6844TIP3    H142091   2.879   4.947   6.110  0.8142 -0.6116  0.0885
 6844TIP3    H242092   2.823   4.883   6.235  0.0969 -1.3887 -0.6187
 6845TIP3   OH242093   1.985   4.915   6.286  0.3664 -0.1160 -0.5851
 6845TIP3    H142094   1.951   4.972   6.355  0.8524 -0.6399  0.0972
 6845TIP3    H242095   2.066   4.958   6.258  0.6074 -0.3355 -0.2373
 6846TIP3   OH242096   6.161   5.507   2.622 -0.3641  0.2218  0.3413
 6846TIP3    H142097   6.079   5.537   2.659 -0.1991  0.8386  0.2212
 6846TIP3    H242098   6.183   5.428   2.671 -1.3717 -0.3426 -0.0859
 6847TIP3   OH242099   4.983   2.280   1.954 -0.9801 -0.1904 -0.0239
 6847TIP3    H142100   4.999   2.190   1.983 -0.7441  0.6500  2.6966
 6847TIP3    H242101   5.029   2.287   1.870 -0.2081 -2.3043  0.1691
 6848TIP3   OH242102   2.506   1.519   1.780  0.1756  0.2091  0.3090
 6848TIP3    H142103   2.418   1.519   1.819  0.0642  3.6978  0.3888
 6848TIP3    H242104   2.565   1.538   1.853  0.8201 -0.4501 -0.0306
 6849TIP3   OH242105   2.245   2.229   0.507 -0.2083 -0.0823  0.6000
 6849TIP3    H142106   2.152   2.210   0.498 -0.0352 -1.0819  0.7992
 6849TIP3    H242107   2.288   2.171   0.443  0.2313  0.8393  0.0441
 6850TIP3   OH242108   4.547   1.105   0.659  0.1738  0.0103 -0.1837
 6850TIP3    H142109   4.618   1.079   0.600  1.5229  1.5423  0.7095
 6850TIP3    H242110   4.563   1.197   0.677  0.1084 -0.4791  2.9271
 6851TIP3   OH242111   1.519   5.073   2.182  0.2703 -0.2559  0.2853
 6851TIP3    H142112   1.552   5.024   2.107  1.1039 -0.3125  0.6885
 6851TIP3    H242113   1.449   5.127   2.145 -0.5122 -1.5580 -0.2075
 6852TIP3   OH242114   2.169   3.995   6.503 -0.2056 -0.5365  0.2801
 6852TIP3    H142115   2.174   4.002   6.408 -0.4173 -0.6514  0.2591
 6852TIP3    H242116   2.084   4.034   6.525  0.2741  0.4067  0.5150
 6853TIP3   OH242117   1.626   1.640   1.483 -0.2081 -0.3907 -0.0502
 6853TIP3    H142118   1.600   1.608   1.570 -0.6247 -1.5291 -0.5676
 6853TIP3    H242119   1.544   1.653   1.437  0.0327 -2.1197 -1.0493
 6854TIP3   OH242120   5.896   0.129   8.039 -0.5328  0.4393  0.5711
 6854TIP3    H142121   5.953   0.196   8.001  1.1017 -1.1625  0.0359
 6854TIP3    H242122   5.812   0.173   8.052  0.6932  2.8227  1.0763
 6855TIP3   OH242123   2.585   4.164   1.588  0.0201  0.6545  0.4762
 6855TIP3    H142124   2.565   4.152   1.681 -1.2697 -1.2610  0.0118
 6855TIP3    H242125   2.672   4.126   1.578  0.0835  0.6855  0.8749
 6856TIP3   OH242126   5.802   3.091   7.827  0.1032  0.8326  0.1177
 6856TIP3    H142127   5.748   3.162   7.860  0.5132  0.8318  0.7996
 6856TIP3    H242128   5.762   3.068   7.742 -1.1436  0.6210  0.7347
 6857TIP3   OH242129   0.155   5.057   8.057  0.5386  0.1756 -0.1481
 6857TIP3    H142130   0.225   4.992   8.052  0.5533  0.2039 -0.3007
 6857TIP3    H242131   0.127   5.055   8.149  0.5660 -0.0175 -0.1444
 6858TIP3   OH242132   2.775   6.377   2.197 -0.3102  0.1947 -0.3055
 6858TIP3    H142133   2.869   6.358   2.195 -0.3975 -0.2536 -0.2235
 6858TIP3    H242134   2.767   6.453   2.254  0.2231  1.5336 -1.9429
 6859TIP3   OH242135   1.451   5.124   0.734  0.1457 -0.2504 -0.0923
 6859TIP3    H142136   1.448   5.079   0.818 -1.8207  1.3009  0.7492
 6859TIP3    H242137   1.376   5.087   0.685  0.1888  0.1429 -0.4568
 6860TIP3   OH242138   6.103   3.845   1.425  0.0094  0.0001 -0.4705
 6860TIP3    H142139   6.110   3.894   1.507 -0.6334  0.3671 -0.6242
 6860TIP3    H242140   6.172   3.882   1.369  2.2557 -2.0570  0.7624
 6861TIP3   OH242141   1.536   3.164   8.318 -0.2176 -0.2379  0.2653
 6861TIP3    H142142   1.451   3.120   8.330 -0.6100 -0.2751 -2.2409
 6861TIP3    H242143   1.600   3.093   8.318 -0.4677 -0.4658 -0.3206
 6862TIP3   OH242144   4.144   3.054   1.391  0.4701  0.2225  0.1710
 6862TIP3    H142145   4.211   3.123   1.385 -0.0772  0.6918 -1.1579
 6862TIP3    H242146   4.083   3.074   1.319 -0.3821 -0.9458  0.5311
 6863TIP3   OH242147   4.862   2.267   7.476 -0.1410  0.0867  0.2646
 6863TIP3    H142148   4.851   2.362   7.472 -0.3138  0.3537  4.0302
 6863TIP3    H242149   4.933   2.254   7.538 -1.4445 -2.2364  1.3907
 6864TIP3   OH242150   5.067   5.923   0.839  0.5461  0.0209  0.3146
 6864TIP3    H142151   4.993   5.871   0.805 -0.5574  1.9657 -0.4455
 6864TIP3    H242152   5.142   5.864   0.836 -0.3440 -1.1008 -1.8895
 6865TIP3   OH242153   5.050   5.501   8.080 -0.4152 -0.2256 -0.3236
 6865TIP3    H142154   5.083   5.525   7.993 -2.2256  0.2562 -0.9070
 6865TIP3    H242155   5.122   5.451   8.119  1.2613  1.3298 -1.2691
 6866TIP3   OH242156   5.687   5.749   6.918 -0.5174  0.3906  0.1795
 6866TIP3    H142157   5.775   5.716   6.899 -0.7167 -0.5373  0.8050
 6866TIP3    H242158   5.634   5.719   6.844 -0.5737 -0.1983  0.4520
 6867TIP3   OH242159   5.055   0.867   8.120 -0.0261 -0.1460 -0.2399
 6867TIP3    H142160   5.095   0.919   8.190 -1.9520  1.6431 -0.3786
 6867TIP3    H242161   5.040   0.929   8.049 -0.3984 -1.3980 -1.2977
 6868TIP3   OH242162   5.319   4.259   1.895  0.4121 -0.0300  0.4203
 6868TIP3    H142163   5.343   4.348   1.867 -0.5581 -0.1986 -1.0581
 6868TIP3    H242164   5.390   4.204   1.863  0.6500  0.1073  0.6986
 6869TIP3   OH242165   6.659   0.379   1.411  0.3603 -0.3899 -0.0842
 6869TIP3    H142166   6.711   0.329   1.349 -0.2864 -1.8391  0.4871
 6869TIP3    H242167   6.684   0.345   1.497 -0.8731 -0.4940  0.2532
 6870TIP3   OH242168   4.776   4.822   7.600  0.2055 -0.0885  0.6196
 6870TIP3    H142169   4.863   4.859   7.613  0.3035 -0.1291  0.1142
 6870TIP3    H242170   4.732   4.834   7.684  0.7427 -0.1871  0.9227
 6871TIP3   OH242171   2.091   1.795   8.094  0.0570  0.1983  0.1430
 6871TIP3    H142172   2.131   1.882   8.090 -0.2008  0.3744  1.1940
 6871TIP3    H242173   2.165   1.735   8.101  0.3278  0.1795 -2.1029
 6872TIP3   OH242174   5.920   0.576   1.786  0.4670  0.0831  0.5470
 6872TIP3    H142175   5.836   0.574   1.832  0.5470  0.2931  0.7022
 6872TIP3    H242176   5.982   0.610   1.851  0.3554  1.5326 -0.0839
 6873TIP3   OH242177   6.140   1.765   0.599 -0.4753 -0.0389  0.4241
 6873TIP3    H142178   6.077   1.816   0.546 -0.6097 -0.2461  0.3853
 6873TIP3    H242179   6.213   1.826   0.613 -0.6088  0.1476  0.3262
 6874TIP3   OH242180   0.086   3.834   6.519 -0.1893 -0.4840 -0.2286
 6874TIP3    H142181   0.130   3.850   6.603  2.0456 -2.7813 -0.8483
 6874TIP3    H242182   0.046   3.748   6.529 -0.3402 -0.5521 -1.3331
 6875TIP3   OH242183   1.010   4.826   7.637  0.0827 -0.3232 -0.4196
 6875TIP3    H142184   1.097   4.864   7.640 -0.5779  1.2536 -0.4616
 6875TIP3    H242185   0.951   4.900   7.627 -1.3314 -1.2837  0.3708
 6876TIP3   OH242186   2.650   0.278   1.672  0.8660 -0.4471  0.4660
 6876TIP3    H142187   2.627   0.354   1.618  0.4130  0.9934  2.5548
 6876TIP3    H242188   2.722   0.309   1.728  0.5947 -1.4978  1.4495
 6877TIP3   OH242189   3.236   5.310   1.376  0.4412 -0.5095  0.1980
 6877TIP3    H142190   3.239   5.405   1.389  1.9145 -0.1345 -2.2638
 6877TIP3    H242191   3.177   5.297   1.302  2.0272 -1.2548 -0.9851
 6878TIP3   OH242192   4.165   3.025   7.516 -0.3474  0.1371  0.0862
 6878TIP3    H142193   4.152   2.933   7.491 -0.0045 -0.6754  2.5625
 6878TIP3    H242194   4.077   3.057   7.532 -0.4535  0.1756 -0.5515
 6879TIP3   OH242195   3.380   3.650   0.123  0.3047 -0.1375  0.8970
 6879TIP3    H142196   3.470   3.617   0.133  0.0364 -1.1526  0.1571
 6879TIP3    H242197   3.342   3.595   0.054 -0.2659  1.5686 -0.2290
 6880TIP3   OH242198   4.280   0.089   8.227  0.2998  0.4298  0.1379
 6880TIP3    H142199   4.330   0.065   8.305  0.2135  1.6037  0.5721
 6880TIP3    H242200   4.272   0.008   8.178  2.1099  0.0860  0.3513
 6881TIP3   OH242201   5.505   0.289   7.604  0.3307  0.5036  0.1177
 6881TIP3    H142202   5.475   0.325   7.687  2.7647  1.8418  0.5067
 6881TIP3    H242203   5.478   0.197   7.607  0.2893  0.5236  2.3732
 6882TIP3   OH242204   5.294   0.957   0.138 -0.1907  0.8739 -0.0974
 6882TIP3    H142205   5.301   1.044   0.176 -0.9289  1.2998 -0.9307
 6882TIP3    H242206   5.376   0.946   0.089 -0.4128  1.3899 -0.5913
 6883TIP3   OH242207   6.703   0.798   7.358  0.2983 -0.5884 -0.1933
 6883TIP3    H142208   6.659   0.715   7.375 -3.6897  0.8094 -2.4307
 6883TIP3    H242209   6.718   0.798   7.263 -1.4864  1.8584 -0.5703
 6884TIP3   OH242210   5.163   1.435   1.717 -0.1551 -0.2648 -0.3740
 6884TIP3    H142211   5.181   1.506   1.779  1.9009 -0.8223 -0.2266
 6884TIP3    H242212   5.173   1.355   1.770  2.2394 -0.7791 -1.4501
 6885TIP3   OH242213   2.350   1.568   0.499 -0.5185 -0.0831  0.5007
 6885TIP3    H142214   2.391   1.642   0.454 -0.0154 -0.1642  0.8077
 6885TIP3    H242215   2.409   1.494   0.482  0.9441  0.3543  3.1207
 6886TIP3   OH242216   0.707   0.810   7.716 -0.3133 -0.5503 -0.7382
 6886TIP3    H142217   0.720   0.877   7.649 -1.7610 -1.3389 -1.8446
 6886TIP3    H242218   0.789   0.810   7.766 -0.3497  2.1650 -0.5606
 6887TIP3   OH242219   0.590   5.009   1.168 -0.0971 -0.9234 -0.1988
 6887TIP3    H142220   0.652   5.070   1.127 -0.4530 -0.6528 -0.3305
 6887TIP3    H242221   0.516   5.064   1.195  0.0553 -1.1233  0.6520
 6888TIP3   OH242222   4.193   4.513   1.616  0.2699  0.4283 -0.3180
 6888TIP3    H142223   4.255   4.479   1.681  0.2759 -0.2041 -0.6483
 6888TIP3    H242224   4.240   4.585   1.573  0.9341 -0.3190 -0.8546
 6889TIP3   OH242225   6.199   3.995   7.189  0.2202  0.3125 -0.1972
 6889TIP3    H142226   6.195   3.915   7.242  0.7159 -1.5456 -2.7934
 6889TIP3    H242227   6.290   4.023   7.196 -0.7311  3.4857  4.3286
 6890TIP3   OH242228   3.402   0.310   1.257  0.0438 -0.1031  0.1106
 6890TIP3    H142229   3.413   0.323   1.351  1.1098  0.7954 -0.1150
 6890TIP3    H242230   3.308   0.300   1.245 -0.6293  3.9190  0.8159
 6891TIP3   OH242231   0.965   3.299   0.025  1.3153 -0.4678  0.5110
 6891TIP3    H142232   0.953   3.388  -0.009  0.5524 -1.6237 -2.6617
 6891TIP3    H242233   1.059   3.284   0.021  1.3038 -0.3367 -0.6320
 6892TIP3   OH242234   4.393   5.400   8.226  0.7431 -0.3086  0.0567
 6892TIP3    H142235   4.452   5.326   8.208  1.5022 -0.7629  3.6149
 6892TIP3    H242236   4.313   5.360   8.258  0.6808  0.3518  0.7658
 6893TIP3   OH242237   6.081   1.619   1.813  0.3087  0.4281  0.3814
 6893TIP3    H142238   6.047   1.538   1.849  0.4354 -0.9113 -2.2574
 6893TIP3    H242239   6.176   1.614   1.826  0.3143  0.1458  0.2350
 6894TIP3   OH242240   4.304   5.509   1.133 -0.0079 -0.2436 -0.0160
 6894TIP3    H142241   4.373   5.448   1.108  2.3369  0.2139  4.3176
 6894TIP3    H242242   4.261   5.467   1.207 -1.4677  1.4156  0.1426
 6895TIP3   OH242243   4.307   1.539   6.892  0.3301 -0.5327  0.1033
 6895TIP3    H142244   4.299   1.610   6.956 -0.8014 -0.9163  0.4002
 6895TIP3    H242245   4.256   1.567   6.817  0.7962 -0.5495 -0.2256
 6896TIP3   OH242246   3.079   5.681   7.428  0.3210 -0.4934  0.4316
 6896TIP3    H142247   3.019   5.661   7.499 -0.2327 -0.7229 -0.0963
 6896TIP3    H242248   3.096   5.775   7.436  0.9186 -0.6679  1.3664
 6897TIP3   OH242249   4.273   4.674   0.014  0.2458  0.1199  0.8145
 6897TIP3    H142250   4.282   4.589   0.057 -1.8183 -1.5427 -1.7053
 6897TIP3    H242251   4.186   4.672  -0.026  1.1920  2.2566 -1.7021
 6898TIP3   OH242252   4.964   0.357   8.137  0.1351  0.5897  0.1819
 6898TIP3    H142253   4.994   0.436   8.091  0.2001  0.8979  0.7459
 6898TIP3    H242254   5.030   0.341   8.204 -0.2695  0.4988  0.5627
 6899TIP3   OH242255   6.871   6.709   1.905 -0.0756  0.1223  0.3906
 6899TIP3    H142256   6.896   6.800   1.893  0.3383 -0.0568 -0.1517
 6899TIP3    H242257   6.952   6.664   1.930 -0.1877 -0.1660  0.2467
 6900TIP3   OH242258   6.509   2.533   1.424  0.0903 -0.3858  0.0375
 6900TIP3    H142259   6.509   2.456   1.481  1.7041 -0.6193 -0.2244
 6900TIP3    H242260   6.451   2.596   1.468 -1.7194 -1.9090 -0.0267
 6901TIP3   OH242261   0.255   2.139   8.252 -0.1280  0.2609 -0.6540
 6901TIP3    H142262   0.309   2.217   8.244 -1.6068  1.3702 -0.2488
 6901TIP3    H242263   0.314   2.066   8.231  1.8862  1.2726  1.1893
 6902TIP3   OH242264   5.582   2.660   6.761 -0.2444 -0.1418 -0.4851
 6902TIP3    H142265   5.496   2.653   6.803 -0.0232 -0.4084 -0.0653
 6902TIP3    H242266   5.628   2.580   6.788  0.3521  0.2927 -0.2034
 6903TIP3   OH242267   3.278   4.365   7.977  0.0711  0.4093  0.1048
 6903TIP3    H142268   3.328   4.404   7.905 -0.8436 -1.4467 -1.6719
 6903TIP3    H242269   3.344   4.336   8.039  1.2550 -1.3032 -1.8251
 6904TIP3   OH242270   1.408   0.298   6.471  0.0538 -0.1721 -0.2745
 6904TIP3    H142271   1.369   0.221   6.513 -1.8919  1.1669  0.5210
 6904TIP3    H242272   1.459   0.340   6.540 -0.7783  0.4654 -0.0298
 6905TIP3   OH242273   1.394   5.550   2.124 -0.0717  0.1356 -0.0041
 6905TIP3    H142274   1.368   5.495   2.197 -2.7706 -0.3558 -1.2326
 6905TIP3    H242275   1.484   5.577   2.145 -0.6015 -0.2897  3.2509
 6906TIP3   OH242276   2.068   1.463   6.289 -0.0087 -0.5377 -0.1041
 6906TIP3    H142277   2.040   1.451   6.380  0.0905 -1.2750 -0.1649
 6906TIP3    H242278   1.987   1.464   6.238 -0.2101  1.6816  0.1523
 6907TIP3   OH242279   2.389   6.352   0.225  0.1235  0.3908  0.2699
 6907TIP3    H142280   2.440   6.354   0.305  1.0585  0.4185 -0.3128
 6907TIP3    H242281   2.442   6.400   0.161  0.2298 -1.1521 -0.8469
 6908TIP3   OH242282   1.791   6.687   1.275  0.0969 -0.1592 -0.7425
 6908TIP3    H142283   1.769   6.724   1.190  0.9231  1.3550 -0.3480
 6908TIP3    H242284   1.750   6.746   1.339  0.3204 -0.6946 -0.0877
 6909TIP3   OH242285   2.319   4.969   7.800  0.1111  0.4558 -0.0038
 6909TIP3    H142286   2.374   4.947   7.724 -0.5273  1.3720 -0.7561
 6909TIP3    H242287   2.237   4.999   7.762  0.7363  3.6881  0.9207
 6910TIP3   OH242288   6.308   2.132   7.532 -0.4218 -0.0828  0.2986
 6910TIP3    H142289   6.395   2.156   7.498 -0.8502  1.2491  0.0593
 6910TIP3    H242290   6.326   2.088   7.615  0.5002 -0.2671  0.0133
 6911TIP3   OH242291   2.430   3.632   1.159  0.3061  0.2916 -0.4403
 6911TIP3    H142292   2.496   3.594   1.100 -0.9842 -0.5489 -1.3813
 6911TIP3    H242293   2.398   3.709   1.112 -1.1886 -0.7406 -1.1994
 6912TIP3   OH242294   0.391   6.766   2.831  0.0684 -0.2971  0.1222
 6912TIP3    H142295   0.337   6.840   2.858  1.0614  0.1242  1.0310
 6912TIP3    H242296   0.476   6.805   2.810  0.6430 -1.1858  0.7312
 6913TIP3   OH242297   3.024   6.538   8.544 -0.1829 -0.1614 -0.1227
 6913TIP3    H142298   3.102   6.482   8.543  0.6717  0.9700 -2.3061
 6913TIP3    H242299   3.053   6.618   8.587  0.0740  0.4836 -1.4477
 6914TIP3   OH242300   4.084   5.571   8.150  0.4911  0.3834 -1.0850
 6914TIP3    H142301   4.126   5.620   8.079  0.2381  0.8251 -0.9328
 6914TIP3    H242302   4.136   5.592   8.228  0.7540 -0.0819 -1.1288
 6915TIP3   OH242303   5.491   6.503   1.235  0.2553 -0.0024  0.0937
 6915TIP3    H142304   5.515   6.415   1.209  1.0560  0.0219  0.7010
 6915TIP3    H242305   5.574   6.544   1.262 -0.2842  0.5010  1.0523
 6916TIP3   OH242306   4.249   1.239   6.920 -0.0594  0.1500  0.5071
 6916TIP3    H142307   4.270   1.197   6.837 -1.0284  1.2689 -0.3426
 6916TIP3    H242308   4.239   1.332   6.899 -1.9831  0.2409  1.5253
 6917TIP3   OH242309   3.523   6.267   8.301 -0.4881  0.1657 -0.1303
 6917TIP3    H142310   3.594   6.293   8.242 -0.1002  1.1592  0.7431
 6917TIP3    H242311   3.475   6.200   8.252  1.5641 -1.2170 -0.3873
 6918TIP3   OH242312   0.220   5.629   8.058  0.3949 -0.0917  0.3593
 6918TIP3    H142313   0.307   5.654   8.026 -0.0589 -1.1094 -1.7985
 6918TIP3    H242314   0.221   5.533   8.058 -0.7928 -0.1218  0.0734
 6919TIP3   OH242315   4.002   6.881   8.544  0.0508 -0.4964 -0.1697
 6919TIP3    H142316   4.073   6.909   8.487  1.8181 -0.6726  1.8207
 6919TIP3    H242317   3.995   6.951   8.609 -2.5307  0.1464 -1.0249
 6920TIP3   OH242318   2.465   0.673   8.153  0.3653 -0.3596  0.2743
 6920TIP3    H142319   2.417   0.607   8.103  0.9408 -0.5549 -0.0181
 6920TIP3    H242320   2.425   0.669   8.240  1.2924 -2.0818  0.6817
 6921TIP3   OH242321   5.203   0.751   8.431 -0.8020  0.3737 -0.1025
 6921TIP3    H142322   5.258   0.717   8.501  2.0521  0.6945 -1.9958
 6921TIP3    H242323   5.147   0.816   8.473 -1.2075 -1.3747  2.2817
 6922TIP3   OH242324   0.527   0.365   1.738  0.0736  0.8621 -0.4132
 6922TIP3    H142325   0.446   0.416   1.730  0.3220  1.3494  0.1257
 6922TIP3    H242326   0.535   0.320   1.654 -0.0812  1.8028 -0.9438
 6923TIP3   OH242327   1.404   5.422   6.470 -1.0402 -0.0469  0.2747
 6923TIP3    H142328   1.356   5.369   6.407 -1.5607 -0.4827  1.0221
 6923TIP3    H242329   1.373   5.392   6.556 -1.3994  1.4984  0.7270
 6924TIP3   OH242330   1.168   6.737   6.320 -0.2572 -0.1340  0.5774
 6924TIP3    H142331   1.120   6.774   6.394 -1.6249  1.8876 -1.2182
 6924TIP3    H242332   1.161   6.802   6.251  1.1261 -1.8600 -1.3176
 6925TIP3   OH242333   6.009   0.009   1.706 -0.0970  0.6396 -0.5692
 6925TIP3    H142334   6.025   0.104   1.707  0.5777  0.5328 -0.7654
 6925TIP3    H242335   5.979  -0.011   1.795  0.3298  0.9427 -0.3539
 6926TIP3   OH242336   4.401   5.803   7.855 -0.3235  0.6616 -0.0517
 6926TIP3    H142337   4.329   5.743   7.833 -0.2650  0.7645 -0.5312
 6926TIP3    H242338   4.357   5.880   7.891 -0.3454 -0.2439  2.0462
 6927TIP3   OH242339   4.632   0.290   0.624  0.1347  0.4144  0.2142
 6927TIP3    H142340   4.572   0.222   0.593 -0.5312  0.5463  1.1553
 6927TIP3    H242341   4.718   0.249   0.623 -0.2705 -0.4817  0.8696
 6928TIP3   OH242342   3.246   5.554   1.455 -0.1458 -0.5353 -0.7221
 6928TIP3    H142343   3.160   5.556   1.497  0.4467  1.2640  0.5471
 6928TIP3    H242344   3.247   5.630   1.397  0.8685  0.0114 -0.0368
 6929TIP3   OH242345   2.849   2.569   1.498  0.1294 -0.2308 -0.0217
 6929TIP3    H142346   2.820   2.495   1.445 -0.4312 -0.2719  0.3321
 6929TIP3    H242347   2.944   2.560   1.502  0.4622  1.0348 -2.9008
 6930TIP3   OH242348   2.466   3.007   0.252  0.3111  0.3223 -0.3766
 6930TIP3    H142349   2.549   2.987   0.297 -0.4035 -1.2477  0.3314
 6930TIP3    H242350   2.425   2.921   0.239 -1.5287  1.1204 -0.0676
 6931TIP3   OH242351   3.674   5.001   0.098 -0.2077 -0.0184 -0.7088
 6931TIP3    H142352   3.627   5.067   0.046 -0.0673  1.0177  0.4355
 6931TIP3    H242353   3.648   4.917   0.059 -0.9341  0.6639 -1.7652
 6932TIP3   OH242354   0.501   1.773   1.621 -0.4470 -0.3590 -0.0840
 6932TIP3    H142355   0.533   1.830   1.691  1.5248 -0.5964 -0.7301
 6932TIP3    H242356   0.528   1.685   1.648 -1.0004 -0.6360 -0.4202
 6933TIP3   OH242357   2.416   5.832   0.782  0.1284  0.1562 -0.1240
 6933TIP3    H142358   2.439   5.914   0.739  1.0055  0.5445  1.0196
 6933TIP3    H242359   2.393   5.773   0.710  1.4889  0.7865 -1.1276
 6934TIP3   OH242360   1.237   0.722   7.540  0.1432 -0.4904  0.0415
 6934TIP3    H142361   1.197   0.671   7.470 -0.5037 -1.2432  0.9353
 6934TIP3    H242362   1.167   0.734   7.605  0.4487  1.0086  0.1458
 6935TIP3   OH242363   1.348   2.170   1.656  0.0496 -0.0673 -0.0015
 6935TIP3    H142364   1.339   2.183   1.561  0.1315 -0.0189 -0.0026
 6935TIP3    H242365   1.263   2.134   1.683 -0.0724  0.1811 -0.0482
 6936TIP3   OH242366   0.615   0.166   6.555  0.1407  0.0671  0.1373
 6936TIP3    H142367   0.636   0.146   6.464  0.3887  0.4249  0.1139
 6936TIP3    H242368   0.651   0.092   6.604  0.2475  0.0074 -0.0283
 6937TIP3   OH242369   6.354   3.104   1.749  0.6161  0.1372 -0.2343
 6937TIP3    H142370   6.383   3.096   1.659  2.2067  0.7530  0.1786
 6937TIP3    H242371   6.350   3.198   1.765 -0.7310  0.0537  0.0301
 6938TIP3   OH242372   0.967   2.443   6.777 -0.4603  0.3842 -0.1777
 6938TIP3    H142373   0.880   2.403   6.781  0.0955 -0.8477  0.2817
 6938TIP3    H242374   0.960   2.521   6.833 -1.0724 -0.1174  0.4736
 6939TIP3   OH242375   2.362   1.570   1.039 -0.2375 -0.1537 -0.1542
 6939TIP3    H142376   2.345   1.585   0.946  0.3828  0.5807 -0.1623
 6939TIP3    H242377   2.286   1.607   1.083 -0.1365  0.2768 -0.3341
 6940TIP3   OH242378   0.156   0.329   8.002 -0.2407 -0.1576 -0.1013
 6940TIP3    H142379   0.246   0.354   7.981 -0.5968  0.8301 -0.5230
 6940TIP3    H242380   0.149   0.342   8.097 -0.3374  1.1539 -0.2672
 6941TIP3   OH242381   6.254   1.915   8.297  0.1305 -0.5688 -0.4664
 6941TIP3    H142382   6.286   1.840   8.346 -0.9539  0.8089  2.5873
 6941TIP3    H242383   6.174   1.884   8.253 -1.3116 -0.8908  2.1834
 6942TIP3   OH242384   6.078   6.049   8.418 -0.0709  0.0911  0.1274
 6942TIP3    H142385   6.085   6.105   8.495 -0.1144  0.6993 -0.3014
 6942TIP3    H242386   6.105   5.963   8.449 -1.1351  0.0745  1.0802
 6943TIP3   OH242387   2.404   3.200   1.938  0.0774 -0.0909  0.2518
 6943TIP3    H142388   2.366   3.285   1.962  1.8602  0.7249  0.3355
 6943TIP3    H242389   2.328   3.143   1.925 -1.3795  2.1986 -2.5739
 6944TIP3   OH242390   2.768   6.110   6.650  0.0088 -0.0482 -0.3130
 6944TIP3    H142391   2.765   6.109   6.746  0.3919  0.0445 -0.2995
 6944TIP3    H242392   2.735   6.197   6.627  0.6822  0.2372 -0.2328
 6945TIP3   OH242393   5.344   1.989   0.383 -0.2297 -0.0423  0.8326
 6945TIP3    H142394   5.404   1.950   0.446 -0.3020  0.0257  0.9432
 6945TIP3    H242395   5.324   2.075   0.419  0.5052  0.3973  0.2241
 6946TIP3   OH242396   3.018   0.019   7.615  0.5224  0.3395  0.4442
 6946TIP3    H142397   3.017   0.071   7.695 -0.1690  0.6325  0.2504
 6946TIP3    H242398   3.014   0.083   7.544 -1.3125  0.0335  0.2130
 6947TIP3   OH242399   6.910   5.496   2.047 -0.0698 -0.3924  0.1230
 6947TIP3    H142400   6.858   5.426   2.085  0.1488 -0.9498 -0.5847
 6947TIP3    H242401   6.865   5.518   1.966 -2.7803  3.4510  2.3476
 6948TIP3   OH242402   2.010   2.111   7.954  0.0802  0.1207 -0.4361
 6948TIP3    H142403   2.030   2.175   8.022 -1.4329 -1.2895  1.4336
 6948TIP3    H242404   2.057   2.032   7.981 -0.3652 -0.4145 -1.1820
 6949TIP3   OH242405   4.519   1.528   7.380  0.0541  0.8408 -0.1863
 6949TIP3    H142406   4.508   1.500   7.471  0.2499  0.2893 -0.3299
 6949TIP3    H242407   4.536   1.622   7.386  0.0708  0.8069  0.3454
 6950TIP3   OH242408   4.263   6.531   7.369  0.4026  0.5295 -0.6490
 6950TIP3    H142409   4.269   6.510   7.276  1.7802  1.0988 -0.7096
 6950TIP3    H242410   4.180   6.491   7.397  0.7314 -1.0255 -1.7574
 6951TIP3   OH242411   5.566   5.663   6.698 -0.3554  0.3249 -0.1674
 6951TIP3    H142412   5.531   5.575   6.682  0.9476 -0.2800  0.2468
 6951TIP3    H242413   5.627   5.679   6.626  0.6307  0.2248  0.6251
 6952TIP3   OH242414   1.022   2.766   7.114  0.2927 -0.8175  0.1737
 6952TIP3    H142415   0.965   2.781   7.190 -0.5596  1.1058 -0.7670
 6952TIP3    H242416   0.967   2.717   7.053 -0.1589  0.3998 -0.4369
 6953TIP3   OH242417   3.340   2.379   1.609 -0.3481 -0.3062  0.7556
 6953TIP3    H142418   3.338   2.370   1.704 -1.1539  1.3314  0.9288
 6953TIP3    H242419   3.419   2.430   1.591 -0.9255  0.5937  0.6960
 6954TIP3   OH242420   3.985   0.220   7.120 -0.1154 -0.3611 -0.1407
 6954TIP3    H142421   3.917   0.285   7.103 -0.3407 -0.7456 -0.7337
 6954TIP3    H242422   4.064   0.271   7.136 -0.1128  0.0483 -1.3768
 6955TIP3   OH242423   4.825   3.793   8.225 -0.0013 -0.0910  0.2526
 6955TIP3    H142424   4.859   3.705   8.236  2.1097  0.6443  0.0323
 6955TIP3    H242425   4.730   3.783   8.231  0.1484 -2.4471 -0.4072
 6956TIP3   OH242426   3.433   3.107   0.868 -0.1731 -0.7372 -0.0293
 6956TIP3    H142427   3.526   3.085   0.881  1.0607  1.1812 -3.9188
 6956TIP3    H242428   3.415   3.172   0.936  1.3797 -1.0680  0.7541
 6957TIP3   OH242429   5.502   3.766   1.185 -0.3045 -0.3051 -0.5353
 6957TIP3    H142430   5.503   3.673   1.210 -2.3274  0.0516  1.1982
 6957TIP3    H242431   5.532   3.811   1.264  2.1075  0.5201 -1.8334
 6958TIP3   OH242432   6.329   5.524   0.854 -0.2431  0.7558 -0.0952
 6958TIP3    H142433   6.387   5.592   0.822  0.3639  0.3503  0.1285
 6958TIP3    H242434   6.255   5.571   0.893  0.5919  1.2892  0.8573
 6959TIP3   OH242435   5.320   6.537   2.069  0.1399 -0.4966 -0.3558
 6959TIP3    H142436   5.249   6.599   2.052  1.9223  1.2082 -2.0978
 6959TIP3    H242437   5.368   6.574   2.143 -0.2251 -1.1656  0.2292
 6960TIP3   OH242438   1.531   4.453   1.086  0.1220 -0.1228 -0.3100
 6960TIP3    H142439   1.520   4.513   1.012  0.9099 -0.1630 -0.4793
 6960TIP3    H242440   1.535   4.366   1.045 -1.1086 -0.3097 -0.0584
 6961TIP3   OH242441   3.134   5.406   0.500 -0.4480  0.0014  0.1631
 6961TIP3    H142442   3.160   5.317   0.474  0.0833  0.2056 -0.0358
 6961TIP3    H242443   3.109   5.448   0.418 -1.9266 -0.3438  0.4172
 6962TIP3   OH242444   0.414   3.801   7.729  0.3538 -0.2535 -0.6187
 6962TIP3    H142445   0.490   3.828   7.677 -0.8799  2.7182 -1.1082
 6962TIP3    H242446   0.445   3.803   7.820  0.4077  3.4419 -0.5615
 6963TIP3   OH242447   6.759   2.950   0.845  0.3280  0.2318  0.1500
 6963TIP3    H142448   6.815   3.019   0.880  0.0290  0.3511  0.4003
 6963TIP3    H242449   6.815   2.901   0.784  0.2917  1.2335 -0.7059
 6964TIP3   OH242450   1.128   2.024   1.739 -0.4688  0.3525 -0.4117
 6964TIP3    H142451   1.034   2.016   1.754 -0.2221 -0.4554  0.8112
 6964TIP3    H242452   1.161   1.935   1.747  0.3549  0.5627 -1.2909
 6965TIP3   OH242453   6.413   5.578   0.472 -0.2867 -0.1011  0.7547
 6965TIP3    H142454   6.500   5.594   0.435 -0.2730  1.0085  1.2178
 6965TIP3    H242455   6.420   5.493   0.515 -0.0523 -1.0052 -1.0186
 6966TIP3   OH242456   3.166   0.266   1.039  0.4161 -0.4045 -0.8562
 6966TIP3    H142457   3.123   0.317   1.107  2.0826 -0.3141  0.1649
 6966TIP3    H242458   3.147   0.175   1.061 -0.7211 -0.3283 -1.4398
 6967TIP3   OH242459   6.299   2.717   1.537  0.2293 -0.1935 -0.0287
 6967TIP3    H142460   6.289   2.753   1.449  0.3286 -0.8273 -0.3053
 6967TIP3    H242461   6.235   2.766   1.590 -0.1063 -0.0772 -0.5313
 6968TIP3   OH242462   3.064   5.271   7.978 -0.5145 -0.0891 -0.0131
 6968TIP3    H142463   3.085   5.205   8.045 -1.8323 -0.5291  0.0045
 6968TIP3    H242464   2.973   5.294   7.996  0.2446  2.6954  0.7589
 6969TIP3   OH242465   6.683   5.441   1.865  0.0044  0.3217  0.5236
 6969TIP3    H142466   6.589   5.448   1.845  0.0660  2.3169  0.7324
 6969TIP3    H242467   6.725   5.427   1.780 -0.3313  1.6701  0.1037
 6970TIP3   OH242468   1.718   6.030   8.493 -0.1801 -0.6982  1.4057
 6970TIP3    H142469   1.768   6.073   8.563 -0.3794  2.6771 -0.3291
 6970TIP3    H242470   1.783   6.015   8.424 -0.9862  1.9120 -0.0766
 6971TIP3   OH242471   5.038   5.753   1.353  0.2695 -0.0677  0.0184
 6971TIP3    H142472   5.131   5.757   1.329  0.3462 -1.4449  0.0035
 6971TIP3    H242473   4.996   5.706   1.280 -0.3958  0.3129  0.1487
 6972TIP3   OH242474   6.422   5.362   0.257 -0.2510  0.1154  0.1280
 6972TIP3    H142475   6.328   5.377   0.267 -0.1690  0.7791 -0.0632
 6972TIP3    H242476   6.455   5.441   0.213  0.6248  0.4906  1.3979
 6973TIP3   OH242477   2.156   2.577   6.973 -0.1438  0.0664  0.4691
 6973TIP3    H142478   2.172   2.610   6.885 -0.6290 -0.4636  0.1800
 6973TIP3    H242479   2.165   2.654   7.029 -0.8604  0.6132 -0.1490
 6974TIP3   OH242480   2.455   5.101   1.586 -0.2572  0.1120  0.7033
 6974TIP3    H142481   2.415   5.155   1.653  2.1876  0.9632  1.5834
 6974TIP3    H242482   2.488   5.163   1.521  0.4473 -0.4656  0.4934
 6975TIP3   OH242483   3.390   4.103   7.263  0.1364  0.1573  0.3280
 6975TIP3    H142484   3.365   4.174   7.204 -1.5435  0.6203  1.5260
 6975TIP3    H242485   3.354   4.024   7.222  0.5746  0.2121 -0.1740
 6976TIP3   OH242486   1.846   3.113   1.094  0.0498  0.0566 -0.2104
 6976TIP3    H142487   1.890   3.192   1.061  0.5782  0.2215  0.8582
 6976TIP3    H242488   1.879   3.042   1.039 -0.1692  0.5247 -0.9613
 6977TIP3   OH242489   5.809   4.774   7.764 -0.0909  0.3022 -0.0274
 6977TIP3    H142490   5.859   4.702   7.724 -0.1081  1.0082 -1.3894
 6977TIP3    H242491   5.823   4.764   7.858 -0.1461 -1.5197 -0.1777
 6978TIP3   OH242492   6.748   5.994   8.048  0.0731  0.0550  0.4398
 6978TIP3    H142493   6.681   5.997   7.980 -0.7636  0.8627  1.2839
 6978TIP3    H242494   6.795   6.077   8.039 -1.5132  1.2189  2.2794
 6979TIP3   OH242495   1.369   6.091   2.527  0.3731  0.3348  0.1310
 6979TIP3    H142496   1.378   6.046   2.443  0.5843  0.2382  0.2043
 6979TIP3    H242497   1.436   6.051   2.583 -0.3613 -0.2221  0.6259
 6980TIP3   OH242498   6.842   5.131   7.850 -0.2166  0.8415  0.8617
 6980TIP3    H142499   6.877   5.206   7.803  1.2038 -0.3806 -0.1473
 6980TIP3    H242500   6.901   5.119   7.924 -0.2779  0.5725  0.8693
 6981TIP3   OH242501   1.854   6.525   1.685  0.8323 -0.0562 -0.1449
 6981TIP3    H142502   1.813   6.524   1.772  0.4286 -0.5213 -0.3374
 6981TIP3    H242503   1.825   6.443   1.644  1.2155  0.0486 -0.6293
 6982TIP3   OH242504   0.045   6.458   7.496 -0.1389 -0.2012 -0.3518
 6982TIP3    H142505   0.025   6.457   7.590  1.4803 -0.9188  0.0080
 6982TIP3    H242506   0.102   6.534   7.484 -0.4298 -0.0468 -0.7932
 6983TIP3   OH242507   4.152   4.537   8.087  0.1457 -0.6988 -0.5105
 6983TIP3    H142508   4.080   4.600   8.081  0.3020 -0.4132  0.4530
 6983TIP3    H242509   4.178   4.522   7.996 -1.3914 -1.1253 -0.9045
 6984TIP3   OH242510   3.947   4.890   1.326 -0.4033 -0.0048  0.2888
 6984TIP3    H142511   3.930   4.892   1.232  2.5261 -0.8242 -0.3539
 6984TIP3    H242512   3.928   4.800   1.352  1.6241 -0.6266 -0.2113
 6985TIP3   OH242513   2.767   2.549   7.580 -0.2315  0.3719 -0.3640
 6985TIP3    H142514   2.847   2.500   7.600 -1.3323 -0.8244  1.3612
 6985TIP3    H242515   2.789   2.599   7.501  2.2714  0.2485  0.1657
 6986TIP3   OH242516   1.343   0.467   2.310  0.7245 -0.4116 -0.1546
 6986TIP3    H142517   1.413   0.495   2.252  1.0730 -0.7737  0.0854
 6986TIP3    H242518   1.364   0.376   2.332  1.1515  0.0152  1.3293
 6987TIP3   OH242519   0.130   3.005   0.255  0.3555  0.3280 -0.1103
 6987TIP3    H142520   0.151   3.090   0.293 -0.9471  0.0501  1.2766
 6987TIP3    H242521   0.147   2.942   0.325 -0.6820 -0.3451 -0.4419
 6988TIP3   OH242522   3.881   5.626   1.880  0.1682 -0.8742 -0.6543
 6988TIP3    H142523   3.937   5.593   1.949 -0.9984 -0.2182  0.6584
 6988TIP3    H242524   3.909   5.716   1.867 -0.1506 -0.7373 -0.4271
 6989TIP3   OH242525   0.989   2.236   2.671  0.0788 -0.5162  0.1416
 6989TIP3    H142526   0.894   2.246   2.677 -0.1776 -1.4583 -1.5226
 6989TIP3    H242527   1.001   2.162   2.611  1.8567  0.8673 -1.3496
 6990TIP3   OH242528   1.773   1.996   1.714 -0.1441 -0.0589 -0.4986
 6990TIP3    H142529   1.761   2.019   1.806 -0.7332 -0.8390 -0.3713
 6990TIP3    H242530   1.831   2.064   1.680 -2.1060  1.8562 -0.2294
 6991TIP3   OH242531   6.899   5.547   1.527  0.2746  1.1412 -0.2028
 6991TIP3    H142532   6.840   5.588   1.590 -0.5087 -0.6622  0.3233
 6991TIP3    H242533   6.848   5.541   1.446 -0.2166 -0.1707  0.1748
 6992TIP3   OH242534   3.683   6.012   8.477 -0.0527 -0.1864  0.1312
 6992TIP3    H142535   3.648   5.984   8.392  1.2931  0.0668 -0.5264
 6992TIP3    H242536   3.776   6.026   8.462  0.9713 -3.4361  2.4727
 6993TIP3   OH242537   6.323   2.947   7.519  0.2950  0.5349 -0.1877
 6993TIP3    H142538   6.314   2.901   7.602  0.4454 -0.2969 -0.6261
 6993TIP3    H242539   6.417   2.946   7.501  0.0743 -1.2736 -1.4584
 6994TIP3   OH242540   4.219   1.976   1.619  0.1688  0.1116 -0.0363
 6994TIP3    H142541   4.219   2.005   1.710  0.8006  0.7522 -0.2219
 6994TIP3    H242542   4.128   1.956   1.600 -0.0010  0.1792  0.6706
 6995TIP3   OH242543   0.750   5.879   1.211 -0.0041 -0.3580  0.0432
 6995TIP3    H142544   0.743   5.785   1.194  0.8121 -0.6948  1.4229
 6995TIP3    H242545   0.738   5.920   1.125  0.6404 -1.7747 -0.7538
 6996TIP3   OH242546   3.914   6.111   0.592 -0.2680 -0.3773  0.1939
 6996TIP3    H142547   3.862   6.154   0.523 -1.5924 -0.6506  0.9723
 6996TIP3    H242548   3.939   6.182   0.651 -0.5908 -0.3611  0.3178
 6997TIP3   OH242549   3.043   4.719   8.060 -0.1239 -0.2363 -0.3256
 6997TIP3    H142550   3.123   4.725   8.112  0.6227 -2.7745 -1.0382
 6997TIP3    H242551   3.010   4.809   8.056  1.2730  0.4746  2.1342
 6998TIP3   OH242552   1.249   1.308   7.727  0.1146  0.2815  0.1024
 6998TIP3    H142553   1.288   1.384   7.771  0.7712 -0.9601  1.7695
 6998TIP3    H242554   1.289   1.308   7.639  2.3271  0.2650  1.0451
 6999TIP3   OH242555   0.058   2.230   8.403  0.3676  0.5425 -0.6140
 6999TIP3    H142556   0.115   2.173   8.350  2.6019  1.3971  0.7236
 6999TIP3    H242557   0.080   2.319   8.374 -0.3869  0.8850 -0.1510
 7000TIP3   OH242558   5.037   2.029   1.974 -0.5390  0.2632 -0.2087
 7000TIP3    H142559   5.006   1.985   1.895  2.3704 -1.8438 -0.3865
 7000TIP3    H242560   5.047   1.958   2.038  0.1323  1.4032  1.0025
 7001TIP3   OH242561   4.584   2.960   7.725 -0.0907  0.5601 -0.2970
 7001TIP3    H142562   4.577   2.878   7.773 -1.3711  0.2990 -0.8595
 7001TIP3    H242563   4.574   2.934   7.633 -0.1975  1.3022 -0.5022
 7002TIP3   OH242564   4.924   5.807   1.079 -0.4654  0.0745  0.2440
 7002TIP3    H142565   4.992   5.746   1.049 -2.2580 -2.3263  0.7018
 7002TIP3    H242566   4.866   5.818   1.003 -0.4385  0.8040  0.3251
 7003TIP3   OH242567   1.142   6.838   0.548 -0.1687  0.2724 -0.4153
 7003TIP3    H142568   1.235   6.832   0.530 -0.0450  0.4459  0.1518
 7003TIP3    H242569   1.102   6.774   0.489  0.1312  1.4450 -1.9466
 7004TIP3   OH242570   0.713   1.163   2.025  0.3069  0.2237 -0.5771
 7004TIP3    H142571   0.805   1.142   2.044  0.6394  2.0132  0.0625
 7004TIP3    H242572   0.666   1.138   2.104  0.7334  1.9018  0.2711
 7005TIP3   OH242573   0.541   5.136   8.547  0.0946  0.5395 -0.3369
 7005TIP3    H142574   0.457   5.153   8.505  0.2754  1.0646 -0.4905
 7005TIP3    H242575   0.519   5.122   8.639 -0.4897 -2.1090 -0.7838
 7006TIP3   OH242576   6.711   6.260   0.144  0.1340 -0.2856 -0.3931
 7006TIP3    H142577   6.703   6.194   0.075  0.5994 -0.6117 -0.1441
 7006TIP3    H242578   6.719   6.343   0.097  1.5219 -0.6090 -0.7794
 7007TIP3   OH242579   3.485   1.461   1.554 -0.3183  0.1501 -0.4345
 7007TIP3    H142580   3.402   1.484   1.596 -0.2896  1.2953 -0.9668
 7007TIP3    H242581   3.483   1.365   1.548 -2.0267  0.2008 -1.2718
 7008TIP3   OH242582   0.376   3.808   0.076 -0.3644 -0.2694 -0.0102
 7008TIP3    H142583   0.314   3.866   0.032  0.7003 -0.3194 -1.6748
 7008TIP3    H242584   0.339   3.720   0.066 -1.1398 -0.0805  1.0346
 7009TIP3   OH242585   1.194   6.345   7.860  0.0259  0.3519 -0.2388
 7009TIP3    H142586   1.248   6.328   7.938 -1.0795  2.0669  0.9707
 7009TIP3    H242587   1.250   6.321   7.786  1.6844  0.1598  1.0295
 7010TIP3   OH242588   2.202   6.498   0.559 -0.1079  0.4275  0.0907
 7010TIP3    H142589   2.229   6.463   0.644  0.6009 -1.0686 -0.7133
 7010TIP3    H242590   2.237   6.587   0.558 -0.2368  0.5139  1.4112
 7011TIP3   OH242591   5.793   0.291   0.994 -0.4821 -0.7797  0.2325
 7011TIP3    H142592   5.853   0.274   1.067 -1.0692 -0.4900  0.7902
 7011TIP3    H242593   5.813   0.381   0.968  0.0784 -1.0477 -0.3136
 7012TIP3   OH242594   3.491   3.018   7.626  0.1511  0.4833 -0.3329
 7012TIP3    H142595   3.570   2.994   7.577  0.5474 -0.2605  0.6367
 7012TIP3    H242596   3.496   2.965   7.706 -1.6906 -0.0862 -0.5665
 7013TIP3   OH242597   2.779   0.341   7.317 -0.2567  0.0938 -0.5384
 7013TIP3    H142598   2.704   0.327   7.260  1.1444 -0.7750 -2.2792
 7013TIP3    H242599   2.817   0.423   7.286 -1.0569  1.1324  1.0742
 7014TIP3   OH242600   5.436   3.055   1.047 -0.1008  0.1599  0.1367
 7014TIP3    H142601   5.528   3.026   1.048 -0.0558  0.3011  1.6576
 7014TIP3    H242602   5.442   3.150   1.037 -0.0693  0.2121  0.6559
 7015TIP3   OH242603   6.628   2.652   0.535  0.2845  0.3156  0.0132
 7015TIP3    H142604   6.609   2.564   0.567  1.0640 -0.0440 -0.4814
 7015TIP3    H242605   6.559   2.707   0.573 -1.7841 -0.9027 -1.7078
 7016TIP3   OH242606   6.473   5.030   7.017 -0.1573  0.3004 -0.2129
 7016TIP3    H142607   6.521   5.043   6.935  0.7415  2.6229  0.5913
 7016TIP3    H242608   6.535   4.986   7.074  0.3585  1.5200  0.1932
 7017TIP3   OH242609   1.871   3.011   7.961  0.1813  0.4717 -0.0131
 7017TIP3    H142610   1.820   2.938   7.926 -0.6019  0.5141  0.9853
 7017TIP3    H242611   1.821   3.089   7.938 -0.0608  0.5356  0.7092
 7018TIP3   OH242612   4.876   2.268   7.779  0.5553  0.3046 -0.1854
 7018TIP3    H142613   4.801   2.253   7.837  0.9293 -0.2016  0.1842
 7018TIP3    H242614   4.881   2.363   7.768  2.0978  0.6915  2.8375
 7019TIP3   OH242615   4.692   3.504   0.713  0.4022 -0.8188 -0.1729
 7019TIP3    H142616   4.625   3.437   0.699 -0.3206 -0.3719  1.0105
 7019TIP3    H242617   4.673   3.539   0.800  2.3318 -0.8482  0.3066
 7020TIP3   OH242618   3.553   3.523   7.906 -0.0237  0.1912 -0.1742
 7020TIP3    H142619   3.555   3.444   7.958  0.5240  0.3223  0.0066
 7020TIP3    H242620   3.576   3.495   7.817 -2.0374 -0.2168 -0.6108
 7021TIP3   OH242621   4.685   1.336   7.218  0.5635  0.0212  0.2851
 7021TIP3    H142622   4.629   1.355   7.293  0.0808  0.6820 -0.2320
 7021TIP3    H242623   4.652   1.393   7.149  1.9819  0.5566  0.0161
 7022TIP3   OH242624   0.187   4.107   0.205 -0.1277 -0.2950  0.1577
 7022TIP3    H142625   0.135   4.050   0.148  0.9108 -0.1467 -0.9714
 7022TIP3    H242626   0.141   4.104   0.289 -0.9629 -1.5640 -0.3054
 7023TIP3   OH242627   2.353   5.197   0.069  0.0013  0.0789 -0.7125
 7023TIP3    H142628   2.364   5.127   0.134  1.2793 -1.4523 -2.4786
 7023TIP3    H242629   2.337   5.276   0.122  2.2435 -0.8299  1.5510
 7024TIP3   OH242630   6.315   0.973   7.589 -0.3885  0.7944 -0.4721
 7024TIP3    H142631   6.357   0.888   7.606  0.9441  1.2862 -1.1836
 7024TIP3    H242632   6.341   1.027   7.663 -1.7717  0.4387  0.3229
 7025TIP3   OH242633   1.618   3.181   7.920  0.0328 -0.2002  0.4122
 7025TIP3    H142634   1.631   3.200   7.827 -0.1808 -1.1275  0.1758
 7025TIP3    H242635   1.546   3.238   7.946 -0.2397 -0.2863 -0.1266
 7026TIP3   OH242636   6.209   1.341   8.411  0.3729 -0.5519  0.2096
 7026TIP3    H142637   6.204   1.338   8.507  0.8666 -3.7230  0.2267
 7026TIP3    H242638   6.125   1.378   8.384  0.2772  0.5358  1.8263
 7027TIP3   OH242639   0.161   3.927   7.684  0.2959  0.3554  0.5190
 7027TIP3    H142640   0.250   3.896   7.698  0.6086  0.4489 -1.0232
 7027TIP3    H242641   0.170   4.022   7.674  0.0587  0.3459  0.1864
 7028TIP3   OH242642   1.463   6.663   1.943  0.3414 -0.0412 -0.3368
 7028TIP3    H142643   1.400   6.612   1.893  1.3416 -0.2399 -1.4608
 7028TIP3    H242644   1.444   6.643   2.034 -1.3090  0.0427 -0.6268
 7029TIP3   OH242645   6.719   3.986   7.543  0.5330 -0.7402 -0.3204
 7029TIP3    H142646   6.688   4.009   7.456  2.0570  0.3725 -0.6208
 7029TIP3    H242647   6.812   4.009   7.542  0.5581 -0.5749  1.6333
 7030TIP3   OH242648   4.970   1.615   7.140 -0.5043  0.4838 -0.7350
 7030TIP3    H142649   4.981   1.678   7.069  1.0971 -1.0162 -1.9149
 7030TIP3    H242650   4.978   1.529   7.097  1.6037 -0.4859  1.3764
 7031TIP3   OH242651   5.005   5.829   7.535 -0.0964 -0.6010  0.0790
 7031TIP3    H142652   5.095   5.822   7.503  0.3193  1.8334  0.4775
 7031TIP3    H242653   4.952   5.837   7.455  0.0316 -1.8205 -0.1481
 7032TIP3   OH242654   2.098   5.168   2.115  0.1098 -0.7028  0.0226
 7032TIP3    H142655   2.076   5.186   2.207 -0.8127 -0.6296 -0.2022
 7032TIP3    H242656   2.029   5.211   2.065  0.9565 -0.2104 -0.7385
 7033TIP3   OH242657   1.279   5.231   0.305  0.5695 -0.0767  0.2016
 7033TIP3    H142658   1.335   5.299   0.268 -0.4323  0.5814 -0.1576
 7033TIP3    H242659   1.247   5.182   0.229 -0.9862  0.8761  0.1877
 7034TIP3   OH242660   6.685   5.782   0.639  0.1459 -0.4107  0.2218
 7034TIP3    H142661   6.615   5.752   0.697  1.4588 -3.1240  0.5498
 7034TIP3    H242662   6.751   5.818   0.699  1.3031 -2.7972  0.4786
 7035TIP3   OH242663   1.688   5.471   7.143  0.6377 -0.0745 -0.0063
 7035TIP3    H142664   1.630   5.547   7.145 -0.4413 -0.9001  0.6259
 7035TIP3    H242665   1.701   5.449   7.235  2.3192  0.3418 -0.1024
 7036TIP3   OH242666   4.813   2.402   2.398  0.6317 -0.2336  0.8686
 7036TIP3    H142667   4.838   2.475   2.455  1.4034 -0.5215  0.9209
 7036TIP3    H242668   4.895   2.376   2.356  0.3991 -1.1737  0.9702
 7037TIP3   OH242669   1.387   4.934   1.543 -0.1153  0.1758 -0.0130
 7037TIP3    H142670   1.401   4.892   1.628 -0.8804 -2.6246 -1.1424
 7037TIP3    H242671   1.292   4.928   1.529 -0.0555  1.0238 -0.8746
 7038TIP3   OH242672   5.270   3.034   7.603  0.2115  0.4382 -0.2154
 7038TIP3    H142673   5.257   3.117   7.647  1.9701  0.6546 -0.0313
 7038TIP3    H242674   5.237   3.048   7.514 -0.7651  0.8802  0.2113
 7039TIP3   OH242675   0.189   3.247   0.803  0.2151 -0.1918 -0.2280
 7039TIP3    H142676   0.262   3.194   0.835 -0.4696  0.6967  3.1810
 7039TIP3    H242677   0.129   3.183   0.764  0.5168 -1.6876  1.5747
 7040TIP3   OH242678   4.325   0.561   8.310 -0.4247  0.2088  0.5678
 7040TIP3    H142679   4.376   0.491   8.270  0.1816 -0.3747  2.2817
 7040TIP3    H242680   4.286   0.521   8.388 -0.1588  1.7200  1.5178
 7041TIP3   OH242681   6.585   2.664   2.707 -0.4596  0.1701 -0.4887
 7041TIP3    H142682   6.593   2.586   2.762  2.0496  0.1381 -0.7983
 7041TIP3    H242683   6.514   2.715   2.748  0.2384 -0.5955  1.8220
 7042TIP3   OH242684   0.322   5.389   8.189  0.0888  0.4743 -0.4930
 7042TIP3    H142685   0.407   5.373   8.146 -0.3618  0.9821 -1.6179
 7042TIP3    H242686   0.332   5.351   8.276  0.4058 -2.3985 -1.6653
 7043TIP3   OH242687   6.733   4.051   7.260  0.3307  0.1278  0.3162
 7043TIP3    H142688   6.658   3.996   7.238 -0.6457  1.3104  0.5145
 7043TIP3    H242689   6.806   3.991   7.269 -0.6355 -1.0922  0.2756
 7044TIP3   OH242690   3.343   0.606   0.185  0.8488  0.0876 -0.4814
 7044TIP3    H142691   3.402   0.676   0.156 -0.4371  1.5852  0.3886
 7044TIP3    H242692   3.402   0.536   0.213  2.1811  0.8748 -1.1599
 7045TIP3   OH242693   4.725   3.194   7.827 -0.3702  0.7514 -0.2162
 7045TIP3    H142694   4.691   3.199   7.917  1.5162 -1.0805  0.6781
 7045TIP3    H242695   4.675   3.124   7.786 -0.1596  0.5267 -0.0884
 7046TIP3   OH242696   1.254   3.141   8.149  0.0214 -0.1591 -0.6695
 7046TIP3    H142697   1.190   3.070   8.141 -1.6770  1.3662 -1.4372
 7046TIP3    H242698   1.201   3.221   8.150  1.9659  1.3100 -3.0877
 7047TIP3   OH242699   4.764   0.075   7.923  0.6492 -0.1583 -0.0577
 7047TIP3    H142700   4.737   0.137   7.855 -0.5540 -2.4643 -1.8148
 7047TIP3    H242701   4.759  -0.011   7.881  2.4554 -1.4780  2.1977
 7048TIP3   OH242702   3.493   0.021   7.165 -0.9625 -0.2855  0.1347
 7048TIP3    H142703   3.575  -0.023   7.186 -0.9799  0.0221  0.8638
 7048TIP3    H242704   3.456  -0.030   7.093  0.1646 -0.0621 -0.6255
 7049TIP3   OH242705   2.673   2.878   2.142 -0.4795 -0.0132 -0.3494
 7049TIP3    H142706   2.649   2.971   2.146  0.5037  0.3024 -1.1752
 7049TIP3    H242707   2.622   2.837   2.212  4.7313  2.3449  5.7602
 7050TIP3   OH242708   6.664   4.575   0.277 -0.2727  0.5441 -0.1838
 7050TIP3    H142709   6.715   4.526   0.212  0.5849 -0.9026  1.4741
 7050TIP3    H242710   6.577   4.534   0.275 -0.5734  1.1933 -1.1008
 7051TIP3   OH242711   5.624   6.714   1.618 -0.2611 -0.2670  0.4390
 7051TIP3    H142712   5.708   6.746   1.586 -0.3201 -1.5899 -1.1628
 7051TIP3    H242713   5.573   6.793   1.635  0.1848  0.5486 -1.7144
 7052TIP3   OH242714   1.476   3.013   7.390 -0.4448 -0.0162  0.0565
 7052TIP3    H142715   1.465   3.106   7.406  2.5749  0.1662  1.7147
 7052TIP3    H242716   1.500   3.007   7.298 -0.3280  0.8525  0.0248
 7053TIP3   OH242717   5.704   4.513   0.651 -0.3128 -0.0554 -0.7518
 7053TIP3    H142718   5.759   4.583   0.685 -1.0460  0.2288 -0.1170
 7053TIP3    H242719   5.617   4.551   0.646 -1.0973 -1.3921  1.2844
 7054TIP3   OH242720   3.818   2.057   7.167  0.1186 -0.5327 -0.0383
 7054TIP3    H142721   3.907   2.062   7.130 -0.6299  0.7039 -1.8151
 7054TIP3    H242722   3.798   1.963   7.169  1.7089 -0.8958  1.1116
 7055TIP3   OH242723   4.410   3.790   7.147 -0.5327  0.3769  1.1963
 7055TIP3    H142724   4.437   3.873   7.107  1.5170 -0.7649  0.1012
 7055TIP3    H242725   4.353   3.749   7.082  1.1442 -0.5369  0.2312
 7056TIP3   OH242726   2.895   6.119   1.163  0.1137  0.5833  0.1994
 7056TIP3    H142727   2.935   6.120   1.250 -0.0534  1.2960  0.2697
 7056TIP3    H242728   2.942   6.186   1.114 -2.3541  3.0023  0.9114
 7057TIP3   OH242729   4.329   2.056   0.799 -0.0818  0.2366 -0.0771
 7057TIP3    H142730   4.336   2.034   0.892 -0.5537 -1.1381 -0.3438
 7057TIP3    H242731   4.273   2.133   0.797  0.5179  0.7187  0.8197
 7058TIP3   OH242732   0.286   5.356   3.401  0.3461 -0.1231 -0.0466
 7058TIP3    H142733   0.199   5.320   3.416  0.7238 -1.2259 -0.3586
 7058TIP3    H242734   0.278   5.408   3.321 -0.3588  1.0335  0.7589
 7059TIP3   OH242735   2.301   0.801   7.564 -0.1219  0.2791 -0.0710
 7059TIP3    H142736   2.291   0.880   7.511  1.7291 -0.4027 -1.5772
 7059TIP3    H242737   2.341   0.832   7.645 -1.4496  1.1454  0.2682
 7060TIP3   OH242738   1.375   3.352   0.937  0.2685 -0.1367  0.3878
 7060TIP3    H142739   1.469   3.335   0.933 -0.0084 -1.4487 -1.3181
 7060TIP3    H242740   1.336   3.270   0.967 -0.4676 -0.2337 -0.7509
 7061TIP3   OH242741   5.206   4.452   7.317  0.2095 -0.0749  0.5747
 7061TIP3    H142742   5.291   4.414   7.298  0.3653  0.8787 -0.8168
 7061TIP3    H242743   5.147   4.377   7.325  0.7770 -0.6774 -0.6416
 7062TIP3   OH242744   3.816   5.404   1.498 -0.3946  0.1257 -0.0385
 7062TIP3    H142745   3.828   5.311   1.483  0.2926  0.4702 -1.8292
 7062TIP3    H242746   3.889   5.446   1.452 -0.7698  1.5594  0.6033
 7063TIP3   OH242747   4.026   2.350   2.084 -0.0417 -0.0145 -0.1826
 7063TIP3    H142748   4.121   2.349   2.068 -0.0344  1.3924 -0.3221
 7063TIP3    H242749   4.019   2.358   2.179 -0.0514 -1.2655 -0.0552
 7064LIG     O142750   1.621   0.683   0.915 -0.2269 -0.7988 -0.8513
 7064LIG     O242751   1.582   1.064   1.166 -0.2434 -0.0240 -0.1335
 7064LIG     N142752   1.393   0.995   1.051 -0.4494 -0.2702  0.5413
 7064LIG     N242753   1.341   0.746   0.791  0.1028  0.0210 -0.0054
 7064LIG     N342754   1.599   0.871   1.036  0.6784  0.0885 -0.5955
 7064LIG     N442755   1.239   0.928   0.877  0.0067  0.6417 -0.4175
 7064LIG     C142756   1.420   0.802   0.889 -0.6126  0.0386 -0.1665
 7064LIG     C242757   1.354   0.916   0.938  0.2597  0.6106  0.1726
 7064LIG     C342758   1.547   0.778   0.942  0.1278  0.6027 -0.1989
 7064LIG     C442759   1.531   0.981   1.086  0.4420 -0.2260  0.3038
 7064LIG     C542760   1.230   0.826   0.789 -0.7700 -0.4892  0.2286
 7064LIG     C642761   1.328   1.114   1.097 -0.3371  0.3118  0.4290
 7064LIG     C742762   1.372   0.628   0.710 -0.5983 -0.1783  0.4928
 7064LIG     C842763   1.737   0.860   1.083 -0.1972  0.2593  0.1205
 7064LIG     H142764   1.149   0.815   0.716 -0.7703 -2.1259  0.4495
 7064LIG     H242765   1.374   1.206   1.056  0.2682 -0.0603  0.2726
 7064LIG     H342766   1.335   1.124   1.208  2.6657 -1.8201  0.5414
 7064LIG     H442767   1.223   1.115   1.061  0.0828  0.7675 -0.8220
 7064LIG     H542768   1.345   0.536   0.766 -0.4309  0.1206  1.0720
 7064LIG     H642769   1.473   0.625   0.665  0.1316 -1.5210  2.1157
 7064LIG     H742770   1.305   0.642   0.623 -0.5083  1.7789  0.6922
 7064LIG     H842771   1.748   0.824   1.187  1.1664  0.3848  0.0356
 7064LIG     H942772   1.787   0.959   1.072  0.0823  0.1134  0.0963
 7064LIG    H1042773   1.799   0.796   1.017  3.0170  1.7119  1.5104
   6.91543   6.91543   8.56287
