;;
;; Generated by CHARMM-GUI (http://www.charmm-gui.org) v1.7
;;
;; psf2itp_mol.py
;;
;; Correspondance:
;; jul316@lehigh.edu or wonpil@lehigh.edu
;;
;; CHARMM36 FF in GROMACS format
;;


[ defaults ]
; nbfunc	comb-rule	gen-pairs	fudgeLJ	fudgeQQ
1	2	yes	1.0	1.0

[ atomtypes ]
; name	at.num	mass	charge	ptype	sigma	epsilon	;	sigma_14	epsilon_14
  CG2R61     6    12.0110      0.212     A    3.55005321205e-01    2.928800e-01 
   CG321     6    12.0110      0.055     A    3.58141284692e-01    2.343040e-01 ;   3.38541512893e-01    4.184000e-02 
   CG331     6    12.0110     -0.099     A    3.65268474438e-01    3.263520e-01 ;   3.38541512893e-01    4.184000e-02 
    HGA2     1     1.0080      0.090     A    2.38760856462e-01    1.464400e-01 
    HGA3     1     1.0080      0.090     A    2.38760856462e-01    1.004160e-01 
   HGR61     1     1.0080      0.115     A    2.42003727796e-01    1.255200e-01 
   NG301     7    14.0070     -0.592     A    3.56359487256e-01    1.464400e-01 
   SG311    16    32.0600     -0.246     A    3.56359487256e-01    1.882800e+00 

[ bondtypes ]
; i	j	func	b0	Kb
 CG2R61  CG2R61     1  1.375000e-01  2.552240e+05
 CG2R61   CG321     1  1.490000e-01  1.924640e+05
 CG2R61   CG331     1  1.490000e-01  1.924640e+05
 CG2R61   HGR61     1  1.080000e-01  2.845120e+05
 CG2R61   NG301     1  1.410000e-01  2.719600e+05
 CG2R61   SG311     1  1.750000e-01  2.343040e+05
  CG321   CG321     1  1.530000e-01  1.861880e+05
  CG321   CG331     1  1.528000e-01  1.861880e+05
  CG321    HGA2     1  1.111000e-01  2.585712e+05
  CG321   NG301     1  1.450000e-01  1.673600e+05
  CG321   SG311     1  1.818000e-01  1.656864e+05
  CG331   CG331     1  1.530000e-01  1.861880e+05
  CG331    HGA3     1  1.111000e-01  2.694496e+05
  CG331   NG301     1  1.442000e-01  2.635920e+05
  CG331   SG311     1  1.816000e-01  2.008320e+05

[ pairtypes ]
; i	j	func	sigma1-4	epsilon1-4
 CG2R61   CG321     1  3.46773417049e-01  1.10698234855e-01 
 CG2R61   CG331     1  3.46773417049e-01  1.10698234855e-01 
  CG321   CG321     1  3.38541512893e-01  4.18400000000e-02 
  CG321   CG331     1  3.38541512893e-01  4.18400000000e-02 
  CG321    HGA2     1  2.88651184677e-01  7.82754725313e-02 
  CG321    HGA3     1  2.88651184677e-01  6.48182492821e-02 
  CG321   HGR61     1  2.90272620344e-01  7.24690057887e-02 
  CG321   NG301     1  3.47450500075e-01  7.82754725313e-02 
  CG321   SG311     1  3.47450500075e-01  2.80671252536e-01 
  CG331   CG331     1  3.38541512893e-01  4.18400000000e-02 
  CG331    HGA2     1  2.88651184677e-01  7.82754725313e-02 
  CG331    HGA3     1  2.88651184677e-01  6.48182492821e-02 
  CG331   HGR61     1  2.90272620344e-01  7.24690057887e-02 
  CG331   NG301     1  3.47450500075e-01  7.82754725313e-02 
  CG331   SG311     1  3.47450500075e-01  2.80671252536e-01 

[ angletypes ]
; i	j	k	func	th0	cth	S0	Kub
 CG2R61  CG2R61  CG2R61     5  1.2000000e+02  3.3472000e+02  2.4162000e-01  2.9288000e+04
 CG2R61  CG2R61   CG321     5  1.2000000e+02  3.8325440e+02  0.0000000e+00  0.0000000e+00
 CG2R61  CG2R61   CG331     5  1.2000000e+02  3.8325440e+02  0.0000000e+00  0.0000000e+00
 CG2R61  CG2R61   HGR61     5  1.2000000e+02  2.5104000e+02  2.1525000e-01  1.8409600e+04
 CG2R61  CG2R61   NG301     5  1.2000000e+02  3.5145600e+02  0.0000000e+00  0.0000000e+00
 CG2R61  CG2R61   SG311     5  1.2000000e+02  3.3472000e+02  0.0000000e+00  0.0000000e+00
 CG2R61   CG321  CG2R61     5  1.0750000e+02  4.3346240e+02  0.0000000e+00  0.0000000e+00
 CG2R61   CG321   CG321     5  1.0750000e+02  4.3346240e+02  0.0000000e+00  0.0000000e+00
 CG2R61   CG321   CG331     5  1.0750000e+02  4.3346240e+02  0.0000000e+00  0.0000000e+00
 CG2R61   CG321    HGA2     5  1.0750000e+02  4.1254240e+02  0.0000000e+00  0.0000000e+00
 CG2R61   CG321   SG311     5  1.0824000e+02  4.5413136e+02  0.0000000e+00  0.0000000e+00
 CG2R61   CG331    HGA3     5  1.0750000e+02  4.1254240e+02  0.0000000e+00  0.0000000e+00
 CG2R61   NG301  CG2R61     5  1.0773000e+02  3.9622480e+02  0.0000000e+00  0.0000000e+00
 CG2R61   NG301   CG321     5  1.1400000e+02  4.7371248e+02  0.0000000e+00  0.0000000e+00
 CG2R61   NG301   CG331     5  1.1350000e+02  4.0166400e+02  0.0000000e+00  0.0000000e+00
 CG2R61   SG311  CG2R61     5  1.0900000e+02  4.1840000e+02  0.0000000e+00  0.0000000e+00
  CG321   CG321   CG321     5  1.1360000e+02  4.8827280e+02  2.5610000e-01  9.3386880e+03
  CG321   CG321   CG331     5  1.1500000e+02  4.8534400e+02  2.5610000e-01  6.6944000e+03
  CG321   CG321    HGA2     5  1.1010000e+02  2.2175200e+02  2.1790000e-01  1.8853104e+04
  CG321   CG321   NG301     5  1.0700000e+02  4.7697600e+02  0.0000000e+00  0.0000000e+00
  CG321   CG321   SG311     5  1.1450000e+02  4.8534400e+02  0.0000000e+00  0.0000000e+00
  CG321   CG331    HGA3     5  1.1010000e+02  2.8953280e+02  2.1790000e-01  1.8853104e+04
  CG321   NG301   CG321     5  1.1200000e+02  5.8576000e+02  0.0000000e+00  0.0000000e+00
  CG321   NG301   CG331     5  1.1200000e+02  5.8576000e+02  0.0000000e+00  0.0000000e+00
  CG321   SG311   CG321     5  9.5000000e+01  2.8451200e+02  0.0000000e+00  0.0000000e+00
  CG321   SG311   CG331     5  9.5000000e+01  2.8451200e+02  0.0000000e+00  0.0000000e+00
  CG331   CG321   CG331     5  1.1400000e+02  4.4643280e+02  2.5610000e-01  6.6944000e+03
  CG331   CG321    HGA2     5  1.1010000e+02  2.8953280e+02  2.1790000e-01  1.8853104e+04
  CG331   CG321   NG301     5  1.1577000e+02  5.0735184e+02  0.0000000e+00  0.0000000e+00
  CG331   CG321   SG311     5  1.1450000e+02  4.8534400e+02  0.0000000e+00  0.0000000e+00
  CG331   CG331    HGA3     5  1.1010000e+02  3.1380000e+02  2.1790000e-01  1.8853104e+04
  CG331   NG301   CG331     5  1.1600000e+02  3.5564000e+02  0.0000000e+00  0.0000000e+00
   HGA2   CG321    HGA2     5  1.0900000e+02  2.9706400e+02  1.8020000e-01  4.5187200e+03
   HGA3   CG331    HGA3     5  1.0840000e+02  2.9706400e+02  1.8020000e-01  4.5187200e+03
  NG301   CG321    HGA2     5  1.0900000e+02  2.7112320e+02  0.0000000e+00  0.0000000e+00
  NG301   CG331    HGA3     5  1.0970000e+02  2.5522400e+02  2.1400000e-01  4.1840000e+04
  SG311   CG321    HGA2     5  1.1130000e+02  3.8576480e+02  0.0000000e+00  0.0000000e+00
  SG311   CG321   SG311     5  1.1700000e+02  8.3680000e+02  0.0000000e+00  0.0000000e+00
  SG311   CG331    HGA3     5  1.1130000e+02  3.8576480e+02  0.0000000e+00  0.0000000e+00

[ dihedraltypes ]
; i	j	k	l	func	phi0	cp	mult
 CG2R61  CG2R61  CG2R61  CG2R61     9  1.800000e+02  1.297040e+01      2
 CG2R61  CG2R61  CG2R61   CG321     9  1.800000e+02  1.297040e+01      2
 CG2R61  CG2R61  CG2R61   CG331     9  1.800000e+02  1.297040e+01      2
 CG2R61  CG2R61  CG2R61   HGR61     9  1.800000e+02  1.757280e+01      2
 CG2R61  CG2R61  CG2R61   NG301     9  1.800000e+02  5.857600e+00      2
 CG2R61  CG2R61  CG2R61   SG311     9  1.800000e+02  1.882800e+01      2
 CG2R61  CG2R61   CG321  CG2R61     9  1.800000e+02  9.623200e-01      2
 CG2R61  CG2R61   CG321   CG321     9  1.800000e+02  9.623200e-01      2
 CG2R61  CG2R61   CG321   CG331     9  1.800000e+02  9.623200e-01      2
 CG2R61  CG2R61   CG321    HGA2     9  0.000000e+00  8.368000e-03      6
 CG2R61  CG2R61   CG321   SG311     9  1.800000e+02  5.012432e-01      2
 CG2R61  CG2R61   CG331    HGA3     9  0.000000e+00  8.368000e-03      6
 CG2R61  CG2R61   NG301  CG2R61     9  0.000000e+00  3.096160e+00      2
 CG2R61  CG2R61   NG301   CG321     9  0.000000e+00  6.276000e-01      4
 CG2R61  CG2R61   NG301   CG321     9  1.800000e+02  6.276000e+00      2
 CG2R61  CG2R61   NG301   CG331     9  0.000000e+00  4.393200e-01      4
 CG2R61  CG2R61   NG301   CG331     9  1.800000e+02  1.464400e-01      6
 CG2R61  CG2R61   NG301   CG331     9  1.800000e+02  4.016640e+00      2
 CG2R61  CG2R61   SG311  CG2R61     9  0.000000e+00  7.322000e+00      2
 CG2R61   CG321   CG321   CG321     9  0.000000e+00  1.673600e-01      3
 CG2R61   CG321   CG321   CG331     9  0.000000e+00  1.673600e-01      3
 CG2R61   CG321   CG321    HGA2     9  0.000000e+00  1.673600e-01      3
 CG2R61   CG321   CG331    HGA3     9  0.000000e+00  1.673600e-01      3
 CG2R61   CG321   SG311   CG321     9  0.000000e+00  3.158502e+00      3
 CG2R61   CG321   SG311   CG321     9  1.800000e+02  4.568091e+00      1
 CG2R61   CG321   SG311   CG331     9  0.000000e+00  3.158502e+00      3
 CG2R61   CG321   SG311   CG331     9  1.800000e+02  4.568091e+00      1
  CG321  CG2R61  CG2R61   CG331     9  1.800000e+02  1.004160e+01      2
  CG321  CG2R61  CG2R61   HGR61     9  1.800000e+02  1.004160e+01      2
  CG321   CG321   CG321   CG321     9  0.000000e+00  2.698680e-01      2
  CG321   CG321   CG321   CG321     9  0.000000e+00  3.957227e-01      4
  CG321   CG321   CG321   CG321     9  0.000000e+00  4.707418e-01      5
  CG321   CG321   CG321   CG321     9  1.800000e+02  6.265540e-01      3
  CG321   CG321   CG321   CG331     9  0.000000e+00  4.528762e-01      4
  CG321   CG321   CG321   CG331     9  0.000000e+00  6.297338e-01      2
  CG321   CG321   CG321   CG331     9  0.000000e+00  8.531594e-01      5
  CG321   CG321   CG321   CG331     9  1.800000e+02  3.402847e-01      3
  CG321   CG321   CG321    HGA2     9  0.000000e+00  8.158800e-01      3
  CG321   CG321   CG321   NG301     9  0.000000e+00  1.631760e+00      2
  CG321   CG321   CG321   NG301     9  1.800000e+02  6.694400e-01      1
  CG321   CG321   CG321   SG311     9  0.000000e+00  8.158800e-01      3
  CG321   CG321   CG331    HGA3     9  0.000000e+00  6.694400e-01      3
  CG321   CG321   NG301  CG2R61     9  0.000000e+00  4.184000e-02      3
  CG321   CG321   NG301  CG2R61     9  0.000000e+00  1.255200e-01      2
  CG321   CG321   NG301  CG2R61     9  1.800000e+02  1.840960e+00      1
  CG321   CG321   NG301   CG321     9  0.000000e+00  3.430880e+00      2
  CG321   CG321   NG301   CG321     9  0.000000e+00  4.267680e+00      3
  CG321   CG321   NG301   CG321     9  1.800000e+02  5.941280e+00      1
  CG321   CG321   NG301   CG331     9  0.000000e+00  3.430880e+00      2
  CG321   CG321   NG301   CG331     9  0.000000e+00  4.267680e+00      3
  CG321   CG321   NG301   CG331     9  1.800000e+02  5.941280e+00      1
  CG321   CG321   SG311   CG321     9  0.000000e+00  1.548080e+00      3
  CG321   CG321   SG311   CG321     9  1.800000e+02  1.004160e+00      1
  CG321   CG321   SG311   CG331     9  0.000000e+00  1.548080e+00      3
  CG321   CG321   SG311   CG331     9  1.800000e+02  1.004160e+00      1
  CG331  CG2R61  CG2R61   CG331     9  1.800000e+02  1.004160e+01      2
  CG331  CG2R61  CG2R61   HGR61     9  1.800000e+02  1.004160e+01      2
  CG331   CG321   CG321   CG331     9  0.000000e+00  1.597870e-01      2
  CG331   CG321   CG321   CG331     9  1.800000e+02  1.329675e-01      6
  CG331   CG321   CG321    HGA2     9  0.000000e+00  7.531200e-01      3
  CG331   CG321   CG321   SG311     9  0.000000e+00  8.158800e-01      3
  CG331   CG321   CG331    HGA3     9  0.000000e+00  6.694400e-01      3
  CG331   CG321   NG301  CG2R61     9  0.000000e+00  4.184000e-02      3
  CG331   CG321   NG301  CG2R61     9  0.000000e+00  1.255200e-01      2
  CG331   CG321   NG301  CG2R61     9  1.800000e+02  1.840960e+00      1
  CG331   CG321   SG311   CG321     9  0.000000e+00  1.548080e+00      3
  CG331   CG321   SG311   CG321     9  1.800000e+02  1.004160e+00      1
  CG331   CG321   SG311   CG331     9  0.000000e+00  1.548080e+00      3
  CG331   CG321   SG311   CG331     9  1.800000e+02  1.004160e+00      1
   HGA2   CG321   CG321    HGA2     9  0.000000e+00  9.204800e-01      3
   HGA2   CG321   CG331    HGA3     9  0.000000e+00  6.694400e-01      3
   HGA2   CG321   NG301  CG2R61     9  1.800000e+02  0.000000e+00      3
   HGA2   CG321   NG301   CG321     9  0.000000e+00  4.184000e-01      3
   HGA2   CG321   NG301   CG331     9  0.000000e+00  4.184000e-01      3
   HGA2   CG321   SG311   CG321     9  0.000000e+00  1.171520e+00      3
   HGA2   CG321   SG311   CG331     9  0.000000e+00  1.171520e+00      3
   HGA3   CG331   CG331    HGA3     9  0.000000e+00  6.485200e-01      3
   HGA3   CG331   NG301  CG2R61     9  0.000000e+00  1.799120e+00      3
   HGA3   CG331   NG301   CG321     9  1.800000e+02  0.000000e+00      3
   HGA3   CG331   NG301   CG331     9  1.800000e+02  0.000000e+00      3
   HGA3   CG331   SG311   CG321     9  0.000000e+00  1.171520e+00      3
  HGR61  CG2R61  CG2R61   HGR61     9  1.800000e+02  1.004160e+01      2
  NG301  CG2R61  CG2R61   HGR61     9  1.800000e+02  1.004160e+01      2
  NG301  CG2R61  CG2R61   NG301     9  1.800000e+02  1.020896e+01      2
  NG301  CG2R61  CG2R61   SG311     9  1.800000e+02  1.493688e+01      2
  NG301   CG321   CG321    HGA2     9  0.000000e+00  6.694400e-01      3
  NG301   CG321   CG331    HGA3     9  0.000000e+00  7.531200e-01      3
  SG311  CG2R61  CG2R61   HGR61     9  1.800000e+02  1.004160e+01      2
  SG311   CG321   CG321    HGA2     9  0.000000e+00  4.184000e-02      3
  SG311   CG321   CG321   SG311     9  0.000000e+00  4.184000e-01      3
  SG311   CG321   CG331    HGA3     9  0.000000e+00  6.694400e-01      3
  SG311   CG321   SG311   CG321     9  0.000000e+00  5.439200e+00      3
