Title
42794
    1SAPS     N    1   2.922   2.785   5.949  0.0678  0.1209  0.4937
    1SAPS   HN1    2   2.828   2.740   5.944  1.1859 -2.2361 -1.7544
    1SAPS   HN2    3   2.948   2.796   5.849 -0.3381  0.9191  0.4687
    1SAPS   HN3    4   2.980   2.713   5.996 -0.0266 -1.9610 -2.3510
    1SAPS   C12    5   2.926   2.911   6.027  0.1807 -0.3875  0.8950
    1SAPS  H12A    6   2.852   2.980   5.990  1.1811  0.8064  1.0581
    1SAPS   C13    7   2.890   2.894   6.178 -0.4445 -0.6438 -0.3343
    1SAPS  O13A    8   2.855   2.782   6.218  0.0193 -0.1428 -0.3076
    1SAPS  O13B    9   2.879   2.997   6.251 -0.2920  0.3635  0.6326
    1SAPS   C11   10   3.062   2.991   6.001 -0.3089  1.1002  0.1261
    1SAPS  H11A   11   3.146   2.931   6.042  0.0378  1.0799 -0.6036
    1SAPS  H11B   12   3.068   3.080   6.069  4.1936 -0.2641  1.9378
    1SAPS     P   13   3.208   3.025   5.778  0.1467  0.5142 -0.0407
    1SAPS   O13   14   3.209   2.919   5.671  0.1335 -0.2301 -0.0750
    1SAPS   O14   15   3.216   3.165   5.729 -0.6129 -0.0298 -0.0181
    1SAPS   O12   16   3.076   3.014   5.864  0.1534  0.1499 -0.3584
    1SAPS   O11   17   3.322   3.001   5.896 -0.3989 -0.3032  0.6901
    1SAPS    C1   18   3.403   3.106   5.948  0.3693 -0.5185 -0.5159
    1SAPS    HA   19   3.358   3.207   5.937 -0.6989 -0.6283  2.2038
    1SAPS    HB   20   3.400   3.093   6.058  1.1782  1.1475 -0.2722
    1SAPS    C2   21   3.557   3.118   5.894  0.0726  0.2371 -0.3092
    1SAPS    HS   22   3.616   3.159   5.979  0.9926 -2.7619  0.6237
    1SAPS   O21   23   3.554   3.204   5.777 -0.0604  0.2436 -0.3950
    1SAPS   C21   24   3.660   3.276   5.744 -0.1262  0.3449  0.6532
    1SAPS   O22   25   3.762   3.294   5.814  0.3952 -0.0690 -0.8147
    1SAPS   C22   26   3.637   3.340   5.599 -0.0210 -0.0371  0.0448
    1SAPS   H2R   27   3.615   3.259   5.527  1.3259 -0.4993  0.1220
    1SAPS   H2S   28   3.544   3.400   5.589  1.4082  2.4695  0.7041
    1SAPS    C3   29   3.617   2.974   5.863  0.9275 -0.2215  0.6983
    1SAPS    HX   30   3.544   2.932   5.790  1.5355  2.8715 -1.9324
    1SAPS    HY   31   3.622   2.912   5.955 -1.4663  0.1516  1.1542
    1SAPS   O31   32   3.748   2.988   5.799 -0.7755 -0.1527  0.0717
    1SAPS   C31   33   3.856   2.971   5.882 -0.2906 -0.0331 -0.0354
    1SAPS   O32   34   3.844   2.969   6.004 -0.4730  0.1316 -0.2257
    1SAPS   C32   35   3.997   2.976   5.812  0.1767 -0.5087 -0.3523
    1SAPS   H2X   36   4.009   2.881   5.755 -3.9997 -1.1942 -0.3622
    1SAPS   H2Y   37   4.070   2.972   5.896  0.2848 -1.6901 -0.4870
    1SAPS   C23   38   3.763   3.420   5.555 -0.0026  0.3526  0.8441
    1SAPS   H3R   39   3.846   3.347   5.565  1.0249  1.3107 -0.4052
    1SAPS   H3S   40   3.795   3.499   5.626  3.2060 -0.5634  0.5649
    1SAPS   C24   41   3.756   3.467   5.408 -0.4990  0.1445 -0.0778
    1SAPS   H4R   42   3.695   3.402   5.342 -0.4562 -0.8953  0.8656
    1SAPS   H4S   43   3.853   3.475   5.355 -0.9025  0.5702 -0.7564
    1SAPS   C25   44   3.683   3.599   5.403  0.1041  0.5044  0.1359
    1SAPS   H5R   45   3.598   3.599   5.473 -0.2489 -1.4822 -0.2259
    1SAPS   C26   46   3.714   3.708   5.334 -0.1677 -0.2063  0.2062
    1SAPS   H6R   47   3.668   3.804   5.364  2.8754  1.6632 -0.6553
    1SAPS   C27   48   3.846   3.730   5.261 -0.4836  0.4815 -0.7701
    1SAPS   H7R   49   3.929   3.674   5.309 -1.5949  0.5237  1.3285
    1SAPS   H7S   50   3.880   3.835   5.279  0.9400  0.0751 -1.0050
    1SAPS   C28   51   3.838   3.709   5.114 -0.0056  0.2306 -0.2586
    1SAPS   H8R   52   3.808   3.605   5.096 -0.6982  0.3959 -0.0904
    1SAPS   C29   53   3.876   3.792   5.013  0.1192 -0.5279  1.2249
    1SAPS   H9R   54   3.888   3.755   4.910 -0.4954 -0.1836  1.0238
    1SAPS  C210   55   3.914   3.940   5.030 -0.4102 -0.4222  0.0860
    1SAPS  H10R   56   4.018   3.964   4.996  0.7706 -0.7525  3.1557
    1SAPS  H10S   57   3.914   3.973   5.136  2.8804  4.0518 -1.0061
    1SAPS  C211   58   3.821   4.031   4.950 -0.4916 -0.7115  0.5027
    1SAPS  H11R   59   3.723   4.034   5.000  0.6513 -2.4835  3.1064
    1SAPS  C212   60   3.847   4.107   4.841  0.4634 -0.0244 -0.5025
    1SAPS  H12R   61   3.767   4.160   4.787  0.2297  0.8977  0.7113
    1SAPS  C213   62   3.980   4.118   4.778 -0.2495  0.2905 -0.5661
    1SAPS  H13R   63   3.978   4.102   4.668 -2.1757  0.6644 -0.6139
    1SAPS  H13S   64   4.040   4.029   4.806 -0.7097 -1.3310 -4.1889
    1SAPS  C214   65   4.043   4.248   4.805  0.6744  0.3567 -0.0257
    1SAPS  H14R   66   3.990   4.331   4.755 -1.0560  0.6916  2.2217
    1SAPS  C215   67   4.159   4.291   4.867 -0.0641  0.6220  0.2538
    1SAPS  H15R   68   4.196   4.394   4.862 -1.0386  1.1313  2.3056
    1SAPS  C216   69   4.266   4.204   4.913 -0.6629  0.6009  0.3685
    1SAPS  H16R   70   4.225   4.111   4.959 -0.8302 -0.2421 -1.3995
    1SAPS  H16S   71   4.322   4.253   4.996 -0.5418  2.4184 -0.7416
    1SAPS  C217   72   4.372   4.165   4.800 -0.1051  0.3509  0.2544
    1SAPS  H17R   73   4.457   4.118   4.854  0.0962  1.0877  0.5917
    1SAPS  H17S   74   4.407   4.265   4.768 -2.9214  1.4623  0.3250
    1SAPS  C218   75   4.315   4.088   4.687  0.3653 -1.0101 -0.4490
    1SAPS  H18R   76   4.242   4.154   4.635  1.0552  0.0779 -0.0682
    1SAPS  H18S   77   4.268   3.997   4.731 -0.9264  0.3231  1.0830
    1SAPS  C219   78   4.421   4.053   4.580  0.0990 -0.1195  0.2587
    1SAPS  H19R   79   4.361   4.000   4.503  0.7480 -1.0834  0.3894
    1SAPS  H19S   80   4.483   3.970   4.620  1.1311 -0.3273 -1.6964
    1SAPS  C220   81   4.494   4.164   4.513  0.7439  0.3068 -0.2054
    1SAPS  H20R   82   4.531   4.137   4.412  0.5571 -1.6292  0.1940
    1SAPS  H20S   83   4.581   4.202   4.570  0.2922 -0.9926  1.4394
    1SAPS  H20T   84   4.431   4.252   4.490  0.6092  0.1803 -0.3219
    1SAPS   C33   85   4.019   3.094   5.713 -0.7739 -0.3623  0.3484
    1SAPS   H3X   86   4.015   3.194   5.759  0.5353  0.5811 -1.4426
    1SAPS   H3Y   87   3.937   3.094   5.638  0.9226  1.2228 -1.6341
    1SAPS   C34   88   4.150   3.080   5.631 -0.4317 -0.2823 -0.3220
    1SAPS   H4X   89   4.159   2.984   5.576 -1.1294 -0.4174 -0.2157
    1SAPS   H4Y   90   4.230   3.083   5.708 -0.6734  1.1939 -0.0958
    1SAPS   C35   91   4.153   3.181   5.511 -0.4152  0.8196  0.8597
    1SAPS   H5X   92   4.255   3.161   5.471 -1.4211 -2.3930 -0.4701
    1SAPS   H5Y   93   4.152   3.282   5.556 -0.0714  1.7144 -1.0186
    1SAPS   C36   94   4.049   3.155   5.408 -0.1682  0.1601 -0.2791
    1SAPS   H6X   95   3.949   3.173   5.452 -0.2486  0.6009 -0.6295
    1SAPS   H6Y   96   4.052   3.050   5.373  1.4726 -0.2422  0.9455
    1SAPS   C37   97   4.052   3.247   5.288 -0.1923  0.0371 -0.6616
    1SAPS   H7X   98   4.139   3.240   5.218  0.0115 -0.9793 -0.3160
    1SAPS   H7Y   99   4.063   3.353   5.321  0.1599 -0.3414  0.4627
    1SAPS   C38  100   3.930   3.235   5.207  0.1638 -0.3170  0.3344
    1SAPS   H8X  101   3.841   3.253   5.272 -0.9777  1.1992 -1.5593
    1SAPS   H8Y  102   3.924   3.136   5.157  1.2366 -0.4780  0.4976
    1SAPS   C39  103   3.944   3.334   5.099 -0.3403 -0.1046 -0.0779
    1SAPS   H9X  104   4.029   3.306   5.034 -0.2201 -1.5673  0.6565
    1SAPS   H9Y  105   3.973   3.433   5.139 -0.2988  0.6209 -1.8184
    1SAPS  C310  106   3.825   3.320   4.994 -0.0093 -0.1956 -1.4414
    1SAPS  H10X  107   3.740   3.372   5.044  0.3570  0.5480 -1.5750
    1SAPS  H10Y  108   3.801   3.212   4.988 -1.5915  0.1127 -1.1449
    1SAPS  C311  109   3.863   3.400   4.868  0.2838 -0.3911 -0.0748
    1SAPS  H11X  110   3.964   3.371   4.833  0.7956  2.3534 -1.1613
    1SAPS  H11Y  111   3.888   3.503   4.902 -1.9309  0.7565 -1.6729
    1SAPS  C312  112   3.766   3.411   4.753 -0.2054  0.4379 -0.1943
    1SAPS  H12X  113   3.670   3.457   4.786 -0.8298 -0.4077 -0.7570
    1SAPS  H12Y  114   3.727   3.316   4.710  0.1564  0.0328  0.3607
    1SAPS  C313  115   3.816   3.491   4.628 -0.2239 -1.0094 -0.4698
    1SAPS  H13X  116   3.760   3.442   4.546 -2.1308 -1.7544  1.1655
    1SAPS  H13Y  117   3.925   3.478   4.611  0.1550 -1.7479  2.1255
    1SAPS  C314  118   3.780   3.642   4.635  0.2288  0.1484  0.1984
    1SAPS  H14X  119   3.831   3.695   4.718 -0.7365  2.2850 -0.4924
    1SAPS  H14Y  120   3.671   3.656   4.650  0.0171  1.0004 -1.7544
    1SAPS  C315  121   3.803   3.718   4.507 -0.6657  1.2216  0.4080
    1SAPS  H15X  122   3.736   3.808   4.506  1.8472  3.2129 -0.6830
    1SAPS  H15Y  123   3.761   3.657   4.424 -1.4446  2.1051  0.1251
    1SAPS  C316  124   3.945   3.770   4.485  0.4794 -1.2449  0.0692
    1SAPS  H16X  125   4.022   3.690   4.484  0.9599 -0.8256  1.1412
    1SAPS  H16Y  126   3.977   3.838   4.567 -0.2322  0.4880 -1.0331
    1SAPS  C317  127   3.960   3.861   4.362 -0.3877  0.3567  0.3871
    1SAPS  H17X  128   3.894   3.950   4.361  0.2233  0.8580  2.1067
    1SAPS  H17Y  129   3.926   3.793   4.281  1.4212 -1.0885  0.7601
    1SAPS  C318  130   4.102   3.902   4.331 -0.7266 -0.6647  0.2284
    1SAPS  H18X  131   4.177   3.821   4.317 -0.4551 -0.3278 -0.3187
    1SAPS  H18Y  132   4.137   3.976   4.406 -0.2145  2.0640 -2.4927
    1SAPS  H18Z  133   4.110   3.967   4.241  0.5020  1.3987  1.7439
    2SAPS     N  134   4.086   5.417   6.547 -0.6860  0.2646 -0.0636
    2SAPS   HN1  135   4.005   5.369   6.503 -0.2008  1.9233 -3.0936
    2SAPS   HN2  136   4.053   5.474   6.627  2.3129  1.1548  0.6871
    2SAPS   HN3  137   4.123   5.473   6.467 -0.1465 -1.4540 -1.0876
    2SAPS   C12  138   4.200   5.325   6.588 -0.5649 -0.2833  1.1212
    2SAPS  H12A  139   4.231   5.282   6.494 -1.8056  1.4042 -0.1114
    2SAPS   C13  140   4.323   5.396   6.644 -0.9001 -0.0179 -0.6916
    2SAPS  O13A  141   4.324   5.524   6.643 -0.4883  0.2161  0.8165
    2SAPS  O13B  142   4.416   5.329   6.695 -0.4687 -0.0764 -0.6372
    2SAPS   C11  143   4.145   5.216   6.674 -0.1906 -0.1032 -0.2598
    2SAPS  H11A  144   4.113   5.257   6.772 -0.5271 -1.5446  0.2594
    2SAPS  H11B  145   4.228   5.145   6.694  0.4019  1.3571  3.1694
    2SAPS     P  146   4.013   5.051   6.508  0.4391  0.2566 -0.1209
    2SAPS   O13  147   4.142   4.983   6.473  0.9694  0.5928  0.3593
    2SAPS   O14  148   3.889   4.965   6.540 -0.2804 -0.2982  0.4410
    2SAPS   O12  149   4.029   5.151   6.622 -0.4091  0.1235  0.1354
    2SAPS   O11  150   3.972   5.153   6.395  0.4135  0.3375 -0.1727
    2SAPS    C1  151   4.040   5.160   6.276  0.7454 -0.3568  0.2765
    2SAPS    HA  152   4.125   5.229   6.291  0.7445 -0.1945 -0.4358
    2SAPS    HB  153   4.070   5.059   6.241 -2.6538 -2.1121  1.9036
    2SAPS    C2  154   3.962   5.214   6.157  0.2022  0.7937 -0.3210
    2SAPS    HS  155   3.918   5.309   6.195  0.1580  0.3870  0.6755
    2SAPS   O21  156   3.855   5.119   6.122  0.0629  0.3964 -0.4277
    2SAPS   C21  157   3.747   5.176   6.084  0.2505  0.0975  0.1920
    2SAPS   O22  158   3.713   5.289   6.112 -0.1680 -0.0258 -0.1723
    2SAPS   C22  159   3.666   5.082   6.002  0.2968  0.7780  0.0287
    2SAPS   H2R  160   3.730   4.997   5.969 -0.1244 -0.0716  1.3125
    2SAPS   H2S  161   3.584   5.030   6.057  0.0761  0.8274 -0.2526
    2SAPS    C3  162   4.057   5.247   6.036 -0.2949  0.0388 -0.1826
    2SAPS    HX  163   4.113   5.155   6.010 -0.3270  0.2695 -1.1165
    2SAPS    HY  164   4.125   5.326   6.073 -0.9202 -0.8105  3.0561
    2SAPS   O31  165   3.986   5.293   5.919  0.3032 -0.4308  0.7581
    2SAPS   C31  166   3.956   5.426   5.914  0.4136 -0.1814 -0.5102
    2SAPS   O32  167   3.970   5.502   6.009  0.0030 -0.4763  0.1047
    2SAPS   C32  168   3.881   5.459   5.782 -0.2015 -0.0650 -0.2909
    2SAPS   H2X  169   3.773   5.466   5.807 -0.2760  1.2806 -0.8915
    2SAPS   H2Y  170   3.893   5.366   5.723 -1.1891 -0.1629 -0.3558
    2SAPS   C23  171   3.614   5.157   5.875  0.1593 -0.0241  0.5264
    2SAPS   H3R  172   3.578   5.252   5.919 -0.6926 -0.9227  1.8852
    2SAPS   H3S  173   3.521   5.106   5.842  0.0076  0.8783 -0.4893
    2SAPS   C24  174   3.708   5.174   5.750  0.3037 -0.3620 -0.0211
    2SAPS   H4R  175   3.807   5.204   5.790 -1.2194  1.4743  2.6878
    2SAPS   H4S  176   3.665   5.256   5.690  0.5183  0.0381  0.3661
    2SAPS   C25  177   3.740   5.059   5.665  0.5404 -0.3885  0.1042
    2SAPS   H5R  178   3.753   4.966   5.721  0.7408 -1.9224 -2.3252
    2SAPS   C26  179   3.746   5.053   5.532 -0.2678  0.2188  0.1338
    2SAPS   H6R  180   3.773   4.960   5.481  1.2720  0.5352  0.3056
    2SAPS   C27  181   3.711   5.158   5.427  0.1324 -0.0220 -0.1427
    2SAPS   H7R  182   3.673   5.245   5.486 -0.7368  0.0822 -0.8391
    2SAPS   H7S  183   3.625   5.124   5.365 -0.1551 -2.7087  1.5500
    2SAPS   C28  184   3.842   5.187   5.354  0.3224 -0.0218 -0.0944
    2SAPS   H8R  185   3.918   5.241   5.412 -0.2522  1.3200 -0.5658
    2SAPS   C29  186   3.861   5.163   5.223 -0.2272  0.1373  1.1663
    2SAPS   H9R  187   3.962   5.191   5.189  0.4704  0.2191  3.1496
    2SAPS  C210  188   3.767   5.101   5.130  0.5517  0.0650 -0.0650
    2SAPS  H10R  189   3.678   5.165   5.108 -0.9132 -2.0457 -0.6235
    2SAPS  H10S  190   3.709   5.020   5.180 -2.1131  2.9487  1.8887
    2SAPS  C211  191   3.811   5.060   4.989 -0.1867  0.2710  0.2251
    2SAPS  H11R  192   3.828   4.952   4.976 -1.9770 -0.1763  1.1495
    2SAPS  C212  193   3.812   5.130   4.879 -0.0586 -0.4111  0.2797
    2SAPS  H12R  194   3.858   5.080   4.793 -0.1392 -1.1090  0.6324
    2SAPS  C213  195   3.791   5.273   4.864  1.0695 -0.3067 -0.9380
    2SAPS  H13R  196   3.848   5.310   4.951  0.6377 -4.1306  1.2236
    2SAPS  H13S  197   3.689   5.311   4.888  1.9434  1.1765  0.5972
    2SAPS  C214  198   3.841   5.337   4.733 -0.4068  0.4882  0.4822
    2SAPS  H14R  199   3.944   5.377   4.743 -0.2804  0.2469  0.1675
    2SAPS  C215  200   3.784   5.357   4.611  1.1996 -0.1481 -0.4363
    2SAPS  H15R  201   3.846   5.407   4.536  1.1182 -0.7551 -0.9231
    2SAPS  C216  202   3.644   5.316   4.579 -0.3584 -0.4001 -0.3036
    2SAPS  H16R  203   3.572   5.401   4.574  0.3944  0.2442 -0.3666
    2SAPS  H16S  204   3.611   5.250   4.663 -0.9868  0.0497 -0.1833
    2SAPS  C217  205   3.649   5.241   4.447  0.1313 -0.0110 -0.4400
    2SAPS  H17R  206   3.702   5.305   4.373  0.2996 -1.6660 -1.8049
    2SAPS  H17S  207   3.545   5.241   4.408 -0.4553 -0.6128  1.0386
    2SAPS  C218  208   3.714   5.103   4.443  0.3674 -0.2389  0.2843
    2SAPS  H18R  209   3.668   5.036   4.368  0.8323  0.0090 -0.2304
    2SAPS  H18S  210   3.704   5.067   4.548  0.2362 -0.0846  0.3249
    2SAPS  C219  211   3.859   5.096   4.406  0.3457 -0.3568  0.3457
    2SAPS  H19R  212   3.916   5.143   4.488 -0.3068 -1.0175  1.2002
    2SAPS  H19S  213   3.869   5.155   4.312  0.3366 -0.4115  0.3106
    2SAPS  C220  214   3.916   4.960   4.396  0.1679 -0.6267 -0.5889
    2SAPS  H20R  215   4.020   4.968   4.359  1.4522 -3.4914  1.9785
    2SAPS  H20S  216   3.856   4.888   4.336 -0.0446 -1.5975  0.7488
    2SAPS  H20T  217   3.911   4.922   4.500 -2.8936  0.9362 -0.0612
    2SAPS   C33  218   3.911   5.591   5.720 -0.1883  0.5870 -0.3721
    2SAPS   H3X  219   4.020   5.590   5.697 -0.2274 -0.3425 -0.5410
    2SAPS   H3Y  220   3.889   5.675   5.789  1.4127 -0.2060  1.1787
    2SAPS   C34  221   3.841   5.620   5.587  0.5402  0.1481 -0.1106
    2SAPS   H4X  222   3.819   5.728   5.579  1.6150  0.8482  4.0290
    2SAPS   H4Y  223   3.744   5.569   5.603  1.3869 -1.8830 -1.0440
    2SAPS   C35  224   3.927   5.582   5.461  0.3674  0.3539 -0.2486
    2SAPS   H5X  225   3.961   5.477   5.451  0.9208  0.4939  0.0918
    2SAPS   H5Y  226   4.025   5.634   5.451 -0.0187  1.0563 -0.4636
    2SAPS   C36  227   3.846   5.597   5.329 -0.8135 -0.5895 -0.1713
    2SAPS   H6X  228   3.831   5.705   5.307 -0.8293 -0.8576 -1.4979
    2SAPS   H6Y  229   3.742   5.559   5.338 -0.9726 -0.7620 -2.3849
    2SAPS   C37  230   3.914   5.534   5.202  0.4273  1.0783  0.1172
    2SAPS   H7X  231   3.843   5.460   5.158  0.1418 -0.1746  2.5102
    2SAPS   H7Y  232   4.003   5.477   5.234  1.0344  1.9029 -0.0823
    2SAPS   C38  233   3.973   5.627   5.090 -0.3137  1.2359  0.1187
    2SAPS   H8X  234   4.050   5.564   5.041 -0.6335 -0.7322  2.0130
    2SAPS   H8Y  235   4.038   5.708   5.129  0.6457 -0.4171  2.1264
    2SAPS   C39  236   3.868   5.680   4.983 -0.6998  0.5583  0.8377
    2SAPS   H9X  237   3.782   5.721   5.039 -0.4394  1.8986  0.3089
    2SAPS   H9Y  238   3.836   5.593   4.922 -0.9150  0.7382  0.6916
    2SAPS  C310  239   3.925   5.790   4.884 -0.1018  0.2446 -0.3528
    2SAPS  H10X  240   4.015   5.768   4.823  0.5621  0.5203  0.4963
    2SAPS  H10Y  241   3.953   5.871   4.955 -0.0227 -1.9444  2.2816
    2SAPS  C311  242   3.818   5.859   4.793 -0.7886  0.2144 -0.2324
    2SAPS  H11X  243   3.870   5.934   4.730  1.7881  0.2439  1.7406
    2SAPS  H11Y  244   3.729   5.897   4.847 -1.2141 -2.3805  1.0587
    2SAPS  C312  245   3.776   5.744   4.691 -0.0521  0.5728  0.1968
    2SAPS  H12X  246   3.722   5.669   4.753  2.0554 -0.8340  0.4626
    2SAPS  H12Y  247   3.867   5.684   4.667 -0.8932 -0.1014 -1.4630
    2SAPS  C313  248   3.695   5.797   4.574 -0.1314  0.7797  0.1572
    2SAPS  H13X  249   3.743   5.888   4.531 -1.8954  1.1899 -1.0328
    2SAPS  H13Y  250   3.595   5.837   4.601  0.7457  2.8019  0.5541
    2SAPS  C314  251   3.666   5.693   4.460 -0.4808 -0.0256 -0.5191
    2SAPS  H14X  252   3.577   5.630   4.484 -0.5412 -0.3244 -1.4887
    2SAPS  H14Y  253   3.756   5.628   4.468 -0.5935 -0.0828  0.3926
    2SAPS  C315  254   3.648   5.745   4.319  0.3038 -0.1097  0.7921
    2SAPS  H15X  255   3.706   5.840   4.324  0.5364 -0.3101  3.1966
    2SAPS  H15Y  256   3.544   5.783   4.312 -0.2497 -1.3660  1.7287
    2SAPS  C316  257   3.692   5.654   4.201  0.3890 -0.6889 -0.1969
    2SAPS  H16X  258   3.640   5.556   4.206 -1.3263  0.2218  1.6668
    2SAPS  H16Y  259   3.799   5.628   4.212  0.0498 -1.2982  2.4263
    2SAPS  C317  260   3.669   5.715   4.059  0.0843 -0.7185 -0.2168
    2SAPS  H17X  261   3.561   5.741   4.057  0.3620  0.4131 -1.2195
    2SAPS  H17Y  262   3.687   5.634   3.985  0.4255 -1.5161  0.7169
    2SAPS  C318  263   3.755   5.840   4.028  0.2527  0.1580 -0.5884
    2SAPS  H18X  264   3.727   5.894   3.936  0.0063 -1.1685 -1.3205
    2SAPS  H18Y  265   3.861   5.807   4.017  0.3175 -0.0808  0.5522
    2SAPS  H18Z  266   3.752   5.915   4.109  0.2231 -0.2743 -0.1822
    3SAPS     N  267   4.393   4.972   6.395 -0.3379  0.2571  0.2614
    3SAPS   HN1  268   4.413   4.883   6.347 -0.3642  0.5539 -0.3095
    3SAPS   HN2  269   4.299   4.964   6.438 -0.0763 -2.2403  0.5166
    3SAPS   HN3  270   4.398   5.046   6.322  1.1212 -1.5574 -1.5985
    3SAPS   C12  271   4.504   4.993   6.493 -0.1643 -0.1148 -0.1070
    3SAPS  H12A  272   4.483   5.088   6.541 -1.8807 -0.2020 -0.6247
    3SAPS   C13  273   4.514   4.901   6.618  1.1450  0.4987  0.8254
    3SAPS  O13A  274   4.448   4.794   6.614  0.7701  0.0998 -0.0544
    3SAPS  O13B  275   4.585   4.925   6.720  0.0515  0.0278  0.1808
    3SAPS   C11  276   4.641   5.003   6.418  0.3307 -0.0746  0.4537
    3SAPS  H11A  277   4.726   5.037   6.480 -0.8550  3.2843  0.4153
    3SAPS  H11B  278   4.626   5.092   6.354 -1.1711  1.6194  2.9906
    3SAPS     P  279   4.799   4.884   6.247 -0.0191 -0.0838 -0.3188
    3SAPS   O13  280   4.859   5.020   6.247  0.1065  0.2037 -0.7158
    3SAPS   O14  281   4.878   4.768   6.286 -0.5359  0.6563 -0.8273
    3SAPS   O12  282   4.667   4.889   6.338 -0.1816  0.4289  0.1222
    3SAPS   O11  283   4.741   4.854   6.099 -0.0480 -0.8238 -0.2907
    3SAPS    C1  284   4.798   4.744   6.021 -0.0663  0.5545 -0.3541
    3SAPS    HA  285   4.903   4.765   5.990  0.9355  0.0169  2.3471
    3SAPS    HB  286   4.796   4.656   6.089 -1.4615 -0.1264 -1.2321
    3SAPS    C2  287   4.704   4.695   5.904 -0.3615  0.0644  0.0849
    3SAPS    HS  288   4.723   4.592   5.866 -3.1859 -0.0851 -1.2290
    3SAPS   O21  289   4.710   4.799   5.804  0.2184 -0.0907  0.1822
    3SAPS   C21  290   4.804   4.779   5.718  0.4347  0.5241 -0.3988
    3SAPS   O22  291   4.872   4.677   5.712 -0.2939  0.6655 -0.3171
    3SAPS   C22  292   4.808   4.902   5.630 -0.1183 -0.3532  0.4415
    3SAPS   H2R  293   4.707   4.945   5.621 -0.2522 -0.8678 -0.5692
    3SAPS   H2S  294   4.870   4.978   5.684 -1.6193  1.2742 -0.0560
    3SAPS    C3  295   4.552   4.687   5.952 -0.4936  0.0132  0.2092
    3SAPS    HX  296   4.530   4.787   5.994  1.3393  1.6230 -2.3541
    3SAPS    HY  297   4.551   4.608   6.030  0.0556 -0.9943 -0.7622
    3SAPS   O31  298   4.465   4.648   5.847 -0.4962  0.5484  0.1435
    3SAPS   C31  299   4.338   4.668   5.858  0.0507  0.2167 -0.2777
    3SAPS   O32  300   4.288   4.747   5.943  0.0458 -0.3965  0.5066
    3SAPS   C32  301   4.257   4.581   5.762 -0.7161  0.0169  0.2705
    3SAPS   H2X  302   4.201   4.511   5.828 -2.9262  1.4399 -0.0229
    3SAPS   H2Y  303   4.329   4.514   5.710  0.2905  1.3800 -0.1590
    3SAPS   C23  304   4.870   4.888   5.492  0.2853  0.6999 -0.9861
    3SAPS   H3R  305   4.888   4.782   5.464 -0.8464  0.3685 -0.5179
    3SAPS   H3S  306   4.967   4.942   5.498 -1.2885  3.5722  1.4746
    3SAPS   C24  307   4.785   4.958   5.383  0.2755 -0.3854 -0.3392
    3SAPS   H4R  308   4.770   5.066   5.400 -1.1798 -0.8931  2.1077
    3SAPS   H4S  309   4.681   4.918   5.380 -0.0181  0.3616 -0.2734
    3SAPS   C25  310   4.841   4.924   5.249  0.6526 -0.1276 -0.2965
    3SAPS   H5R  311   4.921   4.848   5.253  1.0896  0.3186  3.3158
    3SAPS   C26  312   4.830   4.990   5.132 -0.3337  0.4257  0.3086
    3SAPS   H6R  313   4.898   4.956   5.053 -0.9306  1.3795 -0.6490
    3SAPS   C27  314   4.754   5.113   5.100  0.5301  0.3892  0.7292
    3SAPS   H7R  315   4.833   5.187   5.071 -0.8404  2.0237  1.0039
    3SAPS   H7S  316   4.707   5.160   5.189 -1.5841 -0.9705  0.3801
    3SAPS   C28  317   4.649   5.069   4.998 -0.0823 -0.2811  0.0063
    3SAPS   H8R  318   4.561   5.018   5.041 -0.5200  1.1318  0.8652
    3SAPS   C29  319   4.643   5.112   4.866  0.6362  0.0057 -0.1229
    3SAPS   H9R  320   4.560   5.075   4.804  1.1067 -0.9115 -0.2273
    3SAPS  C210  321   4.738   5.211   4.802 -0.2186  0.6147  0.2320
    3SAPS  H10R  322   4.841   5.204   4.842 -0.1130 -0.5769 -0.1978
    3SAPS  H10S  323   4.700   5.312   4.830 -0.5139  0.1450  1.5954
    3SAPS  C211  324   4.722   5.204   4.649  0.4732 -1.1443  0.1918
    3SAPS  H11R  325   4.630   5.234   4.597  1.4763  1.0409 -0.4362
    3SAPS  C212  326   4.828   5.170   4.571 -0.0188 -0.2867  0.1658
    3SAPS  H12R  327   4.816   5.195   4.464 -1.4169  0.3292  0.4454
    3SAPS  C213  328   4.965   5.133   4.606 -0.3143 -0.0390 -0.1147
    3SAPS  H13R  329   4.991   5.120   4.713  2.5203 -1.3349 -0.8561
    3SAPS  H13S  330   5.021   5.226   4.586 -0.0384 -0.2013 -0.0988
    3SAPS  C214  331   5.033   5.026   4.525 -0.1579  0.4939 -0.1517
    3SAPS  H14R  332   5.041   4.931   4.580 -2.3598  0.1004 -0.4086
    3SAPS  C215  333   5.093   5.046   4.408  0.6811 -0.1642  0.3969
    3SAPS  H15R  334   5.147   4.967   4.356  0.7594 -0.5983  1.1248
    3SAPS  C216  335   5.086   5.179   4.327 -0.3534  0.3072  0.0352
    3SAPS  H16R  336   5.187   5.224   4.322  0.6542 -1.7789  0.3882
    3SAPS  H16S  337   5.017   5.250   4.378  1.5687  2.1248  0.2470
    3SAPS  C217  338   5.034   5.148   4.188 -0.1989 -0.3939  0.1925
    3SAPS  H17R  339   5.093   5.065   4.143  0.3443 -0.2016  0.5319
    3SAPS  H17S  340   5.041   5.241   4.126 -0.7760  0.3880  1.2606
    3SAPS  C218  341   4.888   5.119   4.172 -0.4674 -0.2980 -0.2947
    3SAPS  H18R  342   4.843   5.202   4.113 -0.6113 -0.5299 -0.5139
    3SAPS  H18S  343   4.836   5.109   4.270  0.4231 -1.6404  0.0810
    3SAPS  C219  344   4.862   4.993   4.087  0.4643 -0.1646  0.0076
    3SAPS  H19R  345   4.753   4.978   4.071 -0.3990  2.6058  2.4051
    3SAPS  H19S  346   4.908   5.000   3.987  0.0915 -1.0687 -0.2356
    3SAPS  C220  347   4.906   4.856   4.141 -0.2678  0.1210  0.2478
    3SAPS  H20R  348   5.012   4.870   4.173 -0.1106 -1.2119  0.3910
    3SAPS  H20S  349   4.909   4.779   4.060  2.0479 -0.2331  0.6027
    3SAPS  H20T  350   4.854   4.807   4.226 -0.7562 -0.5119 -0.4027
    3SAPS   C33  351   4.177   4.673   5.663 -0.0670 -0.3292 -0.3575
    3SAPS   H3X  352   4.110   4.746   5.713  1.1391  1.6968 -1.5542
    3SAPS   H3Y  353   4.113   4.604   5.604 -3.4706  0.9682  1.5481
    3SAPS   C34  354   4.272   4.757   5.570  1.0215  0.3935  0.3978
    3SAPS   H4X  355   4.340   4.688   5.516  1.8566  0.0214  1.8647
    3SAPS   H4Y  356   4.334   4.821   5.637  0.4735 -0.1423  1.4473
    3SAPS   C35  357   4.197   4.842   5.473  0.6136  0.4676  0.7813
    3SAPS   H5X  358   4.143   4.780   5.398  0.6818 -1.9274  2.6142
    3SAPS   H5Y  359   4.117   4.903   5.520  0.3878  0.1728  0.7783
    3SAPS   C36  360   4.291   4.928   5.395  0.2410 -0.1368 -0.3772
    3SAPS   H6X  361   4.341   4.865   5.319 -2.1514 -0.5557 -1.6949
    3SAPS   H6Y  362   4.372   4.967   5.461  0.0158  0.9878 -0.7273
    3SAPS   C37  363   4.220   5.044   5.326 -0.6035 -0.3397 -0.1782
    3SAPS   H7X  364   4.202   5.133   5.389 -0.9154  0.3872 -1.2647
    3SAPS   H7Y  365   4.135   5.001   5.268  1.2232 -0.8207 -2.6685
    3SAPS   C38  366   4.309   5.102   5.213  0.6268  0.8945 -0.4688
    3SAPS   H8X  367   4.346   5.016   5.154  0.1264  1.2761 -1.3608
    3SAPS   H8Y  368   4.394   5.159   5.255 -0.0691  1.4137  0.2637
    3SAPS   C39  369   4.238   5.197   5.117 -0.3365  0.9984 -0.3938
    3SAPS   H9X  370   4.229   5.288   5.180  1.0741  1.5242 -0.9195
    3SAPS   H9Y  371   4.142   5.147   5.096 -1.1164  2.3539 -0.2128
    3SAPS  C310  372   4.316   5.230   4.991 -0.1794  0.4500 -0.0214
    3SAPS  H10X  373   4.325   5.143   4.923 -0.8043  0.9323 -0.7460
    3SAPS  H10Y  374   4.417   5.272   5.005  0.0387  0.8777 -2.3833
    3SAPS  C311  375   4.230   5.335   4.920  0.2717 -0.1969  0.4391
    3SAPS  H11X  376   4.206   5.401   5.007 -2.5277 -4.5297  3.3510
    3SAPS  H11Y  377   4.138   5.284   4.884 -0.1602  0.8799 -0.0133
    3SAPS  C312  378   4.299   5.401   4.796 -0.1206 -0.3084  0.4718
    3SAPS  H12X  379   4.304   5.343   4.701 -1.3275  0.0910  0.1439
    3SAPS  H12Y  380   4.404   5.418   4.829 -0.2023  2.8711 -0.5465
    3SAPS  C313  381   4.233   5.535   4.769  0.4739 -0.1771 -0.0088
    3SAPS  H13X  382   4.223   5.608   4.853 -2.3900  0.3730 -0.7299
    3SAPS  H13Y  383   4.127   5.514   4.745 -0.6341  1.4993  2.8012
    3SAPS  C314  384   4.298   5.604   4.649  0.0727  0.5576  0.3517
    3SAPS  H14X  385   4.386   5.551   4.605 -0.2384 -0.4632  0.9095
    3SAPS  H14Y  386   4.329   5.705   4.684  0.5250  1.2331 -1.8391
    3SAPS  C315  387   4.194   5.638   4.538 -0.1067  0.1875  0.3712
    3SAPS  H15X  388   4.090   5.662   4.572 -0.1009 -0.0148  0.5299
    3SAPS  H15Y  389   4.187   5.549   4.472  1.6375  0.9800 -0.9688
    3SAPS  C316  390   4.242   5.767   4.464  0.3805  0.3995 -0.0158
    3SAPS  H16X  391   4.231   5.851   4.536 -3.5676  0.2000 -0.1513
    3SAPS  H16Y  392   4.158   5.791   4.395  1.5231  1.4488 -1.1187
    3SAPS  C317  393   4.388   5.771   4.416  0.2183 -0.0615  0.2190
    3SAPS  H17X  394   4.407   5.696   4.336  1.9273  1.0482 -0.4893
    3SAPS  H17Y  395   4.450   5.758   4.507 -0.6647 -1.3601  0.6573
    3SAPS  C318  396   4.422   5.896   4.352 -0.0018 -0.7092  0.6747
    3SAPS  H18X  397   4.345   5.915   4.273 -0.0457 -1.8195  0.4258
    3SAPS  H18Y  398   4.525   5.900   4.310  1.1047  0.5426  3.3385
    3SAPS  H18Z  399   4.428   5.975   4.429  1.7285  1.1640 -1.2536
    4SAPS     N  400   2.708   1.762   6.350  0.6003 -0.5798 -0.4571
    4SAPS   HN1  401   2.731   1.708   6.435  2.7799  1.8521  0.6514
    4SAPS   HN2  402   2.718   1.861   6.380 -0.6191  0.2136 -2.4568
    4SAPS   HN3  403   2.612   1.755   6.310  0.9921  0.7134 -1.7521
    4SAPS   C12  404   2.812   1.726   6.251 -0.0331  0.3375  0.3634
    4SAPS  H12A  405   2.808   1.797   6.170  0.1175 -0.3028 -0.2064
    4SAPS   C13  406   2.954   1.723   6.317 -0.0038 -0.5247  0.7983
    4SAPS  O13A  407   2.967   1.786   6.425 -0.3738  0.2578  0.4792
    4SAPS  O13B  408   3.052   1.679   6.251 -0.1904  0.3374 -0.1830
    4SAPS   C11  409   2.796   1.583   6.191  0.5350  0.0109  0.4239
    4SAPS  H11A  410   2.805   1.506   6.271  0.0753 -0.8221 -0.3057
    4SAPS  H11B  411   2.881   1.569   6.120 -0.7277 -1.8828 -0.8065
    4SAPS     P  412   2.659   1.570   5.965  0.0013 -0.2158 -0.3895
    4SAPS   O13  413   2.746   1.472   5.897  0.2677  0.4202 -0.2208
    4SAPS   O14  414   2.515   1.576   5.936 -0.0544 -0.0308 -0.0908
    4SAPS   O12  415   2.676   1.557   6.123  0.2697 -0.6066 -0.5212
    4SAPS   O11  416   2.717   1.716   5.963 -0.0636  0.3270  0.1880
    4SAPS    C1  417   2.780   1.791   5.864  0.3047 -0.2883  0.1639
    4SAPS    HA  418   2.852   1.845   5.930 -0.9803 -0.9584  2.1995
    4SAPS    HB  419   2.846   1.734   5.795 -0.8985 -0.9928 -0.4305
    4SAPS    C2  420   2.685   1.885   5.791 -0.0437 -0.6057 -0.9915
    4SAPS    HS  421   2.614   1.917   5.871  0.0593 -1.8814 -0.3559
    4SAPS   O21  422   2.619   1.805   5.691 -1.0522 -0.3861  0.0193
    4SAPS   C21  423   2.500   1.842   5.661  0.1385  0.0183 -0.2813
    4SAPS   O22  424   2.444   1.943   5.702 -0.4596  0.3183 -0.3146
    4SAPS   C22  425   2.432   1.748   5.556 -0.0088  0.4674 -0.0666
    4SAPS   H2R  426   2.451   1.639   5.569 -1.2250  0.1428 -0.7812
    4SAPS   H2S  427   2.322   1.758   5.565  0.0559  0.1945  1.0933
    4SAPS    C3  428   2.761   2.018   5.743 -0.0769 -0.3125  0.1680
    4SAPS    HX  429   2.809   2.068   5.830  2.5959  1.1082 -1.9559
    4SAPS    HY  430   2.681   2.089   5.714 -0.6378 -0.9129  0.2225
    4SAPS   O31  431   2.867   1.994   5.644 -0.0530  0.6512 -0.3884
    4SAPS   C31  432   2.882   2.064   5.534  0.5605  0.3176 -0.8655
    4SAPS   O32  433   2.821   2.163   5.500 -0.0159  0.5716 -0.3921
    4SAPS   C32  434   2.964   1.981   5.435 -0.0885 -0.1069  0.0053
    4SAPS   H2X  435   2.960   1.877   5.473 -0.0705  0.5951  2.0459
    4SAPS   H2Y  436   3.070   2.015   5.438  0.1521 -0.9187  1.4477
    4SAPS   C23  437   2.465   1.784   5.405  0.2270  0.2267 -0.0837
    4SAPS   H3R  438   2.408   1.721   5.333  0.5182  0.4568 -0.5250
    4SAPS   H3S  439   2.573   1.772   5.380  0.4051  0.1240  0.7207
    4SAPS   C24  440   2.424   1.933   5.363 -0.0879  0.1230 -0.7219
    4SAPS   H4R  441   2.442   1.937   5.254  1.2115 -1.1865 -0.5978
    4SAPS   H4S  442   2.500   2.000   5.410 -1.5407  1.6983 -0.5326
    4SAPS   C25  443   2.288   1.992   5.399 -0.0923 -0.3434 -0.6303
    4SAPS   H5R  444   2.289   2.057   5.487 -4.8439  0.3740 -0.8671
    4SAPS   C26  445   2.169   1.967   5.341  0.2181  0.1700  0.1807
    4SAPS   H6R  446   2.077   2.010   5.383 -0.2729 -3.0671  2.7882
    4SAPS   C27  447   2.155   1.892   5.208 -0.3092  0.1280 -0.6091
    4SAPS   H7R  448   2.063   1.828   5.203 -0.7423  0.6137  0.7119
    4SAPS   H7S  449   2.235   1.817   5.192 -0.0094  0.0943  0.9200
    4SAPS   C28  450   2.165   1.990   5.093  0.4108 -0.1863  0.3939
    4SAPS   H8R  451   2.107   2.081   5.110 -1.7791 -1.2402 -1.0548
    4SAPS   C29  452   2.235   1.988   4.976  0.0186 -0.3951 -0.4411
    4SAPS   H9R  453   2.206   2.054   4.893 -1.1412 -1.1447 -0.6526
    4SAPS  C210  454   2.325   1.877   4.930 -0.0101 -0.3461 -0.4012
    4SAPS  H10R  455   2.406   1.854   5.003  0.1773  1.1435 -0.0973
    4SAPS  H10S  456   2.375   1.919   4.840  1.0779 -2.9867 -1.1151
    4SAPS  C211  457   2.259   1.742   4.909  0.8097  0.9422  0.6022
    4SAPS  H11R  458   2.157   1.728   4.949  1.2536 -2.3548  0.8665
    4SAPS  C212  459   2.319   1.640   4.836  0.1996 -0.2888 -0.8282
    4SAPS  H12R  460   2.262   1.546   4.832 -1.9696  0.9050  0.0099
    4SAPS  C213  461   2.457   1.641   4.783 -0.3876  0.1998  0.3741
    4SAPS  H13R  462   2.489   1.736   4.734  3.7918 -1.4868 -0.6265
    4SAPS  H13S  463   2.459   1.570   4.697 -1.9584  0.3788  0.1720
    4SAPS  C214  464   2.567   1.607   4.877  0.0211  0.2894 -0.0309
    4SAPS  H14R  465   2.563   1.651   4.978 -0.7812  0.7875 -0.2660
    4SAPS  C215  466   2.660   1.511   4.862  0.0573 -0.2184  0.5192
    4SAPS  H15R  467   2.734   1.512   4.943 -0.2715 -1.0460  0.8405
    4SAPS  C216  468   2.676   1.412   4.753 -0.6577  0.5539  0.0520
    4SAPS  H16R  469   2.577   1.371   4.722 -0.8567  1.6054 -0.7745
    4SAPS  H16S  470   2.723   1.320   4.792 -3.6797 -0.8665  0.6611
    4SAPS  C217  471   2.747   1.447   4.625 -0.7088  0.0301 -0.1231
    4SAPS  H17R  472   2.728   1.551   4.590  2.1963  0.1435 -1.7291
    4SAPS  H17S  473   2.708   1.377   4.548  0.1328 -0.1457 -0.4062
    4SAPS  C218  474   2.902   1.440   4.646 -0.3061  0.1335 -0.7598
    4SAPS  H18R  475   2.922   1.340   4.691  2.3888  0.8076 -0.2729
    4SAPS  H18S  476   2.936   1.510   4.725  2.1773  1.2260 -2.6492
    4SAPS  C219  477   2.998   1.449   4.524  0.7352  0.0542  0.1160
    4SAPS  H19R  478   2.982   1.552   4.486  0.4554 -0.3901 -1.0008
    4SAPS  H19S  479   2.957   1.373   4.454  1.2965 -0.2117  0.0734
    4SAPS  C220  480   3.141   1.409   4.553 -0.3765  0.8511 -0.0270
    4SAPS  H20R  481   3.155   1.427   4.662 -2.2853 -0.8156  0.5628
    4SAPS  H20S  482   3.225   1.448   4.492 -0.7023 -0.4260 -1.3105
    4SAPS  H20T  483   3.152   1.300   4.538 -0.6192  1.0503 -1.8372
    4SAPS   C33  484   2.922   1.999   5.286 -0.4694  0.1929 -0.9172
    4SAPS   H3X  485   3.007   1.960   5.226 -0.2371  0.8185 -1.0034
    4SAPS   H3Y  486   2.915   2.105   5.255  0.2593  0.1470 -1.2673
    4SAPS   C34  487   2.807   1.911   5.240  0.4063  0.1496  0.2102
    4SAPS   H4X  488   2.711   1.935   5.290 -0.8216 -1.4088 -1.2528
    4SAPS   H4Y  489   2.829   1.803   5.258  0.9080  0.3965  1.1171
    4SAPS   C35  490   2.762   1.939   5.094  0.0316 -0.4767 -0.0399
    4SAPS   H5X  491   2.776   2.049   5.087 -0.3539 -0.4385 -0.2953
    4SAPS   H5Y  492   2.656   1.910   5.074  0.2049 -0.9456 -0.3042
    4SAPS   C36  493   2.854   1.877   4.992  0.7844 -0.2597 -0.2442
    4SAPS   H6X  494   2.851   1.769   5.016 -0.5694 -0.1767  0.0652
    4SAPS   H6Y  495   2.955   1.895   5.035 -0.5807  0.2622  3.0079
    4SAPS   C37  496   2.827   1.927   4.851 -0.7283  0.2248  0.2391
    4SAPS   H7X  497   2.859   2.031   4.829  1.5961 -0.4748 -0.0445
    4SAPS   H7Y  498   2.717   1.933   4.840 -0.7264 -1.4097 -1.2453
    4SAPS   C38  499   2.885   1.838   4.732 -0.7901  0.3030 -0.1820
    4SAPS   H8X  500   2.799   1.779   4.693 -0.9891  1.0559 -0.8920
    4SAPS   H8Y  501   2.957   1.765   4.776  0.5709  0.5026 -1.9798
    4SAPS   C39  502   2.960   1.910   4.620  0.1991  0.3449  0.2696
    4SAPS   H9X  503   3.070   1.920   4.632  0.1891  0.6329  0.1401
    4SAPS   H9Y  504   2.918   2.013   4.611 -0.1129  0.2115  0.2038
    4SAPS  C310  505   2.941   1.849   4.474  0.3174  0.7246  0.2883
    4SAPS  H10X  506   2.832   1.833   4.464  0.3050 -0.0389  1.4599
    4SAPS  H10Y  507   2.980   1.745   4.482 -0.6551  0.2001 -1.2873
    4SAPS  C311  508   2.992   1.922   4.357  0.2854 -0.0299  0.3422
    4SAPS  H11X  509   3.102   1.908   4.350  0.1120 -1.7361  0.7156
    4SAPS  H11Y  510   2.962   2.029   4.368  2.2339  0.4306  1.6947
    4SAPS  C312  511   2.926   1.884   4.228  0.3238 -0.5915 -0.1551
    4SAPS  H12X  512   2.902   1.776   4.230 -0.9264 -0.4174 -2.5288
    4SAPS  H12Y  513   2.997   1.903   4.144  0.6017 -1.4615 -0.1192
    4SAPS  C313  514   2.785   1.956   4.208  0.7179 -0.1037  0.0807
    4SAPS  H13X  515   2.735   1.961   4.307 -1.6609  1.3005 -1.1095
    4SAPS  H13Y  516   2.723   1.888   4.147 -0.0830  3.7132 -3.8269
    4SAPS  C314  517   2.788   2.092   4.138 -0.5471 -0.6414  0.4609
    4SAPS  H14X  518   2.859   2.086   4.052 -1.6733  0.3183 -0.5769
    4SAPS  H14Y  519   2.806   2.177   4.207 -2.1525 -0.5886  0.8556
    4SAPS  C315  520   2.651   2.116   4.054 -0.2176  0.7273 -0.3486
    4SAPS  H15X  521   2.564   2.072   4.108  0.6355  0.4491  0.8415
    4SAPS  H15Y  522   2.662   2.049   3.967 -0.1252 -0.7687  0.7644
    4SAPS  C316  523   2.616   2.260   4.018  0.0570  0.8648 -0.1379
    4SAPS  H16X  524   2.702   2.302   3.960 -0.2173  0.3591 -0.9292
    4SAPS  H16Y  525   2.605   2.306   4.118  0.9895 -0.4534  0.5973
    4SAPS  C317  526   2.485   2.262   3.943 -0.3053  0.0108 -0.4183
    4SAPS  H17X  527   2.412   2.220   4.015  0.0529 -0.6118 -0.4097
    4SAPS  H17Y  528   2.488   2.196   3.853 -2.4000  1.9599 -2.0218
    4SAPS  C318  529   2.443   2.402   3.896 -0.1317  0.2362 -0.0651
    4SAPS  H18X  530   2.371   2.394   3.812 -1.2395  2.0004  0.6752
    4SAPS  H18Y  531   2.531   2.457   3.858 -0.9248  1.2571 -0.4516
    4SAPS  H18Z  532   2.400   2.455   3.984 -0.0244  0.9965 -0.4658
    5SAPS     N  533   5.985   4.311   6.097  0.3503  0.2697  0.7840
    5SAPS   HN1  534   5.995   4.270   6.002 -1.6529  0.3543  0.4913
    5SAPS   HN2  535   5.890   4.353   6.101  0.2348  0.0957  0.0720
    5SAPS   HN3  536   6.053   4.388   6.114  1.6490 -0.8825  1.0301
    5SAPS   C12  537   6.008   4.200   6.186  1.0682 -0.3397  0.1027
    5SAPS  H12A  538   6.115   4.186   6.186  1.0350 -1.0855 -2.1483
    5SAPS   C13  539   5.957   4.201   6.334  1.2742 -0.1692  0.3259
    5SAPS  O13A  540   5.902   4.300   6.388 -0.1329 -0.1477  0.5035
    5SAPS  O13B  541   5.972   4.095   6.397  0.3006 -0.2144 -0.1344
    5SAPS   C11  542   5.958   4.069   6.120 -0.2607 -0.2405  0.2613
    5SAPS  H11A  543   5.852   4.060   6.152  0.3340  0.7098  2.7602
    5SAPS  H11B  544   6.005   3.981   6.169 -1.3322 -0.6879  0.5097
    5SAPS     P  545   5.885   3.956   5.907 -0.1101 -0.0713 -0.0328
    5SAPS   O13  546   5.911   3.948   5.763 -0.4058 -0.0415  0.1803
    5SAPS   O14  547   5.882   3.830   5.990  0.0267 -0.5303 -0.0804
    5SAPS   O12  548   5.980   4.066   5.979  0.1492 -0.6689  0.2133
    5SAPS   O11  549   5.745   4.028   5.920  0.2115  0.2872  0.3064
    5SAPS    C1  550   5.732   4.156   5.858  0.4859 -0.2751  0.0460
    5SAPS    HA  551   5.792   4.229   5.916  0.4635  0.8322 -1.2618
    5SAPS    HB  552   5.773   4.150   5.755  0.3373 -0.1897 -0.0174
    5SAPS    C2  553   5.590   4.205   5.860 -0.5033 -0.0545  0.5684
    5SAPS    HS  554   5.568   4.206   5.969 -0.5590 -0.3112  0.5602
    5SAPS   O21  555   5.502   4.125   5.780 -0.7222  0.1320 -0.0811
    5SAPS   C21  556   5.442   4.024   5.843 -1.2370 -0.0454 -0.9858
    5SAPS   O22  557   5.440   4.009   5.965  0.5918  0.3955  0.4701
    5SAPS   C22  558   5.364   3.941   5.742 -0.8775 -0.2638  0.0672
    5SAPS   H2R  559   5.276   4.001   5.710 -1.1943 -0.3659  0.7220
    5SAPS   H2S  560   5.438   3.933   5.659  0.0483  0.4956  0.8031
    5SAPS    C3  561   5.581   4.357   5.806  0.7315 -0.0188 -0.3522
    5SAPS    HX  562   5.631   4.431   5.872 -0.2167  0.5855 -0.3048
    5SAPS    HY  563   5.475   4.390   5.812  0.6125 -0.5099  0.5124
    5SAPS   O31  564   5.620   4.360   5.666 -0.9211  0.4689  1.1924
    5SAPS   C31  565   5.725   4.428   5.626  0.2632  0.0162  0.2791
    5SAPS   O32  566   5.807   4.482   5.700  0.5832  0.0415  0.1214
    5SAPS   C32  567   5.734   4.426   5.473  0.3759  0.3118  0.1471
    5SAPS   H2X  568   5.683   4.333   5.440  0.7215  0.5528 -1.1304
    5SAPS   H2Y  569   5.842   4.414   5.451  0.2472 -5.2242  1.1444
    5SAPS   C23  570   5.318   3.801   5.793  0.2763  0.9879 -0.2142
    5SAPS   H3R  571   5.250   3.796   5.881  2.5879 -0.9448  1.5940
    5SAPS   H3S  572   5.412   3.752   5.827 -1.1384 -2.0785 -0.4145
    5SAPS   C24  573   5.266   3.714   5.679 -0.6105  0.0128 -0.4738
    5SAPS   H4R  574   5.263   3.603   5.691 -1.8377 -0.2275 -2.4701
    5SAPS   H4S  575   5.335   3.730   5.593 -0.6078  2.2141 -0.1115
    5SAPS   C25  576   5.121   3.745   5.641  0.5323 -0.4263  1.0542
    5SAPS   H5R  577   5.050   3.760   5.722 -1.2446 -1.7536 -0.1717
    5SAPS   C26  578   5.067   3.771   5.521 -0.0561  0.3601 -0.1403
    5SAPS   H6R  579   4.962   3.803   5.527 -1.2424 -3.3544  2.1880
    5SAPS   C27  580   5.125   3.755   5.385  0.4713 -0.1525 -0.8327
    5SAPS   H7R  581   5.072   3.671   5.334 -1.6773 -0.5379  1.7835
    5SAPS   H7S  582   5.234   3.735   5.388  0.3899 -0.5070  1.1353
    5SAPS   C28  583   5.099   3.872   5.303 -0.1349 -0.4241  0.2840
    5SAPS   H8R  584   5.003   3.880   5.251  1.2052 -0.5783 -2.4134
    5SAPS   C29  585   5.182   3.978   5.282 -0.5349 -0.2680 -0.8473
    5SAPS   H9R  586   5.165   4.033   5.189 -4.0578 -0.3312 -0.3595
    5SAPS  C210  587   5.316   3.991   5.354 -0.2275  0.6165  0.1994
    5SAPS  H10R  588   5.383   3.930   5.289  0.1589  1.6265 -0.3590
    5SAPS  H10S  589   5.329   3.923   5.442 -1.0842 -2.0733 -1.6092
    5SAPS  C211  590   5.365   4.132   5.382 -0.0384 -0.8522 -0.0526
    5SAPS  H11R  591   5.316   4.183   5.466  0.3409 -0.4725 -0.0594
    5SAPS  C212  592   5.438   4.211   5.304  0.2710  0.2893 -0.4895
    5SAPS  H12R  593   5.456   4.314   5.338  0.7865 -0.1083  0.4816
    5SAPS  C213  594   5.517   4.173   5.177  0.2935 -0.3699 -0.1369
    5SAPS  H13R  595   5.564   4.075   5.202 -0.0130 -0.0306  2.0148
    5SAPS  H13S  596   5.604   4.241   5.171  1.9604 -2.3151  0.7543
    5SAPS  C214  597   5.429   4.158   5.059  0.2046 -0.1581 -0.2217
    5SAPS  H14R  598   5.327   4.121   5.072 -0.0827  0.4776 -0.6487
    5SAPS  C215  599   5.469   4.167   4.932 -0.0473 -0.7459 -0.1595
    5SAPS  H15R  600   5.389   4.165   4.856  0.3851  1.8608 -0.7908
    5SAPS  C216  601   5.601   4.198   4.870 -0.2868  0.5719  0.0089
    5SAPS  H16R  602   5.674   4.238   4.943  1.0037 -1.8858  0.1654
    5SAPS  H16S  603   5.582   4.278   4.795  1.9705  1.1544  0.0071
    5SAPS  C217  604   5.658   4.074   4.801 -0.3095 -0.2157 -0.2703
    5SAPS  H17R  605   5.766   4.088   4.776 -0.5404  0.3446 -0.9952
    5SAPS  H17S  606   5.605   4.060   4.704  0.2287 -0.9210 -0.4738
    5SAPS  C218  607   5.655   3.946   4.894  0.4607 -0.1258  0.8355
    5SAPS  H18R  608   5.554   3.905   4.915  0.8746 -0.5732  2.0254
    5SAPS  H18S  609   5.692   3.966   4.997  0.0343  2.1238  0.6067
    5SAPS  C219  610   5.728   3.826   4.829  0.3118 -0.2231  0.5256
    5SAPS  H19R  611   5.819   3.856   4.772 -0.3719  1.8784  0.4661
    5SAPS  H19S  612   5.658   3.791   4.750  1.7304  0.2040 -0.9820
    5SAPS  C220  613   5.743   3.702   4.919 -1.1254  0.3638 -0.7684
    5SAPS  H20R  614   5.802   3.619   4.874 -0.2072  0.6669 -0.1505
    5SAPS  H20S  615   5.647   3.655   4.949 -0.2254 -0.8714  0.2838
    5SAPS  H20T  616   5.797   3.731   5.012 -0.1276  1.4762 -1.6587
    5SAPS   C33  617   5.661   4.550   5.412  0.6514  0.5464 -0.2914
    5SAPS   H3X  618   5.718   4.642   5.437  0.6851  0.3493  0.3861
    5SAPS   H3Y  619   5.558   4.558   5.455 -0.2416 -0.2093 -2.1687
    5SAPS   C34  620   5.647   4.540   5.257  0.0066  0.6784 -0.1193
    5SAPS   H4X  621   5.588   4.628   5.224  1.8656  1.8821 -0.3699
    5SAPS   H4Y  622   5.607   4.441   5.224 -0.0134  0.6412  0.0136
    5SAPS   C35  623   5.785   4.533   5.195  0.0494  0.2295 -0.7386
    5SAPS   H5X  624   5.849   4.444   5.213  2.0108  1.6020 -0.6139
    5SAPS   H5Y  625   5.839   4.626   5.223 -0.8719  1.1240 -1.8169
    5SAPS   C36  626   5.762   4.536   5.041  0.6972 -0.0983  0.3645
    5SAPS   H6X  627   5.733   4.643   5.031 -0.9005 -0.2849  2.2554
    5SAPS   H6Y  628   5.677   4.473   5.008  1.4929 -1.7809  1.3905
    5SAPS   C37  629   5.889   4.488   4.965  0.0945 -0.7717 -0.2300
    5SAPS   H7X  630   5.907   4.382   4.990 -2.4078 -0.7628  2.0719
    5SAPS   H7Y  631   5.978   4.550   4.990 -0.2153 -0.6377  0.5595
    5SAPS   C38  632   5.873   4.489   4.811 -0.0188  0.5222  0.9794
    5SAPS   H8X  633   5.838   4.594   4.799  1.1664  0.8297  0.0386
    5SAPS   H8Y  634   5.785   4.427   4.781 -1.9013  2.3853  2.3269
    5SAPS   C39  635   5.993   4.464   4.718  0.6722 -0.2265  0.1632
    5SAPS   H9X  636   6.027   4.360   4.737 -1.5420 -1.0775 -0.1361
    5SAPS   H9Y  637   6.063   4.541   4.755 -0.5602  0.3770  1.3631
    5SAPS  C310  638   5.970   4.482   4.565 -0.0468  0.0919 -0.3035
    5SAPS  H10X  639   6.066   4.461   4.512 -0.8617 -0.8331 -1.4566
    5SAPS  H10Y  640   5.949   4.588   4.538  0.9758  1.2359  2.8839
    5SAPS  C311  641   5.866   4.384   4.513 -0.2077 -0.3378  0.5644
    5SAPS  H11X  642   5.851   4.416   4.407  3.1630  0.5585  0.2623
    5SAPS  H11Y  643   5.769   4.401   4.565 -0.1007 -0.3926  0.7801
    5SAPS  C312  644   5.900   4.229   4.512  0.4301 -0.0148 -0.5447
    5SAPS  H12X  645   5.911   4.175   4.609  0.1362 -2.0702 -1.5884
    5SAPS  H12Y  646   6.000   4.212   4.466  0.7415 -2.0744  0.7636
    5SAPS  C313  647   5.796   4.146   4.440 -0.3496 -0.4014 -0.2308
    5SAPS  H13X  648   5.782   4.168   4.332 -2.3068  0.1767  0.0947
    5SAPS  H13Y  649   5.694   4.150   4.484  0.6153 -0.7489  2.1406
    5SAPS  C314  650   5.836   4.001   4.454 -0.7680 -0.3401 -0.5425
    5SAPS  H14X  651   5.809   3.969   4.557 -3.9021 -3.1405 -2.0450
    5SAPS  H14Y  652   5.947   4.002   4.452 -0.6013  1.5396  2.6429
    5SAPS  C315  653   5.783   3.904   4.348 -0.0487 -0.3399  0.5496
    5SAPS  H15X  654   5.839   3.919   4.253 -0.4046  0.4181  0.4533
    5SAPS  H15Y  655   5.677   3.938   4.337  0.5577  2.6065  2.5628
    5SAPS  C316  656   5.797   3.752   4.393  0.1705 -0.2055 -0.1800
    5SAPS  H16X  657   5.755   3.749   4.496 -0.4618 -2.0841 -0.4513
    5SAPS  H16Y  658   5.903   3.720   4.392  0.5545  0.8406  1.6352
    5SAPS  C317  659   5.715   3.656   4.312  0.6384  0.1824 -0.1231
    5SAPS  H17X  660   5.607   3.679   4.316  0.6477  0.2443 -0.2308
    5SAPS  H17Y  661   5.731   3.558   4.361 -0.3909 -1.5977 -3.0432
    5SAPS  C318  662   5.764   3.646   4.168  0.7660 -0.0144 -0.5426
    5SAPS  H18X  663   5.695   3.597   4.096 -0.7764  0.0620  0.8319
    5SAPS  H18Y  664   5.866   3.604   4.165 -0.0892 -2.1575 -0.9375
    5SAPS  H18Z  665   5.785   3.750   4.133  1.0602  0.0370 -0.2230
    6SAPS     N  666   1.709   5.088   6.308 -0.0777 -0.4105 -0.1264
    6SAPS   HN1  667   1.809   5.064   6.324  0.0396  1.0113  1.4577
    6SAPS   HN2  668   1.700   5.156   6.230 -1.5096 -0.3941  0.0185
    6SAPS   HN3  669   1.682   5.135   6.396  1.4641 -0.0582  0.1861
    6SAPS   C12  670   1.616   4.981   6.290  0.0361 -0.0648  0.0872
    6SAPS  H12A  671   1.632   4.954   6.187 -0.4895  1.6747 -0.4927
    6SAPS   C13  672   1.625   4.853   6.382  0.0841 -0.0865  0.0304
    6SAPS  O13A  673   1.686   4.855   6.492 -0.2901  0.1337 -0.2999
    6SAPS  O13B  674   1.572   4.744   6.341 -0.3611  0.3457  0.0985
    6SAPS   C11  675   1.463   5.026   6.300  0.8158  0.3346 -0.0928
    6SAPS  H11A  676   1.443   5.042   6.409 -0.8760  2.0915 -0.6124
    6SAPS  H11B  677   1.382   4.951   6.284  1.0082  0.3532 -1.1597
    6SAPS     P  678   1.326   5.189   6.137  0.4765  0.1874 -0.2915
    6SAPS   O13  679   1.200   5.193   6.214  0.1719 -0.2221  1.1333
    6SAPS   O14  680   1.377   5.304   6.058 -0.5750 -0.3299 -0.3601
    6SAPS   O12  681   1.439   5.154   6.241  0.1641  1.2914 -0.6113
    6SAPS   O11  682   1.317   5.069   6.031  0.4088  0.1084 -0.3418
    6SAPS    C1  683   1.428   5.013   5.967  0.2967 -0.3601  0.2536
    6SAPS    HA  684   1.521   5.059   6.006  1.5495 -0.9228 -1.8937
    6SAPS    HB  685   1.427   4.903   5.979 -0.6183 -0.3047  0.7342
    6SAPS    C2  686   1.415   5.035   5.818 -0.4452 -0.2519  0.3135
    6SAPS    HS  687   1.497   4.986   5.761 -0.0550  1.7417 -0.9303
    6SAPS   O21  688   1.409   5.179   5.793  0.1191 -0.2327 -0.3407
    6SAPS   C21  689   1.526   5.250   5.791 -0.3147 -0.4610  0.3077
    6SAPS   O22  690   1.637   5.194   5.797  0.6793 -1.0965  0.2680
    6SAPS   C22  691   1.498   5.400   5.777 -0.3384 -0.6104  0.2655
    6SAPS   H2R  692   1.390   5.425   5.774 -0.0505  0.7724 -3.3263
    6SAPS   H2S  693   1.546   5.453   5.862 -0.7783 -1.6695  1.1965
    6SAPS    C3  694   1.282   4.978   5.767 -0.3924 -0.1271 -0.5517
    6SAPS    HX  695   1.199   5.033   5.816 -0.0977  0.6941 -0.9390
    6SAPS    HY  696   1.283   4.878   5.813 -0.3931 -0.0457 -0.3753
    6SAPS   O31  697   1.278   4.969   5.624 -0.9865  0.3526  0.1348
    6SAPS   C31  698   1.193   5.047   5.561 -0.7588 -0.1279  0.2426
    6SAPS   O32  699   1.105   5.107   5.620 -0.3610  0.3998  0.8085
    6SAPS   C32  700   1.230   5.068   5.414 -0.1383  0.6918  0.2614
    6SAPS   H2X  701   1.327   5.017   5.398 -0.3048  0.2755  0.5735
    6SAPS   H2Y  702   1.246   5.177   5.398  1.2402  0.4416 -0.2687
    6SAPS   C23  703   1.553   5.458   5.646 -0.0399  0.0749  0.3741
    6SAPS   H3R  704   1.573   5.390   5.560 -0.5616 -0.1692  0.4441
    6SAPS   H3S  705   1.649   5.507   5.673  0.4563 -0.9505  0.5028
    6SAPS   C24  706   1.451   5.557   5.589 -0.2199 -0.0834 -0.2095
    6SAPS   H4R  707   1.408   5.641   5.648 -2.1776  0.6035 -2.4584
    6SAPS   H4S  708   1.361   5.501   5.556 -0.7128  1.0751 -0.8723
    6SAPS   C25  709   1.512   5.628   5.469 -0.2493  0.4427  0.1176
    6SAPS   H5R  710   1.610   5.669   5.496 -0.0362  0.8599 -1.2207
    6SAPS   C26  711   1.474   5.622   5.342  0.2085 -0.3793  0.4481
    6SAPS   H6R  712   1.537   5.666   5.264  0.0048  1.1925  1.1331
    6SAPS   C27  713   1.365   5.545   5.272 -0.4631  0.3837 -0.9853
    6SAPS   H7R  714   1.346   5.598   5.176  1.4251  0.9715 -1.0763
    6SAPS   H7S  715   1.267   5.563   5.322  1.0379  1.3675  1.8746
    6SAPS   C28  716   1.398   5.396   5.270 -0.1595  0.5145 -0.1679
    6SAPS   H8R  717   1.411   5.344   5.367 -4.0792 -0.6799 -0.1126
    6SAPS   C29  718   1.430   5.320   5.165 -1.0165  0.0460 -0.1822
    6SAPS   H9R  719   1.457   5.214   5.174 -0.7060 -0.1890 -2.8276
    6SAPS  C210  720   1.443   5.366   5.021 -0.4481  0.0161  0.2132
    6SAPS  H10R  721   1.457   5.268   4.971 -2.0621  0.5445 -1.3445
    6SAPS  H10S  722   1.537   5.418   4.991 -0.3346  0.3230  1.0549
    6SAPS  C211  723   1.333   5.431   4.946  0.2314 -0.0922  0.2561
    6SAPS  H11R  724   1.236   5.437   4.998 -0.1194  1.7374 -0.5215
    6SAPS  C212  725   1.337   5.475   4.816  0.0016  0.3411  0.5450
    6SAPS  H12R  726   1.240   5.491   4.765  0.4430 -1.3815 -0.9463
    6SAPS  C213  727   1.462   5.478   4.738  0.1527 -0.0991  0.2221
    6SAPS  H13R  728   1.470   5.378   4.689  1.7295  0.5255 -0.8860
    6SAPS  H13S  729   1.558   5.497   4.792  2.9550 -1.0457 -3.9510
    6SAPS  C214  730   1.464   5.587   4.636  0.2001 -0.0040  0.2485
    6SAPS  H14R  731   1.518   5.679   4.666  0.1436  0.2186 -0.3048
    6SAPS  C215  732   1.404   5.593   4.518 -0.6827  0.2224 -0.4513
    6SAPS  H15R  733   1.407   5.694   4.474  1.0462  0.1622 -0.5573
    6SAPS  C216  734   1.324   5.492   4.442  0.0804 -0.5734 -0.7773
    6SAPS  H16R  735   1.333   5.396   4.497 -1.5714  0.3122  1.1796
    6SAPS  H16S  736   1.374   5.483   4.343  1.0786 -1.2646 -0.2197
    6SAPS  C217  737   1.178   5.526   4.424 -0.0998  0.8770  0.3227
    6SAPS  H17R  738   1.123   5.521   4.521 -1.4449  1.2351 -0.3986
    6SAPS  H17S  739   1.122   5.454   4.361  2.9441 -1.7522  0.3509
    6SAPS  C218  740   1.166   5.656   4.341 -0.0663  0.8051 -0.4852
    6SAPS  H18R  741   1.191   5.629   4.237  0.4149  0.4163 -0.2718
    6SAPS  H18S  742   1.236   5.736   4.375  0.3179  1.1546 -2.0417
    6SAPS  C219  743   1.020   5.692   4.338  0.2647  0.4284 -0.1647
    6SAPS  H19R  744   0.991   5.710   4.443  4.1746  0.8323  0.9969
    6SAPS  H19S  745   0.951   5.617   4.295 -1.0518  1.9525 -0.8047
    6SAPS  C220  746   0.989   5.813   4.260 -0.1004 -0.4784 -0.8377
    6SAPS  H20R  747   1.041   5.894   4.315  0.7085 -0.8944 -0.9800
    6SAPS  H20S  748   0.881   5.833   4.246  0.0023  2.2511  1.4902
    6SAPS  H20T  749   1.040   5.793   4.163  3.6526 -0.7775  0.9975
    6SAPS   C33  750   1.134   5.007   5.310 -0.3313  0.1724  0.1711
    6SAPS   H3X  751   1.035   5.013   5.360  0.1912  1.5345  1.0918
    6SAPS   H3Y  752   1.160   4.900   5.291 -3.3784 -0.6020 -0.1073
    6SAPS   C34  753   1.127   5.081   5.178 -0.3409  0.2821  0.3360
    6SAPS   H4X  754   1.223   5.073   5.122  1.0526 -1.7816  2.8071
    6SAPS   H4Y  755   1.101   5.187   5.200 -0.8270  0.5851 -1.4753
    6SAPS   C35  756   1.011   5.020   5.093  0.2670  0.4079 -0.1411
    6SAPS   H5X  757   0.914   5.059   5.131 -0.8958  0.6805 -3.0519
    6SAPS   H5Y  758   1.001   4.911   5.108  1.8512  0.5754  2.8232
    6SAPS   C36  759   1.016   5.057   4.946 -0.0427  0.5042  0.7342
    6SAPS   H6X  760   1.106   5.004   4.909 -0.0908  1.1556 -0.3539
    6SAPS   H6Y  761   1.036   5.166   4.934  3.1785 -0.0129  0.5411
    6SAPS   C37  762   0.891   5.024   4.858 -0.5058 -0.1592 -0.6445
    6SAPS   H7X  763   0.810   5.087   4.901  0.1117 -0.6230  1.2905
    6SAPS   H7Y  764   0.872   4.915   4.866 -0.2925 -0.0799  1.5827
    6SAPS   C38  765   0.910   5.067   4.710 -0.1635 -0.1038 -0.1670
    6SAPS   H8X  766   0.955   5.168   4.694  2.0842 -1.4392 -3.0436
    6SAPS   H8Y  767   0.806   5.065   4.671  0.1170  0.8859 -1.0206
    6SAPS   C39  768   0.993   4.965   4.629  0.7207 -0.2400  0.6052
    6SAPS   H9X  769   0.954   4.862   4.642 -0.0228 -0.4461 -2.5405
    6SAPS   H9Y  770   1.100   4.968   4.660  1.3159 -0.2917 -1.3322
    6SAPS  C310  771   0.984   5.010   4.483  0.3484  0.0011  0.4756
    6SAPS  H10X  772   0.952   5.116   4.471 -3.1448 -0.9452  0.3159
    6SAPS  H10Y  773   0.900   4.953   4.439  1.4579 -0.0655 -1.6702
    6SAPS  C311  774   1.102   4.980   4.396 -0.0207  0.0700 -0.6128
    6SAPS  H11X  775   1.112   4.870   4.400 -1.4469 -0.1724 -2.4689
    6SAPS  H11Y  776   1.196   5.011   4.446 -1.1299  2.8497 -0.0651
    6SAPS  C312  777   1.084   5.026   4.253 -0.0996 -0.5789  0.2321
    6SAPS  H12X  778   0.977   5.003   4.233 -0.2166  0.3226 -0.2347
    6SAPS  H12Y  779   1.148   4.976   4.177  2.7642  3.5704 -0.4251
    6SAPS  C313  780   1.107   5.179   4.238 -0.0664  0.7619 -0.3691
    6SAPS  H13X  781   1.208   5.194   4.282 -0.0805  0.2670 -0.1626
    6SAPS  H13Y  782   1.033   5.232   4.303 -1.5628 -1.0541 -0.5072
    6SAPS  C314  783   1.106   5.232   4.094  0.0962  0.0764 -0.3581
    6SAPS  H14X  784   1.000   5.219   4.063 -0.5130  2.4258  0.5146
    6SAPS  H14Y  785   1.177   5.160   4.048 -0.9912 -1.7007  0.6213
    6SAPS  C315  786   1.135   5.384   4.082 -0.2709  0.1453 -0.4467
    6SAPS  H15X  787   1.239   5.400   4.115  0.1554 -1.8338 -0.7259
    6SAPS  H15Y  788   1.077   5.443   4.156 -0.1874 -1.7348  1.1932
    6SAPS  C316  789   1.135   5.432   3.938 -0.3140 -0.0045 -0.1540
    6SAPS  H16X  790   1.030   5.415   3.907 -0.1698  1.6663 -1.6756
    6SAPS  H16Y  791   1.194   5.369   3.868  1.5911 -2.8858  3.6407
    6SAPS  C317  792   1.171   5.578   3.917  0.8207  0.0437  0.2894
    6SAPS  H17X  793   1.277   5.601   3.943  0.0992  1.3357  2.2570
    6SAPS  H17Y  794   1.104   5.624   3.993 -0.6211  1.2753 -1.6373
    6SAPS  C318  795   1.129   5.617   3.777 -0.5047  0.2595  0.1911
    6SAPS  H18X  796   1.207   5.587   3.705 -3.4094 -1.5773 -2.4321
    6SAPS  H18Y  797   1.109   5.726   3.766 -0.1944  0.1220 -2.2315
    6SAPS  H18Z  798   1.041   5.560   3.741 -1.4613  1.4830  0.5113
    7SAPS     N  799   2.240   6.935   6.146 -0.0270 -0.9735 -0.2968
    7SAPS   HN1  800   2.245   7.035   6.118 -0.8383 -0.6796  0.5467
    7SAPS   HN2  801   2.296   6.878   6.080  1.3020  1.2717 -1.2140
    7SAPS   HN3  802   2.141   6.903   6.143  0.0039 -0.9766 -2.3473
    7SAPS   C12  803   2.299   6.928   6.284 -0.6617  0.1509  0.4401
    7SAPS  H12A  804   2.398   6.963   6.256 -1.0652  0.1027 -1.1938
    7SAPS   C13  805   2.239   7.012   6.395 -0.4151  0.4571 -0.0699
    7SAPS  O13A  806   2.149   7.094   6.372 -0.5510 -0.3976 -0.4559
    7SAPS  O13B  807   2.280   6.993   6.517  0.0088  0.0146  0.0862
    7SAPS   C11  808   2.316   6.783   6.324  0.7026 -0.7398 -0.3533
    7SAPS  H11A  809   2.215   6.742   6.343 -0.3819  0.3106 -3.3192
    7SAPS  H11B  810   2.374   6.773   6.419  1.1500 -3.3338 -0.8127
    7SAPS     P  811   2.525   6.674   6.187  0.1659  0.1556 -0.1131
    7SAPS   O13  812   2.603   6.797   6.158 -0.2529  0.1564 -0.1620
    7SAPS   O14  813   2.576   6.574   6.285 -0.6829  0.2294 -1.0184
    7SAPS   O12  814   2.373   6.705   6.221 -0.0461  0.0203  0.6846
    7SAPS   O11  815   2.496   6.598   6.054  0.2471 -0.8933 -0.5918
    7SAPS    C1  816   2.589   6.612   5.951  0.1139  0.1537 -0.0303
    7SAPS    HA  817   2.697   6.602   5.976 -0.2772 -1.0892  1.2954
    7SAPS    HB  818   2.571   6.527   5.882  1.1160  1.6564 -2.2403
    7SAPS    C2  819   2.568   6.740   5.868  0.0556 -0.0264  1.2802
    7SAPS    HS  820   2.550   6.830   5.931 -0.3244  0.3245  0.6824
    7SAPS   O21  821   2.464   6.727   5.774  0.5828  0.1647  0.2436
    7SAPS   C21  822   2.353   6.785   5.809  0.5481  0.2437  0.6738
    7SAPS   O22  823   2.329   6.830   5.919  0.1914  0.4196  0.2325
    7SAPS   C22  824   2.248   6.786   5.689 -0.2110  0.5985 -0.2189
    7SAPS   H2R  825   2.250   6.686   5.640  0.2226  1.0340 -1.1110
    7SAPS   H2S  826   2.142   6.798   5.720 -0.3084 -1.0824  0.2300
    7SAPS    C3  827   2.695   6.779   5.783  0.3630 -0.2131 -0.4748
    7SAPS    HX  828   2.782   6.804   5.848 -2.3713  2.2889  2.6414
    7SAPS    HY  829   2.681   6.874   5.728 -0.9361  0.8050  1.4908
    7SAPS   O31  830   2.724   6.662   5.695  0.0195  0.6177 -0.0558
    7SAPS   C31  831   2.670   6.659   5.572  0.1840 -0.0700  1.2030
    7SAPS   O32  832   2.605   6.746   5.516  0.1792 -0.0424  0.0170
    7SAPS   C32  833   2.716   6.525   5.510  0.9241 -0.6913  0.1475
    7SAPS   H2X  834   2.683   6.442   5.576 -1.2138  0.3595  0.4916
    7SAPS   H2Y  835   2.826   6.537   5.509  0.8014  2.8445  3.4520
    7SAPS   C23  836   2.289   6.892   5.588 -0.0542  0.6162  0.6450
    7SAPS   H3R  837   2.400   6.892   5.579 -0.1445 -0.2097 -0.8611
    7SAPS   H3S  838   2.246   6.989   5.622 -1.1737 -0.1828  1.5760
    7SAPS   C24  839   2.236   6.854   5.444  0.0918  0.0985 -0.2185
    7SAPS   H4R  840   2.129   6.828   5.455 -0.1668  0.7628 -1.0562
    7SAPS   H4S  841   2.288   6.758   5.423  1.5966  0.7087  0.5786
    7SAPS   C25  842   2.255   6.961   5.340  0.5628  0.3006  0.4215
    7SAPS   H5R  843   2.195   7.053   5.352  1.2333  0.4894  2.7018
    7SAPS   C26  844   2.320   6.951   5.231 -0.2821  0.2379  0.3682
    7SAPS   H6R  845   2.300   7.034   5.161 -3.1295 -0.3139  0.4050
    7SAPS   C27  846   2.402   6.834   5.191 -0.9776  0.1591 -0.1722
    7SAPS   H7R  847   2.331   6.752   5.166 -1.1412  1.1285 -3.3295
    7SAPS   H7S  848   2.463   6.792   5.274  1.4920  0.2412 -1.8317
    7SAPS   C28  849   2.500   6.861   5.080  0.2389 -0.9130  0.5777
    7SAPS   H8R  850   2.599   6.890   5.119  1.3866 -1.8166 -1.4984
    7SAPS   C29  851   2.486   6.879   4.946 -0.3062 -1.0313 -0.4198
    7SAPS   H9R  852   2.578   6.902   4.890  1.0386 -2.6677  0.9626
    7SAPS  C210  853   2.357   6.876   4.869 -0.6695 -0.0255  0.5980
    7SAPS  H10R  854   2.281   6.855   4.947  0.2985  1.7373  2.1345
    7SAPS  H10S  855   2.346   6.787   4.805 -2.2224  0.0113  0.7876
    7SAPS  C211  856   2.326   7.001   4.790 -0.1720  0.1004 -0.5724
    7SAPS  H11R  857   2.249   7.061   4.841 -0.6068 -0.1204 -0.9689
    7SAPS  C212  858   2.394   7.063   4.693  0.0456 -0.7398  0.2207
    7SAPS  H12R  859   2.371   7.167   4.663  0.7141 -0.4386  0.7210
    7SAPS  C213  860   2.511   7.014   4.604  0.3521  0.1336 -0.2225
    7SAPS  H13R  861   2.555   6.920   4.645  0.0980 -0.7414 -1.8498
    7SAPS  H13S  862   2.589   7.092   4.596  0.8892 -0.3359  0.3070
    7SAPS  C214  863   2.465   6.971   4.462 -0.4811 -0.0729  0.1043
    7SAPS  H14R  864   2.451   6.864   4.441 -0.0842  0.0137 -0.6157
    7SAPS  C215  865   2.448   7.056   4.353  0.1200  0.9042 -0.1960
    7SAPS  H15R  866   2.436   7.008   4.255  2.1735 -0.6601  0.2505
    7SAPS  C216  867   2.462   7.208   4.373 -0.7606  0.2036  0.0979
    7SAPS  H16R  868   2.533   7.235   4.453 -0.2672  1.0401 -0.6098
    7SAPS  H16S  869   2.363   7.248   4.405 -0.5495 -2.2555  4.6368
    7SAPS  C217  870   2.524   7.276   4.243 -0.5261 -0.5029  0.1584
    7SAPS  H17R  871   2.517   7.387   4.249 -3.8941 -0.6476  0.7399
    7SAPS  H17S  872   2.473   7.247   4.148  0.2694 -0.6003 -0.2457
    7SAPS  C218  873   2.674   7.249   4.227  0.0846 -0.2041 -0.4894
    7SAPS  H18R  874   2.696   7.140   4.224  0.8073 -0.0598 -0.6354
    7SAPS  H18S  875   2.721   7.297   4.315 -1.7206  0.9046 -0.0727
    7SAPS  C219  876   2.737   7.315   4.099 -0.2889 -0.0143 -0.7039
    7SAPS  H19R  877   2.844   7.324   4.127 -0.1008 -0.4845 -1.2667
    7SAPS  H19S  878   2.706   7.420   4.077 -3.2301 -1.0531 -1.9519
    7SAPS  C220  879   2.722   7.228   3.973  0.4920 -0.6175 -0.1569
    7SAPS  H20R  880   2.618   7.221   3.936 -0.5438  3.4719  1.4398
    7SAPS  H20S  881   2.763   7.129   4.005 -0.1898 -0.8134  0.1214
    7SAPS  H20T  882   2.791   7.261   3.892 -0.6878 -0.0456 -0.9588
    7SAPS   C33  883   2.663   6.494   5.365  0.1352 -0.7889  0.0039
    7SAPS   H3X  884   2.565   6.542   5.344  0.9533  0.3199 -1.4551
    7SAPS   H3Y  885   2.640   6.387   5.347 -1.4285 -0.3612 -0.6869
    7SAPS   C34  886   2.747   6.552   5.251 -0.0282 -0.6288 -0.0861
    7SAPS   H4X  887   2.848   6.509   5.236  0.3028 -0.7361  2.1468
    7SAPS   H4Y  888   2.761   6.661   5.266 -1.9479 -0.2221 -0.8843
    7SAPS   C35  889   2.662   6.529   5.123  0.3661  0.2277 -0.4319
    7SAPS   H5X  890   2.584   6.608   5.115  0.5191  0.3001 -1.4046
    7SAPS   H5Y  891   2.624   6.425   5.126  1.6778 -0.2448  0.5260
    7SAPS   C36  892   2.743   6.546   4.992  0.4459 -0.0707 -0.0561
    7SAPS   H6X  893   2.824   6.470   4.995  1.6315  1.1738  0.0799
    7SAPS   H6Y  894   2.799   6.642   4.993 -1.4613  1.0937 -0.4473
    7SAPS   C37  895   2.654   6.528   4.870  0.8562  0.0447 -0.6331
    7SAPS   H7X  896   2.569   6.599   4.867 -0.8944 -1.9550 -1.0320
    7SAPS   H7Y  897   2.608   6.427   4.870 -0.7788  0.7332  0.6433
    7SAPS   C38  898   2.728   6.553   4.740 -0.0928  0.4421 -0.4245
    7SAPS   H8X  899   2.790   6.464   4.716 -0.9608 -0.2629 -0.1389
    7SAPS   H8Y  900   2.794   6.641   4.755 -1.0127  1.3784 -1.6435
    7SAPS   C39  901   2.629   6.591   4.628 -0.5030  0.0306 -0.1222
    7SAPS   H9X  902   2.579   6.686   4.654 -0.0842  0.6670 -1.5421
    7SAPS   H9Y  903   2.542   6.523   4.618  0.3507 -0.9392 -1.2829
    7SAPS  C310  904   2.704   6.611   4.497 -0.1040  0.0014 -0.0562
    7SAPS  H10X  905   2.621   6.605   4.422 -0.0632 -1.0315 -0.0452
    7SAPS  H10Y  906   2.765   6.520   4.475 -0.4778 -0.2820  0.0586
    7SAPS  C311  907   2.775   6.741   4.467 -0.0092  0.0033 -0.1647
    7SAPS  H11X  908   2.868   6.737   4.528 -0.6519  3.2071  1.2320
    7SAPS  H11Y  909   2.718   6.824   4.513 -3.2658 -2.0998 -0.1730
    7SAPS  C312  910   2.805   6.754   4.316 -0.1772 -0.3210 -0.3066
    7SAPS  H12X  911   2.710   6.780   4.266 -0.1952 -0.4679 -0.3478
    7SAPS  H12Y  912   2.855   6.667   4.269 -0.5562 -0.3960 -0.5697
    7SAPS  C313  913   2.899   6.870   4.292 -0.3645 -0.5481 -0.2276
    7SAPS  H13X  914   2.994   6.840   4.342 -1.0147 -1.2604  0.5965
    7SAPS  H13Y  915   2.845   6.964   4.316  0.5459  0.1531 -0.8189
    7SAPS  C314  916   2.936   6.880   4.139 -0.1742  0.7769  0.2300
    7SAPS  H14X  917   2.842   6.901   4.084  0.4710  1.4925 -0.6239
    7SAPS  H14Y  918   2.973   6.783   4.098 -0.6412  0.0826  1.3736
    7SAPS  C315  919   3.044   6.983   4.115 -0.1238 -0.3111  0.1348
    7SAPS  H15X  920   3.130   6.954   4.179 -0.9750  0.4314  1.6919
    7SAPS  H15Y  921   3.010   7.085   4.145  1.3374  0.3291 -0.3056
    7SAPS  C316  922   3.079   6.986   3.966  0.3767 -0.0917 -0.5626
    7SAPS  H16X  923   2.990   7.009   3.904 -0.5288 -0.4020  0.5906
    7SAPS  H16Y  924   3.132   6.894   3.934  2.3265  0.1326  1.7559
    7SAPS  C317  925   3.181   7.100   3.943 -0.2220 -0.1215  0.4088
    7SAPS  H17X  926   3.229   7.078   3.845  0.0506 -1.6205  0.8597
    7SAPS  H17Y  927   3.264   7.085   4.015  2.7077 -0.3699 -2.7164
    7SAPS  C318  928   3.132   7.244   3.937  0.1756 -0.2862  0.0328
    7SAPS  H18X  929   3.206   7.327   3.945  0.8919 -0.8421 -0.6615
    7SAPS  H18Y  930   3.060   7.269   4.018  1.8462  1.9830  0.9178
    7SAPS  H18Z  931   3.087   7.260   3.837  0.7145 -1.8336 -0.4824
    8SAPS     N  932   1.913   0.075   6.240 -0.2540  0.3499 -0.0176
    8SAPS   HN1  933   1.943   0.087   6.141 -1.0836 -1.1026 -0.4699
    8SAPS   HN2  934   1.998   0.060   6.299 -2.0911 -2.4184  2.2007
    8SAPS   HN3  935   1.860  -0.014   6.237  0.8358 -0.5365  3.0334
    8SAPS   C12  936   1.835   0.186   6.292 -0.5304  0.6836 -1.2134
    8SAPS  H12A  937   1.759   0.210   6.219 -1.1803  0.2976 -0.6738
    8SAPS   C13  938   1.744   0.165   6.415 -0.8576 -0.1402  0.1360
    8SAPS  O13A  939   1.721   0.046   6.444 -0.1522  0.1122 -0.0855
    8SAPS  O13B  940   1.662   0.256   6.441 -0.7974  0.4632 -0.3246
    8SAPS   C11  941   1.932   0.309   6.315  0.3594  0.3103  0.0115
    8SAPS  H11A  942   1.996   0.319   6.225 -0.3774 -0.4710 -0.6208
    8SAPS  H11B  943   2.006   0.291   6.396  0.2399 -0.5394 -0.0602
    8SAPS     P  944   1.941   0.569   6.379  0.0994 -0.4380 -0.2565
    8SAPS   O13  945   1.854   0.678   6.391 -0.2638 -0.8363 -0.2180
    8SAPS   O14  946   2.040   0.557   6.486 -0.3787  0.0987 -0.1969
    8SAPS   O12  947   1.869   0.429   6.363  0.1696  0.0959  0.1816
    8SAPS   O11  948   2.019   0.583   6.246 -0.1626  0.0028 -0.7116
    8SAPS    C1  949   2.158   0.597   6.233 -0.0528  0.3421 -0.1387
    8SAPS    HA  950   2.205   0.677   6.294  1.2777 -0.2685 -0.3192
    8SAPS    HB  951   2.212   0.503   6.260 -0.5712  0.0944  0.0369
    8SAPS    C2  952   2.196   0.634   6.082  0.4652 -0.7240  0.3900
    8SAPS    HS  953   2.295   0.684   6.084  0.7244 -1.2155 -0.1141
    8SAPS   O21  954   2.100   0.710   6.014  0.0448  0.2213  0.2733
    8SAPS   C21  955   2.082   0.839   6.051 -0.7352  0.2169 -0.6292
    8SAPS   O22  956   2.110   0.890   6.155 -0.2281 -0.0450  0.1637
    8SAPS   C22  957   2.023   0.912   5.930  0.1574 -0.4275  0.2426
    8SAPS   H2R  958   2.095   0.891   5.848 -0.8555  0.2454 -0.8410
    8SAPS   H2S  959   1.922   0.878   5.900  0.4830 -0.3523 -0.9920
    8SAPS    C3  960   2.218   0.493   6.015 -0.1655 -1.3070  0.5174
    8SAPS    HX  961   2.110   0.467   6.018 -1.6665  3.5485 -0.5831
    8SAPS    HY  962   2.286   0.427   6.072  1.2332 -0.0025  0.4391
    8SAPS   O31  963   2.267   0.511   5.880 -0.9945 -0.0727  0.0073
    8SAPS   C31  964   2.229   0.405   5.802  0.1355 -0.6384 -0.5896
    8SAPS   O32  965   2.183   0.300   5.843  0.9417 -0.4486  0.2326
    8SAPS   C32  966   2.256   0.445   5.659  0.5446  0.0930  0.1260
    8SAPS   H2X  967   2.366   0.463   5.655  0.2643  1.9311 -0.1253
    8SAPS   H2Y  968   2.215   0.543   5.626  1.3497 -0.5540 -3.1462
    8SAPS   C23  969   2.026   1.070   5.932  0.1757  0.6440 -0.0263
    8SAPS   H3R  970   2.133   1.092   5.948  0.1404 -0.0079  1.1743
    8SAPS   H3S  971   1.963   1.106   6.016  0.5863 -0.8823  0.9851
    8SAPS   C24  972   1.993   1.135   5.799 -0.1074 -0.7100  0.3319
    8SAPS   H4R  973   2.053   1.074   5.727 -1.5497 -2.5389  0.6030
    8SAPS   H4S  974   2.018   1.243   5.802  1.9553 -1.1436  0.5040
    8SAPS   C25  975   1.852   1.115   5.757  0.1081 -0.6967 -0.6363
    8SAPS   H5R  976   1.773   1.171   5.810  1.0593  0.8274 -0.7806
    8SAPS   C26  977   1.809   1.039   5.656 -0.4727 -0.4369  0.1650
    8SAPS   H6R  978   1.701   1.042   5.632 -0.4752  0.7770  0.2630
    8SAPS   C27  979   1.887   0.961   5.550 -0.0026  0.2314 -0.6732
    8SAPS   H7R  980   1.969   0.919   5.612 -0.6606  1.3471  1.0312
    8SAPS   H7S  981   1.940   1.028   5.479  0.3162  0.4289 -0.2524
    8SAPS   C28  982   1.819   0.839   5.482 -0.4458  0.2124  0.4375
    8SAPS   H8R  983   1.824   0.737   5.524 -0.5389 -0.1989 -0.5176
    8SAPS   C29  984   1.754   0.841   5.365 -0.1193  0.2917 -0.1403
    8SAPS   H9R  985   1.732   0.746   5.314  2.0607 -0.3135 -0.0474
    8SAPS  C210  986   1.722   0.963   5.280  0.2756 -0.1321 -0.2677
    8SAPS  H10R  987   1.811   0.997   5.222  0.2122  0.7000  0.1098
    8SAPS  H10S  988   1.693   1.052   5.341  1.6262 -0.4038  0.8149
    8SAPS  C211  989   1.613   0.935   5.178  0.7876  0.4925  0.9020
    8SAPS  H11R  990   1.515   0.964   5.217 -0.4579 -2.1572  0.0057
    8SAPS  C212  991   1.617   0.892   5.045  0.8831 -0.3198 -0.4840
    8SAPS  H12R  992   1.520   0.882   4.995  0.8044  0.9867 -0.6266
    8SAPS  C213  993   1.741   0.874   4.967 -1.3197 -0.6856  1.1502
    8SAPS  H13R  994   1.828   0.933   5.002 -2.2166  1.6753 -0.3806
    8SAPS  H13S  995   1.719   0.932   4.875  2.2420 -0.4550  0.2960
    8SAPS  C214  996   1.784   0.740   4.928 -1.8573  0.1909 -0.4921
    8SAPS  H14R  997   1.828   0.687   5.014  1.2860 -1.2359 -2.8015
    8SAPS  C215  998   1.780   0.678   4.808  0.0570 -0.1708  0.5284
    8SAPS  H15R  999   1.822   0.577   4.802  1.5632  0.4394  0.3163
    8SAPS  C216 1000   1.743   0.737   4.666 -0.0539 -0.8152 -0.3622
    8SAPS  H16R 1001   1.813   0.691   4.593  0.2787 -0.8831 -0.0007
    8SAPS  H16S 1002   1.763   0.845   4.654  0.3420 -1.1056 -2.9389
    8SAPS  C217 1003   1.597   0.714   4.622 -0.2813 -0.1319 -0.2266
    8SAPS  H17R 1004   1.540   0.765   4.702  1.8088  1.3838  0.3705
    8SAPS  H17S 1005   1.582   0.604   4.609  1.2539 -0.3985  0.0269
    8SAPS  C218 1006   1.559   0.787   4.492 -0.0933  0.1084  0.1772
    8SAPS  H18R 1007   1.552   0.898   4.499  0.6610  0.5038 -3.5681
    8SAPS  H18S 1008   1.455   0.759   4.462  0.3200 -1.0789 -0.1802
    8SAPS  C219 1009   1.644   0.733   4.372 -0.4008 -0.4271  0.1479
    8SAPS  H19R 1010   1.624   0.624   4.376  0.8081 -0.6741  0.0351
    8SAPS  H19S 1011   1.754   0.744   4.389  0.0879  0.6703 -3.0933
    8SAPS  C220 1012   1.594   0.789   4.244 -0.6564 -0.7706  0.2689
    8SAPS  H20R 1013   1.615   0.899   4.242  1.3493 -1.1131 -0.0479
    8SAPS  H20S 1014   1.487   0.765   4.230 -0.7346 -0.1406 -0.3001
    8SAPS  H20T 1015   1.656   0.749   4.161  3.6489  1.3677  2.1181
    8SAPS   C33 1016   2.214   0.328   5.562 -0.8060 -0.8543  0.0920
    8SAPS   H3X 1017   2.117   0.287   5.598 -2.3865  2.3495 -0.2383
    8SAPS   H3Y 1018   2.282   0.241   5.550  0.0961 -0.2583  0.7349
    8SAPS   C34 1019   2.177   0.390   5.431 -0.3196 -0.5710 -0.3375
    8SAPS   H4X 1020   2.262   0.439   5.379 -1.0952  0.6489 -0.5207
    8SAPS   H4Y 1021   2.105   0.470   5.459  1.0196 -0.5700  3.7495
    8SAPS   C35 1022   2.107   0.283   5.345 -0.5729  0.3939  0.0458
    8SAPS   H5X 1023   2.016   0.262   5.404 -1.5415  0.7336 -1.2619
    8SAPS   H5Y 1024   2.162   0.187   5.340 -1.5845 -0.1585 -0.8123
    8SAPS   C36 1025   2.061   0.329   5.204  0.6441  0.4342 -0.9962
    8SAPS   H6X 1026   2.014   0.429   5.197 -0.3506  0.1107  0.6674
    8SAPS   H6Y 1027   1.984   0.256   5.171  0.3874 -0.1146  0.7097
    8SAPS   C37 1028   2.179   0.349   5.106 -0.0653 -0.2870  0.0596
    8SAPS   H7X 1029   2.239   0.255   5.106 -1.4550 -1.2499 -1.8925
    8SAPS   H7Y 1030   2.240   0.435   5.139  0.3700 -0.3728 -0.5202
    8SAPS   C38 1031   2.123   0.374   4.962  0.0491 -0.2806  0.2645
    8SAPS   H8X 1032   2.201   0.405   4.889  2.1298 -0.9157  2.1156
    8SAPS   H8Y 1033   2.054   0.461   4.963  1.6098  0.9843  1.1525
    8SAPS   C39 1034   2.039   0.265   4.900 -0.0988 -0.5352 -0.2203
    8SAPS   H9X 1035   1.955   0.250   4.972  0.2569  1.5065  0.7034
    8SAPS   H9Y 1036   2.103   0.175   4.906  1.7303  0.7856  1.5436
    8SAPS  C310 1037   1.998   0.296   4.760 -0.0204 -0.1241 -0.2523
    8SAPS  H10X 1038   1.968   0.402   4.745  2.1972  0.3228 -1.9850
    8SAPS  H10Y 1039   1.916   0.230   4.725  1.2961 -1.7355 -0.3897
    8SAPS  C311 1040   2.118   0.277   4.667  0.4283  0.4431  0.3532
    8SAPS  H11X 1041   2.173   0.180   4.674 -0.6678 -0.3400 -1.1567
    8SAPS  H11Y 1042   2.192   0.355   4.695 -1.5169  1.3523  3.4095
    8SAPS  C312 1043   2.075   0.265   4.522  0.5908  0.1886  0.4380
    8SAPS  H12X 1044   2.156   0.301   4.456  1.5970  1.1226  2.1299
    8SAPS  H12Y 1045   1.995   0.338   4.497  1.4963  0.5050 -1.8391
    8SAPS  C313 1046   2.035   0.130   4.472  0.1101 -0.4167  0.2408
    8SAPS  H13X 1047   1.968   0.081   4.547  0.8422  0.8433  1.7771
    8SAPS  H13Y 1048   2.126   0.067   4.466  0.9035  0.8260 -1.3349
    8SAPS  C314 1049   1.964   0.126   4.333  0.4268  0.0435 -0.6300
    8SAPS  H14X 1050   1.889   0.208   4.329  1.1845  0.7208 -1.2548
    8SAPS  H14Y 1051   1.917   0.025   4.323  2.0470 -0.7015 -1.1362
    8SAPS  C315 1052   2.062   0.144   4.227  0.1372 -0.1925 -0.0824
    8SAPS  H15X 1053   2.141   0.067   4.239  0.6570 -0.3417 -3.5464
    8SAPS  H15Y 1054   2.102   0.248   4.233  0.8785 -0.3263 -2.0579
    8SAPS  C316 1055   2.014   0.124   4.086  0.2150  0.1817 -1.0648
    8SAPS  H16X 1056   1.920   0.183   4.086  0.1856  0.1509 -2.4849
    8SAPS  H16Y 1057   1.990   0.017   4.072  1.9465 -0.2309 -1.1515
    8SAPS  C317 1058   2.103   0.181   3.978 -0.9359 -0.4370 -0.0424
    8SAPS  H17X 1059   2.131   0.281   4.016 -0.4273 -0.5027 -0.2418
    8SAPS  H17Y 1060   2.046   0.191   3.883 -1.5333 -1.4023  0.1950
    8SAPS  C318 1061   2.230   0.094   3.971  0.3578  0.2881  0.0136
    8SAPS  H18X 1062   2.294   0.145   3.896  1.1087  2.0312  1.7229
    8SAPS  H18Y 1063   2.217  -0.010   3.934  2.5339  0.6589 -2.0901
    8SAPS  H18Z 1064   2.287   0.099   4.067 -1.0037 -1.4684  0.9780
    9SAPS     N 1065   6.211   6.313   6.628 -0.4205 -0.3662  0.2976
    9SAPS   HN1 1066   6.204   6.283   6.728  1.0433  1.8785  1.1641
    9SAPS   HN2 1067   6.230   6.228   6.571  2.4008 -0.5426  1.3026
    9SAPS   HN3 1068   6.289   6.380   6.614 -1.3522  0.7539  0.3332
    9SAPS   C12 1069   6.071   6.379   6.584 -0.1482  0.0847 -0.4492
    9SAPS  H12A 1070   5.997   6.301   6.595 -0.3040  0.1885 -0.7602
    9SAPS   C13 1071   6.034   6.509   6.656 -0.0403 -0.1590  0.8729
    9SAPS  O13A 1072   6.099   6.546   6.758  0.1121 -0.1586 -0.3686
    9SAPS  O13B 1073   5.934   6.569   6.608  0.0625  0.1032 -0.3470
    9SAPS   C11 1074   6.100   6.413   6.440  0.1177  0.1114  0.2706
    9SAPS  H11A 1075   6.182   6.487   6.448 -2.5181  3.4710 -1.2422
    9SAPS  H11B 1076   6.023   6.473   6.387 -0.5304 -2.9224 -2.5766
    9SAPS     P 1077   6.034   6.224   6.277  0.1725  0.1096 -0.2372
    9SAPS   O13 1078   6.090   6.092   6.251 -0.4530  0.2652 -0.6443
    9SAPS   O14 1079   5.908   6.221   6.358  0.3988 -0.1974 -0.4806
    9SAPS   O12 1080   6.141   6.303   6.363  0.0628 -0.1707 -0.9689
    9SAPS   O11 1081   6.010   6.308   6.144  0.7749 -0.6150 -0.0822
    9SAPS    C1 1082   6.120   6.379   6.087 -0.4190  0.6581 -0.4107
    9SAPS    HA 1083   6.115   6.488   6.111 -1.5004  0.8694 -1.5139
    9SAPS    HB 1084   6.217   6.357   6.138  0.4768 -1.3352 -2.7914
    9SAPS    C2 1085   6.142   6.358   5.936  0.2114  0.6391  0.1592
    9SAPS    HS 1086   6.221   6.429   5.904 -0.8038  1.5461 -0.3874
    9SAPS   O21 1087   6.017   6.368   5.865  0.2924 -0.0509  0.1878
    9SAPS   C21 1088   5.965   6.491   5.874 -0.3133 -0.0132 -0.0101
    9SAPS   O22 1089   6.020   6.593   5.916  0.1446 -0.5662 -0.0472
    9SAPS   C22 1090   5.821   6.500   5.805 -0.6240 -0.7686  0.7353
    9SAPS   H2R 1091   5.804   6.392   5.787 -0.4899 -0.8029  0.8200
    9SAPS   H2S 1092   5.753   6.546   5.882 -0.3677  1.5505 -0.3320
    9SAPS    C3 1093   6.197   6.217   5.911  0.1519 -0.1659 -0.2836
    9SAPS    HX 1094   6.142   6.135   5.963  0.3469 -0.0704  0.0785
    9SAPS    HY 1095   6.296   6.201   5.958 -0.5444 -1.1750  0.8896
    9SAPS   O31 1096   6.201   6.186   5.770 -0.0564 -0.0625 -0.0651
    9SAPS   C31 1097   6.305   6.244   5.709 -0.5186  0.0324 -0.5203
    9SAPS   O32 1098   6.394   6.310   5.761  0.4023  0.3184 -0.0388
    9SAPS   C32 1099   6.293   6.203   5.557 -0.6353 -0.1659 -0.2882
    9SAPS   H2X 1100   6.189   6.187   5.523 -1.0319  3.3211 -1.1199
    9SAPS   H2Y 1101   6.342   6.104   5.566 -2.1805 -1.0993 -1.6920
    9SAPS   C23 1102   5.805   6.570   5.662  0.3116  0.1625  0.1674
    9SAPS   H3R 1103   5.829   6.675   5.688  2.1666 -1.0114  3.8533
    9SAPS   H3S 1104   5.699   6.561   5.630  0.9141  1.8936 -2.6472
    9SAPS   C24 1105   5.897   6.522   5.552  0.0448  0.1379 -0.0357
    9SAPS   H4R 1106   6.002   6.519   5.588  0.2284  0.9251 -0.4951
    9SAPS   H4S 1107   5.894   6.605   5.478  1.7795 -0.5468 -0.9133
    9SAPS   C25 1108   5.852   6.391   5.501  0.0343 -0.5688 -0.5580
    9SAPS   H5R 1109   5.900   6.313   5.561  2.3872  2.3869  1.6820
    9SAPS   C26 1110   5.756   6.368   5.411  0.5681 -0.2651 -0.7300
    9SAPS   H6R 1111   5.749   6.265   5.373  0.8262  0.0643 -1.7023
    9SAPS   C27 1112   5.674   6.462   5.330 -0.1461  0.0030 -0.1642
    9SAPS   H7R 1113   5.722   6.490   5.234 -0.2142  2.4856  0.4474
    9SAPS   H7S 1114   5.665   6.553   5.392 -0.9231 -1.6799  2.3561
    9SAPS   C28 1115   5.534   6.417   5.317 -0.0705 -0.1933  0.4588
    9SAPS   H8R 1116   5.495   6.422   5.419  2.4729  0.7171  1.4654
    9SAPS   C29 1117   5.481   6.343   5.212 -0.0370 -0.5090  0.1845
    9SAPS   H9R 1118   5.386   6.288   5.222 -1.1040  0.8697 -1.6565
    9SAPS  C210 1119   5.559   6.307   5.090 -0.5767  0.1329  0.5034
    9SAPS  H10R 1120   5.663   6.345   5.095 -0.7524  0.6824  0.0682
    9SAPS  H10S 1121   5.510   6.373   5.016 -3.6590 -1.2757  1.1384
    9SAPS  C211 1122   5.559   6.164   5.050 -0.2549  0.5629 -0.2166
    9SAPS  H11R 1123   5.481   6.101   5.094  0.3700 -0.5203 -0.6062
    9SAPS  C212 1124   5.653   6.103   4.974  0.1024 -0.0709 -0.4332
    9SAPS  H12R 1125   5.642   5.994   4.973 -2.2031  0.1117 -1.8393
    9SAPS  C213 1126   5.761   6.164   4.889 -0.6511 -0.4489  0.6382
    9SAPS  H13R 1127   5.852   6.105   4.911  0.4979  1.7463  2.1692
    9SAPS  H13S 1128   5.783   6.265   4.929  1.6211 -0.9790  0.8561
    9SAPS  C214 1129   5.743   6.176   4.740 -0.4856  0.3411  0.1651
    9SAPS  H14R 1130   5.733   6.276   4.697  0.8893 -1.1027 -4.0567
    9SAPS  C215 1131   5.754   6.073   4.650  0.2085  0.3515 -0.0310
    9SAPS  H15R 1132   5.723   6.088   4.546  1.6285  1.7687 -0.3044
    9SAPS  C216 1133   5.778   5.925   4.690  0.3217 -0.0016 -0.6750
    9SAPS  H16R 1134   5.682   5.870   4.677 -0.9654  1.4114  2.0941
    9SAPS  H16S 1135   5.809   5.899   4.794  2.6068 -0.5853 -1.4340
    9SAPS  C217 1136   5.878   5.846   4.593  1.1141  0.2749  0.3276
    9SAPS  H17R 1137   5.839   5.850   4.489  3.0915 -1.7674 -0.5914
    9SAPS  H17S 1138   5.880   5.737   4.615  1.5906 -0.1555 -1.5922
    9SAPS  C218 1139   6.022   5.895   4.597  1.0292  0.1766  0.2087
    9SAPS  H18R 1140   6.064   5.895   4.700  0.7028 -0.1671  0.3447
    9SAPS  H18S 1141   6.024   5.996   4.550 -3.2475  0.0157 -0.7369
    9SAPS  C219 1142   6.119   5.819   4.507 -0.1142 -0.3554 -0.4128
    9SAPS  H19R 1143   6.209   5.882   4.496 -0.1610 -0.0163  0.9021
    9SAPS  H19S 1144   6.081   5.816   4.403 -1.5205 -1.5430  0.0869
    9SAPS  C220 1145   6.162   5.677   4.555  0.1098  0.0336  0.7123
    9SAPS  H20R 1146   6.219   5.674   4.650  1.0015 -1.5719  0.1592
    9SAPS  H20S 1147   6.224   5.638   4.471 -1.8949  1.9584 -1.8821
    9SAPS  H20T 1148   6.069   5.618   4.568  0.5325 -1.1577 -1.3193
    9SAPS   C33 1149   6.372   6.305   5.471 -0.3779  0.6437  0.5980
    9SAPS   H3X 1150   6.405   6.254   5.378 -2.1824  0.3295  0.0939
    9SAPS   H3Y 1151   6.470   6.331   5.517 -0.2678 -1.7828  1.8723
    9SAPS   C34 1152   6.298   6.445   5.446  0.4107  1.0749 -0.0040
    9SAPS   H4X 1153   6.379   6.496   5.388  2.5787 -3.7603 -1.7338
    9SAPS   H4Y 1154   6.278   6.495   5.543  2.1369  2.6220 -0.3751
    9SAPS   C35 1155   6.167   6.429   5.354  0.2385 -0.7230 -0.6277
    9SAPS   H5X 1156   6.130   6.533   5.348  0.8089 -0.5119 -0.5885
    9SAPS   H5Y 1157   6.091   6.370   5.409 -0.5378  0.9778  0.1754
    9SAPS   C36 1158   6.189   6.382   5.215  0.1140  0.0477  0.0195
    9SAPS   H6X 1159   6.209   6.273   5.212 -0.2186 -0.0445  0.9483
    9SAPS   H6Y 1160   6.270   6.437   5.161  0.8054 -1.9168 -1.0379
    9SAPS   C37 1161   6.050   6.391   5.137  0.2121  0.1339 -0.9322
    9SAPS   H7X 1162   5.998   6.477   5.186 -0.0404 -0.9533  0.8207
    9SAPS   H7Y 1163   6.004   6.295   5.168  2.1129 -0.2549  0.9693
    9SAPS   C38 1164   6.049   6.423   4.984 -0.0747  0.1854  0.5672
    9SAPS   H8X 1165   6.085   6.527   4.968 -2.5996  1.1451  0.7304
    9SAPS   H8Y 1166   5.945   6.415   4.947  1.3231 -1.6471 -3.4786
    9SAPS   C39 1167   6.129   6.326   4.896  0.1425  0.4514 -0.9246
    9SAPS   H9X 1168   6.079   6.230   4.918 -1.0702  1.7662  3.0798
    9SAPS   H9Y 1169   6.234   6.318   4.931 -0.1117  4.0098  1.1856
    9SAPS  C310 1170   6.108   6.343   4.749  0.2076  0.2011 -0.4599
    9SAPS  H10X 1171   6.105   6.451   4.725 -0.2854  0.2905 -0.0127
    9SAPS  H10Y 1172   6.004   6.311   4.728  0.1674 -1.4651  1.9039
    9SAPS  C311 1173   6.207   6.278   4.648  1.1707 -1.2315 -0.3748
    9SAPS  H11X 1174   6.223   6.171   4.676  1.5493 -1.1702 -0.3561
    9SAPS  H11Y 1175   6.302   6.333   4.661  0.6176 -0.6945  1.7599
    9SAPS  C312 1176   6.159   6.280   4.499 -0.1435 -0.2510 -0.3421
    9SAPS  H12X 1177   6.128   6.382   4.468  1.3571 -0.2678 -2.0552
    9SAPS  H12Y 1178   6.073   6.213   4.479 -0.6341 -0.3953  2.0257
    9SAPS  C313 1179   6.284   6.221   4.422  0.3910  0.3327  0.1702
    9SAPS  H13X 1180   6.299   6.124   4.475 -1.7262  1.1595  2.4485
    9SAPS  H13Y 1181   6.368   6.289   4.449  0.3599  0.5877 -0.3590
    9SAPS  C314 1182   6.269   6.205   4.274 -0.6843  0.0606 -0.0669
    9SAPS  H14X 1183   6.273   6.307   4.229 -0.3020  0.0832  0.0162
    9SAPS  H14Y 1184   6.163   6.175   4.261 -0.4124 -0.2464 -1.8268
    9SAPS  C315 1185   6.371   6.114   4.200 -0.0481 -0.2713 -0.0924
    9SAPS  H15X 1186   6.472   6.161   4.204 -0.4745  0.7670 -1.2751
    9SAPS  H15Y 1187   6.347   6.109   4.092 -0.5983 -2.0521  0.0868
    9SAPS  C316 1188   6.371   5.969   4.253 -0.0424 -0.5793  0.9993
    9SAPS  H16X 1189   6.274   5.915   4.251 -0.4183  0.0873  0.8128
    9SAPS  H16Y 1190   6.401   5.963   4.359 -1.1862 -0.8778  1.3145
    9SAPS  C317 1191   6.468   5.881   4.180 -0.5127  0.0962 -0.7091
    9SAPS  H17X 1192   6.572   5.911   4.204 -0.5063  0.8167 -1.5962
    9SAPS  H17Y 1193   6.466   5.893   4.070 -0.0530  0.0799 -0.7203
    9SAPS  C318 1194   6.432   5.728   4.198 -0.0920 -0.1774  0.1498
    9SAPS  H18X 1195   6.476   5.660   4.122 -0.0695  0.3213 -0.2951
    9SAPS  H18Y 1196   6.324   5.722   4.172  0.2834 -1.5399 -1.2447
    9SAPS  H18Z 1197   6.462   5.680   4.293  0.0776 -1.3681 -0.4903
   10SAPS     N 1198   0.658   6.682   6.496 -0.9182 -0.0796  0.4680
   10SAPS   HN1 1199   0.566   6.697   6.542 -1.5783  2.6086 -1.4387
   10SAPS   HN2 1200   0.645   6.663   6.394  4.6124  1.5406 -0.8644
   10SAPS   HN3 1201   0.715   6.602   6.530 -2.1317 -0.8708  0.7136
   10SAPS   C12 1202   0.755   6.796   6.503  0.9125  1.0111  0.3794
   10SAPS  H12A 1203   0.706   6.885   6.467 -0.5535 -0.1157 -0.5207
   10SAPS   C13 1204   0.784   6.838   6.647 -0.4307 -0.4144 -0.2904
   10SAPS  O13A 1205   0.731   6.779   6.750  0.1481  0.7844  0.3583
   10SAPS  O13B 1206   0.837   6.952   6.667  0.4406  0.0351  0.2157
   10SAPS   C11 1207   0.893   6.753   6.439 -0.9595 -0.3246 -0.3841
   10SAPS  H11A 1208   0.941   6.678   6.505 -1.6693  0.4976  1.1291
   10SAPS  H11B 1209   0.955   6.845   6.440 -2.1043  0.4628 -0.2035
   10SAPS     P 1210   0.931   6.594   6.233 -0.2751  0.3216 -0.0311
   10SAPS   O13 1211   0.986   6.508   6.336  0.1833  0.5216  0.3449
   10SAPS   O14 1212   0.827   6.544   6.141 -0.6772  0.8757 -0.4656
   10SAPS   O12 1213   0.879   6.728   6.301 -0.0589 -0.0359  0.3745
   10SAPS   O11 1214   1.051   6.647   6.145  0.1245 -0.2972  0.2524
   10SAPS    C1 1215   1.027   6.732   6.032 -0.6387  0.8074  0.0638
   10SAPS    HA 1216   0.930   6.784   6.038 -1.1816 -0.1179 -0.4779
   10SAPS    HB 1217   1.105   6.811   6.033 -1.2011  1.3890 -0.9467
   10SAPS    C2 1218   1.032   6.652   5.898  0.1249 -0.0692  0.4656
   10SAPS    HS 1219   0.957   6.571   5.913  0.2478 -0.5005 -1.1203
   10SAPS   O21 1220   1.167   6.602   5.888  0.0953  0.1937 -0.0272
   10SAPS   C21 1221   1.176   6.496   5.807  0.1708 -0.0979 -0.2801
   10SAPS   O22 1222   1.083   6.438   5.751 -0.3705 -0.0498  0.3026
   10SAPS   C22 1223   1.323   6.452   5.794 -0.1158  0.4975 -0.2192
   10SAPS   H2R 1224   1.364   6.434   5.896  0.3474  0.5047 -0.4040
   10SAPS   H2S 1225   1.308   6.360   5.734 -3.1056  1.5529 -1.2586
   10SAPS    C3 1226   1.000   6.746   5.775 -0.2966 -0.0903  0.4997
   10SAPS    HX 1227   1.082   6.821   5.782 -1.7296  1.4890  1.2060
   10SAPS    HY 1228   0.901   6.787   5.805 -1.0253 -0.9655 -0.6360
   10SAPS   O31 1229   0.980   6.688   5.642  0.3579  0.0345 -0.3984
   10SAPS   C31 1230   0.875   6.603   5.628  0.1764  0.3464 -0.3097
   10SAPS   O32 1231   0.792   6.574   5.715  0.2085  0.2073  0.0924
   10SAPS   C32 1232   0.879   6.546   5.490 -0.1258 -0.1882  0.5772
   10SAPS   H2X 1233   0.797   6.471   5.483 -2.5843  2.3416  0.5000
   10SAPS   H2Y 1234   0.978   6.497   5.479 -0.0599  0.2995 -1.6080
   10SAPS   C23 1235   1.393   6.551   5.713 -1.0241 -0.0072 -0.8742
   10SAPS   H3R 1236   1.497   6.512   5.701 -0.2952  1.9324 -1.3079
   10SAPS   H3S 1237   1.398   6.647   5.768 -2.8894 -0.2547 -0.1992
   10SAPS   C24 1238   1.349   6.568   5.563  0.7960 -0.0056 -0.9785
   10SAPS   H4R 1239   1.242   6.540   5.557  0.1625  1.7773  0.8801
   10SAPS   H4S 1240   1.400   6.494   5.498  1.6788 -1.7586  1.5622
   10SAPS   C25 1241   1.355   6.714   5.518 -0.4577  0.5429  0.1767
   10SAPS   H5R 1242   1.363   6.788   5.599 -1.0574  0.8168 -0.0085
   10SAPS   C26 1243   1.370   6.758   5.393  0.3988  0.0530  0.2683
   10SAPS   H6R 1244   1.391   6.864   5.374  2.5952  0.1302  2.7001
   10SAPS   C27 1245   1.386   6.672   5.270 -0.6850  0.4768 -0.0118
   10SAPS   H7R 1246   1.420   6.572   5.306  0.7936  1.4972  1.5742
   10SAPS   H7S 1247   1.452   6.718   5.193 -0.8323  1.0512  0.1998
   10SAPS   C28 1248   1.251   6.655   5.201 -1.0650  0.2523  0.4359
   10SAPS   H8R 1249   1.165   6.625   5.263 -0.5101 -1.2272  0.5247
   10SAPS   C29 1250   1.227   6.666   5.068 -0.1698  0.0138 -0.7764
   10SAPS   H9R 1251   1.125   6.637   5.037 -0.2955  1.0459 -1.3834
   10SAPS  C210 1252   1.332   6.676   4.960 -0.4257  0.2889 -0.5540
   10SAPS  H10R 1253   1.313   6.599   4.881  0.7672 -0.3939 -0.1945
   10SAPS  H10S 1254   1.437   6.649   4.985  0.1452  0.0435 -2.9525
   10SAPS  C211 1255   1.326   6.813   4.909  0.6482 -0.1041  0.4581
   10SAPS  H11R 1256   1.359   6.891   4.980 -0.1993  1.1550 -0.4652
   10SAPS  C212 1257   1.289   6.852   4.784 -0.1331 -0.0676 -0.1133
   10SAPS  H12R 1258   1.282   6.959   4.757 -3.3510 -0.4129 -1.0690
   10SAPS  C213 1259   1.235   6.757   4.672  0.3401 -0.1239 -0.1163
   10SAPS  H13R 1260   1.262   6.651   4.687 -1.8748 -0.6989  0.1483
   10SAPS  H13S 1261   1.302   6.792   4.591  0.0298 -0.1960 -0.4046
   10SAPS  C214 1262   1.093   6.791   4.630  0.6093 -0.2339  0.1880
   10SAPS  H14R 1263   1.026   6.816   4.714  1.5810  0.3290  0.8172
   10SAPS  C215 1264   1.030   6.764   4.512  0.1736  0.3586 -0.2096
   10SAPS  H15R 1265   0.920   6.759   4.514  0.0374  2.5997  0.5275
   10SAPS  C216 1266   1.104   6.711   4.385  0.7752 -0.1806 -0.1421
   10SAPS  H16R 1267   1.079   6.609   4.350  0.0443 -0.3957  0.9427
   10SAPS  H16S 1268   1.209   6.696   4.419  0.7632  0.4391  0.1760
   10SAPS  C217 1269   1.093   6.809   4.268 -1.2492  0.1061  0.8720
   10SAPS  H17R 1270   1.120   6.909   4.308  0.0654  0.4463 -0.7391
   10SAPS  H17S 1271   0.992   6.825   4.224 -1.4779  2.6529  2.1384
   10SAPS  C218 1272   1.192   6.780   4.156  0.3405  0.3439  0.4840
   10SAPS  H18R 1273   1.205   6.669   4.149  3.6689  0.7152 -1.0616
   10SAPS  H18S 1274   1.289   6.821   4.191  0.6041  1.0217 -0.9677
   10SAPS  C219 1275   1.148   6.845   4.029  0.1844  0.7927 -0.2601
   10SAPS  H19R 1276   1.044   6.822   3.997 -0.2808  1.8335  0.4539
   10SAPS  H19S 1277   1.213   6.788   3.959  1.6461 -0.4970  2.0169
   10SAPS  C220 1278   1.177   6.995   4.012 -0.7652 -0.1229 -0.3529
   10SAPS  H20R 1279   1.278   7.012   4.057 -0.4376 -1.1340 -0.6852
   10SAPS  H20S 1280   1.103   7.052   4.072 -0.8852 -0.7612  0.1203
   10SAPS  H20T 1281   1.183   7.034   3.908 -2.1144 -2.2123 -1.2780
   10SAPS   C33 1282   0.862   6.650   5.382  0.0806  0.4290  0.5607
   10SAPS   H3X 1283   0.940   6.729   5.382 -0.8444  1.3911 -0.4390
   10SAPS   H3Y 1284   0.763   6.701   5.391  0.3992  1.0485  0.5775
   10SAPS   C34 1285   0.858   6.571   5.248  0.0244 -0.7159 -0.6527
   10SAPS   H4X 1286   0.778   6.494   5.244  0.8532 -1.5677 -1.9456
   10SAPS   H4Y 1287   0.951   6.514   5.227  1.1558  1.4573 -1.9406
   10SAPS   C35 1288   0.831   6.665   5.127 -0.1246  0.2049  0.2311
   10SAPS   H5X 1289   0.849   6.603   5.036 -1.6613  1.4463 -0.9801
   10SAPS   H5Y 1290   0.899   6.753   5.117  0.3183 -0.3341 -2.0452
   10SAPS   C36 1291   0.681   6.709   5.128 -0.3498  0.3402  0.0089
   10SAPS   H6X 1292   0.658   6.776   5.213 -2.3884 -1.2108  0.7690
   10SAPS   H6Y 1293   0.614   6.620   5.125  0.9857 -0.6920 -0.6208
   10SAPS   C37 1294   0.622   6.779   5.008 -0.2690 -0.3110 -0.0732
   10SAPS   H7X 1295   0.636   6.718   4.916 -0.3319  2.9671 -2.3988
   10SAPS   H7Y 1296   0.686   6.867   4.987  1.7093 -1.6436  0.1191
   10SAPS   C38 1297   0.472   6.818   5.008  0.3208  0.8317 -0.3639
   10SAPS   H8X 1298   0.460   6.885   5.096 -1.3182  0.8719 -0.5821
   10SAPS   H8Y 1299   0.411   6.731   5.043  2.8036  0.1089  2.6672
   10SAPS   C39 1300   0.441   6.883   4.870  0.5831  0.7845  0.2132
   10SAPS   H9X 1301   0.454   6.804   4.793 -3.0299 -1.1968  1.4136
   10SAPS   H9Y 1302   0.504   6.974   4.854  0.0039  1.0762 -0.4535
   10SAPS  C310 1303   0.287   6.928   4.853  0.5497  0.0227 -0.0081
   10SAPS  H10X 1304   0.257   7.006   4.927 -0.4262 -1.4604  1.2163
   10SAPS  H10Y 1305   0.219   6.841   4.860  0.5799 -0.0032 -0.0451
   10SAPS  C311 1306   0.258   6.978   4.709 -0.1164  0.0200 -0.3262
   10SAPS  H11X 1307   0.259   6.894   4.636 -1.2219  0.4614 -0.8669
   10SAPS  H11Y 1308   0.341   7.050   4.689 -0.1670  0.5929  1.3779
   10SAPS  C312 1309   0.126   7.050   4.700 -0.0392 -0.3423  0.7476
   10SAPS  H12X 1310   0.133   7.143   4.761 -2.1805  1.0379 -0.9698
   10SAPS  H12Y 1311   0.062   6.975   4.752  0.3244 -1.1513  0.0450
   10SAPS  C313 1312   0.063   7.083   4.556 -0.1343  0.2177 -0.5054
   10SAPS  H13X 1313  -0.031   7.142   4.564  0.0225  0.2078  2.6665
   10SAPS  H13Y 1314   0.043   6.977   4.531 -1.3032 -0.4014  2.5729
   10SAPS  C314 1315   0.163   7.148   4.453 -0.7501  0.1758  0.3212
   10SAPS  H14X 1316   0.263   7.098   4.463 -1.3963 -1.2219  0.0807
   10SAPS  H14Y 1317   0.188   7.252   4.482  0.5052 -0.1229  0.3765
   10SAPS  C315 1318   0.119   7.145   4.306  0.3223 -0.2668  0.4674
   10SAPS  H15X 1319   0.011   7.166   4.296  0.0072 -0.8938  2.2365
   10SAPS  H15Y 1320   0.127   7.036   4.287  0.4671 -0.0921 -0.5070
   10SAPS  C316 1321   0.202   7.233   4.215 -0.4755  0.4096  0.0253
   10SAPS  H16X 1322   0.215   7.204   4.109  2.9688  1.5366  0.0361
   10SAPS  H16Y 1323   0.305   7.234   4.256 -0.7301  1.0670  0.6746
   10SAPS  C317 1324   0.138   7.371   4.204 -0.2416  0.0174  0.4630
   10SAPS  H17X 1325   0.118   7.423   4.300 -0.3045 -1.9167  1.5378
   10SAPS  H17Y 1326   0.037   7.368   4.157 -1.3431 -1.5183  2.7532
   10SAPS  C318 1327   0.224   7.466   4.109 -0.7195  0.5132 -0.8867
   10SAPS  H18X 1328   0.197   7.573   4.117  2.0989  1.2043  0.6937
   10SAPS  H18Y 1329   0.215   7.424   4.006 -1.7801  0.7775 -0.9104
   10SAPS  H18Z 1330   0.332   7.455   4.131 -1.0472  0.4003  0.7230
   11SAPS     N 1331   3.659   3.079   1.610  0.3272  0.7797  0.3231
   11SAPS   HN1 1332   3.581   3.085   1.679  1.3335  0.1073  1.5658
   11SAPS   HN2 1333   3.646   3.005   1.537  1.0392  0.8741  0.0944
   11SAPS   HN3 1334   3.744   3.056   1.665 -1.2227  0.2240  2.6176
   11SAPS   C12 1335   3.687   3.206   1.554  0.4539 -0.4687 -0.4093
   11SAPS  H12A 1336   3.770   3.184   1.489  0.5237 -1.0112 -0.1520
   11SAPS   C13 1337   3.574   3.275   1.480  0.3171 -0.1415  0.5908
   11SAPS  O13A 1338   3.451   3.242   1.494 -0.8972 -0.0103  0.1420
   11SAPS  O13B 1339   3.614   3.371   1.413 -0.3256 -0.5525 -0.6132
   11SAPS   C11 1340   3.733   3.300   1.673 -0.1842  0.4002 -0.2300
   11SAPS  H11A 1341   3.640   3.302   1.733 -0.7471 -1.5899 -0.9328
   11SAPS  H11B 1342   3.759   3.398   1.627  0.6567 -0.6922 -2.2183
   11SAPS     P 1343   3.973   3.311   1.780 -0.2335  0.1073 -0.3645
   11SAPS   O13 1344   4.079   3.282   1.684 -0.1828 -0.1194 -0.0472
   11SAPS   O14 1345   3.948   3.453   1.801  0.1243  0.0359 -0.2791
   11SAPS   O12 1346   3.839   3.236   1.737  0.3387  0.1100  0.2891
   11SAPS   O11 1347   4.020   3.246   1.916  0.0619 -0.4846  0.2055
   11SAPS    C1 1348   3.930   3.181   2.004 -0.2396  0.2723 -0.3972
   11SAPS    HA 1349   3.859   3.114   1.951 -3.3110  2.9555 -0.0072
   11SAPS    HB 1350   3.980   3.113   2.077 -4.1151  0.5341  2.8716
   11SAPS    C2 1351   3.842   3.281   2.096 -1.3478 -0.4468  0.8551
   11SAPS    HS 1352   3.806   3.357   2.024  2.7952  1.0081  0.0877
   11SAPS   O21 1353   3.926   3.335   2.192 -0.6499 -0.2588  0.4704
   11SAPS   C21 1354   3.893   3.457   2.234  0.2902 -0.0772  0.0713
   11SAPS   O22 1355   3.813   3.535   2.180  0.3177  0.0591  0.7375
   11SAPS   C22 1356   3.965   3.491   2.364  0.6429  0.0796  0.6118
   11SAPS   H2R 1357   3.975   3.394   2.418 -0.1764 -0.5024 -0.2607
   11SAPS   H2S 1358   4.071   3.521   2.348  1.2712 -2.8711 -1.5967
   11SAPS    C3 1359   3.735   3.196   2.163 -0.6301 -0.5797 -0.5510
   11SAPS    HX 1360   3.787   3.117   2.221  0.9910  1.4348  0.8982
   11SAPS    HY 1361   3.673   3.148   2.085 -0.5272 -2.5480  0.5241
   11SAPS   O31 1362   3.655   3.283   2.246 -0.3817 -0.3544  0.3588
   11SAPS   C31 1363   3.551   3.218   2.291 -0.3253  0.3021 -1.1105
   11SAPS   O32 1364   3.501   3.120   2.241  0.2316  0.1370 -0.2863
   11SAPS   C32 1365   3.508   3.295   2.417  0.6145  0.3894 -1.3091
   11SAPS   H2X 1366   3.503   3.403   2.392 -2.1086  1.9861  4.4369
   11SAPS   H2Y 1367   3.593   3.287   2.487  0.1736 -0.2978 -0.8360
   11SAPS   C23 1368   3.889   3.593   2.460 -0.0787 -0.2497  0.2283
   11SAPS   H3R 1369   3.878   3.695   2.419 -0.2607 -0.1179  0.5973
   11SAPS   H3S 1370   3.947   3.606   2.554 -1.0555  0.5278  0.7445
   11SAPS   C24 1371   3.758   3.525   2.522 -0.2708  0.1017  1.2804
   11SAPS   H4R 1372   3.793   3.442   2.587 -1.6732 -1.2138  0.4158
   11SAPS   H4S 1373   3.702   3.483   2.436  1.8951  1.1083 -0.7615
   11SAPS   C25 1374   3.674   3.628   2.586  0.2222  0.6914 -0.5843
   11SAPS   H5R 1375   3.633   3.704   2.517 -0.6302  0.1232 -0.7252
   11SAPS   C26 1376   3.635   3.628   2.721  0.3353  0.1466  0.1430
   11SAPS   H6R 1377   3.546   3.687   2.747  0.3568  0.4343 -0.4098
   11SAPS   C27 1378   3.666   3.521   2.821 -0.3155  0.1708 -0.1999
   11SAPS   H7R 1379   3.742   3.448   2.787  2.0553  1.4000  2.1719
   11SAPS   H7S 1380   3.578   3.466   2.862  0.5581 -0.1013  1.3810
   11SAPS   C28 1381   3.743   3.569   2.941  0.5825 -0.6215  0.0702
   11SAPS   H8R 1382   3.841   3.612   2.917 -0.7538  4.5223  2.4081
   11SAPS   C29 1383   3.687   3.607   3.054 -0.4169 -0.1522 -0.3189
   11SAPS   H9R 1384   3.747   3.653   3.135 -0.5648  3.2876 -1.9691
   11SAPS  C210 1385   3.540   3.594   3.096  0.6129 -0.6203 -1.1443
   11SAPS  H10R 1386   3.465   3.596   3.014 -0.4373  3.0814 -0.2469
   11SAPS  H10S 1387   3.518   3.684   3.156  1.6106 -0.8305 -0.4408
   11SAPS  C211 1388   3.522   3.461   3.173 -0.1412  0.5202  0.1776
   11SAPS  H11R 1389   3.526   3.373   3.107 -0.9792  0.9416 -0.4574
   11SAPS  C212 1390   3.510   3.435   3.305  0.1075  0.0671 -0.3131
   11SAPS  H12R 1391   3.490   3.331   3.335 -1.4418 -0.2617 -2.2566
   11SAPS  C213 1392   3.516   3.536   3.418 -0.1121  0.4887  0.6318
   11SAPS  H13R 1393   3.511   3.641   3.382 -0.3628  0.4412  0.5285
   11SAPS  H13S 1394   3.616   3.526   3.465  1.0595 -1.0132 -1.9390
   11SAPS  C214 1395   3.411   3.525   3.524  0.5367 -0.1202 -0.5560
   11SAPS  H14R 1396   3.345   3.439   3.504  1.6424 -0.9532 -0.7540
   11SAPS  C215 1397   3.407   3.577   3.647 -0.4444  0.2458 -0.6325
   11SAPS  H15R 1398   3.326   3.554   3.717  0.5113 -2.6993 -0.3678
   11SAPS  C216 1399   3.501   3.696   3.684  0.6853  0.0140  0.5227
   11SAPS  H16R 1400   3.439   3.789   3.688  2.5515  1.5071 -1.9964
   11SAPS  H16S 1401   3.584   3.712   3.613 -1.7362  2.3133 -2.0917
   11SAPS  C217 1402   3.558   3.674   3.820 -0.1800 -0.5121 -0.1090
   11SAPS  H17R 1403   3.642   3.604   3.805  2.1387  1.5399  2.2198
   11SAPS  H17S 1404   3.474   3.641   3.885  0.7433  0.0176  1.4039
   11SAPS  C218 1405   3.628   3.800   3.883 -0.7985  0.2555 -0.2785
   11SAPS  H18R 1406   3.663   3.777   3.986 -1.3378 -1.3059 -0.4061
   11SAPS  H18S 1407   3.560   3.886   3.896 -0.4898  0.4735 -0.1012
   11SAPS  C219 1408   3.754   3.849   3.807  0.0200 -0.0325  0.1157
   11SAPS  H19R 1409   3.722   3.878   3.705  3.3013 -0.4540 -1.1456
   11SAPS  H19S 1410   3.830   3.770   3.791 -0.0210 -0.1078  0.2799
   11SAPS  C220 1411   3.819   3.962   3.876  0.4363 -0.2433  0.5570
   11SAPS  H20R 1412   3.741   4.038   3.897  1.1959  0.2604  1.6472
   11SAPS  H20S 1413   3.909   3.998   3.821 -1.8678  1.2934 -2.4981
   11SAPS  H20T 1414   3.850   3.930   3.978 -0.6374 -0.5983  0.7826
   11SAPS   C33 1415   3.381   3.252   2.483 -0.5558  0.4330  0.8376
   11SAPS   H3X 1416   3.392   3.145   2.511  1.1566  0.5439  0.6902
   11SAPS   H3Y 1417   3.294   3.257   2.414  0.0010 -0.6251  0.0291
   11SAPS   C34 1418   3.355   3.331   2.613  0.6045  0.4378  0.4292
   11SAPS   H4X 1419   3.280   3.409   2.588 -0.6399 -1.5637 -2.6144
   11SAPS   H4Y 1420   3.451   3.375   2.648 -0.1736  1.0401  1.8979
   11SAPS   C35 1421   3.283   3.248   2.719  0.4319  0.3135 -0.7522
   11SAPS   H5X 1422   3.343   3.161   2.751  0.3412  0.8651  1.0813
   11SAPS   H5Y 1423   3.193   3.196   2.681 -2.8518  4.6353  0.3023
   11SAPS   C36 1424   3.236   3.329   2.843  0.0163 -0.6230 -0.0348
   11SAPS   H6X 1425   3.197   3.429   2.817 -1.2029 -1.0284  0.1797
   11SAPS   H6Y 1426   3.324   3.344   2.910 -1.0254 -0.2893  1.2988
   11SAPS   C37 1427   3.137   3.256   2.917 -0.0562 -0.0172  0.3455
   11SAPS   H7X 1428   3.162   3.148   2.923 -1.1671 -0.4023 -1.3202
   11SAPS   H7Y 1429   3.038   3.277   2.870 -0.2044  2.3496  1.5569
   11SAPS   C38 1430   3.130   3.304   3.065 -0.4718  0.0273  0.4109
   11SAPS   H8X 1431   3.141   3.413   3.078  0.2810 -0.1512  1.3890
   11SAPS   H8Y 1432   3.217   3.260   3.119  0.1562  0.6355 -0.1079
   11SAPS   C39 1433   3.005   3.260   3.147 -0.4257  0.0189  0.4012
   11SAPS   H9X 1434   2.924   3.277   3.073 -1.6868 -1.2044  1.4498
   11SAPS   H9Y 1435   2.996   3.312   3.245 -0.9371 -0.3228  0.5353
   11SAPS  C310 1436   3.014   3.106   3.169  0.0977 -0.0499 -0.1546
   11SAPS  H10X 1437   3.095   3.094   3.244 -0.2001 -1.7733 -0.0692
   11SAPS  H10Y 1438   3.058   3.056   3.079 -2.2425  0.8644 -1.9321
   11SAPS  C311 1439   2.879   3.038   3.202  0.3421 -0.4088 -0.7726
   11SAPS  H11X 1440   2.802   3.062   3.126 -1.2800 -0.1262  0.8944
   11SAPS  H11Y 1441   2.850   3.078   3.301 -1.3378  1.9873 -2.1158
   11SAPS  C312 1442   2.890   2.890   3.202  0.2700  0.7945  0.0780
   11SAPS  H12X 1443   2.913   2.841   3.105 -1.8342 -0.7920  0.2970
   11SAPS  H12Y 1444   2.790   2.852   3.233 -0.7126  1.0816 -2.4648
   11SAPS  C313 1445   2.992   2.837   3.305  0.1431 -0.0212 -0.0748
   11SAPS  H13X 1446   2.952   2.865   3.404  0.6792 -1.0815  0.4592
   11SAPS  H13Y 1447   3.092   2.878   3.279  0.2027 -2.1006 -3.9731
   11SAPS  C314 1448   2.986   2.680   3.301 -0.4320  0.5677 -0.3959
   11SAPS  H14X 1449   3.010   2.643   3.199 -1.2837  1.2558 -0.8571
   11SAPS  H14Y 1450   2.889   2.637   3.333  1.3003 -2.4019  1.2707
   11SAPS  C315 1451   3.092   2.609   3.384  0.0848  0.8409  0.5348
   11SAPS  H15X 1452   3.087   2.642   3.490  0.3845  0.8382  0.5507
   11SAPS  H15Y 1453   3.193   2.641   3.348 -0.3720  2.5156  0.6739
   11SAPS  C316 1454   3.071   2.459   3.392 -0.1871  0.1817 -0.2854
   11SAPS  H16X 1455   3.057   2.415   3.291 -1.7361  3.4673 -1.6372
   11SAPS  H16Y 1456   2.971   2.455   3.441 -0.1597  3.2446  0.1873
   11SAPS  C317 1457   3.170   2.384   3.482  0.2033 -0.6598 -0.4553
   11SAPS  H17X 1458   3.263   2.435   3.449 -0.2391 -0.4538 -1.4278
   11SAPS  H17Y 1459   3.171   2.275   3.462 -1.6030 -1.0449  1.2284
   11SAPS  C318 1460   3.138   2.398   3.630 -0.1271  0.6103 -0.4239
   11SAPS  H18X 1461   3.123   2.503   3.662 -1.8208 -0.0566  1.1455
   11SAPS  H18Y 1462   3.210   2.345   3.696 -1.1803 -0.3349  0.0227
   11SAPS  H18Z 1463   3.035   2.356   3.644 -1.3982  2.8510 -2.3409
   12SAPS     N 1464   2.867   3.429   1.409 -0.1029 -0.0951  0.8412
   12SAPS   HN1 1465   2.851   3.438   1.307 -0.2229  1.1221  0.9491
   12SAPS   HN2 1466   2.786   3.474   1.457 -1.5515 -1.5955 -0.0874
   12SAPS   HN3 1467   2.959   3.474   1.430  0.5694 -0.6767 -0.7079
   12SAPS   C12 1468   2.870   3.292   1.457  0.6009  0.7675  0.4509
   12SAPS  H12A 1469   2.782   3.239   1.424 -0.9763  2.3524  1.8711
   12SAPS   C13 1470   2.991   3.196   1.424  0.0823  0.2531 -0.9080
   12SAPS  O13A 1471   3.066   3.229   1.329  0.0405  0.2165 -0.1572
   12SAPS  O13B 1472   3.000   3.085   1.489 -0.2503 -0.2414  0.2146
   12SAPS   C11 1473   2.844   3.305   1.607  0.4333  0.3310  0.2304
   12SAPS  H11A 1474   2.916   3.381   1.644 -0.4688  0.9750  0.6979
   12SAPS  H11B 1475   2.848   3.204   1.653 -1.6323  0.7780  1.5253
   12SAPS     P 1476   2.650   3.343   1.778 -0.2756 -0.1345 -0.0528
   12SAPS   O13 1477   2.591   3.475   1.812 -0.2293  0.3978  0.4265
   12SAPS   O14 1478   2.562   3.228   1.792 -0.4942  0.0305 -0.0897
   12SAPS   O12 1479   2.714   3.354   1.634 -0.6484  0.2129  0.0059
   12SAPS   O11 1480   2.772   3.314   1.872  0.6916  0.3497 -0.0748
   12SAPS    C1 1481   2.826   3.428   1.938  0.3791 -0.4117  0.4628
   12SAPS    HA 1482   2.865   3.493   1.857  0.0479 -2.6017 -1.5789
   12SAPS    HB 1483   2.756   3.484   2.003  3.0837  1.5394  1.8978
   12SAPS    C2 1484   2.940   3.367   2.028 -0.1178 -0.9455  0.1015
   12SAPS    HS 1485   3.006   3.316   1.955 -0.5680 -1.4247  0.0245
   12SAPS   O21 1486   2.891   3.277   2.125 -0.6021 -0.2548 -0.3623
   12SAPS   C21 1487   2.987   3.203   2.198 -0.5043 -0.1935  0.1419
   12SAPS   O22 1488   3.099   3.189   2.160  0.3971 -0.5254  0.2363
   12SAPS   C22 1489   2.930   3.139   2.314  0.1925 -0.0878  0.0199
   12SAPS   H2R 1490   2.933   3.206   2.404 -1.6827  1.8927 -1.2753
   12SAPS   H2S 1491   2.827   3.104   2.292 -0.7114  2.3602  0.0262
   12SAPS    C3 1492   3.019   3.486   2.097  0.2657  0.8658  0.2695
   12SAPS    HX 1493   3.065   3.542   2.014 -0.6686 -0.9749 -1.5721
   12SAPS    HY 1494   3.101   3.457   2.167  0.3344  0.4819  0.0291
   12SAPS   O31 1495   2.917   3.577   2.155 -0.4054 -0.0523 -0.2971
   12SAPS   C31 1496   2.883   3.548   2.282 -0.1415 -0.6601 -0.2949
   12SAPS   O32 1497   2.931   3.462   2.353 -0.0819  0.1767 -0.4933
   12SAPS   C32 1498   2.776   3.653   2.320  0.4753 -0.0506 -0.6439
   12SAPS   H2X 1499   2.699   3.663   2.240  0.3758 -0.6839 -0.6328
   12SAPS   H2Y 1500   2.838   3.745   2.325 -1.3097  1.1938 -0.3222
   12SAPS   C23 1501   3.022   3.017   2.351 -0.0212  0.5689  1.1093
   12SAPS   H3R 1502   3.117   3.052   2.394  0.1837  0.9849  0.3362
   12SAPS   H3S 1503   3.042   2.953   2.262 -0.5598  1.1975  0.5203
   12SAPS   C24 1504   2.963   2.917   2.453  0.4819  0.3661 -0.4469
   12SAPS   H4R 1505   3.034   2.831   2.448  1.3827  0.9447  1.6820
   12SAPS   H4S 1506   2.867   2.864   2.432  1.2890 -2.2030  1.7858
   12SAPS   C25 1507   2.942   2.970   2.594  0.3006  0.1338  0.5325
   12SAPS   H5R 1508   2.883   3.062   2.605  0.4880  0.1748  1.2695
   12SAPS   C26 1509   2.985   2.915   2.705  0.4211  0.8408 -0.6304
   12SAPS   H6R 1510   2.941   2.963   2.794 -0.5670 -0.9913 -0.0775
   12SAPS   C27 1511   3.040   2.776   2.728  0.1362 -0.0628 -0.0277
   12SAPS   H7R 1512   3.037   2.763   2.838  0.7380  0.9538  0.1228
   12SAPS   H7S 1513   3.147   2.786   2.700 -0.5563 -0.2716 -3.0860
   12SAPS   C28 1514   2.968   2.666   2.650 -0.5367  0.6069  0.2444
   12SAPS   H8R 1515   2.904   2.695   2.566  0.1504 -2.5642 -1.5443
   12SAPS   C29 1516   2.985   2.530   2.669  0.5378  0.1161  0.3711
   12SAPS   H9R 1517   2.942   2.455   2.601  0.6830  0.0997  0.2988
   12SAPS  C210 1518   3.056   2.473   2.792  0.2275  0.5128 -0.3115
   12SAPS  H10R 1519   3.001   2.380   2.819  0.0760  0.5910 -0.3502
   12SAPS  H10S 1520   3.049   2.539   2.880  0.3270  1.0289 -0.6885
   12SAPS  C211 1521   3.199   2.444   2.765  0.3891 -0.4749  0.8021
   12SAPS  H11R 1522   3.243   2.470   2.668  0.2104 -0.1628  0.8055
   12SAPS  C212 1523   3.275   2.355   2.832  0.1201 -0.4650 -0.3704
   12SAPS  H12R 1524   3.379   2.349   2.796  1.0636  2.3355  1.4697
   12SAPS  C213 1525   3.235   2.290   2.968 -0.1912  0.2545  0.4326
   12SAPS  H13R 1526   3.129   2.277   2.998  0.2399 -1.4894  1.3046
   12SAPS  H13S 1527   3.287   2.353   3.043  0.9065 -0.0170 -0.0762
   12SAPS  C214 1528   3.283   2.145   2.971  1.0049  0.1083 -0.0686
   12SAPS  H14R 1529   3.237   2.084   2.893 -0.3434  2.5515 -1.3070
   12SAPS  C215 1530   3.378   2.080   3.041  0.4565  0.3691 -0.1820
   12SAPS  H15R 1531   3.406   1.976   3.015  2.0132  0.3726  1.3792
   12SAPS  C216 1532   3.465   2.132   3.146  0.1415  0.5629  0.1244
   12SAPS  H16R 1533   3.464   2.243   3.135 -0.4397  0.5038 -0.5400
   12SAPS  H16S 1534   3.565   2.101   3.109 -0.1168 -1.1991  0.8157
   12SAPS  C217 1535   3.433   2.076   3.286 -0.5406 -0.6350  0.5897
   12SAPS  H17R 1536   3.440   1.965   3.296 -0.7800 -0.6980  0.1052
   12SAPS  H17S 1537   3.325   2.098   3.304 -0.9976 -1.6482 -0.6891
   12SAPS  C218 1538   3.517   2.155   3.395  0.3313 -0.5083  0.1931
   12SAPS  H18R 1539   3.481   2.259   3.392  1.5303 -0.0788  0.0231
   12SAPS  H18S 1540   3.622   2.140   3.359  0.7292  0.8180  0.7330
   12SAPS  C219 1541   3.502   2.089   3.535  0.7696 -0.2240  0.4300
   12SAPS  H19R 1542   3.514   1.979   3.533  1.6864 -0.1909  2.2580
   12SAPS  H19S 1543   3.399   2.120   3.562  0.5457  0.5299 -1.1475
   12SAPS  C220 1544   3.606   2.145   3.633 -0.0049 -0.1269  0.0196
   12SAPS  H20R 1545   3.703   2.096   3.609  0.2145 -0.1966  1.0072
   12SAPS  H20S 1546   3.563   2.127   3.733  1.2014  0.0979  0.5922
   12SAPS  H20T 1547   3.605   2.256   3.620  0.7713 -0.1301 -0.1501
   12SAPS   C33 1548   2.715   3.633   2.459 -0.4358 -0.6949 -0.1601
   12SAPS   H3X 1549   2.799   3.626   2.532 -0.4828  0.2665 -0.0006
   12SAPS   H3Y 1550   2.668   3.533   2.450 -0.8168 -0.4145 -1.6142
   12SAPS   C34 1551   2.624   3.742   2.517  0.4869 -0.0795  0.5105
   12SAPS   H4X 1552   2.586   3.711   2.617 -2.7567  0.3629 -0.4537
   12SAPS   H4Y 1553   2.532   3.740   2.454  0.3655  1.0189  0.6305
   12SAPS   C35 1554   2.673   3.890   2.520 -0.1252  0.1979  0.1257
   12SAPS   H5X 1555   2.594   3.964   2.546  1.1839  1.4607  0.6601
   12SAPS   H5Y 1556   2.701   3.911   2.415 -3.0400  0.4449 -0.7055
   12SAPS   C36 1557   2.787   3.896   2.622  0.2662 -0.1628 -0.1480
   12SAPS   H6X 1558   2.880   3.881   2.563 -0.1816 -0.0458 -0.8988
   12SAPS   H6Y 1559   2.774   3.817   2.699 -3.5317 -0.2301 -0.6569
   12SAPS   C37 1560   2.809   4.034   2.683  0.1592  0.4093 -0.3373
   12SAPS   H7X 1561   2.791   4.111   2.605 -2.1647  1.5717  1.2145
   12SAPS   H7Y 1562   2.909   4.035   2.730  0.4767  0.7775 -1.0070
   12SAPS   C38 1563   2.702   4.050   2.797  0.6065 -0.1340 -0.1721
   12SAPS   H8X 1564   2.693   3.957   2.857 -2.2682  0.6388  0.7792
   12SAPS   H8Y 1565   2.601   4.057   2.751  0.9174  1.5731 -0.6763
   12SAPS   C39 1566   2.723   4.174   2.895 -0.2777  0.2102  0.1696
   12SAPS   H9X 1567   2.619   4.192   2.931 -0.4287 -0.7966  0.2662
   12SAPS   H9Y 1568   2.765   4.268   2.853 -0.2864 -0.4217 -1.3080
   12SAPS  C310 1569   2.830   4.134   3.004  0.3258 -0.4689  0.0477
   12SAPS  H10X 1570   2.929   4.109   2.961 -0.0626  0.3162 -1.3286
   12SAPS  H10Y 1571   2.804   4.030   3.034  1.4085 -1.4288 -2.1166
   12SAPS  C311 1572   2.839   4.242   3.117  0.5917 -0.1046  0.3965
   12SAPS  H11X 1573   2.740   4.254   3.165  1.1147  0.4062  1.3874
   12SAPS  H11Y 1574   2.867   4.339   3.071  1.6758 -0.2116  0.7839
   12SAPS  C312 1575   2.927   4.206   3.234  0.4700 -0.7346  0.6697
   12SAPS  H12X 1576   2.948   4.302   3.287  0.4071  1.2107 -2.5310
   12SAPS  H12Y 1577   3.024   4.172   3.192  1.9558  0.9693  2.4882
   12SAPS  C313 1578   2.873   4.103   3.330 -0.1851 -0.7294  0.5606
   12SAPS  H13X 1579   2.883   4.000   3.289  2.6772 -0.7164  1.0469
   12SAPS  H13Y 1580   2.772   4.114   3.374 -0.2335 -2.3580  0.9503
   12SAPS  C314 1581   2.976   4.094   3.449  0.4137  0.4231 -0.2542
   12SAPS  H14X 1582   3.009   4.196   3.481 -2.2086  1.1110  0.4996
   12SAPS  H14Y 1583   3.064   4.044   3.402  0.9803  2.1475 -1.1083
   12SAPS  C315 1584   2.928   4.007   3.566 -0.6542 -0.4742 -0.4574
   12SAPS  H15X 1585   2.890   3.909   3.531 -1.2662  0.1697 -1.6344
   12SAPS  H15Y 1586   2.841   4.056   3.616 -0.8466 -0.0500 -1.1978
   12SAPS  C316 1587   3.038   3.994   3.664  0.6867 -0.2946  0.4806
   12SAPS  H16X 1588   3.076   4.085   3.714 -1.5884  0.9410  0.0661
   12SAPS  H16Y 1589   3.121   3.951   3.604  0.6291 -1.2258  1.0349
   12SAPS  C317 1590   3.001   3.893   3.774 -0.2000 -0.1417  0.0934
   12SAPS  H17X 1591   2.963   3.798   3.729 -0.5151 -0.3755  0.8344
   12SAPS  H17Y 1592   2.910   3.925   3.828 -1.1538 -2.6366  0.1020
   12SAPS  C318 1593   3.108   3.874   3.884  0.0158 -0.2616  0.5942
   12SAPS  H18X 1594   3.197   3.842   3.825 -0.1114 -1.2668  0.9318
   12SAPS  H18Y 1595   3.092   3.794   3.959  0.9504 -0.9317  0.0935
   12SAPS  H18Z 1596   3.121   3.971   3.937 -0.9281 -0.2975  0.9074
   13SAPS     N 1597   5.373   3.838   1.754  0.0559  0.0572 -0.1650
   13SAPS   HN1 1598   5.333   3.743   1.766 -2.1045  1.1156  1.8940
   13SAPS   HN2 1599   5.448   3.861   1.823 -2.2994  0.2980  2.5044
   13SAPS   HN3 1600   5.290   3.900   1.766 -0.7051 -0.5670 -1.8935
   13SAPS   C12 1601   5.427   3.843   1.612  0.8263  0.2931 -0.0768
   13SAPS  H12A 1602   5.340   3.817   1.553  2.0731 -1.7240 -1.1550
   13SAPS   C13 1603   5.476   3.986   1.565 -1.0781 -0.8149  0.1443
   13SAPS  O13A 1604   5.439   4.086   1.638 -0.1144 -0.1495  0.3253
   13SAPS  O13B 1605   5.501   4.006   1.444 -0.6267  0.6617  0.3028
   13SAPS   C11 1606   5.534   3.733   1.579  0.7946  0.3847  0.2269
   13SAPS  H11A 1607   5.627   3.757   1.635 -0.5272  1.0090  2.2639
   13SAPS  H11B 1608   5.545   3.723   1.469 -0.0720 -1.4515  0.2655
   13SAPS     P 1609   5.564   3.476   1.634 -0.1562 -0.4707  0.0477
   13SAPS   O13 1610   5.456   3.374   1.634  0.3144  0.3246 -0.0639
   13SAPS   O14 1611   5.660   3.466   1.520  0.8212  0.2210 -0.0242
   13SAPS   O12 1612   5.492   3.608   1.635  0.3938  0.6850 -0.5602
   13SAPS   O11 1613   5.632   3.478   1.775 -0.2298  0.7693 -0.6668
   13SAPS    C1 1614   5.612   3.571   1.877  0.7443 -0.6582  0.3603
   13SAPS    HA 1615   5.672   3.663   1.860 -0.8255  0.6547  1.5531
   13SAPS    HB 1616   5.503   3.592   1.882  0.2007 -2.9600 -0.4236
   13SAPS    C2 1617   5.646   3.509   2.017  0.2106  0.0595  0.4657
   13SAPS    HS 1618   5.750   3.471   2.003  0.2744  0.0549  0.9441
   13SAPS   O21 1619   5.541   3.410   2.044 -0.3326 -0.5557  0.2812
   13SAPS   C21 1620   5.595   3.285   2.059 -0.1504  0.6472  0.2450
   13SAPS   O22 1621   5.706   3.251   2.031 -0.3418 -0.4595 -0.0439
   13SAPS   C22 1622   5.482   3.193   2.110  0.2197  0.8033 -0.3021
   13SAPS   H2R 1623   5.435   3.243   2.198  2.4724  0.5946  1.1089
   13SAPS   H2S 1624   5.409   3.190   2.027 -0.1685 -1.0410  0.0621
   13SAPS    C3 1625   5.642   3.615   2.126 -0.1257  1.2804 -0.0610
   13SAPS    HX 1626   5.566   3.692   2.100 -0.5657  1.4484  1.5774
   13SAPS    HY 1627   5.739   3.668   2.119 -0.0932  1.2323  0.0181
   13SAPS   O31 1628   5.646   3.569   2.263  0.6042  0.1309  0.6182
   13SAPS   C31 1629   5.535   3.569   2.341 -0.7290 -0.0138  1.0063
   13SAPS   O32 1630   5.419   3.599   2.309 -0.3280 -0.9668  0.1689
   13SAPS   C32 1631   5.572   3.508   2.474 -0.5687 -0.2690 -0.2833
   13SAPS   H2X 1632   5.581   3.593   2.545 -1.9786  0.7562 -1.2834
   13SAPS   H2Y 1633   5.663   3.445   2.484 -0.2190  0.2962  0.2006
   13SAPS   C23 1634   5.525   3.052   2.161  0.3145 -0.2445 -0.2831
   13SAPS   H3R 1635   5.596   3.070   2.244  0.2801 -0.3219 -0.2371
   13SAPS   H3S 1636   5.582   3.000   2.081  2.4040  0.3140  0.7923
   13SAPS   C24 1637   5.410   2.969   2.224  0.1974  0.4836 -0.1854
   13SAPS   H4R 1638   5.341   2.955   2.139  0.7404 -0.3942 -0.4954
   13SAPS   H4S 1639   5.357   3.041   2.290  1.5404 -0.6891  2.3197
   13SAPS   C25 1640   5.442   2.842   2.303 -0.0767  0.1114 -0.4157
   13SAPS   H5R 1641   5.435   2.745   2.251  1.7456 -0.7622  0.8605
   13SAPS   C26 1642   5.478   2.834   2.432 -0.0251 -0.4333  0.7380
   13SAPS   H6R 1643   5.488   2.736   2.481 -0.8060  0.3440  2.5407
   13SAPS   C27 1644   5.482   2.949   2.533 -0.0562  0.1851  0.6641
   13SAPS   H7R 1645   5.453   3.042   2.479  2.8484 -0.3071 -2.0645
   13SAPS   H7S 1646   5.587   2.970   2.564 -0.2302  0.8017  0.8526
   13SAPS   C28 1647   5.399   2.927   2.664 -0.2589  0.1713 -0.5635
   13SAPS   H8R 1648   5.296   2.892   2.643 -1.0562  1.4062  1.1392
   13SAPS   C29 1649   5.431   2.949   2.793  0.0734  0.1525 -0.5729
   13SAPS   H9R 1650   5.349   2.936   2.864  0.0382 -0.2552 -0.6879
   13SAPS  C210 1651   5.561   2.998   2.858  0.0062  0.2377 -0.0760
   13SAPS  H10R 1652   5.539   3.051   2.953  0.9517  1.5097 -0.5312
   13SAPS  H10S 1653   5.600   3.086   2.802 -1.9849  1.3402  0.1791
   13SAPS  C211 1654   5.673   2.901   2.875 -0.0835  0.7191  0.1098
   13SAPS  H11R 1655   5.698   2.846   2.783 -1.3753 -0.4433  0.4272
   13SAPS  C212 1656   5.738   2.868   2.991 -0.4412 -0.2309  0.7784
   13SAPS  H12R 1657   5.833   2.812   2.986  0.1654  0.8689 -0.6366
   13SAPS  C213 1658   5.710   2.927   3.129  0.7763  0.1923 -0.1361
   13SAPS  H13R 1659   5.684   2.843   3.197  1.3120  1.8674  2.2610
   13SAPS  H13S 1660   5.631   3.004   3.125  0.3766 -0.2324 -0.6457
   13SAPS  C214 1661   5.829   2.989   3.192  0.3037 -0.6596 -0.3030
   13SAPS  H14R 1662   5.919   2.996   3.128  0.0128 -0.7948 -0.7314
   13SAPS  C215 1663   5.835   3.049   3.309 -1.2121  0.0717 -0.5322
   13SAPS  H15R 1664   5.926   3.102   3.341 -2.3486  1.9042 -0.1980
   13SAPS  C216 1665   5.719   3.054   3.407  0.6767 -0.4864 -0.0622
   13SAPS  H16R 1666   5.626   3.014   3.361  1.0165  1.1256 -2.3135
   13SAPS  H16S 1667   5.697   3.161   3.430 -0.7198 -0.4649 -1.3513
   13SAPS  C217 1668   5.741   2.978   3.545 -0.1465 -0.4884  0.7184
   13SAPS  H17R 1669   5.654   3.001   3.610  1.3997  1.7575  2.1345
   13SAPS  H17S 1670   5.828   3.024   3.596 -1.9567  2.4430  1.4245
   13SAPS  C218 1671   5.747   2.823   3.527 -0.4411 -0.5725  0.1143
   13SAPS  H18R 1672   5.843   2.795   3.479 -1.4670 -0.3369 -2.1962
   13SAPS  H18S 1673   5.665   2.794   3.458 -1.0872  0.1330  0.5636
   13SAPS  C219 1674   5.736   2.735   3.651  0.4414 -0.3459 -0.1518
   13SAPS  H19R 1675   5.729   2.629   3.615  2.3241 -0.4086 -0.4190
   13SAPS  H19S 1676   5.651   2.781   3.705  0.5538 -1.6377  1.1951
   13SAPS  C220 1677   5.848   2.750   3.753 -0.2055  0.3598 -0.3079
   13SAPS  H20R 1678   5.817   2.680   3.834 -1.1590  0.6744 -0.3869
   13SAPS  H20S 1679   5.857   2.850   3.799 -3.0414  0.9701 -0.8987
   13SAPS  H20T 1680   5.942   2.708   3.712 -0.1484 -0.0056  0.1953
   13SAPS   C33 1681   5.447   3.430   2.538 -0.1381  0.0361 -0.4944
   13SAPS   H3X 1682   5.439   3.328   2.494  1.0348 -0.4325  0.3380
   13SAPS   H3Y 1683   5.352   3.485   2.520 -0.8222 -0.4977  1.2377
   13SAPS   C34 1684   5.456   3.415   2.692 -0.0885  0.0319  0.7996
   13SAPS   H4X 1685   5.417   3.512   2.730 -0.9178  0.5129 -1.1520
   13SAPS   H4Y 1686   5.565   3.412   2.714 -0.0013  1.5187  0.7108
   13SAPS   C35 1687   5.372   3.301   2.751  0.3470 -0.9203 -0.5943
   13SAPS   H5X 1688   5.413   3.206   2.710  0.9241  0.3361 -3.1663
   13SAPS   H5Y 1689   5.268   3.305   2.713  0.5828  0.1047 -1.1594
   13SAPS   C36 1690   5.367   3.324   2.904  0.8320  0.1398  0.4058
   13SAPS   H6X 1691   5.316   3.243   2.960  2.3263  0.2449  2.0063
   13SAPS   H6Y 1692   5.298   3.408   2.927 -1.0873 -1.5263  1.0274
   13SAPS   C37 1693   5.501   3.333   2.969  0.3518 -0.1751  0.3117
   13SAPS   H7X 1694   5.555   3.427   2.945  2.0859 -1.0201  0.7151
   13SAPS   H7Y 1695   5.565   3.261   2.914 -0.2830 -1.0676  0.7309
   13SAPS   C38 1696   5.498   3.292   3.119  0.7146 -0.4341 -0.4224
   13SAPS   H8X 1697   5.597   3.249   3.145  1.5174  1.1640 -0.7291
   13SAPS   H8Y 1698   5.421   3.216   3.146 -0.5135  0.8284 -0.2926
   13SAPS   C39 1699   5.464   3.405   3.221 -0.6955  0.3556 -0.5983
   13SAPS   H9X 1700   5.367   3.454   3.200 -2.0277 -2.3108 -0.9369
   13SAPS   H9Y 1701   5.541   3.486   3.217 -2.3259  1.9455 -1.3039
   13SAPS  C310 1702   5.453   3.354   3.361  0.2032  0.8837  0.3991
   13SAPS  H10X 1703   5.549   3.300   3.377  0.7124  1.1710 -1.4864
   13SAPS  H10Y 1704   5.373   3.279   3.374  1.0896  0.1109  1.6966
   13SAPS  C311 1705   5.428   3.456   3.464  0.5056  0.1594  0.8323
   13SAPS  H11X 1706   5.320   3.482   3.475 -0.4144 -3.1019  0.6569
   13SAPS  H11Y 1707   5.491   3.545   3.444  1.0911 -0.7395 -1.6244
   13SAPS  C312 1708   5.478   3.415   3.600  0.3327  0.3762  0.0471
   13SAPS  H12X 1709   5.584   3.384   3.589  0.0052 -0.0196 -2.6785
   13SAPS  H12Y 1710   5.414   3.331   3.635 -1.2254  1.5200  0.0838
   13SAPS  C313 1711   5.482   3.531   3.710  0.2590 -0.0615  0.2404
   13SAPS  H13X 1712   5.560   3.603   3.677  1.9341 -0.8082  2.3562
   13SAPS  H13Y 1713   5.524   3.496   3.806  0.0399 -0.7969  0.0741
   13SAPS  C314 1714   5.361   3.621   3.721  0.2367  0.3277  0.0306
   13SAPS  H14X 1715   5.267   3.562   3.715  0.1893  0.4186 -0.1183
   13SAPS  H14Y 1716   5.356   3.694   3.638  1.8533  1.4535  0.8608
   13SAPS  C315 1717   5.349   3.697   3.852 -0.6838 -0.7696 -0.8230
   13SAPS  H15X 1718   5.446   3.746   3.873 -1.3430 -0.6903  2.7244
   13SAPS  H15Y 1719   5.332   3.618   3.928 -1.6301  0.4187  0.2484
   13SAPS  C316 1720   5.238   3.803   3.860  0.0175  0.3465  0.4451
   13SAPS  H16X 1721   5.149   3.736   3.857  0.4483 -0.1873 -1.1520
   13SAPS  H16Y 1722   5.241   3.876   3.777 -1.0063 -0.2805 -0.1713
   13SAPS  C317 1723   5.228   3.875   3.991 -0.1703  0.0119  0.1503
   13SAPS  H17X 1724   5.320   3.930   4.018 -0.3426  0.0002  0.7915
   13SAPS  H17Y 1725   5.208   3.799   4.070  2.0699 -3.2040 -2.1261
   13SAPS  C318 1726   5.106   3.969   3.987  0.5197  0.5056  0.7082
   13SAPS  H18X 1727   5.030   3.933   3.914  1.5432  0.6416 -0.4660
   13SAPS  H18Y 1728   5.131   4.071   3.950 -3.5536  1.6206  0.5089
   13SAPS  H18Z 1729   5.061   3.966   4.089 -2.1105  1.5437 -0.3202
   14SAPS     N 1730   3.667   2.446   1.828  0.0100 -0.3818  0.1399
   14SAPS   HN1 1731   3.588   2.488   1.880  1.4087 -0.9540  2.9092
   14SAPS   HN2 1732   3.732   2.400   1.895  1.6069 -1.3631 -1.9622
   14SAPS   HN3 1733   3.709   2.532   1.786 -2.5862 -0.0125 -1.9296
   14SAPS   C12 1734   3.643   2.349   1.715  0.4953 -0.6137  0.3228
   14SAPS  H12A 1735   3.581   2.265   1.742  2.1728 -2.4679 -1.3691
   14SAPS   C13 1736   3.565   2.416   1.604 -0.0751  0.7488 -0.2522
   14SAPS  O13A 1737   3.509   2.524   1.627 -0.1173 -0.4350  0.4607
   14SAPS  O13B 1738   3.554   2.360   1.495  0.6593 -0.1414 -0.2941
   14SAPS   C11 1739   3.774   2.290   1.650 -0.3371  0.5901  0.4202
   14SAPS  H11A 1740   3.835   2.372   1.607 -1.4002  0.4848 -1.4055
   14SAPS  H11B 1741   3.739   2.220   1.571  3.4448  1.9430 -2.8309
   14SAPS     P 1742   3.821   2.075   1.808  0.1984 -0.4201  0.0840
   14SAPS   O13 1743   3.776   1.986   1.700 -0.0101  0.5635  0.1553
   14SAPS   O14 1744   3.937   2.028   1.883  0.2535 -0.0923 -0.3479
   14SAPS   O12 1745   3.855   2.213   1.744  0.0904 -0.1657 -0.0339
   14SAPS   O11 1746   3.695   2.115   1.895 -0.3145  0.6965 -0.4351
   14SAPS    C1 1747   3.605   2.017   1.939 -0.5314  0.5705 -0.0610
   14SAPS    HA 1748   3.503   2.057   1.921 -0.3912  0.9386 -0.0289
   14SAPS    HB 1749   3.607   1.914   1.897 -0.4975  1.1274 -1.4531
   14SAPS    C2 1750   3.618   1.982   2.091  0.6035 -0.4113 -0.5173
   14SAPS    HS 1751   3.524   1.929   2.119  0.6552 -1.0920 -1.5948
   14SAPS   O21 1752   3.628   2.100   2.176 -0.1426 -0.1898 -0.3307
   14SAPS   C21 1753   3.520   2.173   2.179  0.0649 -0.4595 -0.1022
   14SAPS   O22 1754   3.416   2.152   2.119  0.2674  0.1615  0.2797
   14SAPS   C22 1755   3.536   2.294   2.273 -0.1433 -0.6751 -0.6494
   14SAPS   H2R 1756   3.641   2.331   2.271  0.6679 -2.7839 -2.5206
   14SAPS   H2S 1757   3.471   2.375   2.235  0.3651  0.7044  1.2875
   14SAPS    C3 1758   3.727   1.880   2.118  0.0487  0.7297 -0.3891
   14SAPS    HX 1759   3.826   1.913   2.080  0.7413 -0.3391  0.4495
   14SAPS    HY 1760   3.709   1.796   2.048  0.3023 -0.2260  0.6727
   14SAPS   O31 1761   3.723   1.829   2.257  0.4010  0.3948  0.1258
   14SAPS   C31 1762   3.824   1.853   2.335 -0.1825 -0.1584  0.4557
   14SAPS   O32 1763   3.929   1.906   2.300  0.2209  0.1176 -0.4358
   14SAPS   C32 1764   3.799   1.825   2.481  0.0085 -0.5485  0.6846
   14SAPS   H2X 1765   3.898   1.812   2.529  0.4782  0.2124 -0.0463
   14SAPS   H2Y 1766   3.730   1.742   2.507  0.3384 -0.9531  0.2769
   14SAPS   C23 1767   3.500   2.256   2.416  0.1043 -0.6331  0.6737
   14SAPS   H3R 1768   3.563   2.315   2.486  0.6621  0.0934 -0.3928
   14SAPS   H3S 1769   3.530   2.151   2.434 -1.9897 -1.1731  1.2528
   14SAPS   C24 1770   3.358   2.270   2.451 -0.5811  0.0822  0.0207
   14SAPS   H4R 1771   3.322   2.369   2.416 -2.6667 -0.6025  0.0695
   14SAPS   H4S 1772   3.340   2.264   2.561  1.2132 -0.5475  0.3076
   14SAPS   C25 1773   3.260   2.174   2.389  0.1733  0.1888 -0.3145
   14SAPS   H5R 1774   3.224   2.203   2.289  1.7130  1.8360 -0.4552
   14SAPS   C26 1775   3.228   2.057   2.435  0.5903  0.0771  0.4840
   14SAPS   H6R 1776   3.156   1.996   2.379  0.2079 -0.4600  1.5371
   14SAPS   C27 1777   3.292   1.995   2.558 -0.2004  0.2177  0.0480
   14SAPS   H7R 1778   3.206   1.985   2.627 -0.1219 -2.6402 -0.1736
   14SAPS   H7S 1779   3.365   2.061   2.610  0.3375 -0.4689  0.1708
   14SAPS   C28 1780   3.359   1.863   2.532 -0.3612  0.5920  0.0844
   14SAPS   H8R 1781   3.428   1.855   2.448  4.2822  0.6970  3.5161
   14SAPS   C29 1782   3.367   1.763   2.628 -0.4292 -0.2453 -0.4018
   14SAPS   H9R 1783   3.422   1.671   2.602  0.4766  0.5803 -1.5061
   14SAPS  C210 1784   3.288   1.769   2.759  0.1500  0.2552 -0.5001
   14SAPS  H10R 1785   3.286   1.872   2.800  1.2836  0.8444 -1.8436
   14SAPS  H10S 1786   3.335   1.705   2.837 -0.1646  3.1307  2.2261
   14SAPS  C211 1787   3.145   1.723   2.743 -0.0092 -0.2313 -0.1573
   14SAPS  H11R 1788   3.123   1.701   2.637 -2.0818  0.1025  0.1520
   14SAPS  C212 1789   3.060   1.686   2.836 -0.4626 -0.1973  0.3821
   14SAPS  H12R 1790   2.957   1.664   2.806 -0.2358 -0.6424 -0.0865
   14SAPS  C213 1791   3.085   1.701   2.989  0.0169 -0.6163  0.1694
   14SAPS  H13R 1792   3.181   1.755   2.999 -1.7712  3.0905 -0.8643
   14SAPS  H13S 1793   3.101   1.602   3.038 -2.4875 -1.6778 -0.9834
   14SAPS  C214 1794   2.972   1.760   3.069  0.5916 -1.0956  0.0113
   14SAPS  H14R 1795   2.876   1.746   3.018 -0.3705  3.3603  0.1790
   14SAPS  C215 1796   2.963   1.852   3.166 -0.0208  0.1605 -0.8079
   14SAPS  H15R 1797   2.867   1.884   3.208  0.9064  0.6974  1.0167
   14SAPS  C216 1798   3.083   1.902   3.241 -0.5950  0.4246  0.5971
   14SAPS  H16R 1799   3.065   2.007   3.273  3.5497  1.5143 -0.0904
   14SAPS  H16S 1800   3.170   1.897   3.173 -1.3808 -1.4524 -0.3431
   14SAPS  C217 1801   3.132   1.831   3.378  0.7931  0.6701  0.4200
   14SAPS  H17R 1802   3.230   1.872   3.410  0.9247  0.7451 -0.0587
   14SAPS  H17S 1803   3.139   1.722   3.356 -0.1925  0.3516  1.5958
   14SAPS  C218 1804   3.038   1.866   3.495 -0.2544 -0.3848  0.3985
   14SAPS  H18R 1805   2.937   1.823   3.480 -0.3356  0.6508 -2.8907
   14SAPS  H18S 1806   3.028   1.977   3.492  0.5854 -0.3177 -0.5161
   14SAPS  C219 1807   3.097   1.827   3.628  0.0712  0.3733 -0.1866
   14SAPS  H19R 1808   3.208   1.824   3.636 -0.0295 -1.9232  1.2199
   14SAPS  H19S 1809   3.061   1.722   3.635  1.1716  0.0372  0.6923
   14SAPS  C220 1810   3.047   1.893   3.754  0.7388 -0.3304 -0.2023
   14SAPS  H20R 1811   3.077   1.843   3.848  1.0118 -3.4025 -1.7926
   14SAPS  H20S 1812   2.937   1.881   3.746  0.5432  1.3006 -0.3325
   14SAPS  H20T 1813   3.052   2.003   3.769 -0.5584 -0.3784  0.7110
   14SAPS   C33 1814   3.759   1.963   2.533 -0.2948 -0.8034 -0.0476
   14SAPS   H3X 1815   3.696   2.018   2.461  1.8279  1.3957 -0.3677
   14SAPS   H3Y 1816   3.843   2.032   2.556 -0.9676 -0.4445  1.4787
   14SAPS   C34 1817   3.684   1.973   2.665 -0.1752  0.6750 -0.6239
   14SAPS   H4X 1818   3.575   1.953   2.674  0.3802 -2.0653  1.6055
   14SAPS   H4Y 1819   3.695   2.071   2.715 -2.7310 -0.6026  2.9208
   14SAPS   C35 1820   3.757   1.866   2.758  0.7588 -0.4205  0.0602
   14SAPS   H5X 1821   3.866   1.886   2.759  0.8754 -1.0337 -0.1203
   14SAPS   H5Y 1822   3.739   1.762   2.724  1.6346 -1.3977  2.3954
   14SAPS   C36 1823   3.690   1.859   2.893 -0.8356  0.4460  0.7647
   14SAPS   H6X 1824   3.586   1.824   2.873 -0.3208 -0.2848 -0.7581
   14SAPS   H6Y 1825   3.670   1.951   2.952  1.1570  1.5832 -0.2263
   14SAPS   C37 1826   3.751   1.751   2.993  0.5249 -0.0666 -0.1557
   14SAPS   H7X 1827   3.848   1.796   3.022  0.2269  1.2967 -1.1745
   14SAPS   H7Y 1828   3.757   1.646   2.957 -1.0317 -0.3715  0.3739
   14SAPS   C38 1829   3.657   1.744   3.115  0.1472 -0.9316  0.5615
   14SAPS   H8X 1830   3.558   1.699   3.090  0.7212 -2.0256  0.2143
   14SAPS   H8Y 1831   3.637   1.850   3.142 -2.6923 -1.3254  0.3397
   14SAPS   C39 1832   3.721   1.675   3.238  0.5882 -0.1343  0.5421
   14SAPS   H9X 1833   3.821   1.719   3.262  1.3621 -0.7953 -1.2964
   14SAPS   H9Y 1834   3.741   1.570   3.209 -1.2462  0.1173 -2.0052
   14SAPS  C310 1835   3.626   1.684   3.358  0.7928  0.7851 -0.3781
   14SAPS  H10X 1836   3.535   1.621   3.346 -0.6033  2.2337  1.8460
   14SAPS  H10Y 1837   3.604   1.792   3.371 -0.1818  0.3224  2.3546
   14SAPS  C311 1838   3.696   1.628   3.488 -0.0056  0.4681 -0.1428
   14SAPS  H11X 1839   3.790   1.685   3.500  0.5354  0.2612 -2.8276
   14SAPS  H11Y 1840   3.717   1.521   3.466 -1.4019  0.2118 -0.2915
   14SAPS  C312 1841   3.600   1.650   3.608 -0.0999  0.7106  0.2478
   14SAPS  H12X 1842   3.503   1.599   3.590 -0.1364  0.8067  0.1661
   14SAPS  H12Y 1843   3.594   1.757   3.639  0.3962  0.4942  1.1199
   14SAPS  C313 1844   3.635   1.579   3.746 -0.3122 -0.5979  0.4895
   14SAPS  H13X 1845   3.723   1.624   3.796 -2.0926  1.8168  1.5960
   14SAPS  H13Y 1846   3.654   1.473   3.718  0.2549 -0.3334 -0.1630
   14SAPS  C314 1847   3.526   1.582   3.853  0.1001 -0.1023 -0.3736
   14SAPS  H14X 1848   3.425   1.558   3.813 -1.1374  1.0171  1.8768
   14SAPS  H14Y 1849   3.521   1.683   3.899 -2.4459  0.3993 -1.5434
   14SAPS  C315 1850   3.535   1.488   3.971  0.2578  0.5734 -0.4008
   14SAPS  H15X 1851   3.616   1.521   4.039  0.7237 -1.3196  0.0069
   14SAPS  H15Y 1852   3.555   1.386   3.933  0.5704  1.0411 -1.5328
   14SAPS  C316 1853   3.407   1.478   4.061  0.3931  0.4023  0.1205
   14SAPS  H16X 1854   3.369   1.578   4.094 -0.0508  0.3283 -0.1595
   14SAPS  H16Y 1855   3.424   1.425   4.157  1.6862  1.9673  0.8215
   14SAPS  C317 1856   3.295   1.403   3.999  0.5429 -0.0319 -1.0607
   14SAPS  H17X 1857   3.328   1.298   3.983  0.8394 -0.3814  1.3854
   14SAPS  H17Y 1858   3.264   1.451   3.904 -0.5127 -0.6350 -1.0350
   14SAPS  C318 1859   3.176   1.395   4.092 -0.0436  0.0698 -0.5297
   14SAPS  H18X 1860   3.094   1.343   4.039  1.9768 -0.5431 -3.3205
   14SAPS  H18Y 1861   3.141   1.494   4.126  0.7955  0.0457  0.4491
   14SAPS  H18Z 1862   3.199   1.335   4.182 -0.4683 -1.7215 -1.5618
   15SAPS     N 1863   4.519   5.937   1.504 -0.0667 -0.1261 -0.1700
   15SAPS   HN1 1864   4.494   5.837   1.521 -0.5223 -0.1953 -1.1731
   15SAPS   HN2 1865   4.442   5.997   1.541  2.2662  2.9811  0.0047
   15SAPS   HN3 1866   4.542   5.950   1.404  2.8955  3.1467  0.7187
   15SAPS   C12 1867   4.654   5.971   1.569  0.2240 -0.9409  0.4046
   15SAPS  H12A 1868   4.725   5.923   1.503  0.6696  1.0442 -0.6149
   15SAPS   C13 1869   4.690   6.116   1.580 -0.3141  0.0869 -0.6271
   15SAPS  O13A 1870   4.610   6.194   1.521 -0.4583  0.3740 -0.2359
   15SAPS  O13B 1871   4.810   6.148   1.600 -0.1190  0.4816 -0.5561
   15SAPS   C11 1872   4.648   5.893   1.700  0.3113  0.5965  1.1409
   15SAPS  H11A 1873   4.617   5.789   1.678  0.8122  0.3240  1.6881
   15SAPS  H11B 1874   4.571   5.933   1.771  1.4038  1.5715  1.8176
   15SAPS     P 1875   4.798   5.787   1.877 -0.2275  0.8905  0.1291
   15SAPS   O13 1876   4.745   5.654   1.838 -0.4066  0.6276  0.6656
   15SAPS   O14 1877   4.940   5.790   1.921 -0.7725 -0.0082 -0.1537
   15SAPS   O12 1878   4.778   5.886   1.758  0.4553 -0.7899 -0.0371
   15SAPS   O11 1879   4.702   5.843   1.983 -0.1766 -0.3907  0.3107
   15SAPS    C1 1880   4.724   5.844   2.124 -0.1293 -0.5848 -0.0083
   15SAPS    HA 1881   4.829   5.823   2.152 -0.8349  0.0198  3.4669
   15SAPS    HB 1882   4.695   5.943   2.165 -0.4348  0.1487 -1.8682
   15SAPS    C2 1883   4.630   5.738   2.189 -0.6641 -0.0080 -0.1362
   15SAPS    HS 1884   4.663   5.733   2.295  2.0952  0.5787 -0.9062
   15SAPS   O21 1885   4.645   5.601   2.142  0.1255  0.1709  0.5865
   15SAPS   C21 1886   4.762   5.543   2.166 -0.2526 -0.0209  0.0007
   15SAPS   O22 1887   4.839   5.589   2.244 -1.1570  0.4025  0.0344
   15SAPS   C22 1888   4.782   5.415   2.074  0.0894 -0.1008  0.0739
   15SAPS   H2R 1889   4.684   5.396   2.026 -0.0189 -0.5744  0.4733
   15SAPS   H2S 1890   4.845   5.444   1.987 -1.2137  1.0676 -0.5179
   15SAPS    C3 1891   4.477   5.778   2.183  0.1257  0.1804  0.5412
   15SAPS    HX 1892   4.406   5.695   2.204 -1.2319  1.0343 -0.5104
   15SAPS    HY 1893   4.462   5.805   2.076  1.9382  1.4536  0.5722
   15SAPS   O31 1894   4.439   5.900   2.252  0.0380  0.4089 -0.0942
   15SAPS   C31 1895   4.421   5.873   2.382 -0.0317  0.3797 -0.0952
   15SAPS   O32 1896   4.448   5.766   2.439 -0.2871  0.0364 -0.7448
   15SAPS   C32 1897   4.365   6.002   2.439 -0.2153 -0.0783  0.8239
   15SAPS   H2X 1898   4.255   5.998   2.431 -0.6351  0.4331  4.4931
   15SAPS   H2Y 1899   4.402   6.079   2.368 -0.2956 -1.5651 -0.9160
   15SAPS   C23 1900   4.848   5.299   2.133 -0.0966 -0.5446  0.2321
   15SAPS   H3R 1901   4.940   5.334   2.184 -0.7168 -0.0932  1.0508
   15SAPS   H3S 1902   4.871   5.230   2.048 -1.5249  0.2433 -0.8388
   15SAPS   C24 1903   4.757   5.229   2.235 -0.0099  0.7285  0.0278
   15SAPS   H4R 1904   4.781   5.264   2.338 -0.3110 -0.8667  0.6674
   15SAPS   H4S 1905   4.798   5.127   2.246  2.0739  1.5095  0.0784
   15SAPS   C25 1906   4.612   5.218   2.201 -0.4411 -1.1192  0.4486
   15SAPS   H5R 1907   4.594   5.179   2.100  0.6144  0.4344 -0.3896
   15SAPS   C26 1908   4.509   5.291   2.259  0.0335 -0.2623  0.6826
   15SAPS   H6R 1909   4.414   5.273   2.205 -0.1951 -1.5299  1.4660
   15SAPS   C27 1910   4.526   5.377   2.391  1.0112  0.2544 -0.0114
   15SAPS   H7R 1911   4.443   5.450   2.384 -1.6097 -2.3794  1.0503
   15SAPS   H7S 1912   4.622   5.431   2.391  0.6298  1.0268 -2.3969
   15SAPS   C28 1913   4.512   5.289   2.515 -0.4330 -0.4467  0.1138
   15SAPS   H8R 1914   4.481   5.187   2.486 -0.0664 -0.0123 -2.0337
   15SAPS   C29 1915   4.481   5.334   2.637 -0.2116 -0.4132  0.6278
   15SAPS   H9R 1916   4.488   5.259   2.717  1.2233  1.5674  2.5014
   15SAPS  C210 1917   4.481   5.478   2.692 -0.0581 -0.8303 -0.4409
   15SAPS  H10R 1918   4.374   5.497   2.712 -0.1348 -0.4890 -1.1661
   15SAPS  H10S 1919   4.515   5.557   2.622 -2.9695 -2.1137 -3.5083
   15SAPS  C211 1920   4.554   5.486   2.822 -0.0881 -0.3128 -0.1436
   15SAPS  H11R 1921   4.639   5.416   2.831 -1.6161 -2.1855  0.2388
   15SAPS  C212 1922   4.530   5.566   2.932 -0.5143  0.2350 -0.0841
   15SAPS  H12R 1923   4.585   5.545   3.025  1.4724 -1.5122 -1.5724
   15SAPS  C213 1924   4.427   5.674   2.942 -0.0814  0.1445 -0.0235
   15SAPS  H13R 1925   4.355   5.650   3.023  0.3027  1.5937  0.7891
   15SAPS  H13S 1926   4.359   5.684   2.855  0.3263  2.5616 -0.1548
   15SAPS  C214 1927   4.486   5.805   2.969 -0.1071  0.1592 -0.3606
   15SAPS  H14R 1928   4.573   5.838   2.910  0.5797 -0.5281  0.2478
   15SAPS  C215 1929   4.442   5.888   3.068 -1.0575  0.1539 -0.0102
   15SAPS  H15R 1930   4.496   5.982   3.088  2.6457 -1.5884 -0.8782
   15SAPS  C216 1931   4.338   5.854   3.170 -0.9638 -0.3815  1.1192
   15SAPS  H16R 1932   4.252   5.815   3.111 -0.1711 -0.7752  0.1905
   15SAPS  H16S 1933   4.313   5.952   3.217  0.4738 -0.8071  2.8552
   15SAPS  C217 1934   4.379   5.759   3.287 -0.1923  0.7834 -0.1405
   15SAPS  H17R 1935   4.399   5.655   3.253 -1.6808  0.6967 -0.8034
   15SAPS  H17S 1936   4.285   5.764   3.346 -0.4474 -1.1719 -0.3290
   15SAPS  C218 1937   4.489   5.811   3.371 -0.4074  0.1325  0.4984
   15SAPS  H18R 1938   4.479   5.921   3.365 -1.0370  0.0543  0.0391
   15SAPS  H18S 1939   4.587   5.779   3.329  0.6389  3.0199  0.5269
   15SAPS  C219 1940   4.489   5.761   3.516 -1.0968 -0.0781 -0.6411
   15SAPS  H19R 1941   4.405   5.818   3.561  0.6001  1.3007  0.9525
   15SAPS  H19S 1942   4.589   5.795   3.552 -0.7193  0.5283 -2.1748
   15SAPS  C220 1943   4.475   5.609   3.537  0.6665 -0.0774  0.2631
   15SAPS  H20R 1944   4.519   5.587   3.637  0.5038 -0.2057  0.3061
   15SAPS  H20S 1945   4.533   5.539   3.472  1.3210 -1.7405  2.4925
   15SAPS  H20T 1946   4.368   5.583   3.549  0.4873  1.1647  1.6086
   15SAPS   C33 1947   4.386   6.040   2.583 -0.1958 -0.2277 -0.3808
   15SAPS   H3X 1948   4.354   6.147   2.588  0.0925 -0.1754  0.7640
   15SAPS   H3Y 1949   4.494   6.035   2.612 -0.0656  1.5700 -0.4151
   15SAPS   C34 1950   4.304   5.953   2.685  0.3803 -0.3124 -0.5677
   15SAPS   H4X 1951   4.328   5.986   2.789 -0.1652 -0.1307 -0.4917
   15SAPS   H4Y 1952   4.339   5.850   2.664 -1.0186 -0.6400 -1.3674
   15SAPS   C35 1953   4.153   5.944   2.675  0.3402 -0.1370  0.4802
   15SAPS   H5X 1954   4.123   5.903   2.576 -0.1950 -0.2229  0.6721
   15SAPS   H5Y 1955   4.101   6.041   2.688 -0.2137 -0.1851 -1.1459
   15SAPS   C36 1956   4.092   5.855   2.779 -0.5068  0.1174  0.1882
   15SAPS   H6X 1957   4.148   5.759   2.775 -0.2563  0.1112  2.4878
   15SAPS   H6Y 1958   3.985   5.828   2.764 -0.3350 -0.2308 -0.4389
   15SAPS   C37 1959   4.095   5.906   2.919 -0.3656  0.3231  0.7244
   15SAPS   H7X 1960   4.197   5.944   2.941  0.3676 -1.8495  1.3227
   15SAPS   H7Y 1961   4.077   5.823   2.990 -0.4199 -0.0240  0.3042
   15SAPS   C38 1962   3.972   5.993   2.936 -0.5017  0.3842 -0.6689
   15SAPS   H8X 1963   3.886   5.927   2.914 -0.3633 -0.1866  0.4357
   15SAPS   H8Y 1964   3.975   6.080   2.866  2.2317  0.1265 -0.9988
   15SAPS   C39 1965   3.963   6.048   3.084  0.2686 -0.0944  0.3647
   15SAPS   H9X 1966   3.997   5.973   3.158 -0.5434 -0.5279  0.3016
   15SAPS   H9Y 1967   3.859   6.079   3.105  0.3536  0.3698  0.1312
   15SAPS  C310 1968   4.038   6.176   3.107  0.3184 -0.4810 -0.6544
   15SAPS  H10X 1969   4.006   6.262   3.044  1.1739 -1.0636 -1.9244
   15SAPS  H10Y 1970   4.144   6.153   3.083  0.4942 -1.6417  1.0796
   15SAPS  C311 1971   4.052   6.221   3.254  0.1080 -0.4029 -0.1758
   15SAPS  H11X 1972   4.075   6.137   3.323 -1.7462  0.2457  1.3176
   15SAPS  H11Y 1973   3.955   6.255   3.296  1.6635  0.3724  3.0555
   15SAPS  C312 1974   4.152   6.338   3.272 -0.3241  0.8196 -0.0669
   15SAPS  H12X 1975   4.115   6.419   3.206  2.1243  0.1059 -2.5024
   15SAPS  H12Y 1976   4.249   6.300   3.234 -1.3149  0.5097 -2.4642
   15SAPS  C313 1977   4.157   6.370   3.423  0.2966 -0.1762  0.1273
   15SAPS  H13X 1978   4.252   6.428   3.429  0.0070  0.6839 -2.2370
   15SAPS  H13Y 1979   4.156   6.274   3.478  0.6883 -0.4049 -0.2583
   15SAPS  C314 1980   4.035   6.448   3.474  0.1347 -0.4590  0.7805
   15SAPS  H14X 1981   3.961   6.453   3.392  2.3871  0.0236 -1.3305
   15SAPS  H14Y 1982   4.063   6.553   3.497 -2.8020  0.4289  0.6709
   15SAPS  C315 1983   3.963   6.385   3.598 -0.2063 -0.3518 -0.5081
   15SAPS  H15X 1984   4.038   6.368   3.679  1.5723  1.2716 -1.7259
   15SAPS  H15Y 1985   3.916   6.288   3.569 -0.6280  0.1343 -1.4944
   15SAPS  C316 1986   3.857   6.489   3.655  0.7222  0.4770 -0.3966
   15SAPS  H16X 1987   3.787   6.513   3.572 -0.1695 -1.6302 -0.3166
   15SAPS  H16Y 1988   3.916   6.574   3.694  0.9941  0.8252 -1.5459
   15SAPS  C317 1989   3.765   6.437   3.767  0.0195 -0.1506  1.0801
   15SAPS  H17X 1990   3.722   6.342   3.730  2.2101 -0.4902 -0.8361
   15SAPS  H17Y 1991   3.687   6.506   3.805  2.8427  2.5219  2.4748
   15SAPS  C318 1992   3.855   6.403   3.890 -1.0399 -0.0120 -0.1369
   15SAPS  H18X 1993   3.791   6.354   3.967 -2.2716 -0.8942 -1.6726
   15SAPS  H18Y 1994   3.899   6.494   3.938  1.1055 -1.1822  0.2151
   15SAPS  H18Z 1995   3.940   6.337   3.864 -0.6836 -0.7132  2.5099
   16SAPS     N 1996   5.902   4.280   1.820 -0.6467 -0.5156  0.0700
   16SAPS   HN1 1997   5.871   4.367   1.868 -2.1859 -0.3483 -1.1386
   16SAPS   HN2 1998   5.976   4.291   1.748  0.0245  1.0613  0.9513
   16SAPS   HN3 1999   5.818   4.242   1.772 -0.8234 -1.3307  0.9820
   16SAPS   C12 2000   5.955   4.189   1.926  0.1733 -0.1429  0.1126
   16SAPS  H12A 2001   5.985   4.096   1.880  0.7901  0.3672 -0.5426
   16SAPS   C13 2002   6.083   4.250   1.993  0.4390 -0.6517  0.5336
   16SAPS  O13A 2003   6.116   4.366   1.954 -0.4635 -0.4614  0.2688
   16SAPS  O13B 2004   6.137   4.189   2.089 -0.0712  0.0155 -0.1682
   16SAPS   C11 2005   5.851   4.158   2.029 -0.2040 -0.3341  0.3569
   16SAPS  H11A 2006   5.829   4.260   2.067 -0.3619 -1.3168  3.0829
   16SAPS  H11B 2007   5.893   4.114   2.122  4.7641  1.0752 -0.8988
   16SAPS     P 2008   5.703   3.947   1.986  0.2482 -0.1355  0.4253
   16SAPS   O13 2009   5.582   3.909   1.907  0.0045 -0.3153 -0.7152
   16SAPS   O14 2010   5.828   3.874   1.956  0.4933 -0.3250  0.2256
   16SAPS   O12 2011   5.736   4.097   1.972 -0.3419  0.1693 -0.4556
   16SAPS   O11 2012   5.677   3.943   2.142 -0.2937 -0.3298  0.2989
   16SAPS    C1 2013   5.555   3.955   2.210 -0.0795  0.2010 -0.0464
   16SAPS    HA 2014   5.468   3.915   2.153 -1.2346 -1.6444  2.7780
   16SAPS    HB 2015   5.568   3.885   2.295 -0.7213 -1.5596 -1.3188
   16SAPS    C2 2016   5.538   4.095   2.265  0.5137 -0.1289  0.0615
   16SAPS    HS 2017   5.540   4.173   2.186 -1.3592 -1.2489 -1.1764
   16SAPS   O21 2018   5.634   4.120   2.369  0.7102 -0.2790 -0.6364
   16SAPS   C21 2019   5.675   4.247   2.364 -0.3372 -0.2432 -0.3274
   16SAPS   O22 2020   5.644   4.334   2.284  0.2244 -0.1817 -0.4160
   16SAPS   C22 2021   5.774   4.274   2.481 -0.0042 -0.9887 -0.1651
   16SAPS   H2R 2022   5.770   4.195   2.558 -1.4801  0.9205  1.8468
   16SAPS   H2S 2023   5.874   4.285   2.433 -0.7381  0.9775 -1.3875
   16SAPS    C3 2024   5.394   4.101   2.323 -0.1150 -0.2272  0.7697
   16SAPS    HX 2025   5.386   4.001   2.371 -0.4816 -0.3815  0.3996
   16SAPS    HY 2026   5.326   4.109   2.235  0.0227 -1.1362  0.5749
   16SAPS   O31 2027   5.370   4.196   2.424  0.2330 -0.9023 -0.1016
   16SAPS   C31 2028   5.250   4.259   2.422  0.9171  0.1989  0.0784
   16SAPS   O32 2029   5.155   4.227   2.348 -0.1482  0.2171  0.4854
   16SAPS   C32 2030   5.233   4.369   2.530 -0.3635  0.1494 -0.0597
   16SAPS   H2X 2031   5.132   4.412   2.515 -0.2353  0.8775  1.0030
   16SAPS   H2Y 2032   5.314   4.443   2.511  0.3095 -0.6649 -0.4612
   16SAPS   C23 2033   5.733   4.406   2.552  0.3068  0.2311  0.1109
   16SAPS   H3R 2034   5.690   4.481   2.482  0.2336  1.1522  1.1180
   16SAPS   H3S 2035   5.817   4.459   2.602  1.1701 -2.2699  1.5125
   16SAPS   C24 2036   5.616   4.379   2.651  0.6697  0.2389 -1.1010
   16SAPS   H4R 2037   5.654   4.323   2.739 -1.4748  0.4845  0.0305
   16SAPS   H4S 2038   5.542   4.317   2.595  0.5606  0.2966 -1.0210
   16SAPS   C25 2039   5.574   4.514   2.703 -0.2129  0.2146  0.3974
   16SAPS   H5R 2040   5.522   4.582   2.635  0.5090 -1.1432 -1.6263
   16SAPS   C26 2041   5.619   4.570   2.815  0.6468  0.4014  0.4912
   16SAPS   H6R 2042   5.585   4.673   2.830 -1.7587 -0.3017  0.2734
   16SAPS   C27 2043   5.721   4.517   2.917  0.1427 -0.6280 -0.9937
   16SAPS   H7R 2044   5.782   4.603   2.952 -0.8963 -0.8160  1.4952
   16SAPS   H7S 2045   5.792   4.447   2.868  0.6198  0.8940 -2.5493
   16SAPS   C28 2046   5.671   4.445   3.042  0.4330 -0.5175  0.3058
   16SAPS   H8R 2047   5.578   4.388   3.026 -0.9646  1.4821  0.8609
   16SAPS   C29 2048   5.722   4.453   3.170 -0.1219  0.3310  1.1798
   16SAPS   H9R 2049   5.658   4.413   3.250 -4.4270  2.6990 -0.7599
   16SAPS  C210 2050   5.836   4.546   3.212  0.6156 -0.4972 -0.5598
   16SAPS  H10R 2051   5.790   4.641   3.248 -0.0649 -0.4600 -1.4722
   16SAPS  H10S 2052   5.903   4.590   3.136  0.2436  0.3522 -0.4154
   16SAPS  C211 2053   5.913   4.471   3.325 -0.5126  0.2568  1.0445
   16SAPS  H11R 2054   5.973   4.383   3.300 -0.1212  0.5437  0.9671
   16SAPS  C212 2055   5.931   4.517   3.451  0.1085 -0.5721  1.2047
   16SAPS  H12R 2056   5.987   4.447   3.516  1.3787 -0.6151  0.1082
   16SAPS  C213 2057   5.875   4.652   3.501 -1.1349  0.3587 -0.4648
   16SAPS  H13R 2058   5.767   4.643   3.526 -0.5291 -2.8379  1.6337
   16SAPS  H13S 2059   5.902   4.731   3.428  0.3272 -1.5543 -2.0980
   16SAPS  C214 2060   5.940   4.679   3.636 -0.0950 -0.0061  0.6341
   16SAPS  H14R 2061   5.896   4.617   3.715 -0.8858  1.5505  1.4739
   16SAPS  C215 2062   6.024   4.778   3.668  0.1639 -0.2125 -0.0236
   16SAPS  H15R 2063   6.038   4.786   3.777 -0.8471 -3.1321  0.4053
   16SAPS  C216 2064   6.073   4.885   3.573  0.1869  0.1247 -0.6410
   16SAPS  H16R 2065   5.982   4.924   3.522 -0.3082 -0.3050 -0.0991
   16SAPS  H16S 2066   6.136   4.832   3.499 -1.3105 -2.0602 -0.4512
   16SAPS  C217 2067   6.148   4.997   3.632  0.5769  0.4660  0.5176
   16SAPS  H17R 2068   6.188   5.059   3.549 -0.1949  2.4064  1.5279
   16SAPS  H17S 2069   6.238   4.947   3.674  0.6275 -1.4888 -1.7249
   16SAPS  C218 2070   6.070   5.090   3.725 -0.3074 -0.6873 -0.5837
   16SAPS  H18R 2071   6.006   5.031   3.793  0.6614  0.3085  1.2751
   16SAPS  H18S 2072   5.997   5.154   3.672 -0.1130  0.7398  0.7981
   16SAPS  C219 2073   6.169   5.170   3.819  0.4171 -0.3261 -0.2776
   16SAPS  H19R 2074   6.235   5.100   3.875 -0.9774 -0.5941  1.1127
   16SAPS  H19S 2075   6.108   5.220   3.897 -0.0038  0.4854 -1.1058
   16SAPS  C220 2076   6.258   5.273   3.752  0.2537  0.2079  0.2237
   16SAPS  H20R 2077   6.194   5.343   3.694  0.3994  0.7524  0.7111
   16SAPS  H20S 2078   6.328   5.220   3.684  2.0254  1.4125  1.0514
   16SAPS  H20T 2079   6.319   5.327   3.827  2.4061 -2.5996  0.6226
   16SAPS   C33 2080   5.261   4.302   2.670 -0.0034  0.3315 -0.3370
   16SAPS   H3X 2081   5.276   4.387   2.740 -0.9642 -0.5750  1.0208
   16SAPS   H3Y 2082   5.355   4.244   2.662 -1.6386 -2.3240 -1.7795
   16SAPS   C34 2083   5.154   4.216   2.735  0.7220  0.2427 -0.2117
   16SAPS   H4X 2084   5.121   4.136   2.665  1.0345  1.0674 -1.3437
   16SAPS   H4Y 2085   5.062   4.272   2.760  0.2477 -0.2238 -0.8766
   16SAPS   C35 2086   5.193   4.149   2.871 -0.0013  0.1891  0.3652
   16SAPS   H5X 2087   5.284   4.088   2.847  0.0785  0.6042 -0.4179
   16SAPS   H5Y 2088   5.126   4.070   2.912  2.0201 -0.5352  2.5331
   16SAPS   C36 2089   5.213   4.246   2.989 -0.3297  0.0831  0.4710
   16SAPS   H6X 2090   5.110   4.278   3.017 -1.4457 -1.0838 -1.9846
   16SAPS   H6Y 2091   5.269   4.336   2.958 -0.5942  0.1169  0.0832
   16SAPS   C37 2092   5.273   4.181   3.109  0.4225 -0.0101  0.2183
   16SAPS   H7X 2093   5.382   4.197   3.094  0.2515  1.2227  0.1581
   16SAPS   H7Y 2094   5.240   4.075   3.108 -0.0102  0.1169 -1.8150
   16SAPS   C38 2095   5.231   4.246   3.243 -0.7669 -0.1479  0.0589
   16SAPS   H8X 2096   5.283   4.189   3.324  0.3786 -1.2877 -1.4179
   16SAPS   H8Y 2097   5.121   4.237   3.243 -0.7045 -1.3206  1.2944
   16SAPS   C39 2098   5.282   4.380   3.248  0.1251  0.2299  0.1282
   16SAPS   H9X 2099   5.248   4.443   3.163 -0.3083  0.1660  0.2550
   16SAPS   H9Y 2100   5.393   4.383   3.239 -0.0853  0.9857 -5.2577
   16SAPS  C310 2101   5.244   4.457   3.370  0.3669 -0.0741  0.4279
   16SAPS  H10X 2102   5.242   4.388   3.458 -0.6459  1.1026  1.3723
   16SAPS  H10Y 2103   5.145   4.506   3.363  0.4688  0.0495 -0.1454
   16SAPS  C311 2104   5.346   4.559   3.435 -0.0667  0.1209 -0.1068
   16SAPS  H11X 2105   5.299   4.612   3.520 -0.8211 -2.5116  1.2180
   16SAPS  H11Y 2106   5.372   4.633   3.357  1.0538 -0.5947 -0.4419
   16SAPS  C312 2107   5.480   4.503   3.489  0.2883 -1.0796  0.1149
   16SAPS  H12X 2108   5.561   4.567   3.448 -1.3128  0.0384 -1.4728
   16SAPS  H12Y 2109   5.489   4.403   3.440 -1.5214 -2.1872  1.8837
   16SAPS  C313 2110   5.480   4.498   3.645  0.1179  0.5407 -0.8289
   16SAPS  H13X 2111   5.443   4.595   3.685 -1.1796  0.3071 -1.4219
   16SAPS  H13Y 2112   5.581   4.483   3.687  0.2168 -0.1659 -1.2976
   16SAPS  C314 2113   5.406   4.372   3.697 -0.0419  0.0627 -0.1630
   16SAPS  H14X 2114   5.438   4.285   3.636 -2.8260  0.4361 -2.3756
   16SAPS  H14Y 2115   5.296   4.385   3.684  0.1540  1.3875 -0.7219
   16SAPS  C315 2116   5.449   4.346   3.842  0.1406 -0.5912 -0.6830
   16SAPS  H15X 2117   5.436   4.440   3.900  2.1477 -0.5972 -0.1259
   16SAPS  H15Y 2118   5.557   4.319   3.850  0.1397 -0.6525 -0.8728
   16SAPS  C316 2119   5.369   4.239   3.920  0.5095  0.1262  0.1231
   16SAPS  H16X 2120   5.382   4.137   3.877  0.4917 -0.8216  2.2722
   16SAPS  H16Y 2121   5.260   4.254   3.906  0.6541  1.4547  0.3304
   16SAPS  C317 2122   5.396   4.237   4.075  0.4652 -0.5700  0.5901
   16SAPS  H17X 2123   5.495   4.192   4.092  0.3860 -0.8851  0.2327
   16SAPS  H17Y 2124   5.315   4.171   4.113  1.2517 -0.9374  1.6670
   16SAPS  C318 2125   5.397   4.370   4.149  0.2724 -0.5435 -0.3096
   16SAPS  H18X 2126   5.490   4.428   4.129 -0.3463 -0.2621 -2.7740
   16SAPS  H18Y 2127   5.381   4.363   4.259  0.4429  0.6576 -0.1951
   16SAPS  H18Z 2128   5.316   4.433   4.106 -0.8732 -3.1233 -2.2276
   17SAPS     N 2129   2.493   5.879   1.982 -0.1595  0.6400 -0.5225
   17SAPS   HN1 2130   2.450   5.905   2.073 -1.3235 -1.6776 -0.3377
   17SAPS   HN2 2131   2.426   5.809   1.944  1.8733 -1.5922 -0.2509
   17SAPS   HN3 2132   2.576   5.818   1.997  0.3141  0.3111 -3.7118
   17SAPS   C12 2133   2.530   5.979   1.882 -1.2164  0.4389 -0.2944
   17SAPS  H12A 2134   2.572   6.064   1.936 -1.4655  1.5265 -1.7482
   17SAPS   C13 2135   2.639   5.926   1.786  0.1324  0.1427  0.3541
   17SAPS  O13A 2136   2.684   5.807   1.788 -0.5532  0.6425 -0.4742
   17SAPS  O13B 2137   2.709   6.016   1.724 -0.3747 -0.4669 -0.5335
   17SAPS   C11 2138   2.416   6.025   1.794  0.0147  0.7028 -0.9674
   17SAPS  H11A 2139   2.384   5.952   1.716  0.8420 -0.2996 -0.3982
   17SAPS  H11B 2140   2.450   6.114   1.737  0.0649  2.2595  1.3502
   17SAPS     P 2141   2.232   6.179   1.876 -0.1446  0.3331  0.4197
   17SAPS   O13 2142   2.315   6.268   1.963  0.7211  0.4276 -0.5885
   17SAPS   O14 2143   2.201   6.224   1.738 -0.6187 -0.0079  0.4197
   17SAPS   O12 2144   2.299   6.039   1.873 -0.1372  0.2233 -0.3488
   17SAPS   O11 2145   2.083   6.143   1.939 -0.0893  0.9525  0.5196
   17SAPS    C1 2146   2.089   6.037   2.046  0.0342  0.0118  0.1567
   17SAPS    HA 2147   2.183   6.023   2.102  1.3196 -0.9723 -2.0904
   17SAPS    HB 2148   2.016   6.073   2.121 -0.8006  0.9185 -1.0408
   17SAPS    C2 2149   2.031   5.905   1.985  0.1529  0.0955  0.4794
   17SAPS    HS 2150   2.071   5.903   1.882 -1.7735 -1.3067 -0.2961
   17SAPS   O21 2151   1.883   5.919   1.991 -1.0312  0.3474  0.2288
   17SAPS   C21 2152   1.825   5.834   1.905  0.1754  1.0228  0.6299
   17SAPS   O22 2153   1.889   5.751   1.841 -0.1366  0.2155  0.0033
   17SAPS   C22 2154   1.679   5.856   1.894  0.1529 -0.3030  0.2613
   17SAPS   H2R 2155   1.637   5.832   1.994  0.4249  2.8629  1.2515
   17SAPS   H2S 2156   1.663   5.964   1.871  0.9919 -0.3190 -0.4318
   17SAPS    C3 2157   2.065   5.775   2.066 -0.0332  0.7641 -0.0491
   17SAPS    HX 2158   2.173   5.753   2.077  0.5334  1.9524 -2.6020
   17SAPS    HY 2159   2.036   5.686   2.006  1.0767  0.7389 -0.5758
   17SAPS   O31 2160   2.005   5.771   2.197 -0.3231 -0.0106  0.3229
   17SAPS   C31 2161   2.041   5.665   2.270 -0.4368 -0.4943 -0.1520
   17SAPS   O32 2162   2.100   5.567   2.226 -0.3617 -0.3905  0.3950
   17SAPS   C32 2163   2.029   5.708   2.417 -0.0100 -0.9230  0.0428
   17SAPS   H2X 2164   1.932   5.762   2.418 -0.3694 -1.5624  0.7539
   17SAPS   H2Y 2165   2.102   5.785   2.448  0.1244 -2.6067  4.6624
   17SAPS   C23 2166   1.597   5.752   1.803 -0.2457  0.0008 -0.8139
   17SAPS   H3R 2167   1.643   5.722   1.707 -2.3700 -1.2211 -1.5348
   17SAPS   H3S 2168   1.513   5.808   1.758  0.6501  0.9259 -1.3632
   17SAPS   C24 2169   1.543   5.628   1.888 -0.3778 -0.8485  0.4279
   17SAPS   H4R 2170   1.474   5.564   1.829  0.1159 -0.4667 -0.5851
   17SAPS   H4S 2171   1.481   5.668   1.971 -0.0949  0.6511 -0.0488
   17SAPS   C25 2172   1.650   5.551   1.944 -0.8613  0.6240 -0.1713
   17SAPS   H5R 2173   1.708   5.490   1.873 -1.3634  0.7099 -0.6614
   17SAPS   C26 2174   1.679   5.542   2.074 -0.0058  0.3767 -0.2533
   17SAPS   H6R 2175   1.768   5.483   2.099  1.0168  0.6372 -2.9870
   17SAPS   C27 2176   1.600   5.597   2.189  0.1319 -0.4090  0.0215
   17SAPS   H7R 2177   1.536   5.520   2.238 -1.2655  0.7908  0.1399
   17SAPS   H7S 2178   1.531   5.673   2.148  0.8162 -0.9420 -2.2883
   17SAPS   C28 2179   1.685   5.653   2.298 -0.5817 -0.3686 -0.3650
   17SAPS   H8R 2180   1.784   5.688   2.267 -0.8001 -0.0353 -0.6908
   17SAPS   C29 2181   1.653   5.646   2.428 -0.3369 -0.2810 -0.3908
   17SAPS   H9R 2182   1.720   5.669   2.512  0.9192 -1.3499 -1.0694
   17SAPS  C210 2183   1.520   5.593   2.488 -0.0224  0.2213  0.3558
   17SAPS  H10R 2184   1.533   5.484   2.506  1.1675  0.1566 -0.7711
   17SAPS  H10S 2185   1.444   5.588   2.408  0.8426  1.7644 -0.6060
   17SAPS  C211 2186   1.480   5.677   2.608 -0.1642 -0.7435  0.4618
   17SAPS  H11R 2187   1.439   5.779   2.598  0.2620 -0.2524  3.0319
   17SAPS  C212 2188   1.508   5.641   2.735  0.2542 -0.1671 -0.1101
   17SAPS  H12R 2189   1.493   5.715   2.815 -1.5848 -0.4643 -0.1399
   17SAPS  C213 2190   1.574   5.514   2.786 -0.8440 -0.1350  0.4292
   17SAPS  H13R 2191   1.611   5.441   2.711  0.8453  1.9762 -0.9004
   17SAPS  H13S 2192   1.495   5.461   2.845 -0.5661  0.7238  1.6121
   17SAPS  C214 2193   1.688   5.548   2.879 -0.0598 -0.0413  0.5659
   17SAPS  H14R 2194   1.769   5.603   2.830 -1.6404  1.3199 -0.6727
   17SAPS  C215 2195   1.698   5.520   3.011  0.3023  0.5035  0.4750
   17SAPS  H15R 2196   1.798   5.533   3.055  1.9358  1.4241 -3.1101
   17SAPS  C216 2197   1.592   5.451   3.098  0.1127  0.0873 -0.5931
   17SAPS  H16R 2198   1.591   5.343   3.072 -1.5044  0.2251 -1.2707
   17SAPS  H16S 2199   1.494   5.502   3.080  1.0280  1.7643 -0.9936
   17SAPS  C217 2200   1.615   5.475   3.251 -0.3689  0.1493  0.2794
   17SAPS  H17R 2201   1.629   5.584   3.268 -2.5583  0.4097  0.6798
   17SAPS  H17S 2202   1.714   5.430   3.274 -0.0742  0.5772 -0.1407
   17SAPS  C218 2203   1.506   5.420   3.344  0.4077  0.9433  0.2912
   17SAPS  H18R 2204   1.473   5.325   3.299  3.9784  0.2325 -1.1426
   17SAPS  H18S 2205   1.417   5.487   3.350  0.9368  1.7776 -0.6771
   17SAPS  C219 2206   1.547   5.394   3.491 -0.0781  0.6243 -0.3821
   17SAPS  H19R 2207   1.623   5.314   3.478  1.3573  1.9214 -0.2132
   17SAPS  H19S 2208   1.472   5.350   3.560  0.8894 -2.2459 -1.0360
   17SAPS  C220 2209   1.615   5.513   3.570 -0.2753  0.2386 -0.6688
   17SAPS  H20R 2210   1.692   5.546   3.498 -0.1665 -2.4418 -1.9059
   17SAPS  H20S 2211   1.663   5.481   3.665  0.7850 -1.5471 -1.7484
   17SAPS  H20T 2212   1.541   5.590   3.601  0.4420  0.5260  0.3919
   17SAPS   C33 2213   2.046   5.603   2.526  0.4847  0.3625  0.2492
   17SAPS   H3X 2214   2.155   5.583   2.523  1.0879  3.2243  0.2874
   17SAPS   H3Y 2215   1.983   5.518   2.491  0.4757  0.6235 -0.3724
   17SAPS   C34 2216   2.018   5.643   2.675 -0.0789  0.6787  0.2297
   17SAPS   H4X 2217   1.909   5.653   2.691 -0.3857 -1.5590 -0.1170
   17SAPS   H4Y 2218   2.067   5.737   2.706 -1.2559  1.5562 -0.4894
   17SAPS   C35 2219   2.065   5.529   2.769 -0.4679 -0.3411 -0.6347
   17SAPS   H5X 2220   2.165   5.493   2.739  0.5753  2.1855 -0.4162
   17SAPS   H5Y 2221   1.993   5.445   2.768 -1.1551  0.0950  2.4079
   17SAPS   C36 2222   2.081   5.592   2.909 -0.3707  0.1425  0.1532
   17SAPS   H6X 2223   1.989   5.653   2.921 -0.6499 -0.2662  0.1292
   17SAPS   H6Y 2224   2.164   5.664   2.902 -0.5620  0.2372 -1.3290
   17SAPS   C37 2225   2.103   5.491   3.029  0.7963 -0.5686  0.1574
   17SAPS   H7X 2226   2.198   5.435   3.024  0.3658 -1.3187  0.3061
   17SAPS   H7Y 2227   2.022   5.415   3.034  0.6957 -0.4254  0.8483
   17SAPS   C38 2228   2.099   5.572   3.155 -0.1430  1.2350 -0.4320
   17SAPS   H8X 2229   2.004   5.629   3.159 -1.3883 -0.7265 -0.2488
   17SAPS   H8Y 2230   2.181   5.646   3.147  1.5360 -0.6946 -2.1567
   17SAPS   C39 2231   2.105   5.491   3.289  0.2883 -0.1347  0.0297
   17SAPS   H9X 2232   2.014   5.427   3.295 -0.9825  1.6267  0.3843
   17SAPS   H9Y 2233   2.089   5.573   3.362 -0.8106 -1.3070  1.1619
   17SAPS  C310 2234   2.242   5.434   3.316  0.7574  0.3576 -0.2989
   17SAPS  H10X 2235   2.319   5.514   3.320 -0.7198  1.7613  1.5193
   17SAPS  H10Y 2236   2.270   5.366   3.233 -1.9433 -0.3639 -0.7099
   17SAPS  C311 2237   2.265   5.341   3.441  0.4584 -0.2116 -0.6198
   17SAPS  H11X 2238   2.351   5.277   3.413 -0.3143 -1.7780  0.3957
   17SAPS  H11Y 2239   2.183   5.269   3.463 -1.0194  0.8572 -2.3764
   17SAPS  C312 2240   2.295   5.417   3.565  0.5442  0.0353 -0.0528
   17SAPS  H12X 2241   2.212   5.489   3.579 -0.2172 -0.7512 -0.4616
   17SAPS  H12Y 2242   2.389   5.472   3.543  0.1223  0.8750  0.2049
   17SAPS  C313 2243   2.299   5.332   3.695  0.5290 -0.2465 -0.7219
   17SAPS  H13X 2244   2.352   5.237   3.672  2.5984  0.6917 -0.0725
   17SAPS  H13Y 2245   2.196   5.327   3.736 -0.5050  4.2207 -2.2699
   17SAPS  C314 2246   2.375   5.410   3.807  0.4921  0.4778  0.1908
   17SAPS  H14X 2247   2.331   5.512   3.807  1.0389  0.7201  0.3789
   17SAPS  H14Y 2248   2.483   5.416   3.782  0.5948  0.3292  0.5925
   17SAPS  C315 2249   2.363   5.350   3.949 -0.7604  0.7399 -0.1670
   17SAPS  H15X 2250   2.259   5.336   3.985 -0.5030  0.2629  0.4178
   17SAPS  H15Y 2251   2.411   5.429   4.009  1.1456 -1.9110  2.0563
   17SAPS  C316 2252   2.451   5.224   3.955 -0.7134  0.2649 -0.4711
   17SAPS  H16X 2253   2.476   5.221   4.064 -2.4016  0.5199 -0.0608
   17SAPS  H16Y 2254   2.543   5.238   3.894 -1.7671 -0.2664 -2.2393
   17SAPS  C317 2255   2.391   5.088   3.925  0.7842  0.4146 -0.9465
   17SAPS  H17X 2256   2.464   5.009   3.895 -1.2845 -1.8335 -0.4286
   17SAPS  H17Y 2257   2.313   5.097   3.847  0.4579  0.7888 -0.5795
   17SAPS  C318 2258   2.327   5.021   4.043 -0.0793  0.3308  0.2988
   17SAPS  H18X 2259   2.257   4.943   4.004  0.7108  0.8022 -2.2611
   17SAPS  H18Y 2260   2.270   5.092   4.106 -3.3018 -1.0723 -0.8325
   17SAPS  H18Z 2261   2.402   4.964   4.102  0.1448 -0.0362 -0.3254
   18SAPS     N 2262   6.485   3.771   1.727 -0.1527  0.2071 -0.1812
   18SAPS   HN1 2263   6.391   3.733   1.750  0.5722 -1.3287  0.3554
   18SAPS   HN2 2264   6.552   3.778   1.807  1.3278  2.4570 -1.4986
   18SAPS   HN3 2265   6.466   3.868   1.695 -0.0026  1.1773  2.4206
   18SAPS   C12 2266   6.571   3.697   1.631  0.2686 -0.0980  0.3307
   18SAPS  H12A 2267   6.524   3.692   1.535  2.4799  0.8666 -0.8836
   18SAPS   C13 2268   6.713   3.769   1.605 -0.5524  0.4350  0.7275
   18SAPS  O13A 2269   6.741   3.875   1.667 -0.5036  0.0191  1.0741
   18SAPS  O13B 2270   6.777   3.737   1.500  0.8418 -0.3242  0.0334
   18SAPS   C11 2271   6.607   3.557   1.686 -0.4164 -0.4930  0.2817
   18SAPS  H11A 2272   6.672   3.554   1.776  0.8713  0.6382 -0.5731
   18SAPS  H11B 2273   6.657   3.494   1.609 -1.9270 -3.2265  1.3854
   18SAPS     P 2274   6.467   3.355   1.764  0.0476  0.0944 -0.4426
   18SAPS   O13 2275   6.331   3.308   1.752  0.4662  0.6504 -0.3612
   18SAPS   O14 2276   6.570   3.271   1.701 -0.3858  0.1263  0.0042
   18SAPS   O12 2277   6.480   3.494   1.707 -0.0282 -0.3888 -0.2085
   18SAPS   O11 2278   6.487   3.373   1.919 -0.5914 -0.1283  0.0838
   18SAPS    C1 2279   6.388   3.447   1.990  0.8370  0.8416  0.5652
   18SAPS    HA 2280   6.403   3.557   1.984 -1.5462  1.5301  4.2249
   18SAPS    HB 2281   6.290   3.413   1.951  0.5207  0.3891  1.7081
   18SAPS    C2 2282   6.393   3.434   2.144 -0.8987  0.4626 -0.6963
   18SAPS    HS 2283   6.308   3.495   2.180 -1.2940  0.2319 -1.2259
   18SAPS   O21 2284   6.526   3.459   2.198  0.5044  0.2522 -0.3728
   18SAPS   C21 2285   6.543   3.590   2.224  0.3436 -0.1871  0.2631
   18SAPS   O22 2286   6.457   3.677   2.208  0.0707  0.2752  0.1497
   18SAPS   C22 2287   6.685   3.624   2.249  0.1737  0.3514  0.1406
   18SAPS   H2R 2288   6.758   3.553   2.205  2.1246  1.5858  1.2517
   18SAPS   H2S 2289   6.713   3.722   2.204 -0.0971 -0.1311 -1.1168
   18SAPS    C3 2290   6.359   3.289   2.177 -0.6235  0.4925 -0.8614
   18SAPS    HX 2291   6.444   3.228   2.141 -0.9771 -0.5434 -0.0090
   18SAPS    HY 2292   6.270   3.264   2.115 -2.3369 -2.2636  2.3566
   18SAPS   O31 2293   6.328   3.270   2.320  0.7245 -0.6855  0.5092
   18SAPS   C31 2294   6.390   3.167   2.380 -0.4706  0.1275 -0.4725
   18SAPS   O32 2295   6.458   3.082   2.326 -0.1836 -0.2846 -0.0125
   18SAPS   C32 2296   6.344   3.166   2.524 -0.2395 -0.6635  0.6136
   18SAPS   H2X 2297   6.234   3.149   2.526 -0.3408 -0.0237  1.1030
   18SAPS   H2Y 2298   6.358   3.264   2.575 -2.1352  0.2186 -0.4320
   18SAPS   C23 2299   6.711   3.649   2.405  0.4097 -0.2505  0.0924
   18SAPS   H3R 2300   6.652   3.737   2.439 -1.6522 -1.2645 -0.6489
   18SAPS   H3S 2301   6.818   3.674   2.418  0.3606  0.6759 -1.1664
   18SAPS   C24 2302   6.685   3.526   2.497 -0.1301  0.8531 -0.5124
   18SAPS   H4R 2303   6.582   3.484   2.491 -0.0440  0.8289 -2.5064
   18SAPS   H4S 2304   6.686   3.559   2.603  1.5408 -1.6165  0.3186
   18SAPS   C25 2305   6.784   3.420   2.474 -0.1331  0.7128 -0.0272
   18SAPS   H5R 2306   6.799   3.394   2.368 -1.1762  2.0630 -0.5375
   18SAPS   C26 2307   6.841   3.333   2.552 -0.4277 -0.0497 -0.3669
   18SAPS   H6R 2308   6.925   3.278   2.506 -2.2699 -1.6814 -1.9671
   18SAPS   C27 2309   6.814   3.309   2.701  0.2700  0.4560 -0.2698
   18SAPS   H7R 2310   6.725   3.246   2.723  1.1279 -0.7163 -0.0270
   18SAPS   H7S 2311   6.800   3.405   2.754 -0.4974 -0.9823  2.3264
   18SAPS   C28 2312   6.915   3.219   2.764  0.2061 -0.0609 -0.8201
   18SAPS   H8R 2313   6.911   3.112   2.741  0.7998 -0.6425  1.5113
   18SAPS   C29 2314   6.997   3.253   2.868  0.1262 -0.5375 -0.7176
   18SAPS   H9R 2315   7.081   3.188   2.898  0.4088  0.1223 -0.0371
   18SAPS  C210 2316   7.007   3.387   2.938  0.5696  0.4249 -0.3089
   18SAPS  H10R 2317   6.914   3.449   2.932  1.5368  1.8130 -2.2505
   18SAPS  H10S 2318   7.081   3.445   2.878  1.3494  0.2748  0.5006
   18SAPS  C211 2319   7.056   3.388   3.082 -0.4695 -0.1047  0.2825
   18SAPS  H11R 2320   6.973   3.374   3.151  0.5957 -1.2625  1.3805
   18SAPS  C212 2321   7.182   3.383   3.131 -0.3415 -0.1334 -0.4117
   18SAPS  H12R 2322   7.199   3.376   3.239 -1.0076 -1.3524 -0.3643
   18SAPS  C213 2323   7.304   3.385   3.036 -0.4788  0.9053  0.3607
   18SAPS  H13R 2324   7.376   3.453   3.087 -0.8846 -0.2089  2.5632
   18SAPS  H13S 2325   7.289   3.424   2.933 -0.2929 -2.3104 -0.9771
   18SAPS  C214 2326   7.370   3.247   3.021 -0.0978  0.1812 -0.1132
   18SAPS  H14R 2327   7.314   3.171   2.965  1.7442 -1.4519  0.1348
   18SAPS  C215 2328   7.470   3.204   3.099 -0.6895  0.2729 -0.2118
   18SAPS  H15R 2329   7.513   3.106   3.073  0.0265  0.6121 -0.3067
   18SAPS  C216 2330   7.546   3.271   3.215  0.2073 -0.4476 -1.0058
   18SAPS  H16R 2331   7.517   3.377   3.235  1.7843  0.2451 -2.1534
   18SAPS  H16S 2332   7.650   3.271   3.176  0.3004 -1.2479 -0.7740
   18SAPS  C217 2333   7.549   3.195   3.352 -0.0276 -0.4708 -0.0562
   18SAPS  H17R 2334   7.631   3.238   3.413  0.0048  1.0943 -1.1446
   18SAPS  H17S 2335   7.582   3.092   3.328 -0.5037 -0.0621 -2.8404
   18SAPS  C218 2336   7.416   3.179   3.425  0.2532 -0.1814  0.1703
   18SAPS  H18R 2337   7.343   3.130   3.357  1.6207  1.8414 -2.9975
   18SAPS  H18S 2338   7.379   3.274   3.468  1.5562  0.1531  0.6039
   18SAPS  C219 2339   7.427   3.074   3.542 -0.1534 -0.3055  0.2991
   18SAPS  H19R 2340   7.510   3.098   3.612 -1.3079 -2.8817  2.7403
   18SAPS  H19S 2341   7.440   2.976   3.491  0.0033 -1.6157  2.7020
   18SAPS  C220 2342   7.303   3.075   3.643 -0.0183  0.0378 -0.1872
   18SAPS  H20R 2343   7.300   3.165   3.707 -3.8344 -1.7477  2.5496
   18SAPS  H20S 2344   7.307   2.985   3.708 -0.4822  0.9315  1.1068
   18SAPS  H20T 2345   7.212   3.072   3.579  1.0996 -1.4692 -1.8413
   18SAPS   C33 2346   6.424   3.072   2.621  0.1899  0.5811 -0.7312
   18SAPS   H3X 2347   6.530   3.104   2.630  0.6118 -1.1753  1.1888
   18SAPS   H3Y 2348   6.408   2.972   2.574 -1.1572  0.9663 -1.1333
   18SAPS   C34 2349   6.359   3.066   2.759 -0.0943  0.2935  0.1102
   18SAPS   H4X 2350   6.260   3.015   2.754 -1.8968  3.3754  1.4727
   18SAPS   H4Y 2351   6.341   3.169   2.796  3.3782  1.1938 -0.4078
   18SAPS   C35 2352   6.449   2.990   2.859  0.0835  0.4330 -0.6301
   18SAPS   H5X 2353   6.524   3.070   2.876  0.6351 -0.1857 -0.1402
   18SAPS   H5Y 2354   6.500   2.901   2.817 -0.9461 -0.8364  0.7178
   18SAPS   C36 2355   6.374   2.965   2.988 -0.3347  0.3997 -0.0433
   18SAPS   H6X 2356   6.286   2.904   2.958 -0.3417  0.2598  0.2533
   18SAPS   H6Y 2357   6.344   3.064   3.029  2.8480  1.8657 -0.9113
   18SAPS   C37 2358   6.460   2.915   3.108  0.5652  0.2476  0.3440
   18SAPS   H7X 2359   6.532   2.995   3.133  0.2097  0.2407  1.4499
   18SAPS   H7Y 2360   6.519   2.826   3.076  0.1087 -0.5148  1.5516
   18SAPS   C38 2361   6.376   2.894   3.227  0.5024 -0.4273 -0.2215
   18SAPS   H8X 2362   6.444   2.843   3.298  0.7871 -1.3305 -1.1120
   18SAPS   H8Y 2363   6.292   2.822   3.215 -0.9924  1.0791  0.8884
   18SAPS   C39 2364   6.324   3.028   3.291  0.4493  0.7620 -0.3045
   18SAPS   H9X 2365   6.241   3.066   3.227  0.4663  1.0938 -0.1312
   18SAPS   H9Y 2366   6.405   3.104   3.294  0.6682  0.7199 -2.8489
   18SAPS  C310 2367   6.286   3.015   3.439  0.1846  0.3372  0.2097
   18SAPS  H10X 2368   6.381   2.997   3.494 -0.0692 -2.4544 -0.0850
   18SAPS  H10Y 2369   6.219   2.929   3.462  1.1975 -0.7265 -0.7027
   18SAPS  C311 2370   6.225   3.145   3.501  0.4054 -0.2008 -0.4339
   18SAPS  H11X 2371   6.114   3.135   3.500  0.5086 -1.9995  0.8404
   18SAPS  H11Y 2372   6.252   3.234   3.440  3.1135 -1.2977 -0.9786
   18SAPS  C312 2373   6.272   3.172   3.647 -0.3264 -0.3573 -0.0564
   18SAPS  H12X 2374   6.228   3.267   3.683 -0.4224  0.8203 -2.9984
   18SAPS  H12Y 2375   6.382   3.182   3.656 -0.0407 -3.2324  0.8843
   18SAPS  C313 2376   6.229   3.051   3.735  0.0952 -0.2832 -0.2076
   18SAPS  H13X 2377   6.285   2.957   3.713  0.1276  0.0193 -1.4810
   18SAPS  H13Y 2378   6.121   3.033   3.722  0.4907 -2.3796 -0.9476
   18SAPS  C314 2379   6.237   3.080   3.893 -0.1714  0.5556 -0.6180
   18SAPS  H14X 2380   6.295   3.173   3.910 -1.3844  0.9270  2.0513
   18SAPS  H14Y 2381   6.298   2.999   3.938 -0.6124  0.9469  0.7381
   18SAPS  C315 2382   6.105   3.097   3.967  0.5526 -0.3438 -0.6927
   18SAPS  H15X 2383   6.075   2.994   3.996  0.4859 -0.1579 -0.0708
   18SAPS  H15Y 2384   6.027   3.145   3.905 -0.6877  0.4225  1.3536
   18SAPS  C316 2385   6.121   3.177   4.095 -0.7106 -0.4634  0.3046
   18SAPS  H16X 2386   6.230   3.162   4.111 -0.2329 -2.3991 -3.5354
   18SAPS  H16Y 2387   6.071   3.137   4.186  0.2167 -1.8019  0.2654
   18SAPS  C317 2388   6.100   3.324   4.085  0.4403 -0.7674  0.3835
   18SAPS  H17X 2389   5.998   3.343   4.045  1.2606  2.6550 -0.4573
   18SAPS  H17Y 2390   6.172   3.365   4.011  0.5298 -1.6841 -0.0510
   18SAPS  C318 2391   6.120   3.385   4.222 -0.7837  0.5621 -0.4094
   18SAPS  H18X 2392   6.220   3.369   4.267 -1.2539  0.0858  0.4859
   18SAPS  H18Y 2393   6.046   3.341   4.292  0.0902 -2.8535 -1.4491
   18SAPS  H18Z 2394   6.108   3.495   4.219  0.8542  0.7645 -0.3633
   19SAPS     N 2395   2.422   0.864   1.617  0.0558  0.0434 -0.0458
   19SAPS   HN1 2396   2.444   0.885   1.518 -0.9937  1.8833  0.0631
   19SAPS   HN2 2397   2.343   0.924   1.650 -1.3742 -1.7227 -0.0875
   19SAPS   HN3 2398   2.505   0.884   1.677 -0.3945 -1.6656  1.2299
   19SAPS   C12 2399   2.374   0.731   1.652 -0.7116  0.0390 -0.7327
   19SAPS  H12A 2400   2.332   0.731   1.751  1.4959  0.3372  0.2681
   19SAPS   C13 2401   2.267   0.674   1.561 -0.2519 -0.7662  0.5391
   19SAPS  O13A 2402   2.216   0.749   1.474  0.2357 -0.4851 -0.4384
   19SAPS  O13B 2403   2.238   0.551   1.559  0.6699  0.7081 -0.2535
   19SAPS   C11 2404   2.495   0.641   1.663 -0.1348  1.2291 -0.0930
   19SAPS  H11A 2405   2.548   0.624   1.567  0.7732 -3.1452  0.9784
   19SAPS  H11B 2406   2.450   0.541   1.677 -0.7003  1.6541  1.3607
   19SAPS     P 2407   2.735   0.714   1.757 -0.0971  0.4305  0.3797
   19SAPS   O13 2408   2.815   0.620   1.676 -0.1074 -0.4227  0.1381
   19SAPS   O14 2409   2.729   0.853   1.710  0.0991 -0.4738 -0.1771
   19SAPS   O12 2410   2.582   0.666   1.770 -0.5226 -0.4317  0.0216
   19SAPS   O11 2411   2.782   0.709   1.906 -0.6122 -0.2441 -0.0908
   19SAPS    C1 2412   2.813   0.587   1.970  0.1556  0.2331  0.4158
   19SAPS    HA 2413   2.793   0.594   2.079  0.4528 -2.2983  0.6893
   19SAPS    HB 2414   2.746   0.503   1.939  0.2216  0.3792 -0.1337
   19SAPS    C2 2415   2.964   0.554   1.947 -0.2462  0.1615  0.0061
   19SAPS    HS 2416   2.973   0.540   1.837  0.2960  1.0629 -0.0807
   19SAPS   O21 2417   2.995   0.438   2.020  0.0496  0.0950 -0.2114
   19SAPS   C21 2418   2.975   0.315   1.959 -0.5768 -0.5338 -0.5350
   19SAPS   O22 2419   2.935   0.299   1.842  1.0165  0.4300  0.0811
   19SAPS   C22 2420   2.996   0.219   2.070  0.3013  0.1584 -0.0701
   19SAPS   H2R 2421   2.979   0.119   2.024  0.8224 -0.0903  0.2780
   19SAPS   H2S 2422   3.103   0.218   2.097  1.5874  0.8359 -4.3641
   19SAPS    C3 2423   3.059   0.674   1.991  0.2781  0.0807  0.1251
   19SAPS    HX 2424   3.035   0.752   1.916 -2.1943 -1.8646 -1.2514
   19SAPS    HY 2425   3.166   0.646   1.979  0.1235 -0.7253  0.5936
   19SAPS   O31 2426   3.033   0.710   2.130 -0.1599 -1.0406  0.3539
   19SAPS   C31 2427   3.066   0.837   2.161 -0.0051 -0.4305 -0.8402
   19SAPS   O32 2428   3.116   0.920   2.091  0.1395  0.1355 -1.1416
   19SAPS   C32 2429   3.011   0.859   2.308 -0.2082 -0.1093  0.5315
   19SAPS   H2X 2430   3.035   0.766   2.363  0.0361  0.3803  1.2692
   19SAPS   H2Y 2431   2.900   0.874   2.313  0.0463  2.1606  0.5916
   19SAPS   C23 2432   2.891   0.239   2.187  0.0035  0.4489 -0.6294
   19SAPS   H3R 2433   2.814   0.160   2.184  2.3843 -2.1828  1.4254
   19SAPS   H3S 2434   2.843   0.339   2.183 -0.1403  0.3553 -1.3592
   19SAPS   C24 2435   2.959   0.235   2.324 -0.1080  0.4104  0.2302
   19SAPS   H4R 2436   3.053   0.294   2.323 -0.3833  0.8672  1.0621
   19SAPS   H4S 2437   3.007   0.135   2.326 -0.1753  0.3879  1.2045
   19SAPS   C25 2438   2.892   0.249   2.463  0.6672 -0.7529 -0.9052
   19SAPS   H5R 2439   2.829   0.165   2.495 -0.7546 -0.0015 -1.6003
   19SAPS   C26 2440   2.904   0.342   2.557  0.3352  0.4637  0.0055
   19SAPS   H6R 2441   2.844   0.343   2.649  0.5790 -0.9326  0.2097
   19SAPS   C27 2442   2.994   0.465   2.552 -0.0568  0.4434  0.5210
   19SAPS   H7R 2443   3.065   0.464   2.466 -0.9515  0.8599 -0.2477
   19SAPS   H7S 2444   3.059   0.466   2.641 -0.8023  0.6227  1.0759
   19SAPS   C28 2445   2.895   0.585   2.550 -0.0685 -0.0692 -0.0764
   19SAPS   H8R 2446   2.839   0.583   2.455 -0.4797 -0.6247  0.1756
   19SAPS   C29 2447   2.873   0.688   2.645  0.0182 -0.6021  0.1090
   19SAPS   H9R 2448   2.802   0.768   2.619  0.3781  0.2347  1.5870
   19SAPS  C210 2449   2.968   0.712   2.763  0.3445  0.1526  0.2119
   19SAPS  H10R 2450   3.058   0.757   2.718  0.9550 -1.9031 -0.7727
   19SAPS  H10S 2451   2.996   0.618   2.815 -0.6865 -0.4144 -0.2206
   19SAPS  C211 2452   2.904   0.811   2.862  0.2261  0.1612  0.5684
   19SAPS  H11R 2453   2.893   0.917   2.835  1.3381  0.1050 -0.1405
   19SAPS  C212 2454   2.865   0.785   2.991 -0.2771 -0.2835  0.8618
   19SAPS  H12R 2455   2.829   0.870   3.051 -0.9936 -0.4426  0.6636
   19SAPS  C213 2456   2.879   0.656   3.069  0.0438 -0.7988 -1.1303
   19SAPS  H13R 2457   2.972   0.596   3.057  1.3383  0.3579  2.0972
   19SAPS  H13S 2458   2.788   0.598   3.040 -0.0554  0.1822 -2.9085
   19SAPS  C214 2459   2.888   0.683   3.214  0.7354  0.8302  0.2805
   19SAPS  H14R 2460   2.985   0.704   3.263  0.2905 -0.6979  1.9624
   19SAPS  C215 2461   2.788   0.660   3.302 -0.0917 -0.1231 -0.4921
   19SAPS  H15R 2462   2.816   0.686   3.406  0.1749  1.4678 -0.9322
   19SAPS  C216 2463   2.654   0.597   3.275  0.2409  0.3651  0.2660
   19SAPS  H16R 2464   2.647   0.511   3.345  0.0887  0.9229  0.9522
   19SAPS  H16S 2465   2.639   0.568   3.169  0.3835  1.6640 -0.1364
   19SAPS  C217 2466   2.538   0.690   3.330 -0.4858 -0.1358  0.3695
   19SAPS  H17R 2467   2.441   0.654   3.291 -0.5485 -0.1515  0.5393
   19SAPS  H17S 2468   2.548   0.788   3.278  1.2997 -1.0600 -1.1471
   19SAPS  C218 2469   2.514   0.694   3.485  0.5166 -0.4182  0.3321
   19SAPS  H18R 2470   2.608   0.671   3.540  1.1776  1.3631  0.0355
   19SAPS  H18S 2471   2.435   0.620   3.510  0.1526 -0.5970 -1.2676
   19SAPS  C219 2472   2.457   0.829   3.529  0.2151  0.4177 -0.1163
   19SAPS  H19R 2473   2.367   0.837   3.464  0.9828 -1.0036 -1.4287
   19SAPS  H19S 2474   2.509   0.923   3.501  1.0884 -0.8278 -3.0446
   19SAPS  C220 2475   2.412   0.827   3.675  0.2980  0.2412 -0.0150
   19SAPS  H20R 2476   2.504   0.844   3.735 -0.6142  0.2112  1.4460
   19SAPS  H20S 2477   2.367   0.727   3.695 -2.0589  1.3183  0.3905
   19SAPS  H20T 2478   2.338   0.905   3.703  0.4271  1.3054 -2.3885
   19SAPS   C33 2479   3.054   0.986   2.373  0.1402 -0.0352  0.4592
   19SAPS   H3X 2480   2.984   1.012   2.455 -0.9328  1.1846 -0.7894
   19SAPS   H3Y 2481   3.044   1.068   2.299 -1.8405 -0.6225  0.0082
   19SAPS   C34 2482   3.201   0.980   2.435  0.4862 -0.3833  0.3683
   19SAPS   H4X 2483   3.227   1.085   2.458 -2.2555  0.3080  0.7594
   19SAPS   H4Y 2484   3.270   0.945   2.356  0.3200  2.0191 -0.9355
   19SAPS   C35 2485   3.213   0.902   2.569  0.7011 -0.1900  0.4491
   19SAPS   H5X 2486   3.172   0.801   2.549 -1.0631 -0.4603  4.5613
   19SAPS   H5Y 2487   3.150   0.947   2.648 -0.8509 -0.1061 -0.8002
   19SAPS   C36 2488   3.355   0.879   2.617  0.0292  0.4810  0.2920
   19SAPS   H6X 2489   3.419   0.969   2.630 -0.4935  1.1730 -1.6734
   19SAPS   H6Y 2490   3.396   0.824   2.529 -2.5464 -1.9884  0.5016
   19SAPS   C37 2491   3.368   0.791   2.738  0.0916  0.0644 -0.4229
   19SAPS   H7X 2492   3.475   0.771   2.759  0.0612  1.4500  1.2724
   19SAPS   H7Y 2493   3.327   0.689   2.723  0.0732 -0.0711  0.4509
   19SAPS   C38 2494   3.311   0.851   2.867  0.1037  0.4018 -0.0248
   19SAPS   H8X 2495   3.200   0.852   2.865  0.0865  1.0831 -2.8747
   19SAPS   H8Y 2496   3.346   0.956   2.876  1.4580  0.0809 -1.1223
   19SAPS   C39 2497   3.360   0.777   2.989 -0.0200  0.0134  0.1804
   19SAPS   H9X 2498   3.461   0.811   3.020 -0.9936  2.2992  1.1460
   19SAPS   H9Y 2499   3.366   0.672   2.954 -0.7756 -0.0338  0.1581
   19SAPS  C310 2500   3.268   0.786   3.109 -0.4711  0.0718  0.6620
   19SAPS  H10X 2501   3.188   0.711   3.090 -1.9567  1.7509  0.0190
   19SAPS  H10Y 2502   3.219   0.885   3.106 -1.1853 -0.2164  1.9271
   19SAPS  C311 2503   3.349   0.782   3.238 -0.2575 -0.2995  0.1049
   19SAPS  H11X 2504   3.429   0.859   3.238 -0.7709  0.2586 -1.3945
   19SAPS  H11Y 2505   3.391   0.679   3.243 -2.7024 -1.7455 -3.9534
   19SAPS  C312 2506   3.257   0.818   3.358 -0.7293 -0.0599 -0.0451
   19SAPS  H12X 2507   3.165   0.761   3.331 -1.1369  0.3549  0.4265
   19SAPS  H12Y 2508   3.243   0.928   3.356 -0.4916 -0.0336 -1.4879
   19SAPS  C313 2509   3.303   0.782   3.498 -0.1533 -0.1695  0.4859
   19SAPS  H13X 2510   3.283   0.676   3.524  0.9915 -0.5388 -0.0726
   19SAPS  H13Y 2511   3.241   0.851   3.558 -0.1760  1.7236 -1.5885
   19SAPS  C314 2512   3.451   0.810   3.529 -0.2943  0.8043 -0.2088
   19SAPS  H14X 2513   3.489   0.908   3.494  0.5545  0.1567 -1.1430
   19SAPS  H14Y 2514   3.511   0.730   3.479 -0.4899  0.2499  0.4342
   19SAPS  C315 2515   3.465   0.808   3.689  0.2090  0.0678 -0.0083
   19SAPS  H15X 2516   3.428   0.709   3.722 -1.1952  0.4284 -0.4403
   19SAPS  H15Y 2517   3.402   0.890   3.727  0.2635 -0.0046  0.2403
   19SAPS  C316 2518   3.611   0.825   3.722 -0.3187  0.3204 -0.6715
   19SAPS  H16X 2519   3.653   0.906   3.658 -2.0907  1.4202 -0.5352
   19SAPS  H16Y 2520   3.663   0.729   3.706 -0.3925  0.1641  0.0046
   19SAPS  C317 2521   3.640   0.872   3.868  0.0763  0.6083  0.0640
   19SAPS  H17X 2522   3.584   0.967   3.875 -0.0503  0.6952 -1.8215
   19SAPS  H17Y 2523   3.746   0.902   3.882  0.4207 -0.5599  0.0917
   19SAPS  C318 2524   3.606   0.767   3.983 -0.0313  0.6632 -0.8213
   19SAPS  H18X 2525   3.627   0.663   3.951  1.1563 -0.5420  3.2278
   19SAPS  H18Y 2526   3.496   0.777   3.997 -0.1295 -0.5238 -0.6676
   19SAPS  H18Z 2527   3.661   0.790   4.077  0.9058 -1.2979 -0.8464
   20SAPS     N 2528   4.357   6.970   1.860 -0.3842  0.4569 -0.3087
   20SAPS   HN1 2529   4.365   7.048   1.928 -0.4207 -0.0563  0.2987
   20SAPS   HN2 2530   4.294   6.902   1.906 -0.3024  1.5652  1.5324
   20SAPS   HN3 2531   4.448   6.922   1.844 -1.1027 -1.0026 -0.1569
   20SAPS   C12 2532   4.290   7.012   1.739 -0.0945  0.0038  0.2716
   20SAPS  H12A 2533   4.358   7.021   1.656 -0.4939  2.0201  0.1111
   20SAPS   C13 2534   4.194   6.910   1.678 -0.0283  0.1576 -0.0438
   20SAPS  O13A 2535   4.160   6.811   1.742 -0.1448 -0.1017 -0.4341
   20SAPS  O13B 2536   4.151   6.944   1.564 -0.3115  0.0086 -0.2084
   20SAPS   C11 2537   4.209   7.143   1.769  0.5956  0.5384 -0.4699
   20SAPS  H11A 2538   4.124   7.115   1.836 -0.4802 -1.3865 -2.5023
   20SAPS  H11B 2539   4.163   7.183   1.677 -1.4494  2.7731  1.3928
   20SAPS     P 2540   4.372   7.356   1.755 -0.5080 -0.3089 -0.0109
   20SAPS   O13 2541   4.518   7.328   1.754  0.4883  0.2876 -0.2718
   20SAPS   O14 2542   4.316   7.370   1.622 -0.3162  0.6423  0.2662
   20SAPS   O12 2543   4.290   7.242   1.827 -0.8639 -0.0885 -0.2715
   20SAPS   O11 2544   4.338   7.486   1.845  0.2604 -0.1264  1.0506
   20SAPS    C1 2545   4.315   7.466   1.985  0.0793  0.0766  0.0055
   20SAPS    HA 2546   4.378   7.380   2.015  0.4685  0.0672 -0.8129
   20SAPS    HB 2547   4.351   7.554   2.043  1.0004  1.8973 -3.0729
   20SAPS    C2 2548   4.172   7.438   2.021 -0.0801 -0.3507 -0.0487
   20SAPS    HS 2549   4.113   7.416   1.929 -1.0996  1.0890  0.2153
   20SAPS   O21 2550   4.126   7.550   2.094 -0.0032 -0.1612 -0.2422
   20SAPS   C21 2551   3.995   7.581   2.093  0.3467  0.3116  0.6928
   20SAPS   O22 2552   3.913   7.516   2.029 -0.3806  0.2839  0.6453
   20SAPS   C22 2553   3.969   7.709   2.178 -0.0078 -0.5797  0.1663
   20SAPS   H2R 2554   4.070   7.731   2.220  0.0385  0.9531 -0.6980
   20SAPS   H2S 2555   3.937   7.790   2.110 -0.7784 -2.1628 -1.4470
   20SAPS    C3 2556   4.164   7.314   2.115 -0.2432 -0.1213 -0.1412
   20SAPS    HX 2557   4.236   7.338   2.196 -0.8991  0.6284  0.2258
   20SAPS    HY 2558   4.209   7.228   2.060  1.0965  1.3316 -1.3960
   20SAPS   O31 2559   4.030   7.291   2.156 -0.1894 -0.0082  0.2615
   20SAPS   C31 2560   3.959   7.186   2.108  0.6319 -0.0794 -0.1687
   20SAPS   O32 2561   4.014   7.091   2.055  0.2454 -0.5298 -0.1887
   20SAPS   C32 2562   3.817   7.201   2.145  0.2246  0.7422  0.3204
   20SAPS   H2X 2563   3.755   7.159   2.064 -0.4349  2.7931 -0.3056
   20SAPS   H2Y 2564   3.795   7.310   2.142  3.1319  1.4131  0.2332
   20SAPS   C23 2565   3.863   7.681   2.289 -0.0257  0.0556 -0.0265
   20SAPS   H3R 2566   3.769   7.651   2.236  1.2995 -1.1699 -1.7935
   20SAPS   H3S 2567   3.837   7.778   2.336 -1.2003  1.1151 -2.6753
   20SAPS   C24 2568   3.906   7.582   2.395  0.4361 -0.5164 -0.1532
   20SAPS   H4R 2569   3.939   7.488   2.347  0.7575 -0.4912  0.0125
   20SAPS   H4S 2570   3.811   7.557   2.447  0.6416 -0.2952  0.3404
   20SAPS   C25 2571   4.009   7.653   2.486  0.5746 -0.2976 -0.2128
   20SAPS   H5R 2572   3.972   7.738   2.545  0.4998 -1.5209  1.5661
   20SAPS   C26 2573   4.133   7.610   2.522 -0.4427 -0.1758 -0.2654
   20SAPS   H6R 2574   4.189   7.662   2.601  0.5474 -0.7583 -0.5583
   20SAPS   C27 2575   4.210   7.492   2.473  0.0823 -0.5408  0.1902
   20SAPS   H7R 2576   4.165   7.452   2.379  1.2729  1.3632 -1.2835
   20SAPS   H7S 2577   4.206   7.414   2.551  0.3903 -1.5565 -0.7725
   20SAPS   C28 2578   4.348   7.530   2.421 -0.5635 -0.1036  0.3824
   20SAPS   H8R 2579   4.359   7.510   2.314 -0.1299 -4.2724  1.0464
   20SAPS   C29 2580   4.457   7.559   2.493 -0.0186  0.2908 -0.1138
   20SAPS   H9R 2581   4.551   7.590   2.445 -0.3332  2.9257  0.8015
   20SAPS  C210 2582   4.454   7.560   2.647 -0.1468  0.7154  0.0098
   20SAPS  H10R 2583   4.356   7.542   2.696  0.2854  2.2410  1.5187
   20SAPS  H10S 2584   4.481   7.655   2.698  0.1526 -0.7279  2.7640
   20SAPS  C211 2585   4.551   7.451   2.693  0.6137  0.0948  0.0065
   20SAPS  H11R 2586   4.554   7.376   2.613 -0.1735  0.7643 -0.6657
   20SAPS  C212 2587   4.648   7.452   2.790 -0.0774 -0.1691 -0.0587
   20SAPS  H12R 2588   4.722   7.371   2.797  0.0343 -0.0214  0.5368
   20SAPS  C213 2589   4.655   7.557   2.899  0.7858 -0.2918 -0.6665
   20SAPS  H13R 2590   4.709   7.504   2.981  0.8817 -2.7608 -2.2038
   20SAPS  H13S 2591   4.551   7.575   2.934  0.0639 -1.4564 -2.0769
   20SAPS  C214 2592   4.734   7.671   2.841 -0.3055 -0.1762 -0.1186
   20SAPS  H14R 2593   4.723   7.701   2.736 -1.5904 -1.1791 -0.3055
   20SAPS  C215 2594   4.822   7.743   2.911  0.1203 -0.1380 -0.7640
   20SAPS  H15R 2595   4.865   7.826   2.853 -2.4425  0.6439 -1.7062
   20SAPS  C216 2596   4.850   7.739   3.061 -0.5222  0.6686  0.0627
   20SAPS  H16R 2597   4.931   7.809   3.091  0.3462 -0.1690 -0.3093
   20SAPS  H16S 2598   4.892   7.641   3.090  1.5346  1.9853  1.9032
   20SAPS  C217 2599   4.728   7.785   3.142  0.1057  0.3837  0.0932
   20SAPS  H17R 2600   4.637   7.726   3.117  0.7054 -1.0571  1.1549
   20SAPS  H17S 2601   4.695   7.888   3.117 -1.4907 -0.4350 -1.3588
   20SAPS  C218 2602   4.751   7.798   3.294  0.0641 -0.6218  0.0198
   20SAPS  H18R 2603   4.658   7.833   3.345 -1.1120  0.3977 -2.6639
   20SAPS  H18S 2604   4.838   7.865   3.311 -0.4293 -0.5776  3.0252
   20SAPS  C219 2605   4.808   7.671   3.357 -0.7352  0.3062 -0.3658
   20SAPS  H19R 2606   4.910   7.662   3.313 -1.2276 -0.7553 -1.3477
   20SAPS  H19S 2607   4.753   7.586   3.310 -3.6350  0.3533  2.6038
   20SAPS  C220 2608   4.809   7.674   3.508 -0.3251  0.3830  0.2830
   20SAPS  H20R 2609   4.878   7.756   3.537  2.0675 -0.9982 -1.1890
   20SAPS  H20S 2610   4.832   7.572   3.547 -0.9487  0.3336  0.5329
   20SAPS  H20T 2611   4.703   7.688   3.539 -1.3519 -3.7243 -0.6878
   20SAPS   C33 2612   3.778   7.126   2.276  0.2484 -0.5687  0.4394
   20SAPS   H3X 2613   3.824   7.025   2.272  0.4916 -0.4230 -1.6263
   20SAPS   H3Y 2614   3.668   7.120   2.284  0.1023  2.6989  3.7492
   20SAPS   C34 2615   3.805   7.218   2.398  0.4307 -0.3531  0.2036
   20SAPS   H4X 2616   3.750   7.315   2.391  0.3397 -0.5087 -1.7991
   20SAPS   H4Y 2617   3.912   7.243   2.411  0.0471  1.4322  0.3082
   20SAPS   C35 2618   3.771   7.142   2.531 -0.2693 -0.0337  0.0496
   20SAPS   H5X 2619   3.811   7.038   2.528 -0.3509 -0.0472 -0.8387
   20SAPS   H5Y 2620   3.661   7.133   2.544 -0.1987 -0.3108  0.4748
   20SAPS   C36 2621   3.825   7.210   2.652  0.7059  0.2058 -0.3687
   20SAPS   H6X 2622   3.775   7.309   2.662 -0.4652 -0.6026  2.6035
   20SAPS   H6Y 2623   3.936   7.216   2.661  0.6429  0.7906  0.0889
   20SAPS   C37 2624   3.805   7.127   2.787  0.1578 -0.8345 -0.6404
   20SAPS   H7X 2625   3.812   7.018   2.767 -0.9620 -0.8601 -0.9967
   20SAPS   H7Y 2626   3.705   7.156   2.825  1.0268 -0.1236  1.1990
   20SAPS   C38 2627   3.903   7.179   2.897  0.4201  0.3592 -0.4079
   20SAPS   H8X 2628   3.914   7.289   2.882  0.4035  0.2049 -1.6480
   20SAPS   H8Y 2629   4.003   7.134   2.878  0.3470  0.0303 -0.0343
   20SAPS   C39 2630   3.838   7.153   3.034 -0.3877  0.6186 -0.4911
   20SAPS   H9X 2631   3.840   7.043   3.051  0.3949  0.4174 -1.7956
   20SAPS   H9Y 2632   3.729   7.175   3.032 -0.3249  1.0028  0.0808
   20SAPS  C310 2633   3.917   7.223   3.151  0.5381  0.2753 -0.2496
   20SAPS  H10X 2634   3.908   7.333   3.136 -0.9676  0.2591  0.4125
   20SAPS  H10Y 2635   4.022   7.192   3.134  0.1230 -0.4402 -1.7422
   20SAPS  C311 2636   3.869   7.182   3.291 -0.9104 -0.2735 -0.0941
   20SAPS  H11X 2637   3.904   7.079   3.318 -3.0352 -0.9518  0.2317
   20SAPS  H11Y 2638   3.759   7.185   3.306 -0.5822  2.0785  2.6656
   20SAPS  C312 2639   3.937   7.285   3.388 -0.0420 -0.6313 -0.3119
   20SAPS  H12X 2640   3.903   7.388   3.365  0.5264  0.5603  3.4082
   20SAPS  H12Y 2641   4.047   7.271   3.379  0.0431 -0.6675  0.6104
   20SAPS  C313 2642   3.919   7.260   3.540  0.3256 -0.3093  0.2990
   20SAPS  H13X 2643   3.987   7.175   3.563  2.6570  1.5377  0.6541
   20SAPS  H13Y 2644   3.812   7.236   3.557 -0.5879  2.2652 -1.0845
   20SAPS  C314 2645   3.964   7.376   3.624 -0.0883 -0.6709 -0.9685
   20SAPS  H14X 2646   3.898   7.463   3.603 -0.1387 -0.6160 -0.5965
   20SAPS  H14Y 2647   4.066   7.406   3.591 -0.3124  0.9248 -0.2935
   20SAPS  C315 2648   3.968   7.354   3.783 -0.2140  0.0300 -0.4183
   20SAPS  H15X 2649   4.036   7.269   3.806  0.5936  1.2233  1.8707
   20SAPS  H15Y 2650   3.864   7.326   3.809 -0.5370 -0.5479 -2.2071
   20SAPS  C316 2651   4.005   7.483   3.862 -0.6906  0.0178  0.2294
   20SAPS  H16X 2652   3.985   7.459   3.968  0.2111  1.4911  0.7678
   20SAPS  H16Y 2653   3.935   7.565   3.834 -1.6379 -0.5500  0.8726
   20SAPS  C317 2654   4.148   7.525   3.829 -0.3675 -0.0004  0.2133
   20SAPS  H17X 2655   4.155   7.629   3.867  2.3315 -0.6814  1.8614
   20SAPS  H17Y 2656   4.179   7.530   3.723 -1.2982 -0.9525 -0.1219
   20SAPS  C318 2657   4.245   7.438   3.908  0.4252  0.0830  0.2571
   20SAPS  H18X 2658   4.351   7.459   3.882  0.6059  0.6967  1.4297
   20SAPS  H18Y 2659   4.222   7.331   3.894  0.3139  0.2200 -0.6817
   20SAPS  H18Z 2660   4.227   7.462   4.015 -3.0409 -0.3321 -0.1386
   21CHL1    C3 2661   2.810   3.820   5.379  0.1941 -0.5033 -0.2599
   21CHL1    H3 2662   2.703   3.794   5.393 -0.2757  2.0080  1.8008
   21CHL1    O3 2663   2.857   3.848   5.510  0.5865 -0.0659 -0.7436
   21CHL1   H3' 2664   2.950   3.868   5.501  0.3309  0.6831 -2.1112
   21CHL1    C4 2665   2.896   3.714   5.327  0.4222  0.1779  0.1758
   21CHL1   H4A 2666   3.003   3.742   5.340  0.5906 -0.3315 -0.0807
   21CHL1   H4B 2667   2.875   3.621   5.384 -1.9489  0.1189 -0.6895
   21CHL1    C5 2668   2.861   3.678   5.187 -0.0681 -0.2355  0.6367
   21CHL1    C6 2669   2.823   3.558   5.148 -0.2951 -0.5359  0.2282
   21CHL1    H6 2670   2.813   3.467   5.209  0.9453 -0.4915  0.5377
   21CHL1    C7 2671   2.802   3.534   5.009 -0.3207 -0.8393  0.3588
   21CHL1   H7A 2672   2.856   3.441   4.981 -1.6768 -1.1693 -1.3647
   21CHL1   H7B 2673   2.691   3.524   5.000 -0.4609  0.6538  0.0547
   21CHL1    C8 2674   2.849   3.640   4.908 -0.1257 -0.1755  0.7928
   21CHL1    H8 2675   2.955   3.614   4.888  0.0669  1.5669 -0.7007
   21CHL1   C14 2676   2.773   3.610   4.772  0.5215  0.6357 -0.7206
   21CHL1   H14 2677   2.672   3.651   4.794  0.8719  0.6800  0.8939
   21CHL1   C15 2678   2.773   3.461   4.733  0.0680  0.0732 -0.8372
   21CHL1  H15A 2679   2.875   3.422   4.756 -0.7138 -1.3639  0.4403
   21CHL1  H15B 2680   2.696   3.404   4.790 -1.4943  0.6440 -2.2973
   21CHL1   C16 2681   2.743   3.478   4.581 -0.2096 -0.9215  0.1412
   21CHL1  H16A 2682   2.810   3.409   4.526 -2.9832 -1.5235 -2.7745
   21CHL1  H16B 2683   2.639   3.441   4.573  0.1366 -1.4432 -4.0047
   21CHL1   C17 2684   2.744   3.634   4.542 -0.4894  0.5167 -0.4606
   21CHL1   H17 2685   2.641   3.670   4.564 -1.3415 -0.4469 -2.5824
   21CHL1   C13 2686   2.835   3.694   4.656 -0.4601  0.1668  0.4204
   21CHL1   C18 2687   2.985   3.663   4.620  0.1480  0.1296 -0.4378
   21CHL1  H18A 2688   3.016   3.731   4.537  3.2139 -1.0739 -0.4122
   21CHL1  H18B 2689   3.052   3.682   4.706 -0.3534  2.0866 -0.4287
   21CHL1  H18C 2690   2.992   3.560   4.579 -1.5187  0.7608 -2.5196
   21CHL1   C12 2691   2.824   3.841   4.702  0.2424 -0.3057  0.7472
   21CHL1  H12A 2692   2.855   3.912   4.623  0.3712 -0.8560  0.2985
   21CHL1  H12B 2693   2.715   3.861   4.706  0.3154  1.6225 -2.7840
   21CHL1   C11 2694   2.893   3.873   4.835 -0.2976  0.0396  0.4676
   21CHL1  H11A 2695   3.002   3.855   4.822 -0.6635 -0.4128 -2.9900
   21CHL1  H11B 2696   2.889   3.977   4.874 -0.9493 -0.5430  2.0635
   21CHL1    C9 2697   2.837   3.783   4.948 -0.2879 -0.4634 -0.4605
   21CHL1    H9 2698   2.727   3.799   4.953 -0.3814 -1.4813  1.7913
   21CHL1   C10 2699   2.873   3.804   5.094 -0.1121  0.9175 -0.2024
   21CHL1   C19 2700   3.022   3.850   5.090  0.1032  0.1058  0.0260
   21CHL1  H19A 2701   3.062   3.854   5.193 -0.5249  0.8119  0.2519
   21CHL1  H19B 2702   3.087   3.788   5.024 -0.6564 -0.7776  0.0847
   21CHL1  H19C 2703   3.023   3.955   5.054 -2.3811  1.1931  2.7607
   21CHL1    C1 2704   2.785   3.921   5.149  0.6296 -0.6234 -0.0192
   21CHL1   H1A 2705   2.813   4.007   5.085  0.6922  0.3007  1.2201
   21CHL1   H1B 2706   2.678   3.893   5.134  0.3847  0.5418 -0.5639
   21CHL1    C2 2707   2.827   3.947   5.301 -0.6832  0.0131 -0.2112
   21CHL1   H2A 2708   2.769   4.028   5.351  1.2173  0.9651  0.5698
   21CHL1   H2B 2709   2.929   3.990   5.291 -0.7627  0.0318 -1.0547
   21CHL1   C20 2710   2.789   3.650   4.398 -1.3025  0.4073 -0.1281
   21CHL1   H20 2711   2.890   3.608   4.382 -1.6052  0.3900 -2.2347
   21CHL1   C21 2712   2.800   3.801   4.362  0.2490 -0.4414  0.3154
   21CHL1  H21A 2713   2.710   3.863   4.382  1.1707  0.9024  0.4460
   21CHL1  H21B 2714   2.843   3.823   4.262 -0.3228  0.7010  0.3078
   21CHL1  H21C 2715   2.880   3.838   4.431 -0.2597  2.3534 -0.4728
   21CHL1   C22 2716   2.698   3.582   4.282  0.1083 -0.6819 -0.0084
   21CHL1  H22A 2717   2.608   3.553   4.340  0.5583 -0.1617  0.9772
   21CHL1  H22B 2718   2.677   3.660   4.206  0.0192  0.6090  1.2997
   21CHL1   C23 2719   2.747   3.462   4.216  0.1167  0.1594  0.2003
   21CHL1  H23A 2720   2.784   3.386   4.288  0.3217  0.2735  0.2156
   21CHL1  H23B 2721   2.660   3.416   4.165  1.2090  0.0618 -1.6836
   21CHL1   C24 2722   2.861   3.482   4.120 -0.1565 -0.3139 -0.2228
   21CHL1  H24A 2723   2.833   3.563   4.049 -1.3008  0.0934  0.6611
   21CHL1  H24B 2724   2.947   3.519   4.180  0.1668 -0.9439 -0.2943
   21CHL1   C25 2725   2.907   3.350   4.054 -0.5176 -0.2999 -0.2546
   21CHL1   H25 2726   2.920   3.270   4.131 -2.0703  1.7140  2.2582
   21CHL1   C26 2727   2.807   3.304   3.953 -0.8018 -0.1617 -0.7397
   21CHL1  H26A 2728   2.705   3.316   3.995  0.3726  0.5241  2.2375
   21CHL1  H26B 2729   2.827   3.357   3.857 -0.2711  1.2598  0.1191
   21CHL1  H26C 2730   2.814   3.194   3.941 -0.6032 -0.1118 -1.0762
   21CHL1   C27 2731   3.056   3.359   3.994  0.8504  0.3520  0.5197
   21CHL1  H27A 2732   3.100   3.262   3.965 -2.0785 -1.1384  0.7262
   21CHL1  H27B 2733   3.054   3.438   3.915  1.1818  0.4731  0.6296
   21CHL1  H27C 2734   3.118   3.395   4.079 -0.8180  3.1432  0.6906
   22CHL1    C3 2735   3.251   3.386   5.411 -0.7386 -0.3608 -0.7819
   22CHL1    H3 2736   3.158   3.330   5.435 -2.9880  2.4070 -2.4807
   22CHL1    O3 2737   3.290   3.446   5.539 -0.1748  0.2648  1.0390
   22CHL1   H3' 2738   3.279   3.379   5.606 -3.1029  0.0386  0.4662
   22CHL1    C4 2739   3.363   3.292   5.355 -0.6322 -0.0276  0.6944
   22CHL1   H4A 2740   3.461   3.344   5.349 -1.1908  1.0457  0.6413
   22CHL1   H4B 2741   3.375   3.202   5.419  1.3214 -1.4604 -1.5112
   22CHL1    C5 2742   3.319   3.242   5.221  0.6752  0.1424 -0.0765
   22CHL1    C6 2743   3.311   3.108   5.195  0.1355  0.4058 -0.3746
   22CHL1    H6 2744   3.344   3.038   5.273  1.5057  3.0070  1.5396
   22CHL1    C7 2745   3.270   3.049   5.066 -0.6803  0.6051  0.1787
   22CHL1   H7A 2746   3.333   2.960   5.043 -0.3529  1.2073 -1.4248
   22CHL1   H7B 2747   3.163   3.022   5.070 -1.7288  4.3525  2.9657
   22CHL1    C8 2748   3.284   3.149   4.947 -0.2475  0.2960 -0.3956
   22CHL1    H8 2749   3.391   3.153   4.917 -0.8886  1.7983 -2.7391
   22CHL1   C14 2750   3.213   3.091   4.823  0.4356  0.0336  0.3855
   22CHL1   H14 2751   3.107   3.094   4.855  0.6302 -0.9901  1.1607
   22CHL1   C15 2752   3.242   2.947   4.787  0.2383  0.1353 -0.4260
   22CHL1  H15A 2753   3.345   2.911   4.808  0.6035  3.3712  5.4382
   22CHL1  H15B 2754   3.176   2.895   4.860 -0.3394  0.6472 -0.5697
   22CHL1   C16 2755   3.206   2.942   4.639  0.0669 -0.0666  0.0808
   22CHL1  H16A 2756   3.291   2.900   4.581  0.4732 -2.0583  1.9760
   22CHL1  H16B 2757   3.118   2.878   4.617 -0.9505  1.4657 -0.4956
   22CHL1   C17 2758   3.167   3.091   4.595 -0.3272  0.5457 -0.0053
   22CHL1   H17 2759   3.057   3.093   4.615 -0.0978 -0.4078  1.5275
   22CHL1   C13 2760   3.233   3.181   4.698 -0.5472  0.0176 -0.2573
   22CHL1   C18 2761   3.387   3.201   4.670  0.5497  0.3310  0.4629
   22CHL1  H18A 2762   3.435   3.104   4.645  1.6441  0.4755  1.8794
   22CHL1  H18B 2763   3.404   3.265   4.581 -0.3212 -0.6924 -0.4632
   22CHL1  H18C 2764   3.440   3.244   4.758  2.9017  0.4788 -0.9259
   22CHL1   C12 2765   3.166   3.316   4.739 -0.6855 -0.0490  0.3660
   22CHL1  H12A 2766   3.167   3.393   4.659  0.0987 -1.1906 -0.7676
   22CHL1  H12B 2767   3.060   3.292   4.761 -0.5070 -0.6159  0.6357
   22CHL1   C11 2768   3.228   3.384   4.863 -0.2366 -0.5134  0.6222
   22CHL1  H11A 2769   3.335   3.402   4.841  0.5536 -2.0593  2.8194
   22CHL1  H11B 2770   3.172   3.479   4.873 -3.1794 -2.0188 -0.1738
   22CHL1    C9 2771   3.231   3.287   4.984 -0.4163  0.5950  0.2434
   22CHL1    H9 2772   3.122   3.273   5.006 -1.0585  1.2372 -2.2664
   22CHL1   C10 2773   3.296   3.347   5.109 -0.1121 -0.7083  0.0006
   22CHL1   C19 2774   3.435   3.411   5.081 -0.4778  1.0721 -1.1172
   22CHL1  H19A 2775   3.511   3.344   5.035  0.4889  3.1064 -2.6549
   22CHL1  H19B 2776   3.418   3.494   5.009 -2.2136  0.5850 -1.3125
   22CHL1  H19C 2777   3.474   3.458   5.174  0.5343 -1.4562 -0.1823
   22CHL1    C1 2778   3.191   3.448   5.165  0.5398 -0.1091 -0.1083
   22CHL1   H1A 2779   3.186   3.538   5.100 -1.1715 -0.7982 -1.0006
   22CHL1   H1B 2780   3.092   3.398   5.176  0.7357 -0.2858  1.0057
   22CHL1    C2 2781   3.228   3.499   5.309 -0.5473  0.3453 -0.8661
   22CHL1   H2A 2782   3.160   3.571   5.360  2.2639  0.9747  2.3911
   22CHL1   H2B 2783   3.327   3.550   5.308 -0.4345  0.4856  2.7679
   22CHL1   C20 2784   3.194   3.113   4.443  0.2117 -0.3061  0.3686
   22CHL1   H20 2785   3.297   3.084   4.413  0.4549 -0.6475  1.4809
   22CHL1   C21 2786   3.166   3.264   4.418  0.4502  0.7088  0.3097
   22CHL1  H21A 2787   3.161   3.294   4.311  0.4927 -0.8729 -0.1631
   22CHL1  H21B 2788   3.241   3.334   4.460 -3.1160  3.5623  2.4786
   22CHL1  H21C 2789   3.074   3.293   4.473  1.4637  4.0403  0.4489
   22CHL1   C22 2790   3.104   3.016   4.360 -0.9384  0.1764  0.0315
   22CHL1  H22A 2791   3.118   2.914   4.401 -2.2168  0.3808  1.0500
   22CHL1  H22B 2792   2.997   3.038   4.381 -0.5890  2.5740 -0.3666
   22CHL1   C23 2793   3.124   3.019   4.208 -0.4237 -0.2134  0.1769
   22CHL1  H23A 2794   3.075   3.103   4.154 -0.7980 -2.6730 -3.6594
   22CHL1  H23B 2795   3.231   3.016   4.176 -1.0960 -0.9144 -2.1431
   22CHL1   C24 2796   3.067   2.889   4.148  0.5225 -0.0447  0.5263
   22CHL1  H24A 2797   3.129   2.807   4.189 -0.2455 -1.3562 -0.8121
   22CHL1  H24B 2798   2.963   2.877   4.187  0.0696  1.4891 -0.1110
   22CHL1   C25 2799   3.047   2.907   3.996 -0.1485 -0.0377 -0.2130
   22CHL1   H25 2800   3.018   3.011   3.971 -2.7751 -0.5235  0.5093
   22CHL1   C26 2801   3.177   2.862   3.920  0.9759 -0.5614  0.5032
   22CHL1  H26A 2802   3.159   2.851   3.811  0.0372 -1.0644  0.7039
   22CHL1  H26B 2803   3.259   2.936   3.932  1.1312 -0.4989 -0.7879
   22CHL1  H26C 2804   3.218   2.762   3.948 -0.1204 -1.5424 -1.2000
   22CHL1   C27 2805   2.935   2.820   3.935  0.1184 -1.0081 -0.5437
   22CHL1  H27A 2806   2.836   2.855   3.970 -0.2557 -0.8931 -1.6874
   22CHL1  H27B 2807   2.936   2.844   3.827  2.0746  0.1054 -0.3211
   22CHL1  H27C 2808   2.947   2.713   3.965 -2.9503 -1.1058  0.6900
   23CHL1    C3 2809   2.452   3.718   5.560 -0.2634 -0.4022 -0.4195
   23CHL1    H3 2810   2.548   3.757   5.521 -0.4805  3.6007  2.4626
   23CHL1    O3 2811   2.433   3.762   5.694  0.3299  0.1607 -0.5275
   23CHL1   H3' 2812   2.416   3.856   5.698 -1.7833 -0.1878  0.2161
   23CHL1    C4 2813   2.333   3.771   5.474 -0.4391  0.3326 -0.5639
   23CHL1   H4A 2814   2.240   3.728   5.517  0.4239 -1.3380 -0.2940
   23CHL1   H4B 2815   2.313   3.880   5.478  1.5480  0.7402 -0.9520
   23CHL1    C5 2816   2.350   3.723   5.331  0.0494 -0.2590 -0.0645
   23CHL1    C6 2817   2.367   3.813   5.233 -0.0594  0.5905  0.5002
   23CHL1    H6 2818   2.345   3.916   5.265 -0.3067  0.7698 -0.2297
   23CHL1    C7 2819   2.386   3.775   5.091  0.1133  0.5671  0.4172
   23CHL1   H7A 2820   2.330   3.849   5.031 -0.1204  0.9149  1.0610
   23CHL1   H7B 2821   2.492   3.780   5.059 -0.0416 -0.0306 -0.2236
   23CHL1    C8 2822   2.349   3.630   5.066 -0.1981  0.1018  0.0944
   23CHL1    H8 2823   2.238   3.633   5.076 -0.4236  1.9985 -2.1572
   23CHL1   C14 2824   2.375   3.572   4.925 -0.4459  0.0593 -0.3660
   23CHL1   H14 2825   2.486   3.574   4.917 -0.4857  1.0412 -0.8760
   23CHL1   C15 2826   2.325   3.651   4.800 -0.0354 -0.0019 -0.1086
   23CHL1  H15A 2827   2.224   3.686   4.830  0.2702  0.8719 -0.0501
   23CHL1  H15B 2828   2.388   3.741   4.781 -0.6125  0.5867  0.6905
   23CHL1   C16 2829   2.324   3.549   4.687  0.3521 -0.2218  0.4334
   23CHL1  H16A 2830   2.227   3.554   4.634 -0.2359  4.1362  1.5321
   23CHL1  H16B 2831   2.405   3.560   4.612 -0.7008 -2.2658 -1.1069
   23CHL1   C17 2832   2.354   3.412   4.754 -0.8086  0.1754  0.5554
   23CHL1   H17 2833   2.463   3.398   4.738 -1.2194 -0.0153 -2.7194
   23CHL1   C13 2834   2.317   3.432   4.901 -0.1002  0.2784 -0.3692
   23CHL1   C18 2835   2.163   3.418   4.925 -0.3802  0.1906 -0.8566
   23CHL1  H18A 2836   2.141   3.311   4.907  0.2389 -0.3678  1.3622
   23CHL1  H18B 2837   2.133   3.429   5.032 -2.3491 -0.0006 -1.3485
   23CHL1  H18C 2838   2.110   3.486   4.855 -1.8000 -0.5567 -0.5398
   23CHL1   C12 2839   2.402   3.343   4.994  0.2786  0.2334 -0.2476
   23CHL1  H12A 2840   2.384   3.235   4.979 -2.5688  0.2342  2.1571
   23CHL1  H12B 2841   2.510   3.348   4.967  0.2946  1.9133  0.0041
   23CHL1   C11 2842   2.379   3.383   5.143 -0.0175  0.1948  0.9869
   23CHL1  H11A 2843   2.275   3.349   5.158 -0.1144  0.4635  0.9312
   23CHL1  H11B 2844   2.441   3.315   5.205 -2.6016 -2.1432  1.1759
   23CHL1    C9 2845   2.406   3.533   5.177 -0.4209 -0.2901  0.3934
   23CHL1    H9 2846   2.515   3.551   5.165 -0.5483  0.9255  0.8641
   23CHL1   C10 2847   2.354   3.569   5.325 -1.0110 -0.0439  0.6151
   23CHL1   C19 2848   2.213   3.511   5.353 -0.5904 -0.0641  0.3223
   23CHL1  H19A 2849   2.140   3.552   5.280  0.6861  0.5007 -0.6659
   23CHL1  H19B 2850   2.217   3.400   5.359  0.1964 -0.2077 -2.0514
   23CHL1  H19C 2851   2.173   3.541   5.452  0.4994  0.3962  0.6364
   23CHL1    C1 2852   2.463   3.514   5.422 -0.7755  0.9840  0.4024
   23CHL1   H1A 2853   2.459   3.403   5.434 -1.3263  1.1676  2.0956
   23CHL1   H1B 2854   2.555   3.550   5.373 -1.0864 -0.2333 -1.1741
   23CHL1    C2 2855   2.450   3.567   5.563  0.3339  0.0955 -0.2917
   23CHL1   H2A 2856   2.530   3.542   5.636 -2.7263  1.6576  4.0395
   23CHL1   H2B 2857   2.350   3.542   5.606 -0.5058  1.8752 -1.0971
   23CHL1   C20 2858   2.284   3.299   4.679 -0.2736  0.1037  0.5998
   23CHL1   H20 2859   2.174   3.317   4.684 -0.4124 -0.1184 -1.1129
   23CHL1   C21 2860   2.326   3.162   4.732 -0.2598 -0.2701  0.2142
   23CHL1  H21A 2861   2.285   3.072   4.683  1.1716 -1.4209  1.0531
   23CHL1  H21B 2862   2.285   3.157   4.835 -0.6329 -0.8026  0.0389
   23CHL1  H21C 2863   2.436   3.153   4.748  0.0039  0.8070 -0.8299
   23CHL1   C22 2864   2.317   3.307   4.528  0.3201  0.1432 -0.0001
   23CHL1  H22A 2865   2.255   3.390   4.487 -1.0421 -0.9880 -0.3190
   23CHL1  H22B 2866   2.424   3.329   4.509  0.5837 -0.9732  0.1141
   23CHL1   C23 2867   2.295   3.181   4.439  0.5919 -0.3227 -0.1352
   23CHL1  H23A 2868   2.374   3.109   4.471  0.3573 -0.4058  0.2631
   23CHL1  H23B 2869   2.197   3.140   4.469  0.7258 -0.6786 -0.1832
   23CHL1   C24 2870   2.291   3.221   4.290 -1.0499  1.0114 -0.2317
   23CHL1  H24A 2871   2.220   3.301   4.259 -1.4262  0.2096 -1.5138
   23CHL1  H24B 2872   2.389   3.265   4.261 -0.6525  1.3830  1.5435
   23CHL1   C25 2873   2.272   3.092   4.203 -0.9836 -0.8961  0.2585
   23CHL1   H25 2874   2.349   3.021   4.238  1.1405  1.3865  0.4475
   23CHL1   C26 2875   2.129   3.035   4.227  0.2276  0.0599  0.2949
   23CHL1  H26A 2876   2.128   2.929   4.196  0.3309 -0.5172  2.1259
   23CHL1  H26B 2877   2.097   3.025   4.333 -1.5721 -0.3402 -0.2580
   23CHL1  H26C 2878   2.060   3.106   4.175  1.3526  2.7499  2.2215
   23CHL1   C27 2879   2.294   3.120   4.051  0.3735 -0.0663 -0.7481
   23CHL1  H27A 2880   2.396   3.163   4.038 -0.0082  0.4641 -2.1846
   23CHL1  H27B 2881   2.288   3.029   3.988  2.1400  0.6407 -2.0425
   23CHL1  H27C 2882   2.220   3.198   4.022  0.6652 -0.0924 -1.5950
   24CHL1    C3 2883   2.863   4.470   5.351 -0.2577 -0.6384  0.1382
   24CHL1    H3 2884   2.765   4.518   5.328 -0.9008 -1.9159  0.1230
   24CHL1    O3 2885   2.885   4.482   5.490  0.4471  0.0517  0.3408
   24CHL1   H3' 2886   2.820   4.422   5.528  0.4771  0.2813  0.7589
   24CHL1    C4 2887   2.849   4.324   5.299 -0.4514 -0.6219 -1.1713
   24CHL1   H4A 2888   2.948   4.277   5.320 -0.4114  0.7579  2.5456
   24CHL1   H4B 2889   2.770   4.275   5.359  1.3951 -0.7950  1.3046
   24CHL1    C5 2890   2.823   4.316   5.150  0.0427  0.2339  0.2977
   24CHL1    C6 2891   2.708   4.268   5.096 -0.4423 -0.3563  0.0177
   24CHL1    H6 2892   2.633   4.220   5.161  0.5240 -2.1247 -0.1233
   24CHL1    C7 2893   2.688   4.249   4.946 -0.2485 -0.1229 -0.4963
   24CHL1   H7A 2894   2.660   4.144   4.920  3.1806 -0.9541 -1.3406
   24CHL1   H7B 2895   2.604   4.313   4.912  2.4396  2.1874 -3.3704
   24CHL1    C8 2896   2.817   4.280   4.865  1.0273 -0.4439  0.3542
   24CHL1    H8 2897   2.891   4.198   4.873  1.5356 -0.0928 -0.6910
   24CHL1   C14 2898   2.772   4.298   4.719  0.0094  0.4199  0.0198
   24CHL1   H14 2899   2.700   4.383   4.712 -1.8396 -1.1880 -2.5585
   24CHL1   C15 2900   2.687   4.187   4.644  0.2905  0.3267 -0.4094
   24CHL1  H15A 2901   2.743   4.093   4.664 -0.6195 -0.2763 -0.6711
   24CHL1  H15B 2902   2.582   4.164   4.669  0.5396  0.2979  0.6712
   24CHL1   C16 2903   2.702   4.228   4.496  0.4634 -0.2457 -0.1178
   24CHL1  H16A 2904   2.753   4.143   4.446  1.9934 -0.2095  1.2721
   24CHL1  H16B 2905   2.609   4.258   4.443  0.2212 -2.1810 -0.8454
   24CHL1   C17 2906   2.806   4.349   4.494 -0.2131  0.4992 -0.1441
   24CHL1   H17 2907   2.733   4.432   4.503 -1.9953 -1.1634  1.6689
   24CHL1   C13 2908   2.888   4.337   4.625 -0.1284  0.4146  0.0159
   24CHL1   C18 2909   2.988   4.219   4.595  0.0172  0.0193  0.0765
   24CHL1  H18A 2910   3.073   4.258   4.536  0.3680 -0.6196  0.1573
   24CHL1  H18B 2911   3.028   4.186   4.693 -1.4766  3.7453  2.1853
   24CHL1  H18C 2912   2.943   4.128   4.550  0.0890  0.1436 -0.2489
   24CHL1   C12 2913   2.963   4.465   4.676 -0.0953 -0.2279  0.1848
   24CHL1  H12A 2914   3.057   4.489   4.621 -1.3504 -0.0886 -2.0201
   24CHL1  H12B 2915   2.894   4.552   4.669  1.7283  1.2094 -0.9492
   24CHL1   C11 2916   3.003   4.442   4.824  0.6338 -0.9433  0.2671
   24CHL1  H11A 2917   3.075   4.358   4.816  0.4756 -0.9556 -1.3546
   24CHL1  H11B 2918   3.063   4.527   4.862 -0.4365  0.5525 -1.2667
   24CHL1    C9 2919   2.888   4.400   4.924  0.0931 -0.0415 -0.0829
   24CHL1    H9 2920   2.805   4.474   4.921 -2.5333 -2.7468 -0.3994
   24CHL1   C10 2921   2.932   4.381   5.068  0.3843 -0.0602  0.0795
   24CHL1   C19 2922   3.059   4.295   5.085 -0.8329  0.2956 -0.2099
   24CHL1  H19A 2923   3.043   4.189   5.056  0.9814  0.3032 -1.3823
   24CHL1  H19B 2924   3.137   4.348   5.026 -1.0568  0.0208 -0.7577
   24CHL1  H19C 2925   3.094   4.304   5.190 -1.3894  0.1806 -0.0146
   24CHL1    C1 2926   2.959   4.522   5.126  0.1403  0.2998 -0.7282
   24CHL1   H1A 2927   3.052   4.569   5.089  0.2496 -0.0002 -0.8349
   24CHL1   H1B 2928   2.869   4.583   5.105 -0.6672 -0.3998  0.5507
   24CHL1    C2 2929   2.976   4.544   5.283  0.1839  0.3054  0.5135
   24CHL1   H2A 2930   2.960   4.652   5.303 -2.0886  0.0274  0.5336
   24CHL1   H2B 2931   3.071   4.513   5.332  0.1414 -0.4228  0.1473
   24CHL1   C20 2932   2.873   4.353   4.354  0.6933 -0.4915 -0.0181
   24CHL1   H20 2933   2.950   4.273   4.344  2.0367  0.7302  0.1692
   24CHL1   C21 2934   2.954   4.482   4.352  0.2735  0.3689  0.9618
   24CHL1  H21A 2935   3.019   4.488   4.262 -0.1342  1.0273  0.7036
   24CHL1  H21B 2936   3.038   4.483   4.425  1.0529 -0.3294  0.1017
   24CHL1  H21C 2937   2.891   4.572   4.368  0.8298  1.4905 -2.4142
   24CHL1   C22 2938   2.759   4.343   4.241  0.1932 -0.0034  0.2259
   24CHL1  H22A 2939   2.813   4.342   4.144  0.9905  0.3062  0.6533
   24CHL1  H22B 2940   2.699   4.250   4.242  0.6494 -0.3415 -1.4033
   24CHL1   C23 2941   2.672   4.471   4.227  0.2233 -0.1042 -0.5681
   24CHL1  H23A 2942   2.635   4.476   4.332  1.7655  0.9486 -0.0372
   24CHL1  H23B 2943   2.733   4.560   4.200  0.4968  0.0869  0.6442
   24CHL1   C24 2944   2.564   4.464   4.112  0.1547  0.2696 -0.4504
   24CHL1  H24A 2945   2.615   4.447   4.015 -2.4849 -2.4167 -1.4886
   24CHL1  H24B 2946   2.515   4.365   4.118  0.9676 -0.2163 -1.4433
   24CHL1   C25 2947   2.463   4.584   4.113 -0.8723  0.2396  0.5670
   24CHL1   H25 2948   2.524   4.673   4.087  0.9487 -1.1742 -0.1992
   24CHL1   C26 2949   2.356   4.569   4.002 -0.0135  0.2902  0.2524
   24CHL1  H26A 2950   2.255   4.616   4.004 -0.4051 -0.5240  0.1645
   24CHL1  H26B 2951   2.402   4.605   3.907 -2.4562  1.1976 -0.6839
   24CHL1  H26C 2952   2.340   4.461   3.978 -0.7062  0.5392 -0.4780
   24CHL1   C27 2953   2.399   4.601   4.256  0.0401  0.2503 -0.2525
   24CHL1  H27A 2954   2.351   4.509   4.295  1.3554 -1.1329 -1.7650
   24CHL1  H27B 2955   2.473   4.633   4.332  1.3721 -0.9739 -0.9781
   24CHL1  H27C 2956   2.323   4.682   4.255 -1.7261 -1.3456 -0.4063
   25CHL1    C3 2957   3.335   4.779   5.467 -0.5436  0.0763  0.2606
   25CHL1    H3 2958   3.354   4.671   5.455  1.9835  0.3885  0.9317
   25CHL1    O3 2959   3.323   4.818   5.604  0.3400 -0.6704  0.1685
   25CHL1   H3' 2960   3.324   4.914   5.602  0.7630 -0.5986  2.1126
   25CHL1    C4 2961   3.450   4.857   5.400  0.7612 -0.1132  0.1299
   25CHL1   H4A 2962   3.427   4.966   5.401 -2.0224 -0.5490 -1.7918
   25CHL1   H4B 2963   3.548   4.837   5.449  0.7665 -1.5226 -0.4071
   25CHL1    C5 2964   3.448   4.825   5.252  0.6257 -0.7546  0.3504
   25CHL1    C6 2965   3.557   4.778   5.193  0.2154 -0.3349  0.2140
   25CHL1    H6 2966   3.643   4.767   5.261  0.1539 -0.9724  0.1957
   25CHL1    C7 2967   3.582   4.747   5.048  0.6695  0.2164  0.0129
   25CHL1   H7A 2968   3.680   4.781   5.008  0.1515 -0.0176 -1.5123
   25CHL1   H7B 2969   3.571   4.639   5.025  0.9887  0.3371 -0.7226
   25CHL1    C8 2970   3.473   4.826   4.964 -0.2147 -0.3144  0.7349
   25CHL1    H8 2971   3.504   4.932   4.950 -0.5312 -0.6475 -4.1898
   25CHL1   C14 2972   3.471   4.763   4.825 -0.0071 -0.0505  0.0878
   25CHL1   H14 2973   3.432   4.661   4.845 -1.7240  0.9791  2.4909
   25CHL1   C15 2974   3.607   4.740   4.764  0.0357  0.1225 -0.4146
   25CHL1  H15A 2975   3.672   4.829   4.777 -2.8768  2.1613  1.5016
   25CHL1  H15B 2976   3.653   4.645   4.798 -1.8506 -0.4302  0.7530
   25CHL1   C16 2977   3.566   4.725   4.614  1.1553 -0.0544 -0.0381
   25CHL1  H16A 2978   3.627   4.798   4.555  0.2846  1.1946  0.5749
   25CHL1  H16B 2979   3.580   4.617   4.590 -1.4465 -0.3719 -0.3637
   25CHL1   C17 2980   3.412   4.762   4.599  0.7885  0.2605  0.6000
   25CHL1   H17 2981   3.360   4.665   4.608 -1.4538  1.2759 -0.7348
   25CHL1   C13 2982   3.380   4.839   4.730 -0.0714  0.6380  0.2941
   25CHL1   C18 2983   3.426   4.987   4.712  0.0201 -0.8361  0.3557
   25CHL1  H18A 2984   3.419   5.046   4.806  0.0503 -0.0377 -0.1277
   25CHL1  H18B 2985   3.528   4.999   4.669 -1.1235  2.4439 -1.8572
   25CHL1  H18C 2986   3.373   5.047   4.635  1.9615  2.0372  1.0680
   25CHL1   C12 2987   3.239   4.834   4.773 -0.3371 -0.6205  0.4895
   25CHL1  H12A 2988   3.176   4.899   4.710  0.1059 -1.3956 -0.7819
   25CHL1  H12B 2989   3.209   4.728   4.759  1.7289 -1.0807 -0.9389
   25CHL1   C11 2990   3.219   4.869   4.921 -0.3057 -0.0655  0.1094
   25CHL1  H11A 2991   3.214   4.980   4.919 -0.6776 -0.0937 -0.8633
   25CHL1  H11B 2992   3.123   4.826   4.958 -0.7603 -0.5065 -1.5114
   25CHL1    C9 2993   3.335   4.812   5.023 -0.2309 -0.0230 -0.1289
   25CHL1    H9 2994   3.309   4.704   5.024 -1.0140  0.1614  0.4209
   25CHL1   C10 2995   3.324   4.861   5.168 -0.8212  0.0262  0.4284
   25CHL1   C19 2996   3.299   5.014   5.175 -0.5726  0.1514  0.2482
   25CHL1  H19A 2997   3.387   5.073   5.143 -0.4068 -0.0360  0.3536
   25CHL1  H19B 2998   3.214   5.037   5.108  0.9352 -0.3558 -1.9303
   25CHL1  H19C 2999   3.264   5.056   5.272 -1.8450  1.9864 -0.9451
   25CHL1    C1 3000   3.210   4.791   5.246 -0.0220 -0.4436  0.1043
   25CHL1   H1A 3001   3.116   4.822   5.195 -0.5884 -2.0972  0.0542
   25CHL1   H1B 3002   3.224   4.683   5.220 -0.7487 -0.3018 -0.9912
   25CHL1    C2 3003   3.201   4.817   5.394  0.2543 -0.1566  0.0494
   25CHL1   H2A 3004   3.121   4.757   5.441 -0.4326  0.2757 -0.5475
   25CHL1   H2B 3005   3.175   4.924   5.411  0.3680 -0.3130  1.3461
   25CHL1   C20 3006   3.365   4.810   4.458  0.3522  0.4696  1.0769
   25CHL1   H20 3007   3.434   4.891   4.425  1.3995 -1.5209 -2.1312
   25CHL1   C21 3008   3.220   4.876   4.455  0.3701 -0.0860 -0.6862
   25CHL1  H21A 3009   3.204   4.959   4.526 -2.5926 -2.2099  1.3551
   25CHL1  H21B 3010   3.158   4.793   4.495  3.4584 -1.7955  1.0386
   25CHL1  H21C 3011   3.183   4.901   4.353 -2.0334 -2.8761 -0.6418
   25CHL1   C22 3012   3.366   4.698   4.351  0.6505  0.2389 -0.1822
   25CHL1  H22A 3013   3.463   4.644   4.347  1.4935  1.6732  0.4617
   25CHL1  H22B 3014   3.280   4.631   4.374 -0.6936  1.7504 -0.5962
   25CHL1   C23 3015   3.346   4.761   4.212 -0.0384 -0.6619  0.2608
   25CHL1  H23A 3016   3.241   4.778   4.182 -0.1675 -1.8775 -0.0218
   25CHL1  H23B 3017   3.401   4.858   4.217 -0.6264 -0.3607  1.0985
   25CHL1   C24 3018   3.413   4.678   4.095 -0.1558  0.3196  0.2970
   25CHL1  H24A 3019   3.372   4.577   4.117 -2.2109  1.0961  0.2816
   25CHL1  H24B 3020   3.385   4.725   3.998  1.2570  0.8891  0.1406
   25CHL1   C25 3021   3.567   4.679   4.100  0.3290 -0.2037  0.0380
   25CHL1   H25 3022   3.607   4.638   4.195  3.1105 -0.1439 -1.0034
   25CHL1   C26 3023   3.624   4.601   3.978 -0.6101 -0.4170 -0.1042
   25CHL1  H26A 3024   3.735   4.604   3.988 -0.6099 -0.9948  0.1229
   25CHL1  H26B 3025   3.603   4.492   3.984 -0.0966 -0.5327 -0.2908
   25CHL1  H26C 3026   3.608   4.651   3.880  1.1270  2.6753  1.0332
   25CHL1   C27 3027   3.631   4.818   4.095  0.4392  0.2804 -0.2905
   25CHL1  H27A 3028   3.742   4.820   4.102  0.3355 -0.0453  3.4776
   25CHL1  H27B 3029   3.593   4.870   4.005 -0.0399  0.6236  0.1022
   25CHL1  H27C 3030   3.597   4.865   4.190 -1.4502 -1.6103  0.0548
   26CHL1    C3 3031   3.089   2.467   5.473  0.1117  0.8180  0.4677
   26CHL1    H3 3032   2.996   2.407   5.471  1.1852 -1.2556 -4.8506
   26CHL1    O3 3033   3.129   2.490   5.604 -0.5735 -0.3410 -0.4646
   26CHL1   H3' 3034   3.122   2.408   5.654  0.8987  0.9194  1.9469
   26CHL1    C4 3035   3.204   2.396   5.401  0.0905  0.6804  0.1595
   26CHL1   H4A 3036   3.300   2.451   5.412  0.2459  0.2089  1.3220
   26CHL1   H4B 3037   3.220   2.296   5.447 -0.3969 -0.3964 -1.9152
   26CHL1    C5 3038   3.180   2.376   5.254  0.0317 -0.5463  0.2825
   26CHL1    C6 3039   3.182   2.253   5.197 -0.4124 -1.1532  0.4891
   26CHL1    H6 3040   3.213   2.168   5.259 -0.7664 -1.8993 -0.3236
   26CHL1    C7 3041   3.175   2.230   5.051  0.1701  0.5926 -0.4072
   26CHL1   H7A 3042   3.255   2.166   5.007 -0.0319  0.8773 -1.1955
   26CHL1   H7B 3043   3.075   2.187   5.030 -1.5553  2.5137  3.0073
   26CHL1    C8 3044   3.183   2.361   4.964 -0.1832 -0.0345 -0.0427
   26CHL1    H8 3045   3.288   2.394   4.946 -1.0793  3.2028  0.1060
   26CHL1   C14 3046   3.111   2.351   4.827 -0.4441  0.8847 -0.2603
   26CHL1   H14 3047   3.006   2.324   4.851  0.0566 -0.0712  0.9441
   26CHL1   C15 3048   3.148   2.222   4.740  0.3891  0.2504 -0.1693
   26CHL1  H15A 3049   3.255   2.195   4.749  0.5912  0.1652 -2.2511
   26CHL1  H15B 3050   3.086   2.133   4.762  1.0004 -0.6857 -2.0530
   26CHL1   C16 3051   3.125   2.263   4.597  0.7374  0.1967  0.4097
   26CHL1  H16A 3052   3.226   2.268   4.550  1.2057 -0.2451  1.3255
   26CHL1  H16B 3053   3.062   2.183   4.554  0.9434  0.8739 -1.2324
   26CHL1   C17 3054   3.062   2.405   4.602  0.1363  0.0989  0.0789
   26CHL1   H17 3055   2.955   2.390   4.627  0.1926 -0.1113  0.1928
   26CHL1   C13 3056   3.121   2.470   4.730 -0.3992  0.3317 -0.5266
   26CHL1   C18 3057   3.264   2.517   4.691 -0.6934 -0.5716  0.9709
   26CHL1  H18A 3058   3.316   2.440   4.629  0.8794  1.2720 -0.1388
   26CHL1  H18B 3059   3.275   2.605   4.624  3.3453 -1.5400  0.0627
   26CHL1  H18C 3060   3.332   2.544   4.775  1.0231 -1.8936  0.0757
   26CHL1   C12 3061   3.045   2.578   4.801  0.6801  0.9944  0.3753
   26CHL1  H12A 3062   3.053   2.675   4.747  0.4494  0.0228 -1.4805
   26CHL1  H12B 3063   2.937   2.554   4.810  0.4461  1.5279 -0.7558
   26CHL1   C11 3064   3.102   2.604   4.941  0.1034 -0.1023  0.3142
   26CHL1  H11A 3065   3.202   2.652   4.928  0.1096 -0.4780 -1.2069
   26CHL1  H11B 3066   3.035   2.678   4.989 -1.1106 -0.1385 -1.2416
   26CHL1    C9 3067   3.105   2.478   5.032 -0.2813  0.2503 -0.2497
   26CHL1    H9 3068   3.004   2.432   5.034  1.1733 -3.5647 -2.7799
   26CHL1   C10 3069   3.150   2.511   5.175 -0.5064 -0.0259  0.3258
   26CHL1   C19 3070   3.283   2.590   5.174  0.0361 -0.0137  0.1476
   26CHL1  H19A 3071   3.314   2.628   5.273  0.9961  0.5483 -0.3519
   26CHL1  H19B 3072   3.368   2.534   5.128  0.6369  0.8528  0.1648
   26CHL1  H19C 3073   3.280   2.678   5.106  1.3440 -1.1450 -1.4730
   26CHL1    C1 3074   3.041   2.588   5.247  0.3250 -0.1097 -0.3316
   26CHL1   H1A 3075   3.036   2.689   5.201 -0.3042 -0.8546 -1.9842
   26CHL1   H1B 3076   2.944   2.536   5.231  0.0339  0.8202 -1.7813
   26CHL1    C2 3077   3.057   2.602   5.408 -0.2850 -0.4197 -0.2321
   26CHL1   H2A 3078   2.961   2.641   5.448  0.2234 -0.4511  1.0698
   26CHL1   H2B 3079   3.141   2.674   5.419  0.6830 -1.0476 -2.7095
   26CHL1   C20 3080   3.082   2.479   4.461 -0.0265  0.0687  0.1472
   26CHL1   H20 3081   3.191   2.470   4.439 -0.5225 -3.5081 -1.8270
   26CHL1   C21 3082   3.044   2.623   4.465  0.4932 -0.3774 -1.1688
   26CHL1  H21A 3083   2.939   2.637   4.497  0.6292 -1.2803 -0.2686
   26CHL1  H21B 3084   3.066   2.672   4.368 -2.8014  1.7596 -0.9828
   26CHL1  H21C 3085   3.104   2.673   4.544  0.1934 -0.3051 -0.9857
   26CHL1   C22 3086   3.014   2.392   4.351  0.0474 -0.6002 -0.1290
   26CHL1  H22A 3087   3.065   2.293   4.351  0.5308 -0.3723  1.1141
   26CHL1  H22B 3088   2.905   2.387   4.376  0.2983 -1.1294  0.9465
   26CHL1   C23 3089   3.013   2.456   4.214  0.5188  0.6013  0.0296
   26CHL1  H23A 3090   2.942   2.391   4.158 -1.5373  0.4049  2.6673
   26CHL1  H23B 3091   2.951   2.548   4.213  0.0343  0.3022 -1.9158
   26CHL1   C24 3092   3.149   2.469   4.143  0.8170 -0.3230  0.8042
   26CHL1  H24A 3093   3.117   2.520   4.050 -2.4038  1.1292  2.5512
   26CHL1  H24B 3094   3.203   2.545   4.204  1.2167  1.7640 -1.9695
   26CHL1   C25 3095   3.224   2.346   4.111 -0.3593  0.7753 -1.2741
   26CHL1   H25 3096   3.239   2.283   4.201 -2.0916 -0.0581 -1.5416
   26CHL1   C26 3097   3.156   2.266   3.995 -0.8145 -0.1032 -0.5877
   26CHL1  H26A 3098   3.225   2.182   3.971  2.0752  2.2573 -1.2178
   26CHL1  H26B 3099   3.054   2.228   4.017  0.2896 -1.7371  2.1992
   26CHL1  H26C 3100   3.147   2.320   3.898 -0.0829  0.9520 -0.0923
   26CHL1   C27 3101   3.366   2.392   4.077 -0.3827 -0.3019 -0.4599
   26CHL1  H27A 3102   3.423   2.304   4.039 -0.0776 -0.2258 -0.1813
   26CHL1  H27B 3103   3.355   2.455   3.986 -1.2553 -1.6653 -1.3481
   26CHL1  H27C 3104   3.426   2.452   4.149 -0.4447 -0.3339 -0.3812
   27CHL1    C3 3105   2.783   3.160   5.641 -0.0383  1.0025 -0.0208
   27CHL1    H3 3106   2.673   3.174   5.642 -0.1239  0.3803 -0.0055
   27CHL1    O3 3107   2.836   3.173   5.776 -0.5340 -0.0324  0.2245
   27CHL1   H3' 3108   2.929   3.152   5.787 -0.0286  0.9373 -1.8170
   27CHL1    C4 3109   2.821   3.022   5.605 -0.8990  0.4296  0.7551
   27CHL1   H4A 3110   2.928   2.998   5.623 -0.8542 -0.9821 -1.0508
   27CHL1   H4B 3111   2.762   2.953   5.669 -2.9091 -0.4070 -1.8335
   27CHL1    C5 3112   2.792   2.995   5.464 -0.0367 -0.5413  0.2328
   27CHL1    C6 3113   2.707   2.899   5.428 -0.5023  0.8469 -0.2318
   27CHL1    H6 3114   2.666   2.836   5.508  2.0353 -2.5515 -1.3467
   27CHL1    C7 3115   2.667   2.870   5.287  0.0591  0.4789 -0.0786
   27CHL1   H7A 3116   2.669   2.761   5.268 -1.9125  0.2535  0.7452
   27CHL1   H7B 3117   2.562   2.905   5.279 -0.1169  0.4178  1.5527
   27CHL1    C8 3118   2.758   2.935   5.179 -0.1640  0.3718  0.3876
   27CHL1    H8 3119   2.846   2.868   5.182 -2.2583 -2.5543  0.7211
   27CHL1   C14 3120   2.687   2.923   5.040 -0.3782 -0.0601 -0.5415
   27CHL1   H14 3121   2.596   2.985   5.050  0.7675  1.5690  0.2479
   27CHL1   C15 3122   2.629   2.787   4.994  0.4310  0.3222  0.3112
   27CHL1  H15A 3123   2.708   2.711   5.011 -0.7099 -0.9316  0.1837
   27CHL1  H15B 3124   2.532   2.769   5.044  1.3921 -3.5567  1.0559
   27CHL1   C16 3125   2.608   2.818   4.843 -0.3775 -0.7792  0.0353
   27CHL1  H16A 3126   2.663   2.741   4.786 -0.5550 -0.2949 -0.8254
   27CHL1  H16B 3127   2.500   2.809   4.816 -0.0464 -3.0482 -0.6948
   27CHL1   C17 3128   2.667   2.955   4.810  0.6143  0.4674 -0.6532
   27CHL1   H17 3129   2.592   3.036   4.824  0.8663  0.4267  1.0583
   27CHL1   C13 3130   2.763   2.988   4.927  0.2479  1.1864 -0.2311
   27CHL1   C18 3131   2.892   2.903   4.907  0.1158  0.5141 -0.2902
   27CHL1  H18A 3132   2.967   2.944   4.836  1.3698  1.6316  1.5756
   27CHL1  H18B 3133   2.955   2.889   4.998  1.0272 -1.8075 -1.1957
   27CHL1  H18C 3134   2.860   2.798   4.887 -0.3619  0.3701  1.1083
   27CHL1   C12 3135   2.804   3.131   4.953 -0.3235 -0.1261  1.1550
   27CHL1  H12A 3136   2.879   3.167   4.879 -2.4487 -0.8804 -1.5197
   27CHL1  H12B 3137   2.721   3.205   4.959  0.8029  1.2674  0.2619
   27CHL1   C11 3138   2.869   3.151   5.094 -0.2781 -0.4295 -0.2489
   27CHL1  H11A 3139   2.965   3.099   5.074 -1.5084 -2.3009 -1.6275
   27CHL1  H11B 3140   2.878   3.261   5.111 -1.1027 -0.3864 -0.0453
   27CHL1    C9 3141   2.790   3.075   5.211 -0.0774 -0.1382  0.4073
   27CHL1    H9 3142   2.692   3.127   5.226 -0.6071 -0.4578 -1.5911
   27CHL1   C10 3143   2.852   3.092   5.358 -0.7435  0.3676  0.4894
   27CHL1   C19 3144   2.998   3.040   5.354  0.2599  0.0049  0.2696
   27CHL1  H19A 3145   2.994   2.933   5.324 -1.8590  0.2608 -0.5361
   27CHL1  H19B 3146   3.062   3.097   5.284 -1.4311  1.5473 -0.1055
   27CHL1  H19C 3147   3.057   3.041   5.449 -0.3804  0.4644  0.6715
   27CHL1    C1 3148   2.832   3.240   5.400  0.0540 -0.2750  0.3205
   27CHL1   H1A 3149   2.903   3.308   5.349  0.0741  1.4695  2.5501
   27CHL1   H1B 3150   2.726   3.269   5.383  0.1877  1.0533  1.5722
   27CHL1    C2 3151   2.857   3.258   5.553 -0.0169  0.4509  0.2905
   27CHL1   H2A 3152   2.826   3.361   5.578 -1.0700  0.6519 -1.6951
   27CHL1   H2B 3153   2.966   3.246   5.572 -0.0382  0.7875  0.6220
   27CHL1   C20 3154   2.715   2.958   4.664 -0.0835 -0.3681 -0.5359
   27CHL1   H20 3155   2.814   2.906   4.663 -0.4565 -1.1304 -2.2331
   27CHL1   C21 3156   2.746   3.104   4.628 -0.0533 -0.2322  0.3341
   27CHL1  H21A 3157   2.756   3.109   4.517  0.1947  0.2103  0.3740
   27CHL1  H21B 3158   2.835   3.147   4.679  1.2146 -2.6664  0.3332
   27CHL1  H21C 3159   2.661   3.171   4.650 -0.0844  0.2549 -1.1643
   27CHL1   C22 3160   2.621   2.889   4.557 -0.0193  0.0313  0.5302
   27CHL1  H22A 3161   2.601   2.783   4.586 -0.6294  0.1369  0.5261
   27CHL1  H22B 3162   2.517   2.927   4.567 -0.2260  0.6836 -2.8393
   27CHL1   C23 3163   2.671   2.875   4.410  0.2514  0.8662  0.2668
   27CHL1  H23A 3164   2.701   2.969   4.359 -1.0042  0.4536 -1.3000
   27CHL1  H23B 3165   2.768   2.823   4.422  0.2899  1.1482  1.3050
   27CHL1   C24 3166   2.570   2.796   4.322  0.3667 -0.4156 -0.1492
   27CHL1  H24A 3167   2.475   2.851   4.339 -1.5789 -3.5204 -0.1851
   27CHL1  H24B 3168   2.608   2.794   4.218 -0.8363  0.9278 -0.6478
   27CHL1   C25 3169   2.544   2.651   4.362 -0.2795 -0.2910  0.0308
   27CHL1   H25 3170   2.525   2.628   4.469 -2.5827  0.6760 -0.1289
   27CHL1   C26 3171   2.421   2.607   4.284 -0.0376 -0.2876  0.8627
   27CHL1  H26A 3172   2.442   2.607   4.174  0.5288  0.4248  0.9686
   27CHL1  H26B 3173   2.392   2.502   4.307  2.1579 -1.0720  0.3034
   27CHL1  H26C 3174   2.344   2.683   4.308 -0.2867  0.4514 -1.8930
   27CHL1   C27 3175   2.675   2.566   4.332  0.4666  0.5543 -0.5638
   27CHL1  H27A 3176   2.661   2.458   4.353  2.1147  0.4281  0.0955
   27CHL1  H27B 3177   2.751   2.604   4.404 -0.2009  0.1103  0.4024
   27CHL1  H27C 3178   2.706   2.572   4.226 -0.1355  0.9181 -0.7215
   28CHL1    C3 3179   4.190   2.216   5.809 -0.5351 -0.9538  0.0404
   28CHL1    H3 3180   4.188   2.326   5.819  1.2971 -0.9046  0.1143
   28CHL1    O3 3181   4.208   2.144   5.931  0.4061 -0.7146  0.0752
   28CHL1   H3' 3182   4.161   2.189   6.001  2.1420 -0.4573  1.1353
   28CHL1    C4 3183   4.060   2.161   5.740 -0.6954  0.3898  0.3464
   28CHL1   H4A 3184   4.070   2.051   5.732 -0.7403  0.4546 -0.7219
   28CHL1   H4B 3185   3.964   2.185   5.791  0.1270  2.2079  1.1443
   28CHL1    C5 3186   4.061   2.218   5.598  0.2527 -0.4595  0.3965
   28CHL1    C6 3187   3.956   2.292   5.552  0.0680 -0.1828 -0.2333
   28CHL1    H6 3188   3.876   2.307   5.627  0.5075 -1.7706  0.5944
   28CHL1    C7 3189   3.948   2.337   5.410  0.1366  0.5525  0.1898
   28CHL1   H7A 3190   3.845   2.326   5.369  0.9048 -0.7468 -1.5103
   28CHL1   H7B 3191   3.953   2.448   5.409  0.3826  0.5610 -1.6817
   28CHL1    C8 3192   4.055   2.275   5.313  0.5815  0.6870 -0.5242
   28CHL1    H8 3193   4.024   2.174   5.280 -0.6867  1.8881 -3.4477
   28CHL1   C14 3194   4.074   2.364   5.194  0.3569 -0.0637  0.0996
   28CHL1   H14 3195   4.112   2.463   5.228  0.8226  0.2850 -1.3809
   28CHL1   C15 3196   3.949   2.399   5.116  0.2649  0.6488 -0.1488
   28CHL1  H15A 3197   3.899   2.300   5.105  1.4276  0.1922 -1.6763
   28CHL1  H15B 3198   3.881   2.472   5.164  2.8955  1.9917  1.7950
   28CHL1   C16 3199   3.997   2.442   4.982 -0.8782  0.5123  0.0853
   28CHL1  H16A 3200   3.953   2.371   4.909 -1.6590  0.2403  0.7932
   28CHL1  H16B 3201   3.969   2.544   4.948  0.1936  0.3729 -1.2554
   28CHL1   C17 3202   4.146   2.427   4.980 -0.0776  0.2809  0.6042
   28CHL1   H17 3203   4.198   2.518   5.015  2.2548 -0.3216 -1.0386
   28CHL1   C13 3204   4.175   2.316   5.087  0.5868 -0.0262 -0.8511
   28CHL1   C18 3205   4.122   2.177   5.033  0.5915  0.1248  0.4773
   28CHL1  H18A 3206   4.015   2.180   5.002  0.4978  2.1468  0.8678
   28CHL1  H18B 3207   4.187   2.146   4.948  0.4983 -2.0446  1.1300
   28CHL1  H18C 3208   4.132   2.097   5.109 -0.3035  0.5562  1.0543
   28CHL1   C12 3209   4.315   2.295   5.148 -0.0947 -0.0420  0.4661
   28CHL1  H12A 3210   4.388   2.248   5.079 -0.1602  1.2841 -0.5491
   28CHL1  H12B 3211   4.371   2.388   5.172  3.0139 -1.4839 -0.6401
   28CHL1   C11 3212   4.309   2.218   5.278  0.0822 -0.3834 -0.3763
   28CHL1  H11A 3213   4.279   2.117   5.241 -0.8315  0.2097 -1.3126
   28CHL1  H11B 3214   4.407   2.209   5.330 -0.5190  1.0134  1.0729
   28CHL1    C9 3215   4.194   2.265   5.376 -0.0752  0.3608 -0.1692
   28CHL1    H9 3216   4.225   2.369   5.400  0.6968  0.0566  0.1854
   28CHL1   C10 3217   4.186   2.191   5.511 -0.0657  0.2956  0.4508
   28CHL1   C19 3218   4.195   2.045   5.486 -0.4657  0.2896 -0.2233
   28CHL1  H19A 3219   4.179   1.974   5.570  1.5898 -1.2627 -1.0279
   28CHL1  H19B 3220   4.131   2.015   5.401 -0.7085 -1.8527  0.6537
   28CHL1  H19C 3221   4.300   2.019   5.459  0.6612  0.2541  3.6068
   28CHL1    C1 3222   4.315   2.228   5.591  0.1209  0.2438  0.8064
   28CHL1   H1A 3223   4.404   2.182   5.543  0.1404  0.5474  0.5486
   28CHL1   H1B 3224   4.318   2.339   5.600 -0.4668  0.2964  0.3300
   28CHL1    C2 3225   4.311   2.171   5.733 -0.1362  0.6238 -0.0239
   28CHL1   H2A 3226   4.406   2.189   5.787 -0.2614  0.0528  0.3959
   28CHL1   H2B 3227   4.304   2.061   5.722 -0.7302  0.8679 -3.1601
   28CHL1   C20 3228   4.192   2.409   4.837  0.1936 -0.7732  0.0584
   28CHL1   H20 3229   4.160   2.311   4.798  0.2941  0.0770 -2.3012
   28CHL1   C21 3230   4.354   2.393   4.829 -0.6412 -0.2226  0.5021
   28CHL1  H21A 3231   4.411   2.486   4.846 -1.6764  1.0061 -2.2055
   28CHL1  H21B 3232   4.383   2.364   4.725 -0.3777  1.2408  0.1486
   28CHL1  H21C 3233   4.381   2.316   4.905 -0.1363  0.0932  0.6456
   28CHL1   C22 3234   4.146   2.513   4.738  0.5383  0.2917 -0.5738
   28CHL1  H22A 3235   4.036   2.508   4.725  0.3241 -2.7901  1.1912
   28CHL1  H22B 3236   4.162   2.618   4.770 -0.5936  0.7991 -1.5877
   28CHL1   C23 3237   4.193   2.472   4.589 -0.2214 -0.6716  0.0948
   28CHL1  H23A 3238   4.301   2.496   4.579 -0.7726  2.9008  1.0267
   28CHL1  H23B 3239   4.175   2.364   4.571  0.5875 -0.4274 -2.6815
   28CHL1   C24 3240   4.116   2.558   4.484  0.1912 -0.8276  0.3689
   28CHL1  H24A 3241   4.007   2.539   4.496  0.2204 -1.0695  0.2665
   28CHL1  H24B 3242   4.143   2.663   4.506 -0.4330  0.0898 -2.7867
   28CHL1   C25 3243   4.139   2.539   4.335  0.7351  0.3783 -0.1700
   28CHL1   H25 3244   4.244   2.508   4.318 -0.5371 -3.6458 -1.7827
   28CHL1   C26 3245   4.070   2.416   4.280 -0.1105  0.2285 -0.0064
   28CHL1  H26A 3246   4.112   2.396   4.180  0.1673  0.0006  0.1542
   28CHL1  H26B 3247   4.089   2.332   4.350 -1.0764 -1.2816 -1.5229
   28CHL1  H26C 3248   3.962   2.428   4.259 -0.9285 -0.4638  3.2221
   28CHL1   C27 3249   4.093   2.671   4.260 -0.5803  1.0702 -0.0018
   28CHL1  H27A 3250   4.168   2.752   4.273 -1.3096  1.5883  1.1768
   28CHL1  H27B 3251   4.087   2.665   4.150 -1.0868  1.9583 -0.0300
   28CHL1  H27C 3252   3.994   2.699   4.300 -1.7729 -1.7361 -0.7852
   29CHL1    C3 3253   1.547   3.626   5.339 -0.0749 -0.5226 -0.5515
   29CHL1    H3 3254   1.527   3.521   5.308 -1.1461 -0.2774 -0.7176
   29CHL1    O3 3255   1.529   3.645   5.478 -0.1180  0.2412 -0.0534
   29CHL1   H3' 3256   1.586   3.574   5.509 -1.1482  0.2802  2.1040
   29CHL1    C4 3257   1.688   3.674   5.312 -0.4965  0.2576 -1.1979
   29CHL1   H4A 3258   1.719   3.762   5.372  0.3004  0.4977 -1.9535
   29CHL1   H4B 3259   1.746   3.591   5.357  0.0483  1.3170  0.1449
   29CHL1    C5 3260   1.726   3.693   5.167 -0.2817  0.7096  0.3690
   29CHL1    C6 3261   1.847   3.651   5.131 -0.4449  0.1002 -0.1424
   29CHL1    H6 3262   1.921   3.617   5.206 -0.0770 -1.3999 -1.1550
   29CHL1    C7 3263   1.888   3.658   4.983 -0.8827 -0.0614  0.4308
   29CHL1   H7A 3264   1.995   3.687   4.974 -0.7387 -0.7531 -0.2906
   29CHL1   H7B 3265   1.884   3.551   4.952 -0.1611 -0.3360  1.2423
   29CHL1    C8 3266   1.796   3.746   4.896 -0.3257  0.0081  0.6312
   29CHL1    H8 3267   1.834   3.850   4.901  1.8053 -0.7011  0.2594
   29CHL1   C14 3268   1.794   3.699   4.752  0.9569 -0.4608  0.5224
   29CHL1   H14 3269   1.755   3.595   4.740 -1.2100  0.1581  1.7194
   29CHL1   C15 3270   1.933   3.678   4.692 -0.8315 -0.0122 -0.1776
   29CHL1  H15A 3271   2.006   3.754   4.726  0.3205 -1.2119  0.0929
   29CHL1  H15B 3272   1.957   3.573   4.717 -0.8916  0.0880  0.3131
   29CHL1   C16 3273   1.904   3.692   4.542 -0.7709  0.6313 -0.1063
   29CHL1  H16A 3274   1.960   3.783   4.514 -0.8052  0.4184 -0.8924
   29CHL1  H16B 3275   1.925   3.612   4.467 -2.9061  1.9531 -2.2498
   29CHL1   C17 3276   1.752   3.719   4.528  0.2586 -0.7424 -0.4432
   29CHL1   H17 3277   1.707   3.618   4.534 -1.6025  0.0253 -0.9263
   29CHL1   C13 3278   1.715   3.790   4.659  0.3627 -0.3201 -0.3353
   29CHL1   C18 3279   1.769   3.942   4.657  0.0355 -0.7119 -0.6811
   29CHL1  H18A 3280   1.765   3.985   4.759 -0.4905  2.6483 -1.9939
   29CHL1  H18B 3281   1.877   3.942   4.627  0.2912 -2.0574  0.1546
   29CHL1  H18C 3282   1.702   3.995   4.586 -0.2179 -0.6605 -0.4045
   29CHL1   C12 3283   1.565   3.799   4.696  0.4279  0.6113 -0.1910
   29CHL1  H12A 3284   1.512   3.875   4.635 -0.6090 -0.3047 -0.4461
   29CHL1  H12B 3285   1.514   3.700   4.688  0.4070  0.7009 -1.2259
   29CHL1   C11 3286   1.553   3.828   4.850 -0.4288  0.5343  0.0182
   29CHL1  H11A 3287   1.569   3.938   4.851 -0.1509  0.6463 -3.4322
   29CHL1  H11B 3288   1.446   3.820   4.881 -0.3705 -1.4721 -0.1160
   29CHL1    C9 3289   1.645   3.742   4.939 -0.0766 -0.0068  0.7351
   29CHL1    H9 3290   1.617   3.636   4.919 -1.1939  0.5171 -0.6519
   29CHL1   C10 3291   1.614   3.767   5.089 -1.7321 -0.4342  0.7081
   29CHL1   C19 3292   1.637   3.918   5.112  0.0829  0.4731  0.7849
   29CHL1  H19A 3293   1.731   3.959   5.068 -0.4751 -0.6382 -1.6211
   29CHL1  H19B 3294   1.557   3.979   5.064  0.1206 -1.2214 -1.6276
   29CHL1  H19C 3295   1.634   3.939   5.221 -0.0326 -1.1332  1.1082
   29CHL1    C1 3296   1.471   3.722   5.125  0.3165  0.0968 -0.3734
   29CHL1   H1A 3297   1.392   3.792   5.087 -0.2616 -0.7615 -0.7794
   29CHL1   H1B 3298   1.450   3.627   5.072  0.1152 -0.2345  0.2881
   29CHL1    C2 3299   1.444   3.717   5.277 -0.4876  0.0367 -0.0286
   29CHL1   H2A 3300   1.347   3.668   5.305 -0.5567 -0.6608 -1.4176
   29CHL1   H2B 3301   1.451   3.820   5.318 -1.7750  0.2737 -0.3645
   29CHL1   C20 3302   1.707   3.784   4.397 -0.7956  0.0105  0.5557
   29CHL1   H20 3303   1.616   3.846   4.414  0.0528  1.4147  0.1534
   29CHL1   C21 3304   1.660   3.675   4.298 -0.2105 -0.1668  0.1177
   29CHL1  H21A 3305   1.736   3.597   4.274  0.1918  0.1369  0.4022
   29CHL1  H21B 3306   1.616   3.721   4.206 -1.3180  0.2637  0.8408
   29CHL1  H21C 3307   1.568   3.626   4.336 -0.5644 -0.2873 -0.8477
   29CHL1   C22 3308   1.813   3.876   4.329  0.7393 -0.0153  0.6719
   29CHL1  H22A 3309   1.837   3.960   4.398 -1.7120  1.4422 -0.1017
   29CHL1  H22B 3310   1.910   3.823   4.324  0.3617 -0.7231  0.7796
   29CHL1   C23 3311   1.775   3.944   4.197 -0.0300  0.7246  1.4007
   29CHL1  H23A 3312   1.779   3.863   4.121  1.5900 -0.4960  2.7088
   29CHL1  H23B 3313   1.670   3.983   4.194 -0.9076 -1.4665 -2.3791
   29CHL1   C24 3314   1.880   4.055   4.160  0.1816  0.2379 -0.4082
   29CHL1  H24A 3315   1.973   4.042   4.221  0.2413  1.2387 -0.2735
   29CHL1  H24B 3316   1.914   4.053   4.054 -0.8342  0.1767 -0.7439
   29CHL1   C25 3317   1.840   4.200   4.184  0.2800 -0.2350 -0.1219
   29CHL1   H25 3318   1.740   4.213   4.137 -0.3745  2.9126  1.8219
   29CHL1   C26 3319   1.830   4.229   4.333 -0.3543 -0.5370  0.4854
   29CHL1  H26A 3320   1.744   4.181   4.383 -0.1234 -0.0096  1.4364
   29CHL1  H26B 3321   1.923   4.202   4.388  0.2389 -1.4125 -0.8937
   29CHL1  H26C 3322   1.829   4.340   4.345  2.1370 -0.5288  1.3172
   29CHL1   C27 3323   1.938   4.289   4.102  0.1078 -0.3090 -0.1359
   29CHL1  H27A 3324   1.935   4.256   3.997 -1.0496 -3.0784  0.6829
   29CHL1  H27B 3325   1.912   4.397   4.108 -1.0112 -0.4894 -1.2493
   29CHL1  H27C 3326   2.037   4.269   4.147  0.2429 -0.7055 -0.6169
   30CHL1    C3 3327   2.680   4.950   5.501  0.0239 -0.3550 -0.1193
   30CHL1    H3 3328   2.570   4.941   5.507  0.0924 -1.8079 -0.5882
   30CHL1    O3 3329   2.727   4.950   5.637  0.9413  0.5098  0.2382
   30CHL1   H3' 3330   2.681   5.024   5.678 -0.2126  0.1485 -0.3520
   30CHL1    C4 3331   2.729   4.829   5.425 -0.9530 -0.4441 -0.9001
   30CHL1   H4A 3332   2.838   4.813   5.434 -0.4571  2.1480 -1.5779
   30CHL1   H4B 3333   2.699   4.728   5.460  0.2231 -0.4921  0.0529
   30CHL1    C5 3334   2.694   4.845   5.280  0.1305  0.7946 -0.2843
   30CHL1    C6 3335   2.623   4.746   5.220 -0.3620  0.6581 -0.8532
   30CHL1    H6 3336   2.579   4.657   5.269 -1.2643  1.0022 -1.0061
   30CHL1    C7 3337   2.586   4.750   5.073 -1.0904 -0.2960  0.1213
   30CHL1   H7A 3338   2.585   4.643   5.041 -1.0488 -0.6384  1.2314
   30CHL1   H7B 3339   2.481   4.784   5.063 -1.6018 -1.8125  0.0741
   30CHL1    C8 3340   2.690   4.841   5.000  0.6272  0.1345 -0.5663
   30CHL1    H8 3341   2.791   4.795   5.015  0.1623 -0.7916 -0.1891
   30CHL1   C14 3342   2.649   4.851   4.854  0.3391  0.1221 -0.4945
   30CHL1   H14 3343   2.545   4.889   4.841 -0.6471 -2.2631 -0.0034
   30CHL1   C15 3344   2.647   4.725   4.782 -0.0700  0.0400  0.2556
   30CHL1  H15A 3345   2.747   4.684   4.810 -1.2304 -1.6624  2.1974
   30CHL1  H15B 3346   2.571   4.646   4.803  0.5053 -0.2434  1.3796
   30CHL1   C16 3347   2.627   4.758   4.626 -0.0715  0.1104 -0.0627
   30CHL1  H16A 3348   2.702   4.697   4.572  0.0995 -1.0170  1.3749
   30CHL1  H16B 3349   2.522   4.734   4.599 -0.8207  0.0567  2.5498
   30CHL1   C17 3350   2.674   4.912   4.624 -0.2049  0.2497 -0.1709
   30CHL1   H17 3351   2.586   4.979   4.618  0.9685  1.8002 -0.6626
   30CHL1   C13 3352   2.735   4.936   4.769 -0.8925 -0.1295 -0.0895
   30CHL1   C18 3353   2.890   4.895   4.757 -0.4444  0.0423 -0.0525
   30CHL1  H18A 3354   2.905   4.809   4.688  1.4942 -0.7803  1.3103
   30CHL1  H18B 3355   2.954   4.973   4.709 -0.2951 -0.0913 -0.0712
   30CHL1  H18C 3356   2.920   4.871   4.861 -1.7078  0.9322  0.5478
   30CHL1   C12 3357   2.716   5.078   4.825  0.3289 -0.2253 -0.6258
   30CHL1  H12A 3358   2.783   5.153   4.776  0.3901  1.0640  1.3248
   30CHL1  H12B 3359   2.611   5.114   4.824 -0.2257 -1.3677  3.0226
   30CHL1   C11 3360   2.765   5.085   4.977 -0.2651  0.5821  0.3909
   30CHL1  H11A 3361   2.873   5.060   4.971 -0.6483 -1.0980 -0.0214
   30CHL1  H11B 3362   2.760   5.190   5.012  1.0914  1.0220 -0.6549
   30CHL1    C9 3363   2.694   4.980   5.063 -0.7901  0.1257  0.0105
   30CHL1    H9 3364   2.587   5.012   5.066 -1.4247 -1.9207  1.1384
   30CHL1   C10 3365   2.737   4.972   5.208  0.3484 -0.1848 -0.5094
   30CHL1   C19 3366   2.892   4.993   5.203 -0.2175 -1.2581  0.5672
   30CHL1  H19A 3367   2.915   5.099   5.179  1.5388 -1.3522  1.6717
   30CHL1  H19B 3368   2.938   4.965   5.300 -0.6052  0.7953  1.3920
   30CHL1  H19C 3369   2.949   4.935   5.126 -0.1314  0.6664 -0.9019
   30CHL1    C1 3370   2.683   5.091   5.286  0.0456  0.5719  1.0830
   30CHL1   H1A 3371   2.715   5.188   5.241 -3.4319  1.6852  0.6987
   30CHL1   H1B 3372   2.572   5.096   5.289 -0.2264 -2.8311  0.7192
   30CHL1    C2 3373   2.729   5.085   5.432 -0.1390  0.0435  0.4362
   30CHL1   H2A 3374   2.688   5.168   5.493 -0.6629 -1.3161  2.0225
   30CHL1   H2B 3375   2.836   5.107   5.452  0.0547  0.7382 -1.1793
   30CHL1   C20 3376   2.744   4.944   4.490 -0.0429  0.2098  0.2639
   30CHL1   H20 3377   2.831   4.877   4.475 -0.9477 -0.9366  0.0104
   30CHL1   C21 3378   2.792   5.093   4.498  0.0940  0.3794  0.3213
   30CHL1  H21A 3379   2.708   5.162   4.522  0.1888  0.7483 -0.3875
   30CHL1  H21B 3380   2.824   5.130   4.398  1.7335 -2.2859 -0.2473
   30CHL1  H21C 3381   2.869   5.117   4.574  0.7031  1.0023 -0.4699
   30CHL1   C22 3382   2.643   4.928   4.374 -0.1512 -0.5722 -0.2587
   30CHL1  H22A 3383   2.603   4.824   4.368  0.3223 -0.8351  0.7862
   30CHL1  H22B 3384   2.557   4.992   4.400 -0.3597 -0.7472 -0.5092
   30CHL1   C23 3385   2.691   4.963   4.232  0.2746 -0.0175 -0.5090
   30CHL1  H23A 3386   2.614   4.923   4.163  0.8209 -1.2739 -0.4190
   30CHL1  H23B 3387   2.696   5.072   4.212  2.3096 -0.3009 -1.9338
   30CHL1   C24 3388   2.822   4.900   4.177 -0.2142  0.2073 -0.2913
   30CHL1  H24A 3389   2.903   4.947   4.237 -2.2972  0.0191  2.9521
   30CHL1  H24B 3390   2.825   4.790   4.196 -1.5295  0.1996  0.0351
   30CHL1   C25 3391   2.853   4.937   4.032  0.2604 -0.8684 -0.6555
   30CHL1   H25 3392   2.865   5.046   4.014 -1.1642 -0.8067 -1.4084
   30CHL1   C26 3393   2.997   4.876   3.999  0.4664  0.5109 -0.6606
   30CHL1  H26A 3394   3.038   4.926   3.908  1.3718  2.2001  0.6099
   30CHL1  H26B 3395   3.067   4.888   4.085 -0.4919  0.3270  0.1583
   30CHL1  H26C 3396   2.998   4.766   3.988  2.3104  0.2171  1.7401
   30CHL1   C27 3397   2.755   4.875   3.939 -0.0923 -0.3527  0.0143
   30CHL1  H27A 3398   2.800   4.876   3.838  3.6416  0.6561  1.5234
   30CHL1  H27B 3399   2.753   4.765   3.959 -0.2205 -0.3545 -0.0080
   30CHL1  H27C 3400   2.660   4.932   3.936  0.5440  0.7526  0.3995
   31CHL1    C3 3401   1.637   4.877   5.537  0.3173 -0.3932 -0.1206
   31CHL1    H3 3402   1.543   4.937   5.531 -0.4185 -1.6563 -2.5395
   31CHL1    O3 3403   1.643   4.820   5.671  0.5671 -0.4931  0.5276
   31CHL1   H3' 3404   1.725   4.771   5.665  1.1255  0.3324  1.2158
   31CHL1    C4 3405   1.622   4.764   5.430  0.1873 -0.1075  0.0520
   31CHL1   H4A 3406   1.712   4.700   5.434 -0.8526 -1.5788  1.9185
   31CHL1   H4B 3407   1.537   4.698   5.460 -0.6159  1.0808  0.4823
   31CHL1    C5 3408   1.603   4.824   5.293 -0.8958 -0.1427  0.3808
   31CHL1    C6 3409   1.497   4.802   5.212 -0.5522 -0.3296  0.2077
   31CHL1    H6 3410   1.419   4.740   5.257  0.2827  0.3505  2.7322
   31CHL1    C7 3411   1.482   4.854   5.071 -0.1563 -0.4449  0.8367
   31CHL1   H7A 3412   1.439   4.775   5.006 -1.0429  1.3365 -0.8540
   31CHL1   H7B 3413   1.408   4.936   5.059  0.1289 -0.2078  0.6788
   31CHL1    C8 3414   1.620   4.901   5.021 -0.5846 -0.3546  0.7445
   31CHL1    H8 3415   1.684   4.814   4.991  0.2582  0.9184 -1.3739
   31CHL1   C14 3416   1.601   4.981   4.890  1.0200  0.1395  0.4590
   31CHL1   H14 3417   1.530   5.064   4.909 -1.4189 -2.1653  2.0797
   31CHL1   C15 3418   1.525   4.904   4.774  0.1121 -0.4217  1.5666
   31CHL1  H15A 3419   1.562   4.801   4.756 -0.5055 -0.2831 -0.9523
   31CHL1  H15B 3420   1.416   4.910   4.795 -0.0702  3.0644  0.3145
   31CHL1   C16 3421   1.554   5.006   4.654 -0.0336  0.9627  0.1805
   31CHL1  H16A 3422   1.591   4.940   4.573  0.1456  1.8974 -0.5066
   31CHL1  H16B 3423   1.457   5.056   4.632 -1.0751 -0.8118  0.5272
   31CHL1   C17 3424   1.661   5.109   4.694  0.7814  0.2037  0.1940
   31CHL1   H17 3425   1.603   5.199   4.725 -1.3458  0.4192 -3.7104
   31CHL1   C13 3426   1.724   5.048   4.822  0.6334  0.3762 -0.7546
   31CHL1   C18 3427   1.824   4.934   4.773 -0.2014 -0.7065  0.0746
   31CHL1  H18A 3428   1.862   4.874   4.858  2.2196 -0.5878 -0.8636
   31CHL1  H18B 3429   1.770   4.862   4.708 -0.6601 -0.2799 -0.0298
   31CHL1  H18C 3430   1.913   4.977   4.723  0.0908 -0.2997  0.9220
   31CHL1   C12 3431   1.785   5.146   4.924 -0.2574  0.1340 -0.4728
   31CHL1  H12A 3432   1.877   5.190   4.880 -0.3180  1.5449  0.7474
   31CHL1  H12B 3433   1.721   5.234   4.949  1.5076  1.8898 -1.8826
   31CHL1   C11 3434   1.818   5.069   5.059  0.8814 -0.6256  0.0324
   31CHL1  H11A 3435   1.885   4.987   5.026  1.3030 -0.2517 -0.0572
   31CHL1  H11B 3436   1.865   5.140   5.130 -2.3140  1.1108  0.6229
   31CHL1    C9 3437   1.696   4.996   5.123 -0.0064 -0.4571 -0.2146
   31CHL1    H9 3438   1.625   5.079   5.145  0.4167 -0.3293  0.7196
   31CHL1   C10 3439   1.725   4.916   5.250 -0.4956 -0.1971  0.7130
   31CHL1   C19 3440   1.847   4.821   5.225 -0.0160  0.0457  0.3257
   31CHL1  H19A 3441   1.874   4.765   5.317 -0.9754 -1.7005 -0.4143
   31CHL1  H19B 3442   1.823   4.748   5.145  1.9653 -1.3895  0.9543
   31CHL1  H19C 3443   1.929   4.886   5.187 -0.0363  0.1800  0.5089
   31CHL1    C1 3444   1.759   5.007   5.365  0.5580 -0.7865 -0.0959
   31CHL1   H1A 3445   1.851   5.069   5.354  0.1201  0.0965  1.0289
   31CHL1   H1B 3446   1.680   5.085   5.363  0.8558 -0.4794  0.0172
   31CHL1    C2 3447   1.764   4.956   5.508  0.1884  1.3298  0.5603
   31CHL1   H2A 3448   1.791   5.045   5.568  1.7196  1.6669 -0.5561
   31CHL1   H2B 3449   1.854   4.891   5.508 -0.3079  0.6150  1.6187
   31CHL1   C20 3450   1.746   5.155   4.573  0.1689  0.0470 -0.3675
   31CHL1   H20 3451   1.791   5.067   4.522  0.6590  0.2509 -0.2894
   31CHL1   C21 3452   1.852   5.248   4.627  0.2661 -0.1968 -0.7729
   31CHL1  H21A 3453   1.907   5.309   4.551  2.1785  2.8907  2.7325
   31CHL1  H21B 3454   1.924   5.183   4.682 -2.1559 -2.3087  0.0767
   31CHL1  H21C 3455   1.801   5.319   4.695 -0.8675 -1.3756 -0.3488
   31CHL1   C22 3456   1.653   5.225   4.470  0.2509  0.0719 -0.0150
   31CHL1  H22A 3457   1.577   5.154   4.432  0.9541 -1.8808  1.9757
   31CHL1  H22B 3458   1.591   5.308   4.511  0.0940  1.3491 -2.6395
   31CHL1   C23 3459   1.728   5.289   4.344 -0.0919  0.2057 -0.2586
   31CHL1  H23A 3460   1.649   5.315   4.271  0.5826  3.3851 -0.0126
   31CHL1  H23B 3461   1.782   5.382   4.374 -0.1291  0.3810 -0.7260
   31CHL1   C24 3462   1.828   5.197   4.278  0.9259 -0.7555  0.7919
   31CHL1  H24A 3463   1.895   5.165   4.360 -0.9611 -0.1492  2.6529
   31CHL1  H24B 3464   1.780   5.106   4.237 -1.8924  0.5728  0.9433
   31CHL1   C25 3465   1.897   5.247   4.153 -0.4104 -0.2663  0.1314
   31CHL1   H25 3466   1.946   5.339   4.192 -0.8093 -0.9692  2.4073
   31CHL1   C26 3467   1.996   5.151   4.099 -0.3087 -0.1063  0.2143
   31CHL1  H26A 3468   2.085   5.143   4.165  0.4698 -0.0836 -0.8087
   31CHL1  H26B 3469   1.949   5.051   4.084 -1.7294  0.4236  0.9007
   31CHL1  H26C 3470   2.031   5.190   4.002 -1.7409  1.3463  0.2324
   31CHL1   C27 3471   1.799   5.277   4.037 -0.0344 -1.0096  0.0544
   31CHL1  H27A 3472   1.724   5.353   4.069  0.7224 -0.0057 -0.4968
   31CHL1  H27B 3473   1.850   5.306   3.943  1.6629 -1.0582  0.9321
   31CHL1  H27C 3474   1.739   5.186   4.014 -0.5659 -1.0469  1.4957
   32CHL1    C3 3475   4.330   0.999   5.377 -0.5184  0.0472 -0.0783
   32CHL1    H3 3476   4.430   0.961   5.346 -0.3892  1.1534 -1.0738
   32CHL1    O3 3477   4.312   0.950   5.506 -0.2866 -0.0217  0.3503
   32CHL1   H3' 3478   4.218   0.931   5.512 -0.0885 -0.9393  0.7420
   32CHL1    C4 3479   4.322   1.150   5.374 -0.7648  0.2731  0.3759
   32CHL1   H4A 3480   4.232   1.199   5.417  1.6746  3.9760  1.7291
   32CHL1   H4B 3481   4.401   1.206   5.427  0.5516  0.6661 -1.8595
   32CHL1    C5 3482   4.340   1.191   5.232  0.0123 -0.2394 -0.0917
   32CHL1    C6 3483   4.433   1.282   5.193 -0.2834 -0.4348  0.6684
   32CHL1    H6 3484   4.516   1.316   5.257  0.4091 -0.6595 -0.0874
   32CHL1    C7 3485   4.444   1.338   5.055 -0.1174  0.5841 -0.3785
   32CHL1   H7A 3486   4.459   1.448   5.064 -0.1398  0.6961 -1.5924
   32CHL1   H7B 3487   4.525   1.289   4.997 -1.6013 -1.1379 -1.1144
   32CHL1    C8 3488   4.320   1.316   4.964  0.1085 -0.0885  0.1362
   32CHL1    H8 3489   4.255   1.397   5.005  1.8428  0.5035  1.8531
   32CHL1   C14 3490   4.361   1.331   4.819 -0.1650  0.2509 -0.3530
   32CHL1   H14 3491   4.437   1.254   4.793  0.6265 -0.0076  2.3914
   32CHL1   C15 3492   4.429   1.468   4.782 -0.5934  0.1548 -0.4333
   32CHL1  H15A 3493   4.389   1.550   4.846  0.4821  0.5483 -0.2347
   32CHL1  H15B 3494   4.538   1.452   4.800 -0.4747  1.2729 -0.0881
   32CHL1   C16 3495   4.397   1.484   4.634 -0.1293 -0.4187  0.0239
   32CHL1  H16A 3496   4.342   1.581   4.628  1.1584  0.4585  1.6268
   32CHL1  H16B 3497   4.487   1.495   4.570 -1.8976 -0.6164 -2.6480
   32CHL1   C17 3498   4.314   1.362   4.593 -0.1684  0.1900  0.7255
   32CHL1   H17 3499   4.386   1.278   4.577 -1.5896 -0.8482 -0.5403
   32CHL1   C13 3500   4.241   1.327   4.728  0.9924  0.7271  0.2585
   32CHL1   C18 3501   4.140   1.442   4.756  0.0246 -0.0657  0.4822
   32CHL1  H18A 3502   4.137   1.476   4.861  0.1199  1.1552  0.1004
   32CHL1  H18B 3503   4.180   1.536   4.714 -0.0903 -0.0687  0.3655
   32CHL1  H18C 3504   4.041   1.428   4.706 -0.2895 -2.4641  1.5953
   32CHL1   C12 3505   4.180   1.186   4.736 -0.3305  0.0049 -0.2016
   32CHL1  H12A 3506   4.087   1.197   4.675 -2.1332 -3.5490  1.6367
   32CHL1  H12B 3507   4.250   1.106   4.704 -0.1415 -0.1979  0.7055
   32CHL1   C11 3508   4.141   1.160   4.883 -0.1587  0.1127 -0.3187
   32CHL1  H11A 3509   4.063   1.234   4.912 -1.2132 -0.8100 -0.7319
   32CHL1  H11B 3510   4.089   1.064   4.900  1.4161 -0.4266  1.9787
   32CHL1    C9 3511   4.257   1.172   4.987 -0.4826  0.2958  0.0733
   32CHL1    H9 3512   4.344   1.111   4.955 -0.3484  1.1186 -1.2099
   32CHL1   C10 3513   4.231   1.133   5.137  0.5964 -0.4930 -0.3935
   32CHL1   C19 3514   4.098   1.193   5.185 -0.5382  0.1727  0.1172
   32CHL1  H19A 3515   4.017   1.153   5.121  1.3942 -1.6065 -1.3252
   32CHL1  H19B 3516   4.057   1.164   5.284 -1.9455  0.6002 -0.3162
   32CHL1  H19C 3517   4.087   1.304   5.181  0.3030  0.2513 -0.2492
   32CHL1    C1 3518   4.223   0.977   5.148  0.3033  0.4606  0.3573
   32CHL1   H1A 3519   4.139   0.934   5.088 -0.3449 -0.5351  1.9129
   32CHL1   H1B 3520   4.311   0.935   5.093  0.7042  0.1342  1.2292
   32CHL1    C2 3521   4.225   0.921   5.289 -0.0333  0.1664 -0.4297
   32CHL1   H2A 3522   4.255   0.813   5.286  1.3009  0.2860  3.2232
   32CHL1   H2B 3523   4.129   0.941   5.342  0.9049  1.0010  1.0356
   32CHL1   C20 3524   4.234   1.386   4.457  0.0815 -0.3283 -0.2222
   32CHL1   H20 3525   4.162   1.465   4.486 -0.8751 -1.7506  1.4851
   32CHL1   C21 3526   4.141   1.272   4.397  0.2468 -0.7838  0.2632
   32CHL1  H21A 3527   4.060   1.247   4.469 -0.9969 -3.1294 -1.7958
   32CHL1  H21B 3528   4.217   1.196   4.369 -0.0524 -0.5369 -1.3100
   32CHL1  H21C 3529   4.093   1.309   4.303 -0.8461 -0.5873  0.8816
   32CHL1   C22 3530   4.315   1.453   4.343 -0.3443 -1.4628 -0.3895
   32CHL1  H22A 3531   4.242   1.476   4.262  1.5857  1.0222 -1.5649
   32CHL1  H22B 3532   4.356   1.551   4.374  0.1772 -0.7477 -3.0503
   32CHL1   C23 3533   4.432   1.369   4.296 -0.0834 -0.5686  0.1473
   32CHL1  H23A 3534   4.507   1.372   4.377 -1.0859 -1.5850  1.1511
   32CHL1  H23B 3535   4.401   1.263   4.286 -0.9189 -0.7270  3.2984
   32CHL1   C24 3536   4.495   1.429   4.163 -0.2228  0.5924  0.4579
   32CHL1  H24A 3537   4.418   1.440   4.084 -1.2574 -0.8745  1.2128
   32CHL1  H24B 3538   4.532   1.529   4.192  1.8990 -0.7586  2.8458
   32CHL1   C25 3539   4.613   1.344   4.108  0.3914  0.0183 -0.1631
   32CHL1   H25 3540   4.698   1.358   4.179 -0.4081  0.6697  0.6895
   32CHL1   C26 3541   4.582   1.190   4.110  0.2161 -0.1315  0.0912
   32CHL1  H26A 3542   4.658   1.126   4.060 -0.6044 -1.9402  1.0434
   32CHL1  H26B 3543   4.586   1.154   4.215 -0.0477 -0.2890  0.0476
   32CHL1  H26C 3544   4.483   1.179   4.060  0.8674 -1.1288 -1.0339
   32CHL1   C27 3545   4.684   1.387   3.978 -0.1203  0.7827 -0.8345
   32CHL1  H27A 3546   4.623   1.369   3.887  2.7286 -0.5044 -2.6360
   32CHL1  H27B 3547   4.699   1.497   3.979  0.8169  0.6555  0.1112
   32CHL1  H27C 3548   4.782   1.336   3.970 -0.0133  0.5016  1.5411
   33CHL1    C3 3549   0.914   3.470   5.526 -0.9510  0.2493  0.8431
   33CHL1    H3 3550   0.815   3.516   5.502 -1.3079 -1.2128 -0.6604
   33CHL1    O3 3551   0.907   3.462   5.664 -0.0889  0.3827 -0.0753
   33CHL1   H3' 3552   0.992   3.442   5.702 -0.6168 -2.5233 -0.2312
   33CHL1    C4 3553   0.925   3.328   5.468 -0.0168  0.8835  0.0611
   33CHL1   H4A 3554   1.007   3.283   5.528 -0.2773 -0.1172 -0.3226
   33CHL1   H4B 3555   0.833   3.273   5.500  0.9175 -1.6923 -1.3741
   33CHL1    C5 3556   0.955   3.329   5.318 -0.4569  0.5117 -1.1143
   33CHL1    C6 3557   0.884   3.248   5.229 -0.2955  0.0307 -0.4016
   33CHL1    H6 3558   0.808   3.181   5.272  0.9499 -1.7179 -0.8036
   33CHL1    C7 3559   0.899   3.240   5.081 -0.3178  0.5059  0.2848
   33CHL1   H7A 3560   0.899   3.136   5.043  0.8833  0.7341 -0.4116
   33CHL1   H7B 3561   0.809   3.293   5.043 -0.9096 -0.3788  0.4246
   33CHL1    C8 3562   1.024   3.315   5.024  0.2265  0.8101  0.9717
   33CHL1    H8 3563   1.110   3.247   5.041 -0.3012 -0.0653  0.2623
   33CHL1   C14 3564   1.002   3.358   4.884  0.0819 -0.2696  0.1649
   33CHL1   H14 3565   0.928   3.441   4.883  0.3975  0.0239  0.6454
   33CHL1   C15 3566   0.958   3.241   4.784  0.0128 -0.9583 -0.1709
   33CHL1  H15A 3567   1.009   3.146   4.808 -0.7047 -0.9277  1.7194
   33CHL1  H15B 3568   0.847   3.234   4.792 -0.2179  0.8551 -1.0833
   33CHL1   C16 3569   1.009   3.298   4.654 -0.1167  0.7186 -0.0012
   33CHL1  H16A 3570   1.096   3.239   4.619 -1.0107 -2.4968  2.6492
   33CHL1  H16B 3571   0.937   3.298   4.569 -0.8344  0.6536  0.6000
   33CHL1   C17 3572   1.068   3.441   4.674 -0.1555 -0.5248  0.1899
   33CHL1   H17 3573   0.983   3.512   4.686 -0.5731 -0.9041 -0.4617
   33CHL1   C13 3574   1.122   3.431   4.817  0.4468  0.2363  0.2675
   33CHL1   C18 3575   1.239   3.336   4.808 -0.1405 -0.7924 -0.0696
   33CHL1  H18A 3576   1.202   3.231   4.802  0.2515 -0.9925  0.9012
   33CHL1  H18B 3577   1.307   3.352   4.722 -0.9640 -2.8387 -1.1720
   33CHL1  H18C 3578   1.298   3.342   4.902  0.6933 -0.5508 -0.5981
   33CHL1   C12 3579   1.163   3.553   4.896 -0.5184 -0.4269 -0.6321
   33CHL1  H12A 3580   1.269   3.579   4.877 -0.0956 -1.0260  0.7781
   33CHL1  H12B 3581   1.094   3.636   4.869 -2.7685 -1.4580  1.5787
   33CHL1   C11 3582   1.163   3.530   5.047  0.1721 -0.0314  0.1455
   33CHL1  H11A 3583   1.262   3.485   5.069  0.7889  0.5341 -1.3095
   33CHL1  H11B 3584   1.162   3.627   5.101 -0.8623 -0.1087  0.2872
   33CHL1    C9 3585   1.048   3.445   5.105 -0.5587  0.1617 -0.5517
   33CHL1    H9 3586   0.958   3.505   5.083 -0.4971 -0.4080 -2.5512
   33CHL1   C10 3587   1.065   3.425   5.263  0.8210  0.3246 -0.6882
   33CHL1   C19 3588   1.214   3.381   5.292 -1.0047 -0.4149 -0.0568
   33CHL1  H19A 3589   1.228   3.350   5.398  0.2039  0.2435 -0.0063
   33CHL1  H19B 3590   1.248   3.300   5.224  3.0282  0.4513  0.6395
   33CHL1  H19C 3591   1.285   3.467   5.285  2.0267 -2.7766 -0.6618
   33CHL1    C1 3592   1.032   3.566   5.338 -0.5175  0.1293  1.0120
   33CHL1   H1A 3593   1.121   3.629   5.317 -1.7591  2.0309  1.1954
   33CHL1   H1B 3594   0.944   3.612   5.289 -0.5759 -0.8468  0.1501
   33CHL1    C2 3595   1.029   3.565   5.485  0.3803 -0.1962 -0.2401
   33CHL1   H2A 3596   1.021   3.671   5.519  2.0648  0.6021 -2.0909
   33CHL1   H2B 3597   1.128   3.533   5.524  1.9603  1.7984 -2.3170
   33CHL1   C20 3598   1.155   3.482   4.553  1.0463 -0.1547  0.1247
   33CHL1   H20 3599   1.228   3.403   4.524  0.5096 -0.7984  0.4903
   33CHL1   C21 3600   1.230   3.607   4.583  0.2584  0.1245  0.1164
   33CHL1  H21A 3601   1.306   3.590   4.662 -0.5928 -1.8741  0.5706
   33CHL1  H21B 3602   1.154   3.685   4.606  1.3135  0.6802  1.9130
   33CHL1  H21C 3603   1.287   3.639   4.492 -0.5445  0.7505 -0.1801
   33CHL1   C22 3604   1.067   3.498   4.426 -0.3729 -0.5606 -0.0566
   33CHL1  H22A 3605   1.037   3.398   4.389  2.4348 -0.1964 -3.8413
   33CHL1  H22B 3606   0.983   3.565   4.457 -2.1910 -0.8848 -3.7107
   33CHL1   C23 3607   1.142   3.561   4.307 -0.2314 -0.1542 -0.0004
   33CHL1  H23A 3608   1.174   3.662   4.341  1.4136  0.0401 -1.9280
   33CHL1  H23B 3609   1.239   3.508   4.300 -0.4994 -0.4596 -1.8891
   33CHL1   C24 3610   1.064   3.558   4.175 -0.2030 -0.2784  0.2779
   33CHL1  H24A 3611   1.038   3.454   4.148  3.0678 -0.9749 -0.7316
   33CHL1  H24B 3612   0.977   3.626   4.186 -0.4800 -0.8050  1.4093
   33CHL1   C25 3613   1.149   3.629   4.068 -0.4915 -0.3834  0.6597
   33CHL1   H25 3614   1.197   3.724   4.098 -0.2991 -0.0417 -0.6674
   33CHL1   C26 3615   1.261   3.548   4.022  0.2087  0.6542 -0.1326
   33CHL1  H26A 3616   1.229   3.452   3.976  0.1378  1.1071 -1.0498
   33CHL1  H26B 3617   1.316   3.601   3.942 -0.0464  1.1001 -0.0159
   33CHL1  H26C 3618   1.330   3.522   4.105  0.4175 -2.4033 -1.1355
   33CHL1   C27 3619   1.052   3.673   3.946 -0.6212 -0.2388  0.3493
   33CHL1  H27A 3620   0.998   3.582   3.912  0.8499 -1.1481  0.3674
   33CHL1  H27B 3621   0.979   3.750   3.978 -2.1593 -0.5958 -2.0548
   33CHL1  H27C 3622   1.110   3.719   3.864 -2.7401 -0.5889 -1.4382
   34CHL1    C3 3623   2.069   5.379   5.621 -0.0701  0.0210  0.5414
   34CHL1    H3 3624   2.162   5.434   5.596 -0.5640 -0.4775 -3.0364
   34CHL1    O3 3625   2.082   5.318   5.748  0.1940 -0.0547  0.4154
   34CHL1   H3' 3626   2.002   5.266   5.762  0.0553  0.0997  0.2028
   34CHL1    C4 3627   1.950   5.468   5.609 -0.3527 -0.4999  0.4438
   34CHL1   H4A 3628   1.865   5.399   5.629 -1.1017  0.1714 -0.3186
   34CHL1   H4B 3629   1.967   5.536   5.696 -0.2527  0.9064 -0.6394
   34CHL1    C5 3630   1.940   5.533   5.474 -0.4506 -0.2097  0.2289
   34CHL1    C6 3631   1.924   5.664   5.453  0.5563 -0.7806 -0.1415
   34CHL1    H6 3632   1.914   5.725   5.544  2.2089  0.4954 -0.7754
   34CHL1    C7 3633   1.913   5.738   5.322 -0.0946 -1.4603  0.0305
   34CHL1   H7A 3634   1.844   5.825   5.330  2.0633  0.2532  0.8931
   34CHL1   H7B 3635   2.007   5.791   5.299 -1.0117 -0.2817 -1.1979
   34CHL1    C8 3636   1.892   5.644   5.200  0.6524  1.1531  0.2183
   34CHL1    H8 3637   1.783   5.624   5.190  0.6232  1.3148  0.2256
   34CHL1   C14 3638   1.925   5.720   5.073  0.0165  0.2792 -0.3296
   34CHL1   H14 3639   2.027   5.760   5.091  0.1716 -1.0155  2.0581
   34CHL1   C15 3640   1.846   5.852   5.043 -0.3613 -0.3378  0.1702
   34CHL1  H15A 3641   1.738   5.844   5.070  0.1638  1.5010  3.3156
   34CHL1  H15B 3642   1.893   5.935   5.099 -3.1516  0.7627  1.0430
   34CHL1   C16 3643   1.873   5.863   4.890  0.1437  0.3012 -0.2121
   34CHL1  H16A 3644   1.774   5.852   4.840  1.2506 -0.9061 -2.2774
   34CHL1  H16B 3645   1.911   5.964   4.862  0.4852  0.4463  0.7557
   34CHL1   C17 3646   1.961   5.743   4.847 -0.0781 -0.2877  0.3223
   34CHL1   H17 3647   2.059   5.780   4.883 -1.0911  1.3012  1.5690
   34CHL1   C13 3648   1.936   5.634   4.951  0.6142 -0.4830  0.3347
   34CHL1   C18 3649   1.789   5.572   4.925 -0.5938 -0.1630 -0.3423
   34CHL1  H18A 3650   1.771   5.489   4.996  2.1610  0.2632  0.9711
   34CHL1  H18B 3651   1.711   5.652   4.918  0.2941  0.6443 -1.5929
   34CHL1  H18C 3652   1.788   5.520   4.827 -0.7604 -0.6776 -0.0664
   34CHL1   C12 3653   2.045   5.525   4.972  0.0274  0.2580  0.6877
   34CHL1  H12A 3654   2.054   5.460   4.882  1.2566 -0.2287  1.1361
   34CHL1  H12B 3655   2.140   5.576   5.000 -0.5988  0.5837  2.3969
   34CHL1   C11 3656   2.013   5.435   5.096  0.3063 -0.4310 -0.4082
   34CHL1  H11A 3657   1.925   5.376   5.063  1.1621 -0.0871 -3.6943
   34CHL1  H11B 3658   2.097   5.364   5.111 -0.3584 -1.9145 -3.0942
   34CHL1    C9 3659   1.978   5.517   5.220 -0.1454  0.1289 -0.9879
   34CHL1    H9 3660   2.079   5.561   5.238 -0.1396 -0.3733  0.2991
   34CHL1   C10 3661   1.953   5.442   5.352  0.1156  0.1463  0.3981
   34CHL1   C19 3662   1.810   5.377   5.343  0.2058 -0.3658  0.2975
   34CHL1  H19A 3663   1.800   5.302   5.262  1.1117  0.1432 -0.2899
   34CHL1  H19B 3664   1.798   5.309   5.431  0.2614  0.4279  0.9270
   34CHL1  H19C 3665   1.731   5.455   5.338  0.1718 -0.4569 -0.6308
   34CHL1    C1 3666   2.052   5.326   5.374 -0.1235 -0.1331  0.1902
   34CHL1   H1A 3667   2.039   5.243   5.302  1.0510  0.2538 -0.4940
   34CHL1   H1B 3668   2.152   5.371   5.355 -0.9528  2.6773  1.8189
   34CHL1    C2 3669   2.059   5.269   5.514  0.8394  0.5254 -0.1253
   34CHL1   H2A 3670   2.148   5.203   5.516  0.2674 -0.3507 -1.5819
   34CHL1   H2B 3671   1.979   5.194   5.530 -0.6775  1.1816 -3.6359
   34CHL1   C20 3672   1.962   5.707   4.697 -0.3870  0.5389 -0.2534
   34CHL1   H20 3673   2.011   5.610   4.672  0.0935  1.3762 -2.9775
   34CHL1   C21 3674   2.058   5.811   4.638  0.0695 -0.5678  0.4749
   34CHL1  H21A 3675   2.094   5.785   4.536  0.4406 -2.2239  1.0152
   34CHL1  H21B 3676   2.149   5.814   4.701  0.8042  3.0687 -0.4803
   34CHL1  H21C 3677   2.012   5.913   4.637  1.0925 -0.0639 -1.9879
   34CHL1   C22 3678   1.827   5.683   4.621  0.2314  0.3330  0.5212
   34CHL1  H22A 3679   1.786   5.584   4.651 -1.6215  1.1785  0.9548
   34CHL1  H22B 3680   1.743   5.750   4.651  0.3247  0.2970  0.8640
   34CHL1   C23 3681   1.844   5.698   4.463  0.1641  0.1594 -0.5382
   34CHL1  H23A 3682   1.908   5.786   4.439  0.6323 -0.2366 -0.7653
   34CHL1  H23B 3683   1.904   5.609   4.433 -1.0217 -1.4407  1.5324
   34CHL1   C24 3684   1.721   5.703   4.373  0.9182 -0.3065 -0.0047
   34CHL1  H24A 3685   1.654   5.619   4.399  1.2309 -0.2543  1.0080
   34CHL1  H24B 3686   1.663   5.797   4.382 -0.2541 -1.0824  0.7404
   34CHL1   C25 3687   1.740   5.664   4.221  0.5867 -0.1933  0.0974
   34CHL1   H25 3688   1.805   5.575   4.209  1.7768  0.8058 -1.1013
   34CHL1   C26 3689   1.603   5.637   4.146 -0.0475  0.2556  0.6391
   34CHL1  H26A 3690   1.546   5.551   4.188 -2.3094  1.1886 -0.3350
   34CHL1  H26B 3691   1.538   5.727   4.149 -0.0510  0.2346  1.3643
   34CHL1  H26C 3692   1.635   5.612   4.043 -0.1290 -1.4099  0.9902
   34CHL1   C27 3693   1.797   5.783   4.150 -0.2291 -0.0080 -0.2751
   34CHL1  H27A 3694   1.900   5.815   4.176 -0.4857  0.2394  0.4470
   34CHL1  H27B 3695   1.794   5.769   4.040  0.2046  1.2277 -0.4637
   34CHL1  H27C 3696   1.724   5.866   4.166 -0.0491  0.6681 -2.5303
   35CHL1    C3 3697   2.485   5.632   5.608  0.4182  0.2999  0.5332
   35CHL1    H3 3698   2.512   5.740   5.603 -0.8214  0.5669 -2.0650
   35CHL1    O3 3699   2.437   5.608   5.738 -0.7522  0.0323 -0.0122
   35CHL1   H3' 3700   2.368   5.673   5.750  0.3338  1.1574  0.2560
   35CHL1    C4 3701   2.370   5.596   5.515  1.2099  0.7185  0.6834
   35CHL1   H4A 3702   2.367   5.487   5.533  0.0156 -0.4416 -4.6315
   35CHL1   H4B 3703   2.273   5.642   5.545  0.3376  0.1257 -1.0486
   35CHL1    C5 3704   2.404   5.616   5.374  0.1280 -0.3161  0.4426
   35CHL1    C6 3705   2.325   5.699   5.302  0.0842 -0.1029 -0.9885
   35CHL1    H6 3706   2.242   5.752   5.352 -0.5612  0.9183 -3.0196
   35CHL1    C7 3707   2.352   5.732   5.156 -0.3428  0.8048  0.5722
   35CHL1   H7A 3708   2.256   5.738   5.102 -1.0100 -2.4465  1.1800
   35CHL1   H7B 3709   2.400   5.831   5.146  1.6544  0.0613  2.1363
   35CHL1    C8 3710   2.450   5.628   5.085 -0.4133 -0.0781 -0.4089
   35CHL1    H8 3711   2.399   5.532   5.063 -0.8772  0.5368 -2.2700
   35CHL1   C14 3712   2.505   5.670   4.948 -0.2176  0.1657  0.2650
   35CHL1   H14 3713   2.543   5.772   4.972 -0.8828  0.7403 -1.0320
   35CHL1   C15 3714   2.408   5.690   4.837 -0.4654 -0.9033 -0.3657
   35CHL1  H15A 3715   2.332   5.609   4.841 -1.4404 -0.1279 -2.0020
   35CHL1  H15B 3716   2.348   5.782   4.846  2.0883  0.9797 -1.2132
   35CHL1   C16 3717   2.491   5.690   4.717 -0.3949  0.1444 -0.8046
   35CHL1  H16A 3718   2.461   5.597   4.663 -0.8876 -1.7020  2.3803
   35CHL1  H16B 3719   2.476   5.779   4.654 -1.9424  0.4190 -0.0814
   35CHL1   C17 3720   2.639   5.659   4.759 -0.1253  0.1891  0.6386
   35CHL1   H17 3721   2.682   5.759   4.784  0.3290 -0.2134  1.4876
   35CHL1   C13 3722   2.620   5.589   4.893  0.1383 -0.1581 -0.2371
   35CHL1   C18 3723   2.570   5.441   4.871  0.9161  0.0485 -0.4503
   35CHL1  H18A 3724   2.533   5.380   4.956  3.0863 -0.1898  0.3812
   35CHL1  H18B 3725   2.486   5.446   4.798  0.6057  0.3515 -0.0808
   35CHL1  H18C 3726   2.643   5.381   4.813 -0.2384 -1.2392 -0.6238
   35CHL1   C12 3727   2.738   5.605   4.987 -0.1522  0.4272 -0.0505
   35CHL1  H12A 3728   2.810   5.532   4.945 -0.2004  1.2126 -1.5963
   35CHL1  H12B 3729   2.788   5.704   4.987 -1.1769  0.9840  1.3217
   35CHL1   C11 3730   2.693   5.549   5.123 -0.0202  0.3702 -0.0615
   35CHL1  H11A 3731   2.686   5.438   5.127 -1.1505  0.4128 -0.4585
   35CHL1  H11B 3732   2.779   5.575   5.188  1.6271 -0.6118 -1.7603
   35CHL1    C9 3733   2.569   5.610   5.183 -0.6019 -0.7918 -0.9130
   35CHL1    H9 3734   2.612   5.710   5.203 -0.6304 -1.0385  0.5196
   35CHL1   C10 3735   2.527   5.554   5.322 -0.5065 -0.0253 -0.5097
   35CHL1   C19 3736   2.496   5.402   5.313 -0.0655 -0.4027  0.1075
   35CHL1  H19A 3737   2.482   5.349   5.409 -3.9852  0.5297  0.1815
   35CHL1  H19B 3738   2.401   5.397   5.255  0.1278  2.4968 -0.6046
   35CHL1  H19C 3739   2.576   5.350   5.255 -0.0968  0.6608 -0.9230
   35CHL1    C1 3740   2.639   5.578   5.420 -0.3510  0.1157 -0.6114
   35CHL1   H1A 3741   2.722   5.512   5.389 -0.0010 -0.7208  1.8683
   35CHL1   H1B 3742   2.682   5.679   5.407  1.4972 -0.6195 -0.5279
   35CHL1    C2 3743   2.607   5.543   5.567 -0.5246 -0.2949 -0.4341
   35CHL1   H2A 3744   2.695   5.569   5.630  1.3653 -1.9027 -2.2449
   35CHL1   H2B 3745   2.594   5.434   5.586  1.1569 -0.6296 -1.0412
   35CHL1   C20 3746   2.718   5.594   4.642 -0.3365 -0.1495  0.1452
   35CHL1   H20 3747   2.685   5.488   4.641 -1.0133 -0.0272  2.6100
   35CHL1   C21 3748   2.872   5.606   4.678 -0.0444  0.4447 -0.1547
   35CHL1  H21A 3749   2.888   5.704   4.727 -0.1157 -1.0768  3.1647
   35CHL1  H21B 3750   2.933   5.577   4.590  1.4064 -2.3300  1.5954
   35CHL1  H21C 3751   2.899   5.536   4.760  2.7381  0.7802 -0.6707
   35CHL1   C22 3752   2.682   5.647   4.502 -0.0309  0.3236  0.0655
   35CHL1  H22A 3753   2.573   5.657   4.483 -0.9659 -4.2458  1.7899
   35CHL1  H22B 3754   2.743   5.737   4.478  0.4567  0.0158  0.1389
   35CHL1   C23 3755   2.720   5.541   4.397 -0.4281 -0.6060 -0.4138
   35CHL1  H23A 3756   2.827   5.513   4.404 -0.1622  0.2795 -0.7496
   35CHL1  H23B 3757   2.656   5.452   4.413 -0.3655 -0.3780  1.2638
   35CHL1   C24 3758   2.708   5.590   4.249 -0.3993 -0.3654 -0.2811
   35CHL1  H24A 3759   2.598   5.593   4.234 -0.1942 -0.2041 -1.9376
   35CHL1  H24B 3760   2.748   5.693   4.237 -0.4161  0.0323  2.2908
   35CHL1   C25 3761   2.772   5.499   4.146 -0.4237 -0.1587  0.4179
   35CHL1   H25 3762   2.883   5.501   4.148 -0.2967 -3.4796  0.9168
   35CHL1   C26 3763   2.729   5.355   4.170  0.0824  0.0445 -0.0494
   35CHL1  H26A 3764   2.762   5.301   4.079 -0.3124  1.0558 -0.8107
   35CHL1  H26B 3765   2.774   5.317   4.264  0.4954  1.4138  0.3329
   35CHL1  H26C 3766   2.618   5.345   4.172  0.0755 -1.7137 -3.3368
   35CHL1   C27 3767   2.731   5.550   4.007  0.6424 -0.1087  0.2766
   35CHL1  H27A 3768   2.771   5.499   3.917  1.2400 -1.7478  1.4284
   35CHL1  H27B 3769   2.621   5.537   3.995  0.3435  1.5877  0.9226
   35CHL1  H27C 3770   2.753   5.658   3.992  1.1985 -0.4412 -1.5693
   36CHL1    C3 3771   0.842   4.003   5.641 -0.0709  0.0106 -0.3321
   36CHL1    H3 3772   0.946   4.028   5.612  0.4906 -0.8521  0.8470
   36CHL1    O3 3773   0.839   4.000   5.783  0.2113 -0.1913 -0.0855
   36CHL1   H3' 3774   0.746   4.001   5.806  0.3289 -0.7104  0.4677
   36CHL1    C4 3775   0.739   4.107   5.582  0.2586 -0.2344  0.3938
   36CHL1   H4A 3776   0.635   4.082   5.611 -0.6956  2.1729 -0.7166
   36CHL1   H4B 3777   0.752   4.205   5.633 -2.4458 -0.8632  2.5430
   36CHL1    C5 3778   0.750   4.102   5.428 -0.1878  0.7433 -0.3406
   36CHL1    C6 3779   0.778   4.214   5.363 -0.3989  0.7345 -0.4912
   36CHL1    H6 3780   0.801   4.304   5.423  2.2397  1.5859 -2.5925
   36CHL1    C7 3781   0.776   4.229   5.216  0.0237 -0.4716 -0.0287
   36CHL1   H7A 3782   0.735   4.331   5.200 -2.4986 -0.9879  2.4332
   36CHL1   H7B 3783   0.884   4.240   5.191 -0.1533  4.2381  0.3718
   36CHL1    C8 3784   0.725   4.103   5.145 -0.4537 -0.4071 -0.6393
   36CHL1    H8 3785   0.614   4.113   5.140 -0.3821  1.5653  0.3942
   36CHL1   C14 3786   0.783   4.104   5.001 -0.0699 -1.0446  0.4830
   36CHL1   H14 3787   0.894   4.108   5.008 -0.0031  1.1740 -0.8890
   36CHL1   C15 3788   0.757   4.233   4.913  0.4281 -0.4806  1.0112
   36CHL1  H15A 3789   0.649   4.260   4.921  0.5799  0.6134 -0.2412
   36CHL1  H15B 3790   0.817   4.325   4.933  0.0919 -0.1389  0.4735
   36CHL1   C16 3791   0.781   4.179   4.771  0.3647  0.6698  0.3561
   36CHL1  H16A 3792   0.688   4.192   4.712 -0.0877  0.1403  0.9431
   36CHL1  H16B 3793   0.871   4.232   4.731  0.5853 -0.1462 -0.2449
   36CHL1   C17 3794   0.808   4.020   4.782  0.3482  0.0381 -0.2167
   36CHL1   H17 3795   0.916   3.998   4.800  0.4177  0.7449  0.2334
   36CHL1   C13 3796   0.742   3.983   4.916 -0.8028  0.4701  0.0469
   36CHL1   C18 3797   0.592   3.968   4.899 -0.1938  0.2650  0.4285
   36CHL1  H18A 3798   0.541   3.943   4.994 -0.0485 -0.2557  0.3722
   36CHL1  H18B 3799   0.544   4.060   4.858  1.4478  1.5104  1.1865
   36CHL1  H18C 3800   0.564   3.884   4.833 -0.1059 -1.0597  2.0165
   36CHL1   C12 3801   0.800   3.857   4.988 -0.5922  0.1135 -0.0605
   36CHL1  H12A 3802   0.773   3.769   4.926  1.1377 -0.6175  0.1618
   36CHL1  H12B 3803   0.910   3.871   4.995 -0.9386  3.4593  0.0426
   36CHL1   C11 3804   0.754   3.842   5.136  0.8695 -0.4075  0.6052
   36CHL1  H11A 3805   0.644   3.838   5.122  0.7545  1.7403  0.6254
   36CHL1  H11B 3806   0.787   3.753   5.194 -1.1258 -0.0268  2.4425
   36CHL1    C9 3807   0.773   3.974   5.215  0.4108 -0.9743 -0.4976
   36CHL1    H9 3808   0.883   3.992   5.212  0.1013  1.1646 -2.9515
   36CHL1   C10 3809   0.730   3.972   5.364  0.0066  0.4026 -0.5648
   36CHL1   C19 3810   0.578   3.933   5.372  0.6974 -1.0668 -0.1685
   36CHL1  H19A 3811   0.534   3.932   5.474 -0.3534 -1.6937 -0.6024
   36CHL1  H19B 3812   0.515   4.006   5.317 -1.1315 -0.2267  2.7920
   36CHL1  H19C 3813   0.558   3.831   5.330 -0.0229 -0.6296 -0.9201
   36CHL1    C1 3814   0.804   3.859   5.435 -0.5646 -0.0606  0.1843
   36CHL1   H1A 3815   0.774   3.755   5.413  0.9131 -0.3851 -0.3969
   36CHL1   H1B 3816   0.912   3.879   5.416 -0.3726  0.4663  1.6531
   36CHL1    C2 3817   0.802   3.866   5.590  0.1053  0.3941 -1.0681
   36CHL1   H2A 3818   0.873   3.791   5.632  1.0846  0.9879 -1.6286
   36CHL1   H2B 3819   0.701   3.841   5.629  0.8279 -1.5746 -0.3243
   36CHL1   C20 3820   0.764   3.947   4.644 -0.4424 -0.1255 -0.0358
   36CHL1   H20 3821   0.656   3.974   4.645 -0.0513  1.5796  1.7652
   36CHL1   C21 3822   0.788   3.795   4.655  0.1566 -0.6115 -0.3124
   36CHL1  H21A 3823   0.782   3.746   4.556  3.1477 -2.3343  0.2495
   36CHL1  H21B 3824   0.716   3.744   4.723  0.5467 -1.9018 -0.8493
   36CHL1  H21C 3825   0.882   3.771   4.709 -0.5275 -0.9901  0.7454
   36CHL1   C22 3826   0.829   4.008   4.520  0.0588 -0.1073  0.1027
   36CHL1  H22A 3827   0.789   3.947   4.436 -2.1080 -0.2494  1.1729
   36CHL1  H22B 3828   0.797   4.114   4.507  0.9847  0.0706 -0.9759
   36CHL1   C23 3829   0.985   3.993   4.521 -0.6549  0.1122  0.4695
   36CHL1  H23A 3830   1.027   4.081   4.573  2.4191  0.8246 -2.8023
   36CHL1  H23B 3831   1.013   3.900   4.576  2.2962  0.7712  0.2348
   36CHL1   C24 3832   1.044   3.998   4.376 -0.3078  0.7221  0.4606
   36CHL1  H24A 3833   1.031   3.896   4.335 -1.0858  0.4062  1.4757
   36CHL1  H24B 3834   0.989   4.066   4.308  1.3733 -1.1998 -3.1287
   36CHL1   C25 3835   1.196   4.032   4.374  1.0731  0.1881 -0.2791
   36CHL1   H25 3836   1.220   4.133   4.414 -0.6967  0.7007 -0.4305
   36CHL1   C26 3837   1.276   3.935   4.453 -0.1603 -0.6612 -0.1046
   36CHL1  H26A 3838   1.225   3.908   4.548 -1.6464  1.4392 -0.2463
   36CHL1  H26B 3839   1.305   3.846   4.393  2.1901 -1.2538  1.7471
   36CHL1  H26C 3840   1.370   3.985   4.485  0.0430 -1.1164  0.0199
   36CHL1   C27 3841   1.240   4.035   4.223  0.2326  0.0445 -0.0306
   36CHL1  H27A 3842   1.175   4.097   4.158 -0.4715 -0.1463  0.4802
   36CHL1  H27B 3843   1.348   4.059   4.213  0.3758  0.6147  2.3310
   36CHL1  H27C 3844   1.230   3.930   4.189  0.0825  0.1400 -0.2814
   37CHL1    C3 3845   1.041   2.092   5.726  0.2034 -0.3368  0.2798
   37CHL1    H3 3846   1.003   2.189   5.687  0.8557  0.2307  1.0510
   37CHL1    O3 3847   1.021   2.086   5.865 -0.0204 -0.2432 -0.5417
   37CHL1   H3' 3848   1.085   2.024   5.901 -0.5100 -0.6115 -0.2982
   37CHL1    C4 3849   0.953   1.981   5.656 -0.2423  0.5553  0.2087
   37CHL1   H4A 3850   0.976   1.883   5.702  2.6773  0.5084 -1.0950
   37CHL1   H4B 3851   0.847   1.994   5.685 -0.2975  2.4213 -0.6910
   37CHL1    C5 3852   0.977   1.970   5.511  0.3349  0.2725 -0.2803
   37CHL1    C6 3853   0.868   1.996   5.434 -0.0257 -0.6853 -0.2668
   37CHL1    H6 3854   0.767   2.006   5.476  0.6852  1.4840  1.0715
   37CHL1    C7 3855   0.881   1.981   5.289  0.5560 -0.5548  0.5933
   37CHL1   H7A 3856   0.798   1.917   5.251  1.6357 -0.1719 -2.8334
   37CHL1   H7B 3857   0.863   2.071   5.226  1.2344 -0.7697  0.0808
   37CHL1    C8 3858   1.017   1.925   5.236 -0.4052  0.4051 -0.9222
   37CHL1    H8 3859   1.014   1.814   5.242 -1.4241  0.4823  0.2967
   37CHL1   C14 3860   1.028   1.963   5.084 -0.4601 -0.5219 -0.1459
   37CHL1   H14 3861   1.032   2.074   5.086  1.0908 -0.5500 -0.1836
   37CHL1   C15 3862   0.910   1.933   4.988  0.0232  0.2256 -0.6194
   37CHL1  H15A 3863   0.873   1.829   4.994 -1.4152  0.5297 -2.9358
   37CHL1  H15B 3864   0.835   2.013   5.010  0.5724  0.6043 -0.1154
   37CHL1   C16 3865   0.973   1.950   4.851  0.1605 -0.5009  0.2285
   37CHL1  H16A 3866   0.956   1.851   4.803 -1.1037 -1.6446  2.8611
   37CHL1  H16B 3867   0.919   2.025   4.790  0.6234 -0.4800 -0.1660
   37CHL1   C17 3868   1.119   1.994   4.874 -0.6441 -0.2171  0.0726
   37CHL1   H17 3869   1.126   2.105   4.873  2.1186 -0.2995  0.6249
   37CHL1   C13 3870   1.163   1.933   5.008  0.0231 -0.0994 -0.0741
   37CHL1   C18 3871   1.185   1.783   4.995 -0.6161 -0.3423 -0.2443
   37CHL1  H18A 3872   1.188   1.751   5.101  0.5473  0.9221  0.1279
   37CHL1  H18B 3873   1.114   1.725   4.932  2.0459 -2.0437 -1.9241
   37CHL1  H18C 3874   1.286   1.765   4.953  0.0461 -0.7698  1.4283
   37CHL1   C12 3875   1.277   1.999   5.092  0.4627  0.6420  0.1713
   37CHL1  H12A 3876   1.369   1.968   5.038  0.8084  0.0030  1.0907
   37CHL1  H12B 3877   1.264   2.108   5.076  1.8403  0.6734 -0.9592
   37CHL1   C11 3878   1.269   1.970   5.241  0.2724  0.4979  0.2201
   37CHL1  H11A 3879   1.281   1.860   5.255 -2.1900  0.0888 -0.3260
   37CHL1  H11B 3880   1.349   2.019   5.301 -0.9925  0.6788  1.8277
   37CHL1    C9 3881   1.134   1.984   5.316 -0.0777  0.2854  0.0222
   37CHL1    H9 3882   1.119   2.094   5.318 -0.0166  0.2917  0.2218
   37CHL1   C10 3883   1.125   1.958   5.471 -0.2330  0.7798  0.0069
   37CHL1   C19 3884   1.181   1.817   5.505  0.3190  0.0771  0.0677
   37CHL1  H19A 3885   1.171   1.783   5.610  1.5379 -2.5083 -0.5865
   37CHL1  H19B 3886   1.153   1.737   5.434  0.7848 -0.5355  0.5639
   37CHL1  H19C 3887   1.290   1.828   5.489  0.4619 -0.1402  0.8610
   37CHL1    C1 3888   1.214   2.062   5.544 -0.0241  0.4535 -0.2343
   37CHL1   H1A 3889   1.319   2.041   5.516 -0.4863 -1.8870 -0.4212
   37CHL1   H1B 3890   1.188   2.160   5.500  0.2425  0.1548 -1.0762
   37CHL1    C2 3891   1.190   2.064   5.701 -0.3640 -0.0118  1.4790
   37CHL1   H2A 3892   1.248   2.147   5.747 -0.6635  1.1321 -0.1289
   37CHL1   H2B 3893   1.225   1.961   5.726  2.7596 -0.0602 -2.1768
   37CHL1   C20 3894   1.209   1.955   4.756 -0.1912  0.3023  0.2455
   37CHL1   H20 3895   1.209   1.845   4.737 -2.8600 -0.0530  1.8243
   37CHL1   C21 3896   1.351   1.999   4.759 -0.8316 -0.6620  0.0245
   37CHL1  H21A 3897   1.420   1.965   4.679 -0.9449 -1.8424  0.4089
   37CHL1  H21B 3898   1.409   1.977   4.852  0.9212  2.7651 -0.1123
   37CHL1  H21C 3899   1.354   2.110   4.752  0.0593 -0.5787  1.3752
   37CHL1   C22 3900   1.149   2.016   4.630 -0.4251  0.4665  0.8323
   37CHL1  H22A 3901   1.038   2.011   4.630 -0.4290 -4.0733  2.1497
   37CHL1  H22B 3902   1.196   2.115   4.613  0.7347 -0.3818 -1.3202
   37CHL1   C23 3903   1.190   1.935   4.503  0.7121  0.0844 -0.4903
   37CHL1  H23A 3904   1.299   1.932   4.483  1.0805 -2.0782  1.4302
   37CHL1  H23B 3905   1.151   1.835   4.532  0.6590  0.1155 -0.4545
   37CHL1   C24 3906   1.115   2.000   4.391 -0.0624 -0.6611  0.2665
   37CHL1  H24A 3907   1.004   2.006   4.398 -0.2037 -2.4098  0.0634
   37CHL1  H24B 3908   1.162   2.099   4.371 -1.9328 -0.2116 -2.5535
   37CHL1   C25 3909   1.140   1.925   4.263 -0.2086 -0.1860  0.5985
   37CHL1   H25 3910   1.094   1.827   4.286 -0.0543 -1.2357 -2.9448
   37CHL1   C26 3911   1.060   1.995   4.150 -0.5548  0.3397  0.4830
   37CHL1  H26A 3912   1.082   1.947   4.052  2.1570  0.8278  0.7539
   37CHL1  H26B 3913   0.954   1.972   4.174 -0.4166 -2.0858 -0.9237
   37CHL1  H26C 3914   1.090   2.101   4.134 -1.0259  0.3313 -0.5276
   37CHL1   C27 3915   1.281   1.915   4.217 -0.5126  0.1504  0.4385
   37CHL1  H27A 3916   1.342   1.879   4.303 -1.7422 -1.3598  0.7203
   37CHL1  H27B 3917   1.296   1.845   4.132  1.1245 -0.3866  1.1243
   37CHL1  H27C 3918   1.325   2.012   4.185  0.0598 -0.7238 -1.5982
   38CHL1    C3 3919   2.736   0.125   5.632  0.6354 -1.6112  0.3875
   38CHL1    H3 3920   2.808   0.052   5.590 -1.0783 -3.1896  0.0653
   38CHL1    O3 3921   2.732   0.107   5.767 -0.5459  0.0785 -0.4020
   38CHL1   H3' 3922   2.825   0.113   5.790 -0.0438  0.2514 -2.3454
   38CHL1    C4 3923   2.776   0.269   5.600  0.0628 -0.6188  0.2313
   38CHL1   H4A 3924   2.700   0.337   5.644  1.2724  0.2327  1.0555
   38CHL1   H4B 3925   2.875   0.301   5.638  0.6024 -0.2927 -1.3597
   38CHL1    C5 3926   2.773   0.292   5.447  0.5882  0.2068  0.0967
   38CHL1    C6 3927   2.886   0.332   5.381 -0.4895  0.6224  0.0636
   38CHL1    H6 3928   2.980   0.347   5.436  0.1220  1.9627 -1.2524
   38CHL1    C7 3929   2.900   0.358   5.230 -0.2633  0.3384 -0.1770
   38CHL1   H7A 3930   2.977   0.438   5.215 -0.0903  0.6672  2.1731
   38CHL1   H7B 3931   2.940   0.264   5.186  0.3465 -1.3180  3.5345
   38CHL1    C8 3932   2.758   0.386   5.164  0.6289  0.4525  0.1893
   38CHL1    H8 3933   2.707   0.481   5.191 -1.5353 -1.0094  1.6641
   38CHL1   C14 3934   2.781   0.397   5.011  0.1717  0.0370 -0.1305
   38CHL1   H14 3935   2.827   0.299   4.984 -0.8413 -0.6465  0.5610
   38CHL1   C15 3936   2.878   0.505   4.962  0.3779  0.3931 -0.3383
   38CHL1  H15A 3937   2.853   0.600   5.016 -1.7698 -2.0828  3.5113
   38CHL1  H15B 3938   2.983   0.472   4.974  0.5068  1.0626  0.4956
   38CHL1   C16 3939   2.845   0.505   4.812 -0.0128 -0.5532 -0.3871
   38CHL1  H16A 3940   2.856   0.604   4.764  1.5007 -0.9404 -0.8892
   38CHL1  H16B 3941   2.923   0.450   4.756  1.6794  0.9140  0.4377
   38CHL1   C17 3942   2.707   0.431   4.792  0.7480 -0.0959  0.1538
   38CHL1   H17 3943   2.734   0.327   4.762  0.3299 -0.9380  2.4964
   38CHL1   C13 3944   2.651   0.417   4.938  0.8563 -0.1066  0.0258
   38CHL1   C18 3945   2.581   0.548   4.979  0.3670 -0.3865  0.8300
   38CHL1  H18A 3946   2.653   0.633   4.972  1.0980 -1.0813 -0.5300
   38CHL1  H18B 3947   2.501   0.573   4.907  0.2366 -0.8634  0.8080
   38CHL1  H18C 3948   2.541   0.550   5.083 -0.5745 -0.8537  0.4849
   38CHL1   C12 3949   2.566   0.292   4.968  0.0430  0.1121 -0.0422
   38CHL1  H12A 3950   2.472   0.294   4.909 -0.2553 -0.6906  0.3795
   38CHL1  H12B 3951   2.620   0.207   4.920  0.5602 -0.5255  1.6062
   38CHL1   C11 3952   2.539   0.260   5.123  0.2324 -0.6806  0.2653
   38CHL1  H11A 3953   2.458   0.320   5.170 -0.2426 -1.9768  1.1619
   38CHL1  H11B 3954   2.513   0.154   5.142  2.1505 -1.2649 -0.1287
   38CHL1    C9 3955   2.669   0.269   5.206  0.0795  0.2635  0.2829
   38CHL1    H9 3956   2.730   0.180   5.178  0.7834  0.1313  2.0388
   38CHL1   C10 3957   2.651   0.256   5.362  0.5577 -0.0565 -0.0824
   38CHL1   C19 3958   2.538   0.359   5.401 -0.2104  0.8944 -0.7197
   38CHL1  H19A 3959   2.551   0.459   5.355  0.6143  0.2958 -1.8367
   38CHL1  H19B 3960   2.438   0.310   5.395  0.8705 -1.2598 -2.5037
   38CHL1  H19C 3961   2.540   0.369   5.512 -1.4033  1.4605 -0.7239
   38CHL1    C1 3962   2.610   0.112   5.406  0.2169  0.1075  0.3408
   38CHL1   H1A 3963   2.521   0.060   5.364  0.0538  0.2260  0.5355
   38CHL1   H1B 3964   2.698   0.049   5.379  1.3960  0.5040  2.9327
   38CHL1    C2 3965   2.598   0.087   5.562  0.4963 -0.9478  0.4137
   38CHL1   H2A 3966   2.585  -0.020   5.588  1.2296 -0.4811  2.9647
   38CHL1   H2B 3967   2.517   0.145   5.611 -0.4255 -0.8548 -1.1386
   38CHL1   C20 3968   2.615   0.475   4.684 -0.2098  0.5952  0.6288
   38CHL1   H20 3969   2.584   0.575   4.721  1.3727  1.2305  0.3245
   38CHL1   C21 3970   2.500   0.386   4.663  0.2484  0.2779  0.2879
   38CHL1  H21A 3971   2.441   0.409   4.571  1.7309 -0.4960 -0.8958
   38CHL1  H21B 3972   2.427   0.407   4.744 -1.1946  0.9373 -1.0989
   38CHL1  H21C 3973   2.524   0.278   4.671  1.1148  0.6180  3.5038
   38CHL1   C22 3974   2.685   0.489   4.545  0.1360  0.4895 -0.4315
   38CHL1  H22A 3975   2.785   0.538   4.556  1.4430 -1.8756 -1.0413
   38CHL1  H22B 3976   2.714   0.387   4.513 -1.3679 -0.3295  0.6962
   38CHL1   C23 3977   2.588   0.566   4.443 -0.0187  0.5804  0.1464
   38CHL1  H23A 3978   2.500   0.505   4.416  0.8107 -1.0241  0.9222
   38CHL1  H23B 3979   2.560   0.651   4.509 -3.5057 -0.2084 -0.1230
   38CHL1   C24 3980   2.664   0.599   4.315 -0.5381 -0.5373  0.4316
   38CHL1  H24A 3981   2.750   0.669   4.322 -2.5243  2.2014 -0.8265
   38CHL1  H24B 3982   2.703   0.507   4.267 -1.0872 -0.1870 -0.7218
   38CHL1   C25 3983   2.575   0.659   4.198 -0.4476 -0.2878 -0.1458
   38CHL1   H25 3984   2.508   0.573   4.175  0.6193 -0.9316 -0.9432
   38CHL1   C26 3985   2.494   0.783   4.247 -0.4692 -0.0210  0.0117
   38CHL1  H26A 3986   2.569   0.858   4.280  1.4354 -2.1166  0.6884
   38CHL1  H26B 3987   2.429   0.837   4.175  0.2050  1.0270  0.1685
   38CHL1  H26C 3988   2.436   0.750   4.336 -1.9608  0.5882 -0.7130
   38CHL1   C27 3989   2.659   0.684   4.064 -0.3880  0.2657  0.5311
   38CHL1  H27A 3990   2.604   0.704   3.970  0.0872  2.2661  0.6429
   38CHL1  H27B 3991   2.723   0.773   4.080 -0.7662  0.3987  1.3590
   38CHL1  H27C 3992   2.720   0.592   4.055 -0.6942  0.1121 -0.0319
   39CHL1    C3 3993   4.427   0.542   5.447  0.0416 -0.5674  0.3682
   39CHL1    H3 3994   4.377   0.637   5.478 -1.0544 -0.3946 -1.7551
   39CHL1    O3 3995   4.452   0.477   5.569 -0.9691  0.2011 -0.1056
   39CHL1   H3' 3996   4.459   0.546   5.635  1.2409 -0.6684  0.6543
   39CHL1    C4 3997   4.319   0.465   5.362 -0.2265  0.3083  0.3066
   39CHL1   H4A 3998   4.358   0.361   5.364  1.3248  0.8733  0.8827
   39CHL1   H4B 3999   4.229   0.475   5.426 -0.5676 -0.2070 -0.0790
   39CHL1    C5 4000   4.311   0.522   5.223  0.0927  0.2143 -0.5204
   39CHL1    C6 4001   4.190   0.553   5.169 -0.3020  0.0710 -0.2981
   39CHL1    H6 4002   4.099   0.536   5.228  0.8287  1.5774  2.0282
   39CHL1    C7 4003   4.175   0.610   5.032  0.0128  0.1648 -0.4762
   39CHL1   H7A 4004   4.095   0.550   4.984 -0.2726 -0.1907  0.4259
   39CHL1   H7B 4005   4.135   0.714   5.033 -1.5512 -0.3576  2.3967
   39CHL1    C8 4006   4.305   0.596   4.946  0.0567 -0.5902 -0.2002
   39CHL1    H8 4007   4.315   0.486   4.930  0.7689 -0.5024 -0.3768
   39CHL1   C14 4008   4.290   0.681   4.820  0.0011  0.2306  0.3798
   39CHL1   H14 4009   4.289   0.786   4.857  2.7795  0.1849  0.8010
   39CHL1   C15 4010   4.156   0.666   4.736 -0.6767  0.1620  0.7480
   39CHL1  H15A 4011   4.113   0.565   4.720  1.6243 -0.6206 -1.0124
   39CHL1  H15B 4012   4.095   0.737   4.797 -1.9844  1.3099 -1.7756
   39CHL1   C16 4013   4.199   0.740   4.602  0.5120  0.6907  0.0822
   39CHL1  H16A 4014   4.188   0.661   4.525  1.8721  1.2614 -0.7367
   39CHL1  H16B 4015   4.141   0.830   4.571  3.2752  2.1041 -1.3499
   39CHL1   C17 4016   4.346   0.777   4.616 -0.2969 -0.3021 -0.3264
   39CHL1   H17 4017   4.342   0.869   4.679  1.3431 -2.2038  2.8073
   39CHL1   C13 4018   4.407   0.680   4.717 -0.4148  0.1064 -0.5271
   39CHL1   C18 4019   4.412   0.539   4.662 -0.0689  0.2799  0.0612
   39CHL1  H18A 4020   4.334   0.514   4.587 -1.6229 -1.0829  2.0061
   39CHL1  H18B 4021   4.512   0.536   4.613  0.3048 -0.0761  0.8279
   39CHL1  H18C 4022   4.425   0.461   4.740  0.1462  0.1577 -0.0933
   39CHL1   C12 4023   4.533   0.719   4.793  0.7097  0.0270  0.2410
   39CHL1  H12A 4024   4.624   0.705   4.732  1.0537 -0.0067  0.7521
   39CHL1  H12B 4025   4.525   0.827   4.821 -2.1008  0.1242 -0.6678
   39CHL1   C11 4026   4.553   0.630   4.915 -1.0757  0.7610 -0.7317
   39CHL1  H11A 4027   4.581   0.526   4.887  0.1915  0.9624 -0.2790
   39CHL1  H11B 4028   4.640   0.664   4.976 -0.4788 -1.7489 -0.0582
   39CHL1    C9 4029   4.432   0.630   5.020  0.2039  0.5582 -0.3812
   39CHL1    H9 4030   4.421   0.739   5.037  1.1333  0.8616 -1.5875
   39CHL1   C10 4031   4.449   0.549   5.153  0.3320  0.0477 -0.1557
   39CHL1   C19 4032   4.520   0.413   5.127 -0.0403  0.4156  0.2841
   39CHL1  H19A 4033   4.459   0.346   5.064  0.1767 -0.1414  0.6580
   39CHL1  H19B 4034   4.617   0.429   5.075  0.5073 -0.8648  0.8666
   39CHL1  H19C 4035   4.537   0.352   5.219 -0.5409 -0.1149  0.0297
   39CHL1    C1 4036   4.540   0.632   5.238  0.0358 -1.4006 -0.1580
   39CHL1   H1A 4037   4.643   0.655   5.203  0.0662  1.9225  1.6332
   39CHL1   H1B 4038   4.491   0.729   5.260 -0.4693 -1.7341  0.2049
   39CHL1    C2 4039   4.559   0.573   5.380  0.1921  0.2944  0.2070
   39CHL1   H2A 4040   4.614   0.636   5.453  0.4771  0.1886  0.0853
   39CHL1   H2B 4041   4.633   0.490   5.377  0.3291  0.4388 -1.1955
   39CHL1   C20 4042   4.420   0.808   4.487  0.0806  0.1246 -0.5175
   39CHL1   H20 4043   4.525   0.834   4.516 -0.3586 -1.2576  2.7371
   39CHL1   C21 4044   4.367   0.943   4.435  0.7261 -0.1334  0.4582
   39CHL1  H21A 4045   4.418   0.983   4.345  0.5303 -0.4786  0.1898
   39CHL1  H21B 4046   4.381   1.017   4.516 -0.5116 -0.1154  0.6666
   39CHL1  H21C 4047   4.258   0.938   4.414  1.1339  0.4555 -2.2071
   39CHL1   C22 4048   4.420   0.704   4.371  0.4887 -0.0467 -0.3082
   39CHL1  H22A 4049   4.413   0.597   4.400 -1.3493 -0.4167 -1.8751
   39CHL1  H22B 4050   4.328   0.720   4.311  1.0806  0.5746 -1.0666
   39CHL1   C23 4051   4.541   0.700   4.273  0.1329  0.2231  0.0367
   39CHL1  H23A 4052   4.556   0.802   4.230 -0.5796 -0.7313 -2.6955
   39CHL1  H23B 4053   4.633   0.666   4.326  0.6479 -0.6714 -1.3619
   39CHL1   C24 4054   4.519   0.597   4.157  0.8269 -0.1600 -0.5275
   39CHL1  H24A 4055   4.480   0.503   4.202 -0.6679  0.0757 -1.2539
   39CHL1  H24B 4056   4.432   0.628   4.095 -0.5384 -2.0704  0.3186
   39CHL1   C25 4057   4.646   0.574   4.072 -0.1065  0.3009  1.0064
   39CHL1   H25 4058   4.722   0.513   4.124  1.2212  0.4947 -0.6047
   39CHL1   C26 4059   4.620   0.501   3.938  0.6191  0.1456 -0.1186
   39CHL1  H26A 4060   4.545   0.552   3.874  0.2338  2.7449  2.1722
   39CHL1  H26B 4061   4.717   0.482   3.887  0.1576 -2.5873 -0.1449
   39CHL1  H26C 4062   4.577   0.401   3.959  1.2704  0.0777  0.9501
   39CHL1   C27 4063   4.722   0.706   4.034  0.0598  0.0683  0.1672
   39CHL1  H27A 4064   4.764   0.739   4.131 -0.1940 -0.1961  0.3681
   39CHL1  H27B 4065   4.801   0.689   3.958  0.0803  1.1814 -0.0778
   39CHL1  H27C 4066   4.656   0.784   3.990  2.3096  0.8526 -2.1056
   40CHL1    C3 4067   2.335   6.246   5.645  0.1253  0.1006  0.6253
   40CHL1    H3 4068   2.439   6.249   5.608  0.0723  1.7019  0.5263
   40CHL1    O3 4069   2.323   6.258   5.790 -0.1599  0.5977  0.3759
   40CHL1   H3' 4070   2.310   6.173   5.834  0.9160  1.1761  1.8986
   40CHL1    C4 4071   2.253   6.356   5.579 -0.4877 -0.0086 -0.5008
   40CHL1   H4A 4072   2.149   6.349   5.617 -0.0474  1.0478  0.9908
   40CHL1   H4B 4073   2.290   6.452   5.620  0.3694 -1.5773  2.7448
   40CHL1    C5 4074   2.261   6.343   5.433 -0.2856 -0.3982  0.2335
   40CHL1    C6 4075   2.308   6.441   5.361 -0.3392  0.2844  0.6513
   40CHL1    H6 4076   2.350   6.531   5.409  1.3449 -0.1996  0.1693
   40CHL1    C7 4077   2.313   6.441   5.212 -0.0806 -0.3548  0.1877
   40CHL1   H7A 4078   2.297   6.540   5.165 -0.3919 -0.2368  0.5359
   40CHL1   H7B 4079   2.419   6.413   5.191  0.2233  0.9795 -0.1420
   40CHL1    C8 4080   2.225   6.334   5.147 -0.5601 -0.0607 -0.4338
   40CHL1    H8 4081   2.117   6.359   5.156 -0.3958  1.5097 -2.1476
   40CHL1   C14 4082   2.266   6.320   4.998 -0.1356 -0.6399 -0.9594
   40CHL1   H14 4083   2.375   6.303   5.003  0.5830  3.0154 -0.9911
   40CHL1   C15 4084   2.273   6.442   4.905 -0.9701  0.0639 -0.6586
   40CHL1  H15A 4085   2.183   6.507   4.914 -1.0261 -0.2388  1.4250
   40CHL1  H15B 4086   2.360   6.508   4.924  0.0413 -0.6194 -2.6678
   40CHL1   C16 4087   2.295   6.382   4.768  0.3594 -0.6202  0.6077
   40CHL1  H16A 4088   2.239   6.451   4.701  1.3428  0.8529  1.2508
   40CHL1  H16B 4089   2.400   6.392   4.731 -0.0971  0.5089 -0.4930
   40CHL1   C17 4090   2.268   6.229   4.780 -0.0407  0.5027 -0.4533
   40CHL1   H17 4091   2.367   6.182   4.799  0.3367  0.3065 -2.6319
   40CHL1   C13 4092   2.197   6.211   4.922 -0.1010  0.6550  0.3178
   40CHL1   C18 4093   2.047   6.257   4.910  0.0055  0.0339  0.0384
   40CHL1  H18A 4094   2.047   6.342   4.839 -0.0179  0.3521  0.4176
   40CHL1  H18B 4095   2.001   6.166   4.865 -0.2204 -0.1297  0.5907
   40CHL1  H18C 4096   1.989   6.285   5.000  0.1104 -0.9658  0.4360
   40CHL1   C12 4097   2.209   6.077   4.991 -0.3968  0.5983  0.1708
   40CHL1  H12A 4098   2.139   6.005   4.943 -0.7224  2.0734 -1.6600
   40CHL1  H12B 4099   2.310   6.033   4.980 -0.8637 -0.2828 -0.8061
   40CHL1   C11 4100   2.169   6.090   5.142  0.4686  0.4022  0.2012
   40CHL1  H11A 4101   2.059   6.111   5.142  0.2848 -0.5164  0.1141
   40CHL1  H11B 4102   2.166   5.993   5.196 -3.0499  0.0796 -0.2847
   40CHL1    C9 4103   2.247   6.201   5.216 -0.1925  0.3015  0.5516
   40CHL1    H9 4104   2.356   6.178   5.206  0.2015  1.6062  1.5362
   40CHL1   C10 4105   2.212   6.215   5.368 -0.1080 -0.2414 -0.0623
   40CHL1   C19 4106   2.059   6.196   5.387  0.0650  0.1926 -0.1414
   40CHL1  H19A 4107   1.995   6.252   5.315 -1.2158 -0.0838  0.7343
   40CHL1  H19B 4108   2.026   6.092   5.367  2.0930 -0.1437 -2.0429
   40CHL1  H19C 4109   2.031   6.218   5.493  0.3625 -0.7649  0.1395
   40CHL1    C1 4110   2.287   6.101   5.450 -0.1864 -0.2179  0.0784
   40CHL1   H1A 4111   2.242   6.004   5.422  1.5170 -1.4927  1.5395
   40CHL1   H1B 4112   2.390   6.089   5.409 -1.0115 -3.0941 -1.4225
   40CHL1    C2 4113   2.285   6.108   5.605 -0.0082 -0.5604 -0.0954
   40CHL1   H2A 4114   2.345   6.022   5.641  0.3493 -0.5188 -0.5846
   40CHL1   H2B 4115   2.181   6.090   5.641 -1.8224  2.3358 -3.2524
   40CHL1   C20 4116   2.200   6.164   4.665 -0.5255  0.2983  0.3733
   40CHL1   H20 4117   2.123   6.094   4.702 -0.7956 -0.1461 -0.9738
   40CHL1   C21 4118   2.308   6.097   4.572 -0.6593 -0.6292 -0.4889
   40CHL1  H21A 4119   2.256   6.038   4.494  1.4959 -2.1274 -0.9042
   40CHL1  H21B 4120   2.357   6.015   4.629 -3.3359 -2.6548 -0.8767
   40CHL1  H21C 4121   2.382   6.163   4.522  1.8635 -1.7712  1.5033
   40CHL1   C22 4122   2.117   6.267   4.581  0.6885 -0.5982 -0.5203
   40CHL1  H22A 4123   2.040   6.314   4.645  0.5734 -1.4557 -0.0151
   40CHL1  H22B 4124   2.183   6.348   4.541  0.4885  0.5827  1.4413
   40CHL1   C23 4125   2.043   6.189   4.467  0.3339 -0.4123 -0.1683
   40CHL1  H23A 4126   2.122   6.154   4.397 -1.4226 -2.4252 -1.2501
   40CHL1  H23B 4127   1.989   6.105   4.515 -1.0615  2.1397  3.2019
   40CHL1   C24 4128   1.944   6.291   4.400 -0.7361 -0.2147  0.3682
   40CHL1  H24A 4129   1.864   6.321   4.471  0.1924  0.5775  1.1142
   40CHL1  H24B 4130   2.007   6.382   4.388  2.4258 -2.5704 -3.2677
   40CHL1   C25 4131   1.885   6.239   4.272 -0.6239  0.9161  0.0497
   40CHL1   H25 4132   1.957   6.205   4.195 -0.4749 -0.9573  0.9648
   40CHL1   C26 4133   1.797   6.117   4.307 -0.0288  0.1107  0.4380
   40CHL1  H26A 4134   1.722   6.142   4.385 -0.2444  0.2927  0.1735
   40CHL1  H26B 4135   1.755   6.077   4.213  0.8408  1.5203 -0.5911
   40CHL1  H26C 4136   1.846   6.031   4.358 -0.3449  0.6949  1.7629
   40CHL1   C27 4137   1.802   6.352   4.205 -0.4087 -0.1640  0.8530
   40CHL1  H27A 4138   1.733   6.409   4.271 -0.5323  0.3122  0.3177
   40CHL1  H27B 4139   1.870   6.423   4.153 -1.3096 -0.7787 -1.2408
   40CHL1  H27C 4140   1.734   6.306   4.131  0.8563 -0.4637 -0.1688
   41CHL1    C3 4141   1.517   6.117   5.502 -0.0416 -0.4046 -0.5048
   41CHL1    H3 4142   1.407   6.105   5.490  0.1763 -2.1723 -1.1497
   41CHL1    O3 4143   1.562   6.090   5.638  0.1118  0.7444 -0.0823
   41CHL1   H3' 4144   1.620   6.161   5.667  0.0345  0.7935 -0.0471
   41CHL1    C4 4145   1.577   6.005   5.408 -0.0805 -0.0196  0.0217
   41CHL1   H4A 4146   1.687   5.990   5.413  0.4328  2.5645 -1.6149
   41CHL1   H4B 4147   1.528   5.912   5.445  1.3420 -0.1639  1.6941
   41CHL1    C5 4148   1.551   6.030   5.265 -0.8090 -0.1836 -0.6452
   41CHL1    C6 4149   1.489   5.942   5.194 -0.5152  0.0770 -0.8012
   41CHL1    H6 4150   1.461   5.853   5.252 -0.8447  1.4126  1.1789
   41CHL1    C7 4151   1.448   5.955   5.050 -0.1485 -0.1492 -0.2131
   41CHL1   H7A 4152   1.481   5.869   4.988  0.4882 -0.7927  0.9849
   41CHL1   H7B 4153   1.338   5.965   5.037 -0.3235 -0.0752  1.1269
   41CHL1    C8 4154   1.521   6.083   4.993  0.6282 -0.2147 -0.1733
   41CHL1    H8 4155   1.627   6.059   4.975  0.8031 -1.3947  2.1003
   41CHL1   C14 4156   1.454   6.114   4.864  0.4673 -0.5309  0.2269
   41CHL1   H14 4157   1.352   6.151   4.887  0.1058 -1.2462 -0.2061
   41CHL1   C15 4158   1.429   5.998   4.767  0.3499 -0.3348 -0.9129
   41CHL1  H15A 4159   1.525   5.942   4.757 -0.4472 -1.5934 -1.7476
   41CHL1  H15B 4160   1.354   5.928   4.808 -1.6712  0.6024 -2.7900
   41CHL1   C16 4161   1.392   6.069   4.643  0.4027  0.0899  0.0628
   41CHL1  H16A 4162   1.447   6.019   4.561  3.2231  2.7492  0.1700
   41CHL1  H16B 4163   1.284   6.051   4.625  0.8230 -0.0087 -2.7591
   41CHL1   C17 4164   1.424   6.223   4.653  0.0402 -0.4931  0.4063
   41CHL1   H17 4165   1.327   6.264   4.686  2.1961  3.4602  2.6046
   41CHL1   C13 4166   1.522   6.220   4.781  0.5117  0.6788 -0.5056
   41CHL1   C18 4167   1.670   6.196   4.733 -0.2679 -0.1210  0.2948
   41CHL1  H18A 4168   1.709   6.284   4.678  0.7894 -0.3066  0.7252
   41CHL1  H18B 4169   1.735   6.175   4.821  0.6894 -1.4284 -0.6943
   41CHL1  H18C 4170   1.673   6.109   4.663  2.5926  0.9980 -1.1132
   41CHL1   C12 4171   1.516   6.344   4.863  0.1584  0.1249 -0.3180
   41CHL1  H12A 4172   1.566   6.425   4.806 -1.6339  0.5382 -1.3742
   41CHL1  H12B 4173   1.409   6.369   4.873 -0.5996 -2.8382 -0.1787
   41CHL1   C11 4174   1.580   6.325   5.001  0.3630 -0.0605 -0.0564
   41CHL1  H11A 4175   1.690   6.319   4.986  0.3180  1.2841 -1.0515
   41CHL1  H11B 4176   1.552   6.420   5.050 -0.3521  1.4456 -3.1324
   41CHL1    C9 4177   1.512   6.207   5.079  0.1999  0.1137  0.0493
   41CHL1    H9 4178   1.409   6.240   5.102  0.5194  1.0742  0.1532
   41CHL1   C10 4179   1.579   6.178   5.215 -0.2328  1.1817 -0.4854
   41CHL1   C19 4180   1.727   6.186   5.202 -0.0349 -0.1534 -0.4132
   41CHL1  H19A 4181   1.775   6.132   5.287 -1.1370 -0.8058 -0.1988
   41CHL1  H19B 4182   1.771   6.134   5.114 -2.8779 -2.4761 -0.5866
   41CHL1  H19C 4183   1.767   6.289   5.212 -2.4805  0.6764  2.2199
   41CHL1    C1 4184   1.546   6.288   5.314  0.3446 -0.3251 -0.3508
   41CHL1   H1A 4185   1.597   6.386   5.303 -0.2474  0.2749  1.7385
   41CHL1   H1B 4186   1.438   6.303   5.298  0.0539 -1.4614  0.4221
   41CHL1    C2 4187   1.577   6.251   5.461  0.7517 -0.8049 -0.4338
   41CHL1   H2A 4188   1.550   6.330   5.534 -1.0708 -0.8947 -0.9557
   41CHL1   H2B 4189   1.687   6.246   5.477  0.6157  2.4640  2.6676
   41CHL1   C20 4190   1.454   6.293   4.510  1.3175  0.9295 -0.0615
   41CHL1   H20 4191   1.541   6.234   4.473 -0.1321 -1.3476 -0.0513
   41CHL1   C21 4192   1.489   6.439   4.536  0.1761  0.6162  0.6662
   41CHL1  H21A 4193   1.489   6.494   4.440 -1.2735 -2.8030 -1.4589
   41CHL1  H21B 4194   1.596   6.450   4.565  1.4859 -1.0385 -2.9505
   41CHL1  H21C 4195   1.429   6.484   4.618 -1.7542 -0.3120 -0.1825
   41CHL1   C22 4196   1.329   6.291   4.418  0.5742 -0.0478  0.2068
   41CHL1  H22A 4197   1.236   6.291   4.479  0.4946  0.7453  0.1017
   41CHL1  H22B 4198   1.319   6.380   4.353 -0.2636 -0.2647  0.0309
   41CHL1   C23 4199   1.341   6.176   4.322  0.1901 -0.0799  0.0968
   41CHL1  H23A 4200   1.444   6.164   4.282 -0.2462  0.0850 -1.1285
   41CHL1  H23B 4201   1.323   6.081   4.376 -3.4488  0.6018  0.2966
   41CHL1   C24 4202   1.233   6.191   4.208  0.2971 -0.3774 -0.2632
   41CHL1  H24A 4203   1.133   6.196   4.256  0.0393 -0.8931 -0.7273
   41CHL1  H24B 4204   1.264   6.280   4.148  0.2467 -1.2181 -1.5859
   41CHL1   C25 4205   1.221   6.070   4.109 -0.4305 -0.1531 -0.1316
   41CHL1   H25 4206   1.212   5.984   4.179  1.9473  0.9507  1.6417
   41CHL1   C26 4207   1.094   6.085   4.020 -0.3221  0.2159 -0.7687
   41CHL1  H26A 4208   1.125   6.154   3.938 -0.1493  3.0300  1.4909
   41CHL1  H26B 4209   1.071   5.985   3.978 -0.0007 -0.4640  0.6164
   41CHL1  H26C 4210   1.008   6.124   4.079  2.1444 -0.5092  3.7298
   41CHL1   C27 4211   1.353   6.030   4.027  0.5417 -0.1734 -0.9831
   41CHL1  H27A 4212   1.347   5.932   3.975  1.8361 -1.3272  0.9220
   41CHL1  H27B 4213   1.371   6.102   3.944  1.7532  0.4072 -0.2446
   41CHL1  H27C 4214   1.441   6.021   4.094  0.1908 -0.8609 -0.6078
   42CHL1    C3 4215   4.614   6.098   6.000  0.6620  0.5902 -0.3568
   42CHL1    H3 4216   4.618   6.205   6.027  2.2134  0.6302 -0.6568
   42CHL1    O3 4217   4.621   6.016   6.114  0.1757  0.1493 -0.4069
   42CHL1   H3' 4218   4.710   5.980   6.116 -0.5101 -1.8912  3.5099
   42CHL1    C4 4219   4.477   6.084   5.935  0.3954 -0.2698 -0.0229
   42CHL1   H4A 4220   4.452   5.977   5.919 -3.1091  0.4295  0.0362
   42CHL1   H4B 4221   4.406   6.116   6.014  0.6513 -2.3476  1.1236
   42CHL1    C5 4222   4.475   6.165   5.803 -0.1840  0.0345 -1.0687
   42CHL1    C6 4223   4.380   6.255   5.771  0.1739  0.3941  0.1393
   42CHL1    H6 4224   4.308   6.273   5.852 -0.1185 -0.0972 -0.0059
   42CHL1    C7 4225   4.375   6.332   5.640  0.5323 -0.0932  0.2026
   42CHL1   H7A 4226   4.267   6.333   5.613 -0.1130  0.8129  2.5608
   42CHL1   H7B 4227   4.410   6.436   5.654  0.7916  0.4519 -3.5637
   42CHL1    C8 4228   4.465   6.270   5.530  0.7366  0.1062 -0.0796
   42CHL1    H8 4229   4.421   6.177   5.490  1.8194  0.0140 -1.1139
   42CHL1   C14 4230   4.484   6.374   5.426  0.2061 -0.3408  0.1909
   42CHL1   H14 4231   4.553   6.444   5.479 -1.6628  0.5993  1.4945
   42CHL1   C15 4232   4.368   6.461   5.374  0.0962  0.0059 -0.8956
   42CHL1  H15A 4233   4.274   6.403   5.362 -1.5629  2.5428 -0.9569
   42CHL1  H15B 4234   4.333   6.542   5.441 -0.0199 -1.8898  1.4869
   42CHL1   C16 4235   4.407   6.511   5.235 -0.5666 -0.0757  0.0213
   42CHL1  H16A 4236   4.346   6.464   5.155  0.4707 -0.6693 -0.4385
   42CHL1  H16B 4237   4.409   6.623   5.233  1.6516 -0.0718  0.3376
   42CHL1   C17 4238   4.555   6.456   5.220 -0.6302 -0.3704  0.1320
   42CHL1   H17 4239   4.620   6.535   5.261  0.7866  0.3789 -3.2237
   42CHL1   C13 4240   4.562   6.327   5.312  0.5948  0.1979  0.7671
   42CHL1   C18 4241   4.489   6.221   5.229 -0.2191  0.0679  0.0431
   42CHL1  H18A 4242   4.476   6.132   5.294 -0.2235 -1.2763 -1.7311
   42CHL1  H18B 4243   4.382   6.240   5.202 -0.7632 -1.9126  0.5939
   42CHL1  H18C 4244   4.548   6.181   5.144 -0.6251  0.5483 -0.4721
   42CHL1   C12 4245   4.701   6.279   5.357  0.0507 -0.6520  0.4596
   42CHL1  H12A 4246   4.758   6.237   5.271  0.0560  0.4553 -0.0983
   42CHL1  H12B 4247   4.752   6.371   5.394 -0.8981  0.2483 -0.3892
   42CHL1   C11 4248   4.692   6.176   5.473  0.0191  0.4409  0.1695
   42CHL1  H11A 4249   4.657   6.083   5.424  1.9611  0.9669 -2.4132
   42CHL1  H11B 4250   4.791   6.158   5.519 -0.9948  1.4821  2.9547
   42CHL1    C9 4251   4.597   6.224   5.586 -0.0950 -0.2500 -1.0873
   42CHL1    H9 4252   4.655   6.314   5.616  0.5060 -0.4126 -1.7181
   42CHL1   C10 4253   4.590   6.127   5.710 -1.0604 -0.0120  0.0770
   42CHL1   C19 4254   4.561   5.980   5.653 -0.1119  0.0318  0.0521
   42CHL1  H19A 4255   4.551   5.905   5.735  2.4164  1.6409  1.9625
   42CHL1  H19B 4256   4.468   5.987   5.594 -0.4592 -1.7164  0.3150
   42CHL1  H19C 4257   4.650   5.941   5.599 -1.0557  1.1600 -2.4187
   42CHL1    C1 4258   4.727   6.132   5.774 -0.1645 -0.5844  0.2929
   42CHL1   H1A 4259   4.812   6.083   5.721  0.0809 -1.5172  1.5187
   42CHL1   H1B 4260   4.754   6.239   5.782  0.8894 -0.6976 -1.2698
   42CHL1    C2 4261   4.728   6.058   5.902  0.0116  0.1876  0.1540
   42CHL1   H2A 4262   4.816   6.089   5.963  0.7804 -3.8018  1.3563
   42CHL1   H2B 4263   4.736   5.948   5.892 -0.8054  0.1409 -0.0240
   42CHL1   C20 4264   4.600   6.452   5.070 -0.8075  0.4631  0.3098
   42CHL1   H20 4265   4.534   6.381   5.015  1.5560 -2.2093  0.6741
   42CHL1   C21 4266   4.745   6.389   5.051 -0.0559 -0.3787  0.3513
   42CHL1  H21A 4267   4.811   6.448   5.118 -0.2848  0.4871 -0.1675
   42CHL1  H21B 4268   4.784   6.400   4.948  0.1976 -1.8694  0.2710
   42CHL1  H21C 4269   4.742   6.282   5.082  1.3469 -0.2036  1.1901
   42CHL1   C22 4270   4.596   6.588   4.993 -0.3845 -0.0606  0.3106
   42CHL1  H22A 4271   4.509   6.653   5.019 -0.7095 -1.1211  2.0592
   42CHL1  H22B 4272   4.687   6.638   5.033 -0.1310  0.2056 -0.5734
   42CHL1   C23 4273   4.600   6.578   4.837 -0.2120  0.2058  0.2079
   42CHL1  H23A 4274   4.684   6.515   4.802  1.4709  2.1760  0.4998
   42CHL1  H23B 4275   4.500   6.540   4.804  0.1782  0.0719 -0.8587
   42CHL1   C24 4276   4.634   6.713   4.772 -0.0572 -0.1434  0.6929
   42CHL1  H24A 4277   4.576   6.792   4.824 -0.2756 -1.2974  2.2453
   42CHL1  H24B 4278   4.740   6.744   4.782 -0.3437  0.7119  1.1755
   42CHL1   C25 4279   4.598   6.711   4.620  0.2811  0.5672  0.7399
   42CHL1   H25 4280   4.508   6.647   4.611  0.2433  0.7433 -0.2032
   42CHL1   C26 4281   4.574   6.852   4.561  0.0379 -0.1397  0.5647
   42CHL1  H26A 4282   4.487   6.903   4.607  0.2692  0.6466  0.1551
   42CHL1  H26B 4283   4.666   6.915   4.571  1.5360 -1.9689 -1.0163
   42CHL1  H26C 4284   4.559   6.835   4.453  1.3278  0.3006  0.2916
   42CHL1   C27 4285   4.699   6.629   4.531  0.8442 -0.4250 -0.6237
   42CHL1  H27A 4286   4.696   6.520   4.551  1.3474  0.1089  3.1833
   42CHL1  H27B 4287   4.670   6.638   4.424 -1.4588 -0.0922 -0.0161
   42CHL1  H27C 4288   4.804   6.666   4.542  0.7357 -0.6384  1.6606
   43CHL1    C3 4289   0.569   2.326   5.815 -0.4784 -0.0011 -0.0180
   43CHL1    H3 4290   0.653   2.397   5.797  0.4007 -1.2111 -0.7896
   43CHL1    O3 4291   0.553   2.306   5.952 -0.2781  0.0921 -0.2281
   43CHL1   H3' 4292   0.559   2.394   5.990  0.4017 -0.2344  0.4386
   43CHL1    C4 4293   0.440   2.376   5.748  0.1498  0.2871 -0.6976
   43CHL1   H4A 4294   0.367   2.301   5.783  1.8185 -0.8633  0.4646
   43CHL1   H4B 4295   0.413   2.471   5.799  0.9913  0.0079  0.2875
   43CHL1    C5 4296   0.444   2.378   5.596  0.3069  0.3509  0.4220
   43CHL1    C6 4297   0.443   2.496   5.528  0.2388 -0.4395  0.2850
   43CHL1    H6 4298   0.423   2.585   5.590  0.7152 -0.8141  0.9856
   43CHL1    C7 4299   0.452   2.507   5.377  0.4145  0.3726  0.0274
   43CHL1   H7A 4300   0.363   2.560   5.335  0.1475  0.6611  0.9417
   43CHL1   H7B 4301   0.539   2.564   5.338  1.9513 -2.5372 -1.1092
   43CHL1    C8 4302   0.435   2.369   5.309  0.3445 -0.3340 -0.2836
   43CHL1    H8 4303   0.328   2.340   5.323  0.5873 -0.6869  1.0259
   43CHL1   C14 4304   0.451   2.378   5.159  0.2208 -0.1413 -0.6215
   43CHL1   H14 4305   0.557   2.406   5.142  0.1701  1.0436  0.8103
   43CHL1   C15 4306   0.361   2.473   5.077  0.0231  0.3294 -0.2187
   43CHL1  H15A 4307   0.255   2.467   5.111  0.1171 -1.1593 -0.1351
   43CHL1  H15B 4308   0.398   2.577   5.091  0.9308 -0.0826  0.5570
   43CHL1   C16 4309   0.380   2.424   4.930  0.3003 -0.9510 -0.1958
   43CHL1  H16A 4310   0.279   2.420   4.885  1.7530  0.7652 -4.0177
   43CHL1  H16B 4311   0.437   2.500   4.872  3.0984 -0.9967  2.2348
   43CHL1   C17 4312   0.439   2.279   4.941 -0.8968 -0.5839 -0.5302
   43CHL1   H17 4313   0.547   2.298   4.921 -0.7748  1.7640  1.7763
   43CHL1   C13 4314   0.427   2.239   5.092 -0.4145 -0.3151  0.2164
   43CHL1   C18 4315   0.288   2.171   5.119 -0.3112 -0.2490  0.2746
   43CHL1  H18A 4316   0.209   2.235   5.074 -1.0463 -0.7425  0.8281
   43CHL1  H18B 4317   0.288   2.066   5.082  1.8606 -0.7755  1.6031
   43CHL1  H18C 4318   0.286   2.166   5.230  1.6964  1.9427  0.4807
   43CHL1   C12 4319   0.537   2.150   5.144 -0.8497  0.0571  0.9239
   43CHL1  H12A 4320   0.552   2.049   5.098  2.4661  1.8207 -2.5122
   43CHL1  H12B 4321   0.641   2.184   5.121 -0.9043 -1.2453 -1.6212
   43CHL1   C11 4322   0.536   2.137   5.292  0.7507 -0.1786 -0.1818
   43CHL1  H11A 4323   0.467   2.055   5.321 -1.9028  2.0562  0.3570
   43CHL1  H11B 4324   0.634   2.099   5.324  0.8200 -0.3058 -0.5409
   43CHL1    C9 4325   0.518   2.268   5.374  0.1614  0.1952  0.0185
   43CHL1    H9 4326   0.622   2.307   5.378  0.0945  0.6764 -1.9832
   43CHL1   C10 4327   0.483   2.250   5.521  0.6605  0.2549 -1.1348
   43CHL1   C19 4328   0.362   2.152   5.531  0.3161 -0.6963  0.5035
   43CHL1  H19A 4329   0.311   2.153   5.629 -4.2217  0.1490 -1.6123
   43CHL1  H19B 4330   0.279   2.178   5.462 -0.0338 -1.2888  0.6928
   43CHL1  H19C 4331   0.390   2.049   5.499  1.8668  0.2059 -1.2608
   43CHL1    C1 4332   0.607   2.194   5.598 -0.6135  0.1883  0.4538
   43CHL1   H1A 4333   0.624   2.091   5.559 -0.1750  0.5964 -0.4661
   43CHL1   H1B 4334   0.694   2.257   5.570 -0.9463  0.3737 -0.1779
   43CHL1    C2 4335   0.597   2.188   5.760  0.4466 -0.5240  0.9636
   43CHL1   H2A 4336   0.699   2.153   5.788 -0.1399 -2.4096  0.8987
   43CHL1   H2B 4337   0.536   2.106   5.805  1.7791 -0.6467  2.6387
   43CHL1   C20 4338   0.382   2.188   4.823  0.1198  0.1267  0.1762
   43CHL1   H20 4339   0.273   2.175   4.842 -0.0416  0.8478 -0.2269
   43CHL1   C21 4340   0.454   2.056   4.821 -0.2274  0.4055 -0.3324
   43CHL1  H21A 4341   0.393   1.996   4.751  0.5236 -1.4187  0.5175
   43CHL1  H21B 4342   0.459   2.003   4.918  1.4728 -1.0763 -1.1899
   43CHL1  H21C 4343   0.561   2.071   4.793  0.1491  0.8058  1.2384
   43CHL1   C22 4344   0.399   2.256   4.685 -0.0237  0.4208 -0.1602
   43CHL1  H22A 4345   0.363   2.361   4.684  0.6285  0.6492 -0.8783
   43CHL1  H22B 4346   0.510   2.266   4.680  0.1379  0.8827  2.8095
   43CHL1   C23 4347   0.331   2.199   4.562  0.0819  0.1842 -0.3902
   43CHL1  H23A 4348   0.382   2.103   4.540  0.3038  0.2441 -0.1495
   43CHL1  H23B 4349   0.222   2.178   4.575 -0.3850 -0.4569 -4.1459
   43CHL1   C24 4350   0.343   2.283   4.436  0.1039 -0.7724 -0.3696
   43CHL1  H24A 4351   0.305   2.385   4.457 -1.2113 -0.7985 -2.2816
   43CHL1  H24B 4352   0.445   2.307   4.400  0.0004  1.0322  0.4437
   43CHL1   C25 4353   0.272   2.223   4.317  0.1509 -0.7626  0.0498
   43CHL1   H25 4354   0.167   2.196   4.341 -0.8447  2.7851  0.1506
   43CHL1   C26 4355   0.268   2.318   4.204 -0.4869  0.6242 -0.1305
   43CHL1  H26A 4356   0.202   2.294   4.118 -0.8683  0.1789  0.2751
   43CHL1  H26B 4357   0.223   2.409   4.248  1.5010  1.0386  1.1662
   43CHL1  H26C 4358   0.375   2.326   4.174 -0.2305 -0.0778  0.5456
   43CHL1   C27 4359   0.333   2.094   4.266 -0.2739 -0.2371  0.3573
   43CHL1  H27A 4360   0.296   2.008   4.326  1.5480 -0.9844  0.4688
   43CHL1  H27B 4361   0.304   2.078   4.160  1.4611 -1.3705  0.0109
   43CHL1  H27C 4362   0.443   2.102   4.275 -0.1738  0.7399 -1.3649
   44CHL1    C3 4363   0.146   4.415   5.355 -0.2855 -0.8519  0.6659
   44CHL1    H3 4364   0.045   4.455   5.333  1.2062  1.5916 -2.4466
   44CHL1    O3 4365   0.169   4.406   5.496 -0.1850  0.2092  0.0222
   44CHL1   H3' 4366   0.090   4.359   5.525  0.7858 -2.2592 -1.0508
   44CHL1    C4 4367   0.156   4.270   5.298 -0.0395 -0.1855  0.3129
   44CHL1   H4A 4368   0.245   4.229   5.349 -0.0068  1.7690  1.9669
   44CHL1   H4B 4369   0.072   4.213   5.343 -1.1832  1.0827 -0.1320
   44CHL1    C5 4370   0.144   4.262   5.145  0.0965 -0.7110  0.1850
   44CHL1    C6 4371   0.046   4.189   5.093 -0.7313 -0.6629  0.4142
   44CHL1    H6 4372  -0.017   4.125   5.157  0.0536 -0.5543  1.3122
   44CHL1    C7 4373   0.037   4.171   4.943 -0.5497  0.7161  0.6091
   44CHL1   H7A 4374   0.007   4.067   4.917  2.4051 -0.4643  1.5064
   44CHL1   H7B 4375  -0.033   4.245   4.899  0.5087  0.0402 -2.4942
   44CHL1    C8 4376   0.167   4.222   4.872  0.5200  0.8447 -0.1083
   44CHL1    H8 4377   0.251   4.151   4.888  1.5420  1.2285 -3.0128
   44CHL1   C14 4378   0.143   4.232   4.720  0.1790 -0.2576  0.1215
   44CHL1   H14 4379   0.055   4.298   4.706  1.0191  0.7169 -0.8060
   44CHL1   C15 4380   0.113   4.102   4.645 -0.7672  0.5155  0.0101
   44CHL1  H15A 4381   0.191   4.031   4.682  0.1309  0.7644 -1.3208
   44CHL1  H15B 4382   0.013   4.056   4.659 -0.8558  0.1114 -1.7051
   44CHL1   C16 4383   0.137   4.132   4.492 -0.6455  0.5167  0.0438
   44CHL1  H16A 4384   0.184   4.047   4.438 -0.2928  1.0814 -0.5469
   44CHL1  H16B 4385   0.039   4.141   4.439 -0.3343  2.1076 -0.3048
   44CHL1   C17 4386   0.207   4.271   4.490 -0.4200 -0.1842  0.3794
   44CHL1   H17 4387   0.123   4.343   4.480  0.4854  0.9066  0.4435
   44CHL1   C13 4388   0.252   4.302   4.639 -0.7952  0.3267 -0.1608
   44CHL1   C18 4389   0.391   4.231   4.658  0.0136 -0.0199 -0.2298
   44CHL1  H18A 4390   0.422   4.238   4.764  1.5334  1.8500 -0.7355
   44CHL1  H18B 4391   0.401   4.123   4.634  0.9494 -0.4617  1.9083
   44CHL1  H18C 4392   0.474   4.285   4.608  1.9857 -2.2750  0.4482
   44CHL1   C12 4393   0.249   4.445   4.695 -0.2806  0.2904 -0.3364
   44CHL1  H12A 4394   0.313   4.516   4.639  0.6390  0.6370  1.0967
   44CHL1  H12B 4395   0.145   4.474   4.670 -0.6654 -1.2057 -0.5530
   44CHL1   C11 4396   0.286   4.457   4.848 -0.1210  0.0538  0.2033
   44CHL1  H11A 4397   0.395   4.448   4.866 -0.0977  0.9834  0.5792
   44CHL1  H11B 4398   0.261   4.560   4.882  1.9855  0.7806 -0.3116
   44CHL1    C9 4399   0.198   4.366   4.930 -0.3298  0.3754 -0.3653
   44CHL1    H9 4400   0.099   4.416   4.940 -1.1124 -0.5793 -2.5942
   44CHL1   C10 4401   0.245   4.357   5.079  0.4929  0.4736 -0.3499
   44CHL1   C19 4402   0.386   4.293   5.095 -0.8975 -0.3434 -0.5853
   44CHL1  H19A 4403   0.465   4.351   5.044 -1.7484  0.8855 -0.5534
   44CHL1  H19B 4404   0.413   4.269   5.201 -2.7934 -0.9987 -0.2011
   44CHL1  H19C 4405   0.384   4.193   5.048 -2.1445 -0.3940 -0.4657
   44CHL1    C1 4406   0.257   4.502   5.144 -0.0011  0.6599 -0.5172
   44CHL1   H1A 4407   0.344   4.555   5.098  3.5171 -2.1594  2.2714
   44CHL1   H1B 4408   0.168   4.565   5.126  0.1364  0.8821 -0.4243
   44CHL1    C2 4409   0.254   4.506   5.298  0.3337  0.1309 -0.5044
   44CHL1   H2A 4410   0.227   4.609   5.330 -0.6590  0.6321 -2.7515
   44CHL1   H2B 4411   0.357   4.491   5.335  0.8666  2.9409 -0.6348
   44CHL1   C20 4412   0.301   4.302   4.369  0.1979  0.8528 -0.0537
   44CHL1   H20 4413   0.235   4.302   4.279  2.1146  2.8515 -1.5733
   44CHL1   C21 4414   0.400   4.188   4.349 -0.6204 -0.0069  0.3900
   44CHL1  H21A 4415   0.456   4.191   4.253 -0.5584 -0.4547  0.4101
   44CHL1  H21B 4416   0.357   4.086   4.356 -0.6823 -0.1834 -1.7101
   44CHL1  H21C 4417   0.480   4.192   4.425  0.2278  1.2797 -0.5217
   44CHL1   C22 4418   0.358   4.440   4.364  0.0094  0.0205  0.1172
   44CHL1  H22A 4419   0.416   4.451   4.458 -0.2679 -1.7276  0.5261
   44CHL1  H22B 4420   0.421   4.444   4.272  0.2248 -0.3322  0.2485
   44CHL1   C23 4421   0.248   4.547   4.360 -0.3197 -0.0486 -0.6653
   44CHL1  H23A 4422   0.174   4.516   4.284  2.4100 -2.0387 -2.7273
   44CHL1  H23B 4423   0.180   4.551   4.448 -0.8777  1.3170 -1.1247
   44CHL1   C24 4424   0.294   4.692   4.312 -0.9273  0.2997  0.0169
   44CHL1  H24A 4425   0.222   4.769   4.347 -0.7535  0.1974  0.6061
   44CHL1  H24B 4426   0.390   4.709   4.364  0.0334  0.7501 -1.8295
   44CHL1   C25 4427   0.328   4.705   4.161  0.1392 -0.6184 -0.4567
   44CHL1   H25 4428   0.423   4.652   4.141  0.3151 -1.4592  2.1971
   44CHL1   C26 4429   0.216   4.659   4.062  0.3613  0.2535  0.1179
   44CHL1  H26A 4430   0.123   4.720   4.070 -0.2974 -0.4675 -1.5638
   44CHL1  H26B 4431   0.250   4.664   3.956 -0.3468  0.3944 -0.1062
   44CHL1  H26C 4432   0.192   4.553   4.085  1.1088  0.2940  1.1441
   44CHL1   C27 4433   0.357   4.854   4.138  0.6483  0.4080  0.3851
   44CHL1  H27A 4434   0.447   4.891   4.192  1.1538  0.0748 -0.2081
   44CHL1  H27B 4435   0.356   4.856   4.027  0.1359 -1.8934  0.2890
   44CHL1  H27C 4436   0.280   4.927   4.172  1.6482  2.5816 -1.7163
   45CHL1    C3 4437   0.025   4.873   5.737 -0.3685 -0.1145 -0.1504
   45CHL1    H3 4438   0.124   4.923   5.736 -0.4221  0.0858  1.6250
   45CHL1    O3 4439  -0.004   4.853   5.877 -0.1300 -0.1083  0.0823
   45CHL1   H3' 4440  -0.081   4.796   5.880 -1.1991  0.8427 -3.5295
   45CHL1    C4 4441  -0.082   4.958   5.676 -0.9472  0.6426  0.5230
   45CHL1   H4A 4442  -0.176   4.900   5.677 -1.0393  0.7818  0.1844
   45CHL1   H4B 4443  -0.092   5.050   5.737  1.0443  0.9579  0.4423
   45CHL1    C5 4444  -0.079   4.991   5.535  0.3976  0.2055  0.6530
   45CHL1    C6 4445  -0.079   5.117   5.485  0.3162  0.0966 -0.3080
   45CHL1    H6 4446  -0.101   5.206   5.546  0.1157 -1.7395  2.4741
   45CHL1    C7 4447  -0.083   5.143   5.338 -0.3035 -0.1553  0.0444
   45CHL1   H7A 4448  -0.169   5.208   5.310 -1.8066 -1.4959  1.3242
   45CHL1   H7B 4449   0.020   5.181   5.323 -0.1704 -0.0135  1.1786
   45CHL1    C8 4450  -0.094   5.013   5.249 -0.3288 -1.1934 -0.5843
   45CHL1    H8 4451  -0.202   4.986   5.247 -0.6749  0.0864 -0.0079
   45CHL1   C14 4452  -0.063   5.042   5.099 -0.5441 -0.4944  0.2222
   45CHL1   H14 4453   0.046   5.060   5.095 -0.6563 -0.0303 -1.6581
   45CHL1   C15 4454  -0.106   5.168   5.024  1.3381 -0.9832 -0.2928
   45CHL1  H15A 4455  -0.209   5.192   5.059  0.5387 -3.4308 -0.7693
   45CHL1  H15B 4456  -0.044   5.260   5.031  1.7288 -0.9882 -2.6994
   45CHL1   C16 4457  -0.105   5.133   4.878 -0.0445  0.7593  0.7215
   45CHL1  H16A 4458  -0.210   5.139   4.844 -0.3122 -1.6825  0.9351
   45CHL1  H16B 4459  -0.042   5.198   4.814 -2.0661  0.1739 -2.0369
   45CHL1   C17 4460  -0.051   4.983   4.875 -0.1627  0.6269 -0.9712
   45CHL1   H17 4461   0.058   5.000   4.872  0.2470 -1.0103  1.7635
   45CHL1   C13 4462  -0.084   4.926   5.013  0.6101 -0.1419 -0.3809
   45CHL1   C18 4463  -0.232   4.873   5.014 -0.1730 -0.9971  0.2533
   45CHL1  H18A 4464  -0.291   4.959   4.975  1.6406  0.5595  0.8114
   45CHL1  H18B 4465  -0.218   4.788   4.943 -0.4447  0.4905 -1.6707
   45CHL1  H18C 4466  -0.260   4.837   5.115 -0.9087  1.0309  0.8262
   45CHL1   C12 4467   0.010   4.818   5.068  0.4223  0.6969 -0.4491
   45CHL1  H12A 4468   0.014   4.733   4.997  2.5196  0.3988 -0.0373
   45CHL1  H12B 4469   0.115   4.854   5.059  1.1547 -0.7150  1.6477
   45CHL1   C11 4470  -0.017   4.776   5.216  0.2348 -0.1983 -0.6032
   45CHL1  H11A 4471  -0.110   4.715   5.216  0.3755 -0.4182 -0.0972
   45CHL1  H11B 4472   0.066   4.719   5.263  0.8079  0.7197 -0.4844
   45CHL1    C9 4473  -0.013   4.900   5.315  0.3886  0.4178 -0.3139
   45CHL1    H9 4474   0.090   4.939   5.315  0.3197  0.5998  0.0526
   45CHL1   C10 4475  -0.065   4.858   5.455  0.8080  0.6741 -0.4626
   45CHL1   C19 4476  -0.205   4.795   5.447  0.4062 -0.3168  0.7505
   45CHL1  H19A 4477  -0.193   4.694   5.403  0.2442 -1.9370  4.1902
   45CHL1  H19B 4478  -0.253   4.767   5.543 -0.4647  0.2815  0.5085
   45CHL1  H19C 4479  -0.276   4.858   5.389  1.0901  0.6552  0.9469
   45CHL1    C1 4480   0.043   4.758   5.514 -0.5162 -0.0231 -0.1730
   45CHL1   H1A 4481   0.022   4.662   5.462 -0.4456  0.3912 -0.9827
   45CHL1   H1B 4482   0.146   4.793   5.490 -0.2793 -1.0246 -0.6832
   45CHL1    C2 4483   0.025   4.737   5.663  0.2576 -0.0048 -0.0768
   45CHL1   H2A 4484   0.113   4.670   5.680  1.4846  1.2762 -1.1602
   45CHL1   H2B 4485  -0.071   4.687   5.689 -0.1482  0.6617 -0.2842
   45CHL1   C20 4486  -0.095   4.914   4.747 -0.3904  0.0499 -0.2008
   45CHL1   H20 4487  -0.205   4.899   4.749 -0.3527 -0.6733 -1.8928
   45CHL1   C21 4488  -0.014   4.783   4.731 -0.1677  0.0188  0.6737
   45CHL1  H21A 4489  -0.040   4.748   4.628  1.3848  1.4133 -0.2505
   45CHL1  H21B 4490  -0.056   4.706   4.799  3.4515 -1.7381  1.1675
   45CHL1  H21C 4491   0.094   4.789   4.758 -0.4377 -0.1126  1.8163
   45CHL1   C22 4492  -0.065   5.000   4.617 -0.0567 -0.6390 -0.0843
   45CHL1  H22A 4493  -0.111   5.100   4.633  2.5876  0.2902  2.8890
   45CHL1  H22B 4494   0.046   5.000   4.609  0.4557  2.2193  3.9068
   45CHL1   C23 4495  -0.127   4.948   4.486 -0.1879 -0.1688 -0.2579
   45CHL1  H23A 4496  -0.063   4.865   4.449  1.9575 -0.1606  2.9656
   45CHL1  H23B 4497  -0.234   4.923   4.503  0.0560 -0.5007  0.8791
   45CHL1   C24 4498  -0.113   5.056   4.379  0.0568 -0.0386  0.1400
   45CHL1  H24A 4499  -0.186   5.131   4.418  0.9870  0.2523  1.3805
   45CHL1  H24B 4500  -0.008   5.090   4.374  0.2921 -0.8995 -1.2496
   45CHL1   C25 4501  -0.169   5.015   4.241  0.5309  0.8118 -0.1745
   45CHL1   H25 4502  -0.265   4.963   4.262  1.3876 -2.0795 -2.8192
   45CHL1   C26 4503  -0.191   5.139   4.150  0.5465 -0.0340 -0.0526
   45CHL1  H26A 4504  -0.264   5.208   4.198  3.1041  1.2736  2.2233
   45CHL1  H26B 4505  -0.101   5.200   4.127 -0.6299  2.4632  1.5405
   45CHL1  H26C 4506  -0.240   5.095   4.060 -0.1769  2.1564 -0.7822
   45CHL1   C27 4507  -0.074   4.920   4.178 -0.7053  0.6683  0.3171
   45CHL1  H27A 4508  -0.084   4.902   4.069 -1.3072  3.5920 -0.2159
   45CHL1  H27B 4509   0.024   4.968   4.200 -0.3186 -1.4385  3.9015
   45CHL1  H27C 4510  -0.071   4.828   4.239  0.5657  0.7034  0.3345
   46CHL1    C3 4511   1.130   5.863   5.598  0.1498  0.7073  0.2352
   46CHL1    H3 4512   1.237   5.893   5.599  0.3189  0.3444  3.6138
   46CHL1    O3 4513   1.102   5.803   5.722 -0.0317 -0.2707 -0.0873
   46CHL1   H3' 4514   1.015   5.764   5.713 -0.3268  0.2925  0.3306
   46CHL1    C4 4515   1.034   5.982   5.577 -0.1402 -0.6106  0.5830
   46CHL1   H4A 4516   0.927   5.955   5.594 -0.4215  0.1906  0.1465
   46CHL1   H4B 4517   1.056   6.053   5.660 -1.2332  0.9905 -0.4446
   46CHL1    C5 4518   1.050   6.041   5.439  0.7399 -0.2251 -0.3819
   46CHL1    C6 4519   1.091   6.165   5.409 -0.2248  0.2415 -0.6921
   46CHL1    H6 4520   1.113   6.215   5.505 -0.9849 -2.4672  1.0032
   46CHL1    C7 4521   1.102   6.222   5.272 -0.3105 -0.6308 -0.1962
   46CHL1   H7A 4522   1.073   6.329   5.274 -0.1661 -0.4805 -2.6720
   46CHL1   H7B 4523   1.208   6.222   5.238  0.1378 -0.6211  1.1504
   46CHL1    C8 4524   1.014   6.140   5.170 -0.0742 -0.5634  0.1507
   46CHL1    H8 4525   0.905   6.145   5.194 -0.1190  0.4245 -0.1997
   46CHL1   C14 4526   1.032   6.195   5.027 -0.3466  0.0447  0.6188
   46CHL1   H14 4527   1.142   6.189   5.012 -0.0228  1.2333  2.2818
   46CHL1   C15 4528   0.999   6.341   5.005 -0.0350  0.0078 -0.6847
   46CHL1  H15A 4529   0.893   6.367   5.029  0.6625  2.6317 -0.1594
   46CHL1  H15B 4530   1.075   6.398   5.062 -0.6809  0.6314 -0.4352
   46CHL1   C16 4531   1.003   6.347   4.851 -0.1993 -0.1944  0.9184
   46CHL1  H16A 4532   0.915   6.405   4.817  0.7599  0.2504 -0.9790
   46CHL1  H16B 4533   1.099   6.382   4.806 -0.7362 -0.3240 -0.3749
   46CHL1   C17 4534   0.986   6.200   4.791 -0.0835 -0.3928 -0.3327
   46CHL1   H17 4535   1.087   6.175   4.753  0.1168  1.5117 -1.1372
   46CHL1   C13 4536   0.956   6.113   4.919 -0.7675 -0.1296  0.2258
   46CHL1   C18 4537   0.800   6.119   4.935 -0.5497  0.2284  0.4326
   46CHL1  H18A 4538   0.751   6.043   4.871 -1.6641  1.4222 -0.1739
   46CHL1  H18B 4539   0.768   6.093   5.038  0.9444  1.0778  1.1498
   46CHL1  H18C 4540   0.766   6.222   4.912 -0.8762  0.2705  1.0741
   46CHL1   C12 4541   1.011   5.972   4.925 -0.6672 -0.6833 -0.2042
   46CHL1  H12A 4542   0.972   5.911   4.841  0.6797  0.2802 -1.5964
   46CHL1  H12B 4543   1.122   5.978   4.917 -0.7333 -0.7584 -1.2557
   46CHL1   C11 4544   0.983   5.906   5.062  0.0331  0.0711 -0.1471
   46CHL1  H11A 4545   0.873   5.892   5.071  0.1825 -0.0618  2.0829
   46CHL1  H11B 4546   1.033   5.809   5.081  0.2976  0.6268  2.4772
   46CHL1    C9 4547   1.042   5.995   5.185 -0.1259  0.0600  0.0630
   46CHL1    H9 4548   1.152   5.984   5.176  0.1426  2.0010  0.6891
   46CHL1   C10 4549   1.018   5.945   5.332 -0.0705  0.0763  0.2759
   46CHL1   C19 4550   0.876   5.890   5.326  0.2572  0.1697  0.2188
   46CHL1  H19A 4551   0.852   5.846   5.425  0.2960  2.1013  1.1450
   46CHL1  H19B 4552   0.800   5.969   5.307  0.3115  0.4415  1.0742
   46CHL1  H19C 4553   0.869   5.804   5.257  0.0499  1.0347 -0.8715
   46CHL1    C1 4554   1.118   5.826   5.349  0.0844 -0.4737  0.0607
   46CHL1   H1A 4555   1.081   5.746   5.283 -3.6368  0.5090  0.7266
   46CHL1   H1B 4556   1.221   5.859   5.323  0.7437 -2.3681  0.1096
   46CHL1    C2 4557   1.106   5.757   5.489  0.0920 -0.0662 -0.8467
   46CHL1   H2A 4558   1.180   5.676   5.499  1.1525  0.8550 -0.9862
   46CHL1   H2B 4559   1.007   5.709   5.501  0.9358 -1.4429  0.9795
   46CHL1   C20 4560   0.900   6.188   4.665 -0.2739 -0.1495  0.1556
   46CHL1   H20 4561   0.791   6.177   4.687 -0.1226 -1.4314  0.3385
   46CHL1   C21 4562   0.937   6.056   4.585  0.7611  0.3985 -0.1849
   46CHL1  H21A 4563   0.879   6.055   4.490 -0.3667 -0.4833  0.4971
   46CHL1  H21B 4564   0.906   5.959   4.628  2.2834 -1.0830 -2.2116
   46CHL1  H21C 4565   1.046   6.051   4.561  1.3776 -1.4621  2.6084
   46CHL1   C22 4566   0.907   6.312   4.571 -0.3135 -0.6368  0.2682
   46CHL1  H22A 4567   0.864   6.400   4.624 -1.3790 -0.5151 -0.7320
   46CHL1  H22B 4568   1.016   6.318   4.551 -0.5488 -1.3357 -1.3486
   46CHL1   C23 4569   0.831   6.298   4.437  0.0372 -0.4079  0.2508
   46CHL1  H23A 4570   0.901   6.237   4.376 -0.4531 -1.5292  0.7843
   46CHL1  H23B 4571   0.731   6.251   4.449  0.6702 -2.2474 -1.2521
   46CHL1   C24 4572   0.812   6.436   4.362  0.0081 -1.0500 -0.3063
   46CHL1  H24A 4573   0.736   6.483   4.429  0.0457 -1.6413  0.1670
   46CHL1  H24B 4574   0.907   6.494   4.367 -1.6663  1.8135  2.9107
   46CHL1   C25 4575   0.751   6.425   4.217  0.2868  0.7168 -0.0753
   46CHL1   H25 4576   0.645   6.394   4.228 -0.2357  2.2999 -0.3926
   46CHL1   C26 4577   0.756   6.562   4.139  0.1348  1.0098 -0.8125
   46CHL1  H26A 4578   0.857   6.607   4.129  0.9046 -0.5979 -0.5676
   46CHL1  H26B 4579   0.725   6.534   4.036  2.9749  0.9238 -1.7082
   46CHL1  H26C 4580   0.689   6.639   4.182 -0.4774 -0.2894  0.6826
   46CHL1   C27 4581   0.836   6.327   4.137 -0.1209  0.2157 -0.5686
   46CHL1  H27A 4582   0.824   6.336   4.026  1.0906  0.1548 -0.7125
   46CHL1  H27B 4583   0.943   6.349   4.156  0.3425 -1.9328 -0.4215
   46CHL1  H27C 4584   0.810   6.224   4.171 -1.3276  0.8738  0.6148
   47CHL1    C3 4585   1.394   0.204   5.909 -0.8750  0.5801  0.2018
   47CHL1    H3 4586   1.334   0.292   5.941 -0.9952  0.0086  1.6208
   47CHL1    O3 4587   1.472   0.180   6.021 -0.3349 -0.1047  0.0444
   47CHL1   H3' 4588   1.511   0.097   5.994  0.5604  0.7931 -1.5700
   47CHL1    C4 4589   1.295   0.083   5.877 -0.2072  0.0597 -0.3331
   47CHL1   H4A 4590   1.353  -0.012   5.880 -0.8361 -0.3332 -0.4597
   47CHL1   H4B 4591   1.217   0.080   5.956  0.1973  1.1968  0.1293
   47CHL1    C5 4592   1.217   0.092   5.750 -0.3456 -0.3675  0.2642
   47CHL1    C6 4593   1.084   0.088   5.747 -0.2380  0.5236 -0.4119
   47CHL1    H6 4594   1.023   0.065   5.835 -0.1118 -3.1865 -1.1522
   47CHL1    C7 4595   1.009   0.084   5.623  0.4187 -0.6485 -0.1749
   47CHL1   H7A 4596   0.930   0.005   5.632  0.6349 -0.9099 -0.5413
   47CHL1   H7B 4597   0.946   0.175   5.615  0.0318 -0.9681 -0.9288
   47CHL1    C8 4598   1.099   0.074   5.494  0.0272  0.1714  0.2830
   47CHL1    H8 4599   1.138  -0.030   5.501 -0.2949  0.0305 -0.0111
   47CHL1   C14 4600   1.023   0.109   5.370 -0.3437  0.1759 -0.5238
   47CHL1   H14 4601   0.977   0.210   5.379  1.1471  0.7323  2.6279
   47CHL1   C15 4602   0.899   0.025   5.355 -0.2003 -0.0795 -0.3042
   47CHL1  H15A 4603   0.922  -0.081   5.379  1.6608  0.6930  1.6254
   47CHL1  H15B 4604   0.815   0.056   5.421 -0.2494  0.2146 -0.4984
   47CHL1   C16 4605   0.862   0.049   5.206  0.3482  0.1698  0.3603
   47CHL1  H16A 4606   0.830  -0.051   5.168  0.2777  0.7732 -1.2630
   47CHL1  H16B 4607   0.781   0.125   5.209  1.1671  1.0307  2.5397
   47CHL1   C17 4608   0.986   0.114   5.135  0.1008  0.3950 -0.1384
   47CHL1   H17 4609   0.958   0.221   5.136 -0.4400  0.2555  0.4815
   47CHL1   C13 4610   1.099   0.103   5.234 -0.3375 -0.4334 -0.1674
   47CHL1   C18 4611   1.165  -0.038   5.216  0.1610 -0.2272 -0.5107
   47CHL1  H18A 4612   1.083  -0.112   5.219  1.2430 -1.4686 -0.1365
   47CHL1  H18B 4613   1.205  -0.048   5.113 -1.9629 -0.5103 -1.3577
   47CHL1  H18C 4614   1.239  -0.064   5.296 -0.9989  0.3353  0.7747
   47CHL1   C12 4615   1.208   0.215   5.243  0.8756 -0.0584  0.0341
   47CHL1  H12A 4616   1.264   0.225   5.148  1.4019 -0.5576  0.2875
   47CHL1  H12B 4617   1.149   0.307   5.263 -1.7420 -1.4812 -0.6190
   47CHL1   C11 4618   1.296   0.193   5.367  0.3411 -0.0065  0.8946
   47CHL1  H11A 4619   1.372   0.115   5.344 -1.0226 -0.8198 -1.1149
   47CHL1  H11B 4620   1.365   0.277   5.387 -1.6086  1.4337  1.9026
   47CHL1    C9 4621   1.222   0.166   5.505 -0.5699 -0.2497 -0.0656
   47CHL1    H9 4622   1.178   0.265   5.529 -0.5457 -0.2456 -0.0373
   47CHL1   C10 4623   1.310   0.129   5.625  0.2360 -0.0193  0.3095
   47CHL1   C19 4624   1.390   0.000   5.592 -0.0553 -0.3221  0.2740
   47CHL1  H19A 4625   1.456  -0.027   5.677 -0.3730  0.9957  0.9708
   47CHL1  H19B 4626   1.317  -0.082   5.573 -0.6887  0.0600  0.9836
   47CHL1  H19C 4627   1.459  -0.001   5.505  0.4730 -2.6931  0.6536
   47CHL1    C1 4628   1.400   0.252   5.660  0.3152  0.6415 -0.0703
   47CHL1   H1A 4629   1.460   0.284   5.572 -1.1089  2.3550 -0.4662
   47CHL1   H1B 4630   1.332   0.335   5.689 -2.7177 -1.5084 -0.6717
   47CHL1    C2 4631   1.485   0.231   5.794  1.1939  0.0670  0.0889
   47CHL1   H2A 4632   1.536   0.327   5.818  2.2514 -0.7859  1.4173
   47CHL1   H2B 4633   1.568   0.159   5.779  1.8980  0.6104  1.2222
   47CHL1   C20 4634   1.000   0.083   4.983  0.4083  0.8443 -0.0158
   47CHL1   H20 4635   1.020  -0.026   4.973  1.9929  1.2721 -2.3684
   47CHL1   C21 4636   1.123   0.154   4.930 -0.1725 -0.5154  0.7912
   47CHL1  H21A 4637   1.216   0.115   4.976  1.7405  0.6663 -1.8636
   47CHL1  H21B 4638   1.125   0.262   4.953 -0.7698 -0.5494  1.0324
   47CHL1  H21C 4639   1.141   0.149   4.821  2.9922  1.1158  1.1466
   47CHL1   C22 4640   0.880   0.125   4.892 -0.4415 -0.3163 -0.4328
   47CHL1  H22A 4641   0.790   0.103   4.952  0.6391  0.5176  1.5708
   47CHL1  H22B 4642   0.874   0.235   4.882 -1.4366 -0.2759  0.4968
   47CHL1   C23 4643   0.874   0.053   4.761 -0.3094  0.7885  0.0842
   47CHL1  H23A 4644   0.961   0.058   4.691 -0.0739 -1.5948  0.1133
   47CHL1  H23B 4645   0.881  -0.053   4.794 -1.9003  0.0824 -1.6583
   47CHL1   C24 4646   0.757   0.092   4.670 -0.6117 -0.3687 -0.0084
   47CHL1  H24A 4647   0.662   0.080   4.727  0.5560 -2.4424  1.6704
   47CHL1  H24B 4648   0.770   0.200   4.647 -1.4393 -0.5431 -1.4618
   47CHL1   C25 4649   0.748   0.005   4.544  0.0944 -0.1649 -0.0651
   47CHL1   H25 4650   0.848   0.030   4.503  1.2892 -1.5563  1.8009
   47CHL1   C26 4651   0.722  -0.146   4.562 -0.2245  0.4053 -0.1329
   47CHL1  H26A 4652   0.792  -0.186   4.639 -1.2042  2.1261  1.7466
   47CHL1  H26B 4653   0.624  -0.173   4.607 -0.6825 -0.9076 -1.7956
   47CHL1  H26C 4654   0.730  -0.216   4.476 -2.9441 -0.0233 -0.1182
   47CHL1   C27 4655   0.638   0.061   4.447 -0.6264 -0.0474  0.2439
   47CHL1  H27A 4656   0.652   0.169   4.426 -0.6268 -0.4233 -1.8633
   47CHL1  H27B 4657   0.633  -0.006   4.359  0.0295 -0.9769  0.8913
   47CHL1  H27C 4658   0.540   0.061   4.500  0.0844 -1.1461  1.6273
   48CHL1    C3 4659   6.032   0.034   5.865  0.6322  0.9100 -0.5813
   48CHL1    H3 4660   5.978   0.120   5.820  1.5644  0.3094 -3.0129
   48CHL1    O3 4661   6.010   0.043   6.005  0.1655 -0.1196  0.5994
   48CHL1   H3' 4662   6.098   0.032   6.041  0.4362 -1.2457 -0.3272
   48CHL1    C4 4663   5.969  -0.096   5.816  0.1049  0.2866 -0.2176
   48CHL1   H4A 4664   6.006  -0.174   5.885  1.5668  0.8747 -0.3175
   48CHL1   H4B 4665   5.861  -0.107   5.840  0.3416  1.3053  1.5010
   48CHL1    C5 4666   5.990  -0.124   5.668  0.2836 -0.4365 -0.1019
   48CHL1    C6 4667   5.882  -0.143   5.595  0.4359 -0.1073  0.1096
   48CHL1    H6 4668   5.788  -0.136   5.651  0.3739  2.3141 -0.1881
   48CHL1    C7 4669   5.892  -0.132   5.452 -0.1358  0.3021  0.6876
   48CHL1   H7A 4670   5.838  -0.209   5.394  3.7811 -1.9981 -0.3319
   48CHL1   H7B 4671   5.858  -0.031   5.422  0.7166 -0.0874 -1.7989
   48CHL1    C8 4672   6.033  -0.141   5.389 -0.3959  1.0738  0.1914
   48CHL1    H8 4673   6.059  -0.249   5.391 -0.7072  0.8679 -2.4568
   48CHL1   C14 4674   6.032  -0.104   5.238  0.5637  0.5855 -0.2562
   48CHL1   H14 4675   6.026   0.007   5.247 -0.4690  0.4012  1.6911
   48CHL1   C15 4676   5.917  -0.157   5.147  0.1383 -0.2229  0.3775
   48CHL1  H15A 4677   5.879  -0.260   5.162  0.8796 -0.2515  2.3402
   48CHL1  H15B 4678   5.833  -0.087   5.164  0.9137  0.6073  0.9417
   48CHL1   C16 4679   5.978  -0.143   5.002 -0.0877 -0.3669 -0.2723
   48CHL1  H16A 4680   5.983  -0.250   4.972 -0.6003 -0.1709 -1.0828
   48CHL1  H16B 4681   5.913  -0.085   4.934  0.3211  0.4918  0.0527
   48CHL1   C17 4682   6.128  -0.084   5.019  0.1214  0.2101 -0.2257
   48CHL1   H17 4683   6.115   0.026   5.020  1.2672  0.3644  1.2334
   48CHL1   C13 4684   6.161  -0.126   5.164  0.9705  0.0588  0.6438
   48CHL1   C18 4685   6.199  -0.276   5.160 -0.6053 -0.8274  0.4784
   48CHL1  H18A 4686   6.115  -0.331   5.113 -1.5989  1.6239 -0.7807
   48CHL1  H18B 4687   6.295  -0.287   5.105  0.5532  0.4338  2.1415
   48CHL1  H18C 4688   6.212  -0.322   5.261  0.0274  0.4229  0.9869
   48CHL1   C12 4689   6.270  -0.041   5.234  0.2072  0.4076  0.7378
   48CHL1  H12A 4690   6.365  -0.072   5.186  0.5064  1.4262  0.6449
   48CHL1  H12B 4691   6.246   0.065   5.208  0.6455 -0.1952 -2.4850
   48CHL1   C11 4692   6.269  -0.067   5.381 -0.5718  0.2562 -0.1999
   48CHL1  H11A 4693   6.301  -0.172   5.401 -2.2624 -0.3901 -0.7320
   48CHL1  H11B 4694   6.333   0.005   5.437 -0.1161 -0.3285  0.0440
   48CHL1    C9 4695   6.129  -0.061   5.455 -0.0208 -0.4334 -0.5182
   48CHL1    H9 4696   6.087   0.042   5.455 -1.4070 -0.9476  1.2695
   48CHL1   C10 4697   6.132  -0.094   5.608  0.5781 -0.4670  0.2899
   48CHL1   C19 4698   6.206  -0.225   5.641  0.7087  0.0353  0.1538
   48CHL1  H19A 4699   6.304  -0.202   5.596 -0.2949  1.3294 -1.4814
   48CHL1  H19B 4700   6.220  -0.249   5.748 -1.7246  0.1904  0.5678
   48CHL1  H19C 4701   6.155  -0.312   5.594 -0.2864  0.3900  0.5515
   48CHL1    C1 4702   6.192   0.030   5.674 -0.1286 -0.3783 -0.4775
   48CHL1   H1A 4703   6.298   0.055   5.651  0.4348 -0.0258  2.1701
   48CHL1   H1B 4704   6.132   0.115   5.636 -1.2309  0.3770  2.6261
   48CHL1    C2 4705   6.181   0.057   5.828 -0.2313 -0.5317 -0.2664
   48CHL1   H2A 4706   6.207   0.162   5.852 -0.5231 -0.5268  0.0284
   48CHL1   H2B 4707   6.246  -0.012   5.888 -0.1264  1.5763  2.2146
   48CHL1   C20 4708   6.229  -0.112   4.906  0.1716 -0.7748  0.3075
   48CHL1   H20 4709   6.298  -0.195   4.933  1.8094 -0.0837 -1.4873
   48CHL1   C21 4710   6.311   0.016   4.892 -0.2164 -1.1071 -0.1685
   48CHL1  H21A 4711   6.242   0.082   4.834  0.3202 -1.1325 -0.8473
   48CHL1  H21B 4712   6.342   0.063   4.987  0.0316 -0.4919 -0.5446
   48CHL1  H21C 4713   6.392   0.004   4.816 -1.1920 -1.1933 -1.2294
   48CHL1   C22 4714   6.164  -0.157   4.772 -0.5047 -0.7278 -0.7211
   48CHL1  H22A 4715   6.124  -0.259   4.789 -0.0119 -0.4794  2.4646
   48CHL1  H22B 4716   6.078  -0.088   4.753 -0.2125 -0.7793 -2.3841
   48CHL1   C23 4717   6.267  -0.172   4.657 -0.2287 -0.5547 -0.0479
   48CHL1  H23A 4718   6.288  -0.068   4.624  0.8795 -0.6168  0.4001
   48CHL1  H23B 4719   6.362  -0.216   4.697 -0.3874 -0.3061  0.6221
   48CHL1   C24 4720   6.209  -0.254   4.541  0.3846  0.1555  0.0990
   48CHL1  H24A 4721   6.165  -0.349   4.580 -1.2958  0.4838 -0.8980
   48CHL1  H24B 4722   6.121  -0.202   4.498 -0.4097 -0.3256  1.0850
   48CHL1   C25 4723   6.308  -0.286   4.425  0.2651  0.4215  0.7773
   48CHL1   H25 4724   6.406  -0.297   4.476 -0.6267 -1.7875  2.1917
   48CHL1   C26 4725   6.268  -0.414   4.341 -0.4929 -0.2290 -0.2482
   48CHL1  H26A 4726   6.345  -0.455   4.272 -0.1211 -0.8210  0.5115
   48CHL1  H26B 4727   6.246  -0.496   4.412 -2.3690  0.2471 -0.2278
   48CHL1  H26C 4728   6.174  -0.401   4.283 -0.7140 -0.0186  0.1552
   48CHL1   C27 4729   6.314  -0.168   4.333  0.1445  0.5803  0.1063
   48CHL1  H27A 4730   6.395  -0.175   4.258  0.4198 -0.4455  0.4892
   48CHL1  H27B 4731   6.214  -0.153   4.287 -0.9240 -0.5813  1.8872
   48CHL1  H27C 4732   6.341  -0.080   4.395  0.0836  0.1207  0.7920
   49CHL1    C3 4733   4.192   4.395   2.580  0.4274 -0.4515 -0.3587
   49CHL1    H3 4734   4.199   4.504   2.562  0.5809 -0.3817  0.1213
   49CHL1    O3 4735   4.175   4.309   2.467  0.1589 -0.6306  0.3120
   49CHL1   H3' 4736   4.081   4.314   2.446  0.2477 -0.4931 -0.0679
   49CHL1    C4 4737   4.331   4.371   2.646 -0.4650  1.1414  0.2193
   49CHL1   H4A 4738   4.352   4.263   2.658 -0.9341  0.9350 -0.7418
   49CHL1   H4B 4739   4.401   4.409   2.568 -0.1211 -1.4221 -0.7967
   49CHL1    C5 4740   4.362   4.424   2.789 -0.2734  0.4514  0.4329
   49CHL1    C6 4741   4.459   4.504   2.819 -0.4260 -0.0965  0.7708
   49CHL1    H6 4742   4.526   4.540   2.740 -2.6282  1.0283 -0.6845
   49CHL1    C7 4743   4.480   4.565   2.958  0.1130  0.3565 -0.3807
   49CHL1   H7A 4744   4.578   4.557   3.010 -0.4848 -0.3268  0.6707
   49CHL1   H7B 4745   4.451   4.672   2.948  0.8868  0.3729 -3.2493
   49CHL1    C8 4746   4.391   4.497   3.059 -0.6623  0.4247 -0.4830
   49CHL1    H8 4747   4.438   4.399   3.081 -0.1108  0.8265  0.1542
   49CHL1   C14 4748   4.394   4.577   3.182  0.4424 -0.3336 -0.2455
   49CHL1   H14 4749   4.328   4.663   3.157 -1.6249 -1.5255  0.8759
   49CHL1   C15 4750   4.523   4.639   3.237  0.7710 -0.9855  0.2076
   49CHL1  H15A 4751   4.604   4.567   3.258  0.4471 -1.4268 -0.0557
   49CHL1  H15B 4752   4.563   4.713   3.164 -1.5362  0.5266  0.3537
   49CHL1   C16 4753   4.474   4.709   3.366  0.1361  0.5278  0.5147
   49CHL1  H16A 4754   4.555   4.705   3.442  0.4317 -0.3423  0.1703
   49CHL1  H16B 4755   4.447   4.815   3.351  2.4081  0.7765 -2.7365
   49CHL1   C17 4756   4.342   4.638   3.403  0.7327 -0.3017 -0.1841
   49CHL1   H17 4757   4.263   4.708   3.366  0.4385 -0.8537 -0.6095
   49CHL1   C13 4758   4.329   4.521   3.303 -0.6593 -0.2395  0.1515
   49CHL1   C18 4759   4.397   4.393   3.355  0.3993  0.6575  0.0461
   49CHL1  H18A 4760   4.493   4.423   3.402  0.9018 -1.1475  0.2508
   49CHL1  H18B 4761   4.335   4.356   3.439  0.4272  0.5586  0.0232
   49CHL1  H18C 4762   4.415   4.319   3.274  0.8941  1.8215 -0.9497
   49CHL1   C12 4763   4.185   4.491   3.263 -0.0656 -0.3768  0.1476
   49CHL1  H12A 4764   4.138   4.445   3.352  2.3047 -1.1408  1.0904
   49CHL1  H12B 4765   4.143   4.591   3.238  1.8154  0.9259  1.9422
   49CHL1   C11 4766   4.172   4.405   3.137 -0.4395 -0.1149 -0.3174
   49CHL1  H11A 4767   4.218   4.310   3.170 -0.9686  0.1910  1.3863
   49CHL1  H11B 4768   4.063   4.398   3.116 -0.4124  0.2063 -0.5743
   49CHL1    C9 4769   4.250   4.466   3.016 -0.3342  0.0560 -0.5563
   49CHL1    H9 4770   4.215   4.570   2.995  1.4520  1.1756  1.5327
   49CHL1   C10 4771   4.244   4.390   2.884  0.6204 -0.3641 -0.4585
   49CHL1   C19 4772   4.260   4.240   2.916  0.3936  0.0785 -0.2588
   49CHL1  H19A 4773   4.157   4.204   2.937  0.2841  1.0990  1.1309
   49CHL1  H19B 4774   4.302   4.187   2.829  0.5741 -3.2810  1.6882
   49CHL1  H19C 4775   4.332   4.226   3.000  0.7329  1.0022 -0.3908
   49CHL1    C1 4776   4.103   4.417   2.814  0.2671 -0.1430 -0.2781
   49CHL1   H1A 4777   4.022   4.378   2.880 -0.4495  1.2866 -0.2834
   49CHL1   H1B 4778   4.087   4.527   2.806 -0.9344 -0.1729  1.3328
   49CHL1    C2 4779   4.081   4.357   2.676  0.3042  0.0011 -0.8579
   49CHL1   H2A 4780   3.989   4.398   2.630  0.1132  1.5454  0.7842
   49CHL1   H2B 4781   4.084   4.247   2.694  1.1864  0.2082  0.3957
   49CHL1   C20 4782   4.303   4.595   3.550  0.8676 -0.2373  0.1319
   49CHL1   H20 4783   4.237   4.506   3.554  1.1186 -0.4465 -0.3707
   49CHL1   C21 4784   4.221   4.706   3.622  0.9375  0.1994  0.0226
   49CHL1  H21A 4785   4.140   4.739   3.554  0.3741 -2.5617 -0.7707
   49CHL1  H21B 4786   4.280   4.796   3.648  2.2979 -0.5838 -0.2532
   49CHL1  H21C 4787   4.165   4.660   3.707  0.6763 -0.2092 -0.3690
   49CHL1   C22 4788   4.425   4.560   3.645  0.1434 -0.4482 -0.8885
   49CHL1  H22A 4789   4.504   4.500   3.596 -0.4679 -0.9385 -1.2946
   49CHL1  H22B 4790   4.475   4.654   3.676  0.8118 -0.8012 -0.8749
   49CHL1   C23 4791   4.385   4.476   3.771 -0.1076  0.6788 -0.1898
   49CHL1  H23A 4792   4.307   4.522   3.836  0.4937  2.1893 -0.4898
   49CHL1  H23B 4793   4.335   4.384   3.735 -0.2943  1.3020 -1.5896
   49CHL1   C24 4794   4.504   4.454   3.858  0.5054  0.6830 -0.3905
   49CHL1  H24A 4795   4.467   4.394   3.945  0.6970  1.2568  0.0970
   49CHL1  H24B 4796   4.573   4.382   3.810 -0.3518 -0.3983 -0.0578
   49CHL1   C25 4797   4.577   4.579   3.910  0.1303  0.1845  0.1459
   49CHL1   H25 4798   4.628   4.634   3.829  3.1672  0.2182  1.9107
   49CHL1   C26 4799   4.483   4.672   3.986  0.4945 -0.0105 -0.4345
   49CHL1  H26A 4800   4.400   4.698   3.917 -0.8038 -0.7631  0.7933
   49CHL1  H26B 4801   4.451   4.614   4.075 -0.6155  1.1804 -0.0314
   49CHL1  H26C 4802   4.543   4.755   4.028 -0.4514 -0.7638  2.7130
   49CHL1   C27 4803   4.690   4.537   4.004 -0.1183  0.7753 -0.0052
   49CHL1  H27A 4804   4.645   4.474   4.083 -0.1123 -1.1033 -1.4393
   49CHL1  H27B 4805   4.764   4.481   3.944  0.5297 -0.3695  1.7984
   49CHL1  H27C 4806   4.736   4.628   4.049 -0.1568  1.4774 -1.3112
   50CHL1    C3 4807   4.182   3.009   2.422 -0.0259 -0.1542 -0.5649
   50CHL1    H3 4808   4.254   2.943   2.475 -2.1165 -2.1050  0.0194
   50CHL1    O3 4809   4.202   3.003   2.284 -0.3413  0.4209  0.5880
   50CHL1   H3' 4810   4.233   3.087   2.251  0.0264 -0.0903 -0.3876
   50CHL1    C4 4811   4.045   2.949   2.458  0.3741 -0.2710 -0.0732
   50CHL1   H4A 4812   3.954   2.982   2.405 -0.1663 -0.8647  0.4739
   50CHL1   H4B 4813   4.055   2.842   2.427 -0.3709 -0.9540  1.9051
   50CHL1    C5 4814   4.020   2.961   2.605  0.0565 -0.1315  0.1906
   50CHL1    C6 4815   4.026   2.852   2.688 -0.0793 -1.0140  0.7559
   50CHL1    H6 4816   4.040   2.750   2.649  1.1750 -0.9031  0.8619
   50CHL1    C7 4817   4.002   2.849   2.838  0.2263  0.3704  0.3283
   50CHL1   H7A 4818   3.929   2.769   2.865 -0.1111  0.6344  0.2191
   50CHL1   H7B 4819   4.092   2.824   2.897 -0.2414 -2.0108  0.1268
   50CHL1    C8 4820   3.940   2.985   2.884  0.4896  0.2550 -0.3804
   50CHL1    H8 4821   3.834   2.995   2.852  0.0695 -0.0423  0.8697
   50CHL1   C14 4822   3.939   2.993   3.041  0.8214  0.9964 -0.4606
   50CHL1   H14 4823   4.046   2.999   3.072  0.7671  1.2447 -0.3180
   50CHL1   C15 4824   3.877   2.882   3.119 -0.0420 -0.5927  0.5680
   50CHL1  H15A 4825   3.777   2.852   3.080 -0.5240  0.9501  0.5383
   50CHL1  H15B 4826   3.951   2.799   3.121 -0.1225 -0.7306 -0.7948
   50CHL1   C16 4827   3.852   2.940   3.259  0.1673  0.0778 -0.1728
   50CHL1  H16A 4828   3.743   2.933   3.280 -0.3587 -1.3026 -2.9175
   50CHL1  H16B 4829   3.909   2.888   3.339  1.3005 -1.9382 -2.2024
   50CHL1   C17 4830   3.885   3.096   3.252 -0.2895  0.5449  0.0697
   50CHL1   H17 4831   3.992   3.100   3.280  0.1210 -0.8587 -1.1703
   50CHL1   C13 4832   3.879   3.124   3.093 -0.8247  0.4671 -0.2069
   50CHL1   C18 4833   3.735   3.141   3.047  0.3300 -0.0090 -0.2112
   50CHL1  H18A 4834   3.669   3.054   3.066  1.4538 -0.9022 -0.3054
   50CHL1  H18B 4835   3.688   3.222   3.106 -1.5693  0.1795 -1.8586
   50CHL1  H18C 4836   3.712   3.178   2.945 -1.3466 -2.7722 -0.9415
   50CHL1   C12 4837   3.975   3.239   3.036  0.1071 -0.5135  0.1369
   50CHL1  H12A 4838   3.926   3.333   3.072 -0.5543 -0.5052 -0.7508
   50CHL1  H12B 4839   4.071   3.217   3.087  0.2283 -1.5737 -0.5375
   50CHL1   C11 4840   3.984   3.243   2.885  0.3037 -0.3504  0.6233
   50CHL1  H11A 4841   3.885   3.274   2.847  0.4354 -0.6055  0.0680
   50CHL1  H11B 4842   4.061   3.316   2.853 -0.0619  0.2430  1.0809
   50CHL1    C9 4843   4.017   3.106   2.820 -0.7094  0.6337  0.0486
   50CHL1    H9 4844   4.119   3.066   2.836 -1.6352 -2.9712 -1.8313
   50CHL1   C10 4845   4.024   3.109   2.663  0.1672  0.6592 -0.3021
   50CHL1   C19 4846   3.903   3.183   2.611  0.0397 -0.0046  0.3393
   50CHL1  H19A 4847   3.810   3.143   2.657  0.6591  0.2184  1.8353
   50CHL1  H19B 4848   3.919   3.291   2.630  0.1114  0.2576 -1.0992
   50CHL1  H19C 4849   3.891   3.173   2.501  0.9750 -3.1894  0.4202
   50CHL1    C1 4850   4.160   3.174   2.618  0.0822 -0.5927  0.2685
   50CHL1   H1A 4851   4.148   3.282   2.640 -2.3635 -0.9881  1.2272
   50CHL1   H1B 4852   4.241   3.125   2.677  0.4191 -0.5389 -0.1482
   50CHL1    C2 4853   4.202   3.155   2.475  0.4911 -0.3079  0.5607
   50CHL1   H2A 4854   4.306   3.185   2.451  0.5053 -0.4427  0.4519
   50CHL1   H2B 4855   4.128   3.216   2.419  1.5434  0.8609  0.3901
   50CHL1   C20 4856   3.809   3.174   3.359  0.1845  0.0784 -0.7206
   50CHL1   H20 4857   3.703   3.176   3.326  1.2625  1.3701 -4.6566
   50CHL1   C21 4858   3.868   3.317   3.358 -0.1099  0.4197 -0.4478
   50CHL1  H21A 4859   3.822   3.371   3.444 -1.3919  1.0827 -1.5120
   50CHL1  H21B 4860   3.842   3.373   3.265  0.1970  1.2918 -0.0234
   50CHL1  H21C 4861   3.978   3.314   3.370 -0.0898  0.5814 -0.5880
   50CHL1   C22 4862   3.820   3.110   3.505  0.4903 -0.1511 -0.2660
   50CHL1  H22A 4863   3.776   3.183   3.576  1.0973 -0.0488  0.0200
   50CHL1  H22B 4864   3.764   3.014   3.504  1.4112 -0.7080 -0.1615
   50CHL1   C23 4865   3.957   3.081   3.565  0.0655  0.6566 -0.0951
   50CHL1  H23A 4866   3.999   2.983   3.532  1.4930  1.5308 -1.0087
   50CHL1  H23B 4867   4.034   3.146   3.518 -0.4708  1.2401 -0.1845
   50CHL1   C24 4868   3.956   3.095   3.715 -0.0469 -0.0307 -0.2421
   50CHL1  H24A 4869   4.058   3.084   3.759 -0.9875 -4.0630  1.4055
   50CHL1  H24B 4870   3.927   3.199   3.741 -0.0885 -0.1342  0.1257
   50CHL1   C25 4871   3.864   2.997   3.790 -0.1565 -0.4082 -0.0991
   50CHL1   H25 4872   3.764   3.038   3.764 -0.8966 -1.6919  0.6874
   50CHL1   C26 4873   3.894   2.854   3.747  0.0700  0.1744  0.2625
   50CHL1  H26A 4874   3.846   2.771   3.802  0.6696 -0.5841 -0.3329
   50CHL1  H26B 4875   3.862   2.837   3.642 -0.2316  2.8713 -0.1606
   50CHL1  H26C 4876   4.004   2.838   3.753  0.4829  1.6113 -2.1230
   50CHL1   C27 4877   3.882   3.021   3.944 -0.6328  0.0872  0.4665
   50CHL1  H27A 4878   3.990   3.003   3.964 -0.7925 -0.5999  0.7305
   50CHL1  H27B 4879   3.841   3.116   3.984 -0.9875  0.1143  0.0400
   50CHL1  H27C 4880   3.828   2.942   4.000 -1.1424  0.5051  0.5740
   51CHL1    C3 4881   3.910   4.892   2.539 -0.2167  0.0517 -0.5602
   51CHL1    H3 4882   3.842   4.973   2.575 -1.5548  0.1845 -3.1512
   51CHL1    O3 4883   3.850   4.839   2.420  0.2051  0.0965 -0.0185
   51CHL1   H3' 4884   3.927   4.796   2.381  0.5819 -0.3359  1.1451
   51CHL1    C4 4885   4.046   4.953   2.519 -0.0419 -0.8014  0.2052
   51CHL1   H4A 4886   4.122   4.886   2.475  1.0224 -0.7893  1.9034
   51CHL1   H4B 4887   4.020   5.034   2.448  0.6771 -0.5001  0.2823
   51CHL1    C5 4888   4.100   5.016   2.649  0.3444  0.2181 -0.4226
   51CHL1    C6 4889   4.139   5.142   2.668  0.3021  0.1931  0.0478
   51CHL1    H6 4890   4.133   5.208   2.581  0.0682  1.5661  1.0646
   51CHL1    C7 4891   4.181   5.207   2.801  0.4498  0.3406 -0.1250
   51CHL1   H7A 4892   4.273   5.269   2.792  1.7449 -1.4425  0.2117
   51CHL1   H7B 4893   4.111   5.280   2.848  2.0614  1.0077  1.3330
   51CHL1    C8 4894   4.217   5.105   2.910  0.1967  0.0931  0.6950
   51CHL1    H8 4895   4.315   5.055   2.892 -0.8769 -1.5876 -0.7768
   51CHL1   C14 4896   4.225   5.168   3.045 -0.4523  0.2965  0.1212
   51CHL1   H14 4897   4.123   5.208   3.063 -0.7925 -0.4536 -0.1223
   51CHL1   C15 4898   4.313   5.297   3.054 -0.5427 -0.2096  0.0946
   51CHL1  H15A 4899   4.404   5.289   2.992  0.1627  0.9989  0.9368
   51CHL1  H15B 4900   4.243   5.379   3.026  2.1175  2.5292  1.0502
   51CHL1   C16 4901   4.345   5.309   3.207 -0.5167  0.6342  0.4834
   51CHL1  H16A 4902   4.455   5.302   3.220 -0.7752 -0.9475  2.1254
   51CHL1  H16B 4903   4.294   5.400   3.247 -0.7548  0.7268 -0.0224
   51CHL1   C17 4904   4.279   5.175   3.273  0.1560 -0.0670  0.8073
   51CHL1   H17 4905   4.171   5.194   3.288  0.7340  2.2125  2.6464
   51CHL1   C13 4906   4.272   5.068   3.152 -0.3638  0.1021  0.1628
   51CHL1   C18 4907   4.414   5.011   3.123 -0.6566 -0.5836 -0.2489
   51CHL1  H18A 4908   4.427   4.970   3.021  0.4715 -0.6835 -0.0759
   51CHL1  H18B 4909   4.490   5.092   3.126 -0.7815 -0.4658 -0.2603
   51CHL1  H18C 4910   4.450   4.941   3.201 -0.7459  0.8050  1.0811
   51CHL1   C12 4911   4.163   4.962   3.166  0.1627  0.5854 -0.0563
   51CHL1  H12A 4912   4.184   4.893   3.251  1.3692  0.1125 -0.7094
   51CHL1  H12B 4913   4.070   5.017   3.192 -1.4917 -1.6499 -0.9438
   51CHL1   C11 4914   4.130   4.893   3.030 -0.0934  0.1756  0.1483
   51CHL1  H11A 4915   4.221   4.830   3.027 -0.7984 -1.0130  2.0152
   51CHL1  H11B 4916   4.035   4.838   3.047 -1.3678  2.2831  0.1899
   51CHL1    C9 4917   4.107   4.990   2.912 -0.4393 -0.4394 -0.1399
   51CHL1    H9 4918   4.017   5.053   2.924 -1.1378 -1.0903 -1.6762
   51CHL1   C10 4919   4.095   4.922   2.777 -0.3094 -0.5553 -0.6962
   51CHL1   C19 4920   4.217   4.822   2.767 -0.2235  0.0804  0.1119
   51CHL1  H19A 4921   4.313   4.877   2.773 -0.8572  1.4258 -1.3708
   51CHL1  H19B 4922   4.202   4.732   2.831 -0.4210 -1.5729 -2.1557
   51CHL1  H19C 4923   4.220   4.772   2.669 -1.2612  0.2939 -0.0457
   51CHL1    C1 4924   3.957   4.844   2.787  0.1250 -0.0901 -0.0977
   51CHL1   H1A 4925   3.974   4.767   2.865  4.3650  1.1439  0.4440
   51CHL1   H1B 4926   3.885   4.920   2.826 -0.6579 -0.4427 -0.8204
   51CHL1    C2 4927   3.915   4.787   2.652 -0.2495  1.2963 -0.0524
   51CHL1   H2A 4928   3.815   4.741   2.662  0.2292  0.5988  1.9078
   51CHL1   H2B 4929   3.987   4.709   2.616 -1.3910  1.1262 -2.1397
   51CHL1   C20 4930   4.329   5.119   3.411 -0.6505  0.0789  0.1416
   51CHL1   H20 4931   4.322   5.009   3.402  0.1970  0.0951 -0.8464
   51CHL1   C21 4932   4.224   5.163   3.518  0.2233 -0.1818  0.0275
   51CHL1  H21A 4933   4.259   5.115   3.612  1.6900 -1.2721 -1.0296
   51CHL1  H21B 4934   4.130   5.109   3.495 -0.5551  1.3441 -0.5663
   51CHL1  H21C 4935   4.213   5.273   3.531 -0.7741 -0.5386  2.8166
   51CHL1   C22 4936   4.472   5.171   3.447 -0.0279 -0.5785  0.1822
   51CHL1  H22A 4937   4.538   5.165   3.358  0.6972  0.5154  0.6282
   51CHL1  H22B 4938   4.463   5.277   3.477 -0.0384 -0.6220  0.3343
   51CHL1   C23 4939   4.539   5.093   3.564 -0.4681 -0.2096  0.2328
   51CHL1  H23A 4940   4.463   5.063   3.640 -0.2006 -1.8620 -0.1095
   51CHL1  H23B 4941   4.576   4.995   3.526 -1.7074 -0.2741 -0.8905
   51CHL1   C24 4942   4.658   5.164   3.625  0.3875 -0.6031 -0.2161
   51CHL1  H24A 4943   4.707   5.095   3.697  0.7378  1.2374  1.3774
   51CHL1  H24B 4944   4.730   5.186   3.543  0.6610 -0.6808  0.0007
   51CHL1   C25 4945   4.634   5.305   3.696 -0.3438  0.1314  0.0314
   51CHL1   H25 4946   4.626   5.382   3.616 -4.0904 -1.4544 -1.3208
   51CHL1   C26 4947   4.500   5.303   3.773 -0.7429  0.2347 -0.5542
   51CHL1  H26A 4948   4.414   5.309   3.703 -0.6542  1.5649 -0.5817
   51CHL1  H26B 4949   4.501   5.208   3.831 -1.0243  0.4374 -0.2179
   51CHL1  H26C 4950   4.504   5.395   3.835  1.7400 -0.1200 -0.0692
   51CHL1   C27 4951   4.750   5.340   3.790 -0.3616  0.2350  0.1503
   51CHL1  H27A 4952   4.733   5.444   3.826 -2.1534  0.7513 -1.9605
   51CHL1  H27B 4953   4.756   5.272   3.877 -0.4224 -1.0815 -0.8367
   51CHL1  H27C 4954   4.851   5.330   3.744 -0.0195 -0.4303  1.0201
   52CHL1    C3 4955   3.511   5.519   2.587  0.6055 -0.0379 -0.3551
   52CHL1    H3 4956   3.472   5.615   2.626  2.8871  0.8687 -0.1603
   52CHL1    O3 4957   3.472   5.497   2.450  0.2088 -0.1373 -0.2483
   52CHL1   H3' 4958   3.501   5.410   2.423  0.4161  0.2722 -1.4217
   52CHL1    C4 4959   3.662   5.510   2.593  0.1110  0.0627  0.3243
   52CHL1   H4A 4960   3.686   5.422   2.530  1.7409  2.0416 -1.9836
   52CHL1   H4B 4961   3.704   5.599   2.541  0.6264  1.5227  3.0353
   52CHL1    C5 4962   3.729   5.503   2.727 -0.3445 -0.4515 -0.2870
   52CHL1    C6 4963   3.827   5.593   2.764  0.5256  0.1455  0.7198
   52CHL1    H6 4964   3.865   5.665   2.690  1.1370  0.4912  1.3623
   52CHL1    C7 4965   3.883   5.597   2.903  0.0381  0.4258  0.1284
   52CHL1   H7A 4966   3.994   5.591   2.900 -0.0153 -0.5189 -2.2410
   52CHL1   H7B 4967   3.858   5.697   2.942  0.9726 -0.0758  2.1288
   52CHL1    C8 4968   3.840   5.483   3.002  0.3184  0.5097 -0.4568
   52CHL1    H8 4969   3.907   5.396   2.982 -0.2193 -0.2300  0.8023
   52CHL1   C14 4970   3.867   5.528   3.137  0.1565 -0.3698  0.5317
   52CHL1   H14 4971   3.803   5.615   3.165 -0.2324 -0.7198  0.7461
   52CHL1   C15 4972   4.003   5.573   3.175 -0.2159  0.6940  0.6190
   52CHL1  H15A 4973   4.083   5.505   3.140  0.2544  0.7436  1.5678
   52CHL1  H15B 4974   4.035   5.674   3.139 -1.6567  0.9630  0.0397
   52CHL1   C16 4975   4.013   5.578   3.329 -0.3643  0.5307 -0.5275
   52CHL1  H16A 4976   4.110   5.540   3.368  1.0845  2.7115 -1.7274
   52CHL1  H16B 4977   4.003   5.684   3.360  0.2312  0.4778 -0.1314
   52CHL1   C17 4978   3.888   5.495   3.371 -0.1093 -0.2230  0.0783
   52CHL1   H17 4979   3.806   5.569   3.384  0.5947  1.2868 -3.0045
   52CHL1   C13 4980   3.835   5.420   3.242 -0.3610 -0.4057 -0.3938
   52CHL1   C18 4981   3.926   5.296   3.218  0.6753  0.5669 -0.6016
   52CHL1  H18A 4982   3.899   5.220   3.295 -0.5121  2.5479  1.0325
   52CHL1  H18B 4983   3.899   5.241   3.125  0.4918  1.8365 -1.3160
   52CHL1  H18C 4984   4.033   5.325   3.208  1.0210  1.2615  3.4387
   52CHL1   C12 4985   3.683   5.395   3.226  0.1970  0.8739 -0.2069
   52CHL1  H12A 4986   3.653   5.309   3.290  2.1629 -0.7118 -1.3076
   52CHL1  H12B 4987   3.625   5.485   3.259 -0.8931  0.8842 -2.0084
   52CHL1   C11 4988   3.642   5.354   3.087  0.5263 -0.2570  0.0951
   52CHL1  H11A 4989   3.674   5.251   3.064  2.0507  0.6875 -2.3795
   52CHL1  H11B 4990   3.531   5.351   3.084  0.2515  2.7797  1.9592
   52CHL1    C9 4991   3.693   5.445   2.974  1.0533  0.0057 -0.4707
   52CHL1    H9 4992   3.643   5.544   2.986  1.2569  0.0138  0.4084
   52CHL1   C10 4993   3.658   5.405   2.830  0.2166 -0.3302 -0.0821
   52CHL1   C19 4994   3.719   5.264   2.804  0.1892  0.0454 -0.2614
   52CHL1  H19A 4995   3.690   5.180   2.870  0.8958  0.5291  0.6904
   52CHL1  H19B 4996   3.696   5.239   2.698 -1.3102  2.0877 -0.4886
   52CHL1  H19C 4997   3.830   5.264   2.814  0.1782 -1.4137  0.1536
   52CHL1    C1 4998   3.496   5.405   2.817  0.3804 -0.1173 -0.1206
   52CHL1   H1A 4999   3.452   5.320   2.874  0.9858 -0.6110 -0.3737
   52CHL1   H1B 5000   3.467   5.501   2.865  1.4574 -0.8444  2.1136
   52CHL1    C2 5001   3.451   5.399   2.670 -0.1339  0.1285  0.5084
   52CHL1   H2A 5002   3.340   5.408   2.660 -0.1216 -1.5943 -2.0306
   52CHL1   H2B 5003   3.470   5.301   2.622  1.2850  0.5066  0.2511
   52CHL1   C20 5004   3.909   5.415   3.510 -0.1255 -1.0999  0.4415
   52CHL1   H20 5005   3.972   5.326   3.489 -2.2786 -2.2385 -1.6179
   52CHL1   C21 5006   3.773   5.373   3.561 -0.5458 -0.3816 -0.0828
   52CHL1  H21A 5007   3.798   5.325   3.658 -0.2100  1.2985  0.6924
   52CHL1  H21B 5008   3.727   5.302   3.490 -0.8524  1.3245 -1.6767
   52CHL1  H21C 5009   3.708   5.460   3.581 -0.0257 -0.4733  2.3188
   52CHL1   C22 5010   3.989   5.503   3.621 -0.2934 -0.0632 -0.0226
   52CHL1  H22A 5011   4.080   5.554   3.583  0.3830 -1.5748 -0.4839
   52CHL1  H22B 5012   3.911   5.574   3.658 -0.4062 -0.9751  1.5649
   52CHL1   C23 5013   4.030   5.432   3.746  0.0048  0.3238 -0.8900
   52CHL1  H23A 5014   3.952   5.368   3.792  2.2231 -2.0744 -0.2215
   52CHL1  H23B 5015   4.116   5.367   3.717  1.0625  1.8839 -1.4385
   52CHL1   C24 5016   4.084   5.537   3.846  0.2446  0.0158 -0.3521
   52CHL1  H24A 5017   4.178   5.577   3.803 -0.0257  0.4356 -0.5474
   52CHL1  H24B 5018   4.020   5.627   3.856  0.1794 -0.1017  0.3593
   52CHL1   C25 5019   4.112   5.481   3.992 -0.6943 -0.6646 -0.0741
   52CHL1   H25 5020   4.192   5.404   3.986  0.0781  0.1427 -0.2388
   52CHL1   C26 5021   4.158   5.597   4.080  0.2646 -0.4306 -0.5267
   52CHL1  H26A 5022   4.177   5.589   4.190  0.0448  1.6859 -0.2921
   52CHL1  H26B 5023   4.248   5.640   4.032  0.9512 -0.7610  0.4290
   52CHL1  H26C 5024   4.073   5.669   4.078 -0.3454 -1.1519 -2.7426
   52CHL1   C27 5025   3.991   5.410   4.058 -0.0231 -0.0142 -0.4625
   52CHL1  H27A 5026   4.014   5.368   4.158  0.4842 -4.4744 -2.2356
   52CHL1  H27B 5027   3.902   5.477   4.056  0.2420  0.3408 -0.5098
   52CHL1  H27C 5028   3.972   5.316   4.002 -0.0495 -0.2744 -0.0180
   53CHL1    C3 5029   2.933   5.234   2.672  0.2708  0.5591 -0.0469
   53CHL1    H3 5030   2.866   5.319   2.696 -0.3654 -0.4503  1.9955
   53CHL1    O3 5031   2.919   5.218   2.532 -0.0698  0.2339 -0.4429
   53CHL1   H3' 5032   2.959   5.132   2.516  2.2472  1.3715 -1.0294
   53CHL1    C4 5033   3.073   5.273   2.716 -0.2269 -0.0857  0.3666
   53CHL1   H4A 5034   3.140   5.197   2.669 -0.9501 -1.7274  1.8965
   53CHL1   H4B 5035   3.107   5.370   2.673  1.2392 -0.9046 -0.3967
   53CHL1    C5 5036   3.103   5.273   2.868 -0.2716  1.0531 -0.1365
   53CHL1    C6 5037   3.147   5.380   2.934  0.0720  0.2960 -0.6502
   53CHL1    H6 5038   3.159   5.471   2.874 -1.3069  2.8937  2.7214
   53CHL1    C7 5039   3.191   5.374   3.083 -0.1548  0.1629  0.5295
   53CHL1   H7A 5040   3.286   5.428   3.104  0.4250 -0.1332 -1.1519
   53CHL1   H7B 5041   3.122   5.437   3.143  1.0634  1.9155  0.1705
   53CHL1    C8 5042   3.188   5.232   3.141 -0.1225  0.5150 -0.3565
   53CHL1    H8 5043   3.280   5.175   3.115  0.1438  0.8541 -0.1707
   53CHL1   C14 5044   3.182   5.234   3.295  0.2106 -0.0585 -0.0593
   53CHL1   H14 5045   3.081   5.278   3.311  0.5628  1.7646 -2.3387
   53CHL1   C15 5046   3.287   5.315   3.366 -0.2399  0.1977 -1.2809
   53CHL1  H15A 5047   3.388   5.308   3.320  1.6187 -0.2529  2.4767
   53CHL1  H15B 5048   3.255   5.421   3.376 -0.9688 -0.0729 -0.6319
   53CHL1   C16 5049   3.295   5.254   3.505 -0.1901 -0.3984  0.0209
   53CHL1  H16A 5050   3.398   5.213   3.513  0.3363 -0.2780 -3.9117
   53CHL1  H16B 5051   3.263   5.324   3.586  1.2912 -0.6982  0.8987
   53CHL1   C17 5052   3.193   5.135   3.509  0.4158 -0.0765 -0.1426
   53CHL1   H17 5053   3.094   5.167   3.547 -0.1491 -2.0110  0.1137
   53CHL1   C13 5054   3.172   5.098   3.359 -0.7120 -0.1271  0.6064
   53CHL1   C18 5055   3.297   5.020   3.311 -0.3619  0.0884 -0.2413
   53CHL1  H18A 5056   3.313   4.925   3.367 -0.5725 -1.9622 -3.4024
   53CHL1  H18B 5057   3.298   4.988   3.204 -0.2275 -2.1975  0.3752
   53CHL1  H18C 5058   3.390   5.079   3.322 -0.1728 -0.2181 -0.1620
   53CHL1   C12 5059   3.038   5.035   3.308 -0.6049 -0.2915  0.1017
   53CHL1  H12A 5060   3.033   4.933   3.350 -0.7565  0.2313  1.4061
   53CHL1  H12B 5061   2.946   5.092   3.334 -1.1713 -1.1553  0.0194
   53CHL1   C11 5062   3.039   5.025   3.154 -0.2562  0.6013  0.0260
   53CHL1  H11A 5063   3.106   4.943   3.123  1.3804  2.1558 -0.7709
   53CHL1  H11B 5064   2.938   4.989   3.127 -1.2680  3.1277  0.1036
   53CHL1    C9 5065   3.068   5.153   3.082  0.4011  0.1152  0.0320
   53CHL1    H9 5066   2.974   5.206   3.109 -1.8405 -2.3707 -2.3257
   53CHL1   C10 5067   3.061   5.140   2.931 -0.0880  0.6918  0.1446
   53CHL1   C19 5068   3.165   5.039   2.895  0.4089  0.7069  0.1148
   53CHL1  H19A 5069   3.189   5.026   2.787  0.3973 -1.8271  0.3485
   53CHL1  H19B 5070   3.261   5.060   2.947  0.0107  0.4099  0.9934
   53CHL1  H19C 5071   3.138   4.934   2.919  0.0335  0.3011 -1.8977
   53CHL1    C1 5072   2.913   5.110   2.892  0.3788  0.0537  0.3748
   53CHL1   H1A 5073   2.892   5.013   2.942  0.6191  0.0089  0.3859
   53CHL1   H1B 5074   2.842   5.181   2.940 -1.0852 -1.6998  0.9465
   53CHL1    C2 5075   2.878   5.111   2.741  0.4870  0.7358 -0.3823
   53CHL1   H2A 5076   2.768   5.127   2.731  0.4749  0.5746 -0.4980
   53CHL1   H2B 5077   2.909   5.016   2.693 -2.6067 -1.9082  2.3283
   53CHL1   C20 5078   3.246   5.025   3.601 -0.2517 -0.1103  0.2344
   53CHL1   H20 5079   3.342   4.983   3.565  1.6749  2.2815  2.1774
   53CHL1   C21 5080   3.128   4.919   3.615 -0.2909  0.7459  0.4140
   53CHL1  H21A 5081   3.113   4.873   3.515  0.3844  1.6044 -0.0965
   53CHL1  H21B 5082   3.036   4.971   3.650  0.5972  0.8749  2.7648
   53CHL1  H21C 5083   3.161   4.833   3.677  0.2079 -0.6182 -1.6463
   53CHL1   C22 5084   3.284   5.082   3.744  0.4176 -0.5577 -0.6763
   53CHL1  H22A 5085   3.239   5.183   3.754 -0.5974 -0.9470 -1.2306
   53CHL1  H22B 5086   3.231   5.012   3.812 -1.6973  0.0580 -1.6267
   53CHL1   C23 5087   3.431   5.104   3.781  0.3372  0.2213  0.2282
   53CHL1  H23A 5088   3.484   5.009   3.761 -0.4612  0.0109 -0.9777
   53CHL1  H23B 5089   3.476   5.180   3.715  1.4968 -1.9084 -1.5458
   53CHL1   C24 5090   3.442   5.153   3.928 -0.0202 -0.2282  0.2651
   53CHL1  H24A 5091   3.359   5.228   3.934 -0.2349 -0.3507 -0.8883
   53CHL1  H24B 5092   3.433   5.063   3.992  1.3231 -0.5727  0.0028
   53CHL1   C25 5093   3.579   5.212   3.954 -0.4214  0.4812  0.6637
   53CHL1   H25 5094   3.651   5.146   3.901  0.4305  0.0683  2.2566
   53CHL1   C26 5095   3.597   5.347   3.899  0.1692 -0.6668 -0.0255
   53CHL1  H26A 5096   3.703   5.379   3.906 -0.3914  1.6694 -1.0660
   53CHL1  H26B 5097   3.563   5.367   3.795  1.8974  1.9354 -0.1848
   53CHL1  H26C 5098   3.548   5.421   3.966  0.6820  0.3774 -0.7908
   53CHL1   C27 5099   3.626   5.207   4.103  0.2525 -0.0644 -0.1374
   53CHL1  H27A 5100   3.723   5.259   4.117 -0.2775  0.9619 -0.1884
   53CHL1  H27B 5101   3.551   5.261   4.165  1.1320  0.1208  0.8045
   53CHL1  H27C 5102   3.635   5.104   4.143  1.8162 -0.3271 -1.0819
   54CHL1    C3 5103   2.506   5.935   2.353 -0.3862 -0.5128  0.2555
   54CHL1    H3 5104   2.609   5.976   2.353 -0.9024  0.8367 -0.3485
   54CHL1    O3 5105   2.433   5.962   2.234  0.1050  0.1531  0.0214
   54CHL1   H3' 5106   2.390   6.047   2.246 -1.1115 -0.4763  0.2977
   54CHL1    C4 5107   2.520   5.777   2.373 -0.5099  0.2679 -0.0607
   54CHL1   H4A 5108   2.423   5.724   2.365  0.5252 -1.8592  0.8844
   54CHL1   H4B 5109   2.583   5.741   2.289  0.6714  0.4541  0.7167
   54CHL1    C5 5110   2.577   5.734   2.511  0.4357  0.2891 -0.4049
   54CHL1    C6 5111   2.669   5.644   2.517 -0.1702  0.0362 -0.2250
   54CHL1    H6 5112   2.714   5.598   2.428 -1.9412  0.5948 -1.4704
   54CHL1    C7 5113   2.709   5.586   2.657 -0.6893  0.4871  0.5746
   54CHL1   H7A 5114   2.699   5.476   2.672  0.6663  0.5893  2.6229
   54CHL1   H7B 5115   2.813   5.615   2.682  0.0839 -2.1867  0.7575
   54CHL1    C8 5116   2.615   5.624   2.782 -0.1161  0.7424  0.7744
   54CHL1    H8 5117   2.521   5.566   2.772 -0.6324  1.8094 -1.0944
   54CHL1   C14 5118   2.689   5.599   2.910  0.0390 -0.3565 -0.2934
   54CHL1   H14 5119   2.780   5.662   2.908  0.4419 -0.9392 -1.3332
   54CHL1   C15 5120   2.746   5.461   2.936  0.0045 -0.1133  0.7605
   54CHL1  H15A 5121   2.664   5.390   2.911 -2.3549  1.4477  3.4368
   54CHL1  H15B 5122   2.842   5.456   2.880 -0.4378  0.9651 -0.1132
   54CHL1   C16 5123   2.773   5.460   3.088 -0.0490 -0.0898 -0.0892
   54CHL1  H16A 5124   2.726   5.374   3.139  0.4999  0.6960  1.8558
   54CHL1  H16B 5125   2.883   5.461   3.101 -0.2615 -0.3055  1.9467
   54CHL1   C17 5126   2.707   5.590   3.145  0.2408  0.2985 -0.1808
   54CHL1   H17 5127   2.782   5.671   3.155 -1.1793  1.6438  0.0525
   54CHL1   C13 5128   2.611   5.636   3.031 -0.7021 -0.5266 -0.0988
   54CHL1   C18 5129   2.478   5.567   3.046  0.2016  0.3448  0.1686
   54CHL1  H18A 5130   2.432   5.599   3.141  0.6647  0.2501  0.4249
   54CHL1  H18B 5131   2.413   5.597   2.960 -0.2180 -0.5650  0.1548
   54CHL1  H18C 5132   2.485   5.457   3.047  0.5148  0.3660  0.1758
   54CHL1   C12 5133   2.588   5.793   3.026  0.9949  0.2851  0.2090
   54CHL1  H12A 5134   2.523   5.810   3.114  2.8482 -3.9866  2.6925
   54CHL1  H12B 5135   2.693   5.828   3.035  1.5361 -0.7572 -1.5362
   54CHL1   C11 5136   2.518   5.826   2.894  0.5394 -0.0625 -0.5594
   54CHL1  H11A 5137   2.414   5.787   2.895  0.3007  0.4820 -1.7036
   54CHL1  H11B 5138   2.509   5.936   2.880  3.1482  0.3296  0.3104
   54CHL1    C9 5139   2.583   5.770   2.765 -0.4116  0.5429  0.3169
   54CHL1    H9 5140   2.686   5.812   2.762  1.2174 -3.0854  0.1047
   54CHL1   C10 5141   2.512   5.803   2.635 -0.3720 -0.0352  0.1185
   54CHL1   C19 5142   2.371   5.749   2.640 -0.2416 -0.6699  0.8416
   54CHL1  H19A 5143   2.328   5.772   2.540 -0.2897 -0.7816  0.8358
   54CHL1  H19B 5144   2.373   5.638   2.649  2.4662 -0.6381  1.2442
   54CHL1  H19C 5145   2.302   5.795   2.714 -0.5496  0.4446 -0.1028
   54CHL1    C1 5146   2.502   5.955   2.609 -0.5647  0.2242 -0.5692
   54CHL1   H1A 5147   2.442   6.008   2.686 -2.2951 -1.6488 -0.5470
   54CHL1   H1B 5148   2.606   5.994   2.602  0.1740 -1.3253  0.9669
   54CHL1    C2 5149   2.433   5.992   2.469 -0.3431 -0.1377 -0.7989
   54CHL1   H2A 5150   2.444   6.102   2.463 -0.8415 -0.0429 -0.1066
   54CHL1   H2B 5151   2.326   5.963   2.476 -0.1644 -0.4085  2.2251
   54CHL1   C20 5152   2.648   5.569   3.293 -0.0064  0.0464  0.5996
   54CHL1   H20 5153   2.567   5.493   3.291  0.4867 -0.5438  1.9976
   54CHL1   C21 5154   2.598   5.699   3.352 -0.3561 -0.3156  0.2412
   54CHL1  H21A 5155   2.572   5.699   3.460 -2.5716  0.8320 -0.2222
   54CHL1  H21B 5156   2.506   5.727   3.296 -0.8015 -0.9038  0.6666
   54CHL1  H21C 5157   2.664   5.786   3.330 -1.3876  0.3826 -0.1492
   54CHL1   C22 5158   2.759   5.521   3.386 -0.5445  0.4851  0.4653
   54CHL1  H22A 5159   2.835   5.459   3.334 -0.6102 -0.0451  0.9800
   54CHL1  H22B 5160   2.816   5.612   3.415 -0.6456  0.1820  1.6979
   54CHL1   C23 5161   2.707   5.447   3.508 -0.0627 -0.1032 -0.8347
   54CHL1  H23A 5162   2.650   5.495   3.590  0.6473 -1.3251  0.4064
   54CHL1  H23B 5163   2.642   5.365   3.470 -0.0925  0.5486 -2.2762
   54CHL1   C24 5164   2.826   5.385   3.589  0.0028  0.4321 -0.0922
   54CHL1  H24A 5165   2.888   5.330   3.516  2.1799  0.1401  1.8668
   54CHL1  H24B 5166   2.880   5.467   3.641 -1.9222  1.7112  0.0037
   54CHL1   C25 5167   2.782   5.283   3.696 -0.5685 -0.0836  0.3047
   54CHL1   H25 5168   2.713   5.332   3.768 -3.2373 -0.4372 -1.8525
   54CHL1   C26 5169   2.702   5.156   3.650 -0.3737 -0.0935  0.4418
   54CHL1  H26A 5170   2.601   5.192   3.621 -0.0677 -0.6871 -1.4864
   54CHL1  H26B 5171   2.751   5.105   3.564 -1.2496 -1.0137  0.4692
   54CHL1  H26C 5172   2.709   5.084   3.734  0.2076 -0.9916 -0.3461
   54CHL1   C27 5173   2.902   5.235   3.770 -0.5903 -0.0744 -0.6111
   54CHL1  H27A 5174   2.953   5.163   3.702 -0.0187 -1.2894  1.0484
   54CHL1  H27B 5175   2.966   5.318   3.808  0.4020 -1.1306  0.0956
   54CHL1  H27C 5176   2.866   5.176   3.857 -0.3777  0.8823  0.1395
   55CHL1    C3 5177   4.800   2.285   2.521  0.4431 -0.0606 -0.3259
   55CHL1    H3 5178   4.805   2.392   2.552 -0.2257 -0.3192  0.7311
   55CHL1    O3 5179   4.836   2.275   2.386  0.2482  0.2151 -0.2705
   55CHL1   H3' 5180   4.816   2.183   2.367  0.0841  0.5594 -1.9066
   55CHL1    C4 5181   4.893   2.203   2.611 -0.2586 -0.4702  0.4441
   55CHL1   H4A 5182   4.879   2.096   2.587 -5.8861  0.4172 -1.8279
   55CHL1   H4B 5183   4.996   2.238   2.592 -1.0470  1.1947 -1.1456
   55CHL1    C5 5184   4.853   2.205   2.757 -0.2054 -0.2416  0.2037
   55CHL1    C6 5185   4.944   2.244   2.844 -0.6025  0.5423 -0.1202
   55CHL1    H6 5186   5.048   2.271   2.821  0.0134 -0.0061  1.7814
   55CHL1    C7 5187   4.921   2.255   2.988  0.6119 -0.1666 -0.9567
   55CHL1   H7A 5188   4.993   2.195   3.048  1.2151  0.0730 -1.4223
   55CHL1   H7B 5189   4.931   2.358   3.029  0.2660 -0.3515 -0.3938
   55CHL1    C8 5190   4.788   2.184   3.043  0.3612  0.1749 -1.0936
   55CHL1    H8 5191   4.810   2.075   3.049 -1.9408 -0.2645  1.6427
   55CHL1   C14 5192   4.753   2.202   3.197  0.2216 -0.8220 -0.0635
   55CHL1   H14 5193   4.734   2.312   3.205 -1.7032 -0.9340 -2.2279
   55CHL1   C15 5194   4.855   2.163   3.301 -0.4098  0.5770  0.9718
   55CHL1  H15A 5195   4.897   2.065   3.271 -1.6282 -0.0974  1.4091
   55CHL1  H15B 5196   4.941   2.233   3.299  0.2085 -0.1663  1.1660
   55CHL1   C16 5197   4.768   2.147   3.421 -0.2192 -0.6747 -0.0115
   55CHL1  H16A 5198   4.781   2.050   3.474 -0.2842  0.1774  1.6377
   55CHL1  H16B 5199   4.784   2.229   3.493  1.7676 -2.2188  1.4145
   55CHL1   C17 5200   4.615   2.159   3.383 -0.4603  0.8362  0.0924
   55CHL1   H17 5201   4.596   2.266   3.406 -1.2666  0.5850  0.6644
   55CHL1   C13 5202   4.621   2.136   3.231 -0.3492  0.3096 -0.1988
   55CHL1   C18 5203   4.636   1.985   3.203  0.5051 -0.0837 -0.3734
   55CHL1  H18A 5204   4.650   1.961   3.096  0.6183  2.1696 -0.9041
   55CHL1  H18B 5205   4.718   1.949   3.269  1.5138  3.2878  0.3781
   55CHL1  H18C 5206   4.536   1.938   3.219 -0.0644  0.6534 -1.6431
   55CHL1   C12 5207   4.508   2.195   3.144 -1.0862 -0.2716 -0.2741
   55CHL1  H12A 5208   4.408   2.148   3.157 -2.3755  1.6070 -2.5287
   55CHL1  H12B 5209   4.495   2.304   3.165 -1.7700 -0.6993  1.7278
   55CHL1   C11 5210   4.539   2.163   2.993  0.6472  0.6705 -0.5737
   55CHL1  H11A 5211   4.528   2.054   2.980 -0.4217  0.3436  2.2903
   55CHL1  H11B 5212   4.467   2.217   2.927  0.3554  0.1435 -0.6919
   55CHL1    C9 5213   4.677   2.215   2.948 -0.1556 -0.2565  0.1018
   55CHL1    H9 5214   4.663   2.325   2.960 -0.9362 -0.3819  0.4410
   55CHL1   C10 5215   4.708   2.178   2.798  0.3223  0.7710 -0.4169
   55CHL1   C19 5216   4.668   2.025   2.768  0.8596 -0.1220 -0.2845
   55CHL1  H19A 5217   4.558   2.018   2.785  1.0225  0.4721  1.1334
   55CHL1  H19B 5218   4.680   2.004   2.659  2.6985 -1.0954  0.0627
   55CHL1  H19C 5219   4.727   1.953   2.827  0.9049  0.6723  0.6599
   55CHL1    C1 5220   4.623   2.265   2.708  0.3235  0.1398 -0.3487
   55CHL1   H1A 5221   4.522   2.224   2.729  1.3409 -1.0006  2.8095
   55CHL1   H1B 5222   4.625   2.371   2.741  1.4961 -0.0506  0.2110
   55CHL1    C2 5223   4.650   2.252   2.554  0.2375 -0.7024 -1.0862
   55CHL1   H2A 5224   4.587   2.330   2.507  2.8206  0.6326 -2.5906
   55CHL1   H2B 5225   4.630   2.147   2.522  0.1583 -1.3688  0.9823
   55CHL1   C20 5226   4.523   2.067   3.468  0.0005  0.4286 -0.2117
   55CHL1   H20 5227   4.554   1.963   3.448 -0.0217  0.1280  1.1899
   55CHL1   C21 5228   4.377   2.099   3.441  0.9163  0.4005 -0.4929
   55CHL1  H21A 5229   4.357   2.209   3.444  1.1580  0.4181  1.0436
   55CHL1  H21B 5230   4.313   2.065   3.525  1.1839 -1.9661 -1.1757
   55CHL1  H21C 5231   4.343   2.058   3.343 -3.1591  1.6944  0.1988
   55CHL1   C22 5232   4.542   2.087   3.620  0.0990  0.4603  0.3130
   55CHL1  H22A 5233   4.646   2.110   3.654 -0.6164  1.5693  1.8647
   55CHL1  H22B 5234   4.478   2.172   3.653 -1.2898 -0.9589  1.4332
   55CHL1   C23 5235   4.512   1.963   3.702 -0.0099  0.4811  0.3497
   55CHL1  H23A 5236   4.419   1.918   3.661  1.6016 -1.9934 -0.8216
   55CHL1  H23B 5237   4.591   1.891   3.671 -0.8369  0.0011 -0.6671
   55CHL1   C24 5238   4.508   1.978   3.854 -0.0870 -0.8312  0.5786
   55CHL1  H24A 5239   4.607   2.008   3.894 -0.6165 -1.5477  2.5186
   55CHL1  H24B 5240   4.442   2.065   3.874 -0.7453 -1.3380  0.6594
   55CHL1   C25 5241   4.473   1.847   3.929 -0.1282 -0.4888  0.4055
   55CHL1   H25 5242   4.371   1.818   3.896 -0.1447  1.4188 -1.4219
   55CHL1   C26 5243   4.570   1.739   3.887  0.3922  0.7915 -0.7544
   55CHL1  H26A 5244   4.548   1.640   3.933  0.8441  0.8920 -0.3065
   55CHL1  H26B 5245   4.569   1.708   3.781 -0.9548  0.5974 -0.7007
   55CHL1  H26C 5246   4.675   1.755   3.920  0.6359 -0.4595 -0.8615
   55CHL1   C27 5247   4.457   1.859   4.088  0.4004  0.2258  0.3036
   55CHL1  H27A 5248   4.442   1.758   4.130 -0.6679  0.4308  0.4432
   55CHL1  H27B 5249   4.541   1.916   4.131 -0.7097  2.3531 -0.1993
   55CHL1  H27C 5250   4.359   1.911   4.100  0.9748  1.7905 -1.2465
   56CHL1    C3 5251   5.649   3.871   2.750  0.5001 -0.8243 -1.5501
   56CHL1    H3 5252   5.608   3.772   2.781 -0.3003 -0.1785 -0.4567
   56CHL1    O3 5253   5.612   3.882   2.608 -0.5819 -0.3027  0.1490
   56CHL1   H3' 5254   5.688   3.932   2.577 -0.2105  0.0653  1.5432
   56CHL1    C4 5255   5.565   3.972   2.830 -0.2186  0.5764 -0.1414
   56CHL1   H4A 5256   5.582   4.074   2.789  0.3812 -0.0906 -1.6129
   56CHL1   H4B 5257   5.460   3.951   2.804 -0.2294  0.1378  0.2388
   56CHL1    C5 5258   5.586   3.967   2.977  0.1501  1.4866 -0.2624
   56CHL1    C6 5259   5.494   3.935   3.067 -0.2667 -0.3666  1.2260
   56CHL1    H6 5260   5.392   3.914   3.031  0.2477 -0.3294 -0.3438
   56CHL1    C7 5261   5.512   3.937   3.212 -0.0827  0.6474  0.3519
   56CHL1   H7A 5262   5.421   3.983   3.256 -2.3071 -3.5194  0.5640
   56CHL1   H7B 5263   5.511   3.833   3.250  1.6370  0.2282 -0.6281
   56CHL1    C8 5264   5.649   3.993   3.253  0.5794  0.7549 -0.4654
   56CHL1    H8 5265   5.653   4.104   3.243  1.5008  0.9165  1.3230
   56CHL1   C14 5266   5.658   3.952   3.404 -0.3173  0.3152 -0.1234
   56CHL1   H14 5267   5.654   3.841   3.411 -1.7750  0.4215  1.0423
   56CHL1   C15 5268   5.559   4.008   3.508  0.1105 -0.0718  0.0394
   56CHL1  H15A 5269   5.544   4.117   3.491  2.5943  0.3476  0.2518
   56CHL1  H15B 5270   5.463   3.952   3.499 -0.2017  0.6255 -1.2788
   56CHL1   C16 5271   5.633   3.995   3.642  0.3546  0.3816 -0.4821
   56CHL1  H16A 5272   5.615   4.087   3.702  2.1630  0.0221  0.6844
   56CHL1  H16B 5273   5.605   3.898   3.688  0.6056  0.0662 -0.9807
   56CHL1   C17 5274   5.780   3.966   3.609  0.6368  0.3841  0.2326
   56CHL1   H17 5275   5.794   3.856   3.618  0.5571  0.0980 -2.3445
   56CHL1   C13 5276   5.785   3.994   3.460 -0.7054 -1.0571  0.6092
   56CHL1   C18 5277   5.813   4.150   3.455 -0.4113 -0.4602  0.0193
   56CHL1  H18A 5278   5.809   4.203   3.357  0.3089  0.7684  0.6309
   56CHL1  H18B 5279   5.746   4.202   3.527  0.3544 -2.2260  2.0978
   56CHL1  H18C 5280   5.913   4.184   3.489  0.4056 -1.2747 -1.4561
   56CHL1   C12 5281   5.905   3.936   3.377 -0.2810 -0.4756 -0.0350
   56CHL1  H12A 5282   6.000   3.956   3.431 -1.8352  1.7114  2.1356
   56CHL1  H12B 5283   5.884   3.827   3.379 -1.3095 -0.3375  3.1665
   56CHL1   C11 5284   5.899   3.967   3.224  0.4829 -0.2170  0.5704
   56CHL1  H11A 5285   5.932   4.072   3.215  0.6939 -0.3808 -0.8116
   56CHL1  H11B 5286   5.971   3.901   3.169  0.3147  0.5538 -0.6027
   56CHL1    C9 5287   5.756   3.935   3.165  0.0807 -0.1332 -0.1178
   56CHL1    H9 5288   5.746   3.825   3.174  0.2827 -0.0241  1.7528
   56CHL1   C10 5289   5.736   3.975   3.021 -0.0724  0.6388  0.5765
   56CHL1   C19 5290   5.770   4.125   3.006 -0.3919 -0.1943 -0.4804
   56CHL1  H19A 5291   5.751   4.157   2.901  0.7891 -0.0730 -0.6676
   56CHL1  H19B 5292   5.716   4.183   3.084  1.1441  1.2395 -0.4184
   56CHL1  H19C 5293   5.878   4.138   3.027 -0.4341 -0.9744  0.2962
   56CHL1    C1 5294   5.832   3.879   2.935 -0.1473  0.5683  0.3387
   56CHL1   H1A 5295   5.941   3.894   2.953  0.2756  0.4777 -1.8589
   56CHL1   H1B 5296   5.812   3.779   2.978 -0.2856  0.2948 -0.3560
   56CHL1    C2 5297   5.798   3.890   2.788  0.1996  0.0983 -0.4806
   56CHL1   H2A 5298   5.857   3.805   2.746  1.3778 -0.0016  1.3071
   56CHL1   H2B 5299   5.841   3.979   2.737  2.3294 -0.1175  0.8324
   56CHL1   C20 5300   5.860   4.038   3.720  0.1328 -0.3612  0.3582
   56CHL1   H20 5301   5.850   4.148   3.709  1.0197 -0.1150  1.8117
   56CHL1   C21 5302   6.008   4.006   3.698 -0.1298  0.5010  0.2762
   56CHL1  H21A 5303   6.065   4.040   3.787  2.2181 -0.9808 -0.5779
   56CHL1  H21B 5304   6.056   4.055   3.611  0.3622 -1.2367 -0.4834
   56CHL1  H21C 5305   6.033   3.899   3.679  0.1411  1.0415 -2.8716
   56CHL1   C22 5306   5.819   4.010   3.868  1.0338  0.3974 -0.0751
   56CHL1  H22A 5307   5.709   4.012   3.880  1.0726 -0.3815  0.4527
   56CHL1  H22B 5308   5.853   3.911   3.904 -3.8165 -0.0601  4.3937
   56CHL1   C23 5309   5.858   4.120   3.967 -0.4316  0.3437 -0.5677
   56CHL1  H23A 5310   5.834   4.099   4.074 -2.2707  1.6905 -0.6656
   56CHL1  H23B 5311   5.968   4.129   3.956 -0.0839 -1.7904  0.5985
   56CHL1   C24 5312   5.822   4.262   3.949  0.7939 -0.8286 -0.0850
   56CHL1  H24A 5313   5.873   4.311   3.863  2.3047  1.0658  1.8059
   56CHL1  H24B 5314   5.711   4.266   3.946  0.8310  1.2976  0.0250
   56CHL1   C25 5315   5.860   4.350   4.073  0.1800  0.5218 -0.7250
   56CHL1   H25 5316   5.814   4.304   4.163  0.5856  0.4330 -0.5604
   56CHL1   C26 5317   6.007   4.334   4.115 -0.1271  0.0531  0.1907
   56CHL1  H26A 5318   6.043   4.394   4.202 -0.0489 -1.2185  1.0650
   56CHL1  H26B 5319   6.028   4.229   4.144  1.6723  0.4102  0.3131
   56CHL1  H26C 5320   6.064   4.368   4.026 -2.0489 -1.2447 -1.5978
   56CHL1   C27 5321   5.817   4.500   4.062 -0.0989 -0.1837  0.4723
   56CHL1  H27A 5322   5.710   4.501   4.093 -0.0401 -2.0519  0.8175
   56CHL1  H27B 5323   5.883   4.562   4.126  0.1988  0.5092 -0.4805
   56CHL1  H27C 5324   5.839   4.528   3.957 -0.2277  0.6671  0.6624
   57CHL1    C3 5325   4.395   1.499   2.575  0.4929  0.8440 -0.1328
   57CHL1    H3 5326   4.329   1.409   2.576  0.3473  0.9533  0.0409
   57CHL1    O3 5327   4.437   1.525   2.440  0.3218 -0.2567 -0.7515
   57CHL1   H3' 5328   4.352   1.514   2.397  0.5973  0.6165 -1.5409
   57CHL1    C4 5329   4.309   1.617   2.631 -0.5021  0.6053  0.8602
   57CHL1   H4A 5330   4.364   1.713   2.628  0.2707  0.1599  0.6028
   57CHL1   H4B 5331   4.223   1.611   2.561 -0.5194 -0.7313  0.9711
   57CHL1    C5 5332   4.270   1.589   2.773 -0.3474  0.3798 -0.1376
   57CHL1    C6 5333   4.142   1.578   2.819  0.1333 -0.2808 -0.8851
   57CHL1    H6 5334   4.055   1.591   2.752 -0.1873 -2.4318 -0.9738
   57CHL1    C7 5335   4.113   1.567   2.968 -0.8940 -0.2818  0.4794
   57CHL1   H7A 5336   4.056   1.657   3.001  2.0500  1.1759  1.9356
   57CHL1   H7B 5337   4.044   1.482   2.991 -2.7347  1.6506  2.6640
   57CHL1    C8 5338   4.236   1.577   3.065  0.0636  0.3841  0.4303
   57CHL1    H8 5339   4.254   1.687   3.071  0.7176  0.2631  0.7897
   57CHL1   C14 5340   4.210   1.517   3.200  0.2367 -0.5215 -0.2722
   57CHL1   H14 5341   4.196   1.408   3.192 -2.3714 -0.2421 -0.2141
   57CHL1   C15 5342   4.084   1.553   3.279  0.3185 -0.2757 -0.2648
   57CHL1  H15A 5343   4.089   1.664   3.269 -1.2175 -0.0004  1.5506
   57CHL1  H15B 5344   3.990   1.512   3.236  0.1768 -0.5890  0.3361
   57CHL1   C16 5345   4.100   1.504   3.421  0.4519 -0.5296 -0.1863
   57CHL1  H16A 5346   4.087   1.589   3.492  0.5072 -2.8989  2.8928
   57CHL1  H16B 5347   4.047   1.411   3.447 -0.9729 -0.0165 -1.1398
   57CHL1   C17 5348   4.254   1.473   3.428 -0.2076 -0.6406 -0.7830
   57CHL1   H17 5349   4.257   1.364   3.409 -0.8894 -0.8486  0.2065
   57CHL1   C13 5350   4.322   1.536   3.305 -1.0702  0.1705 -0.4524
   57CHL1   C18 5351   4.361   1.680   3.327 -0.1672 -0.1015  0.1481
   57CHL1  H18A 5352   4.272   1.739   3.358  0.9586  1.5643  0.3639
   57CHL1  H18B 5353   4.441   1.693   3.402 -0.9657 -0.2027  1.0317
   57CHL1  H18C 5354   4.390   1.732   3.233  2.1183 -0.9443  0.3275
   57CHL1   C12 5355   4.442   1.455   3.245 -0.1502 -0.2333  0.8079
   57CHL1  H12A 5356   4.525   1.468   3.318  2.2120 -1.3705 -1.4955
   57CHL1  H12B 5357   4.411   1.350   3.228  0.3103 -0.2689  0.1419
   57CHL1   C11 5358   4.475   1.503   3.106 -0.2180  0.4463  0.5193
   57CHL1  H11A 5359   4.525   1.598   3.134 -0.9380  0.6580  1.1439
   57CHL1  H11B 5360   4.544   1.431   3.056  0.4232  2.6604 -2.0103
   57CHL1    C9 5361   4.357   1.510   3.008  0.4442  0.1657 -0.2695
   57CHL1    H9 5362   4.331   1.405   2.984 -0.6123  0.0088  1.4043
   57CHL1   C10 5363   4.395   1.560   2.865  0.1236 -0.3036 -0.1092
   57CHL1   C19 5364   4.470   1.691   2.872  0.1288 -0.1594 -0.1423
   57CHL1  H19A 5365   4.521   1.708   2.969  0.1205 -0.2292 -0.1251
   57CHL1  H19B 5366   4.539   1.712   2.788 -0.1771 -0.1223 -0.3842
   57CHL1  H19C 5367   4.388   1.766   2.873 -1.0166 -1.2997 -1.9244
   57CHL1    C1 5368   4.488   1.452   2.802  0.4807 -0.1561  0.4444
   57CHL1   H1A 5369   4.587   1.453   2.853  1.0119  0.1342 -0.5787
   57CHL1   H1B 5370   4.444   1.351   2.817  1.7458 -0.8893 -0.5654
   57CHL1    C2 5371   4.522   1.474   2.657  0.2231  0.2769 -1.2167
   57CHL1   H2A 5372   4.583   1.388   2.622  1.9681  0.7541  0.4440
   57CHL1   H2B 5373   4.593   1.558   2.639 -0.4746  0.9062 -1.0621
   57CHL1   C20 5374   4.315   1.500   3.568  0.0357  0.0729 -0.2181
   57CHL1   H20 5375   4.322   1.610   3.572 -2.8306  0.3222  0.4335
   57CHL1   C21 5376   4.455   1.434   3.592 -0.4202 -0.8332 -0.0665
   57CHL1  H21A 5377   4.533   1.480   3.528 -0.4483 -0.3918  0.2095
   57CHL1  H21B 5378   4.441   1.327   3.567  1.3865 -1.0264 -0.3600
   57CHL1  H21C 5379   4.484   1.438   3.699  1.4829  0.9955 -0.5753
   57CHL1   C22 5380   4.227   1.465   3.687 -0.3210  0.0957  0.1533
   57CHL1  H22A 5381   4.287   1.480   3.780  0.5781  0.0027 -0.3995
   57CHL1  H22B 5382   4.147   1.542   3.691 -1.0446 -0.7086  1.9050
   57CHL1   C23 5383   4.173   1.325   3.698 -0.1457  0.1190 -0.4363
   57CHL1  H23A 5384   4.141   1.276   3.604  1.4288 -3.2034  0.5998
   57CHL1  H23B 5385   4.255   1.258   3.730 -0.4235  0.1202  0.3031
   57CHL1   C24 5386   4.063   1.314   3.805 -0.1086 -0.6434 -0.0611
   57CHL1  H24A 5387   4.097   1.357   3.902  0.9461  0.1219 -0.7447
   57CHL1  H24B 5388   3.973   1.371   3.775 -0.5229 -1.3952 -0.2674
   57CHL1   C25 5389   4.011   1.168   3.810  0.1433  0.7345  0.0662
   57CHL1   H25 5390   4.089   1.098   3.773 -1.4449  0.3413 -2.8491
   57CHL1   C26 5391   3.954   1.135   3.948 -0.2978  0.6545  0.8430
   57CHL1  H26A 5392   4.041   1.138   4.017  0.6219  1.3339 -0.3139
   57CHL1  H26B 5393   3.888   1.215   3.990  0.3793 -0.1860  3.7202
   57CHL1  H26C 5394   3.919   1.030   3.956 -3.3977  1.6263  1.3927
   57CHL1   C27 5395   3.898   1.142   3.708 -0.3958 -0.1175  0.3890
   57CHL1  H27A 5396   3.800   1.181   3.743 -0.6291 -1.4520  1.3245
   57CHL1  H27B 5397   3.933   1.188   3.613 -0.5530  1.4405  1.0536
   57CHL1  H27C 5398   3.881   1.032   3.702 -2.9560  0.2030  0.4365
   58CHL1    C3 5399   5.455   1.882   2.545  0.0837  0.2989 -0.2028
   58CHL1    H3 5400   5.547   1.821   2.554  1.5858  1.9423 -2.9857
   58CHL1    O3 5401   5.428   1.902   2.408 -0.1183  0.3182 -0.1642
   58CHL1   H3' 5402   5.349   1.956   2.416 -1.8482 -2.0791  0.3122
   58CHL1    C4 5403   5.338   1.808   2.607 -0.0418 -0.4682 -0.3381
   58CHL1   H4A 5404   5.245   1.866   2.588  1.1182  2.4963  2.2787
   58CHL1   H4B 5405   5.325   1.721   2.538  1.1373 -0.4723 -0.5649
   58CHL1    C5 5406   5.363   1.776   2.756  0.3410  0.4957 -0.1502
   58CHL1    C6 5407   5.363   1.651   2.808  0.6468 -0.9095  0.7235
   58CHL1    H6 5408   5.343   1.561   2.748  2.4898 -1.3026  0.6454
   58CHL1    C7 5409   5.383   1.620   2.953  0.0295 -0.4634 -0.2750
   58CHL1   H7A 5410   5.305   1.549   2.986 -0.8399  1.2879  1.7011
   58CHL1   H7B 5411   5.487   1.586   2.974  0.4875  0.0906 -1.5226
   58CHL1    C8 5412   5.355   1.753   3.042  0.4501 -0.6800 -0.5249
   58CHL1    H8 5413   5.248   1.786   3.043  0.8744  0.8069 -1.0827
   58CHL1   C14 5414   5.400   1.737   3.194  0.0151  0.3716  0.1441
   58CHL1   H14 5415   5.509   1.714   3.192 -0.1856 -0.5728 -0.4916
   58CHL1   C15 5416   5.340   1.616   3.264  0.6198 -0.5393 -0.0162
   58CHL1  H15A 5417   5.230   1.623   3.250  0.8030  1.9127 -0.7665
   58CHL1  H15B 5418   5.380   1.524   3.217  1.4259 -0.6951  0.9541
   58CHL1   C16 5419   5.365   1.642   3.408  0.3112 -0.4035 -0.1104
   58CHL1  H16A 5420   5.264   1.630   3.451  0.1487  3.0759  0.7193
   58CHL1  H16B 5421   5.419   1.559   3.459  1.2297  0.4915  0.4089
   58CHL1   C17 5422   5.427   1.787   3.425 -0.7918  0.0109 -0.0386
   58CHL1   H17 5423   5.537   1.771   3.432 -0.6206 -2.1074 -4.1787
   58CHL1   C13 5424   5.387   1.852   3.291  0.2149 -0.2740 -0.1672
   58CHL1   C18 5425   5.240   1.895   3.301 -0.7998  0.1366 -0.5744
   58CHL1  H18A 5426   5.247   1.975   3.378  1.5235 -0.3055 -0.2430
   58CHL1  H18B 5427   5.200   1.949   3.213 -2.7614  2.9316  1.8222
   58CHL1  H18C 5428   5.162   1.822   3.331 -0.0043 -1.3989 -2.1153
   58CHL1   C12 5429   5.469   1.966   3.238 -0.9959  0.3640  0.3702
   58CHL1  H12A 5430   5.452   2.060   3.294  0.8320 -0.1382  1.8802
   58CHL1  H12B 5431   5.577   1.943   3.250 -0.8680  1.2085  0.8887
   58CHL1   C11 5432   5.436   1.994   3.090 -0.0259 -0.7698 -0.1698
   58CHL1  H11A 5433   5.349   2.063   3.082  1.0986  0.6780 -0.3899
   58CHL1  H11B 5434   5.519   2.060   3.056  0.9297  0.5226  4.1175
   58CHL1    C9 5435   5.428   1.874   2.984 -0.8270  0.0304  0.2354
   58CHL1    H9 5436   5.532   1.838   2.974 -1.4330 -1.5166 -0.9289
   58CHL1   C10 5437   5.382   1.907   2.840 -0.0706  0.4973  0.8852
   58CHL1   C19 5438   5.246   1.970   2.840  0.4277 -0.5692 -0.2040
   58CHL1  H19A 5439   5.204   2.000   2.742 -1.7853 -0.7761  0.6096
   58CHL1  H19B 5440   5.178   1.893   2.883  0.0230 -1.3363 -2.1422
   58CHL1  H19C 5441   5.241   2.063   2.901  3.4643 -1.1496  1.0973
   58CHL1    C1 5442   5.488   1.997   2.769 -0.0516 -0.4080  0.2307
   58CHL1   H1A 5443   5.494   2.101   2.810  2.8689 -0.8835  1.2556
   58CHL1   H1B 5444   5.591   1.957   2.777  1.2870  2.3494 -1.7332
   58CHL1    C2 5445   5.469   2.014   2.621 -0.3113 -0.3052 -0.5308
   58CHL1   H2A 5446   5.553   2.080   2.590  0.0120  0.5714  1.9968
   58CHL1   H2B 5447   5.374   2.067   2.601  1.6988  2.3950 -4.3218
   58CHL1   C20 5448   5.392   1.854   3.558  0.4881 -0.0550 -0.5355
   58CHL1   H20 5449   5.282   1.865   3.565  0.3266 -2.1539  1.1545
   58CHL1   C21 5450   5.454   1.997   3.569  0.4808 -0.5309  0.5998
   58CHL1  H21A 5451   5.466   2.029   3.675  3.9254  1.2739 -0.1717
   58CHL1  H21B 5452   5.396   2.071   3.511  1.2654  0.9691  1.6640
   58CHL1  H21C 5453   5.555   1.997   3.523 -0.1012 -3.1989 -0.9249
   58CHL1   C22 5454   5.439   1.776   3.689  0.1054 -0.5364  0.5819
   58CHL1  H22A 5455   5.383   1.834   3.765 -2.2333 -1.8868 -0.0052
   58CHL1  H22B 5456   5.397   1.674   3.695 -0.7767 -0.0949  2.6577
   58CHL1   C23 5457   5.592   1.765   3.716  0.2110  0.5423 -0.0435
   58CHL1  H23A 5458   5.630   1.671   3.670 -0.0736  0.7638 -0.7583
   58CHL1  H23B 5459   5.641   1.849   3.661 -0.6442 -0.5733 -2.6916
   58CHL1   C24 5460   5.625   1.758   3.866  0.0487  0.8869 -0.5638
   58CHL1  H24A 5461   5.598   1.861   3.900 -0.0092  0.7492 -0.1915
   58CHL1  H24B 5462   5.552   1.691   3.915 -0.6448  1.2518 -1.0689
   58CHL1   C25 5463   5.773   1.731   3.892 -0.3637  0.1655 -0.1891
   58CHL1   H25 5464   5.804   1.649   3.824 -0.2689 -1.8664  2.1379
   58CHL1   C26 5465   5.867   1.854   3.875 -0.7637 -0.1870 -0.0400
   58CHL1  H26A 5466   5.828   1.924   3.798 -0.8055  0.5034  0.5995
   58CHL1  H26B 5467   5.865   1.911   3.970  0.2585  1.7588 -1.1294
   58CHL1  H26C 5468   5.968   1.821   3.842 -0.2284 -0.3873  1.6679
   58CHL1   C27 5469   5.794   1.675   4.032 -0.7807  0.1342  0.0220
   58CHL1  H27A 5470   5.709   1.608   4.056 -1.8666  1.1205 -0.9653
   58CHL1  H27B 5471   5.890   1.621   4.048  0.8018  3.0070  0.7813
   58CHL1  H27C 5472   5.793   1.757   4.106 -0.2912  0.5719 -0.4472
   59CHL1    C3 5473   4.137   0.997   2.293 -0.0316  0.2271 -0.5988
   59CHL1    H3 5474   4.037   0.964   2.328  0.4098  1.0243  1.5952
   59CHL1    O3 5475   4.143   1.002   2.154 -0.1285  0.1474 -1.1743
   59CHL1   H3' 5476   4.237   1.014   2.143 -0.0637  0.4142 -0.4205
   59CHL1    C4 5477   4.149   1.135   2.362  0.0064 -0.1316 -0.3125
   59CHL1   H4A 5478   4.244   1.178   2.323  0.5251 -1.0488 -0.0850
   59CHL1   H4B 5479   4.066   1.199   2.327  1.0269  0.3249 -2.0399
   59CHL1    C5 5480   4.162   1.116   2.518  0.2452 -0.3574  0.6115
   59CHL1    C6 5481   4.077   1.178   2.598 -0.2523 -0.6735  0.3311
   59CHL1    H6 5482   4.002   1.254   2.572  1.0350  0.6316  0.3120
   59CHL1    C7 5483   4.077   1.169   2.745  0.3731 -0.3955 -0.1049
   59CHL1   H7A 5484   4.064   1.263   2.803 -0.1727 -1.1202  0.9685
   59CHL1   H7B 5485   3.988   1.105   2.760 -0.4415  0.3893 -1.3167
   59CHL1    C8 5486   4.198   1.103   2.808 -0.4538 -0.2282  0.3904
   59CHL1    H8 5487   4.276   1.182   2.811 -1.9679  1.3157  0.4083
   59CHL1   C14 5488   4.176   1.052   2.946  0.4826 -0.1324  0.1102
   59CHL1   H14 5489   4.104   0.969   2.936  0.9886 -0.5331 -0.2327
   59CHL1   C15 5490   4.102   1.141   3.051 -0.2498 -0.2737 -0.2743
   59CHL1  H15A 5491   4.127   1.248   3.034  3.1085 -0.8330  0.4147
   59CHL1  H15B 5492   3.991   1.132   3.052 -0.4182  1.3713 -0.9866
   59CHL1   C16 5493   4.151   1.084   3.185 -0.0863 -0.0706  0.5246
   59CHL1  H16A 5494   4.217   1.165   3.223  1.0146 -0.2671 -0.8865
   59CHL1  H16B 5495   4.068   1.056   3.253 -0.6158 -0.9922 -0.4624
   59CHL1   C17 5496   4.240   0.956   3.154  0.5716  0.0218 -0.2533
   59CHL1   H17 5497   4.163   0.877   3.144  0.2875  0.0509  1.4400
   59CHL1   C13 5498   4.304   0.989   3.017 -0.4486 -0.0652 -0.1344
   59CHL1   C18 5499   4.420   1.095   3.044 -0.3187  0.3109 -0.5854
   59CHL1  H18A 5500   4.462   1.147   2.955 -0.9172 -1.3013 -1.8613
   59CHL1  H18B 5501   4.387   1.164   3.125 -1.6994 -1.1316  0.1360
   59CHL1  H18C 5502   4.510   1.039   3.076  1.9067  2.1147 -3.2068
   59CHL1   C12 5503   4.350   0.868   2.927 -0.1180 -0.3983 -0.1594
   59CHL1  H12A 5504   4.443   0.819   2.964 -0.1272  0.4276  1.0243
   59CHL1  H12B 5505   4.260   0.802   2.922 -0.9300  0.5211  1.4824
   59CHL1   C11 5506   4.373   0.914   2.782 -0.0698 -0.9634 -0.1695
   59CHL1  H11A 5507   4.459   0.984   2.788 -0.9067 -0.0008  0.9601
   59CHL1  H11B 5508   4.418   0.839   2.714  1.5761  2.2075 -2.8739
   59CHL1    C9 5509   4.245   0.985   2.725  0.2316 -0.7136  0.2197
   59CHL1    H9 5510   4.165   0.908   2.732  0.0144 -0.3814  1.7568
   59CHL1   C10 5511   4.262   1.015   2.571  0.2175  0.0208 -0.3375
   59CHL1   C19 5512   4.401   1.075   2.545  0.2710  0.7166 -0.5060
   59CHL1  H19A 5513   4.405   1.120   2.444 -1.2137  0.6268 -0.6336
   59CHL1  H19B 5514   4.426   1.143   2.629  0.5936 -1.3565  1.1635
   59CHL1  H19C 5515   4.475   0.993   2.548 -1.6633 -1.1021  1.6007
   59CHL1    C1 5516   4.247   0.875   2.500  0.1623  0.4048  0.8612
   59CHL1   H1A 5517   4.335   0.814   2.529 -1.0895 -2.7528 -1.3665
   59CHL1   H1B 5518   4.148   0.828   2.515 -0.5501  1.4901 -0.2368
   59CHL1    C2 5519   4.252   0.892   2.341  0.7060 -0.3021 -0.1881
   59CHL1   H2A 5520   4.218   0.795   2.299 -2.2738  0.7281 -0.3929
   59CHL1   H2B 5521   4.354   0.922   2.308  1.8430 -0.6437  2.7236
   59CHL1   C20 5522   4.325   0.901   3.276 -0.2774  0.4825  0.6224
   59CHL1   H20 5523   4.429   0.931   3.254 -0.5302  1.6549  0.9633
   59CHL1   C21 5524   4.322   0.748   3.272  0.1178  0.4595  0.2261
   59CHL1  H21A 5525   4.217   0.712   3.269  0.1951  0.3034 -1.4706
   59CHL1  H21B 5526   4.377   0.699   3.355 -0.8677  1.1805  1.3308
   59CHL1  H21C 5527   4.367   0.731   3.171 -0.8180 -1.2306  0.0515
   59CHL1   C22 5528   4.275   0.959   3.410  0.7993  0.0708 -0.1041
   59CHL1  H22A 5529   4.283   1.069   3.403  0.4689  0.0192 -1.5626
   59CHL1  H22B 5530   4.167   0.936   3.422  0.4383  2.1405  1.0998
   59CHL1   C23 5531   4.356   0.914   3.536  0.2960  0.1488 -0.9430
   59CHL1  H23A 5532   4.357   0.803   3.544 -0.6868  0.2410  0.7270
   59CHL1  H23B 5533   4.460   0.950   3.521  0.1017  0.9192 -0.4892
   59CHL1   C24 5534   4.320   0.972   3.666 -0.1994 -0.6473 -0.3656
   59CHL1  H24A 5535   4.317   1.082   3.655 -1.9814 -0.5025  1.0897
   59CHL1  H24B 5536   4.219   0.937   3.698  0.8318 -0.7227  3.3286
   59CHL1   C25 5537   4.409   0.950   3.791  0.4784  0.8619 -0.0484
   59CHL1   H25 5538   4.512   0.990   3.780  1.2379 -1.2932 -1.3491
   59CHL1   C26 5539   4.334   0.993   3.919 -1.0962 -0.0048  0.2396
   59CHL1  H26A 5540   4.419   1.002   3.989 -1.3039 -1.7043  0.7734
   59CHL1  H26B 5541   4.291   1.095   3.910 -1.1955 -0.0794 -0.1662
   59CHL1  H26C 5542   4.258   0.919   3.954  0.5657 -1.2353  1.3949
   59CHL1   C27 5543   4.421   0.797   3.798 -0.8652  0.3592 -0.5279
   59CHL1  H27A 5544   4.460   0.756   3.894  0.6533 -2.2739 -2.1630
   59CHL1  H27B 5545   4.322   0.750   3.787 -0.1792 -0.7382 -2.3213
   59CHL1  H27C 5546   4.495   0.757   3.726 -1.0609  2.7702 -2.2036
   60CHL1    C3 5547   4.770   6.291   2.739  0.1190 -0.7166  0.3683
   60CHL1    H3 5548   4.878   6.305   2.762  0.3405 -0.0474 -0.9865
   60CHL1    O3 5549   4.761   6.301   2.601 -0.5581  0.5674 -0.4419
   60CHL1   H3' 5550   4.792   6.391   2.590  1.8027 -0.1301  0.0110
   60CHL1    C4 5551   4.705   6.162   2.784  0.4016 -0.4204 -0.1387
   60CHL1   H4A 5552   4.599   6.163   2.750  0.9992 -0.7801 -2.1532
   60CHL1   H4B 5553   4.745   6.076   2.724  1.8781  1.2203 -1.6299
   60CHL1    C5 5554   4.720   6.142   2.934  0.5984  0.0598  0.3792
   60CHL1    C6 5555   4.796   6.049   2.991  0.3436  0.9303  0.4301
   60CHL1    H6 5556   4.845   5.974   2.927  1.8587  0.1317  2.4341
   60CHL1    C7 5557   4.822   6.039   3.138  0.6598  0.2742  0.6692
   60CHL1   H7A 5558   4.802   5.933   3.167  1.0975 -0.7821 -2.5367
   60CHL1   H7B 5559   4.923   6.070   3.173 -0.1557  3.9070  0.1707
   60CHL1    C8 5560   4.717   6.120   3.228 -0.7944  0.5141 -0.2146
   60CHL1    H8 5561   4.626   6.059   3.245 -1.3616  2.3059  4.4906
   60CHL1   C14 5562   4.778   6.147   3.370 -0.5080  0.2990 -0.2725
   60CHL1   H14 5563   4.868   6.210   3.358  0.0658 -0.3228  0.6911
   60CHL1   C15 5564   4.816   6.019   3.446 -0.5169  0.0759  0.1687
   60CHL1  H15A 5565   4.725   5.958   3.427 -0.0295  0.1791 -3.0909
   60CHL1  H15B 5566   4.905   5.963   3.412  0.9779  2.8713 -0.8486
   60CHL1   C16 5567   4.818   6.068   3.589 -0.2149  0.7122  0.1105
   60CHL1  H16A 5568   4.750   5.998   3.642  1.9307 -1.0559  0.7010
   60CHL1  H16B 5569   4.922   6.056   3.627 -1.0441  0.4432  2.4696
   60CHL1   C17 5570   4.772   6.220   3.586 -0.2727  0.8502  0.1692
   60CHL1   H17 5571   4.865   6.275   3.559  0.4337 -0.0128  0.8047
   60CHL1   C13 5572   4.680   6.231   3.458 -0.0833 -0.7922  0.5740
   60CHL1   C18 5573   4.548   6.157   3.486 -0.3202 -0.0481 -0.7416
   60CHL1  H18A 5574   4.483   6.206   3.562  0.8159  1.0894 -0.4490
   60CHL1  H18B 5575   4.489   6.146   3.392  0.2498  0.2009 -1.1416
   60CHL1  H18C 5576   4.558   6.051   3.515 -0.8627  0.7421  2.6831
   60CHL1   C12 5577   4.660   6.366   3.385  0.6630  0.5807 -0.0775
   60CHL1  H12A 5578   4.593   6.423   3.453 -1.0370  1.1850 -2.1592
   60CHL1  H12B 5579   4.747   6.435   3.392  0.1676  1.3888 -1.4274
   60CHL1   C11 5580   4.601   6.346   3.244  0.0579  0.4118 -0.7187
   60CHL1  H11A 5581   4.502   6.298   3.257 -0.7210  2.3431  1.1568
   60CHL1  H11B 5582   4.587   6.449   3.204  0.6682  1.6913  2.1397
   60CHL1    C9 5583   4.696   6.264   3.161  0.8484 -0.1428  0.2561
   60CHL1    H9 5584   4.793   6.318   3.166  0.4079  0.6640  0.3827
   60CHL1   C10 5585   4.651   6.260   3.017 -0.3999  0.2787  0.8108
   60CHL1   C19 5586   4.495   6.242   3.012 -0.0465  0.0924  0.6441
   60CHL1  H19A 5587   4.461   6.210   2.911 -0.0881 -0.8632  0.9589
   60CHL1  H19B 5588   4.459   6.176   3.094 -1.6211  1.5101  1.1655
   60CHL1  H19C 5589   4.454   6.345   3.021 -1.3050 -0.4744  1.7253
   60CHL1    C1 5590   4.693   6.398   2.946 -0.2120 -0.0319 -1.0418
   60CHL1   H1A 5591   4.623   6.477   2.982 -0.5761 -0.5053 -0.6976
   60CHL1   H1B 5592   4.798   6.422   2.974  0.4192  0.9721 -3.9095
   60CHL1    C2 5593   4.687   6.410   2.794  0.9385  0.1236 -0.5405
   60CHL1   H2A 5594   4.741   6.503   2.765 -0.6022  1.1419 -0.2681
   60CHL1   H2B 5595   4.584   6.416   2.751  0.2977 -2.4949  0.4713
   60CHL1   C20 5596   4.714   6.288   3.710  0.4204 -0.1558 -0.2341
   60CHL1   H20 5597   4.632   6.358   3.683 -0.6928 -0.9881  0.8971
   60CHL1   C21 5598   4.829   6.378   3.768  0.1973  0.1596 -0.5716
   60CHL1  H21A 5599   4.855   6.451   3.688 -2.1031 -1.2309 -2.7289
   60CHL1  H21B 5600   4.913   6.310   3.795  1.0750  1.1440 -0.7599
   60CHL1  H21C 5601   4.798   6.446   3.849 -1.3039 -1.3090  0.1415
   60CHL1   C22 5602   4.644   6.199   3.814  0.0206 -0.0617  1.1161
   60CHL1  H22A 5603   4.574   6.128   3.765 -1.5229  1.0226  1.6626
   60CHL1  H22B 5604   4.733   6.147   3.855  0.8754 -0.4799 -1.0984
   60CHL1   C23 5605   4.561   6.268   3.925  0.0813  0.1231  0.5431
   60CHL1  H23A 5606   4.522   6.186   3.988  2.0494 -1.3620 -0.0724
   60CHL1  H23B 5607   4.631   6.327   3.988  1.5550 -0.4861 -0.4549
   60CHL1   C24 5608   4.440   6.349   3.874  0.0024 -0.0148  0.2807
   60CHL1  H24A 5609   4.472   6.434   3.809 -0.7583  0.6070  0.7104
   60CHL1  H24B 5610   4.374   6.287   3.810  0.9594  0.5777 -1.3411
   60CHL1   C25 5611   4.353   6.408   3.986  0.0334  1.0433  0.4190
   60CHL1   H25 5612   4.351   6.337   4.071 -4.1370 -0.0077 -0.3380
   60CHL1   C26 5613   4.401   6.537   4.052  0.1217  0.3660 -0.2868
   60CHL1  H26A 5614   4.335   6.572   4.135  0.5524 -0.6697  0.5165
   60CHL1  H26B 5615   4.506   6.527   4.087  0.0841  1.8097  0.2848
   60CHL1  H26C 5616   4.406   6.617   3.975 -1.2853 -0.8204 -1.6990
   60CHL1   C27 5617   4.207   6.427   3.936 -0.0310 -0.4089 -0.5614
   60CHL1  H27A 5618   4.124   6.470   3.996  0.1271 -2.4055  1.1676
   60CHL1  H27B 5619   4.232   6.507   3.863 -1.2191  0.7635  0.2643
   60CHL1  H27C 5620   4.163   6.344   3.876 -0.3800  0.7948 -2.0522
   61CHL1    C3 5621   6.019   2.038   2.652  0.4156 -0.7047  0.5504
   61CHL1    H3 5622   5.991   1.930   2.655  0.7245 -0.7945  0.3355
   61CHL1    O3 5623   6.006   2.102   2.525 -0.1409  0.1541 -0.2203
   61CHL1   H3' 5624   6.092   2.105   2.481  1.0613  1.0728  2.0372
   61CHL1    C4 5625   5.934   2.110   2.763  0.5698  0.1679 -0.3817
   61CHL1   H4A 5626   5.962   2.218   2.763  0.8534  0.0962 -0.0007
   61CHL1   H4B 5627   5.826   2.108   2.737 -0.1690 -0.3189  2.4182
   61CHL1    C5 5628   5.965   2.054   2.902 -0.5768  0.1448  0.8567
   61CHL1    C6 5629   5.865   2.003   2.987  0.2169  0.2948 -0.4987
   61CHL1    H6 5630   5.759   2.006   2.959 -0.1993 -0.4187  0.9190
   61CHL1    C7 5631   5.890   1.928   3.117 -0.0260 -0.1542 -0.1415
   61CHL1   H7A 5632   5.805   1.940   3.188 -1.1984 -1.2735 -1.3062
   61CHL1   H7B 5633   5.892   1.820   3.090 -0.2064 -0.1373 -0.2209
   61CHL1    C8 5634   6.024   1.977   3.176 -0.1142  0.5498  0.6093
   61CHL1    H8 5635   6.011   2.084   3.203  1.9291  1.3619 -1.2767
   61CHL1   C14 5636   6.058   1.892   3.299 -0.2831 -0.1692 -0.4707
   61CHL1   H14 5637   6.076   1.787   3.270 -0.2514  0.0376 -1.2155
   61CHL1   C15 5638   5.951   1.870   3.410 -0.5448 -0.9161 -0.1094
   61CHL1  H15A 5639   5.920   1.972   3.440  1.1249 -0.3353 -0.2158
   61CHL1  H15B 5640   5.869   1.804   3.374 -1.4160 -1.3265  2.4637
   61CHL1   C16 5641   6.033   1.807   3.531 -0.5304 -0.1046 -0.4241
   61CHL1  H16A 5642   6.020   1.871   3.620  4.2764  1.9825 -0.9296
   61CHL1  H16B 5643   6.004   1.703   3.556 -1.6287  0.1532 -0.5780
   61CHL1   C17 5644   6.186   1.821   3.493 -0.3222 -0.4251 -0.4513
   61CHL1   H17 5645   6.211   1.719   3.455 -0.9983 -2.0315  2.9686
   61CHL1   C13 5646   6.190   1.930   3.374 -0.4389  0.9395 -0.6964
   61CHL1   C18 5647   6.166   2.075   3.438 -0.4000  0.0045  0.6580
   61CHL1  H18A 5648   6.261   2.116   3.478  0.5235 -0.5642 -0.8409
   61CHL1  H18B 5649   6.123   2.141   3.360 -0.3726 -0.1902  0.4747
   61CHL1  H18C 5650   6.093   2.077   3.521 -1.9960  3.1316 -0.6516
   61CHL1   C12 5651   6.309   1.926   3.271 -0.0736  0.3364 -0.2020
   61CHL1  H12A 5652   6.399   1.965   3.323  1.2203 -1.9917 -0.5532
   61CHL1  H12B 5653   6.326   1.820   3.242 -0.2325  0.3578 -0.3806
   61CHL1   C11 5654   6.284   2.006   3.142  0.6519  0.2496 -0.4101
   61CHL1  H11A 5655   6.284   2.114   3.167  0.6073  0.6351 -1.9971
   61CHL1  H11B 5656   6.360   1.990   3.062  0.6000  1.4230 -0.7149
   61CHL1    C9 5657   6.147   1.971   3.078  0.8909 -0.1066 -0.5848
   61CHL1    H9 5658   6.157   1.865   3.047 -0.3882 -0.5753  0.5077
   61CHL1   C10 5659   6.119   2.047   2.944 -0.9460  0.2701  0.6421
   61CHL1   C19 5660   6.158   2.194   2.958  0.2787  0.1100  0.2516
   61CHL1  H19A 5661   6.101   2.249   3.036 -0.4020 -1.1328  0.6632
   61CHL1  H19B 5662   6.266   2.209   2.981  0.7256 -0.2072 -1.4849
   61CHL1  H19C 5663   6.146   2.250   2.863 -1.1566  0.9914  0.9051
   61CHL1    C1 5664   6.205   1.981   2.825  0.1360 -0.0437 -0.7572
   61CHL1   H1A 5665   6.312   2.002   2.840 -0.0785 -0.7149  2.1826
   61CHL1   H1B 5666   6.196   1.871   2.836  0.1304  0.0167 -0.1250
   61CHL1    C2 5667   6.164   2.034   2.688  0.4277 -0.7727  0.5319
   61CHL1   H2A 5668   6.221   1.980   2.609  0.5996  0.5787 -0.3104
   61CHL1   H2B 5669   6.207   2.136   2.677  0.4026 -0.9305 -1.4693
   61CHL1   C20 5670   6.277   1.842   3.614  0.4800 -0.2010  0.0709
   61CHL1   H20 5671   6.235   1.926   3.674  1.3026 -0.0401  0.4316
   61CHL1   C21 5672   6.425   1.872   3.574  0.3863 -0.4145  0.4653
   61CHL1  H21A 5673   6.442   1.965   3.516  1.3818 -0.2845  0.9369
   61CHL1  H21B 5674   6.463   1.790   3.509 -3.2599 -1.3185 -0.7528
   61CHL1  H21C 5675   6.484   1.883   3.668 -0.4220 -1.5971  1.1492
   61CHL1   C22 5676   6.270   1.717   3.708  0.2554  0.1179 -0.5321
   61CHL1  H22A 5677   6.163   1.684   3.707 -0.7233  3.0502 -0.8847
   61CHL1  H22B 5678   6.314   1.622   3.669  0.3409  0.2654 -0.7940
   61CHL1   C23 5679   6.319   1.746   3.852  0.3602  0.2603 -0.2885
   61CHL1  H23A 5680   6.427   1.768   3.865 -0.0446  1.5799  1.1340
   61CHL1  H23B 5681   6.264   1.836   3.886  1.3586  0.7546  0.0609
   61CHL1   C24 5682   6.284   1.626   3.950  0.0257 -0.6323  0.2286
   61CHL1  H24A 5683   6.174   1.618   3.937 -0.3418  4.1221 -1.8400
   61CHL1  H24B 5684   6.316   1.526   3.913 -1.5223 -1.3118  0.6424
   61CHL1   C25 5685   6.331   1.633   4.101  0.2494  0.0833  0.5831
   61CHL1   H25 5686   6.295   1.534   4.137 -3.2896  0.9868 -0.0561
   61CHL1   C26 5687   6.488   1.629   4.113  1.0466  0.4849  0.3866
   61CHL1  H26A 5688   6.526   1.530   4.079 -0.1238 -0.1945  1.0179
   61CHL1  H26B 5689   6.538   1.710   4.055 -0.3634 -0.4077 -2.2416
   61CHL1  H26C 5690   6.526   1.635   4.217  0.4505 -0.2150  0.6499
   61CHL1   C27 5691   6.274   1.759   4.176 -0.8920 -0.6793 -0.1180
   61CHL1  H27A 5692   6.165   1.747   4.192 -1.0177  0.6436  0.1272
   61CHL1  H27B 5693   6.319   1.780   4.275 -0.7008 -0.7738 -0.1835
   61CHL1  H27C 5694   6.286   1.850   4.113  1.1504 -0.0936  1.0236
   62CHL1    C3 5695   1.734   1.189   2.518  0.3229  0.1912  0.1293
   62CHL1    H3 5696   1.626   1.171   2.534  0.7363 -0.6256  2.4335
   62CHL1    O3 5697   1.764   1.212   2.381  0.4569 -0.1402 -0.0278
   62CHL1   H3' 5698   1.860   1.203   2.379  0.3594 -1.1694 -1.2794
   62CHL1    C4 5699   1.759   1.317   2.608 -0.3077  0.1114 -0.3757
   62CHL1   H4A 5700   1.865   1.346   2.595  0.3551 -1.2633  1.5820
   62CHL1   H4B 5701   1.704   1.406   2.570  2.4703  1.9311 -0.4236
   62CHL1    C5 5702   1.728   1.301   2.751  0.0509  0.8764 -0.1800
   62CHL1    C6 5703   1.642   1.386   2.817 -0.1579 -0.2452 -0.1756
   62CHL1    H6 5704   1.606   1.476   2.764  0.7719  0.8561  1.0069
   62CHL1    C7 5705   1.622   1.382   2.961  0.7449 -0.1129  0.5081
   62CHL1   H7A 5706   1.636   1.486   2.999  3.0146  0.7493 -2.2963
   62CHL1   H7B 5707   1.518   1.353   2.984  0.7062 -1.7356 -1.4610
   62CHL1    C8 5708   1.718   1.284   3.037  0.1255 -0.0387 -0.3512
   62CHL1    H8 5709   1.815   1.339   3.033 -0.2566  0.5680 -2.3610
   62CHL1   C14 5710   1.665   1.259   3.176 -0.3024 -0.3435  0.3174
   62CHL1   H14 5711   1.567   1.207   3.169  0.7403 -2.2922 -0.5709
   62CHL1   C15 5712   1.628   1.385   3.260  0.2720 -0.5376  0.5345
   62CHL1  H15A 5713   1.710   1.461   3.263 -1.8636  2.1669 -2.5282
   62CHL1  H15B 5714   1.532   1.424   3.220 -0.6210 -1.5291  1.6505
   62CHL1   C16 5715   1.628   1.327   3.402  0.3196 -1.3744 -0.1157
   62CHL1  H16A 5716   1.703   1.381   3.463  0.9093 -2.2069 -0.0908
   62CHL1  H16B 5717   1.524   1.321   3.441  0.9512  0.3954  2.0816
   62CHL1   C17 5718   1.675   1.177   3.394  0.3626 -1.3282 -0.0058
   62CHL1   H17 5719   1.591   1.107   3.376  2.5784 -4.3972  0.7301
   62CHL1   C13 5720   1.755   1.166   3.265  0.0496  0.1296 -0.6463
   62CHL1   C18 5721   1.892   1.229   3.282 -0.4537 -0.0655  0.0165
   62CHL1  H18A 5722   1.886   1.335   3.314  0.9442 -0.2348  0.9231
   62CHL1  H18B 5723   1.966   1.176   3.345  1.0574  0.8642 -0.9010
   62CHL1  H18C 5724   1.941   1.234   3.182 -0.7111 -0.6614 -0.1453
   62CHL1   C12 5725   1.760   1.028   3.193 -0.0730  0.2483  0.7241
   62CHL1  H12A 5726   1.820   0.955   3.251  2.9549  1.1726 -1.0302
   62CHL1  H12B 5727   1.655   0.993   3.185  0.5550 -2.2316  2.1283
   62CHL1   C11 5728   1.816   1.045   3.048 -0.0171 -0.3445  0.7149
   62CHL1  H11A 5729   1.924   1.068   3.060 -0.3473  2.0473 -0.3990
   62CHL1  H11B 5730   1.813   0.939   3.014  2.1483 -1.1091  2.6123
   62CHL1    C9 5731   1.734   1.149   2.965  0.3315 -0.2257  0.5398
   62CHL1    H9 5732   1.638   1.096   2.949  0.6557 -0.8194  0.5127
   62CHL1   C10 5733   1.789   1.174   2.821 -0.1919  0.1712  0.0364
   62CHL1   C19 5734   1.941   1.199   2.827  0.6559 -1.4300  0.4300
   62CHL1  H19A 5735   1.999   1.108   2.857 -0.4511 -2.9177 -1.6633
   62CHL1  H19B 5736   1.998   1.223   2.734  0.7700 -1.4523  0.4935
   62CHL1  H19C 5737   1.961   1.279   2.901 -1.6033 -1.2381  0.8864
   62CHL1    C1 5738   1.770   1.054   2.734  0.2460 -0.1488 -0.1573
   62CHL1   H1A 5739   1.837   0.974   2.773  0.3287  0.8710  1.9457
   62CHL1   H1B 5740   1.663   1.024   2.741  0.6814 -1.8761 -0.6300
   62CHL1    C2 5741   1.808   1.077   2.582 -0.6330  0.1874  0.0549
   62CHL1   H2A 5742   1.767   0.992   2.524 -0.8450  0.7349 -0.6097
   62CHL1   H2B 5743   1.917   1.086   2.562 -0.9110  0.2154 -1.5049
   62CHL1   C20 5744   1.741   1.144   3.533  0.2077 -0.4827 -0.0141
   62CHL1   H20 5745   1.833   1.204   3.552  0.4197 -0.7625 -0.1442
   62CHL1   C21 5746   1.786   1.001   3.532 -0.0639 -0.7293  1.1848
   62CHL1  H21A 5747   1.807   0.965   3.636  1.6735  2.0850  1.8952
   62CHL1  H21B 5748   1.886   0.993   3.486 -0.9093  0.9475 -1.0955
   62CHL1  H21C 5749   1.718   0.937   3.472 -0.5439  1.7014 -1.0337
   62CHL1   C22 5750   1.637   1.174   3.653 -0.4972 -0.0482  0.5399
   62CHL1  H22A 5751   1.679   1.150   3.752 -1.6176 -1.1366  0.7693
   62CHL1  H22B 5752   1.613   1.282   3.643 -1.1113 -0.3071 -1.1900
   62CHL1   C23 5753   1.508   1.085   3.645  0.5065  0.1045 -0.0341
   62CHL1  H23A 5754   1.435   1.127   3.574 -0.7963 -2.0068 -0.0089
   62CHL1  H23B 5755   1.535   0.986   3.604  2.6507  0.7744 -0.4108
   62CHL1   C24 5756   1.427   1.072   3.779  0.5218 -0.0037 -0.1808
   62CHL1  H24A 5757   1.402   1.172   3.822 -1.6590 -1.0402  1.0961
   62CHL1  H24B 5758   1.329   1.024   3.756 -0.3671  1.0431  1.2388
   62CHL1   C25 5759   1.487   0.985   3.895 -0.2583  0.0860 -0.0928
   62CHL1   H25 5760   1.591   1.016   3.922 -0.8366  1.9333  0.1673
   62CHL1   C26 5761   1.402   1.012   4.017  0.2727 -0.8321  0.7027
   62CHL1  H26A 5762   1.296   0.990   3.996  0.0540  0.6653  0.1478
   62CHL1  H26B 5763   1.446   0.963   4.107  3.3983 -0.0075 -0.2337
   62CHL1  H26C 5764   1.416   1.120   4.041 -0.0348 -0.3215 -1.2589
   62CHL1   C27 5765   1.511   0.841   3.853 -0.3193  0.0751 -0.0753
   62CHL1  H27A 5766   1.543   0.784   3.942 -0.4991 -1.8350 -1.1879
   62CHL1  H27B 5767   1.410   0.800   3.834 -0.0842  0.4979 -2.6726
   62CHL1  H27C 5768   1.578   0.818   3.767 -1.4245 -0.9955 -0.6806
   63CHL1    C3 5769   6.093   4.275   2.672  0.0343  0.0462  0.0896
   63CHL1    H3 5770   5.991   4.297   2.709 -0.5401  2.1212 -2.4558
   63CHL1    O3 5771   6.114   4.329   2.545  0.0291  0.1150  0.6713
   63CHL1   H3' 5772   6.195   4.378   2.561 -0.8370  0.5809  4.4569
   63CHL1    C4 5773   6.205   4.330   2.770 -0.4727 -0.4187 -0.0173
   63CHL1   H4A 5774   6.300   4.319   2.713 -0.3469  1.5397 -0.2750
   63CHL1   H4B 5775   6.180   4.438   2.782 -2.0936 -0.5319 -1.9439
   63CHL1    C5 5776   6.214   4.250   2.902  0.3335 -0.3549  1.0319
   63CHL1    C6 5777   6.199   4.326   3.009  0.0899  0.4665 -0.4806
   63CHL1    H6 5778   6.179   4.434   3.016 -1.3152  0.1399  2.5457
   63CHL1    C7 5779   6.225   4.260   3.142 -0.1329  0.5842  0.4118
   63CHL1   H7A 5780   6.277   4.326   3.215  0.3018  2.4234 -1.4739
   63CHL1   H7B 5781   6.124   4.245   3.188 -0.4676  0.8404 -0.2294
   63CHL1    C8 5782   6.298   4.122   3.130 -0.1271 -0.0703  0.1682
   63CHL1    H8 5783   6.402   4.127   3.089  0.3117 -3.3300  0.6178
   63CHL1   C14 5784   6.294   4.051   3.269 -0.1802  0.5703 -0.8097
   63CHL1   H14 5785   6.188   4.019   3.285  0.2740 -1.5153 -1.6183
   63CHL1   C15 5786   6.338   4.132   3.389 -0.4170 -0.3905 -0.2360
   63CHL1  H15A 5787   6.426   4.195   3.364  0.0888 -0.7590  0.5750
   63CHL1  H15B 5788   6.257   4.197   3.426 -1.1000 -1.2864 -0.1246
   63CHL1   C16 5789   6.363   4.028   3.489  0.2084  0.2195 -0.0544
   63CHL1  H16A 5790   6.472   4.040   3.508  0.0603  1.7618 -0.0659
   63CHL1  H16B 5791   6.322   4.038   3.592  1.4742 -1.6310  0.6743
   63CHL1   C17 5792   6.356   3.889   3.419  0.4753  0.0003 -0.7018
   63CHL1   H17 5793   6.254   3.851   3.436  0.3539  0.4234 -0.4613
   63CHL1   C13 5794   6.374   3.918   3.273  0.6917  0.1797  0.5089
   63CHL1   C18 5795   6.519   3.943   3.238  0.3874 -0.1894 -0.3791
   63CHL1  H18A 5796   6.531   3.990   3.138 -1.5677 -0.8688 -0.9559
   63CHL1  H18B 5797   6.574   4.010   3.309 -1.0877  1.3658 -0.6354
   63CHL1  H18C 5798   6.572   3.851   3.206  1.5875  1.3386 -3.1351
   63CHL1   C12 5799   6.305   3.826   3.171  0.1909 -0.1418 -0.0629
   63CHL1  H12A 5800   6.370   3.737   3.161 -2.1703 -2.6039  3.9707
   63CHL1  H12B 5801   6.206   3.788   3.205 -0.0285 -1.5144 -2.0524
   63CHL1   C11 5802   6.297   3.885   3.030  0.0623  0.0879  0.2969
   63CHL1  H11A 5803   6.401   3.893   2.992 -0.6944  0.2778 -1.8452
   63CHL1  H11B 5804   6.246   3.816   2.959  0.3439 -0.3707  0.5344
   63CHL1    C9 5805   6.231   4.031   3.029 -0.5738 -0.2238  0.1984
   63CHL1    H9 5806   6.126   4.020   3.063 -0.3431 -1.4847  0.5433
   63CHL1   C10 5807   6.233   4.102   2.893 -0.7228  0.7466 -0.0936
   63CHL1   C19 5808   6.369   4.066   2.822 -0.2823 -0.0747  0.0546
   63CHL1  H19A 5809   6.373   3.961   2.787  1.3313  0.2597 -0.8232
   63CHL1  H19B 5810   6.392   4.133   2.737  0.0785  0.4629  0.5680
   63CHL1  H19C 5811   6.456   4.077   2.890  0.1050  1.4302 -0.6469
   63CHL1    C1 5812   6.114   4.060   2.804 -0.2510 -0.0812 -0.2643
   63CHL1   H1A 5813   6.109   3.951   2.783  0.9254 -0.1819 -0.0580
   63CHL1   H1B 5814   6.014   4.080   2.848 -0.7472 -2.8347  0.0407
   63CHL1    C2 5815   6.106   4.118   2.659 -0.0590 -0.8263  0.4026
   63CHL1   H2A 5816   6.016   4.077   2.609 -0.5643  0.9079 -0.1661
   63CHL1   H2B 5817   6.196   4.076   2.608  0.1668 -1.2677  1.1425
   63CHL1   C20 5818   6.454   3.787   3.486  0.2190  1.0368  0.4005
   63CHL1   H20 5819   6.557   3.802   3.448  0.1128 -0.3672 -0.5342
   63CHL1   C21 5820   6.408   3.643   3.441 -0.1071  0.7743 -0.2253
   63CHL1  H21A 5821   6.470   3.566   3.491 -1.3132 -0.3299 -0.3841
   63CHL1  H21B 5822   6.427   3.649   3.332  1.0923  2.0059  0.0141
   63CHL1  H21C 5823   6.298   3.643   3.460 -0.0384 -0.5073  0.2533
   63CHL1   C22 5824   6.440   3.783   3.635 -0.8062  0.3802 -0.4544
   63CHL1  H22A 5825   6.462   3.882   3.681 -0.8476  0.0774  0.2338
   63CHL1  H22B 5826   6.336   3.759   3.668  0.0087  1.1962  3.0576
   63CHL1   C23 5827   6.547   3.686   3.691  0.1495 -0.2513  0.5091
   63CHL1  H23A 5828   6.507   3.583   3.679 -0.2053 -0.0601  0.0186
   63CHL1  H23B 5829   6.645   3.685   3.638  0.7360 -0.3285  1.5691
   63CHL1   C24 5830   6.576   3.702   3.840 -0.0204 -0.2547  0.0769
   63CHL1  H24A 5831   6.680   3.739   3.842  0.3553 -1.2849  0.4358
   63CHL1  H24B 5832   6.510   3.784   3.876  0.4361 -0.5444  1.6437
   63CHL1   C25 5833   6.557   3.578   3.921  0.2385  0.0103  0.4523
   63CHL1   H25 5834   6.606   3.497   3.863 -0.2974  1.3592 -2.0340
   63CHL1   C26 5835   6.633   3.591   4.050  0.7384  0.2874  0.2498
   63CHL1  H26A 5836   6.621   3.505   4.119 -0.6082 -0.9154 -1.3773
   63CHL1  H26B 5837   6.741   3.591   4.024  0.9984 -2.5656  0.9857
   63CHL1  H26C 5838   6.610   3.684   4.106 -1.0027  1.3167 -1.9702
   63CHL1   C27 5839   6.405   3.550   3.947 -0.6070 -0.0300  0.0433
   63CHL1  H27A 5840   6.359   3.639   3.994 -1.2691 -0.3340 -0.0076
   63CHL1  H27B 5841   6.353   3.518   3.854  0.9475 -1.2622 -0.4589
   63CHL1  H27C 5842   6.393   3.473   4.026  2.7575 -1.5769 -0.7662
   64CHL1    C3 5843   1.601   6.165   2.174  0.3161  0.4925  0.5644
   64CHL1    H3 5844   1.503   6.114   2.174  0.2808  0.5412  1.7043
   64CHL1    O3 5845   1.644   6.208   2.042 -0.4427  0.4395 -0.1951
   64CHL1   H3' 5846   1.732   6.243   2.053 -0.6350  1.0954 -0.6650
   64CHL1    C4 5847   1.585   6.287   2.264 -0.3026  0.2600  0.2110
   64CHL1   H4A 5848   1.671   6.356   2.258 -1.1312  1.3020  0.0481
   64CHL1   H4B 5849   1.495   6.336   2.220  0.0615  0.7922  0.0613
   64CHL1    C5 5850   1.568   6.243   2.412  0.8479  0.7962  0.6905
   64CHL1    C6 5851   1.464   6.270   2.488 -0.2383 -0.1275  0.1893
   64CHL1    H6 5852   1.391   6.336   2.439 -0.2719  0.5937  1.1802
   64CHL1    C7 5853   1.455   6.238   2.631  0.5244  0.9636  0.0911
   64CHL1   H7A 5854   1.413   6.327   2.682  1.6623 -0.0036  2.9495
   64CHL1   H7B 5855   1.378   6.158   2.642  0.7386  0.4697 -1.6647
   64CHL1    C8 5856   1.584   6.185   2.698  0.6530  0.1864 -0.1936
   64CHL1    H8 5857   1.648   6.273   2.723 -0.2653  0.0859  2.9003
   64CHL1   C14 5858   1.555   6.106   2.826 -0.0993  0.9082 -0.5621
   64CHL1   H14 5859   1.518   6.009   2.786  0.6241  1.2196 -2.0416
   64CHL1   C15 5860   1.451   6.157   2.924  0.3045 -0.3228  0.2514
   64CHL1  H15A 5861   1.472   6.260   2.959 -0.5270  0.0932 -0.4303
   64CHL1  H15B 5862   1.348   6.152   2.884  0.8455  3.0791 -1.9619
   64CHL1   C16 5863   1.460   6.086   3.057  0.5420 -0.2671  0.2180
   64CHL1  H16A 5864   1.457   6.162   3.138 -0.8105 -1.0065  0.9115
   64CHL1  H16B 5865   1.375   6.015   3.072 -0.7420  1.4377  1.3736
   64CHL1   C17 5866   1.597   6.018   3.049 -1.1782  0.5395  0.0334
   64CHL1   H17 5867   1.583   5.910   3.025 -0.0693  0.2502  0.6070
   64CHL1   C13 5868   1.674   6.070   2.918 -0.0190 -0.5634  0.4067
   64CHL1   C18 5869   1.768   6.193   2.951 -0.0650 -0.0971 -0.3571
   64CHL1  H18A 5870   1.847   6.146   3.013 -1.9661 -0.4596  1.9563
   64CHL1  H18B 5871   1.821   6.235   2.863 -0.1696  0.7849 -0.0039
   64CHL1  H18C 5872   1.720   6.273   3.011  0.0656  1.6352 -2.4337
   64CHL1   C12 5873   1.765   5.978   2.830 -0.1748 -0.0745 -0.3174
   64CHL1  H12A 5874   1.865   5.955   2.873 -1.0023 -1.3892  0.9997
   64CHL1  H12B 5875   1.725   5.875   2.817  0.5654 -0.2969 -0.9121
   64CHL1   C11 5876   1.790   6.038   2.686 -0.6165  0.6477 -0.1351
   64CHL1  H11A 5877   1.861   6.122   2.701 -0.3069  0.9298 -2.7278
   64CHL1  H11B 5878   1.833   5.953   2.630 -0.9259 -0.6315  1.4914
   64CHL1    C9 5879   1.661   6.092   2.607 -0.0655  0.3859  0.1710
   64CHL1    H9 5880   1.596   6.003   2.590  1.0349 -0.5151  0.5023
   64CHL1   C10 5881   1.684   6.152   2.465  0.6835  0.3204  0.2618
   64CHL1   C19 5882   1.806   6.244   2.471  0.6327 -0.2556  0.3046
   64CHL1  H19A 5883   1.896   6.193   2.511 -0.6813 -1.6747  1.5606
   64CHL1  H19B 5884   1.834   6.282   2.370  0.2119  0.4069  0.4248
   64CHL1  H19C 5885   1.791   6.340   2.525  0.7267  2.6884 -4.3130
   64CHL1    C1 5886   1.699   6.034   2.370  0.7076 -0.1466 -0.2368
   64CHL1   H1A 5887   1.781   5.965   2.399 -0.4693 -0.6068  2.3375
   64CHL1   H1B 5888   1.606   5.973   2.380  0.7618 -0.1104  0.5345
   64CHL1    C2 5889   1.711   6.070   2.224 -0.5994  0.4153 -0.2052
   64CHL1   H2A 5890   1.709   5.978   2.162 -1.6464  0.9143 -0.9544
   64CHL1   H2B 5891   1.810   6.118   2.210  0.0842 -1.2011 -1.0945
   64CHL1   C20 5892   1.683   6.013   3.183  0.0606 -0.1339 -0.3290
   64CHL1   H20 5893   1.722   6.111   3.216  2.3742 -1.4856  1.1954
   64CHL1   C21 5894   1.805   5.919   3.167  0.2909  0.5115 -0.3049
   64CHL1  H21A 5895   1.763   5.817   3.151 -0.0853  0.3347  1.5597
   64CHL1  H21B 5896   1.877   5.926   3.251  1.5929 -0.6817 -1.2638
   64CHL1  H21C 5897   1.865   5.950   3.078  0.2229  3.4644  0.5857
   64CHL1   C22 5898   1.594   5.956   3.299 -0.0412 -0.0308  0.0443
   64CHL1  H22A 5899   1.505   6.022   3.303 -0.9872 -1.2450 -0.6113
   64CHL1  H22B 5900   1.560   5.855   3.270  1.8169 -0.5386 -0.5416
   64CHL1   C23 5901   1.664   5.956   3.437  0.2594  0.1898  0.5116
   64CHL1  H23A 5902   1.770   5.924   3.429  0.7038  1.3540  1.4119
   64CHL1  H23B 5903   1.675   6.061   3.472  0.9612  0.4380 -0.4108
   64CHL1   C24 5904   1.597   5.879   3.555  0.3278  0.0216 -0.4108
   64CHL1  H24A 5905   1.491   5.911   3.569  0.1415 -0.3326 -0.9743
   64CHL1  H24B 5906   1.600   5.773   3.522  0.0749 -0.1659  0.1557
   64CHL1   C25 5907   1.668   5.896   3.688 -0.7820  0.5834 -0.8979
   64CHL1   H25 5908   1.704   6.001   3.701  0.2019  0.7076 -3.8476
   64CHL1   C26 5909   1.578   5.854   3.805  0.5353  0.1012 -0.2010
   64CHL1  H26A 5910   1.543   5.750   3.787 -0.4814  0.0689  1.6158
   64CHL1  H26B 5911   1.630   5.842   3.903 -0.4313  0.0568  0.3203
   64CHL1  H26C 5912   1.496   5.928   3.826 -0.3806 -1.3495  1.7031
   64CHL1   C27 5913   1.800   5.815   3.697 -0.2737  0.7261 -0.2092
   64CHL1  H27A 5914   1.880   5.840   3.624 -0.5015 -2.2618 -1.6546
   64CHL1  H27B 5915   1.832   5.817   3.803  0.0392  2.2845 -0.3126
   64CHL1  H27C 5916   1.781   5.709   3.668 -0.7646  0.3891  1.2267
   65CHL1    C3 5917   1.077   1.512   2.374  0.1887 -0.2313  0.2810
   65CHL1    H3 5918   0.999   1.579   2.416 -0.4490  0.3736 -1.7461
   65CHL1    O3 5919   1.080   1.532   2.235 -0.5465 -0.0242  0.0806
   65CHL1   H3' 5920   1.109   1.460   2.180 -0.1439  1.6505 -2.0126
   65CHL1    C4 5921   1.220   1.517   2.433 -0.1770  0.6578 -0.2604
   65CHL1   H4A 5922   1.275   1.439   2.375 -2.1146 -1.6109  0.7502
   65CHL1   H4B 5923   1.257   1.617   2.402 -1.8349  1.0224 -1.2283
   65CHL1    C5 5924   1.213   1.491   2.580  1.2500  0.4302  0.3247
   65CHL1    C6 5925   1.248   1.590   2.668  0.9699  0.3706  0.0864
   65CHL1    H6 5926   1.295   1.683   2.632 -1.6789  1.3220 -1.1785
   65CHL1    C7 5927   1.238   1.572   2.818  0.1619 -0.2287 -0.0937
   65CHL1   H7A 5928   1.320   1.617   2.879 -1.5978  0.9237  1.5537
   65CHL1   H7B 5929   1.159   1.638   2.859 -0.6628  0.4944 -2.6664
   65CHL1    C8 5930   1.219   1.426   2.861 -0.1286  0.7347  0.1040
   65CHL1    H8 5931   1.322   1.384   2.855 -0.8278 -0.8823 -1.6978
   65CHL1   C14 5932   1.161   1.423   3.006 -0.0884  0.1787  0.1988
   65CHL1   H14 5933   1.060   1.470   3.007  0.3821  1.2245  1.0793
   65CHL1   C15 5934   1.237   1.496   3.118  1.4471 -0.4216 -0.6297
   65CHL1  H15A 5935   1.345   1.474   3.104  1.0991 -0.8586 -3.0385
   65CHL1  H15B 5936   1.223   1.606   3.127 -0.0049 -0.5286 -1.2764
   65CHL1   C16 5937   1.187   1.438   3.255 -0.2646  0.7721 -0.1120
   65CHL1  H16A 5938   1.271   1.394   3.311  1.8690 -0.6604 -4.0363
   65CHL1  H16B 5939   1.122   1.506   3.315 -0.6956  0.0581  0.2487
   65CHL1   C17 5940   1.089   1.315   3.209 -0.3192  0.3839  0.0841
   65CHL1   H17 5941   0.984   1.350   3.194 -0.0314  1.6177  0.7377
   65CHL1   C13 5942   1.138   1.281   3.064 -0.3828  0.1183  0.5157
   65CHL1   C18 5943   1.271   1.204   3.079  0.3147 -0.5805 -0.2484
   65CHL1  H18A 5944   1.252   1.098   3.107 -0.6733 -0.0476  1.2147
   65CHL1  H18B 5945   1.331   1.208   2.986 -0.5808 -1.3672 -0.8800
   65CHL1  H18C 5946   1.335   1.251   3.156  0.6322 -0.4027 -0.6202
   65CHL1   C12 5947   1.036   1.205   2.976 -0.7910 -0.6907  0.4632
   65CHL1  H12A 5948   1.018   1.095   2.982  2.2358 -1.4730 -1.9416
   65CHL1  H12B 5949   0.938   1.254   2.993 -0.7353 -0.9500  1.6274
   65CHL1   C11 5950   1.080   1.211   2.826  0.3663  0.3309 -0.2785
   65CHL1  H11A 5951   1.170   1.149   2.809  1.6962  2.5019 -1.7612
   65CHL1  H11B 5952   1.001   1.167   2.761 -0.3688 -2.1061  2.1237
   65CHL1    C9 5953   1.121   1.353   2.770  0.1968  0.8277 -0.5313
   65CHL1    H9 5954   1.028   1.413   2.783 -0.3720  0.3429 -2.1556
   65CHL1   C10 5955   1.153   1.355   2.613 -0.1742  0.1003 -0.7671
   65CHL1   C19 5956   1.260   1.250   2.587 -0.4172  0.0412 -0.2613
   65CHL1  H19A 5957   1.339   1.257   2.664 -2.1028  0.9995  1.4834
   65CHL1  H19B 5958   1.216   1.148   2.593 -2.2480  0.6996 -1.5532
   65CHL1  H19C 5959   1.311   1.253   2.489 -0.6125  0.1677 -0.3604
   65CHL1    C1 5960   1.018   1.329   2.534 -0.4635 -0.5137  0.0128
   65CHL1   H1A 5961   0.974   1.229   2.552  0.0206 -1.1113 -1.9474
   65CHL1   H1B 5962   0.953   1.406   2.582  1.4371  1.1801  0.0308
   65CHL1    C2 5963   1.033   1.368   2.386  0.0859  1.0636 -0.3782
   65CHL1   H2A 5964   0.939   1.350   2.330  0.2306  0.6890 -0.5031
   65CHL1   H2B 5965   1.111   1.307   2.336  0.4611  3.4637 -2.9275
   65CHL1   C20 5966   1.083   1.206   3.321 -0.3385  0.8396 -0.3056
   65CHL1   H20 5967   1.186   1.170   3.345 -0.5503  0.0864 -0.4934
   65CHL1   C21 5968   1.000   1.086   3.257 -0.6271 -0.7084  0.0457
   65CHL1  H21A 5969   0.951   1.036   3.343  1.2208  0.9312  2.1653
   65CHL1  H21B 5970   1.059   1.007   3.206 -1.4503 -1.5322  0.3301
   65CHL1  H21C 5971   0.918   1.125   3.192 -2.7311 -3.2248  0.9921
   65CHL1   C22 5972   1.024   1.261   3.451  0.2268  0.2680 -0.7406
   65CHL1  H22A 5973   1.108   1.325   3.485  0.4959 -0.7972  0.6800
   65CHL1  H22B 5974   0.930   1.316   3.427  0.0872  0.2492 -0.2627
   65CHL1   C23 5975   0.991   1.173   3.565 -0.0477  0.7379  0.6046
   65CHL1  H23A 5976   0.918   1.098   3.527  4.3214 -3.2073 -0.9719
   65CHL1  H23B 5977   1.074   1.104   3.589  0.4221  1.1792  0.2670
   65CHL1   C24 5978   0.953   1.251   3.683  0.0468 -0.4602  0.1571
   65CHL1  H24A 5979   1.043   1.308   3.717  0.4512 -0.5051 -0.8115
   65CHL1  H24B 5980   0.870   1.323   3.668  0.9519  1.0054  1.7827
   65CHL1   C25 5981   0.889   1.174   3.794 -0.0325 -0.5442  0.5375
   65CHL1   H25 5982   0.801   1.116   3.759 -0.9369  0.8193  0.5016
   65CHL1   C26 5983   0.984   1.066   3.854 -0.3541  0.3523  0.3886
   65CHL1  H26A 5984   1.001   0.988   3.776 -2.9827 -0.4459  0.5211
   65CHL1  H26B 5985   1.084   1.101   3.886 -0.1632 -0.2837  0.5026
   65CHL1  H26C 5986   0.929   1.018   3.938 -0.6991  0.8347  0.4416
   65CHL1   C27 5987   0.855   1.262   3.911  0.1444 -0.7339 -0.0966
   65CHL1  H27A 5988   0.816   1.205   3.998  1.1154 -1.1490  0.0774
   65CHL1  H27B 5989   0.953   1.302   3.945 -0.2402  0.0241  0.1447
   65CHL1  H27C 5990   0.776   1.337   3.890 -2.5155 -2.7979  1.6740
   66CHL1    C3 5991   6.456   2.373   2.517  0.2125 -0.0338  0.2890
   66CHL1    H3 5992   6.352   2.405   2.538 -0.4423 -1.0964 -1.1762
   66CHL1    O3 5993   6.468   2.349   2.375 -0.6609 -0.2194 -0.0217
   66CHL1   H3' 5994   6.478   2.435   2.334 -0.4760 -0.6941 -0.9898
   66CHL1    C4 5995   6.558   2.475   2.561 -0.4538 -0.4441 -0.0838
   66CHL1   H4A 5996   6.658   2.468   2.514  0.2843  2.4166  0.8631
   66CHL1   H4B 5997   6.535   2.577   2.523  0.4235  0.2641  1.2395
   66CHL1    C5 5998   6.576   2.482   2.711 -0.6201 -0.5974 -0.0731
   66CHL1    C6 5999   6.573   2.604   2.775 -0.1091  0.5065 -0.1453
   66CHL1    H6 6000   6.570   2.697   2.716 -1.2602  0.6504  0.1226
   66CHL1    C7 6001   6.603   2.614   2.924  0.4553 -0.4243 -0.5305
   66CHL1   H7A 6002   6.667   2.703   2.945  0.3819 -0.1373 -1.4596
   66CHL1   H7B 6003   6.507   2.637   2.975 -0.3210 -0.0578 -2.1040
   66CHL1    C8 6004   6.657   2.486   2.993 -0.0396  0.6886  0.5200
   66CHL1    H8 6005   6.765   2.465   2.976  0.0453  1.2558  0.3548
   66CHL1   C14 6006   6.631   2.501   3.145  0.8175  0.3212  0.0828
   66CHL1   H14 6007   6.522   2.522   3.150  1.0597  1.6776 -0.0814
   66CHL1   C15 6008   6.684   2.619   3.215 -0.5494  0.4660 -0.3243
   66CHL1  H15A 6009   6.784   2.645   3.175 -1.0347  1.3839 -0.9956
   66CHL1  H15B 6010   6.627   2.712   3.191 -0.1829  0.5272 -0.9764
   66CHL1   C16 6011   6.680   2.586   3.364  0.3305 -0.5379  0.0321
   66CHL1  H16A 6012   6.786   2.597   3.395  0.9292 -1.2891 -1.6126
   66CHL1  H16B 6013   6.605   2.642   3.424  0.3149 -1.7493  1.2147
   66CHL1   C17 6014   6.631   2.431   3.367  0.5819 -0.1891  0.1371
   66CHL1   H17 6015   6.521   2.442   3.380  0.4898  0.5492 -1.0904
   66CHL1   C13 6016   6.662   2.377   3.225 -0.3482 -0.3526 -0.4832
   66CHL1   C18 6017   6.819   2.351   3.226  0.1686  0.5451 -0.9364
   66CHL1  H18A 6018   6.838   2.258   3.283  0.5319  1.3167  0.2315
   66CHL1  H18B 6019   6.859   2.329   3.125  0.3821 -0.1525 -0.7077
   66CHL1  H18C 6020   6.874   2.438   3.268 -0.1828 -0.3620  1.6239
   66CHL1   C12 6021   6.579   2.251   3.186 -0.1041  0.6075  0.7783
   66CHL1  H12A 6022   6.627   2.167   3.240  2.6439  1.1464 -0.6538
   66CHL1  H12B 6023   6.475   2.277   3.213  0.2133  0.0147  2.6794
   66CHL1   C11 6024   6.589   2.238   3.029  0.1377  0.6817  0.0467
   66CHL1  H11A 6025   6.686   2.187   3.011 -1.1642 -1.3300 -1.7995
   66CHL1  H11B 6026   6.507   2.167   3.004 -0.3682  0.4323  2.2119
   66CHL1    C9 6027   6.571   2.366   2.942  0.0010  0.2397 -0.4588
   66CHL1    H9 6028   6.467   2.400   2.959  0.1523  0.1461  0.7042
   66CHL1   C10 6029   6.587   2.347   2.791 -0.2144 -0.5575 -1.1354
   66CHL1   C19 6030   6.727   2.276   2.769  0.1045 -0.0449  0.4506
   66CHL1  H19A 6031   6.808   2.343   2.805  1.7829 -1.3491 -0.7608
   66CHL1  H19B 6032   6.747   2.178   2.818  3.2701  0.0925 -0.3372
   66CHL1  H19C 6033   6.745   2.269   2.660 -0.8095 -0.4067  0.3179
   66CHL1    C1 6034   6.482   2.254   2.736 -0.3499  0.0640 -0.5756
   66CHL1   H1A 6035   6.494   2.155   2.785  1.7355  1.1081  1.2032
   66CHL1   H1B 6036   6.378   2.291   2.755 -0.0354  1.0573 -0.7536
   66CHL1    C2 6037   6.484   2.234   2.576  0.7692  0.2370  0.3252
   66CHL1   H2A 6038   6.406   2.161   2.545  0.7676 -0.1197  1.1377
   66CHL1   H2B 6039   6.578   2.195   2.531  1.6010  1.4405  0.9443
   66CHL1   C20 6040   6.670   2.343   3.489 -0.0802  0.2774 -0.8084
   66CHL1   H20 6041   6.758   2.280   3.462 -2.6629 -3.7513 -0.7637
   66CHL1   C21 6042   6.553   2.250   3.526 -0.1520 -0.3260  0.0569
   66CHL1  H21A 6043   6.460   2.309   3.540 -0.4463 -0.6890 -0.3206
   66CHL1  H21B 6044   6.573   2.191   3.618  0.8692  0.7051  0.5110
   66CHL1  H21C 6045   6.522   2.182   3.443  1.3360 -1.5734  0.4851
   66CHL1   C22 6046   6.711   2.425   3.618  0.2634  0.3280 -0.1574
   66CHL1  H22A 6047   6.791   2.499   3.599 -0.6062  1.2283 -0.3941
   66CHL1  H22B 6048   6.621   2.482   3.649  1.2443  0.7635  2.1619
   66CHL1   C23 6049   6.763   2.347   3.742  0.5059 -0.2380  0.0751
   66CHL1  H23A 6050   6.709   2.251   3.753 -3.3186  1.7444  0.6630
   66CHL1  H23B 6051   6.873   2.343   3.725  0.8763  0.3429  2.0588
   66CHL1   C24 6052   6.731   2.418   3.870  0.5403 -0.1003  0.1748
   66CHL1  H24A 6053   6.769   2.522   3.866  1.4851 -0.3548  1.7079
   66CHL1  H24B 6054   6.622   2.422   3.891  0.4494 -0.2226 -0.2542
   66CHL1   C25 6055   6.791   2.355   4.000  0.4259  0.1077  0.9668
   66CHL1   H25 6056   6.899   2.355   3.975 -0.0200  0.5084 -1.2395
   66CHL1   C26 6057   6.769   2.436   4.130  0.6244  0.0258  0.6410
   66CHL1  H26A 6058   6.663   2.467   4.148 -0.2549 -2.6641  0.5496
   66CHL1  H26B 6059   6.798   2.364   4.209  1.4315  0.1599  0.4693
   66CHL1  H26C 6060   6.826   2.531   4.140  1.3763 -0.4310  0.7396
   66CHL1   C27 6061   6.734   2.217   4.018 -0.0028 -0.3887  0.2211
   66CHL1  H27A 6062   6.775   2.139   3.950 -1.8032 -1.9890  0.8596
   66CHL1  H27B 6063   6.623   2.227   4.011  0.0801 -0.1530 -1.0267
   66CHL1  H27C 6064   6.758   2.188   4.122  1.3495  1.0378  0.3263
   67CHL1    C3 6065   4.679   6.963   2.507  0.0754  0.9514 -0.4793
   67CHL1    H3 6066   4.597   6.890   2.487 -1.6390  1.3010  4.0195
   67CHL1    O3 6067   4.746   6.987   2.385  0.0320  0.4510 -0.7733
   67CHL1   H3' 6068   4.708   6.924   2.324 -3.2324 -0.8139  2.1770
   67CHL1    C4 6069   4.632   7.092   2.574 -0.2327  0.1942 -0.1157
   67CHL1   H4A 6070   4.715   7.166   2.585  0.8604 -1.0000 -0.1262
   67CHL1   H4B 6071   4.567   7.142   2.499  0.4713  0.1009 -0.8043
   67CHL1    C5 6072   4.570   7.061   2.710  0.3224  0.7200 -0.2308
   67CHL1    C6 6073   4.440   7.088   2.739 -0.2466 -0.2418  0.8385
   67CHL1    H6 6074   4.378   7.137   2.662 -0.6646 -2.3421 -0.2453
   67CHL1    C7 6075   4.368   7.052   2.869  0.2298 -0.3987  0.6957
   67CHL1   H7A 6076   4.316   7.147   2.896  2.6753  1.2255 -0.0098
   67CHL1   H7B 6077   4.285   6.981   2.848 -2.3235  2.6440 -0.3811
   67CHL1    C8 6078   4.460   7.011   2.985 -0.1867  0.1199 -0.0584
   67CHL1    H8 6079   4.511   7.100   3.027  0.6926 -0.0531 -0.7318
   67CHL1   C14 6080   4.383   6.933   3.093 -0.2893 -0.1674  0.5755
   67CHL1   H14 6081   4.363   6.839   3.037  0.1773 -0.2930  0.6159
   67CHL1   C15 6082   4.253   6.997   3.155  0.5813  0.0736  0.2829
   67CHL1  H15A 6083   4.265   7.107   3.172  0.3283 -0.0507  1.3479
   67CHL1  H15B 6084   4.173   6.981   3.079  2.0074 -0.7407 -1.1075
   67CHL1   C16 6085   4.234   6.919   3.288  0.9179 -0.2581  1.5746
   67CHL1  H16A 6086   4.232   6.990   3.373  0.2335  1.5200  0.1487
   67CHL1  H16B 6087   4.137   6.865   3.284  0.6517  0.2689  0.5606
   67CHL1   C17 6088   4.347   6.817   3.297  0.0711 -0.8403  0.0497
   67CHL1   H17 6089   4.317   6.721   3.251 -1.8824 -1.1326  1.7676
   67CHL1   C13 6090   4.464   6.883   3.210  0.4878  0.1314 -0.0828
   67CHL1   C18 6091   4.521   6.996   3.288  0.2012 -0.5486 -0.2877
   67CHL1  H18A 6092   4.559   6.973   3.390 -3.0590 -0.8664  0.9896
   67CHL1  H18B 6093   4.606   7.038   3.229  1.0861 -3.9293 -1.6488
   67CHL1  H18C 6094   4.450   7.081   3.295 -1.2627 -1.7263 -0.3639
   67CHL1   C12 6095   4.572   6.791   3.157  0.3861  0.2293  0.1272
   67CHL1  H12A 6096   4.634   6.751   3.240  0.8371 -1.6878 -1.0744
   67CHL1  H12B 6097   4.512   6.703   3.126 -0.2333 -0.0278  1.8896
   67CHL1   C11 6098   4.656   6.852   3.046  0.0605 -0.6110  0.1733
   67CHL1  H11A 6099   4.726   6.925   3.091 -0.2627 -1.0249  1.4138
   67CHL1  H11B 6100   4.722   6.772   3.005  1.0051 -1.3873  2.9740
   67CHL1    C9 6101   4.566   6.915   2.927  0.0265 -0.5876 -0.0907
   67CHL1    H9 6102   4.506   6.833   2.882  0.2375  1.0500 -3.7897
   67CHL1   C10 6103   4.650   6.977   2.809  0.0729  0.5233  0.2345
   67CHL1   C19 6104   4.751   7.079   2.867  0.5442  0.0715 -0.6240
   67CHL1  H19A 6105   4.794   7.144   2.788  0.3637  0.6565 -0.2534
   67CHL1  H19B 6106   4.711   7.144   2.948  0.5097 -1.5624  0.7192
   67CHL1  H19C 6107   4.832   7.013   2.905 -0.5599 -0.3058  1.2091
   67CHL1    C1 6108   4.719   6.852   2.736  0.1399 -0.3588 -0.1225
   67CHL1   H1A 6109   4.785   6.799   2.808  0.1335  1.6958  1.4584
   67CHL1   H1B 6110   4.634   6.784   2.711  0.8992 -1.0083 -1.0298
   67CHL1    C2 6111   4.776   6.891   2.601 -0.3476  0.1963 -0.2410
   67CHL1   H2A 6112   4.808   6.798   2.549 -2.4238  1.0674 -3.3719
   67CHL1   H2B 6113   4.864   6.952   2.631 -0.8348  1.4807 -1.3101
   67CHL1   C20 6114   4.380   6.778   3.448 -0.1742 -0.1022 -0.1440
   67CHL1   H20 6115   4.427   6.868   3.493 -0.4318 -0.4335  0.8108
   67CHL1   C21 6116   4.481   6.657   3.458 -0.3950  0.2447 -0.0391
   67CHL1  H21A 6117   4.477   6.597   3.364 -0.6109 -0.1861  0.2436
   67CHL1  H21B 6118   4.451   6.596   3.545 -0.9458 -2.0629 -1.7412
   67CHL1  H21C 6119   4.581   6.705   3.472  1.0788 -2.4020 -0.7175
   67CHL1   C22 6120   4.260   6.755   3.540 -0.5551 -0.7568 -0.6178
   67CHL1  H22A 6121   4.169   6.798   3.493 -0.9530 -1.2292 -0.2911
   67CHL1  H22B 6122   4.238   6.646   3.546 -0.7302 -0.6679  0.5334
   67CHL1   C23 6123   4.286   6.816   3.680  0.1041 -0.3021 -0.3776
   67CHL1  H23A 6124   4.340   6.738   3.738  1.8557  1.2538  0.1762
   67CHL1  H23B 6125   4.348   6.907   3.671  0.1809 -0.3348 -0.1649
   67CHL1   C24 6126   4.147   6.848   3.741  0.1916  0.0902  0.4459
   67CHL1  H24A 6127   4.092   6.910   3.667 -0.0908 -1.9731 -1.1761
   67CHL1  H24B 6128   4.088   6.754   3.744 -0.9052  0.7708  0.9306
   67CHL1   C25 6129   4.135   6.922   3.875 -0.4774  0.1402  0.3809
   67CHL1   H25 6130   4.028   6.949   3.884 -0.5613 -0.0623  0.0049
   67CHL1   C26 6131   4.186   6.840   3.995  0.4391 -0.3296  0.4456
   67CHL1  H26A 6132   4.143   6.737   3.993 -0.9306  0.0519  3.6335
   67CHL1  H26B 6133   4.295   6.831   4.013  0.3445  0.7714  1.7395
   67CHL1  H26C 6134   4.150   6.895   4.085  0.3488 -0.4467  0.4815
   67CHL1   C27 6135   4.210   7.051   3.871 -0.0966 -0.6922 -0.5471
   67CHL1  H27A 6136   4.165   7.104   3.784  0.0418 -2.5195 -1.7741
   67CHL1  H27B 6137   4.197   7.114   3.962 -1.7485 -0.6155 -0.7948
   67CHL1  H27C 6138   4.318   7.043   3.849 -0.1961 -1.7123 -0.7143
   68CHL1    C3 6139   2.328   0.459   2.069  0.0053  0.7439  0.2187
   68CHL1    H3 6140   2.259   0.539   2.104 -0.4363  0.7545 -0.6355
   68CHL1    O3 6141   2.337   0.454   1.930 -0.4204 -0.0683  0.1812
   68CHL1   H3' 6142   2.432   0.446   1.919 -0.6133 -0.5644 -1.2358
   68CHL1    C4 6143   2.469   0.487   2.134 -0.9603 -0.3965  0.7337
   68CHL1   H4A 6144   2.541   0.415   2.087 -0.3170 -0.8518  2.3473
   68CHL1   H4B 6145   2.493   0.592   2.108 -2.7037 -0.2223 -0.3350
   68CHL1    C5 6146   2.464   0.467   2.285 -0.4759 -0.0627  0.2475
   68CHL1    C6 6147   2.481   0.571   2.369 -0.8694 -0.2051  0.6557
   68CHL1    H6 6148   2.515   0.666   2.325  0.3385 -0.6076  0.6695
   68CHL1    C7 6149   2.496   0.571   2.520 -0.3329 -0.1627 -0.4486
   68CHL1   H7A 6150   2.600   0.602   2.544 -0.6142 -0.0724  0.7326
   68CHL1   H7B 6151   2.428   0.647   2.565 -0.6326 -0.0489 -1.0868
   68CHL1    C8 6152   2.491   0.424   2.574  0.0230  0.4131  0.1774
   68CHL1    H8 6153   2.595   0.385   2.575 -0.0592  0.1937  0.2027
   68CHL1   C14 6154   2.456   0.420   2.723  0.9215 -0.6415 -0.9253
   68CHL1   H14 6155   2.355   0.462   2.738  1.1161 -0.8435  1.4444
   68CHL1   C15 6156   2.530   0.515   2.827 -0.2943  0.5754  0.2696
   68CHL1  H15A 6157   2.638   0.494   2.814 -0.4678 -1.8420  2.0164
   68CHL1  H15B 6158   2.500   0.622   2.828 -1.8733  0.1512  0.5660
   68CHL1   C16 6159   2.502   0.448   2.960  0.3579 -0.4307 -0.3423
   68CHL1  H16A 6160   2.599   0.434   3.013 -0.3562  0.2015  1.1795
   68CHL1  H16B 6161   2.439   0.520   3.016  0.4120 -0.0615 -0.7562
   68CHL1   C17 6162   2.421   0.317   2.930  0.2314 -0.1676  1.3575
   68CHL1   H17 6163   2.315   0.347   2.922  0.2997 -0.1281  0.4796
   68CHL1   C13 6164   2.465   0.285   2.790 -0.4357  0.7927  0.4579
   68CHL1   C18 6165   2.607   0.222   2.784 -0.4942 -0.8986 -0.6971
   68CHL1  H18A 6166   2.632   0.138   2.852  2.0719  0.8154  0.6584
   68CHL1  H18B 6167   2.638   0.194   2.681  0.9643  2.4107 -1.2788
   68CHL1  H18C 6168   2.679   0.304   2.808 -0.1358 -0.9877 -1.4470
   68CHL1   C12 6169   2.357   0.198   2.710  0.2316  0.4497 -0.9489
   68CHL1  H12A 6170   2.342   0.096   2.753 -1.3035 -0.0848 -2.6096
   68CHL1  H12B 6171   2.257   0.246   2.719  0.6038  0.8951  1.4964
   68CHL1   C11 6172   2.392   0.193   2.563  0.0324  0.0785  0.9368
   68CHL1  H11A 6173   2.485   0.134   2.550 -1.0712 -1.6352  0.4864
   68CHL1  H11B 6174   2.305   0.141   2.518 -0.6591  2.0766 -0.1475
   68CHL1    C9 6175   2.401   0.336   2.498  0.3112  0.3283 -0.5982
   68CHL1    H9 6176   2.302   0.385   2.516  1.5064  2.6742 -0.0577
   68CHL1   C10 6177   2.419   0.332   2.347 -0.2324  0.0955 -0.1234
   68CHL1   C19 6178   2.524   0.232   2.314  0.0891 -0.1839 -0.2696
   68CHL1  H19A 6179   2.556   0.244   2.209  3.0820  0.0513  0.5473
   68CHL1  H19B 6180   2.602   0.254   2.391  0.1188  3.3100 -1.1258
   68CHL1  H19C 6181   2.480   0.130   2.310  0.6401 -0.3836 -2.2169
   68CHL1    C1 6182   2.285   0.303   2.272  0.1328  0.3789 -0.1784
   68CHL1   H1A 6183   2.240   0.209   2.311 -1.6910  1.1985 -0.1988
   68CHL1   H1B 6184   2.213   0.376   2.314  1.7658  0.4377  2.7640
   68CHL1    C2 6185   2.285   0.317   2.117  0.6180 -0.3148 -0.2553
   68CHL1   H2A 6186   2.187   0.276   2.083  0.8921 -1.4933  0.3153
   68CHL1   H2B 6187   2.362   0.247   2.077  1.9632  1.4134 -0.7899
   68CHL1   C20 6188   2.443   0.225   3.049  0.3382  0.0249 -0.1757
   68CHL1   H20 6189   2.549   0.191   3.046  0.3311  0.0567 -1.8839
   68CHL1   C21 6190   2.352   0.106   3.037 -0.1343  0.1103  0.2634
   68CHL1  H21A 6191   2.247   0.142   3.040  0.2063  1.1125  1.9784
   68CHL1  H21B 6192   2.361   0.038   3.125  0.6542  0.5268  0.5154
   68CHL1  H21C 6193   2.369   0.040   2.949  0.2254 -0.3971  0.7091
   68CHL1   C22 6194   2.415   0.311   3.182 -0.0634  0.6059  0.6907
   68CHL1  H22A 6195   2.497   0.382   3.209  0.6476 -0.6719  1.9969
   68CHL1  H22B 6196   2.318   0.364   3.174 -0.5428 -0.3322  0.1334
   68CHL1   C23 6197   2.438   0.234   3.311  0.7539  0.7288 -0.0130
   68CHL1  H23A 6198   2.363   0.152   3.318 -0.4959  1.4679 -3.0173
   68CHL1  H23B 6199   2.542   0.196   3.320  0.8296  0.6987 -0.9105
   68CHL1   C24 6200   2.421   0.320   3.436 -0.6461 -0.4641  0.0073
   68CHL1  H24A 6201   2.457   0.425   3.431 -0.5900 -0.5473 -2.3223
   68CHL1  H24B 6202   2.313   0.337   3.452 -1.1510 -2.8576 -0.5320
   68CHL1   C25 6203   2.477   0.256   3.565  0.2641  0.2416  0.4084
   68CHL1   H25 6204   2.486   0.149   3.536  3.0692  0.7117 -0.8357
   68CHL1   C26 6205   2.621   0.302   3.602 -0.3542 -0.2352  0.5364
   68CHL1  H26A 6206   2.654   0.275   3.704  2.5917 -1.5068 -0.6436
   68CHL1  H26B 6207   2.699   0.266   3.532 -0.7073  1.6873 -0.9140
   68CHL1  H26C 6208   2.630   0.412   3.595 -2.1946 -0.0864 -0.0847
   68CHL1   C27 6209   2.382   0.265   3.684 -0.4541  0.9513  0.0275
   68CHL1  H27A 6210   2.354   0.370   3.710 -2.5497  1.0985 -2.4514
   68CHL1  H27B 6211   2.282   0.219   3.670 -0.5128  0.9920  0.3037
   68CHL1  H27C 6212   2.441   0.223   3.768  0.2539  4.2172  1.3009
   69CHL1    C3 6213   5.306   6.906   2.804 -0.2901 -0.2555 -0.3976
   69CHL1    H3 6214   5.286   6.797   2.799  1.6131 -0.6894  0.6901
   69CHL1    O3 6215   5.315   6.961   2.676 -0.5605  0.5520  0.7338
   69CHL1   H3' 6216   5.370   6.895   2.633 -2.6288 -0.8580  0.0776
   69CHL1    C4 6217   5.189   6.982   2.878  0.2460  0.2473 -0.3682
   69CHL1   H4A 6218   5.225   7.087   2.883  1.1061  0.0373 -1.5275
   69CHL1   H4B 6219   5.095   6.966   2.821 -1.9699  1.1810  2.7723
   69CHL1    C5 6220   5.171   6.914   3.012 -0.0498  0.1788 -0.4227
   69CHL1    C6 6221   5.050   6.866   3.056  0.0964  0.1309 -0.0826
   69CHL1    H6 6222   4.963   6.872   2.989 -0.2360 -0.5851  0.2731
   69CHL1    C7 6223   5.024   6.803   3.188  0.1811 -0.4934 -0.0890
   69CHL1   H7A 6224   4.923   6.837   3.219  0.1958 -0.6561  0.1418
   69CHL1   H7B 6225   5.012   6.694   3.172 -0.8483 -0.3826 -0.1062
   69CHL1    C8 6226   5.129   6.845   3.287 -0.5922 -1.7005  0.2522
   69CHL1    H8 6227   5.124   6.954   3.311 -0.3582 -0.9776 -2.6147
   69CHL1   C14 6228   5.117   6.754   3.404  0.5306 -0.3457  0.1788
   69CHL1   H14 6229   5.123   6.659   3.348 -1.6635 -0.2135 -0.3857
   69CHL1   C15 6230   4.986   6.732   3.485 -0.4176  0.5776 -0.1606
   69CHL1  H15A 6231   4.935   6.830   3.502 -0.2455  0.5344  0.6468
   69CHL1  H15B 6232   4.920   6.667   3.424  0.6745  1.0315 -1.8886
   69CHL1   C16 6233   5.027   6.658   3.612 -0.7157  0.3874 -0.8091
   69CHL1  H16A 6234   4.987   6.690   3.711  3.0251 -0.3991  1.1642
   69CHL1  H16B 6235   5.016   6.548   3.613 -1.0094  0.4034 -1.8647
   69CHL1   C17 6236   5.188   6.655   3.611  0.6050  0.0560  0.2772
   69CHL1   H17 6237   5.220   6.562   3.559 -1.3224  0.3558 -1.5718
   69CHL1   C13 6238   5.224   6.765   3.509 -0.3459 -0.5342 -0.8256
   69CHL1   C18 6239   5.216   6.908   3.568  0.3347 -0.3134  0.1022
   69CHL1  H18A 6240   5.290   6.913   3.651  0.0229  1.4851  0.3217
   69CHL1  H18B 6241   5.237   6.994   3.501 -2.2299  0.3673  0.0839
   69CHL1  H18C 6242   5.117   6.935   3.610  0.3548  0.1928 -0.1701
   69CHL1   C12 6243   5.363   6.743   3.438  0.5770  0.7827  0.0567
   69CHL1  H12A 6244   5.440   6.766   3.515  1.7564 -0.5766 -0.6562
   69CHL1  H12B 6245   5.369   6.638   3.401  3.1495  1.0890 -0.6130
   69CHL1   C11 6246   5.381   6.844   3.327 -0.7977 -0.1833 -0.2562
   69CHL1  H11A 6247   5.385   6.946   3.372  2.2370  0.0221 -0.7709
   69CHL1  H11B 6248   5.482   6.820   3.288 -1.1343 -0.6186 -0.8643
   69CHL1    C9 6249   5.269   6.831   3.223  0.0644 -0.7295 -0.1695
   69CHL1    H9 6250   5.278   6.728   3.181 -2.3580 -0.9089 -0.4163
   69CHL1   C10 6251   5.296   6.920   3.098 -0.0748 -0.2538  1.1312
   69CHL1   C19 6252   5.316   7.070   3.146 -0.4500  0.1558 -0.0397
   69CHL1  H19A 6253   5.316   7.138   3.058 -1.1180 -1.7244 -1.5624
   69CHL1  H19B 6254   5.227   7.103   3.204 -0.3878 -0.0137  0.1531
   69CHL1  H19C 6255   5.411   7.076   3.204 -0.2353  0.6762 -0.4365
   69CHL1    C1 6256   5.425   6.869   3.025 -0.0907 -0.4196  0.6239
   69CHL1   H1A 6257   5.514   6.898   3.085  0.1668  2.2522 -0.8684
   69CHL1   H1B 6258   5.421   6.758   3.017  0.3676 -0.4779  1.1462
   69CHL1    C2 6259   5.440   6.919   2.880  0.4979 -0.2660 -0.2332
   69CHL1   H2A 6260   5.517   6.871   2.815  0.1480  0.4004 -1.1747
   69CHL1   H2B 6261   5.468   7.027   2.885 -2.5246  0.5824  0.2524
   69CHL1   C20 6262   5.263   6.657   3.747 -0.1177 -0.5291  0.8609
   69CHL1   H20 6263   5.370   6.682   3.730  0.1058 -1.9332  0.0727
   69CHL1   C21 6264   5.256   6.522   3.818 -0.1572 -0.3614 -0.2003
   69CHL1  H21A 6265   5.151   6.516   3.855  0.1773  1.3293  1.1611
   69CHL1  H21B 6266   5.337   6.508   3.893  0.3470  1.3832 -0.3719
   69CHL1  H21C 6267   5.266   6.435   3.751  0.7583 -0.1886 -0.2933
   69CHL1   C22 6268   5.202   6.757   3.846  0.1678 -0.2569  0.5103
   69CHL1  H22A 6269   5.170   6.852   3.798  0.9251 -1.0646 -1.7178
   69CHL1  H22B 6270   5.120   6.713   3.907 -1.6292  4.0424  1.5573
   69CHL1   C23 6271   5.320   6.797   3.940 -0.0580 -0.2998 -0.7205
   69CHL1  H23A 6272   5.356   6.719   4.010 -3.0755 -0.1759  1.1911
   69CHL1  H23B 6273   5.403   6.837   3.879 -0.7743  0.7840 -1.0120
   69CHL1   C24 6274   5.273   6.915   4.024 -0.8281  0.4466 -0.0365
   69CHL1  H24A 6275   5.199   6.981   3.974 -1.0760  1.0375  1.0944
   69CHL1  H24B 6276   5.227   6.869   4.114 -1.4561 -2.3741 -1.6795
   69CHL1   C25 6277   5.393   7.009   4.062  0.0873 -1.0210  0.4633
   69CHL1   H25 6278   5.428   7.046   3.963  0.7754  0.0975  1.0989
   69CHL1   C26 6279   5.335   7.126   4.140  0.3253  0.2487  0.0200
   69CHL1  H26A 6280   5.293   7.098   4.239  2.1732  3.0452  1.7260
   69CHL1  H26B 6281   5.414   7.202   4.157  0.8883  0.0592 -1.6031
   69CHL1  H26C 6282   5.254   7.174   4.081 -1.8264 -2.0423  0.9343
   69CHL1   C27 6283   5.509   6.941   4.138  0.2607  0.0281  0.1637
   69CHL1  H27A 6284   5.552   6.855   4.082 -1.7983 -0.7286 -0.3607
   69CHL1  H27B 6285   5.577   7.024   4.167 -0.4992  0.3195  1.1981
   69CHL1  H27C 6286   5.467   6.906   4.235 -1.2650  2.8882  0.6568
   70CHL1    C3 6287   1.370   0.738   2.478 -0.3552  0.1308 -0.2675
   70CHL1    H3 6288   1.266   0.753   2.512 -0.6234  2.3296 -1.7942
   70CHL1    O3 6289   1.373   0.767   2.338 -0.1051  0.5512  0.4087
   70CHL1   H3' 6290   1.464   0.783   2.312 -0.4243  0.7115 -0.6525
   70CHL1    C4 6291   1.450   0.851   2.550 -0.0629 -0.2390 -0.2088
   70CHL1   H4A 6292   1.553   0.853   2.509  0.0154 -1.3520 -0.1133
   70CHL1   H4B 6293   1.410   0.952   2.531  0.3707 -0.4505 -2.4784
   70CHL1    C5 6294   1.453   0.821   2.700  0.7126  0.2012 -0.0269
   70CHL1    C6 6295   1.393   0.905   2.781  0.6153 -0.2108 -0.3716
   70CHL1    H6 6296   1.352   1.000   2.745  0.3331  0.4512  1.6006
   70CHL1    C7 6297   1.375   0.884   2.926 -0.0166  0.1951 -0.1037
   70CHL1   H7A 6298   1.387   0.980   2.980 -2.5724  1.2085 -1.1522
   70CHL1   H7B 6299   1.275   0.847   2.958  0.8680 -2.1575  0.1587
   70CHL1    C8 6300   1.476   0.788   2.981  0.4500  0.1897  0.5487
   70CHL1    H8 6301   1.578   0.831   2.993  0.1149  0.4621  2.8580
   70CHL1   C14 6302   1.441   0.736   3.124 -0.6848  0.3351 -0.1483
   70CHL1   H14 6303   1.341   0.688   3.111 -0.0536 -0.6665 -1.4300
   70CHL1   C15 6304   1.402   0.833   3.231 -0.0285 -0.6977 -0.6916
   70CHL1  H15A 6305   1.475   0.915   3.249 -1.2317 -0.1465  2.0939
   70CHL1  H15B 6306   1.306   0.887   3.217 -0.0473 -0.2051  1.1113
   70CHL1   C16 6307   1.397   0.749   3.360 -0.1365  0.5337 -0.4410
   70CHL1  H16A 6308   1.462   0.798   3.436  2.0396 -1.6313 -0.7764
   70CHL1  H16B 6309   1.293   0.741   3.398  0.5679  0.8422  1.7023
   70CHL1   C17 6310   1.467   0.609   3.323 -0.0235  0.0092  0.2584
   70CHL1   H17 6311   1.384   0.543   3.291  0.2952  0.3918 -1.4588
   70CHL1   C13 6312   1.537   0.637   3.190 -0.1314  0.1641  0.6461
   70CHL1   C18 6313   1.665   0.710   3.215 -0.2585  0.0726 -0.2886
   70CHL1  H18A 6314   1.747   0.638   3.234 -1.3115 -0.9552  0.5746
   70CHL1  H18B 6315   1.695   0.753   3.118 -1.9071 -0.2644 -0.9914
   70CHL1  H18C 6316   1.657   0.776   3.305 -0.2296 -0.5431  0.1725
   70CHL1   C12 6317   1.542   0.516   3.104 -0.4068  0.8148  0.6570
   70CHL1  H12A 6318   1.616   0.448   3.151 -2.0014 -0.7580  0.9763
   70CHL1  H12B 6319   1.448   0.458   3.113  1.3690 -2.1020  1.8017
   70CHL1   C11 6320   1.579   0.554   2.951  0.3948  1.1673 -0.0179
   70CHL1  H11A 6321   1.687   0.577   2.944  0.7739  0.1937  1.9226
   70CHL1  H11B 6322   1.579   0.459   2.895 -0.5312 -0.4427  2.5415
   70CHL1    C9 6323   1.488   0.660   2.889  0.2676 -0.0090 -0.2673
   70CHL1    H9 6324   1.386   0.614   2.889  1.2574 -2.4412 -1.6785
   70CHL1   C10 6325   1.512   0.690   2.735 -0.2816  0.1257 -0.5828
   70CHL1   C19 6326   1.666   0.687   2.711 -0.6811 -0.2836  0.1186
   70CHL1  H19A 6327   1.705   0.583   2.712  0.9462  0.1972  3.7463
   70CHL1  H19B 6328   1.673   0.716   2.604 -3.5578 -0.8103 -0.3094
   70CHL1  H19C 6329   1.725   0.747   2.783 -0.0859  1.8152 -2.0320
   70CHL1    C1 6330   1.426   0.585   2.657 -0.4632  0.0284 -0.3091
   70CHL1   H1A 6331   1.472   0.486   2.680 -0.0842 -0.2971 -2.3181
   70CHL1   H1B 6332   1.325   0.595   2.701  0.1490 -0.7095  1.3601
   70CHL1    C2 6333   1.419   0.599   2.505  0.4986  0.8386 -0.0199
   70CHL1   H2A 6334   1.342   0.533   2.460  0.1757  2.0494 -1.3123
   70CHL1   H2B 6335   1.511   0.576   2.448 -0.7741 -1.9200 -1.1248
   70CHL1   C20 6336   1.533   0.518   3.439 -0.0345 -0.3148 -0.0855
   70CHL1   H20 6337   1.582   0.424   3.405 -1.6012 -1.1275 -0.1776
   70CHL1   C21 6338   1.407   0.461   3.510  0.2691  0.9597  0.0110
   70CHL1  H21A 6339   1.352   0.394   3.441  0.5712  0.3470  0.3474
   70CHL1  H21B 6340   1.344   0.545   3.545  0.9890  1.1935  0.7781
   70CHL1  H21C 6341   1.435   0.399   3.598 -1.8011  0.3496  0.3030
   70CHL1   C22 6342   1.635   0.594   3.529 -0.1081 -0.0366  0.2930
   70CHL1  H22A 6343   1.712   0.618   3.453 -2.2390 -0.0210 -1.9771
   70CHL1  H22B 6344   1.587   0.686   3.568 -0.9098 -1.0647  1.8506
   70CHL1   C23 6345   1.680   0.523   3.650 -0.4530 -0.1151  0.0270
   70CHL1  H23A 6346   1.609   0.513   3.735  2.1495  1.3614  2.5822
   70CHL1  H23B 6347   1.698   0.416   3.625 -0.9524 -0.6596  1.8550
   70CHL1   C24 6348   1.808   0.580   3.691 -0.1263 -0.5023 -0.7509
   70CHL1  H24A 6349   1.881   0.581   3.607  0.4955  2.1532 -0.2544
   70CHL1  H24B 6350   1.786   0.685   3.717  2.5781  0.2962 -1.4293
   70CHL1   C25 6351   1.883   0.495   3.797  0.7610  0.8073 -0.0965
   70CHL1   H25 6352   1.903   0.391   3.762 -0.1067 -0.4868  2.9280
   70CHL1   C26 6353   2.019   0.557   3.826  0.0464  0.0966 -0.3592
   70CHL1  H26A 6354   2.087   0.584   3.742  2.5375 -0.9480  1.1874
   70CHL1  H26B 6355   2.008   0.661   3.864 -0.0153  0.6424 -1.8200
   70CHL1  H26C 6356   2.074   0.488   3.894 -1.4756 -2.2554 -1.4017
   70CHL1   C27 6357   1.808   0.482   3.931  0.6429  0.1218  0.1927
   70CHL1  H27A 6358   1.706   0.437   3.926 -0.3532  2.2904  0.0015
   70CHL1  H27B 6359   1.871   0.422   4.000 -1.7324 -1.9224  0.7288
   70CHL1  H27C 6360   1.800   0.584   3.975  1.8369  1.0795 -1.6751
   71CHL1    C3 6361   6.611   1.609   2.455  0.3798 -0.7345 -0.1279
   71CHL1    H3 6362   6.582   1.505   2.482  0.1804 -1.1089 -1.6788
   71CHL1    O3 6363   6.566   1.628   2.319  0.1825  0.0593  0.0161
   71CHL1   H3' 6364   6.498   1.561   2.306  0.0526 -0.0738  1.2369
   71CHL1    C4 6365   6.533   1.703   2.557  0.5417 -0.4937  0.1361
   71CHL1   H4A 6366   6.543   1.805   2.515 -1.2159 -0.1065  0.5652
   71CHL1   H4B 6367   6.423   1.685   2.557  0.5883 -0.9288 -1.7044
   71CHL1    C5 6368   6.582   1.703   2.696 -0.1670 -0.7664  0.7609
   71CHL1    C6 6369   6.500   1.689   2.800  0.0666 -0.2048 -0.0833
   71CHL1    H6 6370   6.391   1.681   2.788  0.1923  0.9266 -2.9802
   71CHL1    C7 6371   6.545   1.706   2.943 -0.3015 -0.1018 -0.2081
   71CHL1   H7A 6372   6.469   1.759   3.004  1.7782  1.4831  1.1470
   71CHL1   H7B 6373   6.548   1.610   2.999 -0.2157 -0.2722 -0.5016
   71CHL1    C8 6374   6.684   1.772   2.955 -0.4088 -0.2269  0.6410
   71CHL1    H8 6375   6.674   1.879   2.925 -0.1041 -0.8127 -1.7064
   71CHL1   C14 6376   6.733   1.761   3.097  0.0359 -0.0251  0.1487
   71CHL1   H14 6377   6.735   1.657   3.137 -2.0887 -0.0312  0.3466
   71CHL1   C15 6378   6.649   1.842   3.206  0.4446 -0.2665  0.0372
   71CHL1  H15A 6379   6.613   1.938   3.164  2.3603  0.1099 -0.8869
   71CHL1  H15B 6380   6.565   1.774   3.231 -0.5581  0.7831 -0.4053
   71CHL1   C16 6381   6.748   1.871   3.315 -0.1948 -0.0807 -0.3490
   71CHL1  H16A 6382   6.757   1.981   3.332  1.4611 -0.1208 -0.7746
   71CHL1  H16B 6383   6.714   1.812   3.403 -1.1937  0.7453 -0.1620
   71CHL1   C17 6384   6.888   1.812   3.268  0.2844  0.4426 -0.4863
   71CHL1   H17 6385   6.891   1.706   3.302 -2.6118 -0.7620 -3.3994
   71CHL1   C13 6386   6.887   1.808   3.114  0.0558 -0.0066  0.1977
   71CHL1   C18 6387   6.900   1.950   3.055 -0.0021 -0.1679  0.0161
   71CHL1  H18A 6388   6.857   2.021   3.128  0.9798  0.8051 -0.3339
   71CHL1  H18B 6389   7.005   1.986   3.044 -0.8871  2.6210  0.1865
   71CHL1  H18C 6390   6.866   1.956   2.950  1.2335  0.6101 -0.3629
   71CHL1   C12 6391   6.975   1.699   3.046  0.4403 -0.1044  0.3810
   71CHL1  H12A 6392   7.082   1.726   3.047  0.3300  0.3812 -0.3746
   71CHL1  H12B 6393   6.962   1.601   3.098  1.2342  0.2101  1.1805
   71CHL1   C11 6394   6.936   1.702   2.895 -0.1321 -0.2296 -0.3257
   71CHL1  H11A 6395   6.978   1.798   2.859  1.6547 -2.1782 -3.9940
   71CHL1  H11B 6396   6.998   1.629   2.839  1.7120  1.2263 -0.2490
   71CHL1    C9 6397   6.782   1.696   2.858  0.0894  0.0190  1.0975
   71CHL1    H9 6398   6.763   1.589   2.882 -1.7150 -0.0729 -0.5381
   71CHL1   C10 6399   6.733   1.718   2.709  0.4393 -0.4304 -0.6778
   71CHL1   C19 6400   6.772   1.862   2.667 -1.2032  0.4393  0.4711
   71CHL1  H19A 6401   6.881   1.883   2.665 -1.4808  2.8187  3.3582
   71CHL1  H19B 6402   6.719   1.877   2.570 -1.0522 -0.3538  0.2604
   71CHL1  H19C 6403   6.731   1.936   2.739  1.7979  0.6478  2.1545
   71CHL1    C1 6404   6.799   1.612   2.617  0.5481 -0.7594 -0.5070
   71CHL1   H1A 6405   6.909   1.626   2.625  0.3801 -0.2383  1.5408
   71CHL1   H1B 6406   6.774   1.507   2.644 -0.5715 -0.1152  1.1224
   71CHL1    C2 6407   6.765   1.624   2.471 -0.2092  0.6391  0.2277
   71CHL1   H2A 6408   6.814   1.547   2.408  0.3767  1.1509  0.0502
   71CHL1   H2B 6409   6.801   1.710   2.411  2.1526 -1.0708 -0.9718
   71CHL1   C20 6410   7.010   1.880   3.342  0.3482  0.1576  0.9623
   71CHL1   H20 6411   7.014   1.988   3.318 -0.0898 -0.2333 -1.0275
   71CHL1   C21 6412   7.149   1.822   3.296 -0.5872 -0.1589  0.6032
   71CHL1  H21A 6413   7.144   1.713   3.319 -2.0256  0.0349  1.3393
   71CHL1  H21B 6414   7.237   1.857   3.354  1.5701 -1.1928 -1.8434
   71CHL1  H21C 6415   7.169   1.869   3.197  0.7655  1.5811  1.6411
   71CHL1   C22 6416   7.003   1.837   3.488  0.2103  0.1241 -1.2559
   71CHL1  H22A 6417   6.903   1.866   3.527  1.2418  2.4093 -0.1426
   71CHL1  H22B 6418   7.012   1.727   3.494 -0.4789  0.1523  1.8667
   71CHL1   C23 6419   7.104   1.901   3.579 -0.4982  0.1255 -0.4492
   71CHL1  H23A 6420   7.186   1.826   3.584 -0.9819 -0.3386  1.5504
   71CHL1  H23B 6421   7.151   1.989   3.530  0.8432 -0.6206 -0.5511
   71CHL1   C24 6422   7.067   1.923   3.725  0.8046  0.3840 -0.1084
   71CHL1  H24A 6423   6.977   1.988   3.734  0.3560 -0.4409  1.7056
   71CHL1  H24B 6424   7.051   1.820   3.763  3.8753 -0.9567 -2.0079
   71CHL1   C25 6425   7.171   2.008   3.810 -0.0025  0.4660  0.7206
   71CHL1   H25 6426   7.213   2.086   3.743  3.1241 -1.9014 -0.2884
   71CHL1   C26 6427   7.112   2.073   3.940  0.8297 -0.4765  0.0485
   71CHL1  H26A 6428   7.189   2.129   3.997 -0.7612  1.7470  0.1474
   71CHL1  H26B 6429   7.033   2.148   3.921  0.5039 -0.5808  0.9476
   71CHL1  H26C 6430   7.075   1.993   4.008 -0.7168  1.3508  1.4364
   71CHL1   C27 6431   7.287   1.911   3.853  0.4117 -0.0176 -0.2515
   71CHL1  H27A 6432   7.255   1.831   3.924  1.2392 -0.8205 -0.7504
   71CHL1  H27B 6433   7.349   1.859   3.777 -0.5401 -1.0236 -0.3716
   71CHL1  H27C 6434   7.366   1.973   3.902  0.9485  1.6326 -3.0202
   72CHL1    C3 6435   5.807   6.580   2.676  0.3815 -0.3892  0.0165
   72CHL1    H3 6436   5.910   6.600   2.713  0.1307 -0.1240  0.5685
   72CHL1    O3 6437   5.797   6.612   2.536  0.4407 -0.0855 -0.8057
   72CHL1   H3' 6438   5.705   6.601   2.513 -0.2739  0.8745  1.2946
   72CHL1    C4 6439   5.760   6.431   2.695 -0.3326 -0.2985  0.1965
   72CHL1   H4A 6440   5.653   6.433   2.664 -1.3289 -2.0345  3.1790
   72CHL1   H4B 6441   5.813   6.369   2.620  0.2020  0.2764  0.0877
   72CHL1    C5 6442   5.770   6.384   2.840 -0.0027  0.1176 -0.0548
   72CHL1    C6 6443   5.847   6.279   2.872 -0.2765 -0.7009 -0.5986
   72CHL1    H6 6444   5.905   6.220   2.800 -0.2607 -1.8076  0.2911
   72CHL1    C7 6445   5.864   6.233   3.014 -0.0710  0.0943 -0.6849
   72CHL1   H7A 6446   5.866   6.122   3.020  2.8226  0.1216  0.8412
   72CHL1   H7B 6447   5.967   6.252   3.050 -0.2985 -0.3710  0.2700
   72CHL1    C8 6448   5.756   6.282   3.114 -0.0292 -0.4137 -0.1241
   72CHL1    H8 6449   5.659   6.237   3.084  0.2960 -0.7640 -0.6606
   72CHL1   C14 6450   5.793   6.262   3.261 -0.3064  0.0284  0.1157
   72CHL1   H14 6451   5.880   6.331   3.268  0.8541 -1.3462 -0.2511
   72CHL1   C15 6452   5.844   6.127   3.305 -0.3595 -0.3165  0.2533
   72CHL1  H15A 6453   5.777   6.045   3.271 -0.7750  0.7914 -1.7168
   72CHL1  H15B 6454   5.947   6.102   3.270  0.0361  0.3645  0.8894
   72CHL1   C16 6455   5.831   6.130   3.461 -0.5779 -0.4189 -0.0292
   72CHL1  H16A 6456   5.763   6.045   3.484 -1.4909 -0.6833 -3.1682
   72CHL1  H16B 6457   5.934   6.124   3.504 -0.4699 -1.9568 -0.4359
   72CHL1   C17 6458   5.771   6.266   3.494 -0.1502  0.1267 -0.3304
   72CHL1   H17 6459   5.866   6.324   3.494  0.3141 -0.6164  0.0401
   72CHL1   C13 6460   5.695   6.315   3.369 -0.2751 -0.2526  0.3489
   72CHL1   C18 6461   5.558   6.247   3.362  0.2526 -0.8360 -0.0995
   72CHL1  H18A 6462   5.496   6.289   3.445  0.0345 -2.3048  0.5096
   72CHL1  H18B 6463   5.514   6.262   3.261 -0.0950  0.8892  0.2762
   72CHL1  H18C 6464   5.565   6.137   3.375  2.1087 -0.5808  1.5891
   72CHL1   C12 6465   5.685   6.469   3.339 -0.1018  0.4969 -0.1826
   72CHL1  H12A 6466   5.654   6.533   3.425 -0.6020 -0.1121  0.0962
   72CHL1  H12B 6467   5.793   6.496   3.335  0.1749 -0.7826 -2.5723
   72CHL1   C11 6468   5.655   6.504   3.190 -0.5915 -0.6309  0.2121
   72CHL1  H11A 6469   5.549   6.475   3.180 -0.7772 -0.6841  1.9830
   72CHL1  H11B 6470   5.658   6.614   3.173  1.7356 -0.9707 -2.2280
   72CHL1    C9 6471   5.738   6.437   3.083 -0.8118  0.2475 -0.7910
   72CHL1    H9 6472   5.838   6.482   3.099 -0.2345 -1.2361 -0.0586
   72CHL1   C10 6473   5.689   6.469   2.942  0.4347 -0.0004  0.7975
   72CHL1   C19 6474   5.537   6.433   2.915  0.1176 -0.1553  0.1650
   72CHL1  H19A 6475   5.495   6.468   2.818  1.7616  0.3150 -0.4016
   72CHL1  H19B 6476   5.531   6.323   2.930 -2.7654 -0.1448 -0.3118
   72CHL1  H19C 6477   5.480   6.491   2.990  1.2592  2.1675 -0.6732
   72CHL1    C1 6478   5.709   6.619   2.904  0.1411  0.2904 -0.6007
   72CHL1   H1A 6479   5.626   6.663   2.963 -1.1570 -1.1442 -1.3093
   72CHL1   H1B 6480   5.808   6.655   2.939 -0.0226  1.7451 -1.5111
   72CHL1    C2 6481   5.701   6.665   2.757 -0.6442  0.0632  0.0023
   72CHL1   H2A 6482   5.727   6.772   2.743 -1.1733  0.1159 -0.5910
   72CHL1   H2B 6483   5.594   6.650   2.729 -1.1657  0.3966  1.6794
   72CHL1   C20 6484   5.709   6.277   3.638 -0.1842 -0.1993  0.4076
   72CHL1   H20 6485   5.617   6.215   3.645 -0.6740  0.2771 -1.3947
   72CHL1   C21 6486   5.660   6.415   3.664 -0.2665 -0.6854 -0.1624
   72CHL1  H21A 6487   5.739   6.492   3.671  0.7573 -1.6301 -0.9800
   72CHL1  H21B 6488   5.618   6.413   3.767  1.4367 -3.8980  0.5982
   72CHL1  H21C 6489   5.580   6.447   3.594  1.3204  0.6952 -1.4179
   72CHL1   C22 6490   5.794   6.222   3.755 -0.2782 -0.5160  0.0809
   72CHL1  H22A 6491   5.814   6.118   3.722  1.8303 -0.3062  0.5292
   72CHL1  H22B 6492   5.885   6.285   3.762  1.1175 -2.3796 -0.5334
   72CHL1   C23 6493   5.727   6.212   3.894 -0.0349 -0.7502 -0.2908
   72CHL1  H23A 6494   5.698   6.314   3.927 -0.5969 -0.7998 -0.6114
   72CHL1  H23B 6495   5.631   6.158   3.882  0.6150 -1.9037 -0.4193
   72CHL1   C24 6496   5.807   6.149   3.998 -0.2747 -0.3165  0.2344
   72CHL1  H24A 6497   5.837   6.045   3.971  1.9483  0.1074  0.8078
   72CHL1  H24B 6498   5.899   6.211   4.006  0.5950 -1.4660 -0.4946
   72CHL1   C25 6499   5.744   6.151   4.138 -0.8530 -0.2147 -0.1145
   72CHL1   H25 6500   5.640   6.112   4.146 -0.5183 -0.6921  2.9167
   72CHL1   C26 6501   5.843   6.088   4.240  0.6423  0.0038  0.1270
   72CHL1  H26A 6502   5.883   5.987   4.212  0.6985 -0.8479  3.0158
   72CHL1  H26B 6503   5.933   6.152   4.241  1.0548 -0.5160  2.8855
   72CHL1  H26C 6504   5.793   6.079   4.339  0.3416 -0.5202 -0.0661
   72CHL1   C27 6505   5.717   6.295   4.194 -0.1458  0.1378 -0.2909
   72CHL1  H27A 6506   5.689   6.289   4.302 -1.2973 -0.6981 -0.6082
   72CHL1  H27B 6507   5.797   6.362   4.158 -0.0831  0.1863 -0.0614
   72CHL1  H27C 6508   5.624   6.329   4.143  0.0982 -1.3039 -1.7872
   73CHL1    C3 6509   7.005   0.644   2.392  0.8400  0.0959  0.2747
   73CHL1    H3 6510   7.061   0.549   2.399 -0.4205 -1.0245 -3.0383
   73CHL1    O3 6511   6.986   0.669   2.253 -0.1797  0.2688 -0.1959
   73CHL1   H3' 6512   7.075   0.686   2.219  0.5849  0.1833  1.6414
   73CHL1    C4 6513   6.868   0.649   2.471  0.4582  0.3902  0.3143
   73CHL1   H4A 6514   6.818   0.744   2.443 -1.5757 -1.1304 -1.5994
   73CHL1   H4B 6515   6.824   0.558   2.426  2.8417  0.2864 -2.0346
   73CHL1    C5 6516   6.887   0.629   2.623  1.0781 -0.1424  0.5966
   73CHL1    C6 6517   6.837   0.527   2.688  0.9068 -0.0228 -0.4881
   73CHL1    H6 6518   6.767   0.455   2.644 -0.0416  0.4376  0.2124
   73CHL1    C7 6519   6.865   0.500   2.832 -0.8800  0.6819  0.1897
   73CHL1   H7A 6520   6.782   0.451   2.888  0.1919 -2.1395 -0.5463
   73CHL1   H7B 6521   6.943   0.421   2.843 -0.1510  1.3565 -0.0640
   73CHL1    C8 6522   6.908   0.621   2.902 -0.0186 -0.5683  0.0795
   73CHL1    H8 6523   6.820   0.689   2.902  0.8680  0.6077  0.0068
   73CHL1   C14 6524   6.948   0.596   3.048 -0.5152  0.2924  0.3667
   73CHL1   H14 6525   7.032   0.525   3.029 -0.1863  1.5343 -3.7236
   73CHL1   C15 6526   6.852   0.516   3.139  0.3734 -0.5080  0.3380
   73CHL1  H15A 6527   6.750   0.559   3.135  0.1470 -0.8211  2.0084
   73CHL1  H15B 6528   6.849   0.406   3.121 -0.9245 -0.4804  0.2891
   73CHL1   C16 6529   6.917   0.535   3.277 -0.1273  0.1008 -0.1721
   73CHL1  H16A 6530   6.842   0.574   3.349  1.0121  1.0843  0.5212
   73CHL1  H16B 6531   6.973   0.449   3.319  0.3954  0.0622 -0.9192
   73CHL1   C17 6532   7.021   0.656   3.262  0.3359 -0.1047  1.1768
   73CHL1   H17 6533   7.118   0.604   3.245 -0.4507 -1.1595 -0.3598
   73CHL1   C13 6534   6.994   0.716   3.130  0.2141  0.0700  0.0430
   73CHL1   C18 6535   6.870   0.808   3.149 -0.3777  0.1078  0.0571
   73CHL1  H18A 6536   6.795   0.756   3.213 -2.6133  2.6698 -0.2757
   73CHL1  H18B 6537   6.898   0.906   3.194 -0.4676  0.0347  0.2769
   73CHL1  H18C 6538   6.813   0.824   3.055 -1.6091  0.5454  0.8542
   73CHL1   C12 6539   7.114   0.778   3.056  0.6717  0.0919 -0.4389
   73CHL1  H12A 6540   7.140   0.877   3.100 -1.6135 -0.5173  2.6426
   73CHL1  H12B 6541   7.208   0.720   3.057  1.1528  0.8531  0.2315
   73CHL1   C11 6542   7.073   0.813   2.909  0.4612  0.0780 -0.1680
   73CHL1  H11A 6543   7.001   0.898   2.910 -0.1796 -0.4592  0.8780
   73CHL1  H11B 6544   7.166   0.858   2.870  1.3269 -1.5674 -0.1068
   73CHL1    C9 6545   7.022   0.691   2.825 -0.5074  0.2721 -0.2825
   73CHL1    H9 6546   7.102   0.614   2.829 -1.7619 -1.2206 -2.3168
   73CHL1   C10 6547   6.992   0.725   2.683  0.1728 -0.4548 -0.4286
   73CHL1   C19 6548   6.925   0.867   2.677 -0.4776  0.5795 -0.0943
   73CHL1  H19A 6549   6.843   0.883   2.750  0.8070  0.7490  1.3641
   73CHL1  H19B 6550   7.007   0.941   2.691 -1.8448  2.0507  0.4190
   73CHL1  H19C 6551   6.878   0.885   2.577 -1.5793 -0.9720  0.1121
   73CHL1    C1 6552   7.116   0.725   2.595 -0.0062  0.1045  0.0667
   73CHL1   H1A 6553   7.186   0.804   2.630  0.7249 -0.6047  0.2363
   73CHL1   H1B 6554   7.164   0.626   2.606  1.5140  0.8531  0.4437
   73CHL1    C2 6555   7.093   0.751   2.445 -0.5831 -0.2179 -0.0719
   73CHL1   H2A 6556   7.191   0.754   2.391 -0.9619  1.6871 -0.7116
   73CHL1   H2B 6557   7.047   0.850   2.428 -1.6048 -0.7577 -0.4937
   73CHL1   C20 6558   7.045   0.745   3.381  0.0455  0.0603 -0.1041
   73CHL1   H20 6559   6.964   0.812   3.416  1.2258  0.1960  2.6053
   73CHL1   C21 6560   7.171   0.833   3.367  0.0059 -0.3299  0.2666
   73CHL1  H21A 6561   7.157   0.917   3.296  2.5580 -0.6971 -0.7984
   73CHL1  H21B 6562   7.260   0.780   3.325 -0.2200 -0.1178 -0.5049
   73CHL1  H21C 6563   7.202   0.884   3.461 -0.7735  1.3224 -0.3277
   73CHL1   C22 6564   7.064   0.660   3.514 -0.3004 -0.4645  0.0204
   73CHL1  H22A 6565   7.126   0.571   3.490 -0.7059 -0.2903 -1.8431
   73CHL1  H22B 6566   7.122   0.724   3.584  1.0029 -1.8673  0.2571
   73CHL1   C23 6567   6.939   0.622   3.586  0.2206  0.0910  0.1220
   73CHL1  H23A 6568   6.865   0.704   3.580 -0.2876 -0.3586  0.1547
   73CHL1  H23B 6569   6.883   0.533   3.550 -2.2565  1.9429 -0.9136
   73CHL1   C24 6570   6.961   0.600   3.744 -0.8969 -0.3618  0.9886
   73CHL1  H24A 6571   7.029   0.513   3.752 -0.2320  0.0709  0.2553
   73CHL1  H24B 6572   7.008   0.685   3.798 -0.3412 -1.9405  3.0918
   73CHL1   C25 6573   6.837   0.580   3.822 -0.3653 -0.4596 -0.6560
   73CHL1   H25 6574   6.758   0.654   3.798 -1.9254 -1.4228  1.2481
   73CHL1   C26 6575   6.782   0.437   3.797  0.8448  0.0813 -0.3229
   73CHL1  H26A 6576   6.869   0.371   3.818  1.8600  1.1272 -1.1322
   73CHL1  H26B 6577   6.697   0.406   3.861  0.5970  2.4204  0.5748
   73CHL1  H26C 6578   6.757   0.419   3.690  0.7245  0.5846 -0.3792
   73CHL1   C27 6579   6.867   0.594   3.978 -0.5494 -0.0118  0.5074
   73CHL1  H27A 6580   6.771   0.591   4.034 -0.8668 -1.7485 -0.0618
   73CHL1  H27B 6581   6.920   0.501   4.007 -4.4094 -2.3661  0.6771
   73CHL1  H27C 6582   6.923   0.686   4.006 -3.2322  2.0483 -0.4318
   74CHL1    C3 6583   1.283   7.028   2.236 -0.0391 -0.5518  0.0211
   74CHL1    H3 6584   1.330   6.928   2.234 -1.7239 -1.3869  0.4369
   74CHL1    O3 6585   1.252   7.062   2.099  0.0323 -0.3736 -0.3515
   74CHL1   H3' 6586   1.245   7.157   2.086  0.2657 -0.5134 -1.5367
   74CHL1    C4 6587   1.153   7.012   2.314 -0.1742  0.5734  0.4214
   74CHL1   H4A 6588   1.096   7.107   2.308  2.6022  2.3590  0.4619
   74CHL1   H4B 6589   1.098   6.933   2.258 -0.7209  2.0508 -1.2282
   74CHL1    C5 6590   1.195   6.989   2.460  0.8739  0.3674  0.2558
   74CHL1    C6 6591   1.148   6.877   2.523 -0.2665  0.3482 -0.1150
   74CHL1    H6 6592   1.091   6.806   2.460 -0.4535 -0.0547  0.4978
   74CHL1    C7 6593   1.166   6.849   2.665 -0.3459 -0.4690 -0.5169
   74CHL1   H7A 6594   1.060   6.838   2.695 -0.9861  1.4220 -1.8635
   74CHL1   H7B 6595   1.215   6.750   2.677  0.7328 -0.1120 -1.7203
   74CHL1    C8 6596   1.222   6.973   2.739 -0.2104  0.6010  0.8506
   74CHL1    H8 6597   1.143   7.049   2.761  0.6280  1.2140  1.8609
   74CHL1   C14 6598   1.267   6.929   2.880  0.0247  0.1715  0.3042
   74CHL1   H14 6599   1.341   6.848   2.864  0.5596  0.6277  0.4615
   74CHL1   C15 6600   1.159   6.859   2.962 -0.2381 -0.4928 -0.4031
   74CHL1  H15A 6601   1.070   6.926   2.970  0.8567  1.1011 -1.0829
   74CHL1  H15B 6602   1.124   6.758   2.935  0.3481 -0.2885 -2.0137
   74CHL1   C16 6603   1.231   6.857   3.096 -0.4010 -0.2452  0.1163
   74CHL1  H16A 6604   1.156   6.894   3.170 -0.3660  0.9432 -0.4136
   74CHL1  H16B 6605   1.264   6.757   3.132 -1.8110 -0.7336  0.1068
   74CHL1   C17 6606   1.348   6.964   3.097  0.8558 -0.2437  0.0557
   74CHL1   H17 6607   1.436   6.896   3.097  0.2583 -1.0335  0.5062
   74CHL1   C13 6608   1.326   7.036   2.967 -0.2100 -0.3373  0.3831
   74CHL1   C18 6609   1.220   7.150   2.998 -0.3383  0.2676  0.0805
   74CHL1  H18A 6610   1.266   7.219   3.072  0.0230 -1.2479  1.3125
   74CHL1  H18B 6611   1.203   7.209   2.905  3.5173  1.5562  0.0033
   74CHL1  H18C 6612   1.123   7.117   3.041 -0.8761 -1.0621 -2.0360
   74CHL1   C12 6613   1.448   7.096   2.890 -0.0316 -0.0835 -0.1845
   74CHL1  H12A 6614   1.480   7.190   2.939 -2.1148 -0.2067  1.5581
   74CHL1  H12B 6615   1.522   7.013   2.887 -1.3847 -1.4341  1.7047
   74CHL1   C11 6616   1.417   7.149   2.749  0.2132 -0.3935  0.6129
   74CHL1  H11A 6617   1.351   7.235   2.774  0.9636  0.0574  1.0896
   74CHL1  H11B 6618   1.508   7.190   2.700  1.0160 -1.5069  1.1316
   74CHL1    C9 6619   1.331   7.047   2.663  0.1366 -0.4841 -0.0822
   74CHL1    H9 6620   1.403   6.963   2.655  0.4348 -0.6125  3.0506
   74CHL1   C10 6621   1.294   7.093   2.519  1.1269  0.1377  0.1677
   74CHL1   C19 6622   1.220   7.227   2.540  0.3103 -0.6188  0.6469
   74CHL1  H19A 6623   1.131   7.206   2.603 -0.7013 -0.4003 -0.6759
   74CHL1  H19B 6624   1.281   7.305   2.591  0.6617 -0.6402  0.2620
   74CHL1  H19C 6625   1.183   7.273   2.446 -0.0288 -0.0745  1.0469
   74CHL1    C1 6626   1.420   7.110   2.435 -0.1802  0.6105 -0.0286
   74CHL1   H1A 6627   1.484   7.187   2.483  0.0437 -0.2301  1.0963
   74CHL1   H1B 6628   1.474   7.013   2.445 -0.9109  0.2674  0.7345
   74CHL1    C2 6629   1.391   7.133   2.286  0.0753 -0.5500 -0.2214
   74CHL1   H2A 6630   1.487   7.133   2.229 -0.2055 -0.3115 -0.7069
   74CHL1   H2B 6631   1.342   7.231   2.266 -1.0372 -0.4834  2.4130
   74CHL1   C20 6632   1.371   7.048   3.227  0.1473  0.4795 -0.5798
   74CHL1   H20 6633   1.294   7.126   3.243 -2.9149 -2.2563 -0.9418
   74CHL1   C21 6634   1.507   7.122   3.224  0.7962  0.1657 -0.0299
   74CHL1  H21A 6635   1.528   7.157   3.121  0.7707  0.5618  0.0998
   74CHL1  H21B 6636   1.589   7.052   3.251 -0.5916 -1.3051  0.5741
   74CHL1  H21C 6637   1.505   7.202   3.300 -0.8404  1.8847 -1.7612
   74CHL1   C22 6638   1.368   6.957   3.358  0.0500 -0.3598 -0.5420
   74CHL1  H22A 6639   1.279   6.891   3.365  0.5152 -0.9486 -0.1482
   74CHL1  H22B 6640   1.458   6.893   3.357  0.1203 -0.3606  1.5267
   74CHL1   C23 6641   1.377   7.038   3.490  0.0785  0.0754  0.3193
   74CHL1  H23A 6642   1.455   7.113   3.463 -0.5697  0.7069  0.1681
   74CHL1  H23B 6643   1.278   7.088   3.500  0.6264  1.6011 -1.2261
   74CHL1   C24 6644   1.426   6.946   3.605 -0.3969 -0.2990  0.0200
   74CHL1  H24A 6645   1.345   6.875   3.633  0.4289 -1.0903  0.4911
   74CHL1  H24B 6646   1.509   6.880   3.572 -0.2068 -0.0214 -0.0576
   74CHL1   C25 6647   1.477   7.019   3.736 -0.2865 -0.3024  0.2619
   74CHL1   H25 6648   1.400   7.059   3.807  1.3732  1.1113  1.3353
   74CHL1   C26 6649   1.542   6.913   3.826 -0.7935 -0.2076  0.3900
   74CHL1  H26A 6650   1.626   6.864   3.773  0.2125  0.5732  1.2205
   74CHL1  H26B 6651   1.584   6.969   3.912  0.1748 -0.5758  0.1704
   74CHL1  H26C 6652   1.466   6.835   3.850 -0.3672 -2.8659 -5.3098
   74CHL1   C27 6653   1.575   7.136   3.700  0.1160 -0.5202  0.0100
   74CHL1  H27A 6654   1.511   7.218   3.662 -0.6633  0.2428  2.7158
   74CHL1  H27B 6655   1.625   7.181   3.788 -2.1464  0.5829  0.8133
   74CHL1  H27C 6656   1.652   7.103   3.627  0.1411 -0.7651  0.1453
   75CHL1    C3 6657   0.792   0.283   2.206  0.5586 -0.1998 -0.1359
   75CHL1    H3 6658   0.831   0.184   2.172 -0.0609 -0.8359  0.9297
   75CHL1    O3 6659   0.768   0.361   2.091  0.1744 -0.0226  0.2189
   75CHL1   H3' 6660   0.703   0.315   2.036  3.3721 -2.4818 -1.8546
   75CHL1    C4 6661   0.656   0.267   2.275  0.1993  0.3175 -0.5894
   75CHL1   H4A 6662   0.614   0.370   2.279 -1.2555 -0.2779  1.4408
   75CHL1   H4B 6663   0.577   0.215   2.218  0.8804  1.4474 -2.6625
   75CHL1    C5 6664   0.660   0.218   2.417  0.2500  0.3991 -0.1746
   75CHL1    C6 6665   0.592   0.109   2.458 -0.5129  0.1289 -0.3487
   75CHL1    H6 6666   0.524   0.057   2.389 -3.6223  2.5712  0.6776
   75CHL1    C7 6667   0.592   0.056   2.601 -0.4944 -0.1602 -0.1953
   75CHL1   H7A 6668   0.487   0.030   2.627 -0.3290  1.9516  3.1690
   75CHL1   H7B 6669   0.650  -0.037   2.618  0.1348  0.5423  1.7337
   75CHL1    C8 6670   0.655   0.156   2.700  0.2719  0.6506 -0.0798
   75CHL1    H8 6671   0.580   0.237   2.716 -0.1857  0.0649  0.8633
   75CHL1   C14 6672   0.676   0.079   2.831  0.5039  0.8865  1.0884
   75CHL1   H14 6673   0.743  -0.005   2.804 -3.2630 -1.4881 -2.0730
   75CHL1   C15 6674   0.554   0.007   2.892 -0.5643  0.0073 -0.7564
   75CHL1  H15A 6675   0.466   0.074   2.880  0.1783  0.9502 -1.1280
   75CHL1  H15B 6676   0.533  -0.088   2.840  0.1583 -0.3199 -0.4580
   75CHL1   C16 6677   0.599  -0.018   3.040  0.7027  0.3416  0.3047
   75CHL1  H16A 6678   0.524   0.034   3.105 -0.0468 -0.3154 -0.0135
   75CHL1  H16B 6679   0.608  -0.127   3.058 -1.4424  0.2702  1.2773
   75CHL1   C17 6680   0.750   0.032   3.041  0.2457  0.0738 -0.7963
   75CHL1   H17 6681   0.805  -0.058   3.007  1.4342 -0.8595  3.0757
   75CHL1   C13 6682   0.746   0.151   2.940 -0.6803  0.0240  0.3739
   75CHL1   C18 6683   0.663   0.267   3.001 -0.1808 -0.2660  0.7070
   75CHL1  H18A 6684   0.631   0.333   2.918 -1.1216 -0.5272  0.8540
   75CHL1  H18B 6685   0.566   0.251   3.054 -1.3162  1.6927 -0.6405
   75CHL1  H18C 6686   0.731   0.330   3.063 -2.1222  0.9871  1.6725
   75CHL1   C12 6687   0.880   0.192   2.881 -0.0158 -0.3153  0.1710
   75CHL1  H12A 6688   0.935   0.238   2.966 -1.0383 -2.0452  1.8541
   75CHL1  H12B 6689   0.948   0.112   2.845  1.0136  0.9730 -0.8826
   75CHL1   C11 6690   0.857   0.292   2.765 -0.1555 -0.0997 -0.7181
   75CHL1  H11A 6691   0.795   0.379   2.794 -0.2020 -0.6581  0.9788
   75CHL1  H11B 6692   0.954   0.332   2.731 -0.1222 -0.9683 -1.6966
   75CHL1    C9 6693   0.782   0.225   2.644 -0.2827 -0.6993 -0.5022
   75CHL1    H9 6694   0.851   0.144   2.613 -0.3786 -0.9273 -0.1304
   75CHL1   C10 6695   0.753   0.296   2.505  0.1552  0.5996 -0.8165
   75CHL1   C19 6696   0.697   0.438   2.536 -0.6050  0.3031 -0.5837
   75CHL1  H19A 6697   0.597   0.437   2.584 -0.3764  0.5424 -0.0945
   75CHL1  H19B 6698   0.767   0.503   2.594 -0.5609 -1.2189  1.1428
   75CHL1  H19C 6699   0.679   0.495   2.442  0.9652  0.2774 -0.9400
   75CHL1    C1 6700   0.892   0.304   2.434 -1.2288  0.0732 -0.2215
   75CHL1   H1A 6701   0.959   0.368   2.495 -0.9779  0.1406 -0.5693
   75CHL1   H1B 6702   0.940   0.204   2.439 -0.0224  0.6792  0.7606
   75CHL1    C2 6703   0.887   0.362   2.294 -0.4936  0.1267 -0.0325
   75CHL1   H2A 6704   0.984   0.376   2.242  0.3616 -1.1315  1.1477
   75CHL1   H2B 6705   0.847   0.464   2.311 -0.2010 -0.2321  3.8698
   75CHL1   C20 6706   0.808   0.054   3.184  0.2055 -0.4362 -0.5930
   75CHL1   H20 6707   0.901   0.113   3.168 -0.2856  0.4150 -0.3939
   75CHL1   C21 6708   0.865  -0.079   3.238 -0.3431  0.2938  0.1073
   75CHL1  H21A 6709   0.786  -0.146   3.277  1.3122 -2.7898 -1.4611
   75CHL1  H21B 6710   0.937  -0.065   3.322 -0.5054  0.3901  0.2306
   75CHL1  H21C 6711   0.920  -0.133   3.158  1.3772 -0.1657  1.5346
   75CHL1   C22 6712   0.712   0.119   3.282 -0.0692  0.3163 -0.4842
   75CHL1  H22A 6713   0.669   0.215   3.247 -0.7177  0.8491  1.6100
   75CHL1  H22B 6714   0.627   0.052   3.309  0.2755  0.6156  1.4951
   75CHL1   C23 6715   0.779   0.136   3.420  0.4575  0.4085 -0.3139
   75CHL1  H23A 6716   0.704   0.192   3.480 -4.1098 -1.3399 -3.7924
   75CHL1  H23B 6717   0.783   0.037   3.470  2.5478 -0.7471 -2.5576
   75CHL1   C24 6718   0.908   0.214   3.424 -0.5170  0.3817 -0.7297
   75CHL1  H24A 6719   0.972   0.173   3.343 -0.4459  0.2540 -0.6103
   75CHL1  H24B 6720   0.887   0.323   3.415  1.8354  1.0803  1.1446
   75CHL1   C25 6721   0.977   0.198   3.565 -0.1651 -0.1528  0.0656
   75CHL1   H25 6722   1.004   0.090   3.569 -0.7751 -0.2670  2.0654
   75CHL1   C26 6723   1.097   0.289   3.574 -0.2147  0.4861  0.6746
   75CHL1  H26A 6724   1.158   0.274   3.666 -0.3453 -2.4786  0.3617
   75CHL1  H26B 6725   1.159   0.287   3.482 -1.3788  0.4267 -0.1290
   75CHL1  H26C 6726   1.062   0.395   3.576  3.0047  1.7718 -2.2004
   75CHL1   C27 6727   0.886   0.220   3.690 -0.6008 -0.2884  0.7911
   75CHL1  H27A 6728   0.940   0.185   3.781 -0.6065  1.4579  1.5098
   75CHL1  H27B 6729   0.884   0.331   3.688  1.4604 -0.2103 -1.8454
   75CHL1  H27C 6730   0.783   0.178   3.683 -1.4694  1.8006  0.4352
   76CHL1    C3 6731   0.302   6.885   2.281  0.3818 -0.1669 -0.2797
   76CHL1    H3 6732   0.413   6.879   2.285  0.2921 -2.7345  0.7314
   76CHL1    O3 6733   0.264   6.935   2.159 -0.5612 -0.3793 -0.2798
   76CHL1   H3' 6734   0.188   6.989   2.181 -0.3199 -0.1927  0.1187
   76CHL1    C4 6735   0.233   6.751   2.305 -0.1564 -0.2798  0.5494
   76CHL1   H4A 6736   0.124   6.742   2.283 -0.1587 -0.6169  0.6913
   76CHL1   H4B 6737   0.276   6.675   2.237  0.3589 -0.7701  1.4139
   76CHL1    C5 6738   0.248   6.696   2.447 -0.6136 -0.1445  0.0507
   76CHL1    C6 6739   0.291   6.575   2.474 -0.1621  0.4852 -0.1269
   76CHL1    H6 6740   0.315   6.506   2.392  0.7736 -0.7161  1.1188
   76CHL1    C7 6741   0.281   6.517   2.609 -0.7410 -0.4978  0.6056
   76CHL1   H7A 6742   0.240   6.413   2.606 -0.6898 -0.5173  0.5766
   76CHL1   H7B 6743   0.381   6.515   2.657 -1.2376  0.9482  1.7610
   76CHL1    C8 6744   0.187   6.595   2.706 -0.0572  0.2705 -0.3467
   76CHL1    H8 6745   0.082   6.568   2.679  0.8086 -3.3086 -0.5216
   76CHL1   C14 6746   0.211   6.549   2.853 -0.4004  0.3565  0.2980
   76CHL1   H14 6747   0.316   6.582   2.869  0.4600 -1.9651 -0.1821
   76CHL1   C15 6748   0.227   6.402   2.888  0.1778  0.0661  0.1755
   76CHL1  H15A 6749   0.173   6.338   2.815 -0.0376  1.7072 -1.1709
   76CHL1  H15B 6750   0.331   6.363   2.887  0.8373  1.7380 -0.7752
   76CHL1   C16 6751   0.182   6.398   3.036  0.2023 -0.2934  1.1558
   76CHL1  H16A 6752   0.087   6.341   3.037  0.6630 -1.1536 -0.3225
   76CHL1  H16B 6753   0.266   6.353   3.093  1.0434  1.4964  1.4100
   76CHL1   C17 6754   0.162   6.540   3.087 -0.2236 -0.5098  0.2096
   76CHL1   H17 6755   0.257   6.583   3.127 -0.9338  2.4577 -1.0465
   76CHL1   C13 6756   0.125   6.615   2.961 -0.3138 -0.2866  0.0780
   76CHL1   C18 6757  -0.026   6.591   2.926 -0.4085  0.3342  0.3724
   76CHL1  H18A 6758  -0.048   6.631   2.825  0.5009  2.0711  0.8165
   76CHL1  H18B 6759  -0.055   6.485   2.940 -0.6269  0.0991 -1.6458
   76CHL1  H18C 6760  -0.091   6.659   2.986  2.5506  2.1857  1.7396
   76CHL1   C12 6761   0.163   6.769   2.960 -1.0165  0.1855  0.4491
   76CHL1  H12A 6762   0.108   6.835   3.030  0.7124  2.1265  0.0663
   76CHL1  H12B 6763   0.272   6.783   2.980 -1.1192 -0.5103  1.6310
   76CHL1   C11 6764   0.142   6.827   2.818  0.3545  0.0824 -0.1309
   76CHL1  H11A 6765   0.035   6.839   2.792  0.4637  1.1223 -0.1442
   76CHL1  H11B 6766   0.172   6.934   2.818  0.2471  0.1509  1.8777
   76CHL1    C9 6767   0.217   6.744   2.704  0.0732 -0.2577 -0.4359
   76CHL1    H9 6768   0.324   6.755   2.730 -0.0029  0.0269 -0.2443
   76CHL1   C10 6769   0.200   6.798   2.561 -0.3806  0.1887  0.3957
   76CHL1   C19 6770   0.052   6.827   2.537 -0.5013 -0.3807 -0.2528
   76CHL1  H19A 6771   0.032   6.866   2.434 -1.1169  2.2483  0.7865
   76CHL1  H19B 6772   0.001   6.731   2.556  1.0828 -1.1824  0.1094
   76CHL1  H19C 6773   0.008   6.900   2.608 -1.2397 -0.5425 -0.5368
   76CHL1    C1 6774   0.292   6.925   2.537  0.2928  0.3077 -0.1050
   76CHL1   H1A 6775   0.257   7.000   2.611 -0.5031 -0.1083 -0.0476
   76CHL1   H1B 6776   0.399   6.898   2.542  0.3345  0.4439 -0.2579
   76CHL1    C2 6777   0.266   6.992   2.395  0.5380  0.2795  0.1238
   76CHL1   H2A 6778   0.335   7.078   2.385  0.7658  0.0753 -0.0653
   76CHL1   H2B 6779   0.160   7.024   2.390  0.8910  1.3689 -0.8549
   76CHL1   C20 6780   0.073   6.546   3.212  0.2150 -0.1721  1.4524
   76CHL1   H20 6781  -0.021   6.497   3.177 -0.0802  2.1982 -1.4584
   76CHL1   C21 6782   0.031   6.692   3.253  0.8636  0.1063 -0.6507
   76CHL1  H21A 6783  -0.014   6.715   3.352  2.5787  3.0365 -0.4358
   76CHL1  H21B 6784  -0.037   6.747   3.184  1.4262  0.7758 -0.6835
   76CHL1  H21C 6785   0.131   6.738   3.264  0.6811  0.9818 -2.3134
   76CHL1   C22 6786   0.130   6.456   3.324  0.5801 -0.2771  0.2768
   76CHL1  H22A 6787   0.146   6.351   3.290  1.9839  0.0091  0.0086
   76CHL1  H22B 6788   0.230   6.490   3.356  2.1430 -2.3044 -2.0842
   76CHL1   C23 6789   0.042   6.451   3.442  0.0996  0.3447 -0.5424
   76CHL1  H23A 6790   0.002   6.552   3.466 -2.7980 -0.6105 -1.0135
   76CHL1  H23B 6791  -0.046   6.393   3.409 -0.1074  0.4303 -0.1431
   76CHL1   C24 6792   0.101   6.386   3.571  0.0798  0.0817  0.0539
   76CHL1  H24A 6793   0.144   6.290   3.538  0.0581  0.3193 -0.6842
   76CHL1  H24B 6794   0.192   6.438   3.609 -0.8647  2.4514 -0.6925
   76CHL1   C25 6795  -0.009   6.360   3.685 -0.2576  0.4640  0.3120
   76CHL1   H25 6796  -0.100   6.340   3.625  0.5174 -2.0057 -0.1471
   76CHL1   C26 6797   0.028   6.243   3.780 -0.6472  0.5367 -0.0834
   76CHL1  H26A 6798   0.127   6.257   3.829  0.0505 -0.1259 -1.2488
   76CHL1  H26B 6799  -0.043   6.245   3.865  0.0996 -0.6807  0.6020
   76CHL1  H26C 6800   0.040   6.147   3.726  3.3698  1.0506 -0.4684
   76CHL1   C27 6801  -0.032   6.490   3.775 -0.2420  0.4340 -0.0761
   76CHL1  H27A 6802  -0.120   6.481   3.841 -0.1365 -2.0171 -0.2080
   76CHL1  H27B 6803   0.054   6.502   3.844 -0.5261 -2.5144  0.9120
   76CHL1  H27C 6804  -0.043   6.590   3.728 -0.2360  0.9841  1.0518
   77SOPE     N 6805   2.871   4.154   6.116 -0.2093 -0.4755 -0.2932
   77SOPE   HN1 6806   2.877   4.169   6.219  3.3853 -0.2346 -0.4202
   77SOPE   HN2 6807   2.784   4.100   6.100  0.1233 -0.5714 -1.9763
   77SOPE   HN3 6808   2.949   4.097   6.078 -1.1302 -3.0053  1.3372
   77SOPE   C12 6809   2.883   4.283   6.042 -0.5657 -0.3176  0.2259
   77SOPE  H12A 6810   2.821   4.358   6.095 -2.0248 -0.2042 -1.5704
   77SOPE  H12B 6811   2.841   4.262   5.942  1.4590  1.0272 -0.9748
   77SOPE   C11 6812   3.027   4.325   6.011 -0.3035 -0.2899 -0.1856
   77SOPE  H11A 6813   3.083   4.359   6.101  0.5676 -0.7051 -0.5577
   77SOPE  H11B 6814   3.019   4.409   5.939 -3.8122  2.2086  2.7087
   77SOPE     P 6815   3.232   4.214   5.881 -0.3906 -0.4022  0.1117
   77SOPE   O13 6816   3.265   4.079   5.834  0.3811 -0.1810 -0.1286
   77SOPE   O14 6817   3.333   4.284   5.962 -0.1171  0.0123  0.2148
   77SOPE   O12 6818   3.093   4.206   5.959  0.0942 -0.4804 -0.2404
   77SOPE   O11 6819   3.195   4.311   5.763 -0.9644 -0.5318 -0.4300
   77SOPE    C1 6820   3.113   4.276   5.658  0.2150  0.0943  0.1221
   77SOPE    HA 6821   3.036   4.352   5.634 -0.6167 -0.9229 -0.5324
   77SOPE    HB 6822   3.054   4.184   5.678  1.2449 -0.4509  0.7444
   77SOPE    C2 6823   3.194   4.261   5.526 -0.2417  0.1020  0.5512
   77SOPE    HS 6824   3.119   4.249   5.445  0.6126  0.3776 -0.2874
   77SOPE   O21 6825   3.290   4.153   5.519 -0.4753 -0.0762  0.0346
   77SOPE   C21 6826   3.236   4.029   5.525 -0.3102 -0.1802  0.4789
   77SOPE   O22 6827   3.118   3.999   5.523 -0.0204  0.1308 -0.6064
   77SOPE   C22 6828   3.347   3.921   5.539  0.6041  0.9282 -0.7433
   77SOPE   H2R 6829   3.327   3.863   5.632  0.9215  3.6666  1.1707
   77SOPE   H2S 6830   3.450   3.958   5.557  0.7419 -0.6954  2.4780
   77SOPE    C3 6831   3.261   4.397   5.496 -0.5994 -0.3145 -0.3110
   77SOPE    HX 6832   3.352   4.398   5.560 -1.0772 -2.2433  0.4492
   77SOPE    HY 6833   3.190   4.476   5.529 -2.4313 -2.0735  0.1216
   77SOPE   O31 6834   3.289   4.416   5.357  0.4408  0.2211  0.1877
   77SOPE   C31 6835   3.419   4.395   5.327 -0.1492  0.2752 -0.1927
   77SOPE   O32 6836   3.506   4.364   5.403 -0.4823  0.3077  0.6914
   77SOPE   C32 6837   3.441   4.402   5.171  1.2914  0.7835  0.3176
   77SOPE   H2X 6838   3.549   4.428   5.161  0.8322  1.8722 -2.7981
   77SOPE   H2Y 6839   3.383   4.484   5.123  1.3250  0.2474 -0.6599
   77SOPE   C23 6840   3.339   3.830   5.419  0.7097  0.6385  0.1542
   77SOPE   H3R 6841   3.236   3.790   5.402 -0.4081  3.1955  0.4263
   77SOPE   H3S 6842   3.411   3.747   5.433 -0.1938  0.2798  3.5086
   77SOPE   C24 6843   3.378   3.898   5.286  0.0276  0.1156 -0.4025
   77SOPE   H4R 6844   3.300   3.974   5.263  1.5402  2.1852  1.0084
   77SOPE   H4S 6845   3.476   3.948   5.299  1.5123 -1.8138 -3.0430
   77SOPE   C25 6846   3.389   3.806   5.166  0.0771  0.5234 -0.3567
   77SOPE   H5R 6847   3.482   3.749   5.187  0.7725  2.4907  2.5701
   77SOPE   H5S 6848   3.302   3.740   5.144 -0.2527  0.9637 -0.3898
   77SOPE   C26 6849   3.422   3.869   5.029  0.1007 -0.3011 -0.9754
   77SOPE   H6R 6850   3.394   3.976   5.033  0.8731 -0.0071 -2.6045
   77SOPE   H6S 6851   3.531   3.860   5.013 -0.1330  1.0290 -4.0597
   77SOPE   C27 6852   3.357   3.793   4.909  0.1313  0.2278 -0.9510
   77SOPE   H7R 6853   3.303   3.703   4.947 -0.7311  1.6122  1.2381
   77SOPE   H7S 6854   3.282   3.860   4.861  1.0093  2.7171  0.9675
   77SOPE   C28 6855   3.447   3.752   4.795  0.2796  0.8771  0.0186
   77SOPE   H8R 6856   3.535   3.700   4.840  0.5105  0.3059 -1.0512
   77SOPE   H8S 6857   3.390   3.676   4.737  1.8107 -0.7963  0.5986
   77SOPE   C29 6858   3.494   3.871   4.721 -0.3574 -0.1444 -0.6024
   77SOPE   H91 6859   3.593   3.911   4.749 -0.3912  0.4494 -1.2927
   77SOPE  C210 6860   3.453   3.919   4.605  0.0543 -0.1508  0.3191
   77SOPE  H101 6861   3.503   4.012   4.574 -0.4531 -0.4975 -1.6358
   77SOPE  C211 6862   3.336   3.878   4.516  0.0143 -0.1264  0.1263
   77SOPE  H11R 6863   3.313   3.954   4.439 -0.3840 -0.8980 -0.5254
   77SOPE  H11S 6864   3.245   3.868   4.579  0.6576 -0.3790  1.0475
   77SOPE  C212 6865   3.356   3.742   4.441  0.3811  0.8058 -0.0492
   77SOPE  H12R 6866   3.257   3.694   4.428 -0.2010  1.4598  1.6748
   77SOPE  H12S 6867   3.418   3.671   4.500 -0.1880  0.1322 -0.2446
   77SOPE  C213 6868   3.420   3.758   4.307 -0.4359 -0.1318  0.2708
   77SOPE  H13R 6869   3.525   3.795   4.314  0.4311 -2.5183  0.7204
   77SOPE  H13S 6870   3.360   3.838   4.258 -0.2771  0.3505  0.8473
   77SOPE  C214 6871   3.411   3.633   4.214 -0.6172 -0.8647 -0.3732
   77SOPE  H14R 6872   3.465   3.663   4.122 -2.5383 -1.8730 -1.8816
   77SOPE  H14S 6873   3.304   3.616   4.191 -1.9125  2.3635  2.4368
   77SOPE  C215 6874   3.472   3.511   4.277 -0.5024  0.3605 -0.2954
   77SOPE  H15R 6875   3.406   3.485   4.362 -0.8487  1.2561 -0.2812
   77SOPE  H15S 6876   3.572   3.525   4.323 -0.6869  3.0706 -0.5463
   77SOPE  C216 6877   3.463   3.387   4.188 -0.2638 -0.3914  0.2605
   77SOPE  H16R 6878   3.486   3.420   4.085 -2.3898  2.5688  0.6118
   77SOPE  H16S 6879   3.364   3.336   4.186 -0.4347 -0.1040 -2.7293
   77SOPE  C217 6880   3.570   3.291   4.235  0.1460 -0.0309 -0.0992
   77SOPE  H17R 6881   3.559   3.261   4.341 -2.2806  0.6548 -0.1120
   77SOPE  H17S 6882   3.668   3.343   4.226 -0.2122  0.7238  0.3215
   77SOPE  C218 6883   3.579   3.159   4.158 -0.6613  0.4657  0.3655
   77SOPE  H18R 6884   3.479   3.112   4.166 -0.4935  0.3900  3.5487
   77SOPE  H18S 6885   3.650   3.091   4.210  1.9020  1.9134 -1.0538
   77SOPE  H18T 6886   3.611   3.173   4.053 -1.0173  1.0199  0.3287
   77SOPE   C33 6887   3.411   4.273   5.099  0.2626  0.2676  0.3651
   77SOPE   H3X 6888   3.322   4.211   5.122  1.1066 -0.6812  1.1358
   77SOPE   H3Y 6889   3.491   4.198   5.111 -1.8021 -2.5457 -2.1698
   77SOPE   C34 6890   3.409   4.295   4.944 -0.8058 -0.1410 -0.1974
   77SOPE   H4X 6891   3.518   4.313   4.929 -0.6986 -0.6157 -0.0250
   77SOPE   H4Y 6892   3.347   4.384   4.922 -1.6445 -0.4794  0.7119
   77SOPE   C35 6893   3.370   4.178   4.852 -0.2559  0.2972 -0.7936
   77SOPE   H5X 6894   3.278   4.132   4.893 -1.4149  3.1065 -0.0314
   77SOPE   H5Y 6895   3.460   4.112   4.860 -0.3774  0.2341  0.1312
   77SOPE   C36 6896   3.351   4.234   4.713  0.4830 -0.1943 -0.3514
   77SOPE   H6X 6897   3.283   4.322   4.722  2.5120  1.3297  1.0009
   77SOPE   H6Y 6898   3.310   4.149   4.654  1.3087 -1.4942  0.8876
   77SOPE   C37 6899   3.485   4.292   4.662  0.3252  0.0170 -0.5973
   77SOPE   H7X 6900   3.564   4.216   4.683  0.0571 -0.0529  0.1752
   77SOPE   H7Y 6901   3.505   4.379   4.728 -0.1631 -0.2940 -0.0366
   77SOPE   C38 6902   3.498   4.327   4.512 -0.6188 -0.5580 -0.9930
   77SOPE   H8X 6903   3.439   4.419   4.492 -0.0540 -0.1936 -1.0100
   77SOPE   H8Y 6904   3.440   4.251   4.456 -2.4061  2.1304 -3.0175
   77SOPE   C39 6905   3.641   4.334   4.481  0.8003  0.4535  0.1429
   77SOPE   H9X 6906   3.697   4.252   4.532  0.3917 -0.2699 -0.5502
   77SOPE   H9Y 6907   3.687   4.432   4.509  0.9159  0.2123  0.8258
   77SOPE  C310 6908   3.643   4.317   4.327  0.3173 -0.6288 -0.2026
   77SOPE  H10X 6909   3.553   4.362   4.279  1.1756  0.3268 -0.9585
   77SOPE  H10Y 6910   3.637   4.208   4.306 -0.3832 -0.7668  0.6164
   77SOPE  C311 6911   3.772   4.375   4.258 -0.1157 -0.1486 -0.7648
   77SOPE  H11X 6912   3.821   4.460   4.312  2.2342 -1.2997 -0.9879
   77SOPE  H11Y 6913   3.742   4.430   4.166 -0.1851 -0.7448 -1.0989
   77SOPE  C312 6914   3.871   4.270   4.228  0.5945  0.4246  0.4520
   77SOPE  H12X 6915   3.814   4.201   4.162 -2.2629  2.1455  0.9528
   77SOPE  H12Y 6916   3.897   4.214   4.320 -0.5720 -1.2741 -0.2000
   77SOPE  C313 6917   3.993   4.326   4.157 -0.1558  0.3227 -0.0456
   77SOPE  H13X 6918   3.966   4.414   4.094  0.9652 -0.4242 -1.6032
   77SOPE  H13Y 6919   4.018   4.253   4.078  0.8561  0.3868  0.2053
   77SOPE  C314 6920   4.106   4.352   4.259 -0.4667  0.0687  0.7913
   77SOPE  H14X 6921   4.177   4.414   4.200 -1.9337  0.5545 -0.5275
   77SOPE  H14Y 6922   4.150   4.252   4.283  1.0655  0.7851  1.0832
   77SOPE  C315 6923   4.073   4.432   4.385 -0.2349  0.7476 -0.2169
   77SOPE  H15X 6924   4.001   4.379   4.451  1.6103 -0.9017  0.5685
   77SOPE  H15Y 6925   4.031   4.528   4.349 -1.4892 -0.0031 -0.7927
   77SOPE  C316 6926   4.213   4.456   4.457 -0.2672 -0.4943 -0.0429
   77SOPE  H16X 6927   4.268   4.512   4.378  1.0673  0.3746  1.4219
   77SOPE  H16Y 6928   4.265   4.363   4.488 -1.0132 -0.5743  1.0314
   77SOPE  C317 6929   4.211   4.552   4.572  0.6009  0.2901  0.3170
   77SOPE  H17X 6930   4.129   4.527   4.642  1.2284  1.9931  1.7481
   77SOPE  H17Y 6931   4.177   4.653   4.540 -1.3609 -0.6278 -0.6563
   77SOPE  C318 6932   4.347   4.565   4.642  0.4221 -0.3192  0.1585
   77SOPE  H18X 6933   4.408   4.651   4.607  2.1889 -0.7270  2.0386
   77SOPE  H18Y 6934   4.407   4.476   4.612 -1.5068 -1.6807  0.2079
   77SOPE  H18Z 6935   4.339   4.578   4.752 -1.2579  0.7935 -0.0639
   78SOPE     N 6936   1.304   4.144   6.420 -0.0669  0.1197 -0.6404
   78SOPE   HN1 6937   1.202   4.156   6.407 -0.2320 -0.9859 -0.4778
   78SOPE   HN2 6938   1.307   4.060   6.359 -2.0108 -1.7123  1.5530
   78SOPE   HN3 6939   1.325   4.111   6.517 -0.5232 -1.4218 -1.0398
   78SOPE   C12 6940   1.391   4.258   6.380  0.4828  0.1901  0.3932
   78SOPE  H12A 6941   1.451   4.290   6.468  2.2520 -4.0176  0.9182
   78SOPE  H12B 6942   1.317   4.339   6.359 -0.2308 -0.9689 -1.8489
   78SOPE   C11 6943   1.481   4.201   6.269  0.0484 -0.1638 -0.3658
   78SOPE  H11A 6944   1.542   4.286   6.234 -2.0828  0.9905 -1.5066
   78SOPE  H11B 6945   1.410   4.162   6.193 -0.7537 -1.4295  0.9577
   78SOPE     P 6946   1.632   3.977   6.253  0.0147 -0.5266 -0.2881
   78SOPE   O13 6947   1.540   3.863   6.247 -0.5881  0.2405 -0.0430
   78SOPE   O14 6948   1.754   3.942   6.326  0.2727 -0.2789 -0.3356
   78SOPE   O12 6949   1.564   4.097   6.327  0.3003 -0.5466 -0.0587
   78SOPE   O11 6950   1.654   4.017   6.102 -0.1316  0.8359  0.0820
   78SOPE    C1 6951   1.783   3.974   6.044 -0.4272 -0.0364  0.3234
   78SOPE    HA 6952   1.785   3.864   6.037  0.1970  0.0032 -0.3070
   78SOPE    HB 6953   1.874   4.005   6.101  0.6877 -1.8583 -0.3612
   78SOPE    C2 6954   1.812   4.040   5.902  0.0998 -0.5317 -0.0187
   78SOPE    HS 6955   1.801   4.149   5.921 -2.3236 -0.5788 -0.7593
   78SOPE   O21 6956   1.714   3.997   5.807  0.1965  0.1625  0.1991
   78SOPE   C21 6957   1.686   4.086   5.712  0.5112 -0.6226 -0.0950
   78SOPE   O22 6958   1.731   4.195   5.710  0.2508  0.5903 -0.4227
   78SOPE   C22 6959   1.579   4.033   5.618 -0.0347  0.5041 -0.9759
   78SOPE   H2R 6960   1.520   3.961   5.679  2.3186 -1.3766 -0.7818
   78SOPE   H2S 6961   1.634   3.962   5.552  2.1795 -0.4105  1.6875
   78SOPE    C3 6962   1.953   3.994   5.856  0.0691  0.1752  0.8085
   78SOPE    HX 6963   1.951   3.883   5.853 -0.8454  0.1893  0.5980
   78SOPE    HY 6964   2.021   4.023   5.938 -0.1424 -1.4411  1.5963
   78SOPE   O31 6965   2.008   4.060   5.732 -0.7546 -0.1893 -0.4379
   78SOPE   C31 6966   1.985   3.981   5.623 -0.5645 -0.2624 -0.3080
   78SOPE   O32 6967   1.945   3.867   5.626  0.5253 -0.0593 -0.0872
   78SOPE   C32 6968   2.029   4.058   5.496  0.4943  0.2851 -1.1194
   78SOPE   H2X 6969   2.139   4.042   5.487  0.7327  1.0791  0.1077
   78SOPE   H2Y 6970   2.007   4.165   5.511 -1.9699 -0.3246  0.1059
   78SOPE   C23 6971   1.507   4.147   5.547 -0.4977  0.0783 -0.3918
   78SOPE   H3R 6972   1.482   4.239   5.602  1.2018  1.0696 -1.1727
   78SOPE   H3S 6973   1.414   4.104   5.504 -1.4469  1.7082 -0.0680
   78SOPE   C24 6974   1.590   4.200   5.425  0.8275 -0.1839  0.2051
   78SOPE   H4R 6975   1.668   4.269   5.463  0.3920  0.3208  0.1873
   78SOPE   H4S 6976   1.642   4.125   5.361 -1.0926 -0.8725 -0.6357
   78SOPE   C25 6977   1.495   4.262   5.318 -0.3602 -0.4626  0.3742
   78SOPE   H5R 6978   1.415   4.190   5.289  0.2971 -1.0331 -0.0465
   78SOPE   H5S 6979   1.428   4.338   5.363  0.6967  0.5613  0.2742
   78SOPE   C26 6980   1.561   4.300   5.189  0.0322  0.1886  0.0785
   78SOPE   H6R 6981   1.616   4.211   5.152 -0.5895 -0.7623  1.3714
   78SOPE   H6S 6982   1.486   4.335   5.115  0.4539  1.7452  0.3534
   78SOPE   C27 6983   1.663   4.416   5.189  0.4332  0.4530 -0.2550
   78SOPE   H7R 6984   1.620   4.501   5.246 -0.8203 -1.8541  2.5044
   78SOPE   H7S 6985   1.758   4.386   5.237 -0.4382 -0.4863  0.9797
   78SOPE   C28 6986   1.707   4.469   5.050  0.0903 -0.3500  0.0615
   78SOPE   H8R 6987   1.616   4.516   5.005 -0.1121  1.2484  2.0138
   78SOPE   H8S 6988   1.787   4.544   5.064  0.6028 -0.9403  0.3571
   78SOPE   C29 6989   1.768   4.374   4.949  0.0462  0.1940  0.1246
   78SOPE   H91 6990   1.876   4.355   4.964  0.9110  3.5676 -0.8179
   78SOPE  C210 6991   1.695   4.319   4.848 -0.5862  0.6981  0.4482
   78SOPE  H101 6992   1.742   4.238   4.791 -2.0189  0.1136  0.0634
   78SOPE  C211 6993   1.551   4.339   4.805  0.0392 -0.0553  0.1970
   78SOPE  H11R 6994   1.539   4.360   4.697  2.5844 -0.5411 -0.2593
   78SOPE  H11S 6995   1.487   4.410   4.860  0.0627 -0.5866  0.9345
   78SOPE  C212 6996   1.470   4.205   4.814  0.5831  0.2895  0.4507
   78SOPE  H12R 6997   1.506   4.162   4.910 -0.1426  1.1760  1.1385
   78SOPE  H12S 6998   1.499   4.142   4.728  1.3259 -0.6301  1.3517
   78SOPE  C213 6999   1.316   4.228   4.827 -0.1559  0.3193  0.1030
   78SOPE  H13R 7000   1.297   4.294   4.740 -0.0470 -0.0691 -0.2203
   78SOPE  H13S 7001   1.295   4.284   4.920 -0.1173  0.3469  0.0951
   78SOPE  C214 7002   1.230   4.094   4.829  0.1396 -0.3261 -0.4181
   78SOPE  H14R 7003   1.273   4.045   4.739  1.7778  1.3913 -0.6332
   78SOPE  H14S 7004   1.125   4.123   4.809  0.3090 -1.1155 -2.6606
   78SOPE  C215 7005   1.251   4.021   4.961  0.3507 -0.3513  0.3080
   78SOPE  H15R 7006   1.359   4.009   4.987  1.0041 -0.2022 -2.0599
   78SOPE  H15S 7007   1.212   3.918   4.954  0.5731 -0.6484  2.6930
   78SOPE  C216 7008   1.200   4.096   5.085  0.5350 -0.0239 -0.2635
   78SOPE  H16R 7009   1.091   4.115   5.070  0.5019 -0.9357 -1.3488
   78SOPE  H16S 7010   1.238   4.199   5.100  1.4815 -0.1957 -1.3290
   78SOPE  C217 7011   1.218   4.010   5.216 -0.1345 -0.1763 -0.0865
   78SOPE  H17R 7012   1.325   3.981   5.217  0.1405  0.4069 -3.1156
   78SOPE  H17S 7013   1.162   3.916   5.201 -2.4805  1.2426 -0.7071
   78SOPE  C218 7014   1.153   4.068   5.346 -0.0513  0.7059  0.4115
   78SOPE  H18R 7015   1.168   4.176   5.364  1.3332  0.2330  2.4037
   78SOPE  H18S 7016   1.177   4.009   5.437 -3.3549 -1.5752  0.0043
   78SOPE  H18T 7017   1.044   4.050   5.333  0.2547  0.1634 -1.6947
   78SOPE   C33 7018   1.960   4.017   5.360 -0.1977  0.0604  0.5300
   78SOPE   H3X 7019   1.874   4.087   5.350 -1.1649 -0.8714  1.9446
   78SOPE   H3Y 7020   1.927   3.911   5.363  2.0034 -0.7803 -1.5205
   78SOPE   C34 7021   2.065   4.011   5.244  0.4874 -1.0500  0.1178
   78SOPE   H4X 7022   2.105   3.909   5.226  3.1951 -0.1823  0.7607
   78SOPE   H4Y 7023   2.152   4.074   5.272  0.9156 -1.4308 -0.3213
   78SOPE   C35 7024   2.018   4.064   5.106  0.0828  0.2001  0.3048
   78SOPE   H5X 7025   1.970   4.162   5.128 -2.7417 -1.0754  0.2813
   78SOPE   H5Y 7026   1.935   3.999   5.071  0.0465 -0.7766  2.0744
   78SOPE   C36 7027   2.132   4.077   5.000  0.3770  1.1512 -0.1974
   78SOPE   H6X 7028   2.171   3.976   4.976  0.6978  1.3985 -0.7347
   78SOPE   H6Y 7029   2.215   4.136   5.044  0.9774  0.9198 -0.9879
   78SOPE   C37 7030   2.077   4.126   4.869  0.9086 -0.3295 -0.3629
   78SOPE   H7X 7031   2.021   4.222   4.871  0.2519 -0.5917 -2.7770
   78SOPE   H7Y 7032   1.990   4.067   4.835 -1.2759  3.6162 -2.4171
   78SOPE   C38 7033   2.175   4.134   4.750 -0.2269  0.2650 -0.8679
   78SOPE   H8X 7034   2.258   4.198   4.787 -0.0169 -0.5972  0.2170
   78SOPE   H8Y 7035   2.112   4.195   4.681 -2.5860  2.4607  2.8613
   78SOPE   C39 7036   2.216   3.996   4.704 -1.4099 -0.5194  0.7455
   78SOPE   H9X 7037   2.130   3.935   4.672 -0.2899 -0.1261 -3.7026
   78SOPE   H9Y 7038   2.278   3.951   4.784 -1.0719  0.0890  0.8363
   78SOPE  C310 7039   2.298   4.000   4.571  0.2324  0.0468 -0.0802
   78SOPE  H10X 7040   2.320   3.900   4.528  0.1649 -0.2423  0.5538
   78SOPE  H10Y 7041   2.400   4.041   4.589  0.9407 -1.6769  0.0181
   78SOPE  C311 7042   2.231   4.095   4.466  0.0264  0.2484 -0.3800
   78SOPE  H11X 7043   2.229   4.196   4.512 -0.7449 -0.3046  0.8611
   78SOPE  H11Y 7044   2.131   4.052   4.441  1.1328 -1.1812 -2.7609
   78SOPE  C312 7045   2.294   4.113   4.325  0.1731  0.5953 -0.6410
   78SOPE  H12X 7046   2.394   4.162   4.329 -0.3448  1.6123  0.5710
   78SOPE  H12Y 7047   2.226   4.182   4.271 -1.2697 -0.1858  0.1142
   78SOPE  C313 7048   2.291   3.990   4.235  0.3432 -1.1213 -0.0138
   78SOPE  H13X 7049   2.211   3.924   4.276  0.1261 -0.2613  0.9801
   78SOPE  H13Y 7050   2.387   3.935   4.252  2.3796  2.6099  1.6518
   78SOPE  C314 7051   2.271   4.012   4.082 -0.7275 -0.4486  0.7239
   78SOPE  H14X 7052   2.172   4.060   4.076 -0.6904 -0.2669  1.4658
   78SOPE  H14Y 7053   2.264   3.910   4.038  2.2965 -0.1555 -0.6950
   78SOPE  C315 7054   2.383   4.102   4.017  0.4321 -0.0195 -0.1337
   78SOPE  H15X 7055   2.480   4.048   4.027  0.3551  0.0740  1.5278
   78SOPE  H15Y 7056   2.388   4.199   4.072 -2.2373  0.0596  0.0619
   78SOPE  C316 7057   2.347   4.148   3.875  0.3938  0.0982 -0.5207
   78SOPE  H16X 7058   2.244   4.189   3.867  0.4385  0.0663 -1.3584
   78SOPE  H16Y 7059   2.343   4.052   3.819  2.1763 -1.5763  1.9762
   78SOPE  C317 7060   2.454   4.231   3.808  0.6284  0.6187 -0.4959
   78SOPE  H17X 7061   2.547   4.172   3.794 -1.3029 -2.6745 -0.4981
   78SOPE  H17Y 7062   2.493   4.317   3.866 -3.2675  2.7576 -0.7615
   78SOPE  C318 7063   2.406   4.287   3.674 -0.3335  0.1794  0.7858
   78SOPE  H18X 7064   2.374   4.204   3.607  0.5293 -0.6304  1.3516
   78SOPE  H18Y 7065   2.487   4.341   3.621 -1.8825 -1.2129 -3.4043
   78SOPE  H18Z 7066   2.321   4.353   3.699  0.6035  1.7968 -0.0714
   79SOPE     N 7067   4.054   0.891   5.970 -0.5679  0.6922  0.1031
   79SOPE   HN1 7068   4.105   0.839   6.044  1.0010  1.7438 -0.1691
   79SOPE   HN2 7069   4.009   0.974   6.013  0.3649  1.4229 -0.2888
   79SOPE   HN3 7070   3.977   0.826   5.949  1.5862 -2.8253  2.0869
   79SOPE   C12 7071   4.144   0.940   5.863  0.2444 -0.0553 -0.4268
   79SOPE  H12A 7072   4.162   0.849   5.803  0.9752 -2.5731  3.2555
   79SOPE  H12B 7073   4.239   0.972   5.912  0.3502 -0.7624 -0.1692
   79SOPE   C11 7074   4.074   1.054   5.786 -0.3729  0.3413 -0.9808
   79SOPE  H11A 7075   3.996   1.014   5.719 -1.2812  1.7683 -0.8110
   79SOPE  H11B 7076   4.152   1.109   5.729 -0.7655  1.4942 -0.4326
   79SOPE     P 7077   4.043   1.289   5.905 -0.2277 -0.0559 -0.2654
   79SOPE   O13 7078   4.189   1.302   5.938 -0.0751 -0.2355 -0.0365
   79SOPE   O14 7079   3.953   1.344   6.008 -0.1616  0.2383  0.1064
   79SOPE   O12 7080   4.012   1.134   5.881 -0.3537 -0.3378 -0.6360
   79SOPE   O11 7081   4.014   1.352   5.767  0.0780 -0.5370  0.4614
   79SOPE    C1 7082   3.897   1.322   5.690 -0.3546 -0.7085 -0.2253
   79SOPE    HA 7083   3.820   1.273   5.754 -1.2640  0.2828 -0.5384
   79SOPE    HB 7084   3.929   1.254   5.608  2.8060  0.6617 -0.2732
   79SOPE    C2 7085   3.846   1.456   5.624 -0.6419  0.7550  0.2153
   79SOPE    HS 7086   3.773   1.428   5.545 -1.3435  1.1175  0.7180
   79SOPE   O21 7087   3.956   1.534   5.575  0.2663 -0.0652 -0.9583
   79SOPE   C21 7088   4.005   1.483   5.465 -0.4998 -0.8224 -0.2084
   79SOPE   O22 7089   3.962   1.388   5.403  0.0905  0.1515  0.1714
   79SOPE   C22 7090   4.123   1.576   5.427 -0.1207  0.3840  0.1713
   79SOPE   H2R 7091   4.214   1.529   5.470 -0.3550 -0.8308 -0.6363
   79SOPE   H2S 7092   4.101   1.671   5.481  0.4063 -0.4893  1.9982
   79SOPE    C3 7093   3.767   1.541   5.727 -0.0575 -0.2321  0.2827
   79SOPE    HX 7094   3.816   1.552   5.827 -0.1421 -0.9502  0.4093
   79SOPE    HY 7095   3.669   1.496   5.755  0.2003  0.4982  2.5985
   79SOPE   O31 7096   3.743   1.673   5.675  0.0967 -0.1126 -0.1332
   79SOPE   C31 7097   3.832   1.772   5.684 -0.0059 -0.0048  0.1152
   79SOPE   O32 7098   3.943   1.768   5.736  0.0956 -0.4571 -0.5402
   79SOPE   C32 7099   3.771   1.899   5.620 -0.0473  0.5857  0.8797
   79SOPE   H2X 7100   3.796   1.996   5.668  1.1535  1.1962 -0.8643
   79SOPE   H2Y 7101   3.661   1.886   5.609 -0.0183 -0.6397  1.8500
   79SOPE   C23 7102   4.138   1.594   5.278  0.4799  0.6320 -0.5346
   79SOPE   H3R 7103   4.043   1.629   5.232 -0.0708 -3.1701 -2.6863
   79SOPE   H3S 7104   4.154   1.491   5.240 -0.6552 -0.1248  0.9356
   79SOPE   C24 7105   4.247   1.694   5.248 -0.1735 -0.0065  0.4441
   79SOPE   H4R 7106   4.201   1.791   5.278 -2.1654 -0.5840 -0.5984
   79SOPE   H4S 7107   4.338   1.670   5.308 -0.1148 -2.6881 -0.5672
   79SOPE   C25 7108   4.286   1.701   5.095 -0.0492  0.7600 -0.8773
   79SOPE   H5R 7109   4.353   1.617   5.069 -0.4022 -0.3383  1.5234
   79SOPE   H5S 7110   4.197   1.701   5.029  1.1214  1.5741 -2.5202
   79SOPE   C26 7111   4.374   1.823   5.076  0.3412  0.5076  0.0032
   79SOPE   H6R 7112   4.314   1.912   5.104 -0.2747  0.0079  0.2981
   79SOPE   H6S 7113   4.466   1.819   5.139  0.3578  0.6497 -0.0134
   79SOPE   C27 7114   4.407   1.846   4.930 -0.4097 -0.7419  0.0334
   79SOPE   H7R 7115   4.458   1.758   4.888  0.1701  0.1809 -1.2597
   79SOPE   H7S 7116   4.311   1.844   4.873 -1.6410 -1.5865  2.0302
   79SOPE   C28 7117   4.478   1.984   4.904 -0.7460 -0.5576  0.4247
   79SOPE   H8R 7118   4.456   2.018   4.800  0.4860  0.7341  0.5540
   79SOPE   H8S 7119   4.426   2.062   4.965  0.5082 -0.5324  1.5092
   79SOPE   C29 7120   4.635   1.969   4.914  0.7866  0.1351 -0.2569
   79SOPE   H91 7121   4.687   1.924   4.828  2.1377 -0.8706  1.0397
   79SOPE  C210 7122   4.715   1.999   5.015 -0.2946  0.4160 -0.3055
   79SOPE  H101 7123   4.820   1.972   4.996 -1.0158 -1.3903 -2.1054
   79SOPE  C211 7124   4.668   2.056   5.142 -0.3267 -0.1854  0.2517
   79SOPE  H11R 7125   4.561   2.037   5.165 -0.7469  1.5188 -0.1841
   79SOPE  H11S 7126   4.682   2.165   5.123  1.3118 -0.7027 -1.8481
   79SOPE  C212 7127   4.748   2.002   5.262 -0.0842 -0.0052 -0.1587
   79SOPE  H12R 7128   4.728   2.076   5.342 -0.8208 -0.7506  0.3715
   79SOPE  H12S 7129   4.856   2.015   5.240  0.1291  0.6542  1.1690
   79SOPE  C213 7130   4.710   1.859   5.311  0.8510  0.2602 -0.3129
   79SOPE  H13R 7131   4.738   1.787   5.230 -1.6806 -1.7074  0.4200
   79SOPE  H13S 7132   4.599   1.850   5.311  1.0146 -3.3940  0.0728
   79SOPE  C214 7133   4.782   1.795   5.429  0.2270  0.1117 -0.5283
   79SOPE  H14R 7134   4.767   1.864   5.515 -1.5069 -0.4612 -0.3327
   79SOPE  H14S 7135   4.889   1.776   5.405 -0.2578 -1.9277 -1.2858
   79SOPE  C215 7136   4.739   1.658   5.474 -0.3701  0.3190  0.0596
   79SOPE  H15R 7137   4.791   1.647   5.572  0.1845 -0.2288 -0.2927
   79SOPE  H15S 7138   4.785   1.584   5.404 -1.5616  0.4683 -0.9045
   79SOPE  C216 7139   4.591   1.633   5.499  0.1706  0.2604  0.0945
   79SOPE  H16R 7140   4.530   1.665   5.411 -0.3143 -1.4475 -0.2392
   79SOPE  H16S 7141   4.549   1.679   5.591 -0.8075  0.9800 -0.6950
   79SOPE  C217 7142   4.558   1.480   5.513 -0.4984 -0.3701  0.2727
   79SOPE  H17R 7143   4.582   1.420   5.422  1.4673  1.2207 -0.3128
   79SOPE  H17S 7144   4.447   1.479   5.526 -0.4259  0.3763  0.9844
   79SOPE  C218 7145   4.623   1.421   5.645 -0.1417  0.1659  0.5877
   79SOPE  H18R 7146   4.558   1.351   5.700 -1.5443  2.8921  2.6637
   79SOPE  H18S 7147   4.633   1.502   5.720 -1.3609 -0.6857  1.7157
   79SOPE  H18T 7148   4.716   1.365   5.623 -0.3629 -0.5209  1.3558
   79SOPE   C33 7149   3.834   1.923   5.484 -0.3481 -0.1524 -0.1783
   79SOPE   H3X 7150   3.944   1.936   5.482 -0.2093 -1.3533 -1.2994
   79SOPE   H3Y 7151   3.809   2.026   5.451  1.6700  0.0770 -1.1128
   79SOPE   C34 7152   3.790   1.821   5.385 -0.5539 -0.3021 -0.1727
   79SOPE   H4X 7153   3.679   1.823   5.372 -0.7698  2.1232  1.3966
   79SOPE   H4Y 7154   3.825   1.723   5.423 -0.8968 -0.0448  0.8417
   79SOPE   C35 7155   3.855   1.851   5.246  0.1321 -0.2107  0.3545
   79SOPE   H5X 7156   3.961   1.825   5.266 -0.5263 -0.5361  4.2619
   79SOPE   H5Y 7157   3.853   1.961   5.228  0.5197 -0.0919  0.9788
   79SOPE   C36 7158   3.793   1.775   5.129 -0.1749 -0.1866 -0.4020
   79SOPE   H6X 7159   3.682   1.787   5.136 -0.0544  0.2707  1.0756
   79SOPE   H6Y 7160   3.818   1.667   5.125  0.3834 -0.0527 -0.5086
   79SOPE   C37 7161   3.831   1.833   4.997 -0.4199  0.1082  0.7005
   79SOPE   H7X 7162   3.918   1.899   5.016 -0.3806  0.7447 -1.4093
   79SOPE   H7Y 7163   3.741   1.894   4.972  0.5503  1.3955  0.2156
   79SOPE   C38 7164   3.871   1.720   4.900  0.0438  0.6845 -0.1842
   79SOPE   H8X 7165   3.795   1.639   4.892 -2.5453  2.9071  0.4619
   79SOPE   H8Y 7166   3.967   1.686   4.946 -1.3815 -0.7485  1.9253
   79SOPE   C39 7167   3.887   1.776   4.761  0.1311 -0.3702 -0.3285
   79SOPE   H9X 7168   3.793   1.831   4.740 -0.5292 -1.5755 -0.5994
   79SOPE   H9Y 7169   3.898   1.693   4.687 -0.6049 -1.1131  0.3763
   79SOPE  C310 7170   4.001   1.881   4.733  1.0306 -0.6528 -0.4051
   79SOPE  H10X 7171   4.097   1.826   4.726  1.5723  0.2616 -0.2490
   79SOPE  H10Y 7172   4.001   1.960   4.812  0.4813 -1.5019  0.4774
   79SOPE  C311 7173   3.983   1.938   4.592  0.2154 -0.4687 -1.1490
   79SOPE  H11X 7174   3.888   1.994   4.586  0.3144 -0.2084 -0.3683
   79SOPE  H11Y 7175   3.965   1.855   4.521 -2.7350  0.3474 -1.4779
   79SOPE  C312 7176   4.101   2.027   4.547  0.5850 -0.7764 -0.0755
   79SOPE  H12X 7177   4.098   2.119   4.609  1.7562  1.1216 -2.6448
   79SOPE  H12Y 7178   4.090   2.063   4.442 -0.9680  1.6268  0.8448
   79SOPE  C313 7179   4.246   1.976   4.557 -0.9846 -0.2635 -0.3544
   79SOPE  H13X 7180   4.286   1.946   4.657 -0.0008 -0.9867 -0.9476
   79SOPE  H13Y 7181   4.310   2.067   4.548  0.3413 -1.0828  0.4189
   79SOPE  C314 7182   4.278   1.867   4.451 -0.0755  0.0962 -1.2353
   79SOPE  H14X 7183   4.269   1.923   4.356  0.5491  0.2079 -1.2345
   79SOPE  H14Y 7184   4.204   1.784   4.444  1.7204 -1.5225 -1.7956
   79SOPE  C315 7185   4.422   1.810   4.463 -0.3925 -0.1112  0.5402
   79SOPE  H15X 7186   4.435   1.746   4.373 -1.1241 -0.5368  0.7247
   79SOPE  H15Y 7187   4.435   1.749   4.555 -0.3660 -0.4954  0.2826
   79SOPE  C316 7188   4.538   1.915   4.453  0.4716 -0.5537 -0.4133
   79SOPE  H16X 7189   4.558   1.957   4.554  0.7505 -0.9521 -0.2984
   79SOPE  H16Y 7190   4.497   2.001   4.396 -2.6842  0.2263  2.6581
   79SOPE  C317 7191   4.670   1.853   4.406 -0.6199  0.2176 -0.2437
   79SOPE  H17X 7192   4.660   1.804   4.307 -0.4220 -1.5882  0.5836
   79SOPE  H17Y 7193   4.673   1.772   4.482 -1.6955 -0.8002 -1.2568
   79SOPE  C318 7194   4.786   1.952   4.404 -0.4836 -0.4096  0.5389
   79SOPE  H18X 7195   4.789   1.983   4.511 -1.5092  0.2970  0.3817
   79SOPE  H18Y 7196   4.764   2.039   4.339  0.7299 -1.3818 -1.2349
   79SOPE  H18Z 7197   4.879   1.900   4.374 -0.5917 -0.2954  0.0083
   80SOPE     N 7198   2.904   4.543   6.388 -0.1230 -0.7632 -0.1213
   80SOPE   HN1 7199   2.911   4.440   6.396  0.4113 -0.7498 -0.3358
   80SOPE   HN2 7200   2.943   4.570   6.295  3.3089 -2.0428  0.8042
   80SOPE   HN3 7201   2.968   4.595   6.453  1.3372 -0.6469 -1.5764
   80SOPE   C12 7202   2.766   4.597   6.410 -0.5970 -0.3541  0.5351
   80SOPE  H12A 7203   2.750   4.669   6.328  2.1729  0.3557  0.4994
   80SOPE  H12B 7204   2.765   4.637   6.514  3.2404 -1.1536  1.0572
   80SOPE   C11 7205   2.670   4.469   6.401 -0.2235 -0.9259 -0.4453
   80SOPE  H11A 7206   2.572   4.500   6.444 -0.0332  0.3665 -0.9145
   80SOPE  H11B 7207   2.708   4.391   6.470 -1.9368  0.0634  1.7383
   80SOPE     P 7208   2.561   4.480   6.152  0.0616 -0.2046 -0.3600
   80SOPE   O13 7209   2.418   4.442   6.180 -0.0767  0.3110 -0.1980
   80SOPE   O14 7210   2.614   4.444   6.021  0.3020 -0.4075 -0.5095
   80SOPE   O12 7211   2.658   4.422   6.265 -0.2610  1.3409  0.8059
   80SOPE   O11 7212   2.565   4.635   6.168  0.0003  0.2039 -0.2168
   80SOPE    C1 7213   2.638   4.719   6.081 -0.7994 -0.3449  0.4525
   80SOPE    HA 7214   2.734   4.673   6.049 -1.2810 -0.3393 -1.1007
   80SOPE    HB 7215   2.671   4.812   6.132  2.8329 -0.1798 -1.8553
   80SOPE    C2 7216   2.551   4.771   5.965  0.4061  0.2063  0.2096
   80SOPE    HS 7217   2.444   4.768   5.994  0.1249  0.5633 -0.7702
   80SOPE   O21 7218   2.597   4.701   5.846  0.3430  0.0505 -0.1188
   80SOPE   C21 7219   2.495   4.633   5.796 -0.3505 -0.2664  0.1514
   80SOPE   O22 7220   2.385   4.626   5.848  0.6222 -0.0459  0.4112
   80SOPE   C22 7221   2.536   4.583   5.658 -0.5204  0.4510  0.2615
   80SOPE   H2R 7222   2.628   4.520   5.660  1.0553  2.6528  0.0435
   80SOPE   H2S 7223   2.564   4.667   5.592  1.8768 -0.0576  0.5406
   80SOPE    C3 7224   2.567   4.923   5.935  0.4251 -0.3733  0.7943
   80SOPE    HX 7225   2.673   4.941   5.910  0.0606  1.2211  0.3007
   80SOPE    HY 7226   2.549   4.977   6.031 -0.2422  0.1195  0.4060
   80SOPE   O31 7227   2.477   4.977   5.834  0.6741  0.1998 -0.3971
   80SOPE   C31 7228   2.350   5.009   5.871  0.4314  0.4985  0.7974
   80SOPE   O32 7229   2.310   5.036   5.981 -0.0085 -0.6958  0.4878
   80SOPE   C32 7230   2.263   5.007   5.753  0.2816 -0.3478 -0.2992
   80SOPE   H2X 7231   2.305   5.084   5.684 -0.0802 -0.6335 -0.8533
   80SOPE   H2Y 7232   2.163   5.054   5.768  0.0515 -1.0756  0.4927
   80SOPE   C23 7233   2.416   4.512   5.599  0.4688  0.3208 -0.1642
   80SOPE   H3R 7234   2.328   4.575   5.572 -1.1427 -0.8958  1.8867
   80SOPE   H3S 7235   2.369   4.438   5.668  1.2014 -0.4290 -0.4523
   80SOPE   C24 7236   2.471   4.428   5.484 -0.0613  0.2529 -0.2091
   80SOPE   H4R 7237   2.515   4.492   5.404 -0.1597  0.7821  0.1519
   80SOPE   H4S 7238   2.557   4.373   5.527 -0.1013  1.3140  1.3241
   80SOPE   C25 7239   2.379   4.330   5.411  0.5105  0.1105 -0.4294
   80SOPE   H5R 7240   2.443   4.271   5.342  0.3302 -0.2216 -0.3179
   80SOPE   H5S 7241   2.336   4.257   5.482  0.3189 -0.6781 -1.3255
   80SOPE   C26 7242   2.261   4.399   5.332  0.3798 -0.4992  0.4343
   80SOPE   H6R 7243   2.207   4.319   5.278  1.7901 -0.1993 -1.5455
   80SOPE   H6S 7244   2.192   4.429   5.414  1.9654  0.9080  1.3373
   80SOPE   C27 7245   2.295   4.510   5.243 -0.3055  0.1756 -0.1196
   80SOPE   H7R 7246   2.343   4.594   5.298  0.8678  0.0554 -0.9150
   80SOPE   H7S 7247   2.375   4.470   5.176  0.6667 -1.0515  1.6845
   80SOPE   C28 7248   2.174   4.554   5.163  0.1107 -0.3643  0.0643
   80SOPE   H8R 7249   2.140   4.461   5.113  0.0236  0.1891 -0.9321
   80SOPE   H8S 7250   2.092   4.596   5.224  1.1641  1.2549  0.4291
   80SOPE   C29 7251   2.209   4.654   5.061 -0.3502  0.3315 -0.5328
   80SOPE   H91 7252   2.254   4.745   5.105 -1.5037  0.4266  0.4931
   80SOPE  C210 7253   2.180   4.653   4.928 -0.6600  0.0279 -0.7600
   80SOPE  H101 7254   2.209   4.740   4.868  2.0346 -0.6948 -0.6209
   80SOPE  C211 7255   2.117   4.545   4.847 -0.1607 -0.1907  0.1746
   80SOPE  H11R 7256   2.088   4.459   4.911 -0.1836 -0.5328 -0.2874
   80SOPE  H11S 7257   2.187   4.506   4.770  0.1587  0.0664  0.3317
   80SOPE  C212 7258   1.994   4.602   4.773  0.0496 -0.0524  0.4169
   80SOPE  H12R 7259   2.012   4.709   4.747 -3.1031  0.7588  1.1684
   80SOPE  H12S 7260   1.911   4.599   4.846 -0.3498 -2.7214 -0.0281
   80SOPE  C213 7261   1.950   4.520   4.647 -0.4091  0.1975 -0.0178
   80SOPE  H13R 7262   1.939   4.417   4.687  0.7941 -0.1814 -0.6087
   80SOPE  H13S 7263   2.026   4.513   4.566 -1.2073  0.2670 -0.7889
   80SOPE  C214 7264   1.815   4.549   4.594 -0.2607  0.3532 -0.1574
   80SOPE  H14R 7265   1.752   4.558   4.685  1.9629 -1.7750  1.7690
   80SOPE  H14S 7266   1.782   4.454   4.548  0.9660 -0.7295  1.0998
   80SOPE  C215 7267   1.810   4.672   4.511  0.1378 -0.0886 -0.1479
   80SOPE  H15R 7268   1.869   4.753   4.560 -1.4130 -0.0875  1.8574
   80SOPE  H15S 7269   1.703   4.700   4.509  0.2098  0.6663  2.2711
   80SOPE  C216 7270   1.857   4.653   4.370 -0.1690 -0.7722 -0.3480
   80SOPE  H16R 7271   1.762   4.639   4.313 -0.4943 -0.4561  0.1169
   80SOPE  H16S 7272   1.919   4.560   4.368 -0.6089 -1.0817  0.0544
   80SOPE  C217 7273   1.934   4.768   4.311  0.0622  0.1577 -0.8828
   80SOPE  H17R 7274   2.028   4.773   4.371 -0.3567 -4.9539  0.7168
   80SOPE  H17S 7275   1.881   4.864   4.324  1.0530  1.0471 -2.9468
   80SOPE  C218 7276   1.963   4.751   4.164 -0.3482  0.3839  0.4283
   80SOPE  H18R 7277   1.869   4.779   4.110  0.5443  0.2091 -1.2933
   80SOPE  H18S 7278   2.003   4.652   4.135 -2.2188 -0.4174  0.4137
   80SOPE  H18T 7279   2.029   4.836   4.135  1.2895 -0.8258  0.4886
   80SOPE   C33 7280   2.243   4.875   5.674 -0.5311  0.8049  0.4716
   80SOPE   H3X 7281   2.199   4.798   5.740  2.1076 -0.2205  1.1493
   80SOPE   H3Y 7282   2.346   4.835   5.665 -1.0911 -0.2217 -2.0839
   80SOPE   C34 7283   2.173   4.898   5.540  0.0689  0.3037 -0.7727
   80SOPE   H4X 7284   2.094   4.973   5.561  2.0128  2.1852  0.2001
   80SOPE   H4Y 7285   2.116   4.806   5.519  0.3905  0.0967 -0.7421
   80SOPE   C35 7286   2.270   4.945   5.437 -1.0205 -0.3006  0.3313
   80SOPE   H5X 7287   2.354   4.872   5.436 -0.2988  0.5184 -0.2072
   80SOPE   H5Y 7288   2.309   5.045   5.466  2.6188 -1.3803 -0.3592
   80SOPE   C36 7289   2.199   4.974   5.308  0.1475  0.2269  0.0483
   80SOPE   H6X 7290   2.104   5.024   5.335 -0.1133 -0.1581 -0.1409
   80SOPE   H6Y 7291   2.174   4.877   5.258  1.1507  0.9883 -2.0467
   80SOPE   C37 7292   2.271   5.062   5.204  1.0192  0.7529  0.6407
   80SOPE   H7X 7293   2.374   5.023   5.183  0.8420  1.4021 -1.7274
   80SOPE   H7Y 7294   2.284   5.158   5.258  2.9493  1.8425 -1.5832
   80SOPE   C38 7295   2.204   5.072   5.066 -0.0179  0.7859  0.3246
   80SOPE   H8X 7296   2.112   5.133   5.079 -0.9685 -0.2464 -1.2201
   80SOPE   H8Y 7297   2.171   4.974   5.026 -0.1218  0.8248  0.3115
   80SOPE   C39 7298   2.289   5.141   4.957 -0.2556  0.4267  0.3058
   80SOPE   H9X 7299   2.391   5.101   4.937  0.0114  0.1160  2.0511
   80SOPE   H9Y 7300   2.304   5.242   5.000 -0.7067 -0.0515  1.6579
   80SOPE  C310 7301   2.214   5.157   4.823  0.0331 -0.1429  0.3599
   80SOPE  H10X 7302   2.114   5.201   4.837  0.8538  1.4628  1.4291
   80SOPE  H10Y 7303   2.206   5.052   4.786  1.3138 -0.9521  2.2034
   80SOPE  C311 7304   2.277   5.264   4.726 -0.2449 -0.3626 -0.7155
   80SOPE  H11X 7305   2.379   5.225   4.704 -0.7153 -2.6729  0.7986
   80SOPE  H11Y 7306   2.280   5.363   4.778 -1.1764 -1.2192  1.0710
   80SOPE  C312 7307   2.205   5.291   4.596  0.0952 -0.2000  0.2753
   80SOPE  H12X 7308   2.108   5.338   4.624  0.2987 -0.9737  2.5102
   80SOPE  H12Y 7309   2.193   5.191   4.550 -0.1763  0.0389 -0.1797
   80SOPE  C313 7310   2.278   5.393   4.509 -0.6054 -0.1476 -0.4126
   80SOPE  H13X 7311   2.370   5.339   4.478  0.1074  0.2805  0.8503
   80SOPE  H13Y 7312   2.300   5.476   4.579  2.3567 -1.1310 -0.0284
   80SOPE  C314 7313   2.188   5.439   4.390 -0.7300  0.5970 -0.0753
   80SOPE  H14X 7314   2.094   5.485   4.425 -0.8850  0.4100 -0.2470
   80SOPE  H14Y 7315   2.167   5.339   4.347  1.1458 -0.1961  0.7325
   80SOPE  C315 7316   2.262   5.531   4.291  0.4164  0.1564 -0.5655
   80SOPE  H15X 7317   2.323   5.475   4.217 -0.7129  0.7733 -2.0252
   80SOPE  H15Y 7318   2.316   5.598   4.361  0.0264 -2.3759  2.3790
   80SOPE  C316 7319   2.170   5.612   4.199 -0.4847 -0.2286  0.1045
   80SOPE  H16X 7320   2.121   5.687   4.264 -1.1667 -0.5886  0.0107
   80SOPE  H16Y 7321   2.092   5.545   4.158 -0.3882 -2.4430  3.1255
   80SOPE  C317 7322   2.248   5.698   4.094  0.8332 -0.1040 -0.5196
   80SOPE  H17X 7323   2.269   5.640   4.002 -0.1995 -2.3290  0.5557
   80SOPE  H17Y 7324   2.340   5.744   4.136  0.2160 -0.2133  1.0417
   80SOPE  C318 7325   2.146   5.806   4.046  0.1828  0.0813  0.3991
   80SOPE  H18X 7326   2.125   5.883   4.123 -0.9422  1.8601 -1.5668
   80SOPE  H18Y 7327   2.054   5.748   4.027 -1.5549  1.6355  3.3570
   80SOPE  H18Z 7328   2.172   5.858   3.951  0.3610 -0.0435  0.3802
   81SOPE     N 7329   2.621   6.298   6.264  0.3404 -0.4901  0.5733
   81SOPE   HN1 7330   2.547   6.281   6.336 -1.2561  0.2303 -0.8373
   81SOPE   HN2 7331   2.637   6.400   6.252 -0.4539 -0.6978 -3.8815
   81SOPE   HN3 7332   2.577   6.277   6.172 -0.8019  0.4946  0.8725
   81SOPE   C12 7333   2.751   6.232   6.295 -0.4584  0.5021  0.5124
   81SOPE  H12A 7334   2.734   6.124   6.278  1.3470 -0.0120  1.6598
   81SOPE  H12B 7335   2.777   6.247   6.402 -0.1256 -1.8166  0.8098
   81SOPE   C11 7336   2.858   6.284   6.193  0.6267 -0.3415 -0.5054
   81SOPE  H11A 7337   2.811   6.275   6.093  0.6172  0.0620 -0.5358
   81SOPE  H11B 7338   2.945   6.218   6.212  1.2049  0.4520 -0.3539
   81SOPE     P 7339   3.038   6.470   6.249  0.1880 -0.0383 -0.4045
   81SOPE   O13 7340   3.110   6.371   6.332 -0.3831 -0.5434  0.3267
   81SOPE   O14 7341   3.007   6.608   6.300  0.6888  0.3602  0.2690
   81SOPE   O12 7342   2.888   6.419   6.228 -0.0677  0.3350  0.4532
   81SOPE   O11 7343   3.105   6.481   6.107  0.2016  0.4464  0.2514
   81SOPE    C1 7344   3.025   6.503   5.989  0.1328 -0.3075 -0.1052
   81SOPE    HA 7345   3.071   6.582   5.926 -0.2176  0.8741  1.0757
   81SOPE    HB 7346   2.920   6.527   6.014  1.1008  2.6564  1.6142
   81SOPE    C2 7347   3.025   6.387   5.890 -0.5477  0.5229 -0.5559
   81SOPE    HS 7348   2.995   6.289   5.933 -1.2281 -1.8477 -5.7488
   81SOPE   O21 7349   3.154   6.378   5.824 -0.2021  0.3087  0.4130
   81SOPE   C21 7350   3.251   6.318   5.881 -0.2839 -0.2331  0.1894
   81SOPE   O22 7351   3.252   6.270   5.999 -0.3090 -0.2777 -0.1371
   81SOPE   C22 7352   3.378   6.316   5.793  0.3119  0.2840  0.2176
   81SOPE   H2R 7353   3.455   6.257   5.848  1.6373 -1.6594 -3.4267
   81SOPE   H2S 7354   3.416   6.420   5.788  1.4183 -0.1482 -0.6328
   81SOPE    C3 7355   2.916   6.407   5.783 -0.2644 -0.6759  0.4934
   81SOPE    HX 7356   2.937   6.504   5.732 -0.2069 -0.4956  0.8550
   81SOPE    HY 7357   2.821   6.421   5.839 -0.3575 -1.1530  0.4610
   81SOPE   O31 7358   2.903   6.303   5.693  0.2368 -0.1381  0.2136
   81SOPE   C31 7359   2.826   6.194   5.721 -0.0892 -0.1683 -0.2860
   81SOPE   O32 7360   2.740   6.194   5.801  0.3537 -0.2354 -0.2587
   81SOPE   C32 7361   2.840   6.094   5.613  0.2998  1.5620  0.6832
   81SOPE   H2X 7362   2.908   6.017   5.653 -0.4569  0.8424  0.6132
   81SOPE   H2Y 7363   2.888   6.141   5.524  1.8370 -0.9994  0.0753
   81SOPE   C23 7364   3.345   6.247   5.651  0.2207 -0.1513 -0.0678
   81SOPE   H3R 7365   3.239   6.255   5.621 -0.1805 -2.3928  0.6001
   81SOPE   H3S 7366   3.353   6.137   5.668  0.4708 -0.0161  0.7196
   81SOPE   C24 7367   3.448   6.309   5.557 -0.0900  1.0407 -0.4514
   81SOPE   H4R 7368   3.552   6.314   5.596 -1.2784  1.6323  3.0260
   81SOPE   H4S 7369   3.457   6.255   5.461  0.6401  0.5825 -0.1299
   81SOPE   C25 7370   3.407   6.449   5.520 -0.3696 -0.1554  0.9063
   81SOPE   H5R 7371   3.300   6.460   5.493 -0.4625 -0.5923  1.0906
   81SOPE   H5S 7372   3.417   6.513   5.610  0.7852  0.2779  0.4964
   81SOPE   C26 7373   3.488   6.512   5.397  0.3480 -0.3022 -0.4979
   81SOPE   H6R 7374   3.595   6.509   5.428  0.3045 -0.2033 -0.3385
   81SOPE   H6S 7375   3.475   6.443   5.311  0.0714 -0.4079 -0.3725
   81SOPE   C27 7376   3.428   6.643   5.349 -0.2014 -0.1545 -0.4159
   81SOPE   H7R 7377   3.328   6.625   5.303  0.2596  0.9226 -1.8857
   81SOPE   H7S 7378   3.414   6.702   5.442  1.7196  2.0967 -1.4572
   81SOPE   C28 7379   3.519   6.715   5.245 -0.7467  0.7452 -0.2379
   81SOPE   H8R 7380   3.621   6.720   5.287 -1.1881 -0.4128  1.0341
   81SOPE   H8S 7381   3.519   6.638   5.166 -1.2012 -0.4122  0.8580
   81SOPE   C29 7382   3.456   6.842   5.196 -0.1092 -1.0920 -0.5373
   81SOPE   H91 7383   3.428   6.902   5.284  0.0253  0.0083 -1.2382
   81SOPE  C210 7384   3.405   6.871   5.075 -0.1847 -0.1658  0.1342
   81SOPE  H101 7385   3.337   6.958   5.071  0.6887  0.5397  0.3265
   81SOPE  C211 7386   3.410   6.798   4.945  0.0888 -0.3137  0.0014
   81SOPE  H11R 7387   3.452   6.697   4.961  0.0445 -0.2181  0.7567
   81SOPE  H11S 7388   3.479   6.843   4.871  1.7673 -3.3373 -0.4111
   81SOPE  C212 7389   3.283   6.779   4.870  0.6193 -0.4624  0.2305
   81SOPE  H12R 7390   3.234   6.873   4.837 -0.2597 -1.1957 -0.6246
   81SOPE  H12S 7391   3.216   6.723   4.938  0.1670 -0.0488  0.1343
   81SOPE  C213 7392   3.288   6.698   4.751 -0.3211  0.3952 -0.4396
   81SOPE  H13R 7393   3.336   6.603   4.782 -1.4938  0.5074  1.9981
   81SOPE  H13S 7394   3.340   6.755   4.671 -2.7811  0.2976 -2.2327
   81SOPE  C214 7395   3.149   6.666   4.689 -0.1170  0.2783 -0.0566
   81SOPE  H14R 7396   3.104   6.752   4.635 -4.1811 -1.1016  0.7496
   81SOPE  H14S 7397   3.078   6.634   4.767 -0.9114  0.6441 -0.6127
   81SOPE  C215 7398   3.162   6.556   4.584 -0.1703  0.1002 -0.1474
   81SOPE  H15R 7399   3.065   6.502   4.576 -0.9563  1.6469 -1.7209
   81SOPE  H15S 7400   3.232   6.476   4.617 -1.2623  0.1966  2.6993
   81SOPE  C216 7401   3.192   6.604   4.446 -0.2645  0.0678  0.3429
   81SOPE  H16R 7402   3.287   6.662   4.442  1.0039 -1.9654 -0.1029
   81SOPE  H16S 7403   3.110   6.677   4.428  0.4584  0.6832 -0.5449
   81SOPE  C217 7404   3.215   6.492   4.329  0.0515  0.0226  0.1967
   81SOPE  H17R 7405   3.158   6.400   4.355  2.6849 -2.2379 -1.5184
   81SOPE  H17S 7406   3.323   6.468   4.331  0.3337  1.2070  0.1697
   81SOPE  C218 7407   3.170   6.546   4.196  0.7589 -0.2202  0.0660
   81SOPE  H18R 7408   3.060   6.558   4.201  0.7350 -0.5521  0.3741
   81SOPE  H18S 7409   3.201   6.474   4.118  2.4320  0.8366 -0.2912
   81SOPE  H18T 7410   3.210   6.647   4.173 -0.1752 -0.1917 -1.5373
   81SOPE   C33 7411   2.713   6.022   5.555  0.3213  0.2917 -0.2958
   81SOPE   H3X 7412   2.630   6.096   5.554  0.4532  0.4496 -1.4093
   81SOPE   H3Y 7413   2.692   5.935   5.620 -1.1379 -0.2319 -1.4063
   81SOPE   C34 7414   2.725   5.961   5.420 -1.1939 -0.6038  0.5816
   81SOPE   H4X 7415   2.638   5.893   5.404 -1.8466  0.6622 -1.6251
   81SOPE   H4Y 7416   2.815   5.896   5.414 -0.4797  0.4100  0.0452
   81SOPE   C35 7417   2.731   6.064   5.305 -0.2260 -0.1693 -0.0098
   81SOPE   H5X 7418   2.832   6.111   5.302 -0.5416  0.6292  1.0659
   81SOPE   H5Y 7419   2.654   6.143   5.310 -0.4056 -0.3992  1.2577
   81SOPE   C36 7420   2.701   5.995   5.170 -0.0708  0.4286 -0.2923
   81SOPE   H6X 7421   2.607   5.937   5.177 -0.6481  1.4677  0.8936
   81SOPE   H6Y 7422   2.784   5.927   5.141 -0.5875  0.5616 -2.2534
   81SOPE   C37 7423   2.703   6.100   5.055 -0.3705  0.0342  0.7284
   81SOPE   H7X 7424   2.809   6.125   5.031 -0.4822 -0.7347 -0.6986
   81SOPE   H7Y 7425   2.657   6.192   5.096 -1.9353 -0.8216  0.9736
   81SOPE   C38 7426   2.639   6.049   4.923 -0.7006  0.0698  0.2684
   81SOPE   H8X 7427   2.528   6.054   4.917 -0.7870 -0.6278  1.0810
   81SOPE   H8Y 7428   2.673   5.945   4.905  0.0299  0.7187 -2.4796
   81SOPE   C39 7429   2.699   6.128   4.800  0.3688  1.1090 -1.0992
   81SOPE   H9X 7430   2.809   6.137   4.813  0.6830 -2.4682 -0.2844
   81SOPE   H9Y 7431   2.647   6.227   4.798 -1.3625  0.2310 -2.6902
   81SOPE  C310 7432   2.681   6.054   4.668  0.3205  0.4216  0.1099
   81SOPE  H10X 7433   2.578   6.012   4.662  0.7088 -0.4529 -0.8151
   81SOPE  H10Y 7434   2.750   5.967   4.660 -0.2228 -0.0185  0.1654
   81SOPE  C311 7435   2.721   6.148   4.540  0.0150  0.7597 -0.6391
   81SOPE  H11X 7436   2.823   6.189   4.559  0.1223 -0.4800  1.8369
   81SOPE  H11Y 7437   2.647   6.227   4.516 -1.1800 -0.8664 -2.6246
   81SOPE  C312 7438   2.709   6.068   4.407  0.2274  0.5829 -0.2826
   81SOPE  H12X 7439   2.607   6.028   4.390 -0.5854  1.8175  1.3519
   81SOPE  H12Y 7440   2.770   5.977   4.426 -0.8481 -0.7174 -2.6112
   81SOPE  C313 7441   2.756   6.146   4.280 -0.4079  0.3289 -0.3658
   81SOPE  H13X 7442   2.852   6.202   4.282  0.1842 -0.6870  0.2980
   81SOPE  H13Y 7443   2.677   6.224   4.274 -0.3777  0.3803 -0.1055
   81SOPE  C314 7444   2.767   6.064   4.147  0.4955  0.3029 -0.8127
   81SOPE  H14X 7445   2.852   5.992   4.142 -0.5813 -1.0954  0.1218
   81SOPE  H14Y 7446   2.779   6.135   4.063 -0.8688  1.5980  0.0333
   81SOPE  C315 7447   2.647   5.986   4.103  0.3484 -0.3781  0.5781
   81SOPE  H15X 7448   2.557   6.052   4.103  1.2559  0.9758  3.3299
   81SOPE  H15Y 7449   2.642   5.896   4.168  1.4469 -0.1898  0.9425
   81SOPE  C316 7450   2.661   5.946   3.946 -0.1405 -0.1259  0.3027
   81SOPE  H16X 7451   2.753   5.885   3.933  1.2246  1.8070  0.3607
   81SOPE  H16Y 7452   2.668   6.045   3.895  0.5860 -0.2859  0.0828
   81SOPE  C317 7453   2.540   5.864   3.894 -0.4024 -0.0475  0.7155
   81SOPE  H17X 7454   2.442   5.915   3.891 -1.1083 -1.3861 -0.4513
   81SOPE  H17Y 7455   2.516   5.777   3.959 -2.2685  0.3321  0.5902
   81SOPE  C318 7456   2.567   5.806   3.755  0.0050 -0.4676  0.0364
   81SOPE  H18X 7457   2.587   5.882   3.676 -0.0806 -1.8551 -1.3726
   81SOPE  H18Y 7458   2.483   5.746   3.714  0.7040 -0.4476 -1.5028
   81SOPE  H18Z 7459   2.656   5.740   3.757 -0.0975 -0.5861  1.4945
   82SOPE     N 7460   6.938   1.232   6.169  0.3064  0.3550 -0.3081
   82SOPE   HN1 7461   6.886   1.142   6.158 -0.4526  0.7197  0.2262
   82SOPE   HN2 7462   6.879   1.304   6.124 -0.4220  0.8420  1.3629
   82SOPE   HN3 7463   7.025   1.230   6.112  0.6130 -3.2401  0.0260
   82SOPE   C12 7464   6.966   1.269   6.305 -0.0826  0.1465 -0.0399
   82SOPE  H12A 7465   6.878   1.256   6.373  0.8292 -1.2895  0.9201
   82SOPE  H12B 7466   6.983   1.378   6.293  1.2962 -0.2277 -1.8276
   82SOPE   C11 7467   7.093   1.199   6.351  0.8624  0.3683 -0.3446
   82SOPE  H11A 7468   7.133   1.258   6.436  1.5978  1.4213 -1.3763
   82SOPE  H11B 7469   7.175   1.201   6.277  2.3790  0.3312  1.2853
   82SOPE     P 7470   7.175   0.956   6.405  0.2825 -0.2332 -0.0912
   82SOPE   O13 7471   7.109   0.833   6.444 -0.3344  0.0156 -0.0123
   82SOPE   O14 7472   7.286   1.001   6.492 -0.3619  0.8519 -0.5424
   82SOPE   O12 7473   7.059   1.069   6.397 -0.6357  0.2292 -0.5153
   82SOPE   O11 7474   7.215   0.948   6.244 -0.0004  0.4963  0.5048
   82SOPE    C1 7475   7.107   0.921   6.147  0.0057 -0.0218 -0.2242
   82SOPE    HA 7476   7.107   1.003   6.072 -2.0193  1.2401  1.0495
   82SOPE    HB 7477   7.004   0.917   6.188 -0.7425  1.6856 -1.8147
   82SOPE    C2 7478   7.136   0.797   6.066 -0.3431  0.8297 -0.3770
   82SOPE    HS 7479   7.144   0.714   6.139  1.2675  1.3942  0.1207
   82SOPE   O21 7480   7.261   0.826   6.007  0.2271  0.3072  0.2891
   82SOPE   C21 7481   7.330   0.712   5.974 -0.0783  0.4379  0.2931
   82SOPE   O22 7482   7.296   0.602   6.006 -0.1597  0.2869  0.6050
   82SOPE   C22 7483   7.446   0.750   5.875 -0.0521 -0.7177  0.0620
   82SOPE   H2R 7484   7.540   0.782   5.926 -0.0206  0.6934 -0.8539
   82SOPE   H2S 7485   7.410   0.838   5.818 -1.7488 -0.8439  0.8764
   82SOPE    C3 7486   7.017   0.763   5.967  0.4821  0.0475 -0.0138
   82SOPE    HX 7487   7.018   0.849   5.896 -2.4768  1.0393  1.0161
   82SOPE    HY 7488   6.912   0.768   6.002  0.6001  0.2849  0.3106
   82SOPE   O31 7489   7.038   0.631   5.904 -0.3670 -0.4682 -0.0390
   82SOPE   C31 7490   7.007   0.536   5.985 -0.2900 -0.1292  0.6618
   82SOPE   O32 7491   6.947   0.553   6.092  0.4451 -0.3269  0.0806
   82SOPE   C32 7492   7.018   0.399   5.921 -0.3207 -0.0917 -0.8050
   82SOPE   H2X 7493   6.917   0.353   5.925 -0.8845  1.1707  2.4171
   82SOPE   H2Y 7494   7.084   0.346   5.993 -0.1829 -0.7039 -1.3678
   82SOPE   C23 7495   7.493   0.623   5.795  0.2828 -0.7813  0.6754
   82SOPE   H3R 7496   7.507   0.537   5.864 -0.6546  0.1190  2.0459
   82SOPE   H3S 7497   7.589   0.645   5.744 -0.9325 -0.8403 -1.7865
   82SOPE   C24 7498   7.393   0.594   5.689  0.0694  0.7516  0.5144
   82SOPE   H4R 7499   7.403   0.493   5.645 -1.1171  0.3313  1.1662
   82SOPE   H4S 7500   7.288   0.609   5.723 -0.5481 -0.9379 -0.5382
   82SOPE   C25 7501   7.401   0.688   5.572  0.0028 -0.0644 -0.2264
   82SOPE   H5R 7502   7.367   0.780   5.622 -0.1179 -1.0249  1.5403
   82SOPE   H5S 7503   7.509   0.694   5.544  0.6027  0.0530  1.9488
   82SOPE   C26 7504   7.304   0.656   5.459 -0.2544  0.9775 -0.5506
   82SOPE   H6R 7505   7.316   0.547   5.440  2.2073  1.1431 -0.1913
   82SOPE   H6S 7506   7.204   0.677   5.503  1.1588  0.5448  3.1580
   82SOPE   C27 7507   7.340   0.747   5.335 -0.0040  0.6530 -0.6046
   82SOPE   H7R 7508   7.248   0.809   5.325  0.1686  1.7437  2.9461
   82SOPE   H7S 7509   7.433   0.802   5.361  2.6935 -2.0327 -3.6467
   82SOPE   C28 7510   7.378   0.671   5.214 -0.4369  0.2105 -0.0732
   82SOPE   H8R 7511   7.459   0.596   5.227 -0.6027  0.1249  0.5222
   82SOPE   H8S 7512   7.284   0.616   5.194 -1.2758 -0.0639  3.8431
   82SOPE   C29 7513   7.407   0.755   5.095  0.5262 -0.2495 -0.1622
   82SOPE   H91 7514   7.488   0.826   5.115 -0.5110  0.8968  0.1057
   82SOPE  C210 7515   7.343   0.769   4.971  0.5834  0.2178  0.0319
   82SOPE  H101 7516   7.368   0.850   4.901  0.3328  0.3512  0.0959
   82SOPE  C211 7517   7.218   0.688   4.930  0.3950 -0.0106 -0.8604
   82SOPE  H11R 7518   7.207   0.590   4.980 -0.2066  0.9029  0.8563
   82SOPE  H11S 7519   7.224   0.675   4.819  0.2056  0.8746 -0.9842
   82SOPE  C212 7520   7.088   0.769   4.960 -0.4820  0.3747  0.1305
   82SOPE  H12R 7521   7.018   0.719   4.889  0.8794 -0.0908 -0.9293
   82SOPE  H12S 7522   7.096   0.865   4.906 -0.2770  0.3513  0.1177
   82SOPE  C213 7523   7.043   0.777   5.105 -0.0439  0.0857 -0.1977
   82SOPE  H13R 7524   7.120   0.832   5.163 -0.2949  1.3256 -1.0050
   82SOPE  H13S 7525   7.047   0.669   5.132  0.9566  0.4709  1.3415
   82SOPE  C214 7526   6.898   0.820   5.132 -0.0169 -0.6969 -0.0555
   82SOPE  H14R 7527   6.826   0.752   5.081 -0.3023  0.4914 -1.2795
   82SOPE  H14S 7528   6.895   0.915   5.076  0.5017 -0.9956 -0.6053
   82SOPE  C215 7529   6.862   0.836   5.279 -0.5754  0.1404 -0.5391
   82SOPE  H15R 7530   6.758   0.875   5.281 -1.8286 -2.8605 -1.6282
   82SOPE  H15S 7531   6.924   0.915   5.328  0.3808 -0.8654 -0.0860
   82SOPE  C216 7532   6.889   0.702   5.353  0.2257 -0.9132 -0.6321
   82SOPE  H16R 7533   6.999   0.686   5.362  0.4267  1.1289  1.6037
   82SOPE  H16S 7534   6.844   0.624   5.289 -0.7551  1.1921 -2.6771
   82SOPE  C217 7535   6.830   0.705   5.500 -0.3426  0.3387  0.2008
   82SOPE  H17R 7536   6.810   0.600   5.529  0.7501 -0.6374 -2.3000
   82SOPE  H17S 7537   6.729   0.749   5.511 -0.3722  0.0400  1.3053
   82SOPE  C218 7538   6.923   0.772   5.602 -0.0913  0.2678  0.3420
   82SOPE  H18R 7539   6.880   0.791   5.703 -1.4717 -3.6329  0.6654
   82SOPE  H18S 7540   6.950   0.869   5.555  0.1699  0.7593  1.4839
   82SOPE  H18T 7541   7.010   0.706   5.622  0.2013  0.6636  0.3836
   82SOPE   C33 7542   7.082   0.386   5.777  0.2066  0.3414  0.0178
   82SOPE   H3X 7543   7.190   0.412   5.780  1.1541 -3.0925 -0.1640
   82SOPE   H3Y 7544   7.034   0.459   5.708 -0.2761  0.8658  0.8825
   82SOPE   C34 7545   7.082   0.245   5.729 -0.4199  0.0964 -0.7785
   82SOPE   H4X 7546   7.119   0.174   5.806  1.4466  1.7407 -0.0758
   82SOPE   H4Y 7547   7.156   0.241   5.646 -1.2457 -0.2864 -1.5210
   82SOPE   C35 7548   6.946   0.200   5.681 -0.0089 -0.4453 -0.1562
   82SOPE   H5X 7549   6.872   0.282   5.698 -1.4754 -1.9235  0.9783
   82SOPE   H5Y 7550   6.902   0.113   5.734  0.9961 -0.5824  0.4868
   82SOPE   C36 7551   6.953   0.159   5.534 -0.3891 -0.3070  0.7132
   82SOPE   H6X 7552   6.858   0.112   5.501  0.0152  0.3201 -1.5368
   82SOPE   H6Y 7553   7.026   0.080   5.506 -0.6869  0.2312 -1.8432
   82SOPE   C37 7554   6.998   0.284   5.443  0.0060  0.1977 -0.3124
   82SOPE   H7X 7555   7.101   0.312   5.471  0.9221 -0.8832 -2.4184
   82SOPE   H7Y 7556   6.913   0.354   5.458 -0.1617  0.3983 -2.0810
   82SOPE   C38 7557   6.995   0.244   5.302 -0.5701  0.5522 -0.4445
   82SOPE   H8X 7558   6.894   0.202   5.285 -1.4369  1.6539  1.6221
   82SOPE   H8Y 7559   7.071   0.163   5.301  0.1375  1.2042 -0.7567
   82SOPE   C39 7560   7.022   0.350   5.197  0.1178 -0.2794  0.0679
   82SOPE   H9X 7561   7.133   0.351   5.185  0.0822  0.0842 -0.2532
   82SOPE   H9Y 7562   6.990   0.452   5.229 -1.6741  0.3008 -3.1747
   82SOPE  C310 7563   6.960   0.300   5.068 -0.4875  0.4579  0.1368
   82SOPE  H10X 7564   6.849   0.295   5.077 -0.7968  0.1452 -2.8406
   82SOPE  H10Y 7565   6.977   0.192   5.053  0.2753  0.4593  0.9461
   82SOPE  C311 7566   6.999   0.387   4.951  0.0654 -0.5433 -0.5443
   82SOPE  H11X 7567   7.109   0.407   4.948 -0.0779  0.8916  1.5139
   82SOPE  H11Y 7568   6.959   0.489   4.972  2.5220  0.3065  0.4438
   82SOPE  C312 7569   6.939   0.337   4.812 -0.9215 -0.0649  0.0251
   82SOPE  H12X 7570   6.828   0.331   4.807 -0.8524 -0.9321 -3.8611
   82SOPE  H12Y 7571   6.982   0.236   4.791  0.8550  0.6519  0.0837
   82SOPE  C313 7572   6.981   0.432   4.698 -0.2322  0.6125 -0.5685
   82SOPE  H13X 7573   7.092   0.435   4.689 -0.2233  2.0377 -0.1856
   82SOPE  H13Y 7574   6.940   0.532   4.725 -2.5791 -0.7772  1.3916
   82SOPE  C314 7575   6.929   0.385   4.558  0.4373  0.0178  0.3143
   82SOPE  H14X 7576   6.835   0.327   4.560  0.7011 -0.5458 -1.6203
   82SOPE  H14Y 7577   7.006   0.314   4.520  1.8435  1.7660 -0.2531
   82SOPE  C315 7578   6.927   0.489   4.440  0.3943 -0.1058 -0.0396
   82SOPE  H15X 7579   7.030   0.525   4.417 -0.1527  0.5652 -1.5931
   82SOPE  H15Y 7580   6.863   0.575   4.471  0.5693 -0.2658  0.7898
   82SOPE  C316 7581   6.860   0.452   4.303 -0.1711 -0.8999  0.0848
   82SOPE  H16X 7582   6.906   0.360   4.260 -0.5507 -0.7296 -0.6918
   82SOPE  H16Y 7583   6.874   0.540   4.237 -1.2733 -0.1728  0.7773
   82SOPE  C317 7584   6.713   0.420   4.314  0.0759 -0.7960 -0.9026
   82SOPE  H17X 7585   6.660   0.514   4.340 -1.3957 -2.1849  1.5897
   82SOPE  H17Y 7586   6.697   0.345   4.395 -0.0964 -0.0162 -0.2004
   82SOPE  C318 7587   6.669   0.354   4.187  0.0175  0.1224  0.3235
   82SOPE  H18X 7588   6.740   0.275   4.153 -0.5966  0.5981 -2.2814
   82SOPE  H18Y 7589   6.658   0.428   4.105 -1.1392 -0.9795 -0.5619
   82SOPE  H18Z 7590   6.569   0.306   4.196 -0.8439  2.0858  1.8513
   83SOPE     N 7591   2.799   5.570   1.785  0.2146  0.0176 -0.4062
   83SOPE   HN1 7592   2.786   5.673   1.796 -0.8075 -0.0425 -0.9468
   83SOPE   HN2 7593   2.873   5.553   1.856  0.3566  1.9208 -0.0294
   83SOPE   HN3 7594   2.843   5.564   1.692 -1.3941  1.1743 -1.3053
   83SOPE   C12 7595   2.671   5.497   1.807 -0.1701 -0.0910  0.2580
   83SOPE  H12A 7596   2.588   5.536   1.744 -0.3486 -0.3054  0.3580
   83SOPE  H12B 7597   2.643   5.510   1.914 -0.1425 -1.8368  0.5007
   83SOPE   C11 7598   2.689   5.348   1.760 -0.3421  0.3188  0.1642
   83SOPE  H11A 7599   2.709   5.352   1.650  0.3096  3.1040  0.3082
   83SOPE  H11B 7600   2.596   5.291   1.779  0.6375 -0.9285  1.4715
   83SOPE     P 7601   2.874   5.154   1.778 -0.3990 -0.3762  0.2255
   83SOPE   O13 7602   3.020   5.189   1.757 -0.1851 -0.0675 -0.4004
   83SOPE   O14 7603   2.810   5.103   1.661 -0.6351 -0.0848  0.5409
   83SOPE   O12 7604   2.794   5.283   1.827 -0.2581  0.2978  0.5746
   83SOPE   O11 7605   2.853   5.051   1.901 -0.4093 -0.3975 -0.2412
   83SOPE    C1 7606   2.878   5.093   2.034 -0.4092  0.7958  0.4480
   83SOPE    HA 7607   2.787   5.084   2.098  1.1628  0.5318  2.7673
   83SOPE    HB 7608   2.917   5.197   2.038  2.3522 -0.1465  0.1631
   83SOPE    C2 7609   2.996   5.006   2.104  0.1181  0.0474  0.1157
   83SOPE    HS 7610   3.076   5.006   2.027 -0.8757  1.3924 -0.9495
   83SOPE   O21 7611   2.938   4.881   2.147 -0.2728 -0.8185  0.0446
   83SOPE   C21 7612   3.025   4.780   2.155  0.6785 -0.2358  0.1698
   83SOPE   O22 7613   3.137   4.781   2.113 -0.6703  0.2173  0.4147
   83SOPE   C22 7614   2.939   4.664   2.212 -0.1017 -0.2240 -0.3325
   83SOPE   H2R 7615   2.849   4.652   2.149 -0.0313  2.2056 -0.9926
   83SOPE   H2S 7616   2.907   4.695   2.314 -0.0677  1.0879 -0.6972
   83SOPE    C3 7617   3.054   5.086   2.229  0.9928 -0.5972  0.0211
   83SOPE    HX 7618   2.975   5.085   2.307  2.0424  0.6673  1.1469
   83SOPE    HY 7619   3.067   5.192   2.201  0.4831  0.0704  2.1276
   83SOPE   O31 7620   3.173   5.032   2.281 -0.3330 -0.2403  0.4480
   83SOPE   C31 7621   3.169   4.980   2.406 -0.2396 -0.6744 -0.6510
   83SOPE   O32 7622   3.073   4.988   2.477  0.8033  0.6718 -0.0292
   83SOPE   C32 7623   3.297   4.914   2.455  0.3315  0.7425 -0.0143
   83SOPE   H2X 7624   3.332   4.842   2.377 -0.0248  1.2786 -0.6818
   83SOPE   H2Y 7625   3.271   4.864   2.550 -4.1565 -1.4257 -2.0895
   83SOPE   C23 7626   3.017   4.528   2.216  0.1351 -0.5081  0.2872
   83SOPE   H3R 7627   3.054   4.492   2.118  0.5967 -2.5343  1.1455
   83SOPE   H3S 7628   2.947   4.453   2.258  1.7857 -1.8955  0.6708
   83SOPE   C24 7629   3.133   4.530   2.307 -0.9558 -0.0525  0.5253
   83SOPE   H4R 7630   3.197   4.440   2.299  1.9436  1.8760  0.5755
   83SOPE   H4S 7631   3.201   4.611   2.272  0.4746 -0.6420  1.8304
   83SOPE   C25 7632   3.108   4.541   2.455  0.1640  0.3613  0.1666
   83SOPE   H5R 7633   3.041   4.628   2.468 -0.9030 -0.5022  0.5879
   83SOPE   H5S 7634   3.067   4.452   2.508 -0.0089 -0.1792 -0.8541
   83SOPE   C26 7635   3.244   4.559   2.526  0.4328 -0.6151  0.5868
   83SOPE   H6R 7636   3.308   4.468   2.524  2.0399  0.4742  0.3197
   83SOPE   H6S 7637   3.303   4.637   2.473  0.0390 -0.4326  0.4172
   83SOPE   C27 7638   3.222   4.596   2.671 -0.4238  0.4734 -0.1414
   83SOPE   H7R 7639   3.151   4.682   2.683 -1.3664 -0.2002 -0.7633
   83SOPE   H7S 7640   3.185   4.513   2.735  0.3750 -0.3501 -0.7318
   83SOPE   C28 7641   3.359   4.637   2.739 -0.8195  0.4966  0.7941
   83SOPE   H8R 7642   3.399   4.729   2.692 -0.6941 -0.6628 -1.5003
   83SOPE   H8S 7643   3.336   4.645   2.847 -0.9019 -1.3315  0.9427
   83SOPE   C29 7644   3.481   4.552   2.730 -0.6121 -0.4609  0.0805
   83SOPE   H91 7645   3.505   4.536   2.624  0.2065 -0.1600  0.2108
   83SOPE  C210 7646   3.563   4.497   2.825 -0.4932 -0.0557  0.3848
   83SOPE  H101 7647   3.652   4.442   2.791  0.2824  0.3041  1.7786
   83SOPE  C211 7648   3.551   4.521   2.977 -0.3735  0.2163 -0.4092
   83SOPE  H11R 7649   3.474   4.447   3.007 -1.1909  1.4425  0.6606
   83SOPE  H11S 7650   3.508   4.622   2.996  0.2892  0.4932 -0.3666
   83SOPE  C212 7651   3.676   4.485   3.069 -0.1941  0.9391 -0.2842
   83SOPE  H12R 7652   3.774   4.534   3.051 -0.0383  0.6855 -0.1421
   83SOPE  H12S 7653   3.692   4.375   3.066 -0.4554  0.9163 -1.2878
   83SOPE  C213 7654   3.652   4.527   3.221  0.7125  0.1773  1.2590
   83SOPE  H13R 7655   3.555   4.484   3.253  0.5128  1.5795  2.6506
   83SOPE  H13S 7656   3.638   4.637   3.234 -1.1193  0.3522 -1.4456
   83SOPE  C214 7657   3.765   4.478   3.311 -0.7510  0.0276 -0.8228
   83SOPE  H14R 7658   3.854   4.542   3.294 -0.3667 -0.1704  0.3567
   83SOPE  H14S 7659   3.793   4.372   3.298  2.7146  0.6354  0.6728
   83SOPE  C215 7660   3.710   4.491   3.455 -0.3006  0.8502  0.0757
   83SOPE  H15R 7661   3.608   4.449   3.452 -0.8778  2.2596 -1.0020
   83SOPE  H15S 7662   3.702   4.597   3.488  1.8780  1.3691 -0.9238
   83SOPE  C216 7663   3.785   4.421   3.570 -0.1798  0.2042  0.0689
   83SOPE  H16R 7664   3.816   4.323   3.528  0.0694  0.4604 -0.3472
   83SOPE  H16S 7665   3.715   4.398   3.653 -2.6233 -0.6109 -2.1167
   83SOPE  C217 7666   3.914   4.489   3.626  0.5962 -0.2913 -0.3667
   83SOPE  H17R 7667   3.895   4.598   3.617  0.1324 -0.1526  1.8004
   83SOPE  H17S 7668   4.004   4.466   3.565  1.2170  0.3135  0.2970
   83SOPE  C218 7669   3.949   4.462   3.772 -0.7578 -0.3342 -0.1982
   83SOPE  H18R 7670   4.049   4.509   3.789  0.3340 -2.0540 -1.4592
   83SOPE  H18S 7671   3.956   4.354   3.795 -0.2421 -0.1284  0.6686
   83SOPE  H18T 7672   3.874   4.509   3.839  2.6160  0.6531  3.2712
   83SOPE   C33 7673   3.416   5.018   2.476  0.0420 -0.4422 -0.2495
   83SOPE   H3X 7674   3.375   5.114   2.515 -0.8775 -0.8117 -0.3002
   83SOPE   H3Y 7675   3.461   5.037   2.376  0.0335  1.9801  0.1331
   83SOPE   C34 7676   3.523   4.960   2.569 -0.3750 -0.3636  0.1835
   83SOPE   H4X 7677   3.613   5.012   2.529 -0.3811 -1.2458 -1.0284
   83SOPE   H4Y 7678   3.548   4.853   2.549 -3.2105 -0.6810 -2.2126
   83SOPE   C35 7679   3.497   4.999   2.722 -0.4297  0.4701  1.1609
   83SOPE   H5X 7680   3.391   4.973   2.744 -1.2958  2.4063 -0.3771
   83SOPE   H5Y 7681   3.503   5.110   2.732  0.0794  0.5766 -0.1814
   83SOPE   C36 7682   3.588   4.927   2.811 -0.5484  0.3697 -0.3516
   83SOPE   H6X 7683   3.694   4.953   2.788 -0.8131 -0.8882 -3.4055
   83SOPE   H6Y 7684   3.610   4.819   2.794  1.3457  0.6028  0.3553
   83SOPE   C37 7685   3.558   4.942   2.961 -0.0807  0.1635  0.3047
   83SOPE   H7X 7686   3.462   4.889   2.980  0.0576 -0.1220  0.2139
   83SOPE   H7Y 7687   3.552   5.052   2.973 -0.3588  0.3883 -1.6045
   83SOPE   C38 7688   3.669   4.897   3.056  0.1967 -0.8289  0.9880
   83SOPE   H8X 7689   3.761   4.954   3.029  1.7973 -3.2746  0.9532
   83SOPE   H8Y 7690   3.698   4.791   3.039  0.4348 -0.2309 -4.1020
   83SOPE   C39 7691   3.650   4.923   3.199  1.1606 -0.4707  0.4883
   83SOPE   H9X 7692   3.564   4.862   3.233  0.2032  0.5338 -0.0698
   83SOPE   H9Y 7693   3.611   5.026   3.213  2.2302 -0.2286  1.9502
   83SOPE  C310 7694   3.778   4.905   3.289 -0.0651 -0.1412 -0.4337
   83SOPE  H10X 7695   3.859   4.969   3.249  0.0577  0.8226  1.2782
   83SOPE  H10Y 7696   3.820   4.802   3.289 -1.3281 -0.6906 -1.4231
   83SOPE  C311 7697   3.750   4.937   3.441 -1.0393  0.0386  0.0644
   83SOPE  H11X 7698   3.683   4.854   3.472 -1.2462  0.6469  1.3155
   83SOPE  H11Y 7699   3.709   5.040   3.451  2.1116  1.5224 -1.0202
   83SOPE  C312 7700   3.884   4.937   3.521  0.1159 -0.1472  0.2206
   83SOPE  H12X 7701   3.958   4.991   3.459  0.7269 -0.2030  0.8808
   83SOPE  H12Y 7702   3.914   4.833   3.549  1.7242  0.0430 -0.6878
   83SOPE  C313 7703   3.880   5.003   3.660  0.1053  0.3605  0.9948
   83SOPE  H13X 7704   3.804   4.944   3.717 -1.2727 -0.2107 -1.2969
   83SOPE  H13Y 7705   3.834   5.104   3.648 -0.8741 -0.2010 -0.2655
   83SOPE  C314 7706   4.015   4.992   3.738  0.0971 -0.3561 -0.0611
   83SOPE  H14X 7707   4.052   5.096   3.752  1.2099 -0.1737 -3.6131
   83SOPE  H14Y 7708   4.102   4.944   3.690 -0.3388 -2.2948  0.9987
   83SOPE  C315 7709   4.003   4.920   3.872 -0.3701  0.3196 -0.8361
   83SOPE  H15X 7710   3.972   4.814   3.857 -1.0538  0.2554  0.8034
   83SOPE  H15Y 7711   3.922   4.962   3.936  0.3231 -3.2561  2.8167
   83SOPE  C316 7712   4.126   4.911   3.959  0.1389 -0.6939 -0.3173
   83SOPE  H16X 7713   4.165   5.012   3.980 -1.6728  0.2776 -1.3763
   83SOPE  H16Y 7714   4.208   4.854   3.910  2.1024  0.5480  1.4059
   83SOPE  C317 7715   4.105   4.855   4.098  0.6390  0.1509 -0.3205
   83SOPE  H17X 7716   4.034   4.921   4.153  0.0407  1.6967 -2.7993
   83SOPE  H17Y 7717   4.203   4.852   4.148  0.7077 -0.7069 -0.4949
   83SOPE  C318 7718   4.051   4.710   4.103  0.0558 -0.4329 -0.7681
   83SOPE  H18X 7719   3.946   4.691   4.072  0.3514 -1.2097 -1.3112
   83SOPE  H18Y 7720   4.056   4.685   4.211  2.8198 -0.6513 -0.8885
   83SOPE  H18Z 7721   4.126   4.644   4.055  0.5718 -0.1219 -0.3951
   84SOPE     N 7722   2.283   4.400   1.645  0.9691 -0.3469  0.4354
   84SOPE   HN1 7723   2.347   4.360   1.573  2.9068  0.2928  1.7606
   84SOPE   HN2 7724   2.183   4.376   1.624  0.7730  1.7831 -1.3634
   84SOPE   HN3 7725   2.284   4.504   1.643 -2.3851 -0.2165 -0.2154
   84SOPE   C12 7726   2.325   4.332   1.776 -0.0239  0.3510 -0.1079
   84SOPE  H12A 7727   2.321   4.223   1.754  0.3585  0.0400  1.3072
   84SOPE  H12B 7728   2.243   4.356   1.846  0.8250  1.3093  0.5854
   84SOPE   C11 7729   2.462   4.374   1.819 -0.1767  0.0654  0.4088
   84SOPE  H11A 7730   2.492   4.329   1.917  1.0617  0.0432  0.0433
   84SOPE  H11B 7731   2.470   4.485   1.824 -1.3878  0.2533 -1.2296
   84SOPE     P 7732   2.699   4.262   1.738  0.4110  0.2543 -0.2472
   84SOPE   O13 7733   2.799   4.305   1.637 -0.5423 -0.3429 -0.0796
   84SOPE   O14 7734   2.668   4.116   1.752  0.0540 -0.1108  0.4022
   84SOPE   O12 7735   2.559   4.336   1.717  0.0402 -0.0975  0.6376
   84SOPE   O11 7736   2.745   4.332   1.876 -0.2810 -0.3285 -0.1766
   84SOPE    C1 7737   2.817   4.255   1.964 -0.1021 -0.6928 -0.1203
   84SOPE    HA 7738   2.893   4.326   2.003 -1.0783 -1.1478  2.9522
   84SOPE    HB 7739   2.883   4.187   1.907  0.8922  1.4508 -1.6519
   84SOPE    C2 7740   2.732   4.207   2.073 -0.3635  0.2919 -0.7138
   84SOPE    HS 7741   2.653   4.146   2.026  2.9211 -1.7755 -4.0693
   84SOPE   O21 7742   2.682   4.327   2.142 -0.5645  0.5450  0.4171
   84SOPE   C21 7743   2.574   4.312   2.220  0.0970  0.3191 -0.2961
   84SOPE   O22 7744   2.527   4.207   2.259 -0.8750  0.6071  0.2344
   84SOPE   C22 7745   2.544   4.453   2.283 -0.0314  1.1524 -0.5612
   84SOPE   H2R 7746   2.508   4.513   2.196 -1.6952 -1.0781 -1.4861
   84SOPE   H2S 7747   2.643   4.495   2.310  1.6769 -1.4698 -2.2247
   84SOPE    C3 7748   2.805   4.114   2.176 -0.5244  0.1048  0.1122
   84SOPE    HX 7749   2.832   4.026   2.114  0.9548  0.0782  0.7544
   84SOPE    HY 7750   2.727   4.087   2.251 -0.8398 -1.2834 -0.6857
   84SOPE   O31 7751   2.915   4.175   2.247 -0.0609 -0.1434 -0.3933
   84SOPE   C31 7752   2.990   4.083   2.321 -0.7414  0.0609 -0.3687
   84SOPE   O32 7753   2.972   3.963   2.318  0.4299  0.6366  0.0233
   84SOPE   C32 7754   3.087   4.157   2.417 -0.0848 -0.2910  0.0008
   84SOPE   H2X 7755   3.037   4.249   2.454  0.1313  0.0421 -0.5226
   84SOPE   H2Y 7756   3.168   4.193   2.350  0.0385 -1.8615 -0.7588
   84SOPE   C23 7757   2.445   4.454   2.390  0.4013  0.3893 -0.0689
   84SOPE   H3R 7758   2.366   4.377   2.378  0.0370  0.6317  0.6751
   84SOPE   H3S 7759   2.386   4.547   2.404 -1.9343 -1.2193  1.5400
   84SOPE   C24 7760   2.515   4.427   2.532 -0.5404 -0.2828 -0.4337
   84SOPE   H4R 7761   2.573   4.332   2.529 -1.1754 -0.6615 -1.0984
   84SOPE   H4S 7762   2.590   4.508   2.545 -0.4438 -0.3112 -0.7829
   84SOPE   C25 7763   2.412   4.422   2.642 -0.4270  0.3529 -0.9699
   84SOPE   H5R 7764   2.374   4.527   2.648  1.4162  0.9884  2.1431
   84SOPE   H5S 7765   2.342   4.344   2.606  2.8991 -2.5602 -1.6734
   84SOPE   C26 7766   2.455   4.381   2.782  0.4392 -1.0303  0.3399
   84SOPE   H6R 7767   2.448   4.271   2.787 -0.7475 -0.9220  2.1500
   84SOPE   H6S 7768   2.564   4.403   2.786  0.2194 -0.0332  1.7930
   84SOPE   C27 7769   2.374   4.458   2.891 -0.4890  0.4431  0.3586
   84SOPE   H7R 7770   2.389   4.567   2.875  0.9692  0.1456 -0.5244
   84SOPE   H7S 7771   2.269   4.425   2.875 -0.0637 -0.7314 -0.1689
   84SOPE   C28 7772   2.420   4.414   3.026  0.7277 -0.6681  0.0535
   84SOPE   H8R 7773   2.403   4.306   3.047 -2.9564 -0.1189  0.5883
   84SOPE   H8S 7774   2.525   4.448   3.034  0.3679  1.4412 -2.6643
   84SOPE   C29 7775   2.350   4.492   3.131  1.2880 -0.2945  0.6719
   84SOPE   H91 7776   2.275   4.563   3.095 -0.8741 -1.6282  2.2856
   84SOPE  C210 7777   2.378   4.491   3.262 -0.2166 -0.4186 -0.0883
   84SOPE  H101 7778   2.328   4.574   3.315 -0.4088  0.0227 -0.9429
   84SOPE  C211 7779   2.491   4.413   3.322 -0.0866  0.0940 -0.1996
   84SOPE  H11R 7780   2.524   4.324   3.263 -0.0835  0.7636 -1.2428
   84SOPE  H11S 7781   2.455   4.374   3.419 -0.9101 -0.1443 -0.5908
   84SOPE  C212 7782   2.609   4.508   3.340  0.1792 -0.0120 -0.5188
   84SOPE  H12R 7783   2.577   4.592   3.404  0.4223 -1.3268  1.4153
   84SOPE  H12S 7784   2.640   4.557   3.246  0.9530  3.8798  1.5758
   84SOPE  C213 7785   2.712   4.437   3.426  0.3341  0.6051 -0.3825
   84SOPE  H13R 7786   2.753   4.349   3.373  2.6445  1.2686  0.1553
   84SOPE  H13S 7787   2.662   4.389   3.513  1.2355  1.5858  0.7225
   84SOPE  C214 7788   2.830   4.531   3.458  0.1119  0.4661  0.3556
   84SOPE  H14R 7789   2.784   4.632   3.465 -1.2826 -0.1266  0.0724
   84SOPE  H14S 7790   2.901   4.531   3.373  0.9012  0.2048  1.0011
   84SOPE  C215 7791   2.911   4.511   3.590 -0.1276  0.1698  0.7265
   84SOPE  H15R 7792   3.006   4.567   3.576  0.1879 -0.0856  1.7703
   84SOPE  H15S 7793   2.946   4.405   3.592  0.1215  0.1186 -1.9347
   84SOPE  C216 7794   2.840   4.541   3.716 -0.1896  0.3780  0.5564
   84SOPE  H16R 7795   2.740   4.494   3.720 -0.4890  1.0366  0.9718
   84SOPE  H16S 7796   2.823   4.651   3.726 -2.9860  0.2573 -1.7106
   84SOPE  C217 7797   2.935   4.509   3.836  0.2096  0.4029 -0.5482
   84SOPE  H17R 7798   2.896   4.575   3.916 -0.7729 -2.7865  1.8518
   84SOPE  H17S 7799   3.038   4.548   3.818 -0.6723  2.8435 -0.6513
   84SOPE  C218 7800   2.937   4.363   3.877 -0.0471  0.6134  0.6428
   84SOPE  H18R 7801   2.953   4.339   3.985 -1.0369 -1.7443  0.3205
   84SOPE  H18S 7802   3.007   4.300   3.818 -0.5346 -0.0394  0.7451
   84SOPE  H18T 7803   2.844   4.316   3.839  0.3287  0.9175 -0.6788
   84SOPE   C33 7804   3.139   4.067   2.535  0.7227 -0.3188  0.6044
   84SOPE   H3X 7805   3.212   3.990   2.502  0.7233 -0.0173 -0.1230
   84SOPE   H3Y 7806   3.055   4.016   2.587  0.0318 -2.6689 -2.5038
   84SOPE   C34 7807   3.222   4.152   2.627 -0.0339 -0.3388  0.0794
   84SOPE   H4X 7808   3.162   4.242   2.653 -0.6836 -1.4276  2.7950
   84SOPE   H4Y 7809   3.313   4.184   2.573 -0.5482  0.5222 -0.2883
   84SOPE   C35 7810   3.257   4.090   2.766 -0.1540 -0.1129  0.2501
   84SOPE   H5X 7811   3.311   3.995   2.745 -1.5461 -0.7126 -0.7966
   84SOPE   H5Y 7812   3.173   4.055   2.829 -1.5819  0.0011 -1.5062
   84SOPE   C36 7813   3.358   4.162   2.857 -0.2360 -0.1795 -0.5330
   84SOPE   H6X 7814   3.299   4.236   2.917 -0.1142 -0.6208  0.1443
   84SOPE   H6Y 7815   3.443   4.212   2.806 -0.9430  0.4893 -1.0809
   84SOPE   C37 7816   3.401   4.061   2.972  0.3750  0.2078 -0.0688
   84SOPE   H7X 7817   3.448   3.967   2.937 -2.7323 -1.5914  0.2396
   84SOPE   H7Y 7818   3.304   4.042   3.023  0.2151  1.1620  0.0046
   84SOPE   C38 7819   3.479   4.134   3.085  0.5429  0.1972  0.3292
   84SOPE   H8X 7820   3.443   4.236   3.110 -1.1140 -0.4784  0.8413
   84SOPE   H8Y 7821   3.585   4.140   3.054  0.6604 -1.3735  0.3508
   84SOPE   C39 7822   3.492   4.059   3.217  0.6924  0.9548  0.6267
   84SOPE   H9X 7823   3.588   4.101   3.254  2.1145  0.3611 -2.1165
   84SOPE   H9Y 7824   3.506   3.949   3.206 -0.1740  0.6571  2.1854
   84SOPE  C310 7825   3.379   4.088   3.313  0.0019  0.9241 -0.6313
   84SOPE  H10X 7826   3.287   4.032   3.287 -0.0117  1.6542 -2.2805
   84SOPE  H10Y 7827   3.362   4.197   3.304  0.4342  0.9620 -1.0426
   84SOPE  C311 7828   3.418   4.064   3.458  0.7237 -0.3604  0.3010
   84SOPE  H11X 7829   3.451   3.958   3.459  0.9251 -0.5506 -4.1006
   84SOPE  H11Y 7830   3.335   4.071   3.531 -0.2019 -1.3740 -0.5965
   84SOPE  C312 7831   3.520   4.165   3.515 -0.1761 -0.3637  0.3841
   84SOPE  H12X 7832   3.478   4.266   3.498 -2.3811 -1.3359 -0.2725
   84SOPE  H12Y 7833   3.615   4.160   3.457  0.1213  0.6050  0.7780
   84SOPE  C313 7834   3.547   4.140   3.663  0.1999  0.0247 -0.8333
   84SOPE  H13X 7835   3.655   4.161   3.683  0.7826 -0.5772 -3.0894
   84SOPE  H13Y 7836   3.537   4.033   3.689 -0.4563  0.6514  1.8472
   84SOPE  C314 7837   3.447   4.221   3.746  1.5491  0.6999  0.2510
   84SOPE  H14X 7838   3.342   4.203   3.717  0.3389 -0.2471  4.5250
   84SOPE  H14Y 7839   3.468   4.329   3.728 -3.6304  1.4193 -3.9113
   84SOPE  C315 7840   3.442   4.187   3.898  0.1572  0.4334  0.5980
   84SOPE  H15X 7841   3.543   4.201   3.943  1.6571 -1.9612 -1.6901
   84SOPE  H15Y 7842   3.431   4.077   3.908 -0.0123  0.5369  1.5886
   84SOPE  C316 7843   3.327   4.253   3.975  0.0317 -0.1957  0.2790
   84SOPE  H16X 7844   3.230   4.237   3.922 -0.4063 -0.0983  1.0265
   84SOPE  H16Y 7845   3.345   4.362   3.987  2.2132 -0.6489  1.5665
   84SOPE  C317 7846   3.307   4.186   4.118 -0.4995  0.1502  0.2504
   84SOPE  H17X 7847   3.408   4.185   4.166 -0.7559 -0.8894  0.7921
   84SOPE  H17Y 7848   3.277   4.080   4.105  0.5101  0.1254 -2.6094
   84SOPE  C318 7849   3.218   4.260   4.215 -0.5391 -0.5646  0.0470
   84SOPE  H18X 7850   3.233   4.207   4.312  2.2646  0.8864  0.5442
   84SOPE  H18Y 7851   3.113   4.258   4.181 -0.2160  1.2646 -1.1862
   84SOPE  H18Z 7852   3.241   4.368   4.230 -2.5197 -0.0885 -0.0500
   85SOPE     N 7853   4.383   4.691   1.489  0.2123  0.7935 -0.0195
   85SOPE   HN1 7854   4.314   4.618   1.461 -0.9155  0.4300  3.2596
   85SOPE   HN2 7855   4.340   4.766   1.547  1.0560  1.9034 -0.8063
   85SOPE   HN3 7856   4.421   4.733   1.402  0.9332  0.7803  0.2835
   85SOPE   C12 7857   4.501   4.628   1.557  0.0008  0.1005 -0.0202
   85SOPE  H12A 7858   4.540   4.552   1.486  0.3520 -1.5843  1.8875
   85SOPE  H12B 7859   4.469   4.579   1.652  1.8489 -2.2758 -0.5415
   85SOPE   C11 7860   4.610   4.730   1.593  0.0033  1.5084  0.0213
   85SOPE  H11A 7861   4.651   4.796   1.513 -1.7424  2.7420  0.0957
   85SOPE  H11B 7862   4.694   4.665   1.625 -0.4185  0.6220 -0.6438
   85SOPE     P 7863   4.642   4.837   1.829  0.0974  0.2230  0.2483
   85SOPE   O13 7864   4.581   4.746   1.924 -0.2368  0.5276 -0.0774
   85SOPE   O14 7865   4.623   4.977   1.857 -0.1645 -1.0465 -0.0681
   85SOPE   O12 7866   4.568   4.812   1.696 -0.1064  0.7960  0.0663
   85SOPE   O11 7867   4.793   4.804   1.799 -0.5140 -0.3459 -0.6271
   85SOPE    C1 7868   4.854   4.680   1.832  0.0144  0.1642  0.4322
   85SOPE    HA 7869   4.952   4.673   1.781  0.1841 -2.0318  0.9813
   85SOPE    HB 7870   4.790   4.601   1.787  0.1846  1.0227 -1.4061
   85SOPE    C2 7871   4.881   4.670   1.982  0.6226 -0.2577  0.9702
   85SOPE    HS 7872   4.784   4.686   2.033  1.5578 -0.4876  2.9318
   85SOPE   O21 7873   4.982   4.753   2.030  0.5848  0.2702 -0.5817
   85SOPE   C21 7874   4.948   4.854   2.112  0.3896  0.1172 -0.0164
   85SOPE   O22 7875   4.835   4.876   2.150  0.8206 -0.5343  0.7883
   85SOPE   C22 7876   5.072   4.929   2.162 -0.6662  0.1817  0.0678
   85SOPE   H2R 7877   5.051   5.038   2.167 -2.0025 -0.0242 -0.6169
   85SOPE   H2S 7878   5.155   4.909   2.091 -1.3432 -0.4560 -0.5792
   85SOPE    C3 7879   4.927   4.525   2.017 -0.2410 -0.8058  0.2246
   85SOPE    HX 7880   5.019   4.505   1.958  0.0166 -0.1964  0.4114
   85SOPE    HY 7881   4.857   4.442   1.994  0.9721 -1.6936 -0.3882
   85SOPE   O31 7882   4.980   4.513   2.152 -0.1413  0.6795  0.7511
   85SOPE   C31 7883   4.888   4.494   2.240  0.4620  0.0809  0.4911
   85SOPE   O32 7884   4.770   4.475   2.212 -0.3814 -0.4927 -0.4843
   85SOPE   C32 7885   4.929   4.490   2.380 -0.4809  0.2532 -0.5944
   85SOPE   H2X 7886   5.020   4.553   2.386  0.6446 -1.1518 -2.1966
   85SOPE   H2Y 7887   4.954   4.387   2.412  0.0707  1.0273  1.6907
   85SOPE   C23 7888   5.126   4.877   2.295  0.0716 -0.9192 -0.0118
   85SOPE   H3R 7889   5.232   4.910   2.295 -0.4285  0.7407  0.7538
   85SOPE   H3S 7890   5.118   4.768   2.315  1.3063 -1.1470 -0.6266
   85SOPE   C24 7891   5.066   4.946   2.418  0.6862 -0.2045 -0.4017
   85SOPE   H4R 7892   4.963   4.908   2.433  0.4703 -1.5557 -4.1471
   85SOPE   H4S 7893   5.122   4.911   2.507 -1.3731 -1.6519  0.3943
   85SOPE   C25 7894   5.063   5.098   2.409  0.5608 -0.2871 -0.5624
   85SOPE   H5R 7895   5.160   5.128   2.362  1.5727 -1.2475  0.8282
   85SOPE   H5S 7896   4.973   5.124   2.350 -0.1078 -0.9852  0.1450
   85SOPE   C26 7897   5.066   5.160   2.554 -0.3319 -1.2799  1.0324
   85SOPE   H6R 7898   4.966   5.151   2.600 -1.1996 -1.0081 -0.6943
   85SOPE   H6S 7899   5.145   5.103   2.608  0.1766 -2.0432 -0.4438
   85SOPE   C27 7900   5.127   5.300   2.556  0.8957  0.8653  1.0541
   85SOPE   H7R 7901   5.137   5.324   2.664 -0.6531  0.3831  1.3425
   85SOPE   H7S 7902   5.229   5.300   2.512 -0.5031  0.0048 -2.6109
   85SOPE   C28 7903   5.050   5.410   2.488  0.4869 -0.1908 -0.8063
   85SOPE   H8R 7904   5.115   5.500   2.490 -0.5072  0.5546 -0.6531
   85SOPE   H8S 7905   5.034   5.380   2.382 -1.7071 -0.1959 -0.5211
   85SOPE   C29 7906   4.923   5.459   2.557 -0.0496  0.6246  0.3755
   85SOPE   H91 7907   4.836   5.415   2.507  0.1863 -2.1536  2.2013
   85SOPE  C210 7908   4.908   5.548   2.654  0.3043  0.7146  0.2999
   85SOPE  H101 7909   4.804   5.564   2.686 -0.6859  2.5739 -3.3473
   85SOPE  C211 7910   5.011   5.623   2.738  0.1809 -0.0539  0.0877
   85SOPE  H11R 7911   4.999   5.733   2.749 -0.7946 -0.1726  0.3006
   85SOPE  H11S 7912   5.114   5.611   2.698 -0.2146  0.5855 -1.1902
   85SOPE  C212 7913   5.011   5.562   2.878 -0.2702  0.3251 -0.1639
   85SOPE  H12R 7914   5.096   5.617   2.924  0.7315  0.0646 -1.6424
   85SOPE  H12S 7915   5.038   5.455   2.887  0.0600  0.3377 -0.9334
   85SOPE  C213 7916   4.890   5.589   2.960 -0.1648 -0.2278 -0.3568
   85SOPE  H13R 7917   4.820   5.511   2.924 -0.1037 -0.8590  0.8294
   85SOPE  H13S 7918   4.853   5.690   2.933  3.3216  1.5065  0.6343
   85SOPE  C214 7919   4.912   5.568   3.111 -0.1401 -0.4228 -0.2826
   85SOPE  H14R 7920   4.966   5.655   3.154 -1.3242  1.2262 -1.9521
   85SOPE  H14S 7921   4.979   5.480   3.113  0.5570  0.0467 -1.5885
   85SOPE  C215 7922   4.787   5.536   3.190  0.2466 -0.4654  0.7372
   85SOPE  H15R 7923   4.733   5.452   3.142  0.0503 -0.0738  0.2725
   85SOPE  H15S 7924   4.713   5.619   3.188  1.0427  0.2693  0.9366
   85SOPE  C216 7925   4.801   5.506   3.342  0.5509  0.0192  0.8493
   85SOPE  H16R 7926   4.866   5.416   3.344 -0.8598 -1.0680  0.0486
   85SOPE  H16S 7927   4.702   5.466   3.372  0.7331 -0.8906  0.2520
   85SOPE  C217 7928   4.878   5.615   3.418  0.4477  0.6966 -0.2059
   85SOPE  H17R 7929   4.817   5.706   3.405 -1.3961 -0.2914  1.1542
   85SOPE  H17S 7930   4.972   5.635   3.361 -0.1293 -1.1367 -1.9221
   85SOPE  C218 7931   4.913   5.575   3.560  0.0920  0.2615 -0.7772
   85SOPE  H18R 7932   4.819   5.583   3.618  1.5569  1.0953  1.6119
   85SOPE  H18S 7933   4.972   5.654   3.610  0.6940  0.6150 -1.9863
   85SOPE  H18T 7934   4.944   5.469   3.575 -2.6432 -0.3977  0.7384
   85SOPE   C33 7935   4.825   4.541   2.481 -0.0843  0.1611 -0.5143
   85SOPE   H3X 7936   4.730   4.484   2.471  0.1239 -0.2431 -0.1965
   85SOPE   H3Y 7937   4.825   4.651   2.461  2.6584  0.5893  1.2847
   85SOPE   C34 7938   4.872   4.522   2.625  0.5907  0.0979 -0.5288
   85SOPE   H4X 7939   4.898   4.418   2.651 -0.0304  0.9425  4.5464
   85SOPE   H4Y 7940   4.783   4.551   2.684 -1.2534 -0.6102 -2.7899
   85SOPE   C35 7941   4.988   4.611   2.665 -0.2736 -0.0016  0.0867
   85SOPE   H5X 7942   4.952   4.715   2.651 -3.2636 -0.9581 -0.0976
   85SOPE   H5Y 7943   5.074   4.593   2.597 -0.5010  0.7212 -0.4055
   85SOPE   C36 7944   5.037   4.601   2.807 -0.9721 -0.1109  0.5214
   85SOPE   H6X 7945   5.119   4.676   2.810  0.8492 -2.0087  0.9594
   85SOPE   H6Y 7946   5.097   4.508   2.819  1.7218  1.2723 -1.1549
   85SOPE   C37 7947   4.925   4.618   2.907 -0.5093  0.0003  0.4379
   85SOPE   H7X 7948   4.859   4.531   2.886 -1.5500  1.3540 -2.4619
   85SOPE   H7Y 7949   4.876   4.716   2.884  0.8877  0.6885  0.2651
   85SOPE   C38 7950   4.969   4.624   3.050  0.0158 -0.5363 -0.0595
   85SOPE   H8X 7951   5.069   4.672   3.062 -0.1594  0.0374 -0.8169
   85SOPE   H8Y 7952   4.988   4.517   3.077 -1.6958 -0.2482  2.6388
   85SOPE   C39 7953   4.863   4.676   3.149  0.1764  0.1538 -0.0000
   85SOPE   H9X 7954   4.842   4.600   3.227  1.2056 -0.8167 -0.6329
   85SOPE   H9Y 7955   4.761   4.677   3.104 -0.2297 -3.9399  0.4730
   85SOPE  C310 7956   4.903   4.810   3.213  0.4033 -0.8730  0.4622
   85SOPE  H10X 7957   5.012   4.795   3.232  0.5864  2.2911  2.7870
   85SOPE  H10Y 7958   4.856   4.830   3.311  2.7562  0.3469  1.4316
   85SOPE  C311 7959   4.890   4.929   3.119  0.1257 -0.2828 -0.7644
   85SOPE  H11X 7960   4.896   4.885   3.017 -0.9052 -0.0981 -0.9213
   85SOPE  H11Y 7961   4.975   4.996   3.140 -0.4565 -0.6379  3.8949
   85SOPE  C312 7962   4.764   5.009   3.137  0.1420 -0.2926  0.0092
   85SOPE  H12X 7963   4.759   5.047   3.241 -0.7659  0.5628 -0.3392
   85SOPE  H12Y 7964   4.676   4.946   3.112 -1.1847  0.9838  1.2562
   85SOPE  C313 7965   4.746   5.128   3.041  0.3146 -0.1358  0.7813
   85SOPE  H13X 7966   4.819   5.206   3.071  1.5727 -1.1321  0.4103
   85SOPE  H13Y 7967   4.647   5.178   3.043  0.4473  0.2101 -0.5121
   85SOPE  C314 7968   4.770   5.110   2.894  0.0581  0.2838 -0.2685
   85SOPE  H14X 7969   4.864   5.055   2.872  0.2254  0.5119 -0.1318
   85SOPE  H14Y 7970   4.781   5.210   2.847  2.3254  0.0333 -0.3487
   85SOPE  C315 7971   4.662   5.024   2.824 -0.3806 -0.1629  0.1861
   85SOPE  H15X 7972   4.564   5.076   2.830 -0.7515 -0.8730  0.4926
   85SOPE  H15Y 7973   4.657   4.927   2.879  0.5534  0.8482  2.1878
   85SOPE  C316 7974   4.692   4.993   2.678 -0.2615  1.1896  0.1537
   85SOPE  H16X 7975   4.770   4.915   2.689 -0.5497  0.9951  0.8737
   85SOPE  H16Y 7976   4.738   5.081   2.627  1.5607  0.3003  0.1834
   85SOPE  C317 7977   4.573   4.950   2.593  0.4283  0.4635  0.0809
   85SOPE  H17X 7978   4.586   4.966   2.484  0.8766  2.2723  0.3663
   85SOPE  H17Y 7979   4.495   5.027   2.613 -0.5601 -0.3115 -0.6900
   85SOPE  C318 7980   4.518   4.810   2.623 -0.4221  0.2608 -0.0425
   85SOPE  H18X 7981   4.597   4.739   2.587 -1.0205 -0.3299 -0.2213
   85SOPE  H18Y 7982   4.420   4.796   2.572  0.0500 -1.4312 -0.5656
   85SOPE  H18Z 7983   4.505   4.809   2.733  0.8906  3.4768  0.2263
   86SOPE     N 7984   5.530   1.183   1.965 -0.3858 -0.2080  0.0449
   86SOPE   HN1 7985   5.584   1.116   2.025 -1.7592  0.2139  1.8468
   86SOPE   HN2 7986   5.529   1.139   1.871 -0.5668 -0.6346  0.2396
   86SOPE   HN3 7987   5.569   1.279   1.954 -2.1826  0.2662 -3.1870
   86SOPE   C12 7988   5.399   1.203   2.042  0.3507 -0.0606  0.1662
   86SOPE  H12A 7989   5.355   1.299   2.007 -0.4745 -0.5784 -0.2501
   86SOPE  H12B 7990   5.416   1.209   2.151 -1.6200  1.2408  0.4483
   86SOPE   C11 7991   5.296   1.093   2.016  0.0240  0.2268 -0.2553
   86SOPE  H11A 7992   5.268   1.098   1.909  3.0266  0.1870 -1.1326
   86SOPE  H11B 7993   5.207   1.100   2.082 -0.1768 -1.4609 -0.3120
   86SOPE     P 7994   5.330   0.830   1.975  0.0114  0.1660 -0.1031
   86SOPE   O13 7995   5.451   0.766   1.919 -0.5154 -0.2066  0.2315
   86SOPE   O14 7996   5.219   0.845   1.871  0.1553  0.1863 -0.4800
   86SOPE   O12 7997   5.361   0.968   2.049  0.0242  0.5561 -0.3579
   86SOPE   O11 7998   5.276   0.735   2.090 -0.4650 -0.0060  0.1974
   86SOPE    C1 7999   5.185   0.788   2.184 -0.7883 -0.2348  0.0888
   86SOPE    HA 8000   5.126   0.705   2.229 -0.0107  0.9998  3.7430
   86SOPE    HB 8001   5.114   0.869   2.156 -1.0138  0.0247  1.3525
   86SOPE    C2 8002   5.262   0.842   2.311 -0.2916  0.3538 -0.0866
   86SOPE    HS 8003   5.330   0.919   2.267  1.9697 -0.6976  1.3742
   86SOPE   O21 8004   5.343   0.730   2.354  0.3770  0.0446 -0.4807
   86SOPE   C21 8005   5.451   0.765   2.417  1.1618  0.9573 -0.1522
   86SOPE   O22 8006   5.497   0.878   2.413  0.1643 -0.3198 -0.4665
   86SOPE   C22 8007   5.496   0.658   2.504 -0.2466  1.2254 -0.8315
   86SOPE   H2R 8008   5.561   0.595   2.439 -2.2676 -2.3187  0.3507
   86SOPE   H2S 8009   5.417   0.589   2.538 -0.4713  2.8798  2.3399
   86SOPE    C3 8010   5.168   0.903   2.417 -0.0790 -0.0715 -0.1600
   86SOPE    HX 8011   5.227   0.920   2.510 -0.3460 -0.4045  0.0731
   86SOPE    HY 8012   5.090   0.827   2.439  0.0810 -0.8398 -2.0551
   86SOPE   O31 8013   5.101   1.019   2.372  0.1336 -0.1410  0.5831
   86SOPE   C31 8014   5.151   1.132   2.425  0.3288  0.4951  0.0882
   86SOPE   O32 8015   5.261   1.145   2.479 -0.3227  0.4898  0.1553
   86SOPE   C32 8016   5.048   1.242   2.408 -0.4644 -0.3482  0.8397
   86SOPE   H2X 8017   4.954   1.194   2.443 -2.6738  2.5245 -0.7251
   86SOPE   H2Y 8018   5.045   1.273   2.301 -1.4438 -0.8199  0.7140
   86SOPE   C23 8019   5.577   0.706   2.632 -0.1376  0.5450 -0.2259
   86SOPE   H3R 8020   5.677   0.743   2.600 -0.5670  0.3559 -1.8684
   86SOPE   H3S 8021   5.603   0.620   2.698 -0.5781 -0.3764 -1.2196
   86SOPE   C24 8022   5.500   0.803   2.718 -0.3979  0.1376 -0.2773
   86SOPE   H4R 8023   5.562   0.856   2.793 -0.0775 -0.2059 -0.2933
   86SOPE   H4S 8024   5.458   0.889   2.662  0.2948  0.8953  0.3497
   86SOPE   C25 8025   5.392   0.729   2.787  0.0295  0.5137 -0.0892
   86SOPE   H5R 8026   5.323   0.684   2.712  0.1323 -2.2966  1.3444
   86SOPE   H5S 8027   5.445   0.650   2.845 -0.2830  0.6787  0.4240
   86SOPE   C26 8028   5.313   0.822   2.884 -0.4605  0.1452  0.1948
   86SOPE   H6R 8029   5.386   0.873   2.949  0.5469 -2.3076  1.1077
   86SOPE   H6S 8030   5.262   0.893   2.815  0.1178 -0.0992 -0.5011
   86SOPE   C27 8031   5.207   0.749   2.963  0.3519 -0.0900  0.1606
   86SOPE   H7R 8032   5.141   0.827   3.007 -0.4679  1.4739 -3.4645
   86SOPE   H7S 8033   5.148   0.677   2.902  0.7564 -0.7054  0.4921
   86SOPE   C28 8034   5.281   0.658   3.061  0.8296 -0.0771  0.3499
   86SOPE   H8R 8035   5.325   0.567   3.015  0.4930  0.2356 -0.6056
   86SOPE   H8S 8036   5.370   0.720   3.086 -0.2737  1.2314  1.1594
   86SOPE   C29 8037   5.197   0.618   3.183 -0.3160 -0.2652  0.3058
   86SOPE   H91 8038   5.133   0.530   3.165  0.0328 -0.1733 -1.7128
   86SOPE  C210 8039   5.220   0.653   3.313  0.2282 -0.7929  0.0016
   86SOPE  H101 8040   5.147   0.619   3.388 -0.9134  2.9458  0.7625
   86SOPE  C211 8041   5.310   0.761   3.368 -0.1483 -0.4709  0.0959
   86SOPE  H11R 8042   5.369   0.809   3.287 -1.5611  1.8353  0.3465
   86SOPE  H11S 8043   5.376   0.725   3.449  0.2296 -1.2328 -0.5365
   86SOPE  C212 8044   5.238   0.873   3.450 -0.3651  0.4843  0.1464
   86SOPE  H12R 8045   5.307   0.937   3.508  1.0129  0.2587 -1.1844
   86SOPE  H12S 8046   5.178   0.829   3.532  1.3430 -2.3070  0.0410
   86SOPE  C213 8047   5.154   0.964   3.363 -0.5232 -0.4276  0.1470
   86SOPE  H13R 8048   5.123   1.042   3.436  1.0047 -0.6341  1.0487
   86SOPE  H13S 8049   5.058   0.922   3.326  0.0381  0.3103 -2.3121
   86SOPE  C214 8050   5.206   1.031   3.231 -0.1109  0.0269 -0.0452
   86SOPE  H14R 8051   5.130   1.090   3.175 -0.0012 -0.3324 -0.5793
   86SOPE  H14S 8052   5.243   0.950   3.165 -0.4641 -0.1458 -0.0357
   86SOPE  C215 8053   5.331   1.125   3.247 -0.2490  0.5965 -0.4249
   86SOPE  H15R 8054   5.394   1.084   3.329  0.9987 -0.4125 -1.8441
   86SOPE  H15S 8055   5.291   1.225   3.277 -0.8165  0.3926 -0.4908
   86SOPE  C216 8056   5.410   1.152   3.114  0.1397 -0.7053 -0.4791
   86SOPE  H16R 8057   5.462   1.063   3.073 -0.6483 -0.5638 -1.8547
   86SOPE  H16S 8058   5.488   1.229   3.131 -0.6880  0.2440 -0.8636
   86SOPE  C217 8059   5.322   1.203   3.000  0.7020 -0.7466 -0.3478
   86SOPE  H17R 8060   5.272   1.301   3.016 -0.2820 -1.3925  0.6047
   86SOPE  H17S 8061   5.253   1.119   2.980  0.3065 -0.9026  1.5478
   86SOPE  C218 8062   5.404   1.238   2.873  0.3594  0.6802 -0.1624
   86SOPE  H18R 8063   5.480   1.317   2.893  1.5558 -0.5717  0.3551
   86SOPE  H18S 8064   5.340   1.284   2.794 -1.2206  0.2489  0.8179
   86SOPE  H18T 8065   5.466   1.154   2.838 -0.3958 -0.3498  0.9054
   86SOPE   C33 8066   5.066   1.378   2.490 -0.2427 -0.5176  0.4459
   86SOPE   H3X 8067   4.993   1.451   2.449 -1.9904 -1.2046  2.1617
   86SOPE   H3Y 8068   5.170   1.415   2.485 -0.6818  0.7882  0.6519
   86SOPE   C34 8069   5.040   1.359   2.639 -0.1139  0.4085  0.5327
   86SOPE   H4X 8070   5.112   1.294   2.692  0.2355  0.4001  0.0554
   86SOPE   H4Y 8071   4.939   1.311   2.644  0.8130 -1.5444  1.6372
   86SOPE   C35 8072   5.039   1.490   2.719 -0.0926 -0.3937  0.2547
   86SOPE   H5X 8073   5.113   1.560   2.674 -0.4869 -0.4387 -0.4717
   86SOPE   H5Y 8074   5.070   1.468   2.823 -1.5309  0.0932  0.8255
   86SOPE   C36 8075   4.895   1.560   2.705 -0.4490 -0.5451 -0.1521
   86SOPE   H6X 8076   4.815   1.525   2.773 -0.6588  0.8158  0.3335
   86SOPE   H6Y 8077   4.850   1.557   2.603 -1.5796  3.3523  0.0345
   86SOPE   C37 8078   4.899   1.714   2.732 -0.8765 -0.7868  0.2829
   86SOPE   H7X 8079   4.803   1.764   2.706  0.1867  1.9959  1.2995
   86SOPE   H7Y 8080   4.974   1.761   2.664  1.0211 -4.3815 -0.3088
   86SOPE   C38 8081   4.944   1.755   2.874  1.0421 -0.1614  0.8174
   86SOPE   H8X 8082   4.927   1.864   2.889  2.1094  0.1263  0.0343
   86SOPE   H8Y 8083   5.052   1.731   2.876  0.8573 -1.9579 -2.7712
   86SOPE   C39 8084   4.860   1.686   2.980  0.0809 -0.1461  0.2667
   86SOPE   H9X 8085   4.852   1.575   2.978  0.0939 -0.1839  1.4544
   86SOPE   H9Y 8086   4.753   1.715   2.972  0.7569  2.0766 -1.7275
   86SOPE  C310 8087   4.925   1.712   3.118  0.2511  0.3125  0.5651
   86SOPE  H10X 8088   4.956   1.817   3.136  1.3994 -0.2133  1.8960
   86SOPE  H10Y 8089   5.020   1.655   3.124  1.7012  2.6632  1.6599
   86SOPE  C311 8090   4.836   1.673   3.236  0.6215  0.4459  0.8556
   86SOPE  H11X 8091   4.812   1.564   3.235 -0.0640  0.5679 -1.1478
   86SOPE  H11Y 8092   4.752   1.744   3.222  1.5675  1.3788 -0.3886
   86SOPE  C312 8093   4.890   1.696   3.379  0.0404  0.3979 -0.3445
   86SOPE  H12X 8094   4.895   1.804   3.406  1.3124  0.4244 -0.6284
   86SOPE  H12Y 8095   4.991   1.652   3.380 -1.2052 -2.7086 -0.5318
   86SOPE  C313 8096   4.811   1.616   3.485  0.7678 -0.2762  0.3520
   86SOPE  H13X 8097   4.800   1.508   3.459 -2.3863 -0.0039  0.1944
   86SOPE  H13Y 8098   4.714   1.670   3.490  1.4986  1.1992 -0.5787
   86SOPE  C314 8099   4.883   1.629   3.621 -0.0803 -0.0787  0.0881
   86SOPE  H14X 8100   4.807   1.657   3.697  0.8134  1.1720  0.5565
   86SOPE  H14Y 8101   4.956   1.713   3.620  0.6601 -0.7214 -0.2853
   86SOPE  C315 8102   4.949   1.498   3.670 -0.0179  0.2022 -0.5624
   86SOPE  H15X 8103   4.879   1.414   3.685  0.2331  0.5032  3.6642
   86SOPE  H15Y 8104   4.991   1.530   3.768 -0.8118 -1.1584  0.2446
   86SOPE  C316 8105   5.068   1.456   3.586  0.1659 -0.5435  0.0098
   86SOPE  H16X 8106   5.148   1.533   3.586  0.3401 -0.6621  1.9719
   86SOPE  H16Y 8107   5.039   1.458   3.479  0.4461  2.5557 -0.0794
   86SOPE  C317 8108   5.126   1.317   3.621 -0.2801  0.4216  0.7753
   86SOPE  H17X 8109   5.171   1.265   3.534 -0.4790  2.4608 -0.6147
   86SOPE  H17Y 8110   5.038   1.250   3.636 -1.2346  1.4670  0.0596
   86SOPE  C318 8111   5.223   1.322   3.746  0.0279  0.2841  0.0962
   86SOPE  H18X 8112   5.294   1.407   3.752 -0.8682  0.9907  1.1601
   86SOPE  H18Y 8113   5.281   1.229   3.761 -2.9643 -1.3135  2.9272
   86SOPE  H18Z 8114   5.163   1.332   3.839 -0.8691 -2.0060 -0.1774
   87SOPE     N 8115   5.591   0.538   1.932  0.1071 -0.4238 -0.0540
   87SOPE   HN1 8116   5.533   0.456   1.906  1.1276 -1.0800 -0.3281
   87SOPE   HN2 8117   5.614   0.537   2.033  1.2084 -1.7168 -0.2880
   87SOPE   HN3 8118   5.540   0.628   1.919  2.2897  0.8935 -0.0901
   87SOPE   C12 8119   5.724   0.538   1.866  0.1471  0.5548  0.6589
   87SOPE  H12A 8120   5.710   0.547   1.756  1.5128  0.8107  0.4948
   87SOPE  H12B 8121   5.759   0.437   1.896 -0.6215  0.0938  0.0475
   87SOPE   C11 8122   5.825   0.643   1.919 -0.4369 -0.1167  0.2060
   87SOPE  H11A 8123   5.792   0.749   1.910 -0.3922 -0.0294  1.0508
   87SOPE  H11B 8124   5.908   0.643   1.845 -0.2655  1.8199  0.3448
   87SOPE     P 8125   5.809   0.676   2.171  0.0856  0.0080 -0.0442
   87SOPE   O13 8126   5.696   0.584   2.189 -0.0132 -0.3809  0.0693
   87SOPE   O14 8127   5.780   0.817   2.141 -0.5162  0.1273 -0.2357
   87SOPE   O12 8128   5.881   0.615   2.048 -0.9677  0.3878  0.3213
   87SOPE   O11 8129   5.918   0.662   2.285  0.4052 -0.2141  0.4939
   87SOPE    C1 8130   6.056   0.675   2.254  0.0534 -0.1341  0.5853
   87SOPE    HA 8131   6.115   0.696   2.346  0.4098 -1.9677  0.8145
   87SOPE    HB 8132   6.073   0.754   2.177  1.1006 -1.9758 -1.1855
   87SOPE    C2 8133   6.121   0.545   2.208 -0.1179  0.3222  0.2644
   87SOPE    HS 8134   6.078   0.515   2.110  2.4470  1.8196 -1.4339
   87SOPE   O21 8135   6.113   0.452   2.319 -0.0982  0.6000 -0.3406
   87SOPE   C21 8136   6.024   0.351   2.310  0.1089  0.1830  0.5892
   87SOPE   O22 8137   5.956   0.323   2.211  0.1494 -0.2764 -0.1651
   87SOPE   C22 8138   6.014   0.266   2.448  0.0229 -0.1842 -0.2514
   87SOPE   H2R 8139   6.082   0.179   2.431  0.1080  0.3401 -3.1906
   87SOPE   H2S 8140   5.913   0.220   2.448  0.4538 -1.2280 -1.6891
   87SOPE    C3 8141   6.268   0.583   2.171  0.5957 -1.0090  0.2797
   87SOPE    HX 8142   6.274   0.663   2.094  0.2378 -0.1569  1.1198
   87SOPE    HY 8143   6.327   0.498   2.131  3.1254  0.6739  0.1891
   87SOPE   O31 8144   6.338   0.627   2.292 -0.2245  0.2645 -0.0475
   87SOPE   C31 8145   6.404   0.743   2.285 -0.1039 -0.0942  0.6644
   87SOPE   O32 8146   6.381   0.828   2.203 -0.0275 -0.6115  0.1196
   87SOPE   C32 8147   6.512   0.757   2.389 -0.4002  0.5748 -0.8189
   87SOPE   H2X 8148   6.581   0.841   2.365 -0.7572  1.0381 -0.2544
   87SOPE   H2Y 8149   6.570   0.663   2.394 -3.8019 -1.8312 -2.5667
   87SOPE   C23 8150   6.050   0.351   2.570 -0.5045  0.3257  0.1738
   87SOPE   H3R 8151   6.159   0.375   2.565 -0.8184  1.5561 -1.5922
   87SOPE   H3S 8152   6.034   0.292   2.663  0.1003 -0.0153  0.0679
   87SOPE   C24 8153   5.968   0.472   2.595 -0.2289 -0.2708 -0.2569
   87SOPE   H4R 8154   5.952   0.531   2.501 -2.1783 -1.1044 -0.4959
   87SOPE   H4S 8155   5.865   0.443   2.626 -0.2542  1.2922  1.3029
   87SOPE   C25 8156   6.022   0.565   2.707 -0.1325  0.1128  0.3613
   87SOPE   H5R 8157   6.122   0.610   2.689 -0.5685  0.8707 -0.2310
   87SOPE   H5S 8158   5.951   0.650   2.712 -0.5778 -0.2599  0.4697
   87SOPE   C26 8159   6.023   0.496   2.845 -0.0339  0.4500 -0.2262
   87SOPE   H6R 8160   5.934   0.436   2.874  0.5845 -0.2448  0.2551
   87SOPE   H6S 8161   6.110   0.430   2.864  0.2126  0.5230 -1.0698
   87SOPE   C27 8162   6.028   0.601   2.965  0.3590  0.5933  0.4106
   87SOPE   H7R 8163   6.105   0.674   2.932  0.2086 -0.1394 -1.7102
   87SOPE   H7S 8164   5.924   0.640   2.973 -0.4004 -1.1487 -0.4218
   87SOPE   C28 8165   6.078   0.527   3.092 -0.8609 -0.2921 -0.2133
   87SOPE   H8R 8166   6.185   0.513   3.068 -0.9484  1.0616 -1.5450
   87SOPE   H8S 8167   6.073   0.611   3.165  0.1866 -0.4395  0.0420
   87SOPE   C29 8168   6.012   0.397   3.136  0.9243  0.6200  0.2117
   87SOPE   H91 8169   5.990   0.328   3.054  0.5956 -0.3539  1.1049
   87SOPE  C210 8170   5.984   0.354   3.262 -0.2657 -1.1904  0.0028
   87SOPE  H101 8171   5.945   0.255   3.287 -0.1632 -1.6782 -1.6528
   87SOPE  C211 8172   6.019   0.448   3.378  0.4558  0.1069  0.3701
   87SOPE  H11R 8173   5.933   0.424   3.443  0.7093 -2.1739 -0.0458
   87SOPE  H11S 8174   6.025   0.557   3.360  0.8952 -0.2585 -1.9519
   87SOPE  C212 8175   6.139   0.396   3.455  0.4383 -0.0834  0.2309
   87SOPE  H12R 8176   6.239   0.406   3.408 -0.2706  0.5540 -1.2025
   87SOPE  H12S 8177   6.108   0.291   3.476  0.4087  0.0349  0.7864
   87SOPE  C213 8178   6.165   0.494   3.572 -0.1241 -0.1306 -0.3760
   87SOPE  H13R 8179   6.068   0.531   3.612 -0.0286 -1.8512  1.6755
   87SOPE  H13S 8180   6.210   0.587   3.533  0.1301 -1.2683 -2.9974
   87SOPE  C214 8181   6.247   0.427   3.691 -0.2660  0.4338 -0.2309
   87SOPE  H14R 8182   6.349   0.399   3.657 -0.7054 -1.7728  0.0935
   87SOPE  H14S 8183   6.201   0.333   3.727  3.1899 -1.8161 -1.2201
   87SOPE  C215 8184   6.269   0.525   3.803 -0.6419  0.4305 -0.0110
   87SOPE  H15R 8185   6.182   0.522   3.873 -0.3248  2.0994  0.4911
   87SOPE  H15S 8186   6.262   0.630   3.768  0.5328  1.0651  1.5229
   87SOPE  C216 8187   6.401   0.502   3.887 -0.6374 -1.0895  0.0066
   87SOPE  H16R 8188   6.487   0.501   3.816  0.7673  0.3469  1.5916
   87SOPE  H16S 8189   6.400   0.403   3.938  0.7369  0.3430  3.1191
   87SOPE  C217 8190   6.413   0.597   4.006  0.1035 -0.0805 -0.3438
   87SOPE  H17R 8191   6.492   0.552   4.070  0.8597  1.1993 -0.3402
   87SOPE  H17S 8192   6.320   0.600   4.066  0.9951  0.0725  1.1015
   87SOPE  C218 8193   6.463   0.740   3.977  0.4343 -0.0691 -0.3074
   87SOPE  H18R 8194   6.569   0.741   3.942  0.0925  0.5903 -1.3506
   87SOPE  H18S 8195   6.441   0.803   4.066  3.7888  0.5036  0.2537
   87SOPE  H18T 8196   6.397   0.784   3.900  1.3744 -1.1548 -1.7945
   87SOPE   C33 8197   6.437   0.777   2.522  0.4534  0.7708  0.0086
   87SOPE   H3X 8198   6.366   0.693   2.540  1.5776  0.0541  1.3570
   87SOPE   H3Y 8199   6.394   0.879   2.518  1.0822  0.9925 -1.6578
   87SOPE   C34 8200   6.529   0.766   2.647  0.5372  0.0984 -1.4595
   87SOPE   H4X 8201   6.584   0.860   2.671  1.0810 -0.6321  0.3038
   87SOPE   H4Y 8202   6.603   0.686   2.625  1.6707  1.0343 -1.1657
   87SOPE   C35 8203   6.438   0.736   2.772 -0.4130 -0.1312 -1.0527
   87SOPE   H5X 8204   6.383   0.640   2.766  1.7071 -1.4198 -0.9063
   87SOPE   H5Y 8205   6.367   0.821   2.777  1.9584  1.9071  1.3149
   87SOPE   C36 8206   6.511   0.732   2.908 -0.6931 -0.2548  0.2596
   87SOPE   H6X 8207   6.601   0.796   2.895  0.5651 -1.8411  0.7798
   87SOPE   H6Y 8208   6.550   0.628   2.917  0.1700  0.0339 -0.0858
   87SOPE   C37 8209   6.450   0.777   3.035  0.0858  0.5561 -0.2967
   87SOPE   H7X 8210   6.506   0.752   3.127 -1.7769  0.6433  0.9194
   87SOPE   H7Y 8211   6.367   0.704   3.047 -0.5257  1.5931  2.6061
   87SOPE   C38 8212   6.410   0.926   3.039  0.5797 -0.5518 -0.9418
   87SOPE   H8X 8213   6.358   0.943   2.942  1.6642  1.0287 -1.2942
   87SOPE   H8Y 8214   6.493   0.999   3.047  0.4004 -0.2653 -1.6022
   87SOPE   C39 8215   6.324   0.967   3.158 -0.8102 -0.1980  0.1840
   87SOPE   H9X 8216   6.313   1.078   3.153  0.5973 -0.0821 -1.5770
   87SOPE   H9Y 8217   6.373   0.936   3.253  0.1709  1.0841  0.1305
   87SOPE  C310 8218   6.190   0.892   3.154 -0.0870 -0.3045 -0.0271
   87SOPE  H10X 8219   6.213   0.784   3.155  1.1059 -0.0778  1.5531
   87SOPE  H10Y 8220   6.144   0.924   3.058 -3.1568  1.1172  1.7341
   87SOPE  C311 8221   6.092   0.939   3.259  0.2355  0.3663 -0.7968
   87SOPE  H11X 8222   6.000   0.890   3.220  1.1916 -2.9481  0.7149
   87SOPE  H11Y 8223   6.085   1.050   3.250  0.3710  0.3944 -0.5743
   87SOPE  C312 8224   6.125   0.902   3.405 -0.2347 -0.7926 -0.5185
   87SOPE  H12X 8225   6.204   0.968   3.445 -1.4090  1.4486 -1.7058
   87SOPE  H12Y 8226   6.173   0.802   3.415  3.5902  0.8244 -1.1145
   87SOPE  C313 8227   6.003   0.921   3.497 -0.1768 -0.1665  0.0439
   87SOPE  H13X 8228   5.921   0.854   3.463  1.4891 -2.3437  0.1355
   87SOPE  H13Y 8229   5.960   1.024   3.494 -4.5114 -1.8045 -1.7961
   87SOPE  C314 8230   6.043   0.901   3.642  0.0887  0.4878 -0.1700
   87SOPE  H14X 8231   6.138   0.953   3.666  0.2993  0.0784 -0.1019
   87SOPE  H14Y 8232   6.067   0.793   3.639  1.5340  0.7604  0.7422
   87SOPE  C315 8233   5.941   0.924   3.756  0.0270  0.2421  0.8490
   87SOPE  H15X 8234   5.849   0.874   3.718  0.6737 -1.2921  1.2454
   87SOPE  H15Y 8235   5.920   1.033   3.760  1.8958  0.6109  1.7728
   87SOPE  C316 8236   5.981   0.872   3.893  0.2671  0.6631  0.1202
   87SOPE  H16X 8237   6.074   0.922   3.930 -0.7313  2.4346  0.3766
   87SOPE  H16Y 8238   5.991   0.762   3.888 -0.3384  0.6688 -1.6193
   87SOPE  C317 8239   5.875   0.910   3.996 -0.5785 -0.3568  0.4132
   87SOPE  H17X 8240   5.906   0.868   4.094  0.5438  1.8971  1.0901
   87SOPE  H17Y 8241   5.771   0.875   3.978 -0.1915 -1.6446  0.5988
   87SOPE  C318 8242   5.867   1.064   4.016  0.0256 -0.5078 -0.4970
   87SOPE  H18X 8243   5.807   1.110   3.935 -1.5677 -0.8833  0.4273
   87SOPE  H18Y 8244   5.970   1.102   4.032  0.7501 -2.3141 -0.6053
   87SOPE  H18Z 8245   5.811   1.065   4.113  1.3850 -0.9118  0.3261
   88SOPE     N 8246   6.556   1.383   1.997 -0.1406  0.2225 -0.2645
   88SOPE   HN1 8247   6.497   1.313   1.948  1.6637 -1.7406  0.1908
   88SOPE   HN2 8248   6.512   1.411   2.087  0.2043  0.4358 -0.1636
   88SOPE   HN3 8249   6.564   1.465   1.934 -0.0546 -0.9092 -1.7864
   88SOPE   C12 8250   6.687   1.319   2.016 -0.3759 -0.5924 -0.2054
   88SOPE  H12A 8251   6.736   1.295   1.919  2.6318 -0.9999  1.2922
   88SOPE  H12B 8252   6.667   1.231   2.081  1.1920  0.5939  2.0216
   88SOPE   C11 8253   6.779   1.394   2.115  0.1688  0.3559 -0.7666
   88SOPE  H11A 8254   6.869   1.334   2.143  1.3641  1.9749 -0.9676
   88SOPE  H11B 8255   6.719   1.409   2.207 -1.4207  0.0828 -1.7213
   88SOPE     P 8256   6.935   1.540   1.966 -0.4741 -0.0627 -0.1246
   88SOPE   O13 8257   6.913   1.669   1.906 -0.2234 -0.4207  0.4077
   88SOPE   O14 8258   6.943   1.428   1.879 -0.2243 -0.1926  0.0691
   88SOPE   O12 8259   6.813   1.525   2.067  0.3306 -0.2701 -0.3779
   88SOPE   O11 8260   7.062   1.540   2.058  0.3535 -0.4868 -0.1929
   88SOPE    C1 8261   7.081   1.627   2.174 -0.2920 -0.1556  0.0798
   88SOPE    HA 8262   6.981   1.661   2.208  0.2637  0.5242  1.1055
   88SOPE    HB 8263   7.155   1.706   2.148 -0.3524 -0.2104 -0.2511
   88SOPE    C2 8264   7.141   1.548   2.289  0.1779  0.0891  0.0725
   88SOPE    HS 8265   7.232   1.496   2.254 -1.1769 -1.4847 -1.2812
   88SOPE   O21 8266   7.041   1.457   2.337  0.3654 -0.1473 -0.3962
   88SOPE   C21 8267   7.088   1.342   2.384  0.4288  0.1851  0.7564
   88SOPE   O22 8268   7.198   1.297   2.358  0.1492 -0.3349  0.4225
   88SOPE   C22 8269   6.969   1.265   2.463  0.1585  0.4374  0.8497
   88SOPE   H2R 8270   6.921   1.203   2.383  2.6952 -0.9041  0.2754
   88SOPE   H2S 8271   6.899   1.350   2.479  1.9525  2.9442 -3.0039
   88SOPE    C3 8272   7.168   1.650   2.405 -0.0811 -0.5000 -0.3977
   88SOPE    HX 8273   7.076   1.706   2.432 -0.3632 -1.8394  1.6153
   88SOPE    HY 8274   7.218   1.734   2.353  0.2206 -0.1427  0.4562
   88SOPE   O31 8275   7.237   1.589   2.509 -0.7042  0.3698 -0.2887
   88SOPE   C31 8276   7.237   1.648   2.627 -0.0545 -0.0398  0.8663
   88SOPE   O32 8277   7.174   1.746   2.657  0.0835  0.2799  0.0672
   88SOPE   C32 8278   7.323   1.569   2.726  0.5419 -0.5913  0.2538
   88SOPE   H2X 8279   7.424   1.598   2.692  0.2323  1.5188  0.9527
   88SOPE   H2Y 8280   7.321   1.458   2.715 -0.4867 -0.4220 -1.7480
   88SOPE   C23 8281   7.019   1.186   2.584  0.0005 -0.0660  0.3262
   88SOPE   H3R 8282   7.106   1.123   2.554  0.2676  1.0765 -1.4871
   88SOPE   H3S 8283   6.932   1.133   2.627 -0.9830  1.0247 -0.2871
   88SOPE   C24 8284   7.081   1.281   2.688  0.9676  0.5515 -0.6243
   88SOPE   H4R 8285   7.171   1.339   2.657  2.4949 -0.8835  0.8787
   88SOPE   H4S 8286   7.005   1.352   2.727  1.2136  0.8032 -0.6002
   88SOPE   C25 8287   7.121   1.193   2.811 -0.4963  0.0881  0.0673
   88SOPE   H5R 8288   7.036   1.129   2.843 -1.3041  1.2839  0.3643
   88SOPE   H5S 8289   7.188   1.111   2.776 -0.0836  0.6319 -0.4390
   88SOPE   C26 8290   7.170   1.260   2.937 -0.1780  0.1438  0.2240
   88SOPE   H6R 8291   7.270   1.305   2.917 -0.6837  1.1077 -0.1991
   88SOPE   H6S 8292   7.098   1.343   2.958 -2.1347 -0.9773 -1.7178
   88SOPE   C27 8293   7.195   1.164   3.052  0.1548  0.0096  0.1348
   88SOPE   H7R 8294   7.105   1.105   3.077 -1.4286  1.1640 -2.4332
   88SOPE   H7S 8295   7.270   1.085   3.026  1.3662  0.3519  2.3860
   88SOPE   C28 8296   7.257   1.233   3.183 -0.2580 -0.6386 -0.4608
   88SOPE   H8R 8297   7.295   1.145   3.238 -1.5116  0.3662  2.1904
   88SOPE   H8S 8298   7.345   1.289   3.146  0.9548 -0.6103  2.2282
   88SOPE   C29 8299   7.153   1.323   3.254  0.9734  0.2244  1.0450
   88SOPE   H91 8300   7.138   1.418   3.201  1.5194 -1.5623 -2.6514
   88SOPE  C210 8301   7.084   1.307   3.365  0.1445  0.0240 -0.1019
   88SOPE  H101 8302   7.029   1.393   3.406  0.6179  0.9165 -1.2837
   88SOPE  C211 8303   7.093   1.183   3.448  0.4593 -0.4200  0.3322
   88SOPE  H11R 8304   7.193   1.135   3.456  1.0407  0.7862  0.5186
   88SOPE  H11S 8305   7.017   1.113   3.408 -0.7257  0.3585  1.1525
   88SOPE  C212 8306   7.062   1.215   3.594  0.2065 -0.4922 -0.3556
   88SOPE  H12R 8307   6.969   1.276   3.604  0.5425 -0.2069  1.4392
   88SOPE  H12S 8308   7.151   1.272   3.630 -0.3438 -0.6413  1.3754
   88SOPE  C213 8309   7.035   1.088   3.675  0.5143 -0.6668  0.7953
   88SOPE  H13R 8310   7.122   1.019   3.670  1.2620  0.2324  0.9910
   88SOPE  H13S 8311   6.952   1.043   3.616  1.9855 -0.0905 -1.9254
   88SOPE  C214 8312   7.001   1.108   3.821 -0.8346  0.0836  0.0677
   88SOPE  H14R 8313   6.918   1.181   3.824 -1.4464 -0.5969 -0.0852
   88SOPE  H14S 8314   7.099   1.138   3.864  0.1126 -0.1848 -1.7733
   88SOPE  C215 8315   6.944   0.983   3.894 -0.9845 -0.0857 -0.8964
   88SOPE  H15R 8316   7.004   0.894   3.866  0.2604  0.6309 -0.5901
   88SOPE  H15S 8317   6.843   0.956   3.856 -0.9426 -2.1509  0.3481
   88SOPE  C216 8318   6.938   0.983   4.044 -0.2102 -0.3747  0.3023
   88SOPE  H16R 8319   7.040   1.005   4.081 -0.3256  1.7744 -0.5669
   88SOPE  H16S 8320   6.923   0.877   4.076  1.0895 -0.3017  1.2113
   88SOPE  C217 8321   6.833   1.071   4.114 -0.6968 -0.2419  0.8355
   88SOPE  H17R 8322   6.859   1.176   4.088 -3.3112  0.0963 -0.7579
   88SOPE  H17S 8323   6.843   1.055   4.223 -0.6444 -0.1273  0.8479
   88SOPE  C218 8324   6.685   1.036   4.076 -0.3295 -0.8804 -0.0489
   88SOPE  H18R 8325   6.607   1.094   4.130 -1.1886 -0.4341 -1.7062
   88SOPE  H18S 8326   6.662   0.928   4.092 -0.1285 -1.2052 -1.7979
   88SOPE  H18T 8327   6.677   1.064   3.969  0.0745  0.0891  0.1663
   88SOPE   C33 8328   7.301   1.621   2.870 -0.8171 -0.9575  0.3343
   88SOPE   H3X 8329   7.201   1.598   2.914 -1.3541  2.1999  1.0477
   88SOPE   H3Y 8330   7.302   1.731   2.857 -0.7564 -0.9033  0.7753
   88SOPE   C34 8331   7.421   1.586   2.957  0.6975  0.1583 -0.5247
   88SOPE   H4X 8332   7.509   1.645   2.925  0.6374  2.0283  2.3089
   88SOPE   H4Y 8333   7.439   1.477   2.948 -1.1715 -0.2712  0.3726
   88SOPE   C35 8334   7.399   1.622   3.106 -0.1252  0.2585 -0.3474
   88SOPE   H5X 8335   7.333   1.548   3.154  0.9897  0.8708  2.2911
   88SOPE   H5Y 8336   7.354   1.724   3.105 -2.2811 -0.6508 -0.2233
   88SOPE   C36 8337   7.530   1.615   3.188 -0.7119  0.3747 -0.2059
   88SOPE   H6X 8338   7.604   1.687   3.147 -1.7277  2.6276  1.6823
   88SOPE   H6Y 8339   7.564   1.511   3.171  1.1205  1.0899 -1.2604
   88SOPE   C37 8340   7.518   1.651   3.333  1.0999  0.3895 -0.3347
   88SOPE   H7X 8341   7.507   1.760   3.348  0.1419  0.2878 -0.2409
   88SOPE   H7Y 8342   7.612   1.625   3.387  1.0437 -2.3420 -1.3727
   88SOPE   C38 8343   7.410   1.573   3.412  0.5267  0.2619  0.2954
   88SOPE   H8X 8344   7.433   1.467   3.388  3.6207  1.2087 -1.4421
   88SOPE   H8Y 8345   7.314   1.601   3.363  0.6129  1.9955  1.0427
   88SOPE   C39 8346   7.417   1.596   3.563  0.0401 -0.2867  0.9451
   88SOPE   H9X 8347   7.394   1.702   3.586 -1.8756 -0.6929  1.1383
   88SOPE   H9Y 8348   7.517   1.561   3.596 -0.9609 -2.0007  2.3100
   88SOPE  C310 8349   7.309   1.518   3.645 -0.9175 -0.9383  0.8202
   88SOPE  H10X 8350   7.313   1.410   3.618 -2.2765 -0.9291  0.4941
   88SOPE  H10Y 8351   7.205   1.547   3.616 -0.0799  0.7889 -0.6608
   88SOPE  C311 8352   7.316   1.531   3.798  0.0237 -0.4904 -0.1198
   88SOPE  H11X 8353   7.342   1.637   3.821  2.7443 -0.5379 -2.4491
   88SOPE  H11Y 8354   7.411   1.485   3.832  0.0864 -1.4018 -1.4574
   88SOPE  C312 8355   7.195   1.463   3.861 -0.4199  0.5500 -0.0681
   88SOPE  H12X 8356   7.188   1.357   3.827 -3.5469 -0.1949  2.4247
   88SOPE  H12Y 8357   7.100   1.516   3.842 -2.0954 -1.9035  1.0003
   88SOPE  C313 8358   7.206   1.462   4.013  0.5049  0.1954  0.2285
   88SOPE  H13X 8359   7.214   1.566   4.050  0.3353 -0.3362  1.8333
   88SOPE  H13Y 8360   7.300   1.409   4.040  0.3162 -1.0981 -1.4739
   88SOPE  C314 8361   7.074   1.401   4.078  0.0542 -0.4483 -0.2309
   88SOPE  H14X 8362   7.097   1.347   4.172 -2.0141  0.6454  0.9989
   88SOPE  H14Y 8363   7.022   1.336   4.005  2.3706 -0.7331 -1.7087
   88SOPE  C315 8364   6.990   1.525   4.119  0.3324  0.0697 -0.1424
   88SOPE  H15X 8365   6.964   1.602   4.044 -1.5392 -0.1688  0.2201
   88SOPE  H15Y 8366   7.042   1.570   4.206 -2.3534  0.8813  1.1280
   88SOPE  C316 8367   6.847   1.488   4.177 -0.2628  0.1797  0.4428
   88SOPE  H16X 8368   6.796   1.441   4.091  0.8874  0.9286 -0.6901
   88SOPE  H16Y 8369   6.793   1.579   4.210 -0.3987 -0.3783  1.8199
   88SOPE  C317 8370   6.841   1.403   4.296 -0.4598 -0.3656  0.1531
   88SOPE  H17X 8371   6.894   1.464   4.372  3.2070  1.8626 -3.7116
   88SOPE  H17Y 8372   6.887   1.302   4.283  1.2390  0.6586 -2.8337
   88SOPE  C318 8373   6.695   1.363   4.335 -0.2570 -0.5333  0.6458
   88SOPE  H18X 8374   6.707   1.290   4.418 -1.6001  0.5357  1.8377
   88SOPE  H18Y 8375   6.639   1.322   4.249 -1.0286  1.1767  0.2824
   88SOPE  H18Z 8376   6.653   1.454   4.383  1.0211  0.6861 -0.4290
   89SAPC     N 8377   4.547   3.643   6.761  0.3521  0.2377 -0.5843
   89SAPC   C12 8378   4.614   3.650   6.628 -0.8775  0.0925  0.1281
   89SAPC  H12A 8379   4.720   3.659   6.647 -0.5382 -2.5733 -0.0988
   89SAPC  H12B 8380   4.592   3.734   6.564  1.8391 -1.3105 -2.8993
   89SAPC   C13 8381   4.605   3.527   6.843 -0.1222  0.3965 -0.5415
   89SAPC  H13A 8382   4.579   3.432   6.801  0.1407  0.9598 -2.0477
   89SAPC  H13B 8383   4.712   3.521   6.853 -0.2921 -5.1749  1.0672
   89SAPC  H13C 8384   4.570   3.536   6.945  1.5826 -0.4054  0.1404
   89SAPC   C14 8385   4.568   3.773   6.838 -0.2961  0.5551  1.2987
   89SAPC  H14A 8386   4.515   3.856   6.794 -2.0562 -0.7019  0.9233
   89SAPC  H14B 8387   4.525   3.756   6.935  0.5855 -1.2280  1.4300
   89SAPC  H14C 8388   4.675   3.787   6.842 -0.4437  1.9747  0.6540
   89SAPC   C15 8389   4.400   3.619   6.743  0.0575  0.1559 -0.5692
   89SAPC  H15A 8390   4.384   3.527   6.689 -1.6897  0.1900 -0.1802
   89SAPC  H15B 8391   4.347   3.609   6.837  0.0231  1.2827 -0.4481
   89SAPC  H15C 8392   4.366   3.698   6.678  1.7770  0.9962 -0.4993
   89SAPC   C11 8393   4.600   3.537   6.534  0.0695  0.0483  0.1267
   89SAPC  H11A 8394   4.503   3.544   6.481  0.6171  1.1334 -0.7571
   89SAPC  H11B 8395   4.594   3.442   6.592  0.6344 -0.7184 -1.0438
   89SAPC     P 8396   4.731   3.419   6.347  0.2494 -0.0216  0.0807
   89SAPC   O13 8397   4.867   3.430   6.286  0.7092  0.2782 -0.4198
   89SAPC   O14 8398   4.687   3.294   6.408  0.1602 -0.1618 -0.7443
   89SAPC   O12 8399   4.709   3.533   6.449  0.3023  0.2736 -0.0241
   89SAPC   O11 8400   4.635   3.443   6.225  0.9815 -0.0700  0.2264
   89SAPC    C1 8401   4.650   3.576   6.172  0.5876 -0.5574  0.5006
   89SAPC    HA 8402   4.590   3.651   6.228  0.2530 -0.6473  0.2629
   89SAPC    HB 8403   4.755   3.610   6.161  0.3726 -0.5728 -2.6689
   89SAPC    C2 8404   4.600   3.592   6.027 -0.7262 -0.5950 -0.2557
   89SAPC    HS 8405   4.613   3.695   5.988  0.9455 -1.3886 -1.9967
   89SAPC   O21 8406   4.463   3.542   6.023  0.3941  0.4307 -0.1585
   89SAPC   C21 8407   4.386   3.612   5.948  0.2595 -0.0458 -0.2396
   89SAPC   O22 8408   4.408   3.719   5.896  0.2162 -0.2810  0.2060
   89SAPC   C22 8409   4.249   3.535   5.922 -0.1480  0.1411 -0.7647
   89SAPC   H2R 8410   4.274   3.428   5.910  2.7042  0.3918  1.7503
   89SAPC   H2S 8411   4.197   3.557   6.018  3.3124  1.0900  1.0410
   89SAPC    C3 8412   4.684   3.517   5.925 -0.7343  1.0720 -0.3750
   89SAPC    HX 8413   4.671   3.407   5.935  4.4321  0.3920  1.8035
   89SAPC    HY 8414   4.792   3.532   5.946 -0.7390 -0.4046  0.9968
   89SAPC   O31 8415   4.652   3.550   5.789 -0.7780 -0.0753 -0.2095
   89SAPC   C31 8416   4.689   3.666   5.744  0.6602  0.2821 -0.4207
   89SAPC   O32 8417   4.741   3.756   5.807  0.5571  0.1925 -0.4141
   89SAPC   C32 8418   4.661   3.677   5.599 -0.4357  0.3291 -0.1326
   89SAPC   H2X 8419   4.719   3.765   5.565 -1.2641  1.5336  1.3871
   89SAPC   H2Y 8420   4.554   3.702   5.581 -0.4264 -0.8579 -2.1384
   89SAPC   C23 8421   4.175   3.606   5.804  0.8324 -0.4515 -0.2665
   89SAPC   H3R 8422   4.164   3.716   5.817  0.2181 -0.3355 -1.6328
   89SAPC   H3S 8423   4.078   3.552   5.797  1.9661 -2.4001 -2.4057
   89SAPC   C24 8424   4.231   3.587   5.658 -0.0938 -0.1436 -0.2305
   89SAPC   H4R 8425   4.243   3.477   5.656  1.1457 -0.0215 -0.6347
   89SAPC   H4S 8426   4.332   3.635   5.659  0.8958 -2.0574 -1.6585
   89SAPC   C25 8427   4.144   3.653   5.553 -0.7752 -0.1512 -0.3030
   89SAPC   H5R 8428   4.039   3.622   5.555 -0.8207 -0.1908 -1.8127
   89SAPC   C26 8429   4.186   3.744   5.457  0.7743  1.0919 -1.0276
   89SAPC   H6R 8430   4.106   3.800   5.407 -0.7288  0.0150  0.0604
   89SAPC   C27 8431   4.326   3.790   5.438  0.3159 -0.8138 -0.1419
   89SAPC   H7R 8432   4.385   3.696   5.435  0.0208 -1.1190  2.0302
   89SAPC   H7S 8433   4.359   3.844   5.529  0.7053 -3.2119  1.2081
   89SAPC   C28 8434   4.351   3.866   5.312  0.4819  0.0375 -0.4190
   89SAPC   H8R 8435   4.350   3.974   5.331 -0.5828  0.3807 -2.1192
   89SAPC   C29 8436   4.361   3.826   5.185  0.5590 -0.3849  0.3449
   89SAPC   H9R 8437   4.368   3.904   5.108 -2.3653 -0.0673  0.2686
   89SAPC  C210 8438   4.345   3.687   5.132  0.2901 -0.3713  0.7144
   89SAPC  H10R 8439   4.358   3.605   5.206  0.1840  0.0487  1.2031
   89SAPC  H10S 8440   4.440   3.671   5.077 -0.1880  1.3582 -0.7095
   89SAPC  C211 8441   4.221   3.663   5.045 -0.2474 -0.8376  0.2126
   89SAPC  H11R 8442   4.130   3.680   5.103  0.5662  1.2100  0.9789
   89SAPC  C212 8443   4.222   3.627   4.913 -0.1104 -0.2598 -0.8968
   89SAPC  H12R 8444   4.123   3.620   4.864  0.0070 -3.5620 -0.8964
   89SAPC  C213 8445   4.348   3.602   4.824 -0.3957  0.3000  0.6112
   89SAPC  H13R 8446   4.446   3.599   4.876  1.6958 -0.6941 -3.0485
   89SAPC  H13S 8447   4.354   3.680   4.745 -1.0231 -0.3808 -0.1309
   89SAPC  C214 8448   4.323   3.468   4.763  0.0898 -0.0350 -0.3383
   89SAPC  H14R 8449   4.279   3.399   4.836 -2.1734  2.2637  0.6262
   89SAPC  C215 8450   4.322   3.441   4.632 -0.0565  0.3987 -1.1480
   89SAPC  H15R 8451   4.312   3.335   4.603  1.1489 -0.3112  0.8008
   89SAPC  C216 8452   4.402   3.522   4.531  0.2868  0.9325  0.2133
   89SAPC  H16R 8453   4.501   3.472   4.521 -0.1867 -0.2399  1.1423
   89SAPC  H16S 8454   4.430   3.623   4.567  1.4569  0.4298  0.7819
   89SAPC  C217 8455   4.329   3.530   4.391 -0.3481 -0.1021  0.3587
   89SAPC  H17R 8456   4.224   3.564   4.402 -0.1694  0.4200  0.4811
   89SAPC  H17S 8457   4.320   3.424   4.356  0.5000  0.0160 -0.2532
   89SAPC  C218 8458   4.396   3.626   4.288 -0.4760  0.0697  0.0104
   89SAPC  H18R 8459   4.504   3.608   4.271 -0.3707  0.8051 -0.1018
   89SAPC  H18S 8460   4.391   3.732   4.318  0.6546 -0.8320  3.9941
   89SAPC  C219 8461   4.335   3.603   4.147  0.0936 -0.0406  0.8182
   89SAPC  H19R 8462   4.225   3.619   4.157 -0.0989 -0.2587 -0.6548
   89SAPC  H19S 8463   4.349   3.507   4.093 -0.1119  0.7048 -0.6009
   89SAPC  C220 8464   4.381   3.720   4.059  0.4283  0.1881 -0.2496
   89SAPC  H20R 8465   4.348   3.705   3.954 -0.4552  0.9129 -0.0938
   89SAPC  H20S 8466   4.491   3.713   4.068  0.2334 -4.1823  1.2174
   89SAPC  H20T 8467   4.367   3.820   4.105  1.2100 -0.4635  1.4643
   89SAPC   C33 8468   4.710   3.553   5.532  0.1000  0.4289  0.2236
   89SAPC   H3X 8469   4.616   3.494   5.529 -0.1216  0.6751  1.6655
   89SAPC   H3Y 8470   4.784   3.496   5.592 -2.7830 -1.0036  2.6928
   89SAPC   C34 8471   4.776   3.583   5.398  0.0108 -0.3902 -0.0443
   89SAPC   H4X 8472   4.812   3.489   5.352 -0.9711  0.1370 -2.0381
   89SAPC   H4Y 8473   4.864   3.648   5.416 -0.2825 -0.0552  0.1958
   89SAPC   C35 8474   4.680   3.644   5.285  0.5002 -0.0039 -0.4358
   89SAPC   H5X 8475   4.640   3.740   5.323 -0.3236  0.1566 -1.6896
   89SAPC   H5Y 8476   4.591   3.579   5.272  0.2028 -0.1699  1.8889
   89SAPC   C36 8477   4.745   3.677   5.151 -0.5152  0.1620  1.1261
   89SAPC   H6X 8478   4.824   3.753   5.164 -0.2857 -0.0968  1.2670
   89SAPC   H6Y 8479   4.675   3.728   5.082  0.3386  1.7228  1.3922
   89SAPC   C37 8480   4.799   3.551   5.083 -0.3759  0.4957 -0.1961
   89SAPC   H7X 8481   4.716   3.476   5.085 -1.8919  1.9881 -2.3560
   89SAPC   H7Y 8482   4.879   3.515   5.152  0.1505  0.2941 -0.9088
   89SAPC   C38 8483   4.850   3.551   4.938 -0.9157  0.6312 -0.1035
   89SAPC   H8X 8484   4.864   3.445   4.907 -0.0843  0.3725  1.0636
   89SAPC   H8Y 8485   4.951   3.595   4.922 -0.5454  0.4237  1.4317
   89SAPC   C39 8486   4.750   3.613   4.845  1.2911 -0.4939  0.2560
   89SAPC   H9X 8487   4.748   3.723   4.854  0.9218 -0.5832  1.4441
   89SAPC   H9Y 8488   4.652   3.580   4.885  2.0386 -1.0537  1.7415
   89SAPC  C310 8489   4.773   3.589   4.701  0.2215  0.8601  0.0639
   89SAPC  H10X 8490   4.725   3.493   4.673 -0.0170  1.6471 -2.4980
   89SAPC  H10Y 8491   4.881   3.586   4.677  0.1672 -2.7318 -0.2404
   89SAPC  C311 8492   4.706   3.697   4.616  0.3695  0.4597  0.1384
   89SAPC  H11X 8493   4.736   3.792   4.665  0.2684  0.7951 -0.4502
   89SAPC  H11Y 8494   4.595   3.698   4.622  0.4163  2.4897  1.6961
   89SAPC  C312 8495   4.741   3.678   4.469 -0.4390 -0.1349  0.3885
   89SAPC  H12X 8496   4.695   3.582   4.437 -0.7389  0.0878  0.1547
   89SAPC  H12Y 8497   4.852   3.669   4.469 -0.1376  2.4237 -1.4448
   89SAPC  C313 8498   4.711   3.796   4.375 -0.0604  0.1325  0.0701
   89SAPC  H13X 8499   4.604   3.826   4.373  0.5550  2.6762  1.0161
   89SAPC  H13Y 8500   4.740   3.763   4.273 -1.7288  0.9377 -0.7088
   89SAPC  C314 8501   4.807   3.915   4.392  0.8943  0.1831  0.5486
   89SAPC  H14X 8502   4.911   3.878   4.390  0.3598 -1.5551  1.9705
   89SAPC  H14Y 8503   4.793   3.957   4.494 -0.9405  1.0075  0.0010
   89SAPC  C315 8504   4.796   4.023   4.281 -0.2112 -0.0384  0.5011
   89SAPC  H15X 8505   4.694   4.067   4.292  0.3884  1.2354  1.2833
   89SAPC  H15Y 8506   4.817   3.990   4.177  2.0426  0.4836  0.7363
   89SAPC  C316 8507   4.899   4.140   4.300 -0.8135  0.0285 -0.4437
   89SAPC  H16X 8508   5.006   4.109   4.294 -0.3207  0.8587  2.5880
   89SAPC  H16Y 8509   4.887   4.176   4.404 -1.8868  1.7905 -1.1257
   89SAPC  C317 8510   4.877   4.251   4.197  0.2627 -0.5473 -0.2718
   89SAPC  H17X 8511   4.770   4.280   4.206 -0.2557 -2.4742  0.2860
   89SAPC  H17Y 8512   4.899   4.218   4.093 -0.9766  0.5751 -0.9158
   89SAPC  C318 8513   4.959   4.372   4.237  0.3440 -0.4805  0.7964
   89SAPC  H18X 8514   5.067   4.346   4.227  0.3916  0.4942 -2.2171
   89SAPC  H18Y 8515   4.948   4.400   4.343 -0.0257 -0.6642  0.8059
   89SAPC  H18Z 8516   4.933   4.457   4.170  1.7270 -0.6168  0.0281
   90SAPC     N 8517   0.852   1.972   6.381 -0.8397  0.3937  0.2653
   90SAPC   C12 8518   0.992   2.005   6.315  0.9588  0.5975 -0.4181
   90SAPC  H12A 8519   1.049   2.077   6.373  0.7336 -1.2632  2.2716
   90SAPC  H12B 8520   0.988   2.036   6.212  1.7389 -2.3109 -1.4327
   90SAPC   C13 8521   0.878   1.933   6.524  0.7998  0.8582  0.3369
   90SAPC  H13A 8522   0.798   1.962   6.590  1.2047 -0.2739  1.3559
   90SAPC  H13B 8523   0.901   1.827   6.529  1.3763  1.0285  1.5966
   90SAPC  H13C 8524   0.957   1.990   6.569  1.7836 -1.0316  1.1303
   90SAPC   C14 8525   0.778   2.098   6.379  0.5064  0.0852  0.6798
   90SAPC  H14A 8526   0.675   2.079   6.408 -1.3499  2.9732 -2.9963
   90SAPC  H14B 8527   0.819   2.170   6.448 -1.2506  0.7116  1.1447
   90SAPC  H14C 8528   0.773   2.148   6.283 -1.8545 -1.9738 -0.4145
   90SAPC   C15 8529   0.778   1.870   6.297  0.2465 -0.0651  0.3396
   90SAPC  H15A 8530   0.681   1.856   6.342  0.5070  0.5858  1.1479
   90SAPC  H15B 8531   0.759   1.911   6.199  1.0470 -0.4451  0.0181
   90SAPC  H15C 8532   0.828   1.775   6.284 -1.2249 -0.4453 -3.6140
   90SAPC   C11 8533   1.087   1.882   6.305 -0.1779  0.4437  0.1768
   90SAPC  H11A 8534   1.047   1.791   6.255  0.3015  1.3706 -2.0237
   90SAPC  H11B 8535   1.109   1.839   6.405 -0.1923  0.3474  0.1387
   90SAPC     P 8536   1.266   1.878   6.118  0.1220  0.0118  0.3299
   90SAPC   O13 8537   1.174   1.952   6.022 -0.3129  0.2784 -0.2310
   90SAPC   O14 8538   1.411   1.895   6.105 -0.0333  0.8062  0.0918
   90SAPC   O12 8539   1.218   1.921   6.261 -0.1830  0.1451 -0.6147
   90SAPC   O11 8540   1.233   1.727   6.129 -0.1731  1.2237 -0.0375
   90SAPC    C1 8541   1.164   1.655   6.027 -0.1484 -0.5361 -0.8160
   90SAPC    HA 8542   1.068   1.623   6.071 -0.2825  0.8384 -0.0450
   90SAPC    HB 8543   1.136   1.713   5.936 -1.4920  0.5383  0.2422
   90SAPC    C2 8544   1.254   1.540   5.992 -0.2204  0.2891 -0.6459
   90SAPC    HS 8545   1.299   1.498   6.085 -1.1370  2.2739  0.7584
   90SAPC   O21 8546   1.358   1.584   5.900  0.0919  0.2988 -0.4263
   90SAPC   C21 8547   1.467   1.509   5.899 -0.2484 -0.0249  0.1709
   90SAPC   O22 8548   1.479   1.409   5.969 -0.1597  0.4278 -0.0651
   90SAPC   C22 8549   1.570   1.565   5.804 -0.3173  0.7955  0.5424
   90SAPC   H2R 8550   1.531   1.658   5.757 -1.2461 -0.4418 -1.2290
   90SAPC   H2S 8551   1.662   1.593   5.860  0.3994 -1.1037  0.3774
   90SAPC    C3 8552   1.176   1.425   5.924  0.5950 -0.0628  0.1325
   90SAPC    HX 8553   1.108   1.371   5.993 -1.2090 -0.3609 -1.7751
   90SAPC    HY 8554   1.252   1.349   5.893 -1.7814 -2.1238 -0.9917
   90SAPC   O31 8555   1.105   1.486   5.809 -0.4899 -0.0944 -0.1698
   90SAPC   C31 8556   1.095   1.393   5.713  0.0593 -0.3274  0.1692
   90SAPC   O32 8557   1.133   1.278   5.733  0.3258 -0.4310  0.3703
   90SAPC   C32 8558   1.026   1.456   5.595 -0.1781  0.2505 -0.0272
   90SAPC   H2X 8559   1.047   1.565   5.587  2.3873 -0.2851 -1.9422
   90SAPC   H2Y 8560   0.915   1.460   5.601 -0.2318  2.7949 -1.3182
   90SAPC   C23 8561   1.596   1.457   5.696 -0.0232  0.9380  0.2891
   90SAPC   H3R 8562   1.661   1.376   5.735  1.3543  2.1476  0.6282
   90SAPC   H3S 8563   1.669   1.509   5.630  0.6401  1.0306  1.0800
   90SAPC   C24 8564   1.468   1.403   5.627 -0.4461 -0.0233  0.0675
   90SAPC   H4R 8565   1.426   1.495   5.582  1.4422  0.7053 -0.2843
   90SAPC   H4S 8566   1.395   1.351   5.693  1.1606 -1.5527  0.7208
   90SAPC   C25 8567   1.509   1.303   5.523  0.2361  1.0468 -0.0323
   90SAPC   H5R 8568   1.506   1.198   5.554  0.0285  0.5675 -1.5798
   90SAPC   C26 8569   1.546   1.323   5.395  0.9358  0.0353 -0.1321
   90SAPC   H6R 8570   1.564   1.242   5.323 -3.3929 -0.5298 -0.8560
   90SAPC   C27 8571   1.556   1.460   5.337 -0.4519 -0.6231  0.2882
   90SAPC   H7R 8572   1.658   1.474   5.295  0.2688  0.2188  2.2149
   90SAPC   H7S 8573   1.545   1.541   5.413 -0.6562 -0.7830  0.4272
   90SAPC   C28 8574   1.443   1.494   5.239  0.2714 -0.1293 -0.2924
   90SAPC   H8R 8575   1.347   1.497   5.294  1.0853  3.9440  1.3085
   90SAPC   C29 8576   1.451   1.533   5.113 -1.1077 -0.4300  0.4236
   90SAPC   H9R 8577   1.360   1.545   5.054 -0.2003 -0.7495 -1.0816
   90SAPC  C210 8578   1.585   1.542   5.035  0.0397  0.1163 -0.1308
   90SAPC  H10R 8579   1.596   1.455   4.967 -1.6014  0.3392 -0.7270
   90SAPC  H10S 8580   1.674   1.537   5.102  0.0711  1.6484 -0.0319
   90SAPC  C211 8581   1.586   1.677   4.966  0.5219 -0.5221  0.2652
   90SAPC  H11R 8582   1.511   1.746   5.006  0.5690 -2.0972  3.3980
   90SAPC  C212 8583   1.687   1.726   4.890 -0.9820 -0.6263  0.6739
   90SAPC  H12R 8584   1.679   1.823   4.838  1.4587  0.8165  2.7809
   90SAPC  C213 8585   1.799   1.644   4.834 -0.0684 -0.1480 -0.3930
   90SAPC  H13R 8586   1.764   1.547   4.794  4.5488 -1.2485 -2.4131
   90SAPC  H13S 8587   1.869   1.626   4.919 -1.2715  2.5444  1.3237
   90SAPC  C214 8588   1.893   1.720   4.738 -0.9329  0.2453  0.4188
   90SAPC  H14R 8589   1.993   1.729   4.782 -0.8270 -2.0010  0.7309
   90SAPC  C215 8590   1.877   1.775   4.619 -0.0308  0.6880  0.5286
   90SAPC  H15R 8591   1.963   1.824   4.572 -0.0649  0.2374 -0.0251
   90SAPC  C216 8592   1.759   1.748   4.529  0.5493 -0.1231  0.0322
   90SAPC  H16R 8593   1.754   1.833   4.457  0.5279 -0.1251  0.0310
   90SAPC  H16S 8594   1.669   1.737   4.594  1.0276 -3.5004  0.2748
   90SAPC  C217 8595   1.778   1.626   4.451  0.5223  0.4436 -0.3418
   90SAPC  H17R 8596   1.750   1.538   4.512  0.5309  0.0145 -0.9387
   90SAPC  H17S 8597   1.880   1.608   4.412  0.0757  0.9759 -1.8551
   90SAPC  C218 8598   1.686   1.616   4.332  0.2734  0.1278  0.2607
   90SAPC  H18R 8599   1.736   1.652   4.240  1.1308 -0.2601  0.5621
   90SAPC  H18S 8600   1.590   1.669   4.349  1.0076  0.6684  3.2367
   90SAPC  C219 8601   1.644   1.473   4.306  0.4529  0.1940 -0.9589
   90SAPC  H19R 8602   1.547   1.469   4.359  0.7072 -0.7462 -0.5600
   90SAPC  H19S 8603   1.715   1.399   4.348 -0.4156  1.2089  2.5639
   90SAPC  C220 8604   1.620   1.452   4.152 -0.7196  0.5366  0.5277
   90SAPC  H20R 8605   1.582   1.352   4.125  0.9685 -0.0979  0.3699
   90SAPC  H20S 8606   1.716   1.466   4.098 -0.7785  1.9431  0.7299
   90SAPC  H20T 8607   1.536   1.519   4.124 -1.7277  0.1810  2.5298
   90SAPC   C33 8608   1.076   1.396   5.466 -0.2247 -0.0495 -0.0749
   90SAPC   H3X 8609   1.063   1.286   5.463  0.1809 -0.0922 -0.2783
   90SAPC   H3Y 8610   1.184   1.419   5.453  0.3422 -2.7730 -0.7469
   90SAPC   C34 8611   0.985   1.457   5.352  0.0778 -1.1355 -0.0415
   90SAPC   H4X 8612   1.005   1.566   5.360  0.1354 -1.1734  0.3548
   90SAPC   H4Y 8613   0.877   1.441   5.374 -0.8275  2.0303 -1.6082
   90SAPC   C35 8614   1.026   1.405   5.212  0.0246  0.2315  0.7446
   90SAPC   H5X 8615   0.996   1.298   5.211  0.9712 -0.0438  0.9687
   90SAPC   H5Y 8616   1.132   1.411   5.178 -0.6075  0.4396 -1.3639
   90SAPC   C36 8617   0.936   1.463   5.104 -0.1611  0.0654 -0.6543
   90SAPC   H6X 8618   0.958   1.572   5.100  1.4230 -0.1907  0.4351
   90SAPC   H6Y 8619   0.829   1.440   5.127  0.2881  0.7635  2.6182
   90SAPC   C37 8620   0.969   1.393   4.973 -0.2309  0.3875  0.7073
   90SAPC   H7X 8621   0.933   1.288   4.971 -0.7069  0.5489  0.7277
   90SAPC   H7Y 8622   1.078   1.388   4.956 -0.2198  2.6333 -0.2967
   90SAPC   C38 8623   0.914   1.455   4.843 -0.0981  0.7901  0.1389
   90SAPC   H8X 8624   0.945   1.561   4.854  1.5351  0.1737  2.1565
   90SAPC   H8Y 8625   0.803   1.452   4.845 -0.1725  0.8358 -1.9274
   90SAPC   C39 8626   0.963   1.385   4.713  0.4867  0.0099 -0.2696
   90SAPC   H9X 8627   0.911   1.288   4.696 -0.9997  0.7141  0.1159
   90SAPC   H9Y 8628   1.068   1.351   4.725  0.0670 -2.7462 -3.0703
   90SAPC  C310 8629   0.952   1.466   4.585 -0.0377 -0.6637 -0.3814
   90SAPC  H10X 8630   1.034   1.541   4.597 -1.6723  1.0989  0.1817
   90SAPC  H10Y 8631   0.852   1.514   4.581 -0.2989 -1.0073  1.4530
   90SAPC  C311 8632   0.985   1.389   4.456 -0.2138  0.4586 -0.1181
   90SAPC  H11X 8633   0.889   1.354   4.413  1.4025 -2.8836 -1.3611
   90SAPC  H11Y 8634   1.046   1.296   4.462 -1.4638 -0.4821 -1.1298
   90SAPC  C312 8635   1.049   1.482   4.347 -0.2135  0.1338 -0.0984
   90SAPC  H12X 8636   1.137   1.526   4.398 -0.8420 -1.2175  2.3206
   90SAPC  H12Y 8637   0.973   1.560   4.328 -0.3395 -0.1917 -0.9824
   90SAPC  C313 8638   1.114   1.425   4.215  0.2909  0.2230  0.2983
   90SAPC  H13X 8639   1.024   1.399   4.156  0.0273  0.6408  0.5102
   90SAPC  H13Y 8640   1.177   1.336   4.237  2.0023  1.5600  1.0712
   90SAPC  C314 8641   1.186   1.536   4.146  0.5019  0.6946  0.3604
   90SAPC  H14X 8642   1.245   1.595   4.218  0.9709 -0.2133  0.7417
   90SAPC  H14Y 8643   1.103   1.604   4.116  0.4315  0.1925 -0.6566
   90SAPC  C315 8644   1.258   1.488   4.017 -0.3531 -0.2264 -0.3762
   90SAPC  H15X 8645   1.201   1.414   3.957 -0.2172 -1.2193  0.6808
   90SAPC  H15Y 8646   1.349   1.430   4.044 -0.6512  0.3292  2.0472
   90SAPC  C316 8647   1.291   1.614   3.936  0.1995 -0.3108 -1.0483
   90SAPC  H16X 8648   1.367   1.681   3.981 -1.7147  1.1540  0.1114
   90SAPC  H16Y 8649   1.196   1.672   3.937  0.0527 -0.5453  0.1377
   90SAPC  C317 8650   1.338   1.575   3.795 -0.5390  0.1496  0.2455
   90SAPC  H17X 8651   1.341   1.666   3.731  3.3124 -0.8975 -1.3427
   90SAPC  H17Y 8652   1.271   1.495   3.756 -0.6258 -1.5042  3.3844
   90SAPC  C318 8653   1.481   1.525   3.791 -0.7084  0.2997  0.2692
   90SAPC  H18X 8654   1.521   1.532   3.687 -0.2819 -1.5612  0.2610
   90SAPC  H18Y 8655   1.485   1.417   3.819 -1.4536  0.2649  0.2468
   90SAPC  H18Z 8656   1.547   1.578   3.863  1.3884  1.0122 -2.0445
   91SAPC     N 8657   4.817   6.429   6.457 -0.3905 -0.3998  0.3416
   91SAPC   C12 8658   4.787   6.475   6.310 -0.2793  0.4342  0.0673
   91SAPC  H12A 8659   4.749   6.576   6.309  1.5363  1.1892 -1.9408
   91SAPC  H12B 8660   4.708   6.409   6.276 -0.3845 -0.0385  1.1878
   91SAPC   C13 8661   4.693   6.433   6.540  0.5161 -0.0342 -0.1020
   91SAPC  H13A 8662   4.655   6.531   6.562 -0.5424 -0.6387  0.8441
   91SAPC  H13B 8663   4.615   6.370   6.501 -1.2219 -0.2205  3.3141
   91SAPC  H13C 8664   4.722   6.378   6.629  3.0907  1.5037  0.1038
   91SAPC   C14 8665   4.873   6.290   6.469  0.7072  0.0362 -0.7665
   91SAPC  H14A 8666   4.873   6.258   6.572 -0.4070  0.1838 -0.7102
   91SAPC  H14B 8667   4.802   6.228   6.417 -0.3258 -0.8624  1.5950
   91SAPC  H14C 8668   4.971   6.270   6.428  1.5171  0.9404  0.6230
   91SAPC   C15 8669   4.924   6.518   6.515  0.2823 -0.6334 -0.3515
   91SAPC  H15A 8670   4.900   6.624   6.513 -2.3631 -1.1359 -3.0274
   91SAPC  H15B 8671   4.942   6.496   6.619  0.4264 -0.2168 -0.2848
   91SAPC  H15C 8672   5.019   6.508   6.466  1.6792 -1.7193  2.3763
   91SAPC   C11 8673   4.898   6.473   6.200 -0.0906  0.1871  0.1319
   91SAPC  H11A 8674   4.843   6.506   6.110 -0.2473  0.6162  0.3831
   91SAPC  H11B 8675   4.944   6.375   6.173  0.4115  0.3720  0.3077
   91SAPC     P 8676   5.148   6.577   6.218  0.1629  0.2354  0.4013
   91SAPC   O13 8677   5.190   6.719   6.192  0.2546  0.2485 -0.1349
   91SAPC   O14 8678   5.211   6.504   6.331 -0.4664  0.5779  0.6455
   91SAPC   O12 8679   4.992   6.577   6.231  0.5653 -0.2470  0.2121
   91SAPC   O11 8680   5.154   6.499   6.086 -0.4803  0.5883 -0.6096
   91SAPC    C1 8681   5.186   6.572   5.972  0.4005 -0.2030  0.3764
   91SAPC    HA 8682   5.134   6.515   5.892  1.2354  0.5433 -0.7351
   91SAPC    HB 8683   5.149   6.677   5.970  0.4490 -0.1919  0.0589
   91SAPC    C2 8684   5.332   6.566   5.930  0.5374 -0.9709 -0.6776
   91SAPC    HS 8685   5.384   6.610   6.017 -0.6448 -1.1091  0.1284
   91SAPC   O21 8686   5.346   6.628   5.800  0.3801 -0.0902 -0.4126
   91SAPC   C21 8687   5.462   6.687   5.785 -0.3686 -0.3921 -0.4085
   91SAPC   O22 8688   5.534   6.712   5.879  0.1255  0.5881 -0.3616
   91SAPC   C22 8689   5.483   6.716   5.636 -0.5081 -0.1903 -0.2777
   91SAPC   H2R 8690   5.579   6.770   5.623 -1.0864  1.0065  0.2002
   91SAPC   H2S 8691   5.490   6.620   5.582  0.3780  0.5510 -1.5255
   91SAPC    C3 8692   5.376   6.427   5.918 -0.1000 -0.1754  0.1713
   91SAPC    HX 8693   5.359   6.381   6.018  0.9340  0.5553  0.7011
   91SAPC    HY 8694   5.487   6.428   5.907  0.0114 -0.5194  1.1490
   91SAPC   O31 8695   5.311   6.346   5.824  0.6556 -0.2985  0.8140
   91SAPC   C31 8696   5.366   6.307   5.712  0.9305 -0.3043 -0.4096
   91SAPC   O32 8697   5.468   6.344   5.661 -0.4368 -0.2085  0.0399
   91SAPC   C32 8698   5.267   6.196   5.665 -0.4082 -0.0358  0.0480
   91SAPC   H2X 8699   5.187   6.182   5.740 -0.3309 -0.0779  0.1229
   91SAPC   H2Y 8700   5.327   6.103   5.662 -0.5803 -0.1289 -0.5409
   91SAPC   C23 8701   5.364   6.800   5.579 -0.0844  0.8324 -0.4586
   91SAPC   H3R 8702   5.376   6.901   5.622 -0.5663  0.1003  1.4763
   91SAPC   H3S 8703   5.264   6.766   5.614  0.7618  0.2940  1.5760
   91SAPC   C24 8704   5.361   6.790   5.427  0.5572 -0.0198 -0.3637
   91SAPC   H4R 8705   5.273   6.834   5.375  1.0175  1.1322 -0.2086
   91SAPC   H4S 8706   5.357   6.685   5.392 -2.6382 -0.2646  0.4269
   91SAPC   C25 8707   5.482   6.849   5.368  0.1515 -0.5109  0.4825
   91SAPC   H5R 8708   5.533   6.922   5.432 -1.7764  2.4224 -1.0983
   91SAPC   C26 8709   5.527   6.815   5.244  0.3497  0.1613  0.5695
   91SAPC   H6R 8710   5.632   6.830   5.213 -0.0834  1.3936 -0.4190
   91SAPC   C27 8711   5.470   6.735   5.126  0.1594 -0.6052  0.4257
   91SAPC   H7R 8712   5.369   6.703   5.158 -1.5005 -0.3083 -3.8909
   91SAPC   H7S 8713   5.525   6.640   5.115 -1.4260 -1.4770 -0.2357
   91SAPC   C28 8714   5.469   6.811   4.989 -0.2420 -0.1037 -0.7484
   91SAPC   H8R 8715   5.413   6.906   4.989 -1.3507 -0.7364 -0.6640
   91SAPC   C29 8716   5.500   6.759   4.869 -0.3457 -0.2512  0.1219
   91SAPC   H9R 8717   5.488   6.832   4.787 -0.6926 -0.4685 -0.0283
   91SAPC  C210 8718   5.570   6.620   4.846 -0.5119  0.2097 -0.2507
   91SAPC  H10R 8719   5.569   6.601   4.736 -0.8222 -1.1055 -0.0420
   91SAPC  H10S 8720   5.505   6.535   4.876 -2.4622  1.3952 -0.9148
   91SAPC  C211 8721   5.714   6.615   4.899 -0.0427 -0.5700  0.1212
   91SAPC  H11R 8722   5.726   6.576   5.001 -1.5269 -0.5291  0.3445
   91SAPC  C212 8723   5.824   6.649   4.828  0.4482  0.0249 -0.3749
   91SAPC  H12R 8724   5.923   6.634   4.875 -0.4490  0.7466  1.8766
   91SAPC  C213 8725   5.823   6.693   4.687 -0.3287  0.0303  0.0948
   91SAPC  H13R 8726   5.899   6.774   4.686 -0.5380  0.2683  1.4225
   91SAPC  H13S 8727   5.729   6.748   4.667 -1.1982 -0.2767  2.8347
   91SAPC  C214 8728   5.846   6.593   4.580  0.7094  0.7472 -0.4482
   91SAPC  H14R 8729   5.875   6.494   4.617 -1.3365 -0.1366 -1.1061
   91SAPC  C215 8730   5.834   6.616   4.447 -0.3686  0.2896 -0.1558
   91SAPC  H15R 8731   5.819   6.535   4.374  1.3575  2.0304 -2.6033
   91SAPC  C216 8732   5.813   6.754   4.385 -0.8188 -0.1210 -0.4215
   91SAPC  H16R 8733   5.837   6.837   4.455 -1.3604  1.2831 -1.8120
   91SAPC  H16S 8734   5.705   6.773   4.366 -0.6347  0.4642 -0.9466
   91SAPC  C217 8735   5.883   6.780   4.249  0.2501  0.4320 -0.2266
   91SAPC  H17R 8736   5.992   6.766   4.264  0.1085  1.0096  1.6001
   91SAPC  H17S 8737   5.865   6.885   4.215  2.2461  0.3062 -1.9156
   91SAPC  C218 8738   5.837   6.693   4.132  0.0203  0.0693  0.8621
   91SAPC  H18R 8739   5.732   6.705   4.100 -0.3140 -1.0371  1.5015
   91SAPC  H18S 8740   5.838   6.589   4.172 -2.7726  1.0764  3.9519
   91SAPC  C219 8741   5.922   6.708   4.007  0.2481 -0.2421 -0.5610
   91SAPC  H19R 8742   5.897   6.631   3.931 -1.7954 -0.0821 -0.1064
   91SAPC  H19S 8743   6.029   6.684   4.028 -0.4816 -2.1486  1.3000
   91SAPC  C220 8744   5.906   6.835   3.924  0.1216 -0.0180  0.7056
   91SAPC  H20R 8745   5.798   6.843   3.900 -0.3698 -2.8051  1.6200
   91SAPC  H20S 8746   5.960   6.829   3.827 -0.2909  1.3656  0.3723
   91SAPC  H20T 8747   5.930   6.924   3.986 -0.8580  2.1125 -1.7967
   91SAPC   C33 8748   5.224   6.226   5.525 -0.1106  0.1015  0.7873
   91SAPC   H3X 8749   5.210   6.128   5.475  0.2133  0.2073  0.4865
   91SAPC   H3Y 8750   5.308   6.264   5.464  0.5528 -1.0269  0.9698
   91SAPC   C34 8751   5.107   6.317   5.524 -0.9031 -0.3968 -0.0392
   91SAPC   H4X 8752   5.081   6.360   5.623  3.2316  3.2066 -0.2024
   91SAPC   H4Y 8753   5.020   6.250   5.505 -0.3195 -0.4589 -2.9157
   91SAPC   C35 8754   5.122   6.428   5.421  0.6141  0.0595 -0.3478
   91SAPC   H5X 8755   5.215   6.489   5.425  0.5258  0.1335  1.2227
   91SAPC   H5Y 8756   5.054   6.513   5.445  1.7978  1.8433 -2.8605
   91SAPC   C36 8757   5.096   6.377   5.273 -0.0181 -0.1822  0.3277
   91SAPC   H6X 8758   4.988   6.354   5.265  0.3457 -1.9264  0.0619
   91SAPC   H6Y 8759   5.163   6.293   5.246  0.5617  0.4714 -0.2875
   91SAPC   C37 8760   5.135   6.490   5.175  0.1064  0.1904 -0.2749
   91SAPC   H7X 8761   5.115   6.442   5.077 -0.5499 -1.3071  0.5538
   91SAPC   H7Y 8762   5.244   6.512   5.178  0.3617 -1.0320  0.1398
   91SAPC   C38 8763   5.042   6.618   5.200 -0.0960  0.1079  0.5091
   91SAPC   H8X 8764   5.055   6.638   5.309  0.7439 -0.0327  0.4393
   91SAPC   H8Y 8765   4.935   6.588   5.205  0.2096 -0.9038  1.1636
   91SAPC   C39 8766   5.068   6.737   5.110 -0.5278 -0.7823  0.5267
   91SAPC   H9X 8767   5.176   6.750   5.131 -0.4880 -0.5090  0.1467
   91SAPC   H9Y 8768   4.998   6.819   5.135 -2.2698 -1.8547 -0.5892
   91SAPC  C310 8769   5.062   6.700   4.967 -0.2056  0.4683 -0.5580
   91SAPC  H10X 8770   4.971   6.657   4.921  1.2916 -2.7301 -0.8441
   91SAPC  H10Y 8771   5.134   6.622   4.936 -0.9785  0.5058 -2.5705
   91SAPC  C311 8772   5.088   6.820   4.877 -0.5334  0.2112 -0.0058
   91SAPC  H11X 8773   5.194   6.849   4.891 -0.2062  0.7933 -3.0014
   91SAPC  H11Y 8774   5.022   6.906   4.903 -0.7526 -0.0955  0.4583
   91SAPC  C312 8775   5.042   6.798   4.736  0.8377  0.2188 -0.5695
   91SAPC  H12X 8776   4.931   6.794   4.733  0.8867 -2.3906 -2.3101
   91SAPC  H12Y 8777   5.085   6.699   4.709  3.8830  1.4849 -0.6458
   91SAPC  C313 8778   5.101   6.883   4.626 -0.1714 -0.1717 -0.2918
   91SAPC  H13X 8779   5.073   6.831   4.532 -0.6049 -0.1154 -0.1988
   91SAPC  H13Y 8780   5.211   6.897   4.633  0.0275 -0.8582 -1.7478
   91SAPC  C314 8781   5.017   7.004   4.585  0.3725 -0.3342 -0.1651
   91SAPC  H14X 8782   5.014   7.084   4.661 -1.9702  0.0289 -0.5641
   91SAPC  H14Y 8783   4.912   6.967   4.580 -0.7100  2.6164 -1.4604
   91SAPC  C315 8784   5.045   7.052   4.438  0.0550  0.3685  0.3826
   91SAPC  H15X 8785   5.069   6.964   4.374 -1.2429  0.6221 -0.4919
   91SAPC  H15Y 8786   5.136   7.115   4.432 -0.5938  1.2849  0.0366
   91SAPC  C316 8787   4.927   7.135   4.378 -0.1823  1.1409 -1.0767
   91SAPC  H16X 8788   4.896   7.207   4.457 -1.9503  0.9497 -1.5568
   91SAPC  H16Y 8789   4.839   7.067   4.379  0.6655  0.0060 -0.2454
   91SAPC  C317 8790   4.950   7.203   4.242  0.3895 -0.5054  0.1013
   91SAPC  H17X 8791   5.040   7.268   4.237  0.0114  0.1452  1.2961
   91SAPC  H17Y 8792   4.868   7.274   4.216  3.2134  1.9770 -2.9482
   91SAPC  C318 8793   4.938   7.102   4.125  0.1765 -0.2960  0.3224
   91SAPC  H18X 8794   4.920   7.163   4.034  0.9376 -0.1056  0.2899
   91SAPC  H18Y 8795   4.859   7.027   4.145 -1.4458  1.9239  2.7439
   91SAPC  H18Z 8796   5.038   7.054   4.112  0.3222  0.4572 -1.8694
   92SAPC     N 8797   6.329   5.645   6.487 -0.3613  0.3402  0.0499
   92SAPC   C12 8798   6.403   5.719   6.590 -0.1137  0.5051  0.5089
   92SAPC  H12A 8799   6.414   5.648   6.671 -1.0785 -1.5357 -1.0497
   92SAPC  H12B 8800   6.344   5.801   6.626 -1.0840  1.1588 -2.3546
   92SAPC   C13 8801   6.420   5.561   6.403  0.6400  0.1245 -0.1076
   92SAPC  H13A 8802   6.476   5.627   6.339 -0.6543  1.1422 -0.2347
   92SAPC  H13B 8803   6.477   5.499   6.471 -0.3418 -0.6418  0.0380
   92SAPC  H13C 8804   6.351   5.494   6.354 -1.7825 -0.0561  3.1988
   92SAPC   C14 8805   6.209   5.575   6.544  0.5315  0.1849  0.7710
   92SAPC  H14A 8806   6.152   5.655   6.589  1.2196  1.7555 -1.0080
   92SAPC  H14B 8807   6.144   5.543   6.463  1.6411 -1.6214  0.5240
   92SAPC  H14C 8808   6.219   5.490   6.609  1.0782 -2.6441 -2.6659
   92SAPC   C15 8809   6.255   5.739   6.396  0.2068  0.1793  0.3880
   92SAPC  H15A 8810   6.212   5.693   6.308  0.3251 -1.6153  1.2241
   92SAPC  H15B 8811   6.176   5.786   6.453  0.5414  1.5053 -0.2075
   92SAPC  H15C 8812   6.322   5.818   6.365 -0.3946  1.4982  2.3275
   92SAPC   C11 8813   6.526   5.793   6.548 -0.0245 -0.4607 -0.3376
   92SAPC  H11A 8814   6.608   5.732   6.505 -1.1221 -1.0245 -1.7357
   92SAPC  H11B 8815   6.575   5.831   6.641  1.3980  3.3163 -2.4138
   92SAPC     P 8816   6.466   6.062   6.517 -0.0826  0.0558  0.3531
   92SAPC   O13 8817   6.322   6.086   6.515 -0.3734  0.1670  0.2687
   92SAPC   O14 8818   6.544   6.091   6.633  0.3728 -0.4139 -0.3579
   92SAPC   O12 8819   6.486   5.908   6.466 -0.0413  0.2006  0.0247
   92SAPC   O11 8820   6.535   6.124   6.393 -0.3606  0.1250 -0.1415
   92SAPC    C1 8821   6.676   6.131   6.360 -0.1696  0.5691  0.3890
   92SAPC    HA 8822   6.731   6.191   6.436 -0.3609 -1.1523  1.9717
   92SAPC    HB 8823   6.721   6.030   6.359 -1.4385 -0.0516  1.7262
   92SAPC    C2 8824   6.697   6.196   6.221  0.2300  0.9214 -0.3038
   92SAPC    HS 8825   6.634   6.287   6.214  0.0383  1.0753  2.2311
   92SAPC   O21 8826   6.661   6.090   6.135 -0.1951 -0.5547 -0.7276
   92SAPC   C21 8827   6.646   6.131   6.007 -0.1578 -0.1364 -0.4529
   92SAPC   O22 8828   6.661   6.251   5.979  0.1215  0.7061  0.1197
   92SAPC   C22 8829   6.633   6.013   5.910 -0.4762  0.8806 -0.4957
   92SAPC   H2R 8830   6.699   5.935   5.953 -1.2668 -0.0905 -0.9770
   92SAPC   H2S 8831   6.530   5.972   5.923 -0.1117  0.1986  0.3437
   92SAPC    C3 8832   6.848   6.237   6.193 -0.1034  0.8102 -0.0253
   92SAPC    HX 8833   6.866   6.322   6.263  0.9329 -0.5361  1.4253
   92SAPC    HY 8834   6.873   6.275   6.092  0.0184 -2.5303 -1.3643
   92SAPC   O31 8835   6.937   6.129   6.227 -0.2970  0.3464  0.5543
   92SAPC   C31 8836   6.966   6.052   6.126 -0.6095 -0.6142 -0.1015
   92SAPC   O32 8837   6.935   6.071   6.011 -0.0059 -0.1342  0.3285
   92SAPC   C32 8838   7.042   5.930   6.175  0.0821 -0.3422 -0.4591
   92SAPC   H2X 8839   6.969   5.861   6.223  1.6324 -1.7757 -0.0707
   92SAPC   H2Y 8840   7.120   5.958   6.249 -0.0793 -3.0007  0.8433
   92SAPC   C23 8841   6.668   6.040   5.766  0.2185  0.2551 -0.1526
   92SAPC   H3R 8842   6.771   6.082   5.760  1.1860 -2.1517 -2.9595
   92SAPC   H3S 8843   6.607   6.112   5.707 -1.2517 -1.3364 -0.6606
   92SAPC   C24 8844   6.685   5.918   5.686  0.0735  0.3359 -0.1861
   92SAPC   H4R 8845   6.728   5.834   5.745  0.8386  0.0404 -1.1456
   92SAPC   H4S 8846   6.762   5.930   5.607  0.4550  0.7687  0.2440
   92SAPC   C25 8847   6.560   5.859   5.626  0.5641 -0.2896  0.8058
   92SAPC   H5R 8848   6.486   5.816   5.695 -1.7125 -0.2661 -1.4735
   92SAPC   C26 8849   6.530   5.851   5.494  0.5519 -0.9491  0.1259
   92SAPC   H6R 8850   6.428   5.825   5.462  0.4423  0.5926 -0.9020
   92SAPC   C27 8851   6.615   5.907   5.376 -0.3154  0.4490 -0.1100
   92SAPC   H7R 8852   6.619   5.829   5.297 -1.0447  0.2236  0.0644
   92SAPC   H7S 8853   6.721   5.920   5.406 -0.1111 -1.6588  0.1986
   92SAPC   C28 8854   6.562   6.034   5.314  0.7187  0.1891 -0.3726
   92SAPC   H8R 8855   6.559   6.121   5.382  0.6891  0.4501 -0.7062
   92SAPC   C29 8856   6.511   6.057   5.193  0.6623 -0.6091 -0.5166
   92SAPC   H9R 8857   6.471   6.158   5.180  3.8167  0.9819  0.8265
   92SAPC  C210 8858   6.513   5.976   5.072  0.0816  0.1381  0.0375
   92SAPC  H10R 8859   6.471   5.877   5.102 -0.9495  1.2105  2.4336
   92SAPC  H10S 8860   6.616   5.956   5.037  0.1359 -0.2851  0.4374
   92SAPC  C211 8861   6.435   6.038   4.952 -0.5896 -0.1803 -0.0412
   92SAPC  H11R 8862   6.402   6.143   4.962  1.2914  0.4519  0.0855
   92SAPC  C212 8863   6.414   5.983   4.831 -0.2429  0.7421  0.0209
   92SAPC  H12R 8864   6.359   6.040   4.755 -0.0204 -0.1631 -0.8282
   92SAPC  C213 8865   6.473   5.857   4.779 -0.4615 -0.9077 -0.0654
   92SAPC  H13R 8866   6.413   5.773   4.820  1.3824 -1.1715  2.2817
   92SAPC  H13S 8867   6.570   5.834   4.829  0.1637 -3.6387 -2.2419
   92SAPC  C214 8868   6.507   5.839   4.631 -0.1080  0.5834  0.1249
   92SAPC  H14R 8869   6.447   5.756   4.589 -2.4426  2.0250  0.4106
   92SAPC  C215 8870   6.598   5.906   4.548 -0.3658  0.3629  0.5001
   92SAPC  H15R 8871   6.600   5.889   4.439  0.6375  0.4865  0.4835
   92SAPC  C216 8872   6.697   6.003   4.609 -0.4532  0.2649  0.1489
   92SAPC  H16R 8873   6.803   5.988   4.580  0.3145 -3.9598  4.0173
   92SAPC  H16S 8874   6.710   5.981   4.717  0.3519 -1.4469 -0.2673
   92SAPC  C217 8875   6.653   6.151   4.620  0.1267 -0.9086  0.0644
   92SAPC  H17R 8876   6.719   6.203   4.692  1.0644  1.3521 -2.2637
   92SAPC  H17S 8877   6.550   6.166   4.659  0.2546 -2.2861  0.9944
   92SAPC  C218 8878   6.669   6.218   4.480  0.3463  0.2946 -0.4464
   92SAPC  H18R 8879   6.613   6.159   4.405  1.8296 -1.9589  0.0707
   92SAPC  H18S 8880   6.773   6.227   4.442  0.9436 -0.9554  0.7695
   92SAPC  C219 8881   6.623   6.365   4.486 -1.1411  1.5523 -0.1689
   92SAPC  H19R 8882   6.708   6.418   4.534  0.1617 -0.6781  0.1313
   92SAPC  H19S 8883   6.527   6.370   4.541 -0.5689 -4.0602  2.0388
   92SAPC  C220 8884   6.594   6.427   4.346 -0.0804  1.3778  0.4766
   92SAPC  H20R 8885   6.533   6.352   4.292  0.0372  1.4796  0.1984
   92SAPC  H20S 8886   6.685   6.454   4.289 -0.0074  0.4203  0.1120
   92SAPC  H20T 8887   6.543   6.525   4.359 -1.5050  0.4887  2.0501
   92SAPC   C33 8888   7.114   5.855   6.062  0.6927 -0.3830  0.7128
   92SAPC   H3X 8889   7.197   5.794   6.102  0.5146 -0.8860  0.3248
   92SAPC   H3Y 8890   7.154   5.938   5.999 -1.9523 -0.2714 -0.9892
   92SAPC   C34 8891   7.024   5.760   5.990  0.7228  0.3659 -0.5247
   92SAPC   H4X 8892   6.944   5.817   5.938 -1.0238  0.1735  1.8146
   92SAPC   H4Y 8893   6.974   5.692   6.062 -0.5920  0.5976 -1.1950
   92SAPC   C35 8894   7.100   5.676   5.887  0.4524  0.3688 -0.1465
   92SAPC   H5X 8895   7.176   5.620   5.944  0.4270  0.7225  0.2399
   92SAPC   H5Y 8896   7.154   5.739   5.813  0.3470  2.1919  1.2766
   92SAPC   C36 8897   7.015   5.563   5.814 -0.2551 -0.4377 -0.0651
   92SAPC   H6X 8898   6.915   5.546   5.859 -0.9699 -2.1234 -2.1298
   92SAPC   H6Y 8899   7.079   5.475   5.833 -0.9422 -0.9783 -0.2189
   92SAPC   C37 8900   6.971   5.571   5.665  0.3286  0.0315 -0.2923
   92SAPC   H7X 8901   6.939   5.672   5.632 -0.2667 -0.3908 -1.0265
   92SAPC   H7Y 8902   6.888   5.499   5.646 -0.9047  1.4968 -0.6658
   92SAPC   C38 8903   7.094   5.530   5.575 -0.1967 -0.3721 -0.6825
   92SAPC   H8X 8904   7.139   5.431   5.601 -0.6414 -0.9213 -1.9500
   92SAPC   H8Y 8905   7.175   5.604   5.595  0.5027 -1.1307 -0.6150
   92SAPC   C39 8906   7.056   5.531   5.428 -0.3410  0.1360 -0.3131
   92SAPC   H9X 8907   7.000   5.623   5.400 -0.4162  0.3036  0.3744
   92SAPC   H9Y 8908   6.985   5.448   5.408  0.1421 -0.2909 -0.2739
   92SAPC  C310 8909   7.174   5.530   5.329 -0.1671 -0.1359 -0.4057
   92SAPC  H10X 8910   7.239   5.440   5.339  3.2494  2.3407  2.3952
   92SAPC  H10Y 8911   7.240   5.610   5.370 -0.6235  0.5111 -0.9234
   92SAPC  C311 8912   7.147   5.547   5.177 -0.2912  0.2282 -0.3730
   92SAPC  H11X 8913   7.122   5.446   5.138 -0.3050  0.3377 -0.6474
   92SAPC  H11Y 8914   7.242   5.580   5.129 -0.6314  0.5353 -0.8405
   92SAPC  C312 8915   7.043   5.651   5.149  0.7021 -0.5169  0.3118
   92SAPC  H12X 8916   7.082   5.743   5.198  0.8187 -0.7472  0.6551
   92SAPC  H12Y 8917   6.946   5.614   5.188 -1.1616  2.3043 -1.2855
   92SAPC  C313 8918   7.012   5.668   4.999 -0.1918 -0.4885 -0.0894
   92SAPC  H13X 8919   7.109   5.697   4.953 -0.0487 -0.4298  0.2505
   92SAPC  H13Y 8920   6.943   5.754   4.985 -0.2762 -0.2785  1.5022
   92SAPC  C314 8921   6.952   5.551   4.928  0.3455 -0.9147  0.1307
   92SAPC  H14X 8922   6.863   5.513   4.983 -2.4046  0.5290 -2.9006
   92SAPC  H14Y 8923   7.024   5.467   4.924  0.6553 -0.7236  1.3937
   92SAPC  C315 8924   6.909   5.592   4.787 -0.3082 -0.3785 -0.2209
   92SAPC  H15X 8925   6.998   5.607   4.721 -0.8049  2.9709 -0.2993
   92SAPC  H15Y 8926   6.868   5.695   4.784 -2.2327 -1.0632  0.8359
   92SAPC  C316 8927   6.800   5.499   4.736  0.2347 -0.0953 -0.0198
   92SAPC  H16X 8928   6.713   5.519   4.803  0.5948  2.4273 -0.2085
   92SAPC  H16Y 8929   6.834   5.393   4.741  1.0675  0.0551 -1.7622
   92SAPC  C317 8930   6.758   5.519   4.585 -0.0867  0.5116 -0.1816
   92SAPC  H17X 8931   6.797   5.618   4.555 -0.0820  2.0250  4.0807
   92SAPC  H17Y 8932   6.647   5.525   4.574  0.1418 -0.4931 -5.3047
   92SAPC  C318 8933   6.815   5.417   4.491  0.3213  0.0451  0.1641
   92SAPC  H18X 8934   6.818   5.455   4.387  3.6272 -0.5004 -0.0373
   92SAPC  H18Y 8935   6.764   5.319   4.477 -0.2225 -0.2355  3.3975
   92SAPC  H18Z 8936   6.920   5.386   4.505  0.1493 -1.7716 -1.9498
   93SAPC     N 8937   6.236   6.992   6.633  0.3856 -0.9756 -0.1810
   93SAPC   C12 8938   6.369   7.058   6.586 -0.4343  0.1133  0.1578
   93SAPC  H12A 8939   6.439   7.047   6.668 -1.0960 -2.3430  0.4880
   93SAPC  H12B 8940   6.352   7.164   6.572 -1.9540  0.2588  2.5254
   93SAPC   C13 8941   6.233   6.847   6.604  0.8262 -0.1535 -0.0088
   93SAPC  H13A 8942   6.304   6.791   6.662  0.7219 -1.0324 -0.7226
   93SAPC  H13B 8943   6.143   6.805   6.647  0.7116  0.9487  0.8770
   93SAPC  H13C 8944   6.249   6.834   6.498  1.7387 -2.2525  0.3349
   93SAPC   C14 8945   6.220   7.021   6.778  0.8706  0.2058  0.2204
   93SAPC  H14A 8946   6.253   6.936   6.836  0.7375 -0.9298 -1.3207
   93SAPC  H14B 8947   6.268   7.110   6.817  0.1840  0.2881  0.9078
   93SAPC  H14C 8948   6.116   7.024   6.809  0.3413 -0.6719 -1.3656
   93SAPC   C15 8949   6.122   7.056   6.559  0.3073 -0.5235 -0.1489
   93SAPC  H15A 8950   6.121   7.161   6.582 -1.1710 -0.0048 -2.2901
   93SAPC  H15B 8951   6.137   7.035   6.454  3.7347 -1.2592  0.3474
   93SAPC  H15C 8952   6.033   7.008   6.597  0.0261  0.3352  0.2872
   93SAPC   C11 8953   6.428   6.993   6.464  0.1498 -0.5016  0.1963
   93SAPC  H11A 8954   6.457   6.890   6.496  0.8689  0.6254  3.6057
   93SAPC  H11B 8955   6.528   7.033   6.435  0.9540 -2.7724 -0.4766
   93SAPC     P 8956   6.336   7.094   6.244 -0.0901  0.3020 -0.1108
   93SAPC   O13 8957   6.218   7.073   6.159  0.3141 -0.3591 -0.2520
   93SAPC   O14 8958   6.346   7.223   6.307  0.1303 -0.2436 -0.4688
   93SAPC   O12 8959   6.333   6.984   6.359  0.2246  0.3375  0.1370
   93SAPC   O11 8960   6.470   7.063   6.167 -0.5081 -0.3205  0.4169
   93SAPC    C1 8961   6.538   6.936   6.158 -0.1202  0.1332  0.3543
   93SAPC    HA 8962   6.617   6.934   6.236  0.9277  1.1150 -0.6522
   93SAPC    HB 8963   6.457   6.861   6.171 -1.0181  1.0100 -0.0126
   93SAPC    C2 8964   6.619   6.924   6.024 -0.2323 -0.2223 -0.1307
   93SAPC    HS 8965   6.652   6.819   6.014 -0.5455 -0.1953 -1.7972
   93SAPC   O21 8966   6.724   7.025   6.027 -0.2417  0.0095  0.5194
   93SAPC   C21 8967   6.837   6.982   6.097 -0.4589  0.9651 -0.0090
   93SAPC   O22 8968   6.834   6.877   6.165  0.7049  0.2414 -0.0895
   93SAPC   C22 8969   6.952   7.078   6.077  0.0738 -0.3310  0.1052
   93SAPC   H2R 8970   6.959   7.109   5.970 -0.8817  2.2987  0.7316
   93SAPC   H2S 8971   6.932   7.175   6.127  2.2836  0.7458 -0.9320
   93SAPC    C3 8972   6.520   6.958   5.903 -0.2751  0.4278 -0.3012
   93SAPC    HX 8973   6.487   7.062   5.924 -0.9466  0.1566  0.0136
   93SAPC    HY 8974   6.439   6.882   5.914  2.2483 -2.4526 -0.1798
   93SAPC   O31 8975   6.585   6.964   5.774 -0.0323 -0.7430  0.5366
   93SAPC   C31 8976   6.620   6.859   5.706 -0.3144 -0.0369 -0.3467
   93SAPC   O32 8977   6.586   6.743   5.725  0.5047 -0.2712 -0.2731
   93SAPC   C32 8978   6.718   6.902   5.600  0.1165 -0.6660 -0.4710
   93SAPC   H2X 8979   6.754   6.806   5.557  0.1477 -0.1675 -1.6171
   93SAPC   H2Y 8980   6.804   6.949   5.652 -2.3408  2.1957  1.3576
   93SAPC   C23 8981   7.093   7.037   6.133  0.6058  0.0740 -0.0534
   93SAPC   H3R 8982   7.082   7.008   6.240 -3.0922  2.6324  0.4896
   93SAPC   H3S 8983   7.159   7.126   6.130  0.7555 -0.0354  0.0209
   93SAPC   C24 8984   7.159   6.924   6.058 -0.4420 -0.1467  0.1193
   93SAPC   H4R 8985   7.102   6.830   6.045  0.6459 -0.5603 -2.0054
   93SAPC   H4S 8986   7.247   6.892   6.119 -0.0984 -1.5467 -1.0509
   93SAPC   C25 8987   7.203   6.964   5.915 -0.2521  0.0275 -0.5411
   93SAPC   H5R 8988   7.269   7.052   5.906 -0.8343  0.4988 -0.2245
   93SAPC   C26 8989   7.170   6.905   5.796 -0.1522 -0.3312 -0.3069
   93SAPC   H6R 8990   7.231   6.931   5.708 -0.0493 -1.0108 -0.4449
   93SAPC   C27 8991   7.087   6.788   5.762  0.1389 -0.2678 -0.3686
   93SAPC   H7R 8992   7.112   6.761   5.657  1.3785 -1.4833  0.2049
   93SAPC   H7S 8993   6.982   6.823   5.772  0.9399  2.6254 -0.9955
   93SAPC   C28 8994   7.102   6.658   5.841 -0.1421  0.2517  0.4479
   93SAPC   H8R 8995   7.185   6.652   5.912  0.1901  0.3839  0.0727
   93SAPC   C29 8996   7.018   6.557   5.823 -0.6464  0.6589 -0.4398
   93SAPC   H9R 8997   7.031   6.470   5.889 -0.1630  0.0866 -1.2731
   93SAPC  C210 8998   6.897   6.537   5.729  0.0040 -0.6757 -0.5941
   93SAPC  H10R 8999   6.904   6.582   5.628 -0.0430 -2.7324 -1.5707
   93SAPC  H10S 9000   6.805   6.580   5.774  0.3616 -0.3562 -0.1548
   93SAPC  C211 9001   6.867   6.389   5.710  0.2988 -0.3007 -0.2362
   93SAPC  H11R 9002   6.842   6.332   5.801 -1.9946 -0.5932 -0.9852
   93SAPC  C212 9003   6.832   6.328   5.596 -0.7796 -0.1395 -0.8119
   93SAPC  H12R 9004   6.805   6.222   5.604  0.1408 -0.7013 -3.8180
   93SAPC  C213 9005   6.846   6.383   5.453  0.1439  0.5076 -0.0822
   93SAPC  H13R 9006   6.841   6.295   5.385  1.0618 -0.6433  1.2919
   93SAPC  H13S 9007   6.945   6.432   5.447 -0.2615  1.6201  1.5746
   93SAPC  C214 9008   6.746   6.487   5.426  0.2108  0.3803 -0.0800
   93SAPC  H14R 9009   6.708   6.540   5.515  0.0389  2.2511 -1.2146
   93SAPC  C215 9010   6.711   6.537   5.308  0.8287 -0.3169 -0.3117
   93SAPC  H15R 9011   6.636   6.618   5.309  2.7334  1.5460  1.5122
   93SAPC  C216 9012   6.750   6.491   5.173  0.6098  0.4979 -0.2343
   93SAPC  H16R 9013   6.804   6.396   5.193 -0.4497  0.3765  2.4439
   93SAPC  H16S 9014   6.823   6.563   5.130 -1.5799  2.0983 -1.4937
   93SAPC  C217 9015   6.635   6.460   5.077  0.5071 -0.6935  0.3525
   93SAPC  H17R 9016   6.566   6.389   5.127 -0.0198 -0.2176  0.3025
   93SAPC  H17S 9017   6.672   6.410   4.985 -0.2200 -0.5948  0.0014
   93SAPC  C218 9018   6.557   6.583   5.030  0.1019  0.0053 -0.8262
   93SAPC  H18R 9019   6.636   6.651   4.992  2.5060 -1.9890  0.3029
   93SAPC  H18S 9020   6.519   6.626   5.125 -0.4827 -0.6172 -0.7734
   93SAPC  C219 9021   6.446   6.567   4.925 -0.1919  0.8396 -0.0401
   93SAPC  H19R 9022   6.389   6.661   4.911 -0.7015  0.4175 -0.9010
   93SAPC  H19S 9023   6.366   6.498   4.960  0.2009  1.4361  2.1861
   93SAPC  C220 9024   6.509   6.525   4.789  0.8188  0.8332 -0.5170
   93SAPC  H20R 9025   6.427   6.515   4.715 -1.3737  2.2739  1.5656
   93SAPC  H20S 9026   6.550   6.422   4.802 -1.0619  0.0148 -0.6401
   93SAPC  H20T 9027   6.583   6.604   4.764  0.5289  1.4097  0.3776
   93SAPC   C33 9028   6.657   6.985   5.487  0.4421 -0.0557 -0.2304
   93SAPC   H3X 9029   6.675   7.090   5.519  4.2852  0.1071 -2.4072
   93SAPC   H3Y 9030   6.549   6.957   5.482  0.1092  1.0382  0.5660
   93SAPC   C34 9031   6.728   6.963   5.354 -0.7891  0.3562 -0.1453
   93SAPC   H4X 9032   6.740   6.859   5.318  2.6542  0.8855 -0.8988
   93SAPC   H4Y 9033   6.835   6.994   5.365 -1.1212  3.0676 -3.1380
   93SAPC   C35 9034   6.675   7.037   5.228  0.5418 -0.4917 -0.5984
   93SAPC   H5X 9035   6.651   7.138   5.268  0.0783 -1.2946  1.2911
   93SAPC   H5Y 9036   6.576   6.988   5.215 -0.8578  1.7121  0.9702
   93SAPC   C36 9037   6.753   7.039   5.104  1.1054 -0.0531  0.1026
   93SAPC   H6X 9038   6.861   7.058   5.124  1.5803 -1.6576 -0.8289
   93SAPC   H6Y 9039   6.722   7.124   5.040  1.4443 -0.9743 -1.3260
   93SAPC   C37 9040   6.734   6.910   5.032 -0.5920  0.9405 -0.8819
   93SAPC   H7X 9041   6.628   6.905   4.998 -0.3155 -0.6350 -1.5676
   93SAPC   H7Y 9042   6.752   6.828   5.105  3.6797 -1.1735 -3.8989
   93SAPC   C38 9043   6.829   6.881   4.921  0.2164 -0.1285 -0.5895
   93SAPC   H8X 9044   6.803   6.783   4.875  0.2511 -0.4564  0.0739
   93SAPC   H8Y 9045   6.930   6.856   4.960  0.4032  0.9129 -0.3778
   93SAPC   C39 9046   6.836   6.987   4.809 -0.2829 -1.2482  0.8009
   93SAPC   H9X 9047   6.909   6.957   4.731 -0.4025 -0.7419  0.4939
   93SAPC   H9Y 9048   6.875   7.089   4.828 -2.2486  0.1336 -2.0310
   93SAPC  C310 9049   6.693   7.007   4.737 -0.2484  0.4189 -0.8311
   93SAPC  H10X 9050   6.620   7.069   4.794 -0.0178  1.1299 -1.2893
   93SAPC  H10Y 9051   6.653   6.909   4.705 -1.3764  1.3453 -2.3370
   93SAPC  C311 9052   6.702   7.084   4.608  0.4236 -0.0518  0.1169
   93SAPC  H11X 9053   6.759   7.178   4.622  2.0464 -0.4652 -2.7997
   93SAPC  H11Y 9054   6.599   7.109   4.576 -0.3030 -0.0267  2.2705
   93SAPC  C312 9055   6.768   7.003   4.496  0.2954  0.0581  0.1427
   93SAPC  H12X 9056   6.713   6.909   4.478  4.0865 -2.1518 -1.1318
   93SAPC  H12Y 9057   6.876   6.979   4.514  0.6181 -0.3509 -2.0741
   93SAPC  C313 9058   6.760   7.074   4.360 -0.1688 -0.1324  0.5979
   93SAPC  H13X 9059   6.830   7.160   4.358  0.1093 -0.3528 -1.3468
   93SAPC  H13Y 9060   6.658   7.118   4.352  0.2434  0.9051  0.8766
   93SAPC  C314 9061   6.811   6.983   4.253  0.0260  0.1468 -0.3416
   93SAPC  H14X 9062   6.744   6.895   4.241 -1.1704  1.0333 -0.3608
   93SAPC  H14Y 9063   6.908   6.946   4.293 -0.5388  0.2263  1.1700
   93SAPC  C315 9064   6.850   7.047   4.117 -0.4095  0.5717 -0.0413
   93SAPC  H15X 9065   6.913   7.136   4.141 -0.0621  0.1880  0.4883
   93SAPC  H15Y 9066   6.757   7.083   4.067 -0.8872  0.4831  0.7573
   93SAPC  C316 9067   6.933   6.949   4.036  0.0008 -0.1612 -0.1586
   93SAPC  H16X 9068   6.868   6.867   3.998 -0.4258 -0.0217  0.2529
   93SAPC  H16Y 9069   7.009   6.894   4.096 -1.5637 -3.3442 -0.8559
   93SAPC  C317 9070   7.004   7.018   3.917 -0.2413 -0.8126 -0.0427
   93SAPC  H17X 9071   7.102   7.045   3.961  0.2890 -1.9104 -0.5158
   93SAPC  H17Y 9072   6.947   7.109   3.888  0.2068  0.2596  2.2355
   93SAPC  C318 9073   7.028   6.922   3.797  0.1264 -0.4540  0.2717
   93SAPC  H18X 9074   7.067   6.825   3.834  0.3745 -0.3908  0.1788
   93SAPC  H18Y 9075   7.115   6.958   3.737 -0.8260  2.8492  0.6376
   93SAPC  H18Z 9076   6.942   6.895   3.732 -0.6809 -0.3833  1.2829
   94SAPC     N 9077   0.237   6.990   6.637 -0.3814  0.3664  0.5068
   94SAPC   C12 9078   0.232   6.952   6.492 -0.8674  0.1648 -0.0811
   94SAPC  H12A 9079   0.218   7.042   6.433 -1.5105  0.3235  0.3085
   94SAPC  H12B 9080   0.143   6.896   6.467 -0.2162 -1.1949  0.5918
   94SAPC   C13 9081   0.108   7.057   6.669  0.3195 -0.1685  0.5432
   94SAPC  H13A 9082   0.085   7.136   6.599 -2.5455 -0.1643  1.3722
   94SAPC  H13B 9083   0.028   6.984   6.669 -0.6127  0.8000 -1.1673
   94SAPC  H13C 9084   0.119   7.112   6.761  1.7004  0.1825  0.1959
   94SAPC   C14 9085   0.250   6.872   6.718 -0.4360  0.5745 -0.0513
   94SAPC  H14A 9086   0.254   6.898   6.823 -3.4719 -0.6289  0.4763
   94SAPC  H14B 9087   0.160   6.812   6.712 -1.0279  1.6057 -2.5813
   94SAPC  H14C 9088   0.339   6.818   6.692 -0.4098 -1.0968  3.0496
   94SAPC   C15 9089   0.367   7.073   6.662  0.4001 -0.2345  0.4888
   94SAPC  H15A 9090   0.361   7.166   6.608  0.9755  0.3977  1.4856
   94SAPC  H15B 9091   0.375   7.090   6.769 -0.3075 -0.9253  0.6626
   94SAPC  H15C 9092   0.454   7.023   6.623  1.1269  1.8368 -0.7144
   94SAPC   C11 9093   0.358   6.879   6.431  0.1906 -0.6266  0.3658
   94SAPC  H11A 9094   0.450   6.940   6.448 -0.9104  0.4695  3.0365
   94SAPC  H11B 9095   0.346   6.876   6.321 -0.1650 -1.0422  0.4116
   94SAPC     P 9096   0.315   6.630   6.451  0.0595  0.0744  0.1020
   94SAPC   O13 9097   0.382   6.509   6.497  0.1487  0.3480 -0.7977
   94SAPC   O14 9098   0.173   6.648   6.499  0.0399 -0.5240  0.1030
   94SAPC   O12 9099   0.397   6.755   6.487  0.1569 -0.3654  0.8209
   94SAPC   O11 9100   0.316   6.629   6.290 -0.3579 -0.1722 -0.7811
   94SAPC    C1 9101   0.287   6.522   6.201 -0.0270 -0.1626  0.3923
   94SAPC    HA 9102   0.226   6.447   6.256 -0.6757  0.9132  1.1867
   94SAPC    HB 9103   0.233   6.553   6.110 -0.3826 -1.1842  0.2382
   94SAPC    C2 9104   0.419   6.465   6.144 -0.5861 -0.1407 -0.3714
   94SAPC    HS 9105   0.485   6.441   6.230 -1.5093 -0.5919  0.2298
   94SAPC   O21 9106   0.480   6.555   6.053  0.4991  0.0193 -0.7507
   94SAPC   C21 9107   0.542   6.654   6.113  0.4883  0.2904 -0.0047
   94SAPC   O22 9108   0.573   6.663   6.228  0.3045 -0.3107  0.0226
   94SAPC   C22 9109   0.579   6.763   6.009  0.4548 -0.1269  0.2714
   94SAPC   H2R 9110   0.597   6.856   6.068 -0.3519  0.1754  0.0501
   94SAPC   H2S 9111   0.679   6.730   5.972 -0.6343 -0.4248 -2.6334
   94SAPC    C3 9112   0.373   6.334   6.071 -0.0313  0.1708 -0.1122
   94SAPC    HX 9113   0.329   6.265   6.147 -0.4620  1.3327  0.7424
   94SAPC    HY 9114   0.469   6.289   6.039 -0.5971 -0.5093 -0.8711
   94SAPC   O31 9115   0.288   6.355   5.955  0.4598  0.1798  0.2816
   94SAPC   C31 9116   0.307   6.261   5.866 -0.5118  0.4761 -0.5913
   94SAPC   O32 9117   0.376   6.161   5.885 -0.0041 -0.2098 -0.2985
   94SAPC   C32 9118   0.222   6.286   5.742  0.0700  0.4455  0.5594
   94SAPC   H2X 9119   0.276   6.363   5.682 -0.6282  0.3702 -0.1755
   94SAPC   H2Y 9120   0.123   6.324   5.773  0.5920  1.3001  1.2424
   94SAPC   C23 9121   0.485   6.778   5.887  0.2077 -0.0541 -0.0992
   94SAPC   H3R 9122   0.378   6.774   5.918  0.0344 -1.3778 -0.7848
   94SAPC   H3S 9123   0.491   6.690   5.819  1.1989  0.2599 -0.4311
   94SAPC   C24 9124   0.507   6.902   5.800 -0.4313 -0.5300  0.1089
   94SAPC   H4R 9125   0.497   6.995   5.859  1.0599  0.0616 -0.5185
   94SAPC   H4S 9126   0.415   6.904   5.739 -0.5470 -0.1928  0.2945
   94SAPC   C25 9127   0.624   6.920   5.706  0.5009  0.2384 -0.0609
   94SAPC   H5R 9128   0.719   6.952   5.751  1.9968 -0.2337 -2.6601
   94SAPC   C26 9129   0.621   6.896   5.571 -0.3123  0.4675  0.4723
   94SAPC   H6R 9130   0.710   6.929   5.517 -0.6506 -0.2787 -0.5537
   94SAPC   C27 9131   0.507   6.854   5.483  0.1312  0.0124  0.3030
   94SAPC   H7R 9132   0.542   6.870   5.379 -2.1402  1.6301 -0.2838
   94SAPC   H7S 9133   0.434   6.938   5.490  2.1380  1.7540  1.7248
   94SAPC   C28 9134   0.445   6.714   5.506 -0.4192  0.2660  0.2046
   94SAPC   H8R 9135   0.516   6.635   5.536  0.9585  1.8621  1.3259
   94SAPC   C29 9136   0.315   6.684   5.474  0.0093  0.6793 -0.5305
   94SAPC   H9R 9137   0.273   6.593   5.519  0.4837  1.1870  1.0121
   94SAPC  C210 9138   0.213   6.789   5.423  0.1148  0.5413  0.0457
   94SAPC  H10R 9139   0.246   6.830   5.325 -0.3647  1.9976  0.4572
   94SAPC  H10S 9140   0.211   6.881   5.485  1.3532 -0.4327  1.6015
   94SAPC  C211 9141   0.076   6.743   5.380 -0.2751 -0.2515  0.1760
   94SAPC  H11R 9142   0.003   6.756   5.461 -0.2106  3.0144 -0.1834
   94SAPC  C212 9143   0.029   6.693   5.262  0.0886 -0.7379  0.3088
   94SAPC  H12R 9144  -0.078   6.667   5.265 -0.5499  1.5041 -0.5050
   94SAPC  C213 9145   0.107   6.656   5.136  0.3484 -0.5280 -1.1207
   94SAPC  H13R 9146   0.216   6.645   5.155  0.0424  1.4404  2.6973
   94SAPC  H13S 9147   0.096   6.733   5.057  1.8258  0.1599 -0.6923
   94SAPC  C214 9148   0.059   6.521   5.096  0.3580  1.4488 -0.3740
   94SAPC  H14R 9149   0.053   6.443   5.173  0.0629  0.4721 -1.3462
   94SAPC  C215 9150   0.018   6.487   4.976  0.5076  0.3458  0.2099
   94SAPC  H15R 9151   0.003   6.382   4.946 -1.5808  1.0971 -1.6193
   94SAPC  C216 9152   0.024   6.569   4.856  0.4888 -0.5310 -0.2269
   94SAPC  H16R 9153   0.125   6.556   4.810  0.4979 -0.8676 -0.1093
   94SAPC  H16S 9154   0.010   6.676   4.881  0.9374 -0.5668  0.1953
   94SAPC  C217 9155  -0.077   6.543   4.744 -0.9908  0.5300  0.0027
   94SAPC  H17R 9156  -0.180   6.574   4.772 -1.4716 -0.1154 -0.9952
   94SAPC  H17S 9157  -0.071   6.433   4.740  1.1285  0.5947  0.2578
   94SAPC  C218 9158  -0.020   6.604   4.614 -0.5162  0.4282  0.5745
   94SAPC  H18R 9159   0.060   6.540   4.570 -2.3172 -0.5800 -1.3980
   94SAPC  H18S 9160   0.020   6.708   4.623 -1.0416  0.9676 -2.3342
   94SAPC  C219 9161  -0.119   6.599   4.500  0.0085 -0.2935  0.0902
   94SAPC  H19R 9162  -0.210   6.650   4.538 -1.2362 -0.7605 -2.0852
   94SAPC  H19S 9163  -0.164   6.498   4.487  1.8194 -1.4452  2.0567
   94SAPC  C220 9164  -0.070   6.662   4.373  0.1354  0.2193 -0.1459
   94SAPC  H20R 9165  -0.050   6.769   4.393  1.7508  0.1589 -1.3161
   94SAPC  H20S 9166  -0.142   6.656   4.289  0.0522 -2.9457  0.0228
   94SAPC  H20T 9167   0.025   6.613   4.344  1.3344  1.7484  1.0588
   94SAPC   C33 9168   0.202   6.166   5.643 -0.1706  0.1393 -0.0395
   94SAPC   H3X 9169   0.302   6.146   5.599 -0.1482  0.6804 -0.2461
   94SAPC   H3Y 9170   0.145   6.217   5.562 -0.2506 -0.5357 -0.4147
   94SAPC   C34 9171   0.122   6.049   5.697  0.1839  0.3317  0.0647
   94SAPC   H4X 9172   0.016   6.075   5.714  0.2015 -0.1560  0.9862
   94SAPC   H4Y 9173   0.158   6.015   5.797  0.0329 -0.7841 -0.2448
   94SAPC   C35 9174   0.119   5.929   5.600  0.0883 -1.1433  0.1872
   94SAPC   H5X 9175   0.032   5.873   5.641  0.1931 -1.3380  0.1449
   94SAPC   H5Y 9176   0.207   5.862   5.615  1.7070  1.0198  0.7718
   94SAPC   C36 9177   0.083   5.959   5.451  0.2335  0.6139 -0.1174
   94SAPC   H6X 9178   0.089   5.862   5.397  1.1870  1.2003 -1.0985
   94SAPC   H6Y 9179   0.163   6.021   5.405  1.1059  1.0008  1.8161
   94SAPC   C37 9180  -0.044   6.034   5.432  0.2173 -0.2323 -0.3270
   94SAPC   H7X 9181  -0.023   6.136   5.471  0.9140 -0.6475  0.4047
   94SAPC   H7Y 9182  -0.130   5.999   5.493 -1.2207  2.7744 -0.4650
   94SAPC   C38 9183  -0.100   6.036   5.291  0.1168 -0.4848  0.1038
   94SAPC   H8X 9184  -0.183   6.109   5.287  0.9801  0.4726 -1.9040
   94SAPC   H8Y 9185  -0.137   5.937   5.257  0.4965 -1.5389  2.5694
   94SAPC   C39 9186  -0.003   6.081   5.176  0.2409 -0.4175  0.4967
   94SAPC   H9X 9187   0.082   6.010   5.188  0.2895 -0.2995  0.8662
   94SAPC   H9Y 9188   0.037   6.183   5.197  2.0688 -1.3138  1.6915
   94SAPC  C310 9189  -0.062   6.069   5.037 -0.4446 -0.0716 -0.1128
   94SAPC  H10X 9190  -0.137   6.150   5.022 -1.9955 -1.6804 -1.4123
   94SAPC  H10Y 9191  -0.113   5.972   5.023 -1.5820  0.4366  0.3568
   94SAPC  C311 9192   0.049   6.080   4.934 -0.4081  0.3072 -0.0652
   94SAPC  H11X 9193   0.104   5.984   4.944 -0.1362  0.3290 -1.2570
   94SAPC  H11Y 9194   0.122   6.158   4.964  0.1057 -0.4148  0.5994
   94SAPC  C312 9195  -0.015   6.103   4.796 -0.1829  0.7834 -0.2580
   94SAPC  H12X 9196  -0.054   6.207   4.800 -0.7965  0.5195  2.6843
   94SAPC  H12Y 9197  -0.108   6.046   4.777  0.3616  0.6024 -2.7483
   94SAPC  C313 9198   0.080   6.098   4.674  0.4045  0.4181 -0.1570
   94SAPC  H13X 9199   0.092   5.991   4.647 -2.2325 -0.5596  2.1264
   94SAPC  H13Y 9200   0.180   6.137   4.702  1.1088 -0.4009 -1.4110
   94SAPC  C314 9201   0.019   6.180   4.564 -0.0640 -0.4698 -0.6050
   94SAPC  H14X 9202   0.015   6.283   4.606  0.0720 -0.4342 -0.6809
   94SAPC  H14Y 9203  -0.089   6.154   4.554 -0.6101  0.3654  2.3559
   94SAPC  C315 9204   0.106   6.178   4.441 -0.4884  0.0575 -0.3261
   94SAPC  H15X 9205   0.126   6.072   4.414  0.1747  0.5087 -1.7345
   94SAPC  H15Y 9206   0.209   6.213   4.463 -0.2619 -0.3241 -0.7548
   94SAPC  C316 9207   0.048   6.250   4.317 -0.3729  0.3940 -0.3101
   94SAPC  H16X 9208  -0.045   6.298   4.352 -0.4707 -0.0634  0.0538
   94SAPC  H16Y 9209   0.013   6.176   4.242  1.5201 -0.9948  0.1111
   94SAPC  C317 9210   0.151   6.350   4.259  0.4306 -0.6626  0.0743
   94SAPC  H17X 9211   0.246   6.293   4.247  0.5734 -0.5224  0.5004
   94SAPC  H17Y 9212   0.164   6.430   4.335  1.8261 -0.4267 -0.3936
   94SAPC  C318 9213   0.124   6.414   4.121 -0.3489 -0.1882 -0.1577
   94SAPC  H18X 9214   0.132   6.336   4.042  0.4058  0.5739 -0.8534
   94SAPC  H18Y 9215   0.204   6.489   4.103  0.9301 -1.6793 -0.9335
   94SAPC  H18Z 9216   0.034   6.478   4.130 -1.2334 -1.5716  1.3812
   95SAPC     N 9217   4.949   2.211   1.565 -0.0023 -0.4392  0.0417
   95SAPC   C12 9218   4.899   2.247   1.705 -0.9638  0.3541  0.4449
   95SAPC  H12A 9219   4.917   2.161   1.768 -2.9183 -0.4322  0.0107
   95SAPC  H12B 9220   4.795   2.277   1.707 -0.0349  3.9365  2.8992
   95SAPC   C13 9221   4.934   2.324   1.470  0.2069  0.7490 -0.7698
   95SAPC  H13A 9222   4.832   2.356   1.453  0.7191  1.2380 -3.4780
   95SAPC  H13B 9223   4.995   2.406   1.504  0.9259 -0.0104 -0.1914
   95SAPC  H13C 9224   4.970   2.301   1.371  0.8181 -0.3947 -0.3026
   95SAPC   C14 9225   5.088   2.157   1.572  0.5870  0.4481 -0.2079
   95SAPC  H14A 9226   5.092   2.092   1.658 -1.1560  0.8344  0.1912
   95SAPC  H14B 9227   5.113   2.108   1.479  0.0167  1.4016 -0.8776
   95SAPC  H14C 9228   5.156   2.241   1.586  0.0057  0.7307  1.0545
   95SAPC   C15 9229   4.856   2.106   1.516 -0.0565 -0.3168 -0.3099
   95SAPC  H15A 9230   4.881   2.011   1.559 -0.1234  0.4952  1.5967
   95SAPC  H15B 9231   4.754   2.127   1.542  0.0436 -0.3383  0.1124
   95SAPC  H15C 9232   4.865   2.106   1.408  0.1456  0.0770 -0.2983
   95SAPC   C11 9233   4.982   2.366   1.772 -0.3093  0.0533  0.3052
   95SAPC  H11A 9234   5.090   2.341   1.774  0.0175  1.3926  0.3770
   95SAPC  H11B 9235   4.945   2.374   1.876 -3.3080  1.7257 -0.7845
   95SAPC     P 9236   4.855   2.595   1.760  0.2924 -0.0259 -0.1190
   95SAPC   O13 9237   4.871   2.723   1.687  0.4045  0.1332  0.4853
   95SAPC   O14 9238   4.723   2.528   1.753 -0.4735  0.2563 -0.4664
   95SAPC   O12 9239   4.970   2.494   1.703 -0.1283 -0.0926 -0.4431
   95SAPC   O11 9240   4.886   2.618   1.907 -0.1766  0.4870 -0.1004
   95SAPC    C1 9241   5.008   2.678   1.954 -0.3403 -0.3310 -0.1878
   95SAPC    HA 9242   5.093   2.610   1.977  1.2553  1.6710  0.0950
   95SAPC    HB 9243   5.045   2.743   1.872 -1.4230  0.3423 -0.1514
   95SAPC    C2 9244   4.992   2.784   2.067  0.0817 -0.3782 -0.5022
   95SAPC    HS 9245   5.090   2.828   2.092 -0.1087 -0.8117  1.1133
   95SAPC   O21 9246   4.943   2.716   2.189  0.5274 -0.7215 -0.0640
   95SAPC   C21 9247   4.983   2.776   2.300  0.4826 -0.2953  0.3352
   95SAPC   O22 9248   5.061   2.873   2.308  0.5622 -0.4579  0.0576
   95SAPC   C22 9249   4.921   2.701   2.420 -0.5917  0.0587  0.0796
   95SAPC   H2R 9250   4.818   2.682   2.384 -0.6756  0.8157 -0.0934
   95SAPC   H2S 9251   4.978   2.606   2.434  3.0863  2.2125  1.1536
   95SAPC    C3 9252   4.889   2.893   2.015  0.1971  0.1284  0.2717
   95SAPC    HX 9253   4.789   2.845   2.010  0.6186 -0.8505  0.8759
   95SAPC    HY 9254   4.911   2.901   1.906  2.0712 -1.6488  0.4489
   95SAPC   O31 9255   4.889   3.017   2.093 -0.2771 -0.2459 -0.6800
   95SAPC   C31 9256   4.997   3.080   2.089  0.5057 -0.3026 -1.1567
   95SAPC   O32 9257   5.091   3.071   2.017 -0.0328 -0.1811  0.4519
   95SAPC   C32 9258   4.983   3.187   2.187 -0.3330 -0.3442 -0.0337
   95SAPC   H2X 9259   4.920   3.165   2.276  0.8790  3.3405  1.9814
   95SAPC   H2Y 9260   4.956   3.282   2.136  1.8173 -0.0833 -0.8180
   95SAPC   C23 9261   4.956   2.759   2.558  0.2883  0.2652  0.2396
   95SAPC   H3R 9262   4.904   2.857   2.567  0.5613  0.4686 -0.3335
   95SAPC   H3S 9263   5.066   2.768   2.574 -0.0184  2.1919  1.6903
   95SAPC   C24 9264   4.909   2.673   2.672  0.1575  0.3625  0.3944
   95SAPC   H4R 9265   4.942   2.715   2.770 -1.2781 -1.5905  1.7969
   95SAPC   H4S 9266   4.957   2.573   2.671 -3.1372 -1.3602 -0.4564
   95SAPC   C25 9267   4.757   2.658   2.664  0.2924  0.3260  0.6246
   95SAPC   H5R 9268   4.712   2.675   2.565 -1.4317  0.6263  1.4326
   95SAPC   C26 9269   4.689   2.647   2.778  0.4537  1.0014 -0.2087
   95SAPC   H6R 9270   4.580   2.630   2.771  0.4731 -0.1413  1.5189
   95SAPC   C27 9271   4.749   2.620   2.912  0.2434 -0.0381 -0.8804
   95SAPC   H7R 9272   4.815   2.709   2.923  1.6192 -1.1429  0.1626
   95SAPC   H7S 9273   4.803   2.524   2.898 -0.5372 -0.4695 -1.0030
   95SAPC   C28 9274   4.650   2.611   3.027  0.3337  0.2080 -0.5366
   95SAPC   H8R 9275   4.557   2.553   3.029  1.1538 -1.0991  1.0340
   95SAPC   C29 9276   4.665   2.673   3.145 -0.1029 -0.7482  0.1835
   95SAPC   H9R 9277   4.593   2.659   3.226  0.9317  2.1409  1.7543
   95SAPC  C210 9278   4.782   2.770   3.190  0.0322  0.3586  0.7221
   95SAPC  H10R 9279   4.800   2.854   3.119 -0.3167  0.2550  0.5103
   95SAPC  H10S 9280   4.875   2.709   3.188  0.0144  0.3412  0.3428
   95SAPC  C211 9281   4.769   2.833   3.331 -1.2004 -0.5146 -0.0599
   95SAPC  H11R 9282   4.749   2.941   3.321 -0.7782 -0.4519 -0.2439
   95SAPC  C212 9283   4.778   2.773   3.453 -0.3578 -0.1734  0.0303
   95SAPC  H12R 9284   4.766   2.843   3.537 -1.6824 -0.2760 -0.0529
   95SAPC  C213 9285   4.793   2.624   3.477  0.2670  0.2150 -0.1154
   95SAPC  H13R 9286   4.873   2.602   3.552  0.3393  0.6165 -0.0725
   95SAPC  H13S 9287   4.834   2.568   3.390  0.7808  2.0135 -1.0712
   95SAPC  C214 9288   4.658   2.549   3.513 -0.0129 -0.0278 -0.2986
   95SAPC  H14R 9289   4.605   2.517   3.422  0.8388 -0.2788 -0.7149
   95SAPC  C215 9290   4.589   2.558   3.629  0.1217  0.4039  0.5838
   95SAPC  H15R 9291   4.498   2.499   3.644  1.6160 -1.1392  5.1817
   95SAPC  C216 9292   4.637   2.624   3.753  0.1958 -0.9027 -0.4620
   95SAPC  H16R 9293   4.579   2.719   3.746 -0.1467 -0.9627  1.1808
   95SAPC  H16S 9294   4.745   2.649   3.748  0.4826 -2.2645 -2.6230
   95SAPC  C217 9295   4.592   2.571   3.889 -0.1860  0.0550 -0.1129
   95SAPC  H17R 9296   4.633   2.643   3.962  0.6150 -0.2726 -0.2162
   95SAPC  H17S 9297   4.647   2.475   3.904  0.6948  0.7294  1.1631
   95SAPC  C218 9298   4.440   2.540   3.907  0.0720  0.5081 -0.3737
   95SAPC  H18R 9299   4.408   2.466   3.831 -0.3295  0.1886  0.1037
   95SAPC  H18S 9300   4.374   2.630   3.907 -0.2692  0.2595 -0.8415
   95SAPC  C219 9301   4.405   2.481   4.047  0.2353 -0.7785 -0.2635
   95SAPC  H19R 9302   4.303   2.510   4.082  1.6169  3.4765  0.8394
   95SAPC  H19S 9303   4.479   2.520   4.121  0.2981 -0.5271 -0.4576
   95SAPC  C220 9304   4.414   2.323   4.056 -0.1886 -0.2241  0.5237
   95SAPC  H20R 9305   4.417   2.297   4.164  0.4749 -0.4185  0.4584
   95SAPC  H20S 9306   4.509   2.282   4.017 -0.3991 -1.3321  1.1468
   95SAPC  H20T 9307   4.323   2.280   4.010  0.9629 -0.4755 -1.6515
   95SAPC   C33 9308   5.123   3.223   2.257  0.3396  0.8963  0.4386
   95SAPC   H3X 9309   5.207   3.248   2.190 -0.1141 -2.4074 -1.5719
   95SAPC   H3Y 9310   5.153   3.132   2.315  1.7368 -0.4133 -2.1904
   95SAPC   C34 9311   5.102   3.338   2.360  0.5848  0.1118 -0.1394
   95SAPC   H4X 9312   5.045   3.417   2.307 -1.4119 -0.1201  1.5216
   95SAPC   H4Y 9313   5.203   3.364   2.399  0.5899 -1.8794  1.3503
   95SAPC   C35 9314   5.004   3.296   2.486 -0.7788 -0.6898 -0.0409
   95SAPC   H5X 9315   4.899   3.272   2.458 -0.2419 -1.6332 -1.3732
   95SAPC   H5Y 9316   4.999   3.391   2.543 -1.3107  0.0668 -1.3097
   95SAPC   C36 9317   5.050   3.178   2.571 -0.1082  0.6370 -0.1114
   95SAPC   H6X 9318   5.159   3.158   2.575  0.4404  3.0770 -1.0715
   95SAPC   H6Y 9319   5.003   3.087   2.526 -0.6130 -0.1725  1.9155
   95SAPC   C37 9320   5.003   3.184   2.721 -0.3723  0.6426  0.6499
   95SAPC   H7X 9321   4.893   3.194   2.736 -0.1792  2.0217  1.3126
   95SAPC   H7Y 9322   5.044   3.282   2.752 -0.6097  1.8946 -2.5680
   95SAPC   C38 9323   5.046   3.069   2.807 -0.7476  0.6610  0.0316
   95SAPC   H8X 9324   5.151   3.046   2.779 -0.5182  0.3399  1.1130
   95SAPC   H8Y 9325   4.986   2.979   2.781  0.6787 -0.2287 -0.2777
   95SAPC   C39 9326   5.028   3.108   2.958  0.3936  0.2775 -0.0822
   95SAPC   H9X 9327   4.925   3.144   2.974  0.7154  1.0964  0.1934
   95SAPC   H9Y 9328   5.100   3.190   2.979  1.8049 -1.2139  1.2735
   95SAPC  C310 9329   5.067   2.999   3.060 -1.3442 -0.5980 -0.0021
   95SAPC  H10X 9330   5.127   2.923   3.006  0.4860 -0.5959  1.8949
   95SAPC  H10Y 9331   4.978   2.960   3.114 -1.1670 -0.8178  0.1337
   95SAPC  C311 9332   5.164   3.041   3.181  0.1359 -0.5922  0.3301
   95SAPC  H11X 9333   5.116   3.122   3.240 -2.2450 -0.7668 -1.2488
   95SAPC  H11Y 9334   5.260   3.077   3.139  0.0019 -1.9508 -1.2299
   95SAPC  C312 9335   5.182   2.923   3.276 -0.0427 -0.0161  0.1150
   95SAPC  H12X 9336   5.247   2.849   3.224  0.2741 -0.2241  0.7967
   95SAPC  H12Y 9337   5.085   2.873   3.299 -0.5036  1.5858  1.9373
   95SAPC  C313 9338   5.248   2.954   3.401 -0.2221  0.4666 -0.0048
   95SAPC  H13X 9339   5.192   3.034   3.454 -0.3559  1.8068 -2.0586
   95SAPC  H13Y 9340   5.347   2.994   3.372 -1.4214  2.9976 -0.8557
   95SAPC  C314 9341   5.260   2.828   3.498  0.2963 -0.2603  0.7048
   95SAPC  H14X 9342   5.302   2.751   3.430 -1.3364  0.4964 -1.2408
   95SAPC  H14Y 9343   5.161   2.779   3.504  0.7684 -1.5786 -1.4322
   95SAPC  C315 9344   5.342   2.839   3.630 -0.7399 -0.1249  0.0582
   95SAPC  H15X 9345   5.299   2.921   3.692  0.4610 -0.9667  2.0946
   95SAPC  H15Y 9346   5.443   2.877   3.601 -0.6404  0.4134  1.0839
   95SAPC  C316 9347   5.352   2.715   3.711 -0.0919 -1.1221 -0.1232
   95SAPC  H16X 9348   5.390   2.650   3.630  0.9794  0.5092 -0.9819
   95SAPC  H16Y 9349   5.245   2.687   3.722 -0.4688  0.2512 -0.1234
   95SAPC  C317 9350   5.434   2.732   3.839  0.0920  0.6534 -0.6446
   95SAPC  H17X 9351   5.368   2.767   3.921  1.6826  2.0329  0.1062
   95SAPC  H17Y 9352   5.503   2.818   3.821 -0.8916  1.4859 -0.5136
   95SAPC  C318 9353   5.498   2.606   3.881 -0.6245  0.0105  0.2438
   95SAPC  H18X 9354   5.574   2.633   3.958  0.6134  1.8458 -1.5012
   95SAPC  H18Y 9355   5.553   2.567   3.792 -0.2670  0.9398  0.0374
   95SAPC  H18Z 9356   5.434   2.535   3.937 -0.0021  0.0562  1.0292
   96SAPC     N 9357   3.878   2.413   1.261 -0.3756  0.3888  0.0325
   96SAPC   C12 9358   4.023   2.461   1.258 -0.1751 -0.7544  0.3308
   96SAPC  H12A 9359   4.022   2.551   1.198  0.8843  1.1148  2.9283
   96SAPC  H12B 9360   4.079   2.382   1.211 -1.9144 -2.2260  0.6445
   96SAPC   C13 9361   3.872   2.269   1.302  0.5317 -0.5846 -0.1357
   96SAPC  H13A 9362   3.899   2.257   1.406 -1.4907  0.6437  0.5867
   96SAPC  H13B 9363   3.774   2.228   1.287  0.3644 -1.5182  2.8968
   96SAPC  H13C 9364   3.932   2.199   1.245 -0.3084 -0.1137 -1.6520
   96SAPC   C14 9365   3.794   2.494   1.349 -0.4583 -0.2692  0.4346
   96SAPC  H14A 9366   3.833   2.496   1.450  0.4962 -1.9296  0.1234
   96SAPC  H14B 9367   3.800   2.595   1.311  0.2159 -0.0780  1.0292
   96SAPC  H14C 9368   3.691   2.464   1.357 -0.8423  1.3477  2.4538
   96SAPC   C15 9369   3.821   2.418   1.119  0.6407 -0.2520  0.5478
   96SAPC  H15A 9370   3.864   2.337   1.062  1.0819  0.3900 -0.0397
   96SAPC  H15B 9371   3.718   2.385   1.115  0.8455 -0.7904 -0.7507
   96SAPC  H15C 9372   3.832   2.517   1.078  0.3194  0.2300  1.5740
   96SAPC   C11 9373   4.084   2.509   1.401 -0.5650 -0.0194 -0.2755
   96SAPC  H11A 9374   4.025   2.592   1.446 -2.5387 -0.2328 -2.2538
   96SAPC  H11B 9375   4.182   2.555   1.376 -0.5692 -0.2004 -0.6242
   96SAPC     P 9376   4.227   2.310   1.486 -0.3452 -0.0542 -0.4036
   96SAPC   O13 9377   4.170   2.180   1.467 -0.4843  0.0795  0.4235
   96SAPC   O14 9378   4.336   2.349   1.396  0.2684 -0.3592  0.9727
   96SAPC   O12 9379   4.101   2.408   1.496 -0.4430  0.2593  0.3999
   96SAPC   O11 9380   4.288   2.311   1.626  0.5290  0.5418 -0.1185
   96SAPC    C1 9381   4.216   2.307   1.748 -0.0746 -0.4278 -0.6579
   96SAPC    HA 9382   4.109   2.283   1.729 -0.6324  1.4661 -0.0764
   96SAPC    HB 9383   4.257   2.235   1.822 -1.0454  1.4775  1.8880
   96SAPC    C2 9384   4.222   2.445   1.822  0.3747 -0.3062  0.2753
   96SAPC    HS 9385   4.217   2.522   1.743 -3.2435 -0.5626  0.0836
   96SAPC   O21 9386   4.346   2.441   1.909  0.1984  0.1324 -0.0665
   96SAPC   C21 9387   4.403   2.564   1.933 -0.2210 -0.5999 -0.0137
   96SAPC   O22 9388   4.363   2.664   1.884  0.1328 -0.1017 -0.4771
   96SAPC   C22 9389   4.514   2.554   2.041  0.1298 -0.0782  0.1362
   96SAPC   H2R 9390   4.466   2.503   2.127 -3.2050  0.3435 -1.3206
   96SAPC   H2S 9391   4.584   2.476   2.005  0.3289  1.2437 -2.6071
   96SAPC    C3 9392   4.101   2.459   1.912 -0.2772  0.0299  0.7601
   96SAPC    HX 9393   4.016   2.484   1.846 -0.0763 -1.1167  0.0364
   96SAPC    HY 9394   4.113   2.547   1.978 -0.4715  0.2614  0.4880
   96SAPC   O31 9395   4.078   2.340   1.982 -0.1589 -0.7100  0.0487
   96SAPC   C31 9396   3.960   2.319   2.039  0.3817 -0.3417 -0.1098
   96SAPC   O32 9397   3.860   2.387   2.019  0.2463  0.1589 -0.1252
   96SAPC   C32 9398   3.983   2.209   2.137  0.2455  0.2825 -0.5842
   96SAPC   H2X 9399   4.073   2.148   2.114 -1.4053 -1.8843 -1.6752
   96SAPC   H2Y 9400   3.890   2.149   2.145 -1.0770  2.2904 -0.1278
   96SAPC   C23 9401   4.592   2.683   2.075  0.4458 -1.2372  0.1410
   96SAPC   H3R 9402   4.625   2.720   1.976  1.3097 -0.6502  0.6290
   96SAPC   H3S 9403   4.682   2.675   2.140 -0.1460  0.5970  1.2534
   96SAPC   C24 9404   4.515   2.807   2.145 -0.0596  0.5695 -0.8295
   96SAPC   H4R 9405   4.420   2.824   2.091 -0.7408  0.7566  0.3887
   96SAPC   H4S 9406   4.574   2.900   2.129 -1.5881  1.8874  0.8024
   96SAPC   C25 9407   4.482   2.778   2.297 -0.3575  0.2659 -0.4078
   96SAPC   H5R 9408   4.400   2.708   2.317  1.1419 -1.0483  1.6075
   96SAPC   C26 9409   4.536   2.836   2.405 -0.8530  0.0538 -0.3120
   96SAPC   H6R 9410   4.498   2.803   2.502 -1.0769 -0.8288 -0.6880
   96SAPC   C27 9411   4.649   2.937   2.398  0.0502  0.4442 -1.0130
   96SAPC   H7R 9412   4.688   2.946   2.294 -1.8845  0.9249 -1.7401
   96SAPC   H7S 9413   4.728   2.901   2.467 -0.6240 -0.5650 -0.7494
   96SAPC   C28 9414   4.596   3.071   2.448 -0.5265  0.1775  0.2482
   96SAPC   H8R 9415   4.579   3.146   2.370 -2.3089 -2.2056 -1.8217
   96SAPC   C29 9416   4.574   3.109   2.574 -0.0001  0.2657  0.6655
   96SAPC   H9R 9417   4.518   3.201   2.594  1.9799  1.3147  1.7725
   96SAPC  C210 9418   4.593   3.024   2.695 -1.2119 -0.7758  0.3344
   96SAPC  H10R 9419   4.643   3.089   2.770  0.4616  0.4655 -1.7305
   96SAPC  H10S 9420   4.670   2.945   2.686 -0.1236  0.2383  0.5197
   96SAPC  C211 9421   4.465   2.965   2.760 -0.4645  0.7076 -0.4244
   96SAPC  H11R 9422   4.397   2.915   2.689  0.3597 -1.1467  0.0243
   96SAPC  C212 9423   4.433   2.962   2.889  0.7359 -0.4705  0.4887
   96SAPC  H12R 9424   4.348   2.896   2.911  0.5788 -0.2447  0.5697
   96SAPC  C213 9425   4.500   3.033   3.006 -0.6252  0.4018 -0.0153
   96SAPC  H13R 9426   4.607   3.004   3.001 -1.2311 -1.7895 -1.8341
   96SAPC  H13S 9427   4.474   2.977   3.099 -1.0116  1.2365  0.3995
   96SAPC  C214 9428   4.474   3.176   3.030  0.4817  0.4625  0.1427
   96SAPC  H14R 9429   4.509   3.244   2.952 -1.1371  1.6530  0.3875
   96SAPC  C215 9430   4.421   3.234   3.142 -0.6686  0.8989  0.4353
   96SAPC  H15R 9431   4.410   3.343   3.132 -1.5054  0.8900  1.0949
   96SAPC  C216 9432   4.360   3.171   3.270 -0.1622  1.1379 -0.1135
   96SAPC  H16R 9433   4.368   3.061   3.274 -5.1358  0.5764  1.7643
   96SAPC  H16S 9434   4.253   3.200   3.279 -0.2845  0.7495 -0.3096
   96SAPC  C217 9435   4.446   3.221   3.390  0.2113 -0.2552 -0.5705
   96SAPC  H17R 9436   4.465   3.330   3.381 -2.2068  0.2419 -0.2090
   96SAPC  H17S 9437   4.541   3.163   3.382 -1.0961 -2.4971 -0.7001
   96SAPC  C218 9438   4.382   3.195   3.527  0.4478 -0.2244 -0.3330
   96SAPC  H18R 9439   4.358   3.088   3.540  1.7543 -0.7440 -1.9231
   96SAPC  H18S 9440   4.285   3.249   3.526  0.7411  0.3179 -1.4828
   96SAPC  C219 9441   4.473   3.222   3.648 -0.6146 -0.2128  0.1465
   96SAPC  H19R 9442   4.504   3.329   3.642 -0.4436 -0.0506  2.8263
   96SAPC  H19S 9443   4.571   3.172   3.630  0.9423  2.4944  0.4328
   96SAPC  C220 9444   4.404   3.175   3.773 -0.4100 -0.3635  0.0689
   96SAPC  H20R 9445   4.457   3.218   3.860  1.1120  0.7017 -1.3401
   96SAPC  H20S 9446   4.388   3.065   3.774  0.5947 -0.5282  1.8045
   96SAPC  H20T 9447   4.302   3.221   3.773 -0.2148  0.0758  0.0937
   96SAPC   C33 9448   4.011   2.256   2.280  0.7357  0.0929  0.3868
   96SAPC   H3X 9449   4.045   2.168   2.338  1.0236  0.9828  1.6094
   96SAPC   H3Y 9450   3.924   2.309   2.326  0.7291  0.4279 -0.0082
   96SAPC   C34 9451   4.138   2.345   2.298  0.3022  0.0112 -0.3452
   96SAPC   H4X 9452   4.117   2.444   2.254  0.1468 -0.1221 -0.5717
   96SAPC   H4Y 9453   4.219   2.302   2.236  1.9755  0.1840  1.6055
   96SAPC   C35 9454   4.178   2.368   2.444  0.1276 -0.1751 -0.3138
   96SAPC   H5X 9455   4.238   2.277   2.468  0.7507  0.4315  0.5033
   96SAPC   H5Y 9456   4.096   2.396   2.513 -0.6241  0.5157 -1.4711
   96SAPC   C36 9457   4.281   2.479   2.460  1.0250  0.4888  0.1174
   96SAPC   H6X 9458   4.232   2.572   2.425  0.1563 -1.2353 -3.7849
   96SAPC   H6Y 9459   4.362   2.467   2.385  0.4992  0.5442 -0.4714
   96SAPC   C37 9460   4.352   2.497   2.594  0.4983 -0.1077 -0.0069
   96SAPC   H7X 9461   4.419   2.584   2.584 -1.1196  1.1360 -0.5224
   96SAPC   H7Y 9462   4.420   2.411   2.615 -1.0723 -1.0715  1.4412
   96SAPC   C38 9463   4.242   2.520   2.713 -0.3130  0.2116  0.7564
   96SAPC   H8X 9464   4.174   2.433   2.696  0.2081 -0.3879  1.6965
   96SAPC   H8Y 9465   4.184   2.609   2.682 -0.3491 -0.2663 -0.6390
   96SAPC   C39 9466   4.303   2.522   2.853 -0.2521 -0.0587  0.2178
   96SAPC   H9X 9467   4.367   2.612   2.867  0.0220 -0.5501  2.6345
   96SAPC   H9Y 9468   4.370   2.436   2.873  0.3828  0.3020 -0.3029
   96SAPC  C310 9469   4.193   2.518   2.959  0.2881 -0.1384 -0.2601
   96SAPC  H10X 9470   4.136   2.423   2.973 -1.0426  0.8915  1.8994
   96SAPC  H10Y 9471   4.118   2.594   2.928 -2.0522 -1.7310  1.1021
   96SAPC  C311 9472   4.246   2.556   3.100  0.5455  0.3980  0.7818
   96SAPC  H11X 9473   4.281   2.661   3.092  2.2216  0.0309  2.5804
   96SAPC  H11Y 9474   4.329   2.484   3.116 -0.6842 -1.3100 -0.0460
   96SAPC  C312 9475   4.146   2.535   3.211  0.4913  0.1914 -0.5892
   96SAPC  H12X 9476   4.106   2.431   3.208  0.5331  0.1200  0.9049
   96SAPC  H12Y 9477   4.060   2.604   3.196  1.3246  1.2735 -0.5362
   96SAPC  C313 9478   4.212   2.541   3.348 -0.0569 -0.3287  0.1304
   96SAPC  H13X 9479   4.251   2.643   3.366 -0.2640  0.0556 -1.4506
   96SAPC  H13Y 9480   4.301   2.476   3.333  1.1506  1.5153 -1.1430
   96SAPC  C314 9481   4.126   2.497   3.465  0.6663 -0.6602  0.5008
   96SAPC  H14X 9482   4.073   2.407   3.428  0.3824 -1.3705  2.5347
   96SAPC  H14Y 9483   4.055   2.577   3.496 -0.1909 -2.0096  2.1979
   96SAPC  C315 9484   4.213   2.461   3.588 -1.1457  0.0682 -0.0389
   96SAPC  H15X 9485   4.254   2.560   3.620 -0.1695 -0.9777  2.2045
   96SAPC  H15Y 9486   4.301   2.393   3.585 -2.6625 -1.9770  0.0137
   96SAPC  C316 9487   4.128   2.408   3.702 -0.0345 -0.0234 -0.2737
   96SAPC  H16X 9488   4.181   2.401   3.799  3.4040 -1.8674 -2.0935
   96SAPC  H16Y 9489   4.101   2.304   3.677  0.3266  0.0494 -0.9940
   96SAPC  C317 9490   3.999   2.481   3.737 -0.5796 -0.1537  1.0193
   96SAPC  H17X 9491   3.937   2.485   3.644 -0.5146 -0.5946  0.9573
   96SAPC  H17Y 9492   4.025   2.586   3.763 -2.6973  0.6217  0.3162
   96SAPC  C318 9493   3.924   2.415   3.856  0.0343 -0.5507  0.6065
   96SAPC  H18X 9494   3.985   2.421   3.948  2.6495  1.3189 -1.1249
   96SAPC  H18Y 9495   3.912   2.307   3.830  1.0144 -1.2715  2.9319
   96SAPC  H18Z 9496   3.824   2.463   3.863 -0.0251 -0.7734  1.3633
   97SAPC     N 9497   2.388   1.777   1.524 -0.6455  0.2027  0.4687
   97SAPC   C12 9498   2.432   1.771   1.669  0.4051  0.0114  0.1499
   97SAPC  H12A 9499   2.403   1.862   1.719 -1.1144 -0.2406 -0.2131
   97SAPC  H12B 9500   2.540   1.771   1.666  0.4700  2.4860  0.2167
   97SAPC   C13 9501   2.455   1.900   1.464  0.5836 -0.2896 -0.0205
   97SAPC  H13A 9502   2.406   1.916   1.369 -1.7808  0.3688  1.2334
   97SAPC  H13B 9503   2.425   1.974   1.537 -0.3833 -1.7818  1.1617
   97SAPC  H13C 9504   2.563   1.903   1.453  0.6970 -1.1336  0.7218
   97SAPC   C14 9505   2.440   1.654   1.459  0.9938 -0.3447 -0.2662
   97SAPC  H14A 9506   2.547   1.639   1.471  1.1930  0.6468 -0.6723
   97SAPC  H14B 9507   2.390   1.578   1.516 -0.3158  1.2574  0.8038
   97SAPC  H14C 9508   2.410   1.637   1.357 -1.1080 -1.1218  0.4362
   97SAPC   C15 9509   2.239   1.789   1.501  0.1209 -0.8490  0.1890
   97SAPC  H15A 9510   2.215   1.811   1.398 -0.6270 -1.8264  0.1390
   97SAPC  H15B 9511   2.195   1.690   1.499  0.9398 -1.2742  1.5597
   97SAPC  H15C 9512   2.187   1.846   1.577  0.2873  0.4649 -0.6685
   97SAPC   C11 9513   2.388   1.651   1.756  0.3285 -1.1885  0.3774
   97SAPC  H11A 9514   2.447   1.648   1.850 -0.2817 -1.7215  0.7514
   97SAPC  H11B 9515   2.418   1.559   1.702 -0.4760 -0.6732 -1.0033
   97SAPC     P 9516   2.168   1.731   1.887 -0.0527  0.1798  0.0044
   97SAPC   O13 9517   2.205   1.873   1.867 -1.2730 -0.0568  0.0148
   97SAPC   O14 9518   2.025   1.689   1.882 -0.7094  0.2093 -0.1497
   97SAPC   O12 9519   2.251   1.637   1.788  0.2602 -0.9165  0.3964
   97SAPC   O11 9520   2.219   1.696   2.029 -0.3037  0.0814 -0.2957
   97SAPC    C1 9521   2.214   1.577   2.104  0.1927  0.0893  0.1259
   97SAPC    HA 9522   2.190   1.500   2.028  1.9902 -0.9224  0.5200
   97SAPC    HB 9523   2.314   1.548   2.144 -0.7312 -1.1999  1.6178
   97SAPC    C2 9524   2.105   1.588   2.218  0.3175 -0.0037 -0.4169
   97SAPC    HS 9525   2.018   1.611   2.153  0.9474 -0.1876 -1.3406
   97SAPC   O21 9526   2.150   1.701   2.304 -0.0714 -0.8098 -0.4203
   97SAPC   C21 9527   2.049   1.755   2.364  0.4324  0.4484  0.2536
   97SAPC   O22 9528   1.935   1.712   2.371  0.0202  0.6394  0.1645
   97SAPC   C22 9529   2.094   1.896   2.414  0.5977  1.5605 -0.0822
   97SAPC   H2R 9530   2.097   1.887   2.525 -2.0632  0.6220 -0.0110
   97SAPC   H2S 9531   2.201   1.915   2.393  1.6894 -4.0169 -1.2735
   97SAPC    C3 9532   2.064   1.449   2.290 -0.5262 -0.5347  0.4782
   97SAPC    HX 9533   2.006   1.384   2.222  0.3918 -3.2395  2.0868
   97SAPC    HY 9534   2.013   1.473   2.386 -0.9270  0.2624  0.0674
   97SAPC   O31 9535   2.183   1.377   2.318 -0.2071 -0.2896 -0.4580
   97SAPC   C31 9536   2.153   1.260   2.373 -0.4060  0.2538  0.4520
   97SAPC   O32 9537   2.040   1.212   2.370  0.0293 -0.6960  0.0163
   97SAPC   C32 9538   2.278   1.193   2.434 -0.5806 -0.2417  0.1672
   97SAPC   H2X 9539   2.368   1.259   2.428 -1.3438  0.7359 -1.4906
   97SAPC   H2Y 9540   2.295   1.104   2.370  1.0233  0.5520 -0.6004
   97SAPC   C23 9541   1.993   1.999   2.375  0.0793 -0.0804 -0.2402
   97SAPC   H3R 9542   1.889   1.963   2.393  0.4765 -0.3230  1.6916
   97SAPC   H3S 9543   2.001   2.009   2.264 -1.0581 -0.4592 -0.3703
   97SAPC   C24 9544   2.006   2.138   2.453 -0.1895 -0.3082  0.2728
   97SAPC   H4R 9545   2.002   2.118   2.562 -2.7237 -0.7808  0.1561
   97SAPC   H4S 9546   1.913   2.189   2.420  0.0186 -1.0800 -1.6363
   97SAPC   C25 9547   2.125   2.211   2.404  0.0872  0.3313 -0.2217
   97SAPC   H5R 9548   2.123   2.254   2.302 -1.9606 -1.7148 -1.1409
   97SAPC   C26 9549   2.238   2.246   2.467 -0.3615 -0.1335  0.1651
   97SAPC   H6R 9550   2.320   2.295   2.413 -0.1024  0.6340  1.2207
   97SAPC   C27 9551   2.282   2.215   2.604 -0.2842  0.4093  0.0924
   97SAPC   H7R 9552   2.374   2.152   2.607 -1.0499 -1.0487 -2.8474
   97SAPC   H7S 9553   2.203   2.154   2.653 -0.0345  1.5754  2.0762
   97SAPC   C28 9554   2.290   2.337   2.685  0.7502  0.2671  0.4517
   97SAPC   H8R 9555   2.194   2.389   2.689  1.5512  2.0940 -1.7925
   97SAPC   C29 9556   2.389   2.386   2.761  0.5518 -0.2263 -0.4975
   97SAPC   H9R 9557   2.375   2.487   2.801  1.3292 -0.0701 -0.5981
   97SAPC  C210 9558   2.521   2.330   2.783 -0.2500  0.8713 -0.2804
   97SAPC  H10R 9559   2.549   2.249   2.713 -1.4923  0.0236  0.1574
   97SAPC  H10S 9560   2.515   2.265   2.873  0.1216 -0.7667 -1.3965
   97SAPC  C211 9561   2.616   2.436   2.799  0.3815  0.7479  0.2904
   97SAPC  H11R 9562   2.627   2.492   2.705  0.9472 -0.0885 -0.1569
   97SAPC  C212 9563   2.690   2.467   2.910 -0.8486  0.1720  0.1075
   97SAPC  H12R 9564   2.746   2.562   2.909 -1.8568  0.7786 -1.5076
   97SAPC  C213 9565   2.695   2.385   3.039  0.6493  0.8689 -0.3288
   97SAPC  H13R 9566   2.778   2.311   3.032 -0.2710 -0.2374  0.0824
   97SAPC  H13S 9567   2.603   2.323   3.051  0.4777  1.3298  0.7995
   97SAPC  C214 9568   2.707   2.473   3.152  0.3564 -0.0837 -0.6894
   97SAPC  H14R 9569   2.787   2.545   3.132  2.5917 -2.7560 -2.1710
   97SAPC  C215 9570   2.653   2.458   3.277 -0.2563 -0.1517  0.5287
   97SAPC  H15R 9571   2.699   2.525   3.351  0.9273 -0.1848 -0.1371
   97SAPC  C216 9572   2.573   2.334   3.318 -0.4017  0.5676  0.1927
   97SAPC  H16R 9573   2.635   2.242   3.304 -1.1893  0.0078  0.3404
   97SAPC  H16S 9574   2.488   2.312   3.251 -0.5606 -1.4440  0.9742
   97SAPC  C217 9575   2.522   2.340   3.470 -0.6245 -0.0143  0.2864
   97SAPC  H17R 9576   2.461   2.251   3.496  0.5267 -0.5235  1.3031
   97SAPC  H17S 9577   2.454   2.428   3.467  0.5438  0.9294  0.7386
   97SAPC  C218 9578   2.635   2.376   3.571 -0.1970 -0.4870 -0.0735
   97SAPC  H18R 9579   2.587   2.365   3.671  1.0586 -0.2671  0.5739
   97SAPC  H18S 9580   2.684   2.475   3.561 -1.4493  0.5926  3.0815
   97SAPC  C219 9581   2.743   2.265   3.567 -0.7124 -0.4983  0.7641
   97SAPC  H19R 9582   2.823   2.299   3.636  0.7518 -0.6297 -0.7945
   97SAPC  H19S 9583   2.784   2.264   3.464 -0.5845 -1.7924  0.8075
   97SAPC  C220 9584   2.693   2.132   3.618  0.3464  0.0169 -0.1506
   97SAPC  H20R 9585   2.779   2.062   3.611  1.2173  1.0000  0.3532
   97SAPC  H20S 9586   2.605   2.097   3.560  0.7045 -2.8126  0.8412
   97SAPC  H20T 9587   2.662   2.155   3.723 -1.9191 -1.3080 -0.4467
   97SAPC   C33 9588   2.256   1.144   2.571  0.3698 -0.3646 -0.8164
   97SAPC   H3X 9589   2.174   1.070   2.583  0.1969 -0.0877 -0.2595
   97SAPC   H3Y 9590   2.238   1.231   2.637  1.3102  0.0026 -1.0310
   97SAPC   C34 9591   2.378   1.077   2.635  0.4936 -0.8917  0.4419
   97SAPC   H4X 9592   2.472   1.128   2.607 -1.4837  1.0757 -3.2406
   97SAPC   H4Y 9593   2.395   0.970   2.610  2.2765 -1.0203  2.0026
   97SAPC   C35 9594   2.374   1.089   2.797 -0.0785  0.1216  0.7111
   97SAPC   H5X 9595   2.272   1.048   2.812 -0.3732  0.6798  0.2896
   97SAPC   H5Y 9596   2.379   1.191   2.840  0.1518  0.7030 -0.6407
   97SAPC   C36 9597   2.480   0.999   2.868 -0.2974 -0.0590  0.1637
   97SAPC   H6X 9598   2.581   1.047   2.869 -0.2045 -0.2065  1.9571
   97SAPC   H6Y 9599   2.494   0.906   2.810  0.4206  0.6961 -0.9248
   97SAPC   C37 9600   2.438   0.967   3.013 -0.2984  0.0963 -0.2795
   97SAPC   H7X 9601   2.534   0.935   3.060  0.4643  1.7985 -0.6291
   97SAPC   H7Y 9602   2.373   0.877   3.010 -1.4536  0.9385 -1.3531
   97SAPC   C38 9603   2.368   1.072   3.100  0.1614 -0.3899  0.4153
   97SAPC   H8X 9604   2.263   1.084   3.066  0.4945  1.4404 -0.1057
   97SAPC   H8Y 9605   2.412   1.171   3.074  0.6100 -0.9174 -0.8761
   97SAPC   C39 9606   2.360   1.037   3.251  0.4585 -0.4235  0.0177
   97SAPC   H9X 9607   2.466   1.020   3.280  0.9359  0.1270 -1.3154
   97SAPC   H9Y 9608   2.297   0.946   3.258  0.5731 -0.4747  0.3841
   97SAPC  C310 9609   2.310   1.160   3.327 -0.3483 -0.8099  0.3407
   97SAPC  H10X 9610   2.203   1.182   3.308 -0.1136 -0.6490 -0.8797
   97SAPC  H10Y 9611   2.375   1.241   3.287  0.6931 -1.4587  0.6731
   97SAPC  C311 9612   2.333   1.155   3.480  0.7377 -0.1144  0.8229
   97SAPC  H11X 9613   2.436   1.118   3.502  0.4185 -2.2460 -0.8402
   97SAPC  H11Y 9614   2.259   1.092   3.534 -0.5235  0.3105 -0.3561
   97SAPC  C312 9615   2.319   1.283   3.556 -0.0981  0.5445 -0.3673
   97SAPC  H12X 9616   2.364   1.362   3.492 -1.1495  1.4732  0.0006
   97SAPC  H12Y 9617   2.367   1.274   3.655 -2.6695 -0.2006  0.9005
   97SAPC  C313 9618   2.177   1.325   3.582 -0.0615  0.0532  0.0171
   97SAPC  H13X 9619   2.146   1.277   3.677 -1.2445 -0.3836 -0.5809
   97SAPC  H13Y 9620   2.116   1.268   3.509  0.1020 -1.7252  1.2222
   97SAPC  C314 9621   2.172   1.478   3.580  0.1710  1.0208 -0.0610
   97SAPC  H14X 9622   2.193   1.518   3.478  1.4771 -3.3726 -1.7214
   97SAPC  H14Y 9623   2.243   1.528   3.650  0.0069  0.1709  0.7323
   97SAPC  C315 9624   2.035   1.540   3.617 -0.6212 -0.6573 -0.1405
   97SAPC  H15X 9625   1.960   1.491   3.553 -1.2173  0.2867 -0.1864
   97SAPC  H15Y 9626   2.045   1.648   3.590  1.6111 -0.7473  0.0849
   97SAPC  C316 9627   1.995   1.526   3.760  0.3906  0.0936  0.0452
   97SAPC  H16X 9628   2.087   1.556   3.816  0.4563 -0.0414  0.0108
   97SAPC  H16Y 9629   1.979   1.416   3.771  0.4907 -0.3410 -3.0827
   97SAPC  C317 9630   1.864   1.599   3.805 -0.4613 -0.6469 -0.0567
   97SAPC  H17X 9631   1.852   1.560   3.909  0.1432  0.1118  0.3023
   97SAPC  H17Y 9632   1.780   1.556   3.746 -1.2597 -0.9830  1.2732
   97SAPC  C318 9633   1.859   1.753   3.803  0.0918  0.3905 -0.1388
   97SAPC  H18X 9634   1.941   1.806   3.855 -1.4526  0.6217  2.2589
   97SAPC  H18Y 9635   1.763   1.795   3.840  1.0045  0.1942  2.6978
   97SAPC  H18Z 9636   1.862   1.789   3.698  3.7189 -0.1504 -0.3259
   98SAPC     N 9637   7.004   2.674   2.010  0.3145 -0.2308 -0.1815
   98SAPC   C12 9638   7.066   2.749   2.113 -0.2801  0.0421  0.1094
   98SAPC  H12A 9639   7.172   2.737   2.096 -0.6773 -1.0924 -2.0077
   98SAPC  H12B 9640   7.063   2.704   2.210  2.3904 -0.1222  0.1796
   98SAPC   C13 9641   7.072   2.692   1.876  0.8182  0.4380 -0.1867
   98SAPC  H13A 9642   7.064   2.792   1.838  0.9896  0.3801 -0.3792
   98SAPC  H13B 9643   7.175   2.658   1.878  0.7743 -0.4566 -4.4009
   98SAPC  H13C 9644   7.032   2.618   1.808  1.5425  0.1584 -0.3216
   98SAPC   C14 9645   7.020   2.525   2.035  0.1684  0.3197 -0.4052
   98SAPC  H14A 9646   6.946   2.500   2.110 -1.8241  3.2418 -1.2100
   98SAPC  H14B 9647   7.007   2.464   1.946 -2.1855  0.5670 -0.2959
   98SAPC  H14C 9648   7.119   2.509   2.075  0.3292  0.4784 -0.7289
   98SAPC   C15 9649   6.857   2.701   2.001 -0.3460 -0.3728 -0.1697
   98SAPC  H15A 9650   6.818   2.650   1.914 -1.0186  0.4689 -0.3800
   98SAPC  H15B 9651   6.802   2.666   2.087 -1.1768 -0.7653 -0.8446
   98SAPC  H15C 9652   6.836   2.806   1.982  0.4896 -0.5711 -2.4957
   98SAPC   C11 9653   7.037   2.899   2.123  0.0021  0.6463  0.2402
   98SAPC  H11A 9654   6.934   2.917   2.160  0.0898  0.7376  0.4389
   98SAPC  H11B 9655   7.053   2.939   2.021  1.4413  0.1125  0.2395
   98SAPC     P 9656   7.277   2.974   2.187  0.1487  0.0066  0.0238
   98SAPC   O13 9657   7.289   3.061   2.069 -0.1004 -0.1099 -0.4384
   98SAPC   O14 9658   7.352   3.018   2.303  0.6864  0.0120  0.0566
   98SAPC   O12 9659   7.123   2.951   2.217  0.9770 -0.4990  0.3688
   98SAPC   O11 9660   7.331   2.829   2.140  0.0652 -0.1456 -0.0486
   98SAPC    C1 9661   7.418   2.745   2.227  0.3413 -0.5913 -0.4156
   98SAPC    HA 9662   7.485   2.691   2.157 -0.3545 -1.0682 -0.7241
   98SAPC    HB 9663   7.488   2.808   2.286  0.0109  0.3051 -0.9611
   98SAPC    C2 9664   7.349   2.643   2.317  0.6951  0.1516 -0.3877
   98SAPC    HS 9665   7.272   2.599   2.251 -1.2783  1.0543  1.2004
   98SAPC   O21 9666   7.291   2.702   2.431  0.1081 -0.5031  0.0819
   98SAPC   C21 9667   7.180   2.638   2.479  0.0085  0.0273 -0.1827
   98SAPC   O22 9668   7.113   2.559   2.419  0.0716 -0.0747  0.2790
   98SAPC   C22 9669   7.148   2.678   2.630 -0.1483 -0.8638  0.4844
   98SAPC   H2R 9670   7.239   2.661   2.691 -0.4336 -2.9506  0.4236
   98SAPC   H2S 9671   7.121   2.785   2.625 -0.4365 -0.6582  4.0207
   98SAPC    C3 9672   7.449   2.525   2.370 -0.0201 -0.1469 -0.5130
   98SAPC    HX 9673   7.487   2.477   2.278 -0.0483  1.8795 -1.6499
   98SAPC    HY 9674   7.386   2.450   2.422 -0.7675  1.0999  0.4561
   98SAPC   O31 9675   7.552   2.575   2.454 -0.4522  0.2945 -0.6404
   98SAPC   C31 9676   7.676   2.553   2.421  0.2349 -0.1602 -0.1168
   98SAPC   O32 9677   7.715   2.495   2.321 -0.3093 -0.3772  0.6423
   98SAPC   C32 9678   7.769   2.592   2.544  0.7016 -0.1943  0.1555
   98SAPC   H2X 9679   7.735   2.528   2.629 -2.4298  0.6264 -0.3291
   98SAPC   H2Y 9680   7.750   2.700   2.561  1.2249  0.2592 -1.9037
   98SAPC   C23 9681   7.033   2.593   2.691 -0.5998 -0.2082  0.7589
   98SAPC   H3R 9682   7.063   2.487   2.703 -1.2705 -0.4228  0.5908
   98SAPC   H3S 9683   6.954   2.592   2.613 -1.3391  0.0769  1.4812
   98SAPC   C24 9684   6.986   2.647   2.827  0.1425 -0.0570  0.0829
   98SAPC   H4R 9685   7.071   2.644   2.898 -0.5142  1.0996  0.9252
   98SAPC   H4S 9686   6.908   2.573   2.854 -0.9561  1.3777  0.9288
   98SAPC   C25 9687   6.925   2.786   2.832  0.1338 -0.4293 -0.0724
   98SAPC   H5R 9688   6.875   2.818   2.739 -0.2940 -1.3874 -0.1917
   98SAPC   C26 9689   6.929   2.882   2.927 -0.4691  0.3453 -0.0909
   98SAPC   H6R 9690   6.877   2.978   2.912 -0.4516  0.2485 -0.7694
   98SAPC   C27 9691   6.981   2.854   3.068  0.2517 -0.0050  0.0455
   98SAPC   H7R 9692   7.016   2.751   3.086  1.5724  0.0024 -2.1146
   98SAPC   H7S 9693   6.897   2.885   3.133  0.5484  1.0301 -0.0410
   98SAPC   C28 9694   7.103   2.941   3.102  0.0561 -0.3877 -0.2910
   98SAPC   H8R 9695   7.146   3.010   3.028  0.2106  1.4811  1.4824
   98SAPC   C29 9696   7.159   2.942   3.225 -0.0205  0.1955  0.1264
   98SAPC   H9R 9697   7.249   3.004   3.240 -0.7019  0.8877  1.6857
   98SAPC  C210 9698   7.118   2.874   3.351  1.0491  0.1985 -0.0021
   98SAPC  H10R 9699   7.028   2.816   3.319  0.3722  1.1903  0.0635
   98SAPC  H10S 9700   7.088   2.948   3.429  4.0857 -0.3751  1.8584
   98SAPC  C211 9701   7.227   2.782   3.399 -0.0737 -1.0256  0.2346
   98SAPC  H11R 9702   7.309   2.837   3.448 -1.6987  1.2153  0.6347
   98SAPC  C212 9703   7.245   2.654   3.392  0.2859  0.1305 -0.1788
   98SAPC  H12R 9704   7.335   2.610   3.438 -0.9456 -2.6217 -0.2237
   98SAPC  C213 9705   7.147   2.562   3.328  0.5110  0.3634 -0.1201
   98SAPC  H13R 9706   7.090   2.616   3.248 -1.2081  0.2046  0.9368
   98SAPC  H13S 9707   7.071   2.538   3.405 -0.4514 -0.2793 -1.2238
   98SAPC  C214 9708   7.198   2.432   3.267 -0.6896 -0.5958 -0.5193
   98SAPC  H14R 9709   7.204   2.414   3.159 -1.2945 -0.9731 -0.4899
   98SAPC  C215 9710   7.238   2.337   3.353  0.1925  0.5869  0.7363
   98SAPC  H15R 9711   7.270   2.242   3.308 -2.0990 -0.0333  0.2707
   98SAPC  C216 9712   7.221   2.338   3.500 -0.2245  0.0517 -1.0434
   98SAPC  H16R 9713   7.161   2.250   3.533 -2.0161  1.0558 -1.4813
   98SAPC  H16S 9714   7.160   2.425   3.533 -1.6077 -1.1393 -0.3130
   98SAPC  C217 9715   7.340   2.347   3.598 -0.1977  0.2930  1.2546
   98SAPC  H17R 9716   7.306   2.373   3.701  3.5480  1.0675  2.4476
   98SAPC  H17S 9717   7.398   2.437   3.568  1.0078 -0.7531  0.3504
   98SAPC  C218 9718   7.431   2.223   3.617 -0.0707 -0.0638  0.1051
   98SAPC  H18R 9719   7.496   2.216   3.527 -0.8454  0.4658 -0.5025
   98SAPC  H18S 9720   7.359   2.139   3.620  0.7351 -0.8560 -1.4275
   98SAPC  C219 9721   7.522   2.234   3.741  0.7196 -0.7273 -0.1764
   98SAPC  H19R 9722   7.454   2.249   3.828 -1.8418 -0.4696 -2.0995
   98SAPC  H19S 9723   7.585   2.323   3.720 -1.0369  0.1925 -1.8623
   98SAPC  C220 9724   7.610   2.114   3.765 -0.7443  0.6958  0.3667
   98SAPC  H20R 9725   7.664   2.103   3.669 -2.4481  2.2276 -0.8516
   98SAPC  H20S 9726   7.546   2.025   3.784 -0.6001  0.6168  0.4787
   98SAPC  H20T 9727   7.681   2.118   3.850  1.7170  2.0196 -1.6061
   98SAPC   C33 9728   7.916   2.572   2.503 -0.2352 -0.0591  0.3216
   98SAPC   H3X 9729   7.941   2.629   2.411  1.8255 -1.9617 -0.3957
   98SAPC   H3Y 9730   7.937   2.463   2.489  2.0052  0.3634 -0.0624
   98SAPC   C34 9731   8.003   2.628   2.619 -0.2308 -0.6067  0.6452
   98SAPC   H4X 9732   7.963   2.604   2.720  0.4332 -0.5920  0.9152
   98SAPC   H4Y 9733   8.015   2.736   2.596  4.7341 -1.2700 -1.0642
   98SAPC   C35 9734   8.144   2.576   2.622 -0.7167 -0.6768  0.4030
   98SAPC   H5X 9735   8.196   2.627   2.539  1.9587 -1.0797  1.7153
   98SAPC   H5Y 9736   8.152   2.465   2.612  0.8292 -0.6052  0.5463
   98SAPC   C36 9737   8.231   2.615   2.747 -0.2328  0.2557  0.0009
   98SAPC   H6X 9738   8.186   2.708   2.788 -1.0532 -0.6406  1.1999
   98SAPC   H6Y 9739   8.340   2.627   2.730  0.0229 -2.7152 -1.1542
   98SAPC   C37 9740   8.217   2.502   2.859 -0.5466 -1.1721  0.5923
   98SAPC   H7X 9741   8.274   2.415   2.821  2.7058  1.3414 -0.7692
   98SAPC   H7Y 9742   8.110   2.478   2.871 -1.0783  1.1838  1.0582
   98SAPC   C38 9743   8.271   2.545   2.998 -0.4336  0.1903  0.1421
   98SAPC   H8X 9744   8.211   2.623   3.049 -0.9273  0.3562 -0.6598
   98SAPC   H8Y 9745   8.370   2.592   2.979 -0.0082 -0.8124 -0.2135
   98SAPC   C39 9746   8.289   2.424   3.090 -0.4916  0.1869  0.4161
   98SAPC   H9X 9747   8.356   2.449   3.175  0.3887  0.0695 -0.2333
   98SAPC   H9Y 9748   8.347   2.343   3.040 -0.5752  0.5213 -0.2374
   98SAPC  C310 9749   8.157   2.376   3.150 -0.3423 -0.1143 -0.9956
   98SAPC  H10X 9750   8.096   2.329   3.070 -3.5050 -0.2004  1.2648
   98SAPC  H10Y 9751   8.105   2.467   3.187  2.8343  2.0772 -1.5284
   98SAPC  C311 9752   8.171   2.273   3.263 -0.7047 -0.0534 -0.6473
   98SAPC  H11X 9753   8.253   2.307   3.330 -2.7741  0.0528  1.9801
   98SAPC  H11Y 9754   8.195   2.176   3.215 -0.8600  0.6292 -2.1645
   98SAPC  C312 9755   8.045   2.256   3.357 -0.0229 -0.0986 -0.4449
   98SAPC  H12X 9756   8.018   2.352   3.406  3.1057 -1.3393  4.4659
   98SAPC  H12Y 9757   8.076   2.196   3.445 -3.0571 -0.9092  0.1889
   98SAPC  C313 9758   7.928   2.190   3.281 -0.0594  0.0552  0.1542
   98SAPC  H13X 9759   7.950   2.098   3.222 -1.3384  1.8843 -3.4925
   98SAPC  H13Y 9760   7.879   2.261   3.210 -1.1333  1.2942  2.0558
   98SAPC  C314 9761   7.821   2.153   3.382 -0.2842  0.3566  0.2957
   98SAPC  H14X 9762   7.777   2.248   3.419  0.7106  1.4782 -1.2663
   98SAPC  H14Y 9763   7.877   2.098   3.460  2.0094 -1.1233 -2.1971
   98SAPC  C315 9764   7.717   2.058   3.317 -0.1226 -0.7585  0.5249
   98SAPC  H15X 9765   7.663   2.014   3.404  1.7688 -0.3156  1.9975
   98SAPC  H15Y 9766   7.765   1.974   3.261  1.1470  1.0020 -1.1392
   98SAPC  C316 9767   7.635   2.127   3.208  0.1189  0.0642 -0.0389
   98SAPC  H16X 9768   7.700   2.145   3.120 -1.8274  0.7117 -1.4065
   98SAPC  H16Y 9769   7.583   2.220   3.240  0.5927  0.0557  0.7779
   98SAPC  C317 9770   7.525   2.030   3.170  0.1190  0.4063  0.3987
   98SAPC  H17X 9771   7.494   1.972   3.260  1.7943 -1.4382 -0.1481
   98SAPC  H17Y 9772   7.574   1.952   3.108 -1.2297 -0.2461  0.1245
   98SAPC  C318 9773   7.406   2.079   3.098 -0.6673 -0.3738 -0.0152
   98SAPC  H18X 9774   7.330   2.106   3.176 -1.1821 -1.6574 -0.0553
   98SAPC  H18Y 9775   7.364   2.003   3.029 -1.4623 -1.4536  1.5844
   98SAPC  H18Z 9776   7.430   2.171   3.041 -4.3693  0.3050 -0.7303
   99SAPC     N 9777   1.464   6.550   1.621 -0.6080  0.2900  0.4128
   99SAPC   C12 9778   1.546   6.447   1.693  0.4716 -1.0996  0.1410
   99SAPC  H12A 9779   1.586   6.379   1.619 -0.6324 -0.6469 -0.9185
   99SAPC  H12B 9780   1.478   6.385   1.749  0.3667  0.8095  2.2658
   99SAPC   C13 9781   1.548   6.646   1.533  0.5114  0.1071  0.1553
   99SAPC  H13A 9782   1.482   6.728   1.508  0.0063  0.8905  3.4885
   99SAPC  H13B 9783   1.634   6.679   1.590 -0.5200 -0.3583  2.0914
   99SAPC  H13C 9784   1.580   6.595   1.444  0.9265 -1.9083  1.3947
   99SAPC   C14 9785   1.369   6.468   1.537 -0.6897 -0.5606  0.6654
   99SAPC  H14A 9786   1.300   6.410   1.596 -0.2613  0.9447  2.7832
   99SAPC  H14B 9787   1.295   6.531   1.490  2.3437  1.2576 -2.0824
   99SAPC  H14C 9788   1.424   6.407   1.468 -0.7307 -0.2148  0.3262
   99SAPC   C15 9789   1.393   6.642   1.714 -0.4360 -0.5112  0.8277
   99SAPC  H15A 9790   1.332   6.716   1.665 -1.5862 -1.3181  1.0053
   99SAPC  H15B 9791   1.332   6.586   1.784 -1.0751 -0.3212  0.4337
   99SAPC  H15C 9792   1.459   6.706   1.771  0.5440  0.2073 -1.0187
   99SAPC   C11 9793   1.648   6.491   1.803 -0.1814 -0.3304  0.4408
   99SAPC  H11A 9794   1.693   6.404   1.855  1.7743  0.1116 -0.3959
   99SAPC  H11B 9795   1.605   6.554   1.884 -2.5897 -0.2621 -0.8237
   99SAPC     P 9796   1.889   6.608   1.815  0.3029  0.2930  0.1066
   99SAPC   O13 9797   1.975   6.499   1.862  0.4610 -0.0913 -0.2513
   99SAPC   O14 9798   1.955   6.714   1.732  0.1777 -0.0480 -0.0096
   99SAPC   O12 9799   1.760   6.555   1.738 -0.1829 -0.0820 -0.1661
   99SAPC   O11 9800   1.829   6.678   1.946  0.2334 -0.0675  0.3223
   99SAPC    C1 9801   1.776   6.809   1.942  0.4052 -0.0062 -0.4926
   99SAPC    HA 9802   1.864   6.876   1.931  0.7439  0.0665  1.9968
   99SAPC    HB 9803   1.701   6.813   1.860 -0.6270  1.0526  0.4672
   99SAPC    C2 9804   1.706   6.838   2.081  0.7062  0.9768 -0.3335
   99SAPC    HS 9805   1.640   6.927   2.074  0.2473  0.7388  0.6964
   99SAPC   O21 9806   1.814   6.862   2.165  0.3345  0.2216  0.1701
   99SAPC   C21 9807   1.836   6.992   2.198 -0.2400  0.0719 -0.3078
   99SAPC   O22 9808   1.760   7.087   2.179 -0.1705  0.4352 -0.3907
   99SAPC   C22 9809   1.969   7.001   2.288  0.0007  0.5782  0.0721
   99SAPC   H2R 9810   2.041   6.933   2.237  1.5107 -0.5652  3.4577
   99SAPC   H2S 9811   2.006   7.106   2.281 -1.3624  0.9725 -2.1323
   99SAPC    C3 9812   1.625   6.719   2.131  1.1452  0.0412  0.2975
   99SAPC    HX 9813   1.677   6.621   2.118 -0.0240 -0.9934  2.7096
   99SAPC    HY 9814   1.533   6.707   2.071  1.5196 -1.5090 -0.0276
   99SAPC   O31 9815   1.578   6.734   2.269  0.6272  0.1365  0.4133
   99SAPC   C31 9816   1.634   6.664   2.360 -0.2040 -0.1353  0.2900
   99SAPC   O32 9817   1.721   6.586   2.345 -1.1455  0.1570 -0.0302
   99SAPC   C32 9818   1.577   6.703   2.491  0.5136 -0.0329 -0.6551
   99SAPC   H2X 9819   1.466   6.703   2.487  0.3501 -0.3237  1.9936
   99SAPC   H2Y 9820   1.614   6.804   2.520  0.3697 -0.8228  2.6493
   99SAPC   C23 9821   1.937   6.954   2.434  0.1600 -0.0263  0.0425
   99SAPC   H3R 9822   1.872   6.864   2.435  0.7423 -0.4881 -0.9604
   99SAPC   H3S 9823   1.881   7.044   2.465 -0.1340  0.1429 -0.9423
   99SAPC   C24 9824   2.055   6.930   2.524 -0.6470 -1.0225 -0.2259
   99SAPC   H4R 9825   2.020   6.926   2.630 -1.4247  3.7715 -0.0702
   99SAPC   H4S 9826   2.128   7.013   2.528  0.2239 -1.7948  2.7139
   99SAPC   C25 9827   2.140   6.809   2.475 -0.2621 -0.5452 -0.6940
   99SAPC   H5R 9828   2.180   6.814   2.373  1.5668 -0.2157  0.0006
   99SAPC   C26 9829   2.166   6.695   2.547  0.9272 -0.1666  0.4520
   99SAPC   H6R 9830   2.241   6.625   2.509  1.4190  0.0478  0.9972
   99SAPC   C27 9831   2.120   6.668   2.692 -0.7199 -0.4767  0.2615
   99SAPC   H7R 9832   2.092   6.766   2.737  0.0125  0.6483 -1.5910
   99SAPC   H7S 9833   2.205   6.622   2.748  0.5135 -0.3403 -1.4372
   99SAPC   C28 9834   1.991   6.584   2.702 -1.0738  0.1451 -0.0492
   99SAPC   H8R 9835   1.899   6.639   2.677 -1.9189 -0.7979  0.9025
   99SAPC   C29 9836   1.980   6.467   2.765 -0.1303 -0.2074 -0.6394
   99SAPC   H9R 9837   1.876   6.430   2.761 -0.7492  1.2156  0.8483
   99SAPC  C210 9838   2.095   6.387   2.835  0.5700 -0.0894  0.0518
   99SAPC  H10R 9839   2.064   6.364   2.939  1.2753  1.5069  0.6563
   99SAPC  H10S 9840   2.182   6.456   2.842  1.4230 -1.0703 -0.6828
   99SAPC  C211 9841   2.126   6.273   2.740  0.2676 -0.0378  0.3323
   99SAPC  H11R 9842   2.106   6.290   2.633  0.9594 -2.0351 -0.1481
   99SAPC  C212 9843   2.178   6.151   2.773 -0.5942  0.1638  0.0495
   99SAPC  H12R 9844   2.210   6.086   2.690  0.2338  1.1158 -0.3947
   99SAPC  C213 9845   2.235   6.105   2.905  0.4838 -0.2658  0.2248
   99SAPC  H13R 9846   2.279   6.185   2.969 -1.4716  1.8091 -0.8578
   99SAPC  H13S 9847   2.329   6.049   2.888  1.5602  0.9815  1.7476
   99SAPC  C214 9848   2.140   6.026   2.997  1.0382  0.3638  0.1607
   99SAPC  H14R 9849   2.079   5.950   2.947  0.7156  0.3536  0.5635
   99SAPC  C215 9850   2.120   6.038   3.130 -0.2363  0.6769  0.3874
   99SAPC  H15R 9851   2.065   5.958   3.180  2.1106 -0.2842  1.5848
   99SAPC  C216 9852   2.197   6.135   3.213  0.5557 -0.4785  0.0895
   99SAPC  H16R 9853   2.121   6.178   3.282  1.6264  0.1238  0.9157
   99SAPC  H16S 9854   2.223   6.231   3.163 -1.3941  1.7672  3.0513
   99SAPC  C217 9855   2.321   6.080   3.284 -0.6137  0.3915 -0.7887
   99SAPC  H17R 9856   2.357   6.155   3.358 -0.6447 -2.5893  2.5303
   99SAPC  H17S 9857   2.411   6.072   3.220 -0.2510  0.9488 -0.3644
   99SAPC  C218 9858   2.303   5.950   3.362 -0.1698  0.0499 -0.2138
   99SAPC  H18R 9859   2.401   5.918   3.402 -0.0051  1.3539  0.5018
   99SAPC  H18S 9860   2.265   5.869   3.297 -0.5122  1.2112 -1.5063
   99SAPC  C219 9861   2.203   5.973   3.479 -0.6249  0.2817 -0.3127
   99SAPC  H19R 9862   2.101   5.995   3.438 -0.9008 -1.4312 -0.6514
   99SAPC  H19S 9863   2.238   6.060   3.538 -1.3198 -0.0444  0.5973
   99SAPC  C220 9864   2.202   5.841   3.561 -0.4907  0.0495  0.3722
   99SAPC  H20R 9865   2.295   5.837   3.622 -0.4567  0.0024  0.3174
   99SAPC  H20S 9866   2.189   5.754   3.493  0.9935 -1.5733  2.0430
   99SAPC  H20T 9867   2.116   5.855   3.630 -0.9939  1.1664 -0.4514
   99SAPC   C33 9868   1.618   6.611   2.600 -0.1836  0.2107 -0.0586
   99SAPC   H3X 9869   1.727   6.591   2.597 -0.2689 -0.5443  1.3110
   99SAPC   H3Y 9870   1.563   6.519   2.570  0.9199  0.3344 -2.8084
   99SAPC   C34 9871   1.582   6.662   2.734 -0.3082 -0.8596  0.1119
   99SAPC   H4X 9872   1.477   6.698   2.730 -0.3645 -0.9798  0.4626
   99SAPC   H4Y 9873   1.640   6.752   2.761  0.9610 -1.5819 -0.1287
   99SAPC   C35 9874   1.606   6.570   2.853  0.2825 -0.6315  0.0607
   99SAPC   H5X 9875   1.712   6.537   2.847  0.4642 -0.0291 -0.0984
   99SAPC   H5Y 9876   1.550   6.476   2.833 -0.0481 -0.2365 -0.9351
   99SAPC   C36 9877   1.559   6.633   2.984  0.0800 -0.1625  0.8159
   99SAPC   H6X 9878   1.448   6.639   2.979  0.0911 -0.4142  0.1795
   99SAPC   H6Y 9879   1.617   6.727   2.999  3.5184 -1.6839 -1.6923
   99SAPC   C37 9880   1.597   6.535   3.095  0.1830  0.1003  0.6493
   99SAPC   H7X 9881   1.694   6.482   3.083 -1.1547 -1.9550 -2.4006
   99SAPC   H7Y 9882   1.533   6.444   3.097  1.2165 -0.6468  0.3325
   99SAPC   C38 9883   1.601   6.611   3.232  0.1964 -0.0279 -0.0527
   99SAPC   H8X 9884   1.506   6.665   3.254 -0.3247 -1.6656  1.9820
   99SAPC   H8Y 9885   1.679   6.691   3.234 -0.7102  0.8791  2.0863
   99SAPC   C39 9886   1.615   6.513   3.352 -0.2836 -0.2031 -0.0128
   99SAPC   H9X 9887   1.715   6.464   3.351 -0.2479 -0.2003 -2.2915
   99SAPC   H9Y 9888   1.534   6.438   3.365  1.9470 -2.3345  3.0470
   99SAPC  C310 9889   1.626   6.580   3.485  0.0047  0.2584 -0.1159
   99SAPC  H10X 9890   1.540   6.651   3.492  1.6295  2.3538 -0.2763
   99SAPC  H10Y 9891   1.718   6.641   3.496  0.4415 -0.5652  0.9967
   99SAPC  C311 9892   1.628   6.488   3.609  0.1772 -0.1403  0.1574
   99SAPC  H11X 9893   1.719   6.423   3.612  0.3904  0.1707  0.5643
   99SAPC  H11Y 9894   1.534   6.432   3.591 -0.6493  1.8331 -2.2098
   99SAPC  C312 9895   1.606   6.561   3.738 -0.3710 -0.1194  0.7197
   99SAPC  H12X 9896   1.512   6.620   3.734 -0.8858 -0.9946 -2.1065
   99SAPC  H12Y 9897   1.688   6.636   3.746  0.0935 -0.4149 -0.9749
   99SAPC  C313 9898   1.634   6.475   3.862  1.2643 -0.7600 -0.4694
   99SAPC  H13X 9899   1.738   6.436   3.871  1.7003  0.5849  0.6372
   99SAPC  H13Y 9900   1.562   6.391   3.874 -0.8021  1.0359  0.3489
   99SAPC  C314 9901   1.613   6.568   3.989  0.0928 -0.5783  0.3368
   99SAPC  H14X 9902   1.593   6.507   4.080  0.5509  0.8394  1.4171
   99SAPC  H14Y 9903   1.513   6.616   3.981  0.9481  1.4425  1.2394
   99SAPC  C315 9904   1.725   6.669   4.033  0.1036 -0.7036  0.2898
   99SAPC  H15X 9905   1.728   6.756   3.964 -0.1229 -0.4452  0.6009
   99SAPC  H15Y 9906   1.823   6.618   4.021 -1.2712 -3.1773 -1.1997
   99SAPC  C316 9907   1.709   6.701   4.186 -0.5281 -0.1320 -0.6876
   99SAPC  H16X 9908   1.805   6.729   4.234 -2.1512 -0.0862  2.8317
   99SAPC  H16Y 9909   1.667   6.613   4.240  0.5362 -0.4792 -0.4130
   99SAPC  C317 9910   1.602   6.807   4.213 -0.2068 -0.7821  0.3012
   99SAPC  H17X 9911   1.506   6.759   4.185  1.5770 -4.9743  0.6199
   99SAPC  H17Y 9912   1.623   6.890   4.142  0.6040  1.5029  2.9890
   99SAPC  C318 9913   1.600   6.861   4.360  0.3877  0.1076  0.2575
   99SAPC  H18X 9914   1.704   6.882   4.392  0.6507  1.2382 -1.2624
   99SAPC  H18Y 9915   1.542   6.798   4.431  1.6654  1.8287  3.0356
   99SAPC  H18Z 9916   1.539   6.953   4.355  0.0192 -0.1116  0.6713
  100SAPC     N 9917   0.608   0.058   1.405 -0.2260 -0.2441 -0.5277
  100SAPC   C12 9918   0.622   0.009   1.546  0.3352  0.0281  0.4814
  100SAPC  H12A 9919   0.714   0.051   1.583  0.1569  0.0384  0.9153
  100SAPC  H12B 9920   0.657  -0.093   1.544 -0.3919 -0.2589  1.7238
  100SAPC   C13 9921   0.475   0.018   1.352 -0.1226 -0.4271 -0.2135
  100SAPC  H13A 9922   0.470  -0.088   1.334  3.0659 -0.8201  0.6232
  100SAPC  H13B 9923   0.394   0.052   1.414  0.6586 -0.2257  0.7339
  100SAPC  H13C 9924   0.460   0.076   1.262 -0.3207  2.3358  1.4679
  100SAPC   C14 9925   0.613   0.211   1.397  0.0864 -0.2744  0.5135
  100SAPC  H14A 9926   0.520   0.252   1.432 -0.3040 -1.7937  1.3817
  100SAPC  H14B 9927   0.693   0.265   1.447 -0.0304  1.8215 -1.4177
  100SAPC  H14C 9928   0.618   0.248   1.296  0.1521 -0.8439  0.3028
  100SAPC   C15 9929   0.712   0.009   1.314  0.1182 -0.4230 -0.3981
  100SAPC  H15A 9930   0.706  -0.097   1.296 -0.4238 -0.6671  1.0519
  100SAPC  H15B 9931   0.707   0.064   1.221  0.5302  2.6288  1.2197
  100SAPC  H15C 9932   0.812   0.026   1.352  0.3567 -2.5884  0.0728
  100SAPC   C11 9933   0.530   0.046   1.661  0.2135 -0.1611 -0.1851
  100SAPC  H11A 9934   0.570  -0.013   1.746  2.0580 -0.2205 -1.0349
  100SAPC  H11B 9935   0.425   0.016   1.643  0.6008 -0.2752 -2.6248
  100SAPC     P 9936   0.651   0.254   1.778  0.3274  0.1730  0.4656
  100SAPC   O13 9937   0.780   0.177   1.765 -0.4938  0.6228  0.1345
  100SAPC   O14 9938   0.661   0.397   1.741 -0.8036  0.1123  0.6491
  100SAPC   O12 9939   0.541   0.186   1.689 -0.2940  0.3328 -0.4633
  100SAPC   O11 9940   0.585   0.249   1.922  0.4890 -0.1268 -0.4227
  100SAPC    C1 9941   0.453   0.238   1.955 -0.0868 -0.8909  0.1596
  100SAPC    HA 9942   0.395   0.186   1.877  1.2679 -0.4848 -1.1654
  100SAPC    HB 9943   0.437   0.184   2.051  1.1177  0.5662  1.2350
  100SAPC    C2 9944   0.388   0.371   1.990  0.3073 -0.5909  0.6150
  100SAPC    HS 9945   0.382   0.413   1.887  1.7363 -1.9164 -0.0451
  100SAPC   O21 9946   0.476   0.453   2.070 -0.0774 -0.2024 -0.4899
  100SAPC   C21 9947   0.464   0.589   2.054 -0.6835  0.2778 -0.6958
  100SAPC   O22 9948   0.381   0.636   1.984 -0.2584  0.2977  0.1846
  100SAPC   C22 9949   0.578   0.666   2.127 -0.5216 -0.1289 -0.4190
  100SAPC   H2R 9950   0.627   0.611   2.210 -0.3664  0.9221  0.1997
  100SAPC   H2S 9951   0.660   0.683   2.054  1.1598  1.3103  1.6906
  100SAPC    C3 9952   0.250   0.350   2.055 -0.2630  0.0503  0.5453
  100SAPC    HX 9953   0.197   0.281   1.987  0.4781  0.6729 -0.6946
  100SAPC    HY 9954   0.193   0.446   2.057  0.9690  0.8080  0.9204
  100SAPC   O31 9955   0.257   0.301   2.186  0.2687  0.4835 -0.1806
  100SAPC   C31 9956   0.254   0.384   2.287  0.0812  0.0818  0.2179
  100SAPC   O32 9957   0.237   0.503   2.279  0.4367 -0.3087 -0.2686
  100SAPC   C32 9958   0.268   0.303   2.417 -0.1647  0.1697 -0.1548
  100SAPC   H2X 9959   0.363   0.247   2.412 -0.0949  0.1395  1.1410
  100SAPC   H2Y 9960   0.185   0.229   2.410  0.2258 -0.1239 -2.2327
  100SAPC   C23 9961   0.529   0.794   2.185  0.1233 -0.1658 -0.3885
  100SAPC   H3R 9962   0.470   0.850   2.110 -0.6366  0.1586  0.4422
  100SAPC   H3S 9963   0.613   0.859   2.217  1.2849 -1.9778  0.4564
  100SAPC   C24 9964   0.443   0.779   2.316  0.4475 -0.7785 -0.7104
  100SAPC   H4R 9965   0.509   0.736   2.395  1.3653  0.5355 -0.7367
  100SAPC   H4S 9966   0.363   0.705   2.298 -0.9685  0.9209 -1.7087
  100SAPC   C25 9967   0.371   0.908   2.345  0.1214  0.7225  0.3234
  100SAPC   H5R 9968   0.308   0.949   2.264  0.8424  0.9792 -0.1153
  100SAPC   C26 9969   0.375   0.976   2.458 -0.3986 -0.3425 -0.6520
  100SAPC   H6R 9970   0.333   1.077   2.446  2.2045  0.8076 -0.9156
  100SAPC   C27 9971   0.451   0.928   2.578  0.6417 -0.2994  0.0024
  100SAPC   H7R 9972   0.558   0.952   2.560  0.6968 -1.2021 -0.9522
  100SAPC   H7S 9973   0.455   0.817   2.574  0.0761 -0.3082 -0.4465
  100SAPC   C28 9974   0.410   0.987   2.704  0.2832  0.3029 -0.7681
  100SAPC   H8R 9975   0.369   1.089   2.697 -1.1881 -0.2942 -1.2910
  100SAPC   C29 9976   0.421   0.939   2.830  0.1930 -0.2471 -0.3313
  100SAPC   H9R 9977   0.392   1.005   2.913 -1.9967  1.5229 -2.3371
  100SAPC  C210 9978   0.481   0.802   2.872  0.3735 -0.6344 -0.3878
  100SAPC  H10R 9979   0.508   0.748   2.779 -0.3962  0.4216 -1.2562
  100SAPC  H10S 9980   0.402   0.742   2.922 -0.6739  0.8241 -0.2186
  100SAPC  C211 9981   0.595   0.809   2.973  0.4808 -0.2417  0.1294
  100SAPC  H11R 9982   0.685   0.864   2.942  0.6915 -0.2040  0.7776
  100SAPC  C212 9983   0.592   0.767   3.100  0.6038  0.7056  0.1975
  100SAPC  H12R 9984   0.683   0.774   3.161  0.4003 -2.4498  1.0485
  100SAPC  C213 9985   0.480   0.704   3.177  0.2869  0.3967  0.2771
  100SAPC  H13R 9986   0.381   0.684   3.130 -1.1830 -1.0867  3.6448
  100SAPC  H13S 9987   0.468   0.786   3.251  2.3998  0.9820  0.0378
  100SAPC  C214 9988   0.529   0.577   3.239 -0.3349 -0.3443 -0.6036
  100SAPC  H14R 9989   0.533   0.505   3.156 -0.5770 -0.4979 -0.4827
  100SAPC  C215 9990   0.563   0.553   3.361 -0.1413 -0.2123 -0.7576
  100SAPC  H15R 9991   0.600   0.451   3.381 -0.4448 -0.7148 -2.6117
  100SAPC  C216 9992   0.579   0.650   3.486  0.4431  0.2653  1.2339
  100SAPC  H16R 9993   0.610   0.752   3.453 -1.5388  1.2130  2.1235
  100SAPC  H16S 9994   0.665   0.612   3.545  0.4346  1.6139  2.1627
  100SAPC  C217 9995   0.460   0.656   3.580  0.3099 -0.1518  0.8375
  100SAPC  H17R 9996   0.453   0.556   3.628  1.4058  1.0360  3.6675
  100SAPC  H17S 9997   0.372   0.680   3.516 -0.3787 -1.5022  1.2413
  100SAPC  C218 9998   0.467   0.761   3.696  1.0501  0.2615  0.4864
  100SAPC  H18R 9999   0.502   0.862   3.665 -0.4926  0.9672  0.9045
  100SAPC  H18S10000   0.542   0.732   3.772  2.3258  2.9959  0.3735
  100SAPC  C21910001   0.331   0.787   3.765 -0.5877 -0.3433  0.3223
  100SAPC  H19R10002   0.264   0.819   3.682 -0.5546 -3.2676 -0.9746
  100SAPC  H19S10003   0.324   0.870   3.838 -0.4822 -0.3770  0.3710
  100SAPC  C22010004   0.266   0.663   3.816  0.8704  0.8507 -0.0470
  100SAPC  H20R10005   0.241   0.590   3.736 -1.1263 -0.9914  2.1063
  100SAPC  H20S10006   0.172   0.712   3.849 -0.3229 -0.2138 -1.6967
  100SAPC  H20T10007   0.319   0.610   3.899  1.2956  2.8039  0.9794
  100SAPC   C3310008   0.240   0.385   2.550  0.1660 -0.0852  0.9620
  100SAPC   H3X10009   0.135   0.417   2.562  0.7926  2.4676  0.3469
  100SAPC   H3Y10010   0.314   0.467   2.540  0.2237  0.1287  2.8454
  100SAPC   C3410011   0.276   0.311   2.673 -0.2161 -0.2069 -1.0219
  100SAPC   H4X10012   0.385   0.287   2.670  0.3654  2.1366 -0.8141
  100SAPC   H4Y10013   0.228   0.214   2.695 -1.5956  0.7433  0.3605
  100SAPC   C3510014   0.243   0.386   2.810  0.0237 -0.2757  0.7065
  100SAPC   H5X10015   0.135   0.404   2.825 -0.2075 -0.3331 -0.7348
  100SAPC   H5Y10016   0.292   0.486   2.809  0.8810 -0.6877  0.6838
  100SAPC   C3610017   0.293   0.303   2.923  0.0839 -0.2531  0.5441
  100SAPC   H6X10018   0.402   0.323   2.910 -0.1279  1.6887  1.3422
  100SAPC   H6Y10019   0.265   0.196   2.915 -1.4561  0.0117  1.8418
  100SAPC   C3710020   0.241   0.363   3.057  0.1477 -0.1765 -0.5915
  100SAPC   H7X10021   0.130   0.367   3.061  0.2040  2.7126  0.6966
  100SAPC   H7Y10022   0.280   0.466   3.065  0.7993 -0.5249  1.1744
  100SAPC   C3810023   0.295   0.297   3.185  0.3552  0.4219  0.4046
  100SAPC   H8X10024   0.405   0.287   3.191  0.4016  0.9818  0.5454
  100SAPC   H8Y10025   0.251   0.195   3.182  1.4939 -0.0650 -1.0242
  100SAPC   C3910026   0.238   0.363   3.314 -0.8253  0.6831  0.5347
  100SAPC   H9X10027   0.131   0.379   3.292 -1.0408  1.0388  1.7322
  100SAPC   H9Y10028   0.283   0.465   3.322 -2.1770  1.5903 -2.1862
  100SAPC  C31010029   0.269   0.275   3.437  0.1786 -0.5037  0.4550
  100SAPC  H10X10030   0.378   0.293   3.455 -0.1506  1.4000  0.8133
  100SAPC  H10Y10031   0.241   0.172   3.408 -2.0663 -0.1265  1.1355
  100SAPC  C31110032   0.190   0.315   3.564  0.2098  0.0479  0.0963
  100SAPC  H11X10033   0.082   0.334   3.543  0.0565 -0.5382  0.3322
  100SAPC  H11Y10034   0.221   0.418   3.592 -1.5392 -0.0458  2.7506
  100SAPC  C31210035   0.211   0.216   3.683 -0.3896 -0.2013  0.1205
  100SAPC  H12X10036   0.186   0.109   3.666 -0.9944 -0.0840  0.2588
  100SAPC  H12Y10037   0.144   0.254   3.763  0.0858 -1.7160  1.2722
  100SAPC  C31310038   0.359   0.218   3.746 -0.0917  0.4121  0.2483
  100SAPC  H13X10039   0.381   0.311   3.803  0.9285  2.2685 -2.8875
  100SAPC  H13Y10040   0.437   0.198   3.670 -0.3613 -2.1942  0.5923
  100SAPC  C31410041   0.380   0.103   3.846 -0.0351 -0.3921  0.2188
  100SAPC  H14X10042   0.362  -0.001   3.813  1.2546 -0.9839  1.2769
  100SAPC  H14Y10043   0.303   0.134   3.920 -0.8801  1.4911 -1.3621
  100SAPC  C31510044   0.524   0.091   3.891  0.4224  0.7347  0.7366
  100SAPC  H15X10045   0.568   0.188   3.921  0.6408  0.7374  0.4107
  100SAPC  H15Y10046   0.585   0.052   3.807 -0.3171 -0.0304  0.5395
  100SAPC  C31610047   0.538   0.002   4.016  0.1313  0.6191  0.8592
  100SAPC  H16X10048   0.483  -0.092   3.993  2.2031  0.0647 -2.5607
  100SAPC  H16Y10049   0.476   0.055   4.092  0.9684 -0.7492  2.5736
  100SAPC  C31710050   0.678  -0.025   4.053 -0.2935 -0.0107 -0.1823
  100SAPC  H17X10051   0.731  -0.093   3.984  0.9156 -1.6400  2.2312
  100SAPC  H17Y10052   0.683  -0.088   4.144 -1.0929 -1.4841 -1.1089
  100SAPC  C31810053   0.757   0.097   4.074 -0.0868 -0.2533  0.2025
  100SAPC  H18X10054   0.721   0.157   4.160 -1.4507  0.4972 -0.8491
  100SAPC  H18Y10055   0.762   0.158   3.981  0.2950  0.1100  0.4548
  100SAPC  H18Z10056   0.866   0.076   4.085 -0.1898 -0.4505  0.8632
  101OSM      N10057   3.718   2.752   6.497  0.3268  0.2168  0.4195
  101OSM    C1510058   3.618   2.787   6.600 -0.1930 -0.0185  0.5662
  101OSM   H15A10059   3.665   2.796   6.697 -3.1920  1.7650  1.9973
  101OSM   H15B10060   3.550   2.707   6.625 -0.1217 -0.1335  0.3963
  101OSM   H15C10061   3.567   2.881   6.583  1.1031  0.2111 -2.8101
  101OSM    C1410062   3.827   2.856   6.487  0.5266 -0.2623  0.1806
  101OSM   H14A10063   3.784   2.949   6.453  1.7314  0.2246 -0.0493
  101OSM   H14B10064   3.899   2.845   6.408  2.0332  1.8253  1.1849
  101OSM   H14C10065   3.872   2.873   6.584  0.9748  0.9311 -0.2251
  101OSM    C1310066   3.769   2.622   6.538  0.6602 -0.1602  0.1100
  101OSM   H13A10067   3.820   2.577   6.455 -0.5868 -0.7350 -0.3711
  101OSM   H13B10068   3.689   2.556   6.568  1.3209 -0.2947  1.7103
  101OSM   H13C10069   3.843   2.611   6.616 -1.2795 -0.5940  2.0073
  101OSM    C1210070   3.649   2.737   6.361 -0.3636 -1.1233 -0.0626
  101OSM   H12A10071   3.628   2.836   6.324  2.4196 -0.8018 -1.0297
  101OSM   H12B10072   3.558   2.684   6.387 -0.5746 -1.4497 -1.3794
  101OSM    C1110073   3.715   2.652   6.244 -0.1301  0.0213  0.2751
  101OSM   H11A10074   3.814   2.694   6.218  1.3227 -1.7882  2.4357
  101OSM   H11B10075   3.651   2.658   6.154  0.8893 -1.0971 -0.5511
  101OSM      P10076   3.828   2.408   6.219  0.0862 -0.1202 -0.6567
  101OSM    O1310077   3.951   2.489   6.187  0.1271 -0.0994  0.2248
  101OSM    O1410078   3.842   2.302   6.319 -0.3129 -0.6402 -0.0603
  101OSM    O1110079   3.748   2.351   6.089  0.0116 -0.6062 -0.5469
  101OSM    O1210080   3.719   2.507   6.276  0.7601  0.2551 -0.1146
  101OSM    C1S10081   3.710   2.452   5.989  0.3828  0.0451 -0.7763
  101OSM    H1S10082   3.795   2.524   5.981  0.1008  0.7169  1.5819
  101OSM    H1T10083   3.622   2.511   6.023  1.0457  1.0785 -0.7929
  101OSM     NF10084   3.662   2.510   5.759  0.8245  0.1658 -0.5595
  101OSM    HNF10085   3.572   2.535   5.723  1.7840  1.5078 -2.1604
  101OSM    C2S10086   3.681   2.393   5.847  0.3151  0.5928  0.4411
  101OSM    H2S10087   3.765   2.330   5.812  0.4032  0.9076  0.0891
  101OSM    C3S10088   3.571   2.288   5.852 -0.1827  0.2206  0.2440
  101OSM    H3S10089   3.472   2.338   5.862 -0.8291 -1.0785  0.5627
  101OSM     O310090   3.576   2.205   5.968 -0.5777 -0.8818 -0.2101
  101OSM    HO310091   3.637   2.249   6.029 -2.9532  0.5560  1.2970
  101OSM    C4S10092   3.572   2.208   5.722  0.0249  0.5295 -0.2608
  101OSM    H4S10093   3.633   2.116   5.722 -1.7712 -0.7232  1.2411
  101OSM    C5S10094   3.494   2.241   5.614  0.0364  0.3675  0.0416
  101OSM    H5S10095   3.431   2.330   5.628  0.4289  0.4527  1.3977
  101OSM    C6S10096   3.482   2.159   5.480 -0.5427 -0.0360 -0.2641
  101OSM    H6S10097   3.374   2.136   5.471 -0.7327  1.3415 -1.8216
  101OSM    H6T10098   3.532   2.060   5.483 -0.6009 -0.1792 -2.6863
  101OSM    C7S10099   3.537   2.239   5.366 -0.3653  0.2981  0.1155
  101OSM    H7S10100   3.629   2.290   5.399 -0.1360 -0.3060  0.4272
  101OSM    H7T10101   3.458   2.314   5.341 -0.8008 -0.1606  0.0943
  101OSM    C8S10102   3.556   2.159   5.241 -0.4225 -0.7787  0.1497
  101OSM    H8S10103   3.465   2.099   5.223 -1.6173  1.3678 -1.4726
  101OSM    H8T10104   3.645   2.096   5.261 -0.2139 -1.0776 -1.5255
  101OSM    C9S10105   3.580   2.243   5.110  0.4197 -0.2554  0.0726
  101OSM    H9S10106   3.660   2.317   5.131  0.6980 -0.2949 -0.8119
  101OSM    H9T10107   3.487   2.300   5.091  0.5680 -0.0385  0.0015
  101OSM   C10S10108   3.635   2.170   4.979  0.1122 -0.3030 -0.0847
  101OSM   H10S10109   3.574   2.078   4.968  1.3305 -1.0948 -0.4339
  101OSM   H10T10110   3.742   2.144   4.998 -0.2631 -1.9270  0.0211
  101OSM   C11S10111   3.617   2.244   4.851  0.1368 -0.0055 -0.1674
  101OSM   H11S10112   3.644   2.350   4.873  0.9769 -0.0473 -0.9374
  101OSM   H11T10113   3.511   2.240   4.819  0.0200 -0.0097  0.2124
  101OSM   C12S10114   3.711   2.204   4.737 -0.6232 -0.4918  0.1150
  101OSM   H12S10115   3.702   2.096   4.715  1.4061 -1.1102  1.9315
  101OSM   H12T10116   3.815   2.213   4.777 -1.5032  0.4788  2.3623
  101OSM   C13S10117   3.694   2.299   4.618 -0.4627 -0.1808 -0.3362
  101OSM   H13S10118   3.757   2.389   4.638  1.8076 -1.8511  0.5496
  101OSM   H13T10119   3.587   2.327   4.616 -0.6343 -0.6553  1.0640
  101OSM   C14S10120   3.736   2.235   4.481 -0.3580 -0.2974 -0.1045
  101OSM   H14S10121   3.831   2.178   4.493  1.1400  2.1503  0.6963
  101OSM   H14T10122   3.766   2.321   4.417  1.1243 -1.0523 -0.4792
  101OSM   C15S10123   3.613   2.169   4.419  0.0005 -0.2602 -0.8389
  101OSM   H15S10124   3.535   2.245   4.398  1.7106  2.1741  1.0036
  101OSM   H15T10125   3.567   2.100   4.493 -2.2814  1.1480 -0.8265
  101OSM   C16S10126   3.653   2.090   4.292 -0.1676  0.3717  0.0143
  101OSM   H16S10127   3.731   2.015   4.316 -0.2205 -0.0785 -1.1778
  101OSM   H16T10128   3.705   2.160   4.223 -0.4703 -0.4775 -1.1008
  101OSM   C17S10129   3.536   2.026   4.220 -0.3397 -0.4285 -0.3331
  101OSM   H17S10130   3.450   2.097   4.221  0.2081  0.2471  1.1751
  101OSM   H17T10131   3.506   1.930   4.267 -0.4891 -0.0781  0.3006
  101OSM   C18S10132   3.578   1.990   4.076 -0.4130  0.0270 -0.3300
  101OSM   H18S10133   3.638   1.897   4.080  0.8681  0.8722  1.5219
  101OSM   H18T10134   3.631   2.071   4.021  2.3052 -1.5165 -0.1312
  101OSM   H18U10135   3.487   1.966   4.018  1.3657 -1.8770 -2.5183
  101OSM    C1F10136   3.770   2.583   5.727 -0.0532  0.1656  0.0267
  101OSM     OF10137   3.883   2.559   5.770 -0.0147  0.0817 -0.5476
  101OSM    C2F10138   3.740   2.691   5.625 -0.5058 -0.1559 -0.4545
  101OSM    H2F10139   3.693   2.771   5.686 -0.5458 -0.1616 -0.4775
  101OSM    H2G10140   3.675   2.645   5.548 -1.7202 -0.6062  0.7931
  101OSM    C3F10141   3.872   2.724   5.549  0.6465  0.4959 -0.1410
  101OSM    H3F10142   3.915   2.635   5.498 -1.4913 -0.6418 -0.1002
  101OSM    H3G10143   3.953   2.751   5.619 -0.3410 -1.6055  1.9884
  101OSM    C4F10144   3.850   2.838   5.451  0.1294 -0.5952  0.3981
  101OSM    H4F10145   3.954   2.866   5.426  0.4952 -1.1713  1.2315
  101OSM    H4G10146   3.787   2.920   5.492 -1.1076  0.2423 -2.8951
  101OSM    C5F10147   3.766   2.799   5.326 -0.1892 -0.0131  0.0834
  101OSM    H5F10148   3.661   2.780   5.358 -0.5270  0.2536 -0.8253
  101OSM    H5G10149   3.790   2.705   5.271  2.2258  1.1704 -1.0526
  101OSM    C6F10150   3.754   2.915   5.216  0.1304 -0.2201 -0.3387
  101OSM    H6F10151   3.852   2.925   5.163 -0.4417  0.5681 -1.2849
  101OSM    H6G10152   3.738   3.011   5.268  1.5486  0.6466 -1.4127
  101OSM    C7F10153   3.635   2.884   5.133 -0.6356 -0.3182  0.6247
  101OSM    H7F10154   3.541   2.911   5.186 -0.3284  0.6176  0.7035
  101OSM    H7G10155   3.632   2.779   5.096  0.2581  0.1281 -0.7803
  101OSM    C8F10156   3.638   2.957   4.996 -0.1644 -0.0304 -1.0147
  101OSM    H8F10157   3.631   3.067   5.006  3.2755  0.2572 -0.6269
  101OSM    H8G10158   3.546   2.924   4.942 -2.0740  1.8857  0.8543
  101OSM    C9F10159   3.770   2.926   4.925 -0.0772  0.0973  0.3542
  101OSM    H9F10160   3.853   2.985   4.964 -0.5184  0.3116  0.9875
  101OSM   C10F10161   3.781   2.819   4.838 -0.0516 -1.0411  0.6277
  101OSM   H10F10162   3.877   2.818   4.784  0.5910 -0.8270  1.7130
  101OSM   C11F10163   3.672   2.735   4.790 -0.3355  0.2716 -0.0258
  101OSM   H11F10164   3.582   2.736   4.856  0.2359  1.1724  0.7645
  101OSM   H11G10165   3.709   2.630   4.789  0.5111  0.5641 -1.0513
  101OSM   C12F10166   3.616   2.775   4.647  0.1217  0.5945  0.3388
  101OSM   H12F10167   3.558   2.869   4.661 -0.4481 -0.0796  3.1834
  101OSM   H12G10168   3.544   2.695   4.619 -2.0158  2.6183 -0.2633
  101OSM   C13F10169   3.736   2.771   4.546  0.4810  0.1077  0.8535
  101OSM   H13F10170   3.780   2.669   4.541  0.0845 -0.0020 -1.7393
  101OSM   H13G10171   3.814   2.843   4.578  0.8954  0.5379 -0.9966
  101OSM   C14F10172   3.687   2.803   4.407 -0.4036 -0.2581  0.2012
  101OSM   H14F10173   3.776   2.802   4.340 -0.5801 -1.6379 -0.0495
  101OSM   H14G10174   3.638   2.902   4.400 -1.5636 -0.9152 -1.6444
  101OSM   C15F10175   3.577   2.717   4.346 -0.0558 -0.2018  0.3763
  101OSM   H15F10176   3.490   2.730   4.415  0.5522 -2.6480  1.7350
  101OSM   H15G10177   3.589   2.606   4.338  0.8716  0.0308 -2.3491
  101OSM   C16F10178   3.538   2.769   4.205 -0.1541  0.0821 -0.3067
  101OSM   H16F10179   3.499   2.873   4.215  1.1873  0.3723  3.4712
  101OSM   H16G10180   3.461   2.698   4.169  0.8360 -0.5368 -1.2780
  101OSM   C17F10181   3.659   2.753   4.105 -0.2392  0.1190  0.0662
  101OSM   H17F10182   3.746   2.811   4.142 -0.4179  1.4595 -1.5496
  101OSM   H17G10183   3.635   2.791   4.004  1.0568  2.0558  0.4281
  101OSM   C18F10184   3.716   2.612   4.096  0.3495 -0.1708 -0.0517
  101OSM   H18F10185   3.775   2.589   4.188  2.1501 -1.3233 -1.4351
  101OSM   H18G10186   3.775   2.608   4.002  0.9970  1.6757  0.2240
  101OSM   H18H10187   3.636   2.537   4.110 -1.1713  1.6225  1.6259
  102OSM      N10188   4.772   2.603   6.720 -0.2166  0.1799  0.1291
  102OSM    C1510189   4.769   2.499   6.834  0.4313 -0.1709 -0.6556
  102OSM   H15A10190   4.866   2.479   6.877 -0.9078 -5.0728  0.8039
  102OSM   H15B10191   4.728   2.409   6.790 -1.1890  0.5093 -0.6063
  102OSM   H15C10192   4.704   2.521   6.917 -0.5849 -3.3382 -0.4850
  102OSM    C1410193   4.628   2.629   6.691 -0.1485  0.1780  0.0123
  102OSM   H14A10194   4.571   2.669   6.774  0.5331  0.0765  0.5356
  102OSM   H14B10195   4.591   2.532   6.661  2.0839 -1.2929  1.6667
  102OSM   H14C10196   4.624   2.690   6.601  1.5552 -0.8195 -0.7776
  102OSM    C1310197   4.840   2.729   6.775 -0.3858  0.8673 -0.8000
  102OSM   H13A10198   4.948   2.719   6.774 -0.5638 -2.0238 -0.9366
  102OSM   H13B10199   4.817   2.728   6.881  2.6332 -1.7801  0.0068
  102OSM   H13C10200   4.810   2.816   6.719 -1.1821  0.9967 -0.1973
  102OSM    C1210201   4.845   2.554   6.597  0.0063 -0.4072  0.3035
  102OSM   H12A10202   4.808   2.456   6.570  0.8380 -0.6057 -0.1499
  102OSM   H12B10203   4.943   2.543   6.641 -0.7049  0.9252  2.3576
  102OSM    C1110204   4.856   2.645   6.473 -0.2647  0.1570 -0.3617
  102OSM   H11A10205   4.934   2.597   6.410 -2.4288 -1.3059 -2.0542
  102OSM   H11B10206   4.909   2.737   6.507 -0.6406 -0.5477  2.3113
  102OSM      P10207   4.681   2.802   6.364 -0.4286 -0.1536  0.1145
  102OSM    O1310208   4.547   2.795   6.301 -0.0453  0.2294 -0.0129
  102OSM    O1410209   4.693   2.888   6.482  0.2120 -0.1374  0.0142
  102OSM    O1110210   4.788   2.858   6.256 -0.1886 -0.4668  0.0355
  102OSM    O1210211   4.731   2.658   6.404 -0.2126  0.1286 -0.4694
  102OSM    C1S10212   4.824   2.775   6.150  0.4589  0.2718 -0.1199
  102OSM    H1S10213   4.808   2.666   6.164  1.5810  0.2729  1.4788
  102OSM    H1T10214   4.934   2.776   6.129  0.3294 -2.3483 -1.3524
  102OSM     NF10215   4.790   2.731   5.908 -0.2531  0.1933  0.3996
  102OSM    HNF10216   4.869   2.772   5.861 -0.7976  1.0781  0.2401
  102OSM    C2S10217   4.750   2.814   6.020  0.5436 -0.3407 -0.3043
  102OSM    H2S10218   4.642   2.803   6.042  0.5373  2.1541  1.3202
  102OSM    C3S10219   4.766   2.973   5.990 -0.2185 -0.3842 -0.3000
  102OSM    H3S10220   4.875   2.993   5.977  0.1210 -2.0617 -0.2131
  102OSM     O310221   4.727   3.059   6.094  0.9761 -0.0051 -0.7778
  102OSM    HO310222   4.726   3.008   6.176 -0.6101  2.1775  0.6815
  102OSM    C4S10223   4.710   3.013   5.857  0.0182 -0.5943  0.0986
  102OSM    H4S10224   4.781   3.010   5.773 -0.8620 -0.6404 -0.6622
  102OSM    C5S10225   4.585   3.059   5.840  0.9070 -0.1011 -0.2318
  102OSM    H5S10226   4.514   3.053   5.924  1.8096 -4.1103  0.4459
  102OSM    C6S10227   4.530   3.093   5.708  0.4061 -0.6094  0.3892
  102OSM    H6S10228   4.489   3.196   5.703  1.4265 -0.2415 -1.6016
  102OSM    H6T10229   4.460   3.013   5.677 -1.5520  1.8279 -1.9035
  102OSM    C7S10230   4.631   3.109   5.587 -0.4044 -0.1326  0.2696
  102OSM    H7S10231   4.689   3.015   5.581 -0.0299  0.0924  0.3299
  102OSM    H7T10232   4.714   3.180   5.606 -0.5407 -0.1826  1.1005
  102OSM    C8S10233   4.558   3.133   5.454 -0.3655  0.4252  0.3460
  102OSM    H8S10234   4.513   3.234   5.463 -0.9422  0.2811 -0.6908
  102OSM    H8T10235   4.477   3.060   5.434  1.9144 -1.9853 -0.6786
  102OSM    C9S10236   4.651   3.130   5.331  0.5233 -0.4470 -0.4690
  102OSM    H9S10237   4.703   3.031   5.332  2.3267  0.4591 -0.1493
  102OSM    H9T10238   4.736   3.196   5.358  0.9416 -0.9710 -0.4802
  102OSM   C10S10239   4.580   3.160   5.204  1.0331  0.0407  0.1794
  102OSM   H10S10240   4.534   3.261   5.206 -1.2700 -0.9093 -0.4490
  102OSM   H10T10241   4.491   3.093   5.194  1.5190 -0.6820  0.5936
  102OSM   C11S10242   4.680   3.143   5.085 -0.7264  0.1665  0.2035
  102OSM   H11S10243   4.717   3.040   5.071 -0.9484  0.2495 -1.1147
  102OSM   H11T10244   4.766   3.211   5.101 -0.5175  0.2227 -1.0568
  102OSM   C12S10245   4.607   3.185   4.961 -0.5145 -0.6422  0.1206
  102OSM   H12S10246   4.586   3.294   4.962  1.1612 -0.2946  1.5552
  102OSM   H12T10247   4.515   3.126   4.941 -0.2426 -0.9175 -0.3361
  102OSM   C13S10248   4.702   3.183   4.838  0.1607  0.2277 -0.0414
  102OSM   H13S10249   4.760   3.088   4.842 -1.5436 -0.8452  0.1686
  102OSM   H13T10250   4.774   3.265   4.859  0.9128 -0.8053  1.6679
  102OSM   C14S10251   4.633   3.193   4.701  0.0865 -0.3926  0.1158
  102OSM   H14S10252   4.575   3.288   4.702  0.9561  0.1510  0.1688
  102OSM   H14T10253   4.560   3.109   4.689  0.0850 -0.2585 -0.9262
  102OSM   C15S10254   4.726   3.186   4.581  0.3388  0.8024  0.6224
  102OSM   H15S10255   4.755   3.079   4.586 -1.4518  0.2233 -0.5117
  102OSM   H15T10256   4.811   3.255   4.599  1.1728  1.0532 -3.3890
  102OSM   C16S10257   4.679   3.225   4.441  0.4738  0.6593  0.3093
  102OSM   H16S10258   4.759   3.232   4.364  0.2317  0.9335  0.0760
  102OSM   H16T10259   4.646   3.331   4.441  1.8955  1.1211  0.9577
  102OSM   C17S10260   4.558   3.143   4.405  0.8094  0.1017 -0.3741
  102OSM   H17S10261   4.480   3.129   4.483  0.0277  0.5063 -1.0828
  102OSM   H17T10262   4.584   3.035   4.395  0.3083 -0.1226  0.6231
  102OSM   C18S10263   4.498   3.181   4.267  0.3030 -0.5733  0.2420
  102OSM   H18S10264   4.442   3.277   4.265  0.4818 -0.4059  1.7023
  102OSM   H18T10265   4.430   3.103   4.227 -2.1279  1.1714  0.7208
  102OSM   H18U10266   4.582   3.182   4.195 -0.3409 -3.7601 -0.7102
  102OSM    C1F10267   4.738   2.609   5.891 -0.1446  0.2188 -0.3138
  102OSM     OF10268   4.661   2.564   5.977 -0.3860  0.0948  0.1959
  102OSM    C2F10269   4.774   2.521   5.784  0.0779  0.5990  0.1569
  102OSM    H2F10270   4.823   2.427   5.816 -2.8501 -0.2373  2.6439
  102OSM    H2G10271   4.842   2.580   5.718  1.2704 -1.6354 -0.7291
  102OSM    C3F10272   4.636   2.502   5.703 -0.6875  0.0206  0.3741
  102OSM    H3F10273   4.565   2.452   5.772  0.9735 -3.0084  0.0767
  102OSM    H3G10274   4.653   2.436   5.615 -0.7481  0.9904 -0.3704
  102OSM    C4F10275   4.576   2.628   5.635  0.7714  0.3732 -0.2594
  102OSM    H4F10276   4.651   2.695   5.588 -0.0903  2.6994  1.5057
  102OSM    H4G10277   4.527   2.689   5.714  0.7010  0.3386 -0.2767
  102OSM    C5F10278   4.478   2.601   5.520  0.0995 -0.0803  0.0561
  102OSM    H5F10279   4.389   2.578   5.582  1.2000 -1.1666  1.2853
  102OSM    H5G10280   4.515   2.523   5.450 -1.1440 -0.5600 -0.0885
  102OSM    C6F10281   4.440   2.725   5.439  0.3993 -0.3792 -0.8844
  102OSM    H6F10282   4.508   2.732   5.351 -1.0100 -0.6851 -2.0421
  102OSM    H6G10283   4.460   2.821   5.492  2.0811 -0.0041 -2.0903
  102OSM    C7F10284   4.303   2.710   5.374 -0.0520 -0.1600  0.2067
  102OSM    H7F10285   4.219   2.691   5.444 -0.0496  1.1236  0.5802
  102OSM    H7G10286   4.310   2.614   5.319 -0.5053 -1.0045  1.5718
  102OSM    C8F10287   4.261   2.842   5.300  0.0743 -0.2533  0.3908
  102OSM    H8F10288   4.349   2.892   5.253 -0.5514  2.3587  1.7992
  102OSM    H8G10289   4.217   2.909   5.376  0.3106  0.5148 -0.1373
  102OSM    C9F10290   4.152   2.808   5.197  0.1513  0.3013  0.0907
  102OSM    H9F10291   4.074   2.743   5.239 -0.5096  0.5807 -0.6670
  102OSM   C10F10292   4.144   2.848   5.069 -0.1645  0.2842 -0.1241
  102OSM   H10F10293   4.074   2.806   4.995  2.1804 -0.2657 -2.1496
  102OSM   C11F10294   4.257   2.917   5.004  0.3724  0.0490 -0.6134
  102OSM   H11F10295   4.300   2.848   4.927 -0.1514  0.5810 -1.4006
  102OSM   H11G10296   4.345   2.950   5.062  0.4804 -0.2449 -0.6082
  102OSM   C12F10297   4.216   3.041   4.909 -0.6554  0.7582 -0.6192
  102OSM   H12F10298   4.305   3.090   4.864 -0.6592 -0.5201 -2.1350
  102OSM   H12G10299   4.168   3.125   4.963 -2.7342  0.4523 -1.8423
  102OSM   C13F10300   4.127   3.004   4.789 -0.0294 -0.1498  0.1029
  102OSM   H13F10301   4.023   2.976   4.816 -0.6132  0.0438 -1.8127
  102OSM   H13G10302   4.164   2.910   4.744 -0.0684  0.4149 -1.1311
  102OSM   C14F10303   4.121   3.105   4.672  0.0260  0.1943  0.3329
  102OSM   H14F10304   4.225   3.122   4.636 -0.7867  2.0498 -1.3336
  102OSM   H14G10305   4.087   3.206   4.702 -0.3282  0.1861 -0.0336
  102OSM   C15F10306   4.023   3.064   4.563 -0.2326  0.2828 -0.4933
  102OSM   H15F10307   3.931   3.125   4.571 -0.2013  0.4088 -1.0123
  102OSM   H15G10308   3.994   2.959   4.587  0.4472  0.6269  2.0151
  102OSM   C16F10309   4.072   3.068   4.417 -0.0861 -0.0971 -0.2405
  102OSM   H16F10310   3.996   3.001   4.372  0.4642  0.2061 -1.6806
  102OSM   H16G10311   4.171   3.019   4.407 -0.2069 -0.1396 -1.2707
  102OSM   C17F10312   4.073   3.208   4.352  0.3947  0.2835 -0.7651
  102OSM   H17F10313   4.125   3.213   4.253 -2.2421  4.8860 -2.1868
  102OSM   H17G10314   4.113   3.278   4.428 -0.8177 -1.4556  1.5843
  102OSM   C18F10315   3.933   3.256   4.320  0.1945  0.1237  0.0326
  102OSM   H18F10316   3.939   3.363   4.288 -0.1385  0.1304 -0.0151
  102OSM   H18G10317   3.870   3.236   4.410 -0.4705 -1.2315 -0.7082
  102OSM   H18H10318   3.892   3.202   4.232  2.1211 -3.6339  1.2200
  103OSM      N10319   3.958   4.515   6.268 -0.0187 -0.9505  0.4764
  103OSM    C1510320   4.038   4.626   6.348  0.0361  0.6279  0.4629
  103OSM   H15A10321   4.143   4.627   6.323  0.2282 -0.0776  1.2189
  103OSM   H15B10322   4.033   4.614   6.456  2.9550  2.0998  0.8636
  103OSM   H15C10323   4.004   4.724   6.317  0.9138 -0.0636 -3.0918
  103OSM    C1410324   4.007   4.387   6.318  0.3438 -0.1847  0.0559
  103OSM   H14A10325   3.944   4.318   6.263  2.9420 -1.3044 -1.7298
  103OSM   H14B10326   3.977   4.365   6.419 -1.5176 -0.1075 -0.4419
  103OSM   H14C10327   4.108   4.361   6.292  0.7141  0.8619  0.3998
  103OSM    C1310328   3.812   4.534   6.308  0.4470 -1.0433 -0.0356
  103OSM   H13A10329   3.756   4.457   6.258 -1.0262  0.8494 -1.4424
  103OSM   H13B10330   3.780   4.629   6.268  0.1862 -0.3930  1.6261
  103OSM   H13C10331   3.806   4.526   6.416  1.0308 -1.0255  0.0015
  103OSM    C1210332   3.972   4.541   6.118 -0.1002  0.4217 -0.8996
  103OSM   H12A10333   4.078   4.523   6.106  0.4528  3.1402 -0.6720
  103OSM   H12B10334   3.959   4.638   6.073 -0.9771  0.1340 -1.2994
  103OSM    C1110335   3.878   4.448   6.040  0.1453  0.7467 -0.2473
  103OSM   H11A10336   3.903   4.488   5.940 -1.4848  2.8545  0.0826
  103OSM   H11B10337   3.777   4.489   6.066  0.1589  0.5996  0.0469
  103OSM      P10338   3.764   4.211   6.057 -0.7305  0.1290  0.1644
  103OSM    O1310339   3.796   4.078   6.113 -0.5923  0.2866 -0.2067
  103OSM    O1410340   3.659   4.283   6.121  0.0819 -0.0893  0.2373
  103OSM    O1110341   3.731   4.183   5.909 -0.2672  0.3871  0.0045
  103OSM    O1210342   3.886   4.312   6.065 -0.0226  0.3899  0.4155
  103OSM    C1S10343   3.671   4.278   5.821 -0.2866  0.7723 -0.1766
  103OSM    H1S10344   3.684   4.381   5.862  0.0841  0.1516  1.3065
  103OSM    H1T10345   3.563   4.263   5.799 -0.4383  2.5707 -0.8794
  103OSM     NF10346   3.703   4.389   5.599 -0.4638 -0.1954  1.1454
  103OSM    HNF10347   3.629   4.381   5.533  0.7503  3.2351 -0.9071
  103OSM    C2S10348   3.742   4.274   5.679  0.0927 -0.5160  0.3622
  103OSM    H2S10349   3.845   4.286   5.720  0.2559  3.0103 -0.7369
  103OSM    C3S10350   3.728   4.137   5.599  0.3551 -0.5965 -0.1245
  103OSM    H3S10351   3.620   4.142   5.571  0.5220  2.2899 -0.5565
  103OSM     O310352   3.739   4.021   5.684  0.2890  0.1189  0.2459
  103OSM    HO310353   3.758   4.052   5.773  0.0696 -0.1576  0.3914
  103OSM    C4S10354   3.825   4.146   5.484 -0.1246  0.8023 -0.0526
  103OSM    H4S10355   3.786   4.197   5.395  1.2754  2.5276  0.2701
  103OSM    C5S10356   3.962   4.127   5.484  0.0684  0.1502  0.1899
  103OSM    H5S10357   4.008   4.081   5.573 -1.5052 -2.0672 -0.0526
  103OSM    C6S10358   4.052   4.157   5.359 -0.0349  0.4891  0.0214
  103OSM    H6S10359   3.988   4.204   5.282 -0.5455  1.0689  0.7815
  103OSM    H6T10360   4.086   4.061   5.314 -2.3192 -0.0918 -0.6047
  103OSM    C7S10361   4.167   4.243   5.407 -0.8692 -0.4049  0.3734
  103OSM    H7S10362   4.224   4.194   5.488 -0.5452 -0.5628  0.0540
  103OSM    H7T10363   4.130   4.338   5.451  0.2711 -0.4345  1.4216
  103OSM    C8S10364   4.264   4.292   5.297  0.1566  0.7798  0.6658
  103OSM    H8S10365   4.214   4.284   5.198  0.3952 -0.0978  0.6099
  103OSM    H8T10366   4.354   4.227   5.307 -0.2936 -0.3238 -1.7235
  103OSM    C9S10367   4.312   4.430   5.317 -0.1752  0.5484  0.1885
  103OSM    H9S10368   4.371   4.433   5.411 -1.9575 -0.9844  1.4379
  103OSM    H9T10369   4.237   4.507   5.345 -0.1248 -0.0974  2.3060
  103OSM   C10S10370   4.400   4.464   5.200 -0.7484 -0.3654 -0.6716
  103OSM   H10S10371   4.333   4.490   5.115 -1.9848 -1.0950  0.0524
  103OSM   H10T10372   4.469   4.380   5.177 -1.2518 -0.8017 -0.5949
  103OSM   C11S10373   4.481   4.590   5.226 -0.2424  0.7559 -0.5891
  103OSM   H11S10374   4.571   4.567   5.287  0.0641  2.4355 -0.3375
  103OSM   H11T10375   4.412   4.658   5.282  1.1566  2.3504 -0.7209
  103OSM   C12S10376   4.519   4.671   5.103  0.5244 -0.5700  0.4709
  103OSM   H12S10377   4.588   4.748   5.143  0.3732 -0.2359  0.0983
  103OSM   H12T10378   4.426   4.716   5.063  1.1442  0.0855 -0.2752
  103OSM   C13S10379   4.586   4.604   4.985 -0.3832 -0.5821  0.7849
  103OSM   H13S10380   4.523   4.520   4.949  0.3576 -0.8612  0.1130
  103OSM   H13T10381   4.684   4.566   5.019  0.7024  0.6154 -0.8878
  103OSM   C14S10382   4.614   4.709   4.870 -0.1294  0.0154  0.2915
  103OSM   H14S10383   4.667   4.792   4.922 -0.4822 -1.0424  2.4048
  103OSM   H14T10384   4.528   4.747   4.811  0.7163  1.8466  0.1637
  103OSM   C15S10385   4.699   4.631   4.761  0.1064  0.3287 -0.5421
  103OSM   H15S10386   4.635   4.560   4.704  1.4217 -1.4749  0.1187
  103OSM   H15T10387   4.762   4.565   4.824  1.1663  1.2194 -0.6551
  103OSM   C16S10388   4.790   4.709   4.667 -0.1412  0.1713  0.0474
  103OSM   H16S10389   4.851   4.632   4.616  1.3339  0.7694  0.8371
  103OSM   H16T10390   4.849   4.768   4.741 -0.9985 -0.5035  1.2925
  103OSM   C17S10391   4.725   4.807   4.570 -0.3424 -0.7821  0.2165
  103OSM   H17S10392   4.806   4.871   4.529 -1.5791  0.7527  0.0586
  103OSM   H17T10393   4.648   4.867   4.623 -1.4203 -1.7574 -0.1807
  103OSM   C18S10394   4.662   4.741   4.446 -0.0175  0.7015  0.0606
  103OSM   H18S10395   4.731   4.677   4.386 -1.1050 -0.6597  0.2159
  103OSM   H18T10396   4.621   4.813   4.372  1.5625  2.3447  0.6970
  103OSM   H18U10397   4.584   4.671   4.480  0.3252 -0.2596 -1.0436
  103OSM    C1F10398   3.754   4.507   5.617 -0.3500 -0.2393  0.9594
  103OSM     OF10399   3.822   4.534   5.711  0.9492 -0.2602 -0.3292
  103OSM    C2F10400   3.715   4.614   5.518 -0.6135 -0.0937 -0.2097
  103OSM    H2F10401   3.693   4.708   5.574 -1.9198 -0.4374 -0.1082
  103OSM    H2G10402   3.631   4.574   5.458  1.7835 -2.5559 -2.1635
  103OSM    C3F10403   3.837   4.642   5.423 -0.0004 -0.1334  0.7342
  103OSM    H3F10404   3.917   4.695   5.480  0.7674  0.4432 -0.8080
  103OSM    H3G10405   3.817   4.715   5.342  0.7553 -0.3710  0.3178
  103OSM    C4F10406   3.885   4.514   5.354 -0.3848  0.2021 -0.0428
  103OSM    H4F10407   3.802   4.450   5.319 -1.1067  1.9815 -1.8151
  103OSM    H4G10408   3.955   4.463   5.423 -0.8850  0.7080  0.8505
  103OSM    C5F10409   3.954   4.543   5.216 -0.3180 -0.3058  0.0708
  103OSM    H5F10410   3.972   4.445   5.167 -0.5276 -0.5699  0.5111
  103OSM    H5G10411   4.057   4.583   5.230  0.1044 -1.2688 -0.1746
  103OSM    C6F10412   3.874   4.627   5.116  0.5544 -0.3569  0.9444
  103OSM    H6F10413   3.885   4.732   5.152 -0.5450 -0.1973  0.8619
  103OSM    H6G10414   3.770   4.595   5.140  0.7922 -0.9725  1.1616
  103OSM    C7F10415   3.916   4.615   4.968  0.3456 -0.1674 -0.3990
  103OSM    H7F10416   3.860   4.701   4.925 -2.1110  0.0448  2.8240
  103OSM    H7G10417   3.864   4.523   4.933 -1.0027  0.5189 -0.2603
  103OSM    C8F10418   4.066   4.637   4.946  0.1011  0.5713  0.0139
  103OSM    H8F10419   4.084   4.613   4.839 -2.0053  3.2552 -1.0673
  103OSM    H8G10420   4.114   4.563   5.014  2.2606  3.6936  2.1565
  103OSM    C9F10421   4.109   4.777   4.976 -0.3734 -0.3979 -0.5698
  103OSM    H9F10422   4.099   4.799   5.084  0.8530 -0.3743 -0.4438
  103OSM   C10F10423   4.143   4.883   4.900 -0.0122 -0.2968 -0.4086
  103OSM   H10F10424   4.165   4.984   4.936  3.1487 -1.4024  1.0916
  103OSM   C11F10425   4.166   4.879   4.756 -0.5782 -0.3293  0.1962
  103OSM   H11F10426   4.073   4.883   4.696  0.7482  1.8588 -1.8722
  103OSM   H11G10427   4.229   4.794   4.723 -0.6744 -0.7776  1.1297
  103OSM   C12F10428   4.247   5.000   4.700  0.5168 -0.4030 -0.1078
  103OSM   H12F10429   4.345   5.018   4.748  0.1170 -0.3603  0.7205
  103OSM   H12G10430   4.182   5.085   4.728 -0.3349 -1.4740  1.3238
  103OSM   C13F10431   4.248   4.993   4.546  0.2938  0.3645 -0.0061
  103OSM   H13F10432   4.142   4.997   4.513  0.1227 -0.2688  0.4546
  103OSM   H13G10433   4.298   4.898   4.517 -2.1777 -1.0753  0.1199
  103OSM   C14F10434   4.307   5.122   4.480 -0.0968  1.5281  0.4014
  103OSM   H14F10435   4.413   5.147   4.505 -0.1184  2.2044 -0.1613
  103OSM   H14G10436   4.249   5.212   4.508 -2.4454 -0.0273  0.8596
  103OSM   C15F10437   4.289   5.121   4.326  0.1205 -0.5319 -0.0984
  103OSM   H15F10438   4.179   5.131   4.317 -0.2712 -1.0297  3.0859
  103OSM   H15G10439   4.325   5.034   4.268 -0.6204  0.7307 -2.6265
  103OSM   C16F10440   4.359   5.242   4.266  0.0792 -0.0342  0.2440
  103OSM   H16F10441   4.351   5.335   4.326 -0.7816  0.2731 -0.3317
  103OSM   H16G10442   4.302   5.268   4.174  0.6085 -0.9501 -0.3601
  103OSM   C17F10443   4.512   5.225   4.225 -0.0115  0.7245  0.6689
  103OSM   H17F10444   4.516   5.141   4.152 -0.4742  1.7988 -0.6316
  103OSM   H17G10445   4.568   5.185   4.313  0.3778 -1.4879 -0.4958
  103OSM   C18F10446   4.575   5.346   4.157  0.2666 -0.8498 -0.5121
  103OSM   H18F10447   4.522   5.436   4.194 -1.9851 -2.1463 -0.4119
  103OSM   H18G10448   4.559   5.333   4.048 -1.1537 -1.2228 -0.2857
  103OSM   H18H10449   4.685   5.356   4.173  0.2770  1.3200 -1.5118
  104OSM      N10450   5.108   3.150   6.445 -0.5230  0.3990 -0.1731
  104OSM    C1510451   5.062   3.224   6.559 -0.6249  0.9626 -0.3389
  104OSM   H15A10452   5.057   3.151   6.639 -1.4319  0.9276 -0.4105
  104OSM   H15B10453   4.959   3.256   6.561 -0.2006  2.3138  0.5081
  104OSM   H15C10454   5.118   3.309   6.594  0.7142  0.2823 -0.7538
  104OSM    C1410455   5.244   3.101   6.475 -0.3097 -0.3025 -0.0065
  104OSM   H14A10456   5.232   3.035   6.560 -0.7454 -2.3286 -1.5728
  104OSM   H14B10457   5.310   3.185   6.493 -0.1224 -0.0392 -1.7415
  104OSM   H14C10458   5.272   3.033   6.396  1.0039 -0.1032  0.2739
  104OSM    C1310459   5.030   3.024   6.422 -0.1762 -0.4524  0.2123
  104OSM   H13A10460   4.931   3.051   6.389  0.8049  0.8278 -1.9301
  104OSM   H13B10461   5.022   2.961   6.509 -2.2779  1.5852  1.6282
  104OSM   H13C10462   5.075   2.975   6.337 -1.4147  1.1975 -1.4713
  104OSM    C1210463   5.108   3.244   6.323 -0.2177  0.3227  0.3782
  104OSM   H12A10464   5.187   3.315   6.338 -1.0084  1.1561  0.6871
  104OSM   H12B10465   5.018   3.304   6.325 -0.7820 -0.4245  4.0839
  104OSM    C1110466   5.132   3.173   6.189 -0.3921 -0.1751  0.2756
  104OSM   H11A10467   5.133   3.258   6.117 -0.7704  0.3917  0.9228
  104OSM   H11B10468   5.043   3.117   6.154 -2.0104  3.2412 -1.6514
  104OSM      P10469   5.262   2.951   6.108 -0.0413  0.3161  0.3011
  104OSM    O1310470   5.403   2.937   6.081 -0.4077  0.4245  0.5478
  104OSM    O1410471   5.189   2.860   6.199 -0.1690  0.0055 -0.0734
  104OSM    O1110472   5.176   2.966   5.972  0.1475 -0.3768  0.2789
  104OSM    O1210473   5.257   3.091   6.176  0.6882  0.2803 -0.5605
  104OSM    C1S10474   5.206   3.072   5.874 -0.1795 -0.0870  0.1244
  104OSM    H1S10475   5.309   3.110   5.893 -0.1208  0.7767 -1.7208
  104OSM    H1T10476   5.139   3.160   5.885  0.7242  0.4794  1.4387
  104OSM     NF10477   5.240   3.139   5.651  0.2551  0.1893  0.4663
  104OSM    HNF10478   5.171   3.204   5.621 -1.4546 -1.6514  0.2056
  104OSM    C2S10479   5.200   3.019   5.728  0.7712  0.0554  0.0782
  104OSM    H2S10480   5.267   2.930   5.726  0.6383 -0.0325 -0.9121
  104OSM    C3S10481   5.067   2.959   5.694  0.6383 -0.4459 -0.3522
  104OSM    H3S10482   4.991   3.038   5.711  1.4220  0.2496  0.0158
  104OSM     O310483   5.034   2.851   5.780  0.3491 -0.1392  0.2154
  104OSM    HO310484   5.101   2.854   5.848 -1.5370  0.6928  2.1536
  104OSM    C4S10485   5.059   2.921   5.550  0.3487  0.0745 -0.6384
  104OSM    H4S10486   5.120   2.831   5.532  0.0242 -0.5526  1.2118
  104OSM    C5S10487   4.996   3.002   5.458 -0.3749 -0.1352  0.0988
  104OSM    H5S10488   4.939   3.091   5.490 -1.3320 -1.4023  2.1785
  104OSM    C6S10489   5.005   2.971   5.315 -0.4760  0.0757  0.2413
  104OSM    H6S10490   4.907   2.944   5.269  0.0484  0.6692 -1.2704
  104OSM    H6T10491   5.076   2.888   5.297 -0.8806 -0.0133 -1.0440
  104OSM    C7S10492   5.054   3.090   5.222 -0.4927 -0.0236  0.5355
  104OSM    H7S10493   5.153   3.128   5.256 -0.7019  0.8904  0.1564
  104OSM    H7T10494   4.976   3.169   5.219 -2.6421 -2.0641  0.0073
  104OSM    C8S10495   5.081   3.031   5.081  0.6148  0.1844 -0.2587
  104OSM    H8S10496   4.977   3.030   5.044 -0.5595  1.2780  2.7051
  104OSM    H8T10497   5.128   2.934   5.108  0.8956  0.6874  1.1256
  104OSM    C9S10498   5.169   3.110   4.992 -0.0244 -0.0915 -0.7692
  104OSM    H9S10499   5.264   3.138   5.044 -2.0715  4.0028  1.2135
  104OSM    H9T10500   5.122   3.209   4.978  0.5272  0.3840  0.5318
  104OSM   C10S10501   5.213   3.034   4.868 -0.4424  0.3496  0.6533
  104OSM   H10S10502   5.194   2.926   4.885 -0.9292  0.4859  1.0181
  104OSM   H10T10503   5.319   3.060   4.848 -1.3815  2.9847 -1.6449
  104OSM   C11S10504   5.142   3.090   4.750  0.4180  0.1472  0.3015
  104OSM   H11S10505   5.153   3.201   4.755  0.5780  0.1791 -0.6043
  104OSM   H11T10506   5.038   3.054   4.761  0.8262 -1.3717 -0.5755
  104OSM   C12S10507   5.194   3.051   4.611 -0.3611  0.1079  0.1578
  104OSM   H12S10508   5.238   2.950   4.620  1.2379  0.6362 -1.1669
  104OSM   H12T10509   5.274   3.123   4.581 -1.6218  1.0530 -1.1221
  104OSM   C13S10510   5.088   3.058   4.507 -0.3072 -0.4218  0.0230
  104OSM   H13S10511   5.063   3.161   4.474  0.4149 -0.2849 -0.1021
  104OSM   H13T10512   4.990   3.009   4.529 -0.5577 -0.8936 -1.9040
  104OSM   C14S10513   5.133   2.985   4.383 -0.9644 -0.4098  0.5339
  104OSM   H14S10514   5.135   2.877   4.410 -1.0413 -0.8134 -0.9713
  104OSM   H14T10515   5.237   3.014   4.358 -1.3768  2.9400  2.1476
  104OSM   C15S10516   5.039   3.014   4.259 -0.8786 -0.7045 -0.1440
  104OSM   H15S10517   5.081   2.983   4.160 -1.0768  0.5658 -0.6472
  104OSM   H15T10518   5.016   3.123   4.253 -0.0004 -0.2946  2.6964
  104OSM   C16S10519   4.901   2.942   4.266 -0.8611 -0.3176  0.4511
  104OSM   H16S10520   4.844   2.997   4.344 -0.1336  1.7097 -0.3747
  104OSM   H16T10521   4.925   2.838   4.297  1.1649  0.3131  1.2203
  104OSM   C17S10522   4.833   2.922   4.125  0.2424  0.4122 -0.0601
  104OSM   H17S10523   4.897   2.860   4.058  0.4794  0.5810  0.0085
  104OSM   H17T10524   4.824   3.023   4.080  3.5967  1.0711  0.4500
  104OSM   C18S10525   4.696   2.850   4.130  0.0902 -0.4503 -0.3656
  104OSM   H18S10526   4.642   2.854   4.033 -3.1833  1.7694  1.3646
  104OSM   H18T10527   4.625   2.886   4.207 -1.0243  0.2464 -1.6736
  104OSM   H18U10528   4.708   2.742   4.155 -3.0537 -0.7534  0.3300
  104OSM    C1F10529   5.366   3.186   5.645  0.0689  0.9842  0.1317
  104OSM     OF10530   5.459   3.127   5.701  0.5853  0.1979  0.4606
  104OSM    C2F10531   5.386   3.315   5.570  0.5047 -0.3180  0.6177
  104OSM    H2F10532   5.488   3.357   5.580  0.6533 -0.4431 -0.2620
  104OSM    H2G10533   5.312   3.390   5.603 -0.6616 -0.9981 -0.3588
  104OSM    C3F10534   5.363   3.307   5.423 -0.5937 -0.5348  0.3397
  104OSM    H3F10535   5.258   3.277   5.408 -0.6320 -0.1045 -0.3042
  104OSM    H3G10536   5.422   3.227   5.373 -0.9715 -0.3788 -0.3632
  104OSM    C4F10537   5.390   3.442   5.352 -0.1436  0.0801  0.0311
  104OSM    H4F10538   5.498   3.467   5.346 -0.3700  0.7588 -1.4788
  104OSM    H4G10539   5.352   3.509   5.432  0.4660 -0.0256  0.4196
  104OSM    C5F10540   5.307   3.463   5.216  0.1436 -0.2500 -0.0960
  104OSM    H5F10541   5.198   3.461   5.239  0.1138 -0.0264 -0.2193
  104OSM    H5G10542   5.327   3.379   5.145  2.7774  0.2532 -0.0227
  104OSM    C6F10543   5.341   3.598   5.142 -0.3346  0.5758 -0.5379
  104OSM    H6F10544   5.435   3.593   5.082  0.9690 -0.4926  1.4801
  104OSM    H6G10545   5.356   3.683   5.212  1.8975 -0.2935  0.1405
  104OSM    C7F10546   5.231   3.629   5.044  0.4587 -1.0129 -0.4965
  104OSM    H7F10547   5.141   3.671   5.094  0.5209 -1.2142 -0.2109
  104OSM    H7G10548   5.196   3.538   4.991 -1.1931 -1.1890  0.7936
  104OSM    C8F10549   5.267   3.730   4.933 -0.6680 -0.4573  0.2964
  104OSM    H8F10550   5.345   3.676   4.876 -1.5094 -0.5585 -0.7801
  104OSM    H8G10551   5.318   3.818   4.979  0.6899 -0.5939 -0.8910
  104OSM    C9F10552   5.149   3.768   4.844  0.0393  0.3892 -0.5639
  104OSM    H9F10553   5.071   3.832   4.890 -1.3996 -0.5369 -1.6081
  104OSM   C10F10554   5.135   3.765   4.709  0.2713 -0.6848  0.1899
  104OSM   H10F10555   5.053   3.830   4.678  0.1903  0.3046  2.2719
  104OSM   C11F10556   5.230   3.703   4.609 -0.4511  0.4687  0.3719
  104OSM   H11F10557   5.293   3.620   4.646 -3.1642 -0.8972  2.3300
  104OSM   H11G10558   5.305   3.772   4.564  0.3299 -0.1734  0.6684
  104OSM   C12F10559   5.161   3.654   4.477  0.7085  0.3537 -0.6034
  104OSM   H12F10560   5.141   3.741   4.411 -0.1936  0.0548 -0.7332
  104OSM   H12G10561   5.064   3.610   4.509  1.1557  0.5603  1.1665
  104OSM   C13F10562   5.247   3.550   4.405 -0.4032 -0.6200 -0.4454
  104OSM   H13F10563   5.279   3.465   4.468  1.4704  1.4545  1.5674
  104OSM   H13G10564   5.341   3.599   4.370 -1.5402  2.3205  0.2527
  104OSM   C14F10565   5.171   3.490   4.293  0.0214  0.0126  0.5695
  104OSM   H14F10566   5.116   3.572   4.242  0.4527 -0.0932 -0.0787
  104OSM   H14G10567   5.092   3.420   4.327 -1.2141 -0.2095 -2.4616
  104OSM   C15F10568   5.259   3.421   4.182  0.1392  0.0820 -0.2812
  104OSM   H15F10569   5.337   3.367   4.240  0.3443  1.3942  0.7013
  104OSM   H15G10570   5.327   3.494   4.133 -0.0629  0.3482 -0.1662
  104OSM   C16F10571   5.199   3.320   4.086  0.4338 -0.0328  0.7118
  104OSM   H16F10572   5.113   3.359   4.026 -0.4015 -2.0656  0.5050
  104OSM   H16G10573   5.162   3.232   4.143 -0.6973 -3.2150 -4.2513
  104OSM   C17F10574   5.298   3.271   3.981 -0.3206 -0.6089  0.1460
  104OSM   H17F10575   5.381   3.226   4.041  0.3048  1.5823  1.0245
  104OSM   H17G10576   5.338   3.356   3.923 -1.1201 -0.1608  0.2386
  104OSM   C18F10577   5.236   3.173   3.886 -0.4342  0.1005 -0.3106
  104OSM   H18F10578   5.137   3.212   3.855 -0.9894 -1.4321 -0.5217
  104OSM   H18G10579   5.218   3.070   3.922  0.8270  0.1540  0.5442
  104OSM   H18H10580   5.296   3.173   3.792  0.5788 -1.2652  0.3006
  105OSM      N10581   4.753   4.573   6.606 -0.1956 -0.1415 -0.0197
  105OSM    C1510582   4.689   4.635   6.478 -0.2212 -0.3471  0.1335
  105OSM   H15A10583   4.605   4.692   6.516 -0.9527 -2.3388  1.7299
  105OSM   H15B10584   4.654   4.552   6.419  1.4785 -1.3224  0.4312
  105OSM   H15C10585   4.768   4.685   6.424  0.7230 -1.8173  0.1020
  105OSM    C1410586   4.796   4.697   6.688  0.3386  0.7528  0.4381
  105OSM   H14A10587   4.710   4.759   6.711  1.0479  0.6855  3.8407
  105OSM   H14B10588   4.877   4.751   6.643  1.9911  0.3951  2.7609
  105OSM   H14C10589   4.837   4.667   6.783 -0.2735 -0.0605  0.4578
  105OSM    C1310590   4.643   4.502   6.670 -0.1914  0.0415  0.1532
  105OSM   H13A10591   4.684   4.457   6.759  1.6615 -0.9310 -1.1283
  105OSM   H13B10592   4.597   4.424   6.612 -0.4552  0.1888  0.1615
  105OSM   H13C10593   4.556   4.560   6.698 -0.2809  0.1707 -0.3806
  105OSM    C1210594   4.869   4.489   6.569  0.3346 -0.3621  0.3555
  105OSM   H12A10595   4.912   4.464   6.664  0.2540 -0.4530  0.3673
  105OSM   H12B10596   4.948   4.546   6.522  0.9413 -1.5670 -0.1132
  105OSM    C1110597   4.854   4.357   6.488 -0.1423 -0.0704 -0.3338
  105OSM   H11A10598   4.788   4.289   6.547 -2.5536  1.5310 -1.0456
  105OSM   H11B10599   4.950   4.302   6.490 -0.9111 -1.5109 -1.6119
  105OSM      P10600   4.705   4.265   6.300 -0.0831 -0.4155 -0.3539
  105OSM    O1310601   4.722   4.129   6.358 -0.7192 -0.1603 -0.4761
  105OSM    O1410602   4.581   4.333   6.328  0.1477 -0.4937  0.2797
  105OSM    O1110603   4.727   4.245   6.145 -0.7436  0.3431  0.0447
  105OSM    O1210604   4.809   4.367   6.351  0.0554  1.3939  0.2161
  105OSM    C1S10605   4.791   4.349   6.063 -1.0908 -0.1782  0.0479
  105OSM    H1S10606   4.887   4.384   6.107 -2.3935  0.8544  2.1878
  105OSM    H1T10607   4.737   4.446   6.067 -0.6823  0.1515 -1.5702
  105OSM     NF10608   4.893   4.408   5.850  0.1232  0.2526  0.2093
  105OSM    HNF10609   4.858   4.474   5.784  0.4445  1.1231  0.8744
  105OSM    C2S10610   4.794   4.312   5.910 -0.9437  0.0776 -0.4343
  105OSM    H2S10611   4.832   4.209   5.896 -0.1804  0.3443 -0.3710
  105OSM    C3S10612   4.649   4.303   5.849 -0.3887 -0.9639 -0.3332
  105OSM    H3S10613   4.610   4.406   5.838  0.6163 -0.5775 -0.4546
  105OSM     O310614   4.560   4.232   5.934 -0.8402  0.2644 -0.0559
  105OSM    HO310615   4.615   4.207   6.009  0.1175  0.2703 -0.7327
  105OSM    C4S10616   4.654   4.246   5.711 -0.8244  0.5294  0.8113
  105OSM    H4S10617   4.693   4.143   5.712  0.3303  0.9108 -0.6301
  105OSM    C5S10618   4.625   4.312   5.597 -0.8734  0.0142  0.0638
  105OSM    H5S10619   4.576   4.409   5.610 -2.9758 -0.9698 -0.2022
  105OSM    C6S10620   4.632   4.266   5.454  0.4548  0.0029 -0.0995
  105OSM    H6S10621   4.693   4.338   5.395  0.3649 -0.2931 -0.5574
  105OSM    H6T10622   4.526   4.268   5.421  0.3315  2.4703  0.2474
  105OSM    C7S10623   4.701   4.129   5.432 -0.1479 -0.3143 -0.0821
  105OSM    H7S10624   4.638   4.065   5.497 -1.4198 -0.7286 -1.6659
  105OSM    H7T10625   4.811   4.125   5.447 -0.1448 -0.8820 -0.2584
  105OSM    C8S10626   4.668   4.067   5.288  0.1231 -0.4632 -0.2442
  105OSM    H8S10627   4.558   4.064   5.274  0.1700  0.6085 -0.9258
  105OSM    H8T10628   4.692   3.958   5.293 -0.9292 -0.7737 -1.4869
  105OSM    C9S10629   4.765   4.127   5.180  0.3886  0.4702 -0.0205
  105OSM    H9S10630   4.867   4.131   5.222 -0.3614  1.7600  1.7749
  105OSM    H9T10631   4.742   4.234   5.158  1.6095  0.3747 -1.9817
  105OSM   C10S10632   4.734   4.049   5.049 -0.6177 -0.1867 -0.4972
  105OSM   H10S10633   4.625   4.042   5.029 -0.5132 -0.3809 -0.9987
  105OSM   H10T10634   4.775   3.946   5.064  0.6594  0.3892  0.0849
  105OSM   C11S10635   4.809   4.114   4.934  0.4474 -0.0585 -0.3861
  105OSM   H11S10636   4.916   4.132   4.960  0.2892 -1.2670  1.2561
  105OSM   H11T10637   4.768   4.208   4.891 -0.1661 -0.6653 -1.1800
  105OSM   C12S10638   4.832   4.035   4.800  0.6216  0.1689 -0.3779
  105OSM   H12S10639   4.731   4.021   4.757  0.8958  0.8383 -1.2683
  105OSM   H12T10640   4.871   3.933   4.823 -2.1361 -0.8016  0.3797
  105OSM   C13S10641   4.916   4.113   4.695 -1.0167  0.4102 -0.4208
  105OSM   H13S10642   4.868   4.207   4.659 -1.0479  0.9183  0.8959
  105OSM   H13T10643   4.927   4.043   4.609 -0.6903  0.7619 -0.6663
  105OSM   C14S10644   5.055   4.154   4.742 -0.0716 -0.4591  0.3640
  105OSM   H14S10645   5.111   4.071   4.792 -2.9289 -1.2487  2.5460
  105OSM   H14T10646   5.044   4.230   4.822  1.0922 -0.9356  0.9961
  105OSM   C15S10647   5.153   4.209   4.633 -0.5997  0.0141  0.4537
  105OSM   H15S10648   5.242   4.255   4.681  0.4059 -2.1725  0.8117
  105OSM   H15T10649   5.088   4.287   4.587 -1.0585 -1.2058 -1.0516
  105OSM   C16S10650   5.205   4.099   4.537 -0.0957 -0.6267  0.3946
  105OSM   H16S10651   5.117   4.061   4.481 -1.8613  1.8471  1.3015
  105OSM   H16T10652   5.245   4.011   4.592  0.3036  0.3314  1.6875
  105OSM   C17S10653   5.318   4.141   4.440  0.4269 -0.4195  0.6883
  105OSM   H17S10654   5.390   4.191   4.509  2.5735 -0.7227 -1.2286
  105OSM   H17T10655   5.262   4.212   4.376  0.1197 -0.4241  0.9477
  105OSM   C18S10656   5.388   4.028   4.373 -0.0300  0.0522  0.3943
  105OSM   H18S10657   5.441   3.968   4.451  2.9800 -0.0845 -1.5963
  105OSM   H18T10658   5.474   4.069   4.315  0.6024 -1.9427 -0.1540
  105OSM   H18U10659   5.327   3.968   4.303 -0.4286  0.3522  0.4812
  105OSM    C1F10660   5.026   4.385   5.859 -0.2773 -0.5208  0.0258
  105OSM     OF10661   5.071   4.295   5.931  0.0047  0.2435  0.2354
  105OSM    C2F10662   5.123   4.474   5.777  0.3659  0.2733 -0.5167
  105OSM    H2F10663   5.222   4.424   5.782 -0.9320 -2.4015  2.6254
  105OSM    H2G10664   5.126   4.573   5.828 -1.8469 -0.8673  2.0555
  105OSM    C3F10665   5.087   4.479   5.631  0.4000  0.5136 -0.1835
  105OSM    H3F10666   5.127   4.574   5.589  0.0336  1.5422  1.7069
  105OSM    H3G10667   4.977   4.479   5.617  0.0390 -1.6962  2.1338
  105OSM    C4F10668   5.146   4.364   5.546  0.2204  0.3733  0.2758
  105OSM    H4F10669   5.128   4.270   5.603 -0.6905  0.2338 -0.2175
  105OSM    H4G10670   5.254   4.378   5.524  0.5649 -3.3411 -1.0272
  105OSM    C5F10671   5.065   4.338   5.416  0.0026 -0.6655  0.4910
  105OSM    H5F10672   4.955   4.350   5.431 -0.0601 -0.7754  0.1055
  105OSM    H5G10673   5.084   4.235   5.381 -1.9590 -1.1415  0.6975
  105OSM    C6F10674   5.105   4.440   5.312 -0.7237  0.1829 -0.1082
  105OSM    H6F10675   5.215   4.427   5.297 -0.3158 -1.9210  3.4418
  105OSM    H6G10676   5.097   4.543   5.352 -1.7867 -0.0235  0.2560
  105OSM    C7F10677   5.045   4.419   5.178  0.2415  0.2065  0.0312
  105OSM    H7F10678   4.935   4.436   5.191  0.2248  1.7219 -1.7395
  105OSM    H7G10679   5.062   4.313   5.150  1.5414  0.5221 -0.4083
  105OSM    C8F10680   5.091   4.507   5.062 -0.1999 -0.2652  0.4992
  105OSM    H8F10681   5.076   4.615   5.085 -2.7850  0.0243 -2.0462
  105OSM    H8G10682   5.027   4.486   4.974  1.1496 -4.1456  0.2675
  105OSM    C9F10683   5.233   4.486   5.021  0.0013  0.2714 -0.4976
  105OSM    H9F10684   5.299   4.454   5.102 -1.6138  1.2086  1.2520
  105OSM   C10F10685   5.279   4.497   4.894  0.3471  0.0243 -0.4720
  105OSM   H10F10686   5.386   4.494   4.868  0.4212  1.3051 -0.3888
  105OSM   C11F10687   5.194   4.545   4.781  0.0892 -0.0658 -0.9017
  105OSM   H11F10688   5.156   4.648   4.799  1.3781 -0.1374  3.2209
  105OSM   H11G10689   5.102   4.486   4.761  0.2808 -0.0334 -1.9374
  105OSM   C12F10690   5.255   4.544   4.642  0.1943 -0.5392 -0.2192
  105OSM   H12F10691   5.295   4.450   4.598  1.2996  0.2098 -0.8671
  105OSM   H12G10692   5.342   4.612   4.655  0.4998 -1.0384  0.3693
  105OSM   C13F10693   5.153   4.593   4.543  0.6469 -0.2492 -0.3630
  105OSM   H13F10694   5.105   4.688   4.574 -0.2927 -0.0766 -2.2431
  105OSM   H13G10695   5.071   4.519   4.542  0.2060  0.2218 -2.0515
  105OSM   C14F10696   5.213   4.609   4.403 -1.4864 -0.3963 -0.0769
  105OSM   H14F10697   5.129   4.628   4.332 -0.7072  1.7633 -0.4850
  105OSM   H14G10698   5.265   4.516   4.372  1.7212  0.3889  2.4069
  105OSM   C15F10699   5.307   4.737   4.399  0.1313 -0.3487 -0.9342
  105OSM   H15F10700   5.400   4.703   4.448  0.5556  2.3994  0.3486
  105OSM   H15G10701   5.276   4.818   4.469  0.1389 -0.1582 -1.1486
  105OSM   C16F10702   5.331   4.785   4.257 -0.0104  0.0448 -0.0244
  105OSM   H16F10703   5.227   4.808   4.226 -1.4677  1.2609  4.7953
  105OSM   H16G10704   5.383   4.712   4.192 -0.6992  1.8267 -2.7266
  105OSM   C17F10705   5.413   4.913   4.270  0.3586  0.5478 -0.0801
  105OSM   H17F10706   5.512   4.870   4.299  0.0818  0.7439  1.2158
  105OSM   H17G10707   5.377   4.984   4.348 -1.7214 -0.9922  0.4676
  105OSM   C18F10708   5.425   4.992   4.138 -0.8315 -0.4630 -0.2606
  105OSM   H18F10709   5.335   5.057   4.136 -0.7139 -0.2677  0.3214
  105OSM   H18G10710   5.414   4.921   4.053  0.8526  0.2853 -1.1500
  105OSM   H18H10711   5.513   5.061   4.137 -0.3006 -1.0897  0.6365
  106OSM      N10712   3.736   0.411   6.104 -0.3880 -0.0598  0.0627
  106OSM    C1510713   3.786   0.379   5.967 -0.1857  0.1075 -0.8166
  106OSM   H15A10714   3.731   0.299   5.918 -1.0336 -0.0360  0.3118
  106OSM   H15B10715   3.884   0.335   5.972 -0.9248 -1.5678 -0.4001
  106OSM   H15C10716   3.794   0.468   5.907  1.3789  0.7459  0.2861
  106OSM    C1410717   3.740   0.285   6.181 -0.1650 -0.0128  0.1720
  106OSM   H14A10718   3.659   0.283   6.253 -1.7574 -0.9891 -1.5593
  106OSM   H14B10719   3.835   0.269   6.228 -0.9487 -2.2810  1.1020
  106OSM   H14C10720   3.730   0.205   6.109  0.6046  0.5292 -0.5632
  106OSM    C1310721   3.823   0.515   6.164  0.0167 -0.0707  0.4058
  106OSM   H13A10722   3.929   0.495   6.163  0.1091  0.2994  1.4168
  106OSM   H13B10723   3.791   0.530   6.266 -0.1040  1.0123  0.2179
  106OSM   H13C10724   3.809   0.612   6.119  3.3229  0.3815  0.1223
  106OSM    C1210725   3.593   0.458   6.099  0.8523 -0.3330 -0.0250
  106OSM   H12A10726   3.552   0.502   6.189 -2.7593 -0.1993 -1.5872
  106OSM   H12B10727   3.528   0.373   6.089  0.4946 -0.0530 -0.0818
  106OSM    C1110728   3.547   0.568   5.992 -0.7448  0.4494  0.0205
  106OSM   H11A10729   3.447   0.603   6.027 -0.5611 -1.1415  2.3410
  106OSM   H11B10730   3.535   0.525   5.891  1.8233  0.6711 -0.4458
  106OSM      P10731   3.707   0.726   5.861  0.1635 -0.2138 -0.0761
  106OSM    O1310732   3.799   0.840   5.888  0.0623 -0.0282 -0.0350
  106OSM    O1410733   3.765   0.618   5.778 -0.1910  0.0142  0.0908
  106OSM    O1110734   3.587   0.783   5.783 -0.5318  0.3993 -0.3501
  106OSM    O1210735   3.637   0.675   5.993  0.1209  0.2752  0.1059
  106OSM    C1S10736   3.615   0.882   5.687 -0.4950  0.5199  0.3797
  106OSM    H1S10737   3.724   0.898   5.668 -0.6033  0.0654 -0.7291
  106OSM    H1T10738   3.577   0.984   5.706  4.1362  2.3005  1.3656
  106OSM     NF10739   3.621   0.904   5.444  0.0892 -0.5253 -1.2100
  106OSM    HNF10740   3.586   0.990   5.408  0.1112  0.3010  0.6271
  106OSM    C2S10741   3.554   0.828   5.551  0.6263 -0.1623 -0.4397
  106OSM    H2S10742   3.584   0.721   5.542 -0.7048 -0.4249 -2.4761
  106OSM    C3S10743   3.404   0.830   5.564  0.4094 -0.7123  1.0487
  106OSM    H3S10744   3.385   0.939   5.577  0.8821 -0.2902 -1.3106
  106OSM     O310745   3.342   0.747   5.661 -0.2645  0.2833  0.7140
  106OSM    HO310746   3.413   0.719   5.719  1.9605  2.9583 -0.4366
  106OSM    C4S10747   3.355   0.779   5.429  0.4516 -0.1362 -0.0562
  106OSM    H4S10748   3.425   0.711   5.378  0.0016 -1.8005  1.4406
  106OSM    C5S10749   3.234   0.808   5.374 -0.1676 -0.0456  0.7754
  106OSM    H5S10750   3.172   0.880   5.428 -0.3539  0.1250  0.3319
  106OSM    C6S10751   3.189   0.753   5.242 -0.2280 -0.1527  0.0808
  106OSM    H6S10752   3.134   0.838   5.196 -0.5764  0.3198  1.3382
  106OSM    H6T10753   3.116   0.671   5.256 -2.2370  1.5417 -0.0182
  106OSM    C7S10754   3.293   0.708   5.142 -0.2389  0.1678  0.9062
  106OSM    H7S10755   3.329   0.613   5.187 -0.7702 -0.7111 -0.4449
  106OSM    H7T10756   3.382   0.774   5.136 -0.7533  0.7298 -1.5819
  106OSM    C8S10757   3.250   0.666   5.005 -0.4980  0.2222 -0.1314
  106OSM    H8S10758   3.150   0.620   5.017 -0.2683 -0.6628 -1.4806
  106OSM    H8T10759   3.312   0.582   4.966 -3.1855 -1.7196 -0.4554
  106OSM    C9S10760   3.231   0.781   4.906  0.1017  0.3664  0.0644
  106OSM    H9S10761   3.195   0.869   4.963  1.8459  0.1512  1.6123
  106OSM    H9T10762   3.151   0.752   4.835 -0.5523 -0.1994  1.0085
  106OSM   C10S10763   3.369   0.814   4.842  0.0821  0.0641  0.1522
  106OSM   H10S10764   3.409   0.721   4.796  0.8416 -1.0691  2.8760
  106OSM   H10T10765   3.444   0.860   4.911  2.3510 -0.0654 -2.0685
  106OSM   C11S10766   3.348   0.922   4.726 -0.4463 -0.2345 -0.2386
  106OSM   H11S10767   3.448   0.949   4.687 -0.7223  0.5498 -0.4343
  106OSM   H11T10768   3.312   1.019   4.767  0.4412  0.3532 -0.8135
  106OSM   C12S10769   3.250   0.872   4.620 -0.0315  0.6169  0.2050
  106OSM   H12S10770   3.157   0.844   4.673  0.7543 -2.3184  0.1897
  106OSM   H12T10771   3.284   0.783   4.563  0.7609  2.1051 -1.7660
  106OSM   C13S10772   3.203   0.979   4.516  0.1055 -0.0349  0.6818
  106OSM   H13S10773   3.144   1.052   4.575 -0.0231 -1.0591  1.8605
  106OSM   H13T10774   3.149   0.930   4.432  1.3487  1.2622 -0.9360
  106OSM   C14S10775   3.316   1.054   4.442  0.0633 -0.0156  0.1720
  106OSM   H14S10776   3.373   1.110   4.519 -0.0785  2.3038 -1.2908
  106OSM   H14T10777   3.265   1.134   4.384  0.7772  1.8355  1.9709
  106OSM   C15S10778   3.401   0.963   4.350 -0.3873  0.0722  0.1508
  106OSM   H15S10779   3.338   0.895   4.289  0.7076 -0.5472 -0.3055
  106OSM   H15T10780   3.466   0.900   4.415  1.6379  0.7338 -1.1527
  106OSM   C16S10781   3.495   1.044   4.256 -0.6437 -0.3318 -0.5483
  106OSM   H16S10782   3.437   1.134   4.228  0.4893  0.0429 -1.8048
  106OSM   H16T10783   3.519   0.983   4.166 -3.9705  0.5474 -2.1992
  106OSM   C17S10784   3.621   1.097   4.318 -0.2967 -0.3376 -0.3490
  106OSM   H17S10785   3.585   1.146   4.411  0.5726  1.3660 -0.8665
  106OSM   H17T10786   3.662   1.183   4.261  0.4831 -0.6274 -0.2414
  106OSM   C18S10787   3.739   1.000   4.346 -0.1832  0.0333  0.4243
  106OSM   H18S10788   3.765   0.960   4.245  0.9321  0.0016  0.7047
  106OSM   H18T10789   3.697   0.909   4.394 -1.9197 -0.5801 -2.0642
  106OSM   H18U10790   3.826   1.048   4.396 -0.7279  0.9581  0.5072
  106OSM    C1F10791   3.738   0.873   5.401  0.2783 -0.9909  0.5481
  106OSM     OF10792   3.817   0.792   5.451 -0.0437  0.3616  0.0415
  106OSM    C2F10793   3.780   0.960   5.281 -0.5407 -0.4340  0.0887
  106OSM    H2F10794   3.863   1.031   5.303  0.8993 -0.3532 -4.4984
  106OSM    H2G10795   3.695   1.015   5.236 -1.8016 -1.7866  0.7604
  106OSM    C3F10796   3.838   0.874   5.163  0.4303 -0.3097  0.0399
  106OSM    H3F10797   3.934   0.829   5.194  1.0019  0.1238 -1.0768
  106OSM    H3G10798   3.868   0.941   5.080 -3.3783  0.8455 -0.6012
  106OSM    C4F10799   3.739   0.775   5.111  0.1622 -0.3711  0.6544
  106OSM    H4F10800   3.655   0.845   5.091  0.5658  0.1077  0.5926
  106OSM    H4G10801   3.710   0.708   5.194 -0.3996  1.5085  2.0537
  106OSM    C5F10802   3.774   0.685   4.990 -0.3212  0.6419  0.4302
  106OSM    H5F10803   3.688   0.620   4.964  0.0768 -1.0783  3.1132
  106OSM    H5G10804   3.857   0.614   5.008 -0.1048  0.3609 -1.4499
  106OSM    C6F10805   3.825   0.761   4.871 -0.2013 -0.4608 -0.6337
  106OSM    H6F10806   3.867   0.682   4.805  2.8869 -0.0209  0.6443
  106OSM    H6G10807   3.910   0.827   4.896  0.7839 -0.7632 -3.0008
  106OSM    C7F10808   3.717   0.848   4.796 -0.0198 -0.5263  0.7341
  106OSM    H7F10809   3.666   0.914   4.869  0.8604 -1.5709  2.3704
  106OSM    H7G10810   3.643   0.770   4.766 -1.0554  0.6900  0.0278
  106OSM    C8F10811   3.770   0.934   4.675  0.5998 -0.1024  0.3416
  106OSM    H8F10812   3.677   0.953   4.617 -1.2056 -1.7527  2.4953
  106OSM    H8G10813   3.837   0.869   4.615  0.0879 -1.4862  1.2165
  106OSM    C9F10814   3.849   1.057   4.714  0.6956 -0.0977  0.0559
  106OSM    H9F10815   3.958   1.046   4.723  0.6339 -0.7049  0.0579
  106OSM   C10F10816   3.795   1.184   4.720 -0.6552  0.1686  0.0160
  106OSM   H10F10817   3.849   1.269   4.765 -0.7420  0.3697 -0.2542
  106OSM   C11F10818   3.652   1.222   4.700  0.3865 -0.3559 -0.2354
  106OSM   H11F10819   3.609   1.264   4.794  1.2017 -0.5894  0.2549
  106OSM   H11G10820   3.585   1.135   4.680 -0.2143 -0.4826  2.0497
  106OSM   C12F10821   3.627   1.337   4.594  0.0669  0.5732 -0.2261
  106OSM   H12F10822   3.517   1.349   4.590 -0.2309 -1.7064 -0.3561
  106OSM   H12G10823   3.672   1.316   4.495 -0.6657 -0.8337 -0.2918
  106OSM   C13F10824   3.677   1.470   4.642 -0.1538 -0.2290  0.5858
  106OSM   H13F10825   3.785   1.468   4.665  0.1429 -0.3640 -0.7289
  106OSM   H13G10826   3.624   1.513   4.730 -1.5415 -2.3076  0.8380
  106OSM   C14F10827   3.658   1.567   4.526 -0.2049  1.1742  0.0846
  106OSM   H14F10828   3.642   1.668   4.567 -0.3464  0.4740  1.8339
  106OSM   H14G10829   3.566   1.545   4.468  0.0081  0.6127 -0.0535
  106OSM   C15F10830   3.777   1.580   4.422 -0.1301  0.4291 -0.4501
  106OSM   H15F10831   3.798   1.474   4.393 -0.8930  0.0984  0.1859
  106OSM   H15G10832   3.864   1.622   4.475  0.0474  0.9264 -1.1254
  106OSM   C16F10833   3.741   1.669   4.298 -0.0324  0.2416 -0.5504
  106OSM   H16F10834   3.725   1.776   4.324  0.6887  0.8797 -2.5835
  106OSM   H16G10835   3.640   1.638   4.263 -0.5573  2.9479 -1.6665
  106OSM   C17F10836   3.858   1.676   4.190  0.6921  0.1123  0.0929
  106OSM   H17F10837   3.814   1.750   4.120  1.8518  1.6298  0.9236
  106OSM   H17G10838   3.861   1.574   4.146  0.1663  0.4258 -0.6873
  106OSM   C18F10839   3.987   1.727   4.258 -0.1256  0.0747  0.2131
  106OSM   H18F10840   4.038   1.658   4.328 -0.1643 -0.8309 -0.6260
  106OSM   H18G10841   3.956   1.818   4.314  0.3969  1.3028 -1.3905
  106OSM   H18H10842   4.067   1.760   4.189  0.2122  2.1735  1.5256
  107OSM      N10843   3.458   6.375   6.546 -0.3108  0.0999 -0.1938
  107OSM    C1510844   3.484   6.519   6.531  0.0449 -0.5199 -0.1922
  107OSM   H15A10845   3.463   6.573   6.622  2.9232  0.0546  0.2184
  107OSM   H15B10846   3.422   6.561   6.453 -0.0037 -1.0760 -0.4628
  107OSM   H15C10847   3.588   6.538   6.512  0.3019  0.0912  1.6064
  107OSM    C1410848   3.559   6.313   6.635  0.3623  0.1100 -0.9684
  107OSM   H14A10849   3.562   6.346   6.738 -0.8825 -0.7701 -0.6307
  107OSM   H14B10850   3.657   6.318   6.590  0.8752 -1.4319 -0.0936
  107OSM   H14C10851   3.547   6.206   6.637 -1.5957  0.2942 -1.6366
  107OSM    C1310852   3.320   6.359   6.615 -0.1583  0.0987  0.0706
  107OSM   H13A10853   3.322   6.411   6.709  0.8732 -1.4211  0.9406
  107OSM   H13B10854   3.302   6.254   6.632  1.2173 -0.6685 -2.4822
  107OSM   H13C10855   3.243   6.390   6.546  0.3665  1.5624  0.1135
  107OSM    C1210856   3.468   6.310   6.411  0.1510  0.1379 -0.2783
  107OSM   H12A10857   3.389   6.346   6.345 -1.0103  0.2841  1.1412
  107OSM   H12B10858   3.435   6.209   6.431  1.3729  0.2321  2.6008
  107OSM    C1110859   3.604   6.302   6.331 -0.7899 -0.4176  0.4259
  107OSM   H11A10860   3.652   6.402   6.321  1.8052 -1.4565  1.6018
  107OSM   H11B10861   3.568   6.270   6.231  1.3736  1.1533 -0.9646
  107OSM      P10862   3.701   6.054   6.373  0.1011 -0.6197  0.5646
  107OSM    O1310863   3.831   6.004   6.419  0.2992 -0.1990  0.3919
  107OSM    O1410864   3.582   5.993   6.432 -0.2620 -0.1760 -0.2291
  107OSM    O1110865   3.691   6.038   6.215  0.3795  0.2489 -0.3210
  107OSM    O1210866   3.700   6.212   6.384 -0.7040 -0.3342 -0.6172
  107OSM    C1S10867   3.814   6.049   6.131  0.2075  0.1005 -0.0209
  107OSM    H1S10868   3.892   5.981   6.171 -0.8195 -0.7458  0.6157
  107OSM    H1T10869   3.854   6.152   6.142 -2.6248  1.5057 -1.7030
  107OSM     NF10870   3.903   6.013   5.914  0.3649  0.4096 -0.3424
  107OSM    HNF10871   3.915   6.089   5.851  1.6071  0.7917  0.3329
  107OSM    C2S10872   3.782   6.003   5.987 -0.1338  0.0232  0.3707
  107OSM    H2S10873   3.749   5.897   5.985  0.4650 -0.1580 -0.6692
  107OSM    C3S10874   3.658   6.082   5.922  0.0827 -0.5772  0.3825
  107OSM    H3S10875   3.692   6.186   5.907 -1.3213 -0.4381 -2.8078
  107OSM     O310876   3.545   6.089   5.997 -0.2463 -0.2273  0.5039
  107OSM    HO310877   3.585   6.079   6.083  0.6058 -1.1820  0.0203
  107OSM    C4S10878   3.633   6.036   5.786 -0.5454  0.2531  0.1980
  107OSM    H4S10879   3.676   6.099   5.707  0.5782  0.1395  0.7062
  107OSM    C5S10880   3.561   5.925   5.752  0.3456  0.5480  0.1391
  107OSM    H5S10881   3.519   5.865   5.835  0.5736  1.3923  0.8753
  107OSM    C6S10882   3.538   5.879   5.610 -0.5430  0.3967 -0.5092
  107OSM    H6S10883   3.431   5.880   5.580 -1.4820 -1.7917  2.2764
  107OSM    H6T10884   3.574   5.774   5.615 -2.3375 -0.2052  0.8571
  107OSM    C7S10885   3.624   5.955   5.503  0.0840  0.4343 -0.2650
  107OSM    H7S10886   3.729   5.944   5.536 -1.1113  0.9224  4.5251
  107OSM    H7T10887   3.613   6.065   5.514  0.3421  0.4527 -0.1793
  107OSM    C8S10888   3.587   5.910   5.361  0.0757  0.1620 -0.0450
  107OSM    H8S10889   3.494   5.851   5.374  0.0079  0.1951 -0.3814
  107OSM    H8T10890   3.667   5.851   5.312  0.2175 -0.6115  1.0794
  107OSM    C9S10891   3.549   6.038   5.275  0.2369 -0.9695  0.1151
  107OSM    H9S10892   3.460   6.095   5.310 -1.9772 -1.9236 -3.4375
  107OSM    H9T10893   3.522   5.993   5.177 -0.7017  0.7838 -0.4778
  107OSM   C10S10894   3.658   6.145   5.259 -0.2226  0.3822  0.6171
  107OSM   H10S10895   3.764   6.115   5.272  0.3099  2.3990  1.1308
  107OSM   H10T10896   3.640   6.216   5.342 -3.5364  1.4111 -0.8161
  107OSM   C11S10897   3.640   6.226   5.128  0.9397 -0.2682  0.0369
  107OSM   H11S10898   3.697   6.321   5.133 -1.1088  0.9901  1.0209
  107OSM   H11T10899   3.533   6.257   5.130  1.5295  1.9320 -0.4100
  107OSM   C12S10900   3.680   6.159   4.991 -0.2877  0.2061 -0.0561
  107OSM   H12S10901   3.637   6.056   4.988  1.1288 -0.3957 -2.3719
  107OSM   H12T10902   3.789   6.135   4.982 -0.4534  0.1174 -2.3173
  107OSM   C13S10903   3.627   6.227   4.860 -0.0700  0.3220 -0.0695
  107OSM   H13S10904   3.518   6.208   4.851  0.0092 -0.9172  1.1708
  107OSM   H13T10905   3.670   6.185   4.766 -1.2084 -0.2253 -0.3625
  107OSM   C14S10906   3.641   6.376   4.862 -0.2776  0.0024 -0.1339
  107OSM   H14S10907   3.736   6.399   4.914  0.2926 -0.8898 -0.7576
  107OSM   H14T10908   3.558   6.421   4.921 -0.6171 -0.6271 -0.1233
  107OSM   C15S10909   3.644   6.431   4.715 -0.5505  0.5611 -0.6260
  107OSM   H15S10910   3.541   6.409   4.680 -1.0289  2.1434 -0.2986
  107OSM   H15T10911   3.714   6.364   4.661 -0.3923 -1.4476  1.8647
  107OSM   C16S10912   3.674   6.576   4.702 -0.2983 -0.5035 -0.1975
  107OSM   H16S10913   3.767   6.615   4.748 -0.5197  2.0325 -1.7069
  107OSM   H16T10914   3.599   6.641   4.751 -0.3534 -2.6363  2.8398
  107OSM   C17S10915   3.690   6.613   4.550  0.4362  0.5170  0.1276
  107OSM   H17S10916   3.765   6.547   4.501  0.8820  1.4302 -0.4609
  107OSM   H17T10917   3.721   6.719   4.539  0.5592  0.4362 -0.3571
  107OSM   C18S10918   3.558   6.602   4.466 -0.2119 -0.4712  0.0407
  107OSM   H18S10919   3.541   6.497   4.433  1.2839 -0.3711 -1.2391
  107OSM   H18T10920   3.569   6.670   4.379  1.8073 -1.5522 -0.6309
  107OSM   H18U10921   3.476   6.628   4.535  2.0889  0.1498  2.6969
  107OSM    C1F10922   4.011   5.937   5.942 -0.9721  0.3259 -0.3060
  107OSM     OF10923   3.999   5.827   6.006  0.0631  0.0865  0.4190
  107OSM    C2F10924   4.145   5.978   5.890 -0.0984 -0.2823  0.6268
  107OSM    H2F10925   4.225   6.005   5.963  2.6559 -1.2685 -1.8113
  107OSM    H2G10926   4.137   6.076   5.839 -0.6789 -0.7330 -0.1702
  107OSM    C3F10927   4.190   5.868   5.784  0.5419 -0.1060  0.0446
  107OSM    H3F10928   4.168   5.768   5.827 -1.3039  0.1220 -0.2782
  107OSM    H3G10929   4.300   5.870   5.771  0.5371 -2.2655 -0.6681
  107OSM    C4F10930   4.120   5.889   5.643 -0.5087 -0.3405  0.1069
  107OSM    H4F10931   4.012   5.914   5.648 -0.9858 -2.0191 -1.0329
  107OSM    H4G10932   4.116   5.787   5.598 -0.4705 -0.0096 -0.6521
  107OSM    C5F10933   4.185   5.984   5.544 -0.7763 -0.1533 -0.3870
  107OSM    H5F10934   4.278   5.933   5.512  0.3297  0.5107  1.5987
  107OSM    H5G10935   4.213   6.076   5.600 -1.3084  0.0758 -0.4861
  107OSM    C6F10936   4.101   6.003   5.413  0.2060 -0.4390 -0.4348
  107OSM    H6F10937   3.999   6.037   5.440  0.5101 -0.4472  0.7814
  107OSM    H6G10938   4.094   5.902   5.368 -2.5208  0.3038 -1.9074
  107OSM    C7F10939   4.158   6.098   5.304 -0.0582  0.8935  0.0821
  107OSM    H7F10940   4.242   6.039   5.262  0.6801  1.8596  0.1742
  107OSM    H7G10941   4.214   6.185   5.344 -0.5010  1.0449  0.3809
  107OSM    C8F10942   4.071   6.134   5.184 -0.1645 -0.2993  0.2843
  107OSM    H8F10943   3.972   6.166   5.222 -0.3971  0.1591 -0.6784
  107OSM    H8G10944   4.057   6.036   5.134  0.5124 -0.9280  1.2853
  107OSM    C9F10945   4.142   6.235   5.099  0.6119  0.3421  0.1904
  107OSM    H9F10946   4.195   6.306   5.164  1.6695  1.3583 -1.7159
  107OSM   C10F10947   4.145   6.251   4.963  0.7376  0.7702 -0.3789
  107OSM   H10F10948   4.202   6.334   4.919  0.4468  1.1010 -0.1314
  107OSM   C11F10949   4.071   6.165   4.860  0.3388 -0.3905 -0.0628
  107OSM   H11F10950   4.000   6.113   4.929  0.3712  2.3189  2.1788
  107OSM   H11G10951   4.126   6.080   4.814 -2.2242 -2.1063 -0.1775
  107OSM   C12F10952   3.980   6.245   4.761  0.5113  0.4258 -0.0315
  107OSM   H12F10953   3.946   6.337   4.813 -1.1046 -0.8451  1.2812
  107OSM   H12G10954   3.893   6.184   4.729  1.4470 -0.8643 -0.1910
  107OSM   C13F10955   4.056   6.294   4.645  0.9541  0.3762  0.0230
  107OSM   H13F10956   4.153   6.342   4.670  0.7438 -0.1513  2.0518
  107OSM   H13G10957   4.002   6.385   4.612 -0.4140  0.4257  2.1963
  107OSM   C14F10958   4.062   6.200   4.519  0.4383 -0.0051  0.1547
  107OSM   H14F10959   4.060   6.094   4.552 -2.1110  0.6161  2.3276
  107OSM   H14G10960   4.152   6.229   4.460 -1.2927 -0.0268 -2.6928
  107OSM   C15F10961   3.952   6.226   4.417 -0.4855  0.3068  0.0781
  107OSM   H15F10962   3.940   6.331   4.382 -1.5116  0.0734 -0.3292
  107OSM   H15G10963   3.860   6.194   4.471  1.2791 -3.7991  1.0165
  107OSM   C16F10964   3.970   6.125   4.299 -0.3658 -0.1231 -0.0174
  107OSM   H16F10965   3.871   6.111   4.249  1.5000  0.3175 -4.2492
  107OSM   H16G10966   3.987   6.022   4.337  0.1604  0.0453  0.2075
  107OSM   C17F10967   4.073   6.176   4.197  0.4546 -0.2476  0.0339
  107OSM   H17F10968   4.165   6.187   4.258  0.1613  0.6923  0.3087
  107OSM   H17G10969   4.055   6.282   4.170  0.4393  0.5161  2.7387
  107OSM   C18F10970   4.093   6.081   4.065  0.2665 -0.0457 -0.4613
  107OSM   H18F10971   4.168   6.118   3.992  1.2803 -0.5661  0.2965
  107OSM   H18G10972   3.994   6.075   4.015 -0.0346  0.3592  0.0764
  107OSM   H18H10973   4.114   5.979   4.102 -1.2676 -0.3534 -0.3617
  108OSM      N10974   5.041   1.879   6.685 -0.4233  0.1759 -0.2492
  108OSM    C1510975   4.939   1.970   6.626 -0.1409  0.3666  0.7109
  108OSM   H15A10976   4.873   1.921   6.555  0.1993  1.4719 -0.4082
  108OSM   H15B10977   4.993   2.050   6.578  1.4732 -2.3298 -2.4106
  108OSM   H15C10978   4.877   2.008   6.706 -1.0210  0.6079 -0.0636
  108OSM    C1410979   5.129   1.962   6.780  0.5585  0.4244  0.6300
  108OSM   H14A10980   5.154   2.056   6.732 -3.2461  2.6210  2.4536
  108OSM   H14B10981   5.217   1.906   6.808  0.2939  0.3229  1.2717
  108OSM   H14C10982   5.076   1.983   6.872 -1.4931  1.0556 -0.6244
  108OSM    C1310983   4.990   1.772   6.778  0.1409 -0.1723 -0.6748
  108OSM   H13A10984   5.062   1.698   6.810 -1.7791 -0.8981  2.2847
  108OSM   H13B10985   4.918   1.709   6.727  0.3496  1.1404 -2.7233
  108OSM   H13C10986   4.940   1.823   6.859  1.3702 -0.0530  0.0347
  108OSM    C1210987   5.131   1.826   6.570 -0.5534  0.3048 -0.7916
  108OSM   H12A10988   5.075   1.747   6.522 -1.0152  0.2788 -0.2243
  108OSM   H12B10989   5.217   1.777   6.614 -0.8794  2.3606  2.4515
  108OSM    C1110990   5.176   1.927   6.468 -0.0022 -0.5008 -0.0442
  108OSM   H11A10991   5.097   1.984   6.414  0.3543 -0.1454 -0.1935
  108OSM   H11B10992   5.219   1.860   6.390  2.7146 -1.4164  2.0944
  108OSM      P10993   5.299   2.160   6.522  0.4085 -0.0878 -0.0157
  108OSM    O1310994   5.170   2.233   6.523  0.9829  0.1809  0.7054
  108OSM    O1410995   5.389   2.204   6.629 -0.1460  0.2926 -0.6127
  108OSM    O1110996   5.365   2.180   6.386  0.1633 -0.1412  0.0422
  108OSM    O1210997   5.280   2.011   6.528  0.1857  0.1681 -0.2916
  108OSM    C1S10998   5.487   2.109   6.352  0.8458 -0.0569 -0.9081
  108OSM    H1S10999   5.493   2.010   6.402  0.5633  0.6045  0.4555
  108OSM    H1T11000   5.567   2.178   6.385 -0.4801  0.4445  1.4697
  108OSM     NF11001   5.601   1.982   6.166 -0.1222 -0.3045 -0.4730
  108OSM    HNF11002   5.674   2.019   6.110  0.1156  0.8268  0.5409
  108OSM    C2S11003   5.490   2.069   6.196  0.3858  0.2867  0.0501
  108OSM    H2S11004   5.394   2.022   6.166  1.3150 -0.8796 -1.1507
  108OSM    C3S11005   5.498   2.206   6.120  0.1843 -0.0033 -0.0204
  108OSM    H3S11006   5.589   2.256   6.159  1.1841 -1.2261 -0.7470
  108OSM     O311007   5.381   2.294   6.145 -0.3506 -0.0476  0.4398
  108OSM    HO311008   5.336   2.248   6.216  1.3947 -0.1401  1.5383
  108OSM    C4S11009   5.511   2.170   5.971 -0.5181 -0.2962 -0.8026
  108OSM    H4S11010   5.616   2.159   5.940 -0.4519 -0.3114 -0.5712
  108OSM    C5S11011   5.411   2.154   5.885 -0.2391 -0.8292 -0.1572
  108OSM    H5S11012   5.310   2.176   5.924  0.2050  0.4841  0.3168
  108OSM    C6S11013   5.427   2.107   5.748  0.4794 -0.2974 -0.1806
  108OSM    H6S11014   5.368   2.165   5.674  0.2866 -0.7500 -0.3813
  108OSM    H6T11015   5.392   2.006   5.720  1.2302 -0.6204  0.0308
  108OSM    C7S11016   5.577   2.111   5.697  0.4187  0.3084  0.0182
  108OSM    H7S11017   5.651   2.063   5.765  3.5794  1.5416 -2.3219
  108OSM    H7T11018   5.612   2.217   5.696 -1.4105  0.9654  0.7203
  108OSM    C8S11019   5.597   2.057   5.556  0.2523  0.2716 -0.4098
  108OSM    H8S11020   5.552   1.957   5.535  0.3685  0.2380 -0.4972
  108OSM    H8T11021   5.704   2.028   5.557 -0.0772 -1.1538 -1.7522
  108OSM    C9S11022   5.550   2.146   5.441 -0.6119 -0.2175 -0.1833
  108OSM    H9S11023   5.577   2.252   5.460  2.3319 -0.2831 -3.0872
  108OSM    H9T11024   5.439   2.152   5.442 -0.6198 -0.1358  1.6160
  108OSM   C10S11025   5.619   2.109   5.307  0.0913 -0.7407  0.7441
  108OSM   H10S11026   5.660   2.007   5.318  2.1276 -0.0340  0.0941
  108OSM   H10T11027   5.699   2.183   5.289 -0.5407 -0.5005 -1.4468
  108OSM   C11S11028   5.525   2.134   5.189  0.0034  0.2359 -0.5618
  108OSM   H11S11029   5.454   2.050   5.204  1.0523 -1.0059 -2.2240
  108OSM   H11T11030   5.587   2.104   5.102 -0.1025 -2.5173  0.2311
  108OSM   C12S11031   5.448   2.262   5.181  0.4627 -0.1986  0.0449
  108OSM   H12S11032   5.511   2.346   5.216  2.6913 -1.4517 -0.7887
  108OSM   H12T11033   5.355   2.259   5.242 -1.1594  1.3905 -2.2043
  108OSM   C13S11034   5.390   2.292   5.044 -0.0430 -0.0636  0.2067
  108OSM   H13S11035   5.321   2.208   5.025 -0.1946  0.1347 -0.1240
  108OSM   H13T11036   5.480   2.284   4.979 -0.2874 -1.7046  0.0324
  108OSM   C14S11037   5.311   2.421   5.032 -0.2528 -0.0566  0.5626
  108OSM   H14S11038   5.372   2.496   5.085  1.5187 -0.8569 -0.2369
  108OSM   H14T11039   5.215   2.410   5.086 -0.3633 -0.5831  0.2701
  108OSM   C15S11040   5.306   2.478   4.889  0.4955 -0.3257  0.1829
  108OSM   H15S11041   5.275   2.396   4.822 -2.2303  1.7867 -1.3651
  108OSM   H15T11042   5.406   2.507   4.851  0.2446 -0.6314 -0.7336
  108OSM   C16S11043   5.201   2.585   4.870 -0.1141 -0.0198  0.5815
  108OSM   H16S11044   5.209   2.662   4.950 -1.4144 -0.5851  1.2659
  108OSM   H16T11045   5.104   2.536   4.890 -1.0919  1.3064 -0.6645
  108OSM   C17S11046   5.188   2.650   4.733 -0.6160  0.3731 -0.6095
  108OSM   H17S11047   5.198   2.578   4.649  1.0058  1.7240 -1.6165
  108OSM   H17T11048   5.269   2.725   4.722  1.7488 -1.6296  1.6854
  108OSM   C18S11049   5.053   2.725   4.712 -0.3275  1.0838 -0.2002
  108OSM   H18S11050   5.064   2.775   4.614  0.2939  0.6525 -0.3555
  108OSM   H18T11051   5.030   2.794   4.796  2.6405  1.1043  0.7291
  108OSM   H18U11052   4.970   2.653   4.700  0.3140  0.0681  1.1732
  108OSM    C1F11053   5.605   1.855   6.201  0.7902  0.3442  0.3637
  108OSM     OF11054   5.514   1.807   6.267 -0.1511 -0.0550 -0.8646
  108OSM    C2F11055   5.725   1.775   6.158  0.1951  0.0022 -0.2167
  108OSM    H2F11056   5.779   1.728   6.243 -2.7056 -2.0299  0.6516
  108OSM    H2G11057   5.787   1.845   6.098  0.7447 -0.0021  0.3419
  108OSM    C3F11058   5.685   1.665   6.060  0.2316 -0.2329 -0.6147
  108OSM    H3F11059   5.638   1.699   5.965  2.3975  2.7163 -0.7492
  108OSM    H3G11060   5.601   1.615   6.114 -0.4541  1.4918 -0.0004
  108OSM    C4F11061   5.794   1.561   6.055 -0.3668 -0.2546 -0.5133
  108OSM    H4F11062   5.814   1.534   6.161  0.6129  2.6466  0.1136
  108OSM    H4G11063   5.885   1.590   5.999  0.2565  0.4380  0.8205
  108OSM    C5F11064   5.739   1.441   5.974  0.4732 -0.3121 -0.2542
  108OSM    H5F11065   5.700   1.477   5.877 -1.8741  0.7395  0.9970
  108OSM    H5G11066   5.646   1.403   6.022  0.2186 -1.5899 -1.6715
  108OSM    C6F11067   5.836   1.329   5.944 -0.2354  0.2737 -0.3517
  108OSM    H6F11068   5.778   1.236   5.927 -0.6663  0.4986 -0.1273
  108OSM    H6G11069   5.897   1.300   6.033 -0.6994  1.3706  0.3445
  108OSM    C7F11070   5.929   1.362   5.821 -0.0535 -0.5169 -0.3914
  108OSM    H7F11071   6.008   1.434   5.851  1.1418 -0.5824 -3.0896
  108OSM    H7G11072   5.864   1.425   5.757  0.6705 -0.0503 -0.6713
  108OSM    C8F11073   5.964   1.245   5.723  0.1644 -1.4369 -0.6587
  108OSM    H8F11074   6.029   1.295   5.649  0.8281  1.5645  1.7701
  108OSM    H8G11075   5.873   1.221   5.663 -1.5915  2.2719  0.2024
  108OSM    C9F11076   6.038   1.132   5.787  0.8289 -0.1629 -0.6921
  108OSM    H9F11077   6.129   1.163   5.840  0.6118 -1.6277  0.6172
  108OSM   C10F11078   5.993   1.000   5.795  0.2563 -0.3434 -0.6133
  108OSM   H10F11079   6.059   0.921   5.834 -1.3088 -2.4163 -1.9137
  108OSM   C11F11080   5.866   0.946   5.744 -0.0306  0.5897 -0.6469
  108OSM   H11F11081   5.779   1.014   5.750  0.3871  1.0544  0.7415
  108OSM   H11G11082   5.840   0.855   5.803 -1.0399  0.2916 -1.5394
  108OSM   C12F11083   5.876   0.893   5.600  0.6415 -0.3159  0.2933
  108OSM   H12F11084   5.962   0.824   5.588 -0.0605 -1.4338  1.4146
  108OSM   H12G11085   5.892   0.978   5.530  0.1748  0.2765  0.8857
  108OSM   C13F11086   5.754   0.810   5.546  0.2087 -1.0442  0.1490
  108OSM   H13F11087   5.671   0.884   5.538  1.9473  1.1468  1.3359
  108OSM   H13G11088   5.726   0.731   5.619 -2.4114  0.6147  1.0911
  108OSM   C14F11089   5.776   0.744   5.407 -0.3779 -0.0111 -0.2286
  108OSM   H14F11090   5.696   0.667   5.406 -0.6434 -0.0317  3.7165
  108OSM   H14G11091   5.879   0.701   5.405  0.0858  1.0579  0.1324
  108OSM   C15F11092   5.763   0.852   5.297 -0.2139 -0.5327 -0.1389
  108OSM   H15F11093   5.834   0.935   5.317 -0.9320  0.0143  0.1708
  108OSM   H15G11094   5.666   0.902   5.313 -0.3792 -0.4784 -1.2351
  108OSM   C16F11095   5.770   0.800   5.153 -0.5576 -0.8068 -0.6015
  108OSM   H16F11096   5.674   0.749   5.128 -0.1953 -2.0469  0.4415
  108OSM   H16G11097   5.856   0.733   5.134 -0.4393 -0.3026 -1.9475
  108OSM   C17F11098   5.789   0.912   5.048 -0.6221  0.0688  0.7345
  108OSM   H17F11099   5.883   0.969   5.067 -0.3158 -0.8443  2.1561
  108OSM   H17G11100   5.706   0.985   5.060  2.1027  3.8072 -0.9996
  108OSM   C18F11101   5.786   0.864   4.902 -0.5398  0.2823 -0.0817
  108OSM   H18F11102   5.885   0.828   4.867  1.1235  2.1575  2.3495
  108OSM   H18G11103   5.773   0.955   4.839  0.1374 -0.1586 -0.8740
  108OSM   H18H11104   5.713   0.782   4.884  0.1387 -1.1700  3.0711
  109OSM      N11105   2.794   0.886   6.510 -0.5393 -0.2543 -0.4715
  109OSM    C1511106   2.664   0.913   6.548 -0.2862  0.2596 -0.7700
  109OSM   H15A11107   2.591   0.881   6.476  0.9516  2.1859 -3.0518
  109OSM   H15B11108   2.651   1.020   6.558 -0.9121  0.1688 -0.5752
  109OSM   H15C11109   2.654   0.886   6.652  3.1039  1.3458 -0.0195
  109OSM    C1411110   2.890   0.943   6.607  0.1163 -0.1911  0.2845
  109OSM   H14A11111   2.890   0.880   6.695  0.2035  1.3801  1.4499
  109OSM   H14B11112   2.860   1.041   6.641  1.2123 -0.0505  0.8994
  109OSM   H14C11113   2.988   0.962   6.566 -0.2834  2.6309  0.4506
  109OSM    C1311114   2.816   0.739   6.500 -0.9607  0.3265 -0.1587
  109OSM   H13A11115   2.781   0.687   6.588 -0.0139  0.2161  0.1703
  109OSM   H13B11116   2.922   0.723   6.485 -0.7821  1.4997 -0.2136
  109OSM   H13C11117   2.763   0.703   6.413  0.0132  0.9463 -1.0388
  109OSM    C1211118   2.819   0.950   6.368 -0.1615  0.3005  0.9031
  109OSM   H12A11119   2.912   0.920   6.323 -1.9205  1.9241 -4.6986
  109OSM   H12B11120   2.813   1.058   6.375 -0.8861  0.2487  1.2173
  109OSM    C1111121   2.722   0.918   6.252  0.1083  0.3402 -0.1967
  109OSM   H11A11122   2.747   0.978   6.162  0.2614  1.6831  0.7175
  109OSM   H11B11123   2.622   0.963   6.272  0.2051  0.7791 -0.6734
  109OSM      P11124   2.566   0.718   6.206  0.2442 -0.7290 -0.0013
  109OSM    O1311125   2.577   0.570   6.194  0.1000 -0.3169 -0.0529
  109OSM    O1411126   2.476   0.775   6.312  0.3870 -0.6941  0.3688
  109OSM    O1111127   2.518   0.784   6.076 -0.4240  0.6478 -0.8886
  109OSM    O1211128   2.712   0.774   6.225 -0.5974 -0.5456  0.2383
  109OSM    C1S11129   2.606   0.795   5.965  0.0509 -0.2634  1.0345
  109OSM    H1S11130   2.666   0.703   5.953  2.8008  1.5478 -0.0247
  109OSM    H1T11131   2.669   0.886   5.966 -2.1557  1.4653 -1.3061
  109OSM     NF11132   2.619   0.812   5.718  0.0399  0.0317  0.0784
  109OSM    HNF11133   2.652   0.900   5.684 -1.2289  1.0257  1.3146
  109OSM    C2S11134   2.527   0.812   5.828 -0.3447  0.3450  0.1364
  109OSM    H2S11135   2.466   0.720   5.816  0.2612  0.0527 -0.9146
  109OSM    C3S11136   2.439   0.938   5.842  0.2714  0.5682 -0.1978
  109OSM    H3S11137   2.520   1.013   5.850 -0.4349  1.3712 -0.5051
  109OSM     O311138   2.358   0.951   5.958  0.0322 -0.7273  0.2244
  109OSM    HO311139   2.404   0.895   6.021  0.4985 -2.2043 -1.3431
  109OSM    C4S11140   2.360   0.959   5.720  0.7476 -0.4922  0.2548
  109OSM    H4S11141   2.299   0.873   5.687 -0.5872  0.2104  0.8017
  109OSM    C5S11142   2.353   1.072   5.651 -0.1384  0.2787  0.1649
  109OSM    H5S11143   2.403   1.166   5.679  1.6539 -0.6708  0.3184
  109OSM    C6S11144   2.284   1.066   5.518 -0.3431  0.1897  0.5763
  109OSM    H6S11145   2.299   1.157   5.455  0.4043  0.3115  0.9159
  109OSM    H6T11146   2.178   1.043   5.543 -1.0525  0.2065 -2.1018
  109OSM    C7S11147   2.323   0.958   5.418  0.2964 -0.3222 -0.0593
  109OSM    H7S11148   2.336   0.861   5.471  2.2442 -0.7273 -1.1767
  109OSM    H7T11149   2.423   0.981   5.377  0.6830 -0.5322  0.7306
  109OSM    C8S11150   2.217   0.939   5.305  0.5718 -0.0002 -0.5838
  109OSM    H8S11151   2.222   1.013   5.222 -1.4835  0.6959 -0.1468
  109OSM    H8T11152   2.116   0.958   5.347  0.5292 -0.9653 -0.2276
  109OSM    C9S11153   2.227   0.781   5.260 -0.1697  0.5075  0.2832
  109OSM    H9S11154   2.201   0.714   5.344  0.8119 -2.2217 -1.4534
  109OSM    H9T11155   2.332   0.754   5.234  0.5097  0.5799  2.7177
  109OSM   C10S11156   2.150   0.751   5.135 -0.4923 -0.9673 -0.4270
  109OSM   H10S11157   2.049   0.794   5.146 -0.1609 -0.7500  3.2295
  109OSM   H10T11158   2.142   0.641   5.128 -2.7999 -0.7793 -1.2977
  109OSM   C11S11159   2.234   0.805   5.014 -0.9038  0.1185  0.2057
  109OSM   H11S11160   2.342   0.780   5.021 -0.6565  0.8506 -0.7169
  109OSM   H11T11161   2.233   0.916   5.018 -0.3979  0.2333 -1.8578
  109OSM   C12S11162   2.191   0.761   4.877 -0.2037 -0.1055  0.3614
  109OSM   H12S11163   2.098   0.814   4.847 -0.7952  0.9935  3.6733
  109OSM   H12T11164   2.164   0.654   4.882 -1.6188  0.2233  0.1033
  109OSM   C13S11165   2.306   0.781   4.775  0.5033  0.1167 -0.8324
  109OSM   H13S11166   2.407   0.743   4.799 -0.4481 -1.4277  1.0011
  109OSM   H13T11167   2.306   0.892   4.769 -2.5153  0.1598 -1.7336
  109OSM   C14S11168   2.263   0.742   4.633  0.0384  0.4402 -0.5038
  109OSM   H14S11169   2.246   0.633   4.620 -0.3423  0.5327 -0.7975
  109OSM   H14T11170   2.347   0.772   4.566 -1.0367  1.3434 -1.4750
  109OSM   C15S11171   2.143   0.815   4.586 -0.5540  0.1882 -0.6217
  109OSM   H15S11172   2.146   0.923   4.612  2.5035  0.0511  0.0200
  109OSM   H15T11173   2.050   0.779   4.634 -2.5344  1.4122 -3.2769
  109OSM   C16S11174   2.123   0.804   4.429  0.3030 -0.2707 -0.3345
  109OSM   H16S11175   2.196   0.876   4.387  1.4758  0.0374  2.0667
  109OSM   H16T11176   2.016   0.823   4.404 -0.3353 -1.7955  0.9985
  109OSM   C17S11177   2.132   0.662   4.375  0.1752  0.1481 -0.5947
  109OSM   H17S11178   2.058   0.603   4.434  0.2987 -0.8929 -1.4537
  109OSM   H17T11179   2.233   0.627   4.404  0.1658  0.7038  0.1350
  109OSM   C18S11180   2.114   0.648   4.217 -0.1502  0.1809  0.6707
  109OSM   H18S11181   2.019   0.689   4.177 -0.0548  1.2261  1.4685
  109OSM   H18T11182   2.095   0.540   4.199  0.8227  0.1872 -0.5083
  109OSM   H18U11183   2.193   0.695   4.155 -0.4005  0.3117  0.4495
  109OSM    C1F11184   2.684   0.697   5.672  0.8274 -0.1048  0.8786
  109OSM     OF11185   2.667   0.590   5.740 -0.0937  0.3262 -0.1307
  109OSM    C2F11186   2.759   0.698   5.540  0.3056 -0.3094 -0.4240
  109OSM    H2F11187   2.762   0.597   5.493  0.8699  0.5842 -2.3986
  109OSM    H2G11188   2.862   0.722   5.571 -0.2822  1.3330  0.3797
  109OSM    C3F11189   2.702   0.791   5.430  0.1023  0.1273  0.0516
  109OSM    H3F11190   2.712   0.898   5.460  0.2795 -0.8437  3.9405
  109OSM    H3G11191   2.604   0.761   5.386 -0.6043  2.2905  0.0286
  109OSM    C4F11192   2.802   0.791   5.312  0.3855  0.0654 -0.2384
  109OSM    H4F11193   2.802   0.686   5.278 -1.2927 -1.2579  3.3353
  109OSM    H4G11194   2.900   0.822   5.355  0.5349  0.1251 -0.6153
  109OSM    C5F11195   2.770   0.888   5.202 -0.1329 -0.0494 -0.3048
  109OSM    H5F11196   2.760   0.984   5.257 -0.0376  1.2556 -2.4283
  109OSM    H5G11197   2.671   0.854   5.164 -0.1276 -1.4973  0.8825
  109OSM    C6F11198   2.873   0.908   5.087 -0.5409 -0.0584 -0.2580
  109OSM    H6F11199   2.890   0.806   5.045 -0.0205 -0.0512 -0.0735
  109OSM    H6G11200   2.967   0.950   5.130  0.3153 -0.2059 -1.8595
  109OSM    C7F11201   2.812   0.998   4.986  0.0228 -0.1691 -0.2112
  109OSM    H7F11202   2.802   1.101   5.026 -0.7623 -1.1888  2.3571
  109OSM    H7G11203   2.714   0.960   4.952 -0.0316  0.4645 -0.7939
  109OSM    C8F11204   2.892   1.021   4.859  0.0860 -0.2619  0.1313
  109OSM    H8F11205   2.989   1.070   4.884 -1.2413  2.0590  1.0952
  109OSM    H8G11206   2.853   1.109   4.803  0.2574  0.3529  0.9612
  109OSM    C9F11207   2.884   0.889   4.782 -0.1224  0.3510  0.5972
  109OSM    H9F11208   2.937   0.807   4.831 -2.1314 -2.0762 -1.0624
  109OSM   C10F11209   2.806   0.862   4.675  0.3610  0.3650  0.5169
  109OSM   H10F11210   2.802   0.762   4.630  2.0229  0.6473 -0.3353
  109OSM   C11F11211   2.715   0.961   4.607 -0.5918  0.4408 -0.4396
  109OSM   H11F11212   2.648   1.013   4.679 -0.6619 -0.2438  0.0046
  109OSM   H11G11213   2.639   0.917   4.539  0.0844  0.2925 -1.1108
  109OSM   C12F11214   2.792   1.068   4.527 -0.3346 -0.1998  0.3037
  109OSM   H12F11215   2.874   1.121   4.581 -0.1985 -0.1245  0.0278
  109OSM   H12G11216   2.711   1.142   4.510  1.0513  1.2475 -0.2467
  109OSM   C13F11217   2.851   1.019   4.391 -0.9091 -0.0912 -0.7302
  109OSM   H13F11218   2.759   0.979   4.343 -0.3252 -3.1419  0.4992
  109OSM   H13G11219   2.911   0.927   4.401  0.1149  0.6033 -0.3478
  109OSM   C14F11220   2.919   1.120   4.302 -0.5406 -0.1128  0.0176
  109OSM   H14F11221   3.026   1.136   4.329 -0.9466  0.4504  1.3706
  109OSM   H14G11222   2.867   1.218   4.311  0.0864  0.5078 -2.2553
  109OSM   C15F11223   2.898   1.090   4.152 -0.5429  0.1366 -0.5204
  109OSM   H15F11224   2.927   1.181   4.095  0.8188  0.0767  0.0380
  109OSM   H15G11225   2.789   1.081   4.134 -0.3400 -2.0063 -0.8947
  109OSM   C16F11226   2.981   0.964   4.098  0.1781 -0.3225  0.2019
  109OSM   H16F11227   2.927   0.937   4.005  1.4068 -0.7934 -0.4099
  109OSM   H16G11228   2.971   0.881   4.171 -1.7433 -0.9193 -0.6875
  109OSM   C17F11229   3.128   0.998   4.063 -0.4550 -0.2814  0.1705
  109OSM   H17F11230   3.173   1.055   4.147  1.0563  0.0807 -0.8445
  109OSM   H17G11231   3.133   1.067   3.976  1.5195 -1.3605 -0.6508
  109OSM   C18F11232   3.214   0.871   4.042 -0.2279 -0.4829  0.0183
  109OSM   H18F11233   3.210   0.838   3.936  1.1466  0.7206 -0.4462
  109OSM   H18G11234   3.196   0.784   4.108 -0.2347 -0.7549 -0.3389
  109OSM   H18H11235   3.321   0.899   4.051 -0.8516  1.5840  1.6597
  110OSM      N11236   5.291   4.262   6.281 -0.4108 -0.5141 -1.0329
  110OSM    C1511237   5.295   4.353   6.401 -0.1035 -1.2351  0.1969
  110OSM   H15A11238   5.383   4.415   6.402 -0.7464 -0.2401 -1.1386
  110OSM   H15B11239   5.294   4.291   6.489 -0.5114 -0.4357  0.7674
  110OSM   H15C11240   5.215   4.425   6.395  0.7823 -0.2537 -0.1203
  110OSM    C1411241   5.417   4.188   6.271 -0.8123  0.3292 -0.1456
  110OSM   H14A11242   5.452   4.159   6.369  2.8591  0.7531 -1.2005
  110OSM   H14B11243   5.493   4.259   6.244 -1.9599  0.8292 -2.2798
  110OSM   H14C11244   5.427   4.106   6.201 -0.4253  0.0513  0.2248
  110OSM    C1311245   5.188   4.156   6.283 -0.5220 -0.3916 -0.3446
  110OSM   H13A11246   5.190   4.105   6.188  0.0432  2.2613 -1.8564
  110OSM   H13B11247   5.088   4.187   6.312 -0.4755 -1.2786  0.8396
  110OSM   H13C11248   5.214   4.088   6.363  0.8282  0.5281  0.0235
  110OSM    C1211249   5.266   4.352   6.156 -0.6032 -0.0092 -0.3555
  110OSM   H12A11250   5.175   4.405   6.178  0.2565  0.7144  1.6614
  110OSM   H12B11251   5.256   4.288   6.069 -3.6300 -1.1108  0.6952
  110OSM    C1111252   5.368   4.461   6.122 -0.1804 -1.1055  0.1525
  110OSM   H11A11253   5.359   4.522   6.215 -0.4557  0.7837 -1.0429
  110OSM   H11B11254   5.331   4.526   6.039 -1.2496  0.0260  1.4687
  110OSM      P11255   5.618   4.500   6.160  0.2110 -0.0223  0.4564
  110OSM    O1311256   5.606   4.501   6.307 -0.3355  0.0033  0.5506
  110OSM    O1411257   5.747   4.450   6.099  0.1136 -0.1190 -0.4643
  110OSM    O1111258   5.589   4.644   6.105 -0.0562  0.4979 -0.4182
  110OSM    O1211259   5.503   4.413   6.101  0.1719  0.2010 -0.2806
  110OSM    C1S11260   5.582   4.689   5.969 -0.0458 -0.9084  0.2309
  110OSM    H1S11261   5.525   4.618   5.905  0.1673  1.2787 -2.5866
  110OSM    H1T11262   5.680   4.699   5.920  0.7278  0.1735  1.9129
  110OSM     NF11263   5.488   4.863   5.822  0.1019  0.1665 -0.6205
  110OSM    HNF11264   5.558   4.920   5.780  0.6237 -1.7827 -2.5677
  110OSM    C2S11265   5.504   4.827   5.960  0.7327 -0.3744  0.2416
  110OSM    H2S11266   5.403   4.818   6.006  0.6082 -1.8273 -0.2723
  110OSM    C3S11267   5.575   4.942   6.047  0.5927 -0.0179  0.5718
  110OSM    H3S11268   5.678   4.957   6.008  0.2016 -0.3835 -0.6330
  110OSM     O311269   5.583   4.902   6.183 -0.3874  0.1436 -0.5886
  110OSM    HO311270   5.543   4.815   6.190 -0.5096  0.2957  0.7937
  110OSM    C4S11271   5.491   5.071   6.046  0.2708  0.4876  0.6098
  110OSM    H4S11272   5.393   5.058   6.092  0.3645  0.6269  0.8501
  110OSM    C5S11273   5.530   5.180   5.993  0.0372 -0.9015 -0.2987
  110OSM    H5S11274   5.621   5.188   5.933 -0.9757  0.6452 -1.6997
  110OSM    C6S11275   5.440   5.305   5.982 -0.2490 -0.0100  0.3814
  110OSM    H6S11276   5.496   5.399   5.963  1.0010 -0.7507  0.2991
  110OSM    H6T11277   5.372   5.312   6.070 -1.4092 -0.0706 -0.4895
  110OSM    C7S11278   5.352   5.316   5.853  0.5058  0.4146 -0.1553
  110OSM    H7S11279   5.425   5.331   5.772  1.2481 -1.8686  0.0174
  110OSM    H7T11280   5.279   5.399   5.856  0.3000  0.2111  1.5427
  110OSM    C8S11281   5.277   5.189   5.809  0.2150  0.0674 -0.7563
  110OSM    H8S11282   5.217   5.152   5.895  0.8427  1.3169  0.2648
  110OSM    H8T11283   5.352   5.113   5.778 -1.6427 -1.5792 -1.4022
  110OSM    C9S11284   5.178   5.209   5.693 -0.6053  0.2969  0.1810
  110OSM    H9S11285   5.109   5.285   5.734  2.5704  2.0545  2.8168
  110OSM    H9T11286   5.126   5.113   5.673  0.7041 -0.2784 -0.6233
  110OSM   C10S11287   5.244   5.255   5.567 -0.6599  0.6266 -0.0616
  110OSM   H10S11288   5.321   5.180   5.537 -0.3777  0.5986  0.7316
  110OSM   H10T11289   5.287   5.356   5.578  2.1601 -0.4641 -0.3584
  110OSM   C11S11290   5.147   5.267   5.446 -0.1151  0.5491 -0.4444
  110OSM   H11S11291   5.061   5.323   5.488  1.0961  1.5308  0.7990
  110OSM   H11T11292   5.104   5.165   5.432  1.4197 -0.1172 -0.4406
  110OSM   C12S11293   5.202   5.314   5.312 -0.0137  0.3579 -0.2005
  110OSM   H12S11294   5.281   5.247   5.271  1.0305 -0.0255  2.2892
  110OSM   H12T11295   5.253   5.409   5.338 -2.5697  1.3065  1.7896
  110OSM   C13S11296   5.093   5.334   5.207  0.4691 -0.1625 -0.0930
  110OSM   H13S11297   5.028   5.420   5.236  1.2948  0.4034  0.1163
  110OSM   H13T11298   5.025   5.246   5.204  0.2868 -0.0517 -4.4746
  110OSM   C14S11299   5.137   5.371   5.066 -0.2034  0.4510 -0.4048
  110OSM   H14S11300   5.219   5.445   5.072  1.7492 -1.2711 -3.4055
  110OSM   H14T11301   5.054   5.424   5.013 -0.2243 -0.0562 -0.8920
  110OSM   C15S11302   5.175   5.246   4.982 -0.1692 -0.2635 -0.3407
  110OSM   H15S11303   5.085   5.190   4.949 -3.0366  3.2497  0.7735
  110OSM   H15T11304   5.243   5.181   5.041  1.3263  1.8607  0.3898
  110OSM   C16S11305   5.253   5.282   4.857  0.4004 -1.2233  0.0011
  110OSM   H16S11306   5.284   5.183   4.816  0.0060 -1.1009 -0.6119
  110OSM   H16T11307   5.344   5.339   4.886  0.0848 -1.1769  0.9363
  110OSM   C17S11308   5.171   5.381   4.768  0.2617  0.5336  0.4301
  110OSM   H17S11309   5.168   5.483   4.813 -0.1137 -0.2370  2.2228
  110OSM   H17T11310   5.069   5.338   4.762 -0.1394  1.2712  1.6421
  110OSM   C18S11311   5.229   5.385   4.631 -0.0947  0.1331  0.2788
  110OSM   H18S11312   5.150   5.435   4.570 -0.4456 -0.3427  0.3450
  110OSM   H18T11313   5.244   5.281   4.596  2.1012 -0.3763  2.4667
  110OSM   H18U11314   5.323   5.443   4.622  2.0105 -3.1789 -0.4166
  110OSM    C1F11315   5.403   4.802   5.741 -1.0156 -0.3038 -0.1100
  110OSM     OF11316   5.323   4.726   5.790  0.1312  0.2165 -0.7078
  110OSM    C2F11317   5.414   4.822   5.591  0.0736 -0.5832 -0.2443
  110OSM    H2F11318   5.449   4.719   5.565  0.2549 -0.4869 -0.3834
  110OSM    H2G11319   5.488   4.899   5.560  1.1809 -0.2810  2.8462
  110OSM    C3F11320   5.269   4.843   5.527 -1.1336  0.2233  0.9008
  110OSM    H3F11321   5.230   4.919   5.598  0.9011  0.9182  1.3425
  110OSM    H3G11322   5.208   4.751   5.521  3.0502 -2.7295 -0.9342
  110OSM    C4F11323   5.294   4.902   5.382 -0.3748 -0.2360 -0.7396
  110OSM    H4F11324   5.356   4.993   5.396 -0.7625  0.1301 -1.3619
  110OSM    H4G11325   5.196   4.940   5.345 -0.9806  0.0248  1.0571
  110OSM    C5F11326   5.355   4.804   5.277  0.0258  0.1023 -0.0254
  110OSM    H5F11327   5.272   4.738   5.244 -1.2263 -0.9474  4.4457
  110OSM    H5G11328   5.425   4.731   5.323  0.8875  0.2603 -1.0716
  110OSM    C6F11329   5.424   4.878   5.162  0.1198  0.4041 -0.0251
  110OSM    H6F11330   5.531   4.885   5.192  0.4033 -2.2814 -0.1683
  110OSM    H6G11331   5.385   4.982   5.161  0.9124  0.7266  0.6556
  110OSM    C7F11332   5.426   4.804   5.029  0.3123  0.2505  0.5876
  110OSM    H7F11333   5.323   4.797   4.987  0.4510 -1.7415  0.5220
  110OSM    H7G11334   5.451   4.698   5.050  1.4204  0.5908  1.0396
  110OSM    C8F11335   5.524   4.878   4.929 -0.3039  0.1890 -0.6615
  110OSM    H8F11336   5.620   4.881   4.985  0.3124  1.1949 -1.7222
  110OSM    H8G11337   5.483   4.980   4.918 -0.4674  0.0335 -1.5770
  110OSM    C9F11338   5.556   4.817   4.795  0.4694 -0.3704  0.1455
  110OSM    H9F11339   5.615   4.727   4.816 -0.6997 -1.3473 -0.6277
  110OSM   C10F11340   5.542   4.867   4.669 -0.5727 -0.5053 -0.3387
  110OSM   H10F11341   5.590   4.820   4.581  0.9949  0.3091  0.0558
  110OSM   C11F11342   5.474   4.999   4.639  0.1246 -0.0972 -0.4025
  110OSM   H11F11343   5.418   5.029   4.730  2.8333 -0.3304  1.4687
  110OSM   H11G11344   5.402   4.991   4.554 -0.9656  1.1090  0.3658
  110OSM   C12F11345   5.584   5.103   4.609 -0.1317  0.7202 -0.5230
  110OSM   H12F11346   5.674   5.073   4.667 -0.6504 -2.2157 -1.0960
  110OSM   H12G11347   5.568   5.207   4.644  0.9926  0.6080  0.4213
  110OSM   C13F11348   5.644   5.110   4.468  0.2277 -0.3983  0.3846
  110OSM   H13F11349   5.566   5.101   4.390  0.0548 -0.3713  0.5517
  110OSM   H13G11350   5.723   5.034   4.450 -0.0859 -0.8042  0.7042
  110OSM   C14F11351   5.716   5.248   4.454  0.1522  0.1389 -0.3730
  110OSM   H14F11352   5.786   5.253   4.540  0.2050 -0.7119 -0.3543
  110OSM   H14G11353   5.639   5.327   4.467  0.5256  0.4188  0.1780
  110OSM   C15F11354   5.803   5.279   4.323  1.0265 -0.5549  0.7917
  110OSM   H15F11355   5.857   5.184   4.304 -0.2718 -1.2191  0.3174
  110OSM   H15G11356   5.872   5.362   4.349  0.0484  0.0617  1.4924
  110OSM   C16F11357   5.718   5.322   4.202 -0.2413  0.1678 -0.4028
  110OSM   H16F11358   5.669   5.420   4.220 -1.8448 -0.7775  0.6581
  110OSM   H16G11359   5.635   5.247   4.200 -0.7072  0.5738  1.4541
  110OSM   C17F11360   5.808   5.328   4.085  0.2661 -0.1668  0.0110
  110OSM   H17F11361   5.852   5.226   4.081 -1.8738 -1.1315 -0.6164
  110OSM   H17G11362   5.884   5.407   4.100 -1.1045  1.8219 -2.6178
  110OSM   C18F11363   5.744   5.358   3.952  0.4950  0.0716  0.5492
  110OSM   H18F11364   5.711   5.463   3.935  0.5383  0.1882  1.1569
  110OSM   H18G11365   5.655   5.295   3.928  0.6161 -0.1775  0.7372
  110OSM   H18H11366   5.815   5.343   3.869  2.4276  2.3189  1.7001
  111OSM      N11367   0.765   4.474   6.731 -0.4411 -0.4393 -0.3721
  111OSM    C1511368   0.781   4.329   6.703 -0.1686  0.6480  0.0068
  111OSM   H15A11369   0.883   4.295   6.705 -0.3004 -0.3245 -3.5079
  111OSM   H15B11370   0.744   4.292   6.609 -0.7730 -1.3390  0.9697
  111OSM   H15C11371   0.733   4.275   6.784 -0.3357  1.7158  0.6374
  111OSM    C1411372   0.620   4.502   6.703  0.7181 -0.2375  0.1466
  111OSM   H14A11373   0.584   4.592   6.751  0.2342  0.6447 -1.7967
  111OSM   H14B11374   0.556   4.427   6.748 -1.3034  0.2725 -1.7273
  111OSM   H14C11375   0.596   4.514   6.599  1.8144  0.7006 -0.0166
  111OSM    C1311376   0.789   4.483   6.878  0.4941  0.6496  0.1173
  111OSM   H13A11377   0.886   4.442   6.903 -0.0979 -0.2737  0.9650
  111OSM   H13B11378   0.703   4.441   6.929  0.3147  1.4399  0.4741
  111OSM   H13C11379   0.786   4.585   6.912  0.3847  0.6376  0.1464
  111OSM    C1211380   0.863   4.559   6.651  0.1408  0.3396 -0.3448
  111OSM   H12A11381   0.960   4.558   6.700 -0.5348 -0.0900  1.0251
  111OSM   H12B11382   0.834   4.660   6.671  2.6307  1.2578 -0.9074
  111OSM    C1111383   0.871   4.534   6.497 -0.0747 -0.4862 -0.1026
  111OSM   H11A11384   0.915   4.625   6.450 -1.2704 -0.1890 -0.6932
  111OSM   H11B11385   0.769   4.505   6.464 -0.5732 -1.6200  2.2264
  111OSM      P11386   0.922   4.298   6.391 -0.1994  0.2090 -0.0869
  111OSM    O1311387   1.033   4.196   6.390  0.1879  0.2004  0.1369
  111OSM    O1411388   0.783   4.256   6.412  0.7101 -0.2573  0.1204
  111OSM    O1111389   0.920   4.367   6.245  0.0775 -0.2911 -0.5933
  111OSM    O1211390   0.958   4.417   6.485  0.1343 -0.3917  0.4318
  111OSM    C1S11391   1.035   4.452   6.205 -0.7626 -0.1076 -0.6760
  111OSM    H1S11392   1.123   4.389   6.229 -0.8850 -0.3250 -0.7948
  111OSM    H1T11393   1.035   4.543   6.269  1.1192 -0.6704  0.1777
  111OSM     NF11394   1.158   4.548   6.029 -0.7327 -0.3886  0.8420
  111OSM    HNF11395   1.152   4.647   6.025  2.0012 -0.1579  0.8755
  111OSM    C2S11396   1.035   4.477   6.057  0.0370 -0.4575  0.6808
  111OSM    H2S11397   1.032   4.378   6.006  1.3668  0.7720 -2.0342
  111OSM    C3S11398   0.903   4.548   6.023  0.1197  0.1803 -0.4110
  111OSM    H3S11399   0.912   4.645   6.078  0.4136  0.7251 -1.3981
  111OSM     O311400   0.783   4.473   6.061  0.1108 -0.3410 -0.8793
  111OSM    HO311401   0.816   4.424   6.136 -0.4010  1.2099  0.4052
  111OSM    C4S11402   0.894   4.583   5.879 -0.3575 -0.3918 -0.4075
  111OSM    H4S11403   0.957   4.670   5.858  1.0097 -1.3440 -0.3958
  111OSM    C5S11404   0.839   4.514   5.778 -0.4670  0.4632  0.2889
  111OSM    H5S11405   0.815   4.407   5.785  0.7459  0.2050  0.7280
  111OSM    C6S11406   0.851   4.572   5.641  0.4072  0.4908  0.9351
  111OSM    H6S11407   0.929   4.510   5.592  0.4103 -0.4249  2.0566
  111OSM    H6T11408   0.893   4.675   5.652  1.4140  0.1328  0.4993
  111OSM    C7S11409   0.718   4.580   5.566  0.1770  0.5383 -0.1569
  111OSM    H7S11410   0.648   4.653   5.613  2.1729  1.9751  0.6902
  111OSM    H7T11411   0.671   4.479   5.569  0.0761  0.5604 -0.9765
  111OSM    C8S11412   0.740   4.632   5.422 -0.4043 -0.3546  0.0219
  111OSM    H8S11413   0.821   4.573   5.374 -1.2262  0.4928 -2.6319
  111OSM    H8T11414   0.778   4.737   5.420 -1.1208 -0.0508  1.4742
  111OSM    C9S11415   0.610   4.610   5.346  0.5325  0.1630 -0.4075
  111OSM    H9S11416   0.529   4.682   5.368 -0.1581 -0.8938  0.5744
  111OSM    H9T11417   0.564   4.514   5.377 -1.9619  1.4437  0.1324
  111OSM   C10S11418   0.623   4.629   5.193 -0.5393 -0.6654  0.1507
  111OSM   H10S11419   0.519   4.615   5.158 -0.5569  1.2045 -0.6611
  111OSM   H10T11420   0.702   4.559   5.157  1.5684  0.4010  2.3721
  111OSM   C11S11421   0.650   4.770   5.151  0.1654 -0.2613  0.0691
  111OSM   H11S11422   0.751   4.794   5.190  0.8011 -1.9273 -0.4580
  111OSM   H11T11423   0.569   4.834   5.193 -1.0577 -1.3591 -0.5240
  111OSM   C12S11424   0.650   4.789   5.001  0.0526 -0.1018  0.3170
  111OSM   H12S11425   0.723   4.717   4.959 -0.9808 -1.6617  1.1179
  111OSM   H12T11426   0.688   4.893   4.991 -1.3006  0.5415  1.5085
  111OSM   C13S11427   0.511   4.781   4.947  0.2080  0.4290  0.1246
  111OSM   H13S11428   0.442   4.846   5.004 -1.4985  0.4225 -1.8126
  111OSM   H13T11429   0.470   4.681   4.974 -2.2005  2.2877  4.1979
  111OSM   C14S11430   0.505   4.818   4.797 -0.3322 -0.3115  0.7680
  111OSM   H14S11431   0.561   4.738   4.743  0.0253  0.4222  0.0289
  111OSM   H14T11432   0.553   4.917   4.782 -0.8578 -0.2994 -1.0878
  111OSM   C15S11433   0.357   4.833   4.765 -1.0744 -0.5267  0.2949
  111OSM   H15S11434   0.311   4.908   4.833 -0.1279  0.9330 -0.6278
  111OSM   H15T11435   0.314   4.732   4.785  1.1012 -1.9705 -1.7441
  111OSM   C16S11436   0.353   4.870   4.611 -0.2496 -0.0023 -0.3926
  111OSM   H16S11437   0.258   4.825   4.574  0.9829 -1.7372 -1.6577
  111OSM   H16T11438   0.442   4.822   4.565  1.8626  2.9974  0.2982
  111OSM   C17S11439   0.341   5.017   4.579  0.5825  0.4984 -0.3483
  111OSM   H17S11440   0.436   5.061   4.617  0.5333  0.1013  0.2368
  111OSM   H17T11441   0.254   5.063   4.631  0.0741 -1.1182  0.2719
  111OSM   C18S11442   0.338   5.048   4.435 -0.2025  0.4439 -0.3654
  111OSM   H18S11443   0.235   5.032   4.397 -0.2700 -1.4796  0.5107
  111OSM   H18T11444   0.404   4.979   4.379  1.1099  0.6075  0.9286
  111OSM   H18U11445   0.380   5.149   4.417 -1.0083  0.4728 -2.3507
  111OSM    C1F11446   1.283   4.493   6.032 -0.6127 -0.0842 -1.4062
  111OSM     OF11447   1.291   4.378   6.051  0.2990 -0.0279 -0.2998
  111OSM    C2F11448   1.402   4.586   6.018 -0.2904  0.3447  1.1883
  111OSM    H2F11449   1.437   4.609   6.121  0.8439  0.5930  0.7647
  111OSM    H2G11450   1.363   4.676   5.965  1.3983  0.4865  0.1083
  111OSM    C3F11451   1.502   4.507   5.924  0.3185 -0.7940  0.1834
  111OSM    H3F11452   1.540   4.414   5.971 -3.7507 -2.4174  0.7099
  111OSM    H3G11453   1.596   4.565   5.908  0.0698 -0.3476  0.3272
  111OSM    C4F11454   1.430   4.470   5.795  0.3686  0.7525 -0.2490
  111OSM    H4F11455   1.360   4.384   5.808 -0.2048  1.4428  1.4426
  111OSM    H4G11456   1.513   4.443   5.726  0.3013 -0.5802  0.1576
  111OSM    C5F11457   1.353   4.586   5.714 -0.2693  0.2819 -0.5238
  111OSM    H5F11458   1.435   4.655   5.686  0.0670  0.6540  1.2590
  111OSM    H5G11459   1.280   4.646   5.772 -2.0323 -0.9044 -1.4202
  111OSM    C6F11460   1.286   4.518   5.598 -0.1294  0.0616 -0.1003
  111OSM    H6F11461   1.229   4.424   5.608 -1.2525  0.6991 -0.3845
  111OSM    H6G11462   1.372   4.487   5.535  0.1545  0.2495  0.1856
  111OSM    C7F11463   1.208   4.619   5.516 -0.1188  0.1148 -0.9411
  111OSM    H7F11464   1.283   4.698   5.499 -0.6624  0.7230 -0.5425
  111OSM    H7G11465   1.134   4.661   5.587  2.7249  0.3242  2.1740
  111OSM    C8F11466   1.146   4.557   5.387 -0.5126  0.3465  0.2187
  111OSM    H8F11467   1.088   4.640   5.342 -0.9454 -1.2739 -2.4068
  111OSM    H8G11468   1.082   4.472   5.419 -2.8258  0.6834 -3.0310
  111OSM    C9F11469   1.245   4.503   5.285  0.1980 -0.2006  1.1168
  111OSM    H9F11470   1.350   4.500   5.320  0.2564 -0.0634  0.9543
  111OSM   C10F11471   1.222   4.492   5.148 -0.4472 -0.3644  0.5583
  111OSM   H10F11472   1.299   4.436   5.092 -0.5889 -0.9577  0.9479
  111OSM   C11F11473   1.084   4.490   5.091  0.0540 -0.1060  0.2742
  111OSM   H11F11474   1.015   4.465   5.175 -0.8197 -2.4130 -1.0244
  111OSM   H11G11475   1.080   4.398   5.029  0.6283 -0.2258  0.4125
  111OSM   C12F11476   1.026   4.609   5.012 -0.7635 -0.0387  0.3015
  111OSM   H12F11477   1.057   4.707   5.054 -0.7215 -0.3938  1.1215
  111OSM   H12G11478   0.916   4.617   5.024 -0.6169  1.5660  0.6891
  111OSM   C13F11479   1.061   4.610   4.868  0.0188  0.1215  0.7136
  111OSM   H13F11480   1.170   4.600   4.853  0.0451  0.1872  0.8523
  111OSM   H13G11481   1.030   4.710   4.831  0.3423 -0.5479 -1.4957
  111OSM   C14F11482   0.987   4.510   4.786 -0.4783  0.5825  0.9733
  111OSM   H14F11483   0.883   4.492   4.819 -1.9325  3.3368 -1.5787
  111OSM   H14G11484   1.039   4.412   4.787 -1.1344  0.0537 -2.5560
  111OSM   C15F11485   0.979   4.552   4.633 -0.1272  0.7716 -0.0274
  111OSM   H15F11486   1.077   4.560   4.580  0.1701 -1.6548  0.0329
  111OSM   H15G11487   0.921   4.645   4.619 -1.8190 -0.3036 -0.5402
  111OSM   C16F11488   0.905   4.444   4.560  0.0500  0.3797  0.8904
  111OSM   H16F11489   0.812   4.428   4.618  1.1021 -0.4363  2.4013
  111OSM   H16G11490   0.960   4.349   4.550  2.1456  1.5415  0.7830
  111OSM   C17F11491   0.863   4.485   4.417 -0.0071 -0.1931  0.7410
  111OSM   H17F11492   0.953   4.519   4.361 -0.5612 -1.0615 -0.7401
  111OSM   H17G11493   0.795   4.573   4.424  2.3017  1.6129  1.6292
  111OSM   C18F11494   0.798   4.372   4.342 -0.2466  0.0037  0.0430
  111OSM   H18F11495   0.876   4.295   4.319  0.4308 -0.3521  3.0358
  111OSM   H18G11496   0.745   4.401   4.249  1.1212 -2.6318 -1.7059
  111OSM   H18H11497   0.723   4.325   4.409 -0.4829 -0.0356 -0.2484
  112OSM      N11498   4.782   0.559   6.419  0.1170  0.0235  0.2765
  112OSM    C1511499   4.774   0.434   6.502  0.2390  1.2296  0.4526
  112OSM   H15A11500   4.807   0.447   6.605 -1.1836 -0.0376  1.0988
  112OSM   H15B11501   4.837   0.354   6.467 -1.7430 -0.8334  1.3466
  112OSM   H15C11502   4.672   0.399   6.500  0.3484  0.9185 -1.3764
  112OSM    C1411503   4.652   0.632   6.425  0.8922  0.5768  0.1395
  112OSM   H14A11504   4.649   0.700   6.340 -2.1120  0.2632 -0.1176
  112OSM   H14B11505   4.640   0.688   6.516  0.2105 -1.3015  1.2520
  112OSM   H14C11506   4.563   0.571   6.423 -0.0604  1.8046  2.0931
  112OSM    C1311507   4.875   0.648   6.498 -0.5472  0.8243 -0.5261
  112OSM   H13A11508   4.977   0.613   6.491 -0.3569  1.1901  0.2645
  112OSM   H13B11509   4.847   0.668   6.601 -1.0778  1.6929 -0.8311
  112OSM   H13C11510   4.884   0.746   6.454  1.5215  1.6477  1.4834
  112OSM    C1211511   4.840   0.538   6.279  0.4979 -0.4866 -1.4097
  112OSM   H12A11512   4.778   0.472   6.220 -0.6186 -2.1610  1.4647
  112OSM   H12B11513   4.941   0.502   6.289  0.7983  0.6975  0.3210
  112OSM    C1111514   4.846   0.663   6.186  0.1381 -0.3002  0.4282
  112OSM   H11A11515   4.905   0.639   6.094 -0.5131  3.9923 -1.3323
  112OSM   H11B11516   4.906   0.741   6.237 -0.8771  1.5039 -1.0050
  112OSM      P11517   4.659   0.840   6.115  0.4964  0.3919  0.1350
  112OSM    O1311518   4.514   0.841   6.150  0.1344 -0.2202 -0.0898
  112OSM    O1411519   4.742   0.943   6.177  0.6522  0.2894 -0.4861
  112OSM    O1111520   4.679   0.867   5.957 -0.1139  0.1535  0.3985
  112OSM    O1211521   4.710   0.693   6.153 -0.1673 -0.1717 -0.1494
  112OSM    C1S11522   4.794   0.830   5.888  0.0588 -0.4035 -0.0019
  112OSM    H1S11523   4.804   0.721   5.903  0.0211 -0.7934 -2.5153
  112OSM    H1T11524   4.881   0.880   5.937 -1.4649  1.8887  0.5389
  112OSM     NF11525   4.872   0.753   5.671  0.0509 -0.6439  0.0746
  112OSM    HNF11526   4.967   0.783   5.659 -0.1952  0.1541  0.0509
  112OSM    C2S11527   4.781   0.854   5.734 -0.5908  0.2749 -0.0679
  112OSM    H2S11528   4.673   0.835   5.718 -1.0076  1.7257  0.7622
  112OSM    C3S11529   4.810   1.002   5.705  0.8598  0.1711  0.3178
  112OSM    H3S11530   4.909   1.020   5.753  1.3276  0.4024 -0.7162
  112OSM     O311531   4.716   1.089   5.773  0.2237  0.1919 -0.4695
  112OSM    HO311532   4.675   1.034   5.841 -1.0416  0.0205 -1.3199
  112OSM    C4S11533   4.802   1.006   5.553 -0.1456  0.8482 -0.4906
  112OSM    H4S11534   4.902   0.982   5.513  0.6839 -0.1995  2.0079
  112OSM    C5S11535   4.698   1.019   5.472  0.0501  0.3405  0.3797
  112OSM    H5S11536   4.602   1.025   5.525  0.4983 -1.3361  1.4782
  112OSM    C6S11537   4.706   0.997   5.320 -0.0905  1.1097  0.5713
  112OSM    H6S11538   4.661   1.081   5.263  0.3257  0.9258 -0.0523
  112OSM    H6T11539   4.658   0.899   5.297  1.8024  0.3398 -0.3535
  112OSM    C7S11540   4.838   0.966   5.249  0.2637  0.2266  0.6485
  112OSM    H7S11541   4.887   0.885   5.308  1.0891 -1.5190 -2.2129
  112OSM    H7T11542   4.914   1.045   5.265  2.3813 -2.1404  3.4916
  112OSM    C8S11543   4.814   0.926   5.100 -0.0253 -0.8535 -0.0979
  112OSM    H8S11544   4.768   0.825   5.094 -0.0846 -0.9948  2.0758
  112OSM    H8T11545   4.910   0.923   5.043 -0.4847  0.4624 -0.9869
  112OSM    C9S11546   4.730   1.021   5.016 -0.2901  0.0746  0.5008
  112OSM    H9S11547   4.747   1.129   5.037 -0.2020  0.4439 -1.3082
  112OSM    H9T11548   4.621   1.003   5.030 -0.2762  0.6312  1.3743
  112OSM   C10S11549   4.757   1.008   4.864  0.2619 -0.2496  0.2634
  112OSM   H10S11550   4.733   0.904   4.835 -0.4276 -0.0828  0.2316
  112OSM   H10T11551   4.866   1.009   4.839 -0.0754 -4.9944 -2.5712
  112OSM   C11S11552   4.670   1.110   4.800  0.3814  0.0619 -0.2659
  112OSM   H11S11553   4.694   1.218   4.815 -0.7626  0.2935 -0.0312
  112OSM   H11T11554   4.569   1.087   4.840  0.4521  0.2799  0.0422
  112OSM   C12S11555   4.663   1.079   4.648  0.2180 -0.1905 -0.3346
  112OSM   H12S11556   4.588   1.144   4.597  1.0576 -0.1929 -1.6451
  112OSM   H12T11557   4.630   0.974   4.634 -0.2467 -0.5077  2.6402
  112OSM   C13S11558   4.797   1.101   4.573 -0.1857 -0.3699  0.5871
  112OSM   H13S11559   4.868   1.019   4.599 -0.1894 -0.3138  0.7783
  112OSM   H13T11560   4.842   1.194   4.613  1.1889 -0.6090 -0.3344
  112OSM   C14S11561   4.782   1.119   4.424 -0.8125  0.7333  0.1924
  112OSM   H14S11562   4.744   1.219   4.395 -1.8237  0.3311  0.0731
  112OSM   H14T11563   4.701   1.049   4.392 -1.6860  0.6751  2.3380
  112OSM   C15S11564   4.913   1.090   4.346  0.1212  0.1807 -0.2896
  112OSM   H15S11565   4.953   0.988   4.363  0.3101 -1.2423 -6.7461
  112OSM   H15T11566   4.991   1.155   4.391  0.6043 -0.4895 -0.1324
  112OSM   C16S11567   4.895   1.082   4.192 -0.2865 -0.1974 -0.4864
  112OSM   H16S11568   4.853   1.178   4.156  0.5872 -0.0424 -1.1167
  112OSM   H16T11569   4.826   0.998   4.167 -1.2350  0.1879  0.7647
  112OSM   C17S11570   5.032   1.064   4.124 -0.1033 -0.2588  0.1524
  112OSM   H17S11571   5.074   0.969   4.163 -0.3999 -0.9773 -1.2220
  112OSM   H17T11572   5.101   1.145   4.155  0.6120 -1.4484  1.7938
  112OSM   C18S11573   5.029   1.042   3.974 -0.0929  0.4238  0.4630
  112OSM   H18S11574   4.979   1.124   3.918  0.4823  0.2911 -0.2557
  112OSM   H18T11575   4.982   0.943   3.951 -0.4946  1.1344 -2.0371
  112OSM   H18U11576   5.133   1.031   3.938 -0.4269  1.6569 -0.9697
  112OSM    C1F11577   4.849   0.621   5.672 -0.6831 -0.2798  1.1029
  112OSM     OF11578   4.745   0.576   5.705 -0.1639  0.5546 -0.5858
  112OSM    C2F11579   4.961   0.535   5.619  0.3731 -0.2965 -0.5277
  112OSM    H2F11580   4.985   0.458   5.696  1.1105  0.3528 -0.0936
  112OSM    H2G11581   5.046   0.607   5.615  0.9402 -0.9782 -1.5154
  112OSM    C3F11582   4.938   0.472   5.479 -0.4792  0.0521 -0.0514
  112OSM    H3F11583   4.833   0.443   5.456  0.2222 -0.8863 -2.3213
  112OSM    H3G11584   5.009   0.386   5.484 -0.3446  0.0330 -1.5989
  112OSM    C4F11585   4.986   0.557   5.366 -0.5985 -0.2009  0.4035
  112OSM    H4F11586   5.088   0.598   5.387 -0.3538 -0.6072  0.0078
  112OSM    H4G11587   4.935   0.656   5.355 -0.1536  0.0315  0.3974
  112OSM    C5F11588   4.993   0.477   5.234  0.5185 -0.2709 -0.4662
  112OSM    H5F11589   4.908   0.406   5.232  0.3709 -0.0767 -1.2771
  112OSM    H5G11590   5.079   0.408   5.224 -2.2516 -3.9350 -1.1488
  112OSM    C6F11591   4.992   0.583   5.121 -0.5107  0.7904 -0.0891
  112OSM    H6F11592   5.069   0.660   5.143  0.3055  0.0120 -0.1525
  112OSM    H6G11593   4.892   0.631   5.113 -2.4713 -2.9949 -0.9245
  112OSM    C7F11594   5.037   0.540   4.980 -0.3587  0.6094  0.5008
  112OSM    H7F11595   5.144   0.509   4.984 -0.3329  0.8166  1.5881
  112OSM    H7G11596   5.028   0.627   4.910  1.5849  1.4855  1.2539
  112OSM    C8F11597   4.936   0.426   4.937  0.3305 -0.5710  0.0564
  112OSM    H8F11598   4.832   0.465   4.933  0.5025  0.4613  3.0099
  112OSM    H8G11599   4.929   0.347   5.015 -0.2512  0.2099  0.8189
  112OSM    C9F11600   4.981   0.362   4.805 -0.3951  0.0046  0.9056
  112OSM    H9F11601   5.073   0.304   4.820  0.1631  0.4886 -0.5292
  112OSM   C10F11602   4.927   0.386   4.682 -0.9182  0.1773 -0.4711
  112OSM   H10F11603   4.991   0.365   4.596  0.8161  2.5513  0.1235
  112OSM   C11F11604   4.807   0.473   4.648  0.2914 -0.8951  0.5720
  112OSM   H11F11605   4.837   0.579   4.631 -1.4106 -0.4335  0.2538
  112OSM   H11G11606   4.723   0.476   4.719 -0.8923  1.7026 -0.7938
  112OSM   C12F11607   4.745   0.420   4.513  0.1311  1.1090  0.1884
  112OSM   H12F11608   4.825   0.425   4.436  0.7890  1.5993  0.8926
  112OSM   H12G11609   4.679   0.503   4.479  2.7406  2.3778 -2.2032
  112OSM   C13F11610   4.673   0.284   4.519  0.6898  0.1813  0.2276
  112OSM   H13F11611   4.598   0.293   4.601  0.8508  1.1656  0.2787
  112OSM   H13G11612   4.736   0.199   4.550 -0.3207 -0.5393  0.3723
  112OSM   C14F11613   4.587   0.255   4.391  0.0211  0.4947 -0.5250
  112OSM   H14F11614   4.660   0.239   4.308 -1.0303 -1.7356 -1.0982
  112OSM   H14G11615   4.522   0.340   4.360  0.2837  1.2142  0.8295
  112OSM   C15F11616   4.508   0.124   4.406 -0.6459 -0.2272 -0.8059
  112OSM   H15F11617   4.436   0.138   4.490  0.4633  0.0360  0.1213
  112OSM   H15G11618   4.581   0.049   4.442  0.9143  1.4343 -0.3530
  112OSM   C16F11619   4.445   0.067   4.278  0.6998  0.1032  0.2339
  112OSM   H16F11620   4.363   0.138   4.253 -0.2421 -1.3131 -0.8608
  112OSM   H16G11621   4.395  -0.027   4.311  2.6316 -1.3377 -0.7192
  112OSM   C17F11622   4.523   0.049   4.153  0.2851  0.1422  0.3324
  112OSM   H17F11623   4.464  -0.022   4.091  0.7981  1.3196 -1.5791
  112OSM   H17G11624   4.616  -0.009   4.177 -0.8706 -1.7791  0.3860
  112OSM   C18F11625   4.540   0.175   4.062  0.2544  0.0454  0.0718
  112OSM   H18F11626   4.608   0.145   3.980  0.3707 -0.7706  0.4579
  112OSM   H18G11627   4.568   0.272   4.109 -0.5772  0.9317 -1.1885
  112OSM   H18H11628   4.441   0.190   4.013  0.8185 -0.6831 -1.3532
  113OSM      N11629   0.302   2.872   6.589 -0.2956 -0.2910 -0.4662
  113OSM    C1511630   0.424   2.915   6.662  0.0232 -0.3750  0.8424
  113OSM   H15A11631   0.397   3.004   6.718  1.5419  1.4448 -1.1412
  113OSM   H15B11632   0.504   2.943   6.595 -0.3715  0.8699  0.8539
  113OSM   H15C11633   0.460   2.841   6.732  2.5662  0.5725  0.6543
  113OSM    C1411634   0.305   2.727   6.557 -0.3633  0.3416 -0.7607
  113OSM   H14A11635   0.403   2.717   6.514 -0.2517 -0.7094 -0.2970
  113OSM   H14B11636   0.238   2.700   6.477 -1.4786 -1.7363  0.7719
  113OSM   H14C11637   0.294   2.663   6.644  1.7414  0.9065 -0.0117
  113OSM    C1311638   0.173   2.890   6.671  0.4656  0.0905 -0.0605
  113OSM   H13A11639   0.182   2.860   6.774 -0.7634 -0.2513 -0.0331
  113OSM   H13B11640   0.094   2.827   6.633  0.5427 -1.5612  2.3006
  113OSM   H13C11641   0.144   2.994   6.680  0.7071  0.2390 -0.8817
  113OSM    C1211642   0.284   2.952   6.465 -0.3053 -0.0951 -0.1425
  113OSM   H12A11643   0.263   3.052   6.500  0.8772  0.1138  0.0265
  113OSM   H12B11644   0.188   2.923   6.423 -1.2486 -1.2838  2.6211
  113OSM    C1111645   0.399   2.957   6.354 -0.5973 -0.7757  0.3101
  113OSM   H11A11646   0.364   3.004   6.259  2.9229 -1.3490 -1.4583
  113OSM   H11B11647   0.422   2.849   6.347  2.9676 -0.0339 -1.8073
  113OSM      P11648   0.532   3.176   6.363  0.4036  0.2286 -0.0754
  113OSM    O1311649   0.405   3.250   6.396  0.2110  0.0192  0.5228
  113OSM    O1411650   0.657   3.226   6.422  0.3344  0.1057 -0.2465
  113OSM    O1111651   0.535   3.189   6.205  0.0595  0.6916 -0.2978
  113OSM    O1211652   0.514   3.021   6.398  0.3404  0.0294  0.2383
  113OSM    C1S11653   0.645   3.134   6.126  0.3693 -1.2786  0.4301
  113OSM    H1S11654   0.648   3.025   6.147 -1.3470 -1.4369  0.0039
  113OSM    H1T11655   0.731   3.199   6.154 -0.2702 -0.2333  0.0076
  113OSM     NF11656   0.684   3.032   5.895 -0.2658  0.2350  0.0240
  113OSM    HNF11657   0.749   3.072   5.831  1.1344 -0.7718  0.7529
  113OSM    C2S11658   0.609   3.132   5.974 -0.3512  0.0047 -0.4047
  113OSM    H2S11659   0.504   3.095   5.980 -0.8084  1.4963  1.6715
  113OSM    C3S11660   0.609   3.281   5.921  0.6796  0.5944 -0.5650
  113OSM    H3S11661   0.706   3.333   5.934  0.8646  0.1745 -0.2443
  113OSM     O311662   0.534   3.365   6.002 -0.8493  0.9166 -0.0372
  113OSM    HO311663   0.520   3.321   6.086  1.3648 -0.2255 -0.1789
  113OSM    C4S11664   0.557   3.288   5.777  0.4534 -0.2161 -0.2131
  113OSM    H4S11665   0.497   3.200   5.751  0.7488 -0.4813 -0.0208
  113OSM    C5S11666   0.579   3.393   5.686 -0.0982  0.1128 -0.3807
  113OSM    H5S11667   0.616   3.492   5.716 -0.7654 -0.1560  1.4760
  113OSM    C6S11668   0.530   3.389   5.543  0.2790  0.5632  0.1024
  113OSM    H6S11669   0.428   3.344   5.543  0.0405  1.0215 -1.9737
  113OSM    H6T11670   0.590   3.331   5.471  0.1709  1.0814 -0.4107
  113OSM    C7S11671   0.506   3.536   5.490 -0.4242 -0.3601 -0.3443
  113OSM    H7S11672   0.602   3.591   5.492  0.7458 -2.2612  1.9925
  113OSM    H7T11673   0.433   3.578   5.562  0.6404 -0.1017  0.6154
  113OSM    C8S11674   0.469   3.547   5.338 -0.1459 -0.1300 -0.2217
  113OSM    H8S11675   0.440   3.653   5.322  1.3069 -0.0053 -2.4985
  113OSM    H8T11676   0.377   3.485   5.341 -1.2935  1.5591  0.9761
  113OSM    C9S11677   0.568   3.503   5.230 -0.7051 -0.5916 -0.2133
  113OSM    H9S11678   0.612   3.402   5.244  0.0763 -0.3071 -0.5551
  113OSM    H9T11679   0.653   3.573   5.246  0.7239 -2.2955  0.0161
  113OSM   C10S11680   0.509   3.521   5.091 -0.3869  0.1865 -0.2891
  113OSM   H10S11681   0.504   3.631   5.075  2.6841  0.6125  0.8691
  113OSM   H10T11682   0.411   3.470   5.085 -1.0169  1.2378  0.6833
  113OSM   C11S11683   0.605   3.476   4.978 -0.3197 -0.5614 -0.0961
  113OSM   H11S11684   0.628   3.368   4.986 -0.6493 -0.7219 -1.1675
  113OSM   H11T11685   0.706   3.524   4.982 -0.6424  0.7777 -3.8550
  113OSM   C12S11686   0.542   3.501   4.835 -0.4919  0.6299 -1.0047
  113OSM   H12S11687   0.552   3.610   4.815  0.6347  0.6130 -0.5964
  113OSM   H12T11688   0.435   3.476   4.817 -0.7227 -0.8228  1.7956
  113OSM   C13S11689   0.626   3.423   4.730  0.2892 -0.1876  0.1659
  113OSM   H13S11690   0.612   3.314   4.745  0.6391 -0.3461 -0.5874
  113OSM   H13T11691   0.733   3.447   4.745  0.8540 -0.5755 -2.6906
  113OSM   C14S11692   0.576   3.449   4.580 -0.6837 -0.2741 -0.0906
  113OSM   H14S11693   0.612   3.552   4.560  0.9530 -0.3359  2.1586
  113OSM   H14T11694   0.466   3.455   4.567 -0.9542 -0.8015  1.6866
  113OSM   C15S11695   0.621   3.337   4.488  0.4832  0.2501 -0.4846
  113OSM   H15S11696   0.581   3.242   4.530  1.5627 -0.5887 -1.3269
  113OSM   H15T11697   0.732   3.336   4.493  0.4913 -2.5645  1.8180
  113OSM   C16S11698   0.567   3.366   4.343 -0.1285 -0.5199 -0.4795
  113OSM   H16S11699   0.458   3.386   4.348 -0.1384 -0.8346  2.6387
  113OSM   H16T11700   0.597   3.275   4.286  1.1430 -0.4753  0.0692
  113OSM   C17S11701   0.644   3.487   4.279 -0.0184  0.1426 -0.8880
  113OSM   H17S11702   0.747   3.484   4.321 -0.3590  0.5680  0.0028
  113OSM   H17T11703   0.602   3.586   4.305  1.7895  0.4036  1.4255
  113OSM   C18S11704   0.662   3.475   4.130  0.1149 -0.2820  0.4220
  113OSM   H18S11705   0.716   3.560   4.082  0.8396 -0.7102  0.4677
  113OSM   H18T11706   0.567   3.463   4.073  1.3944  0.2387 -1.9625
  113OSM   H18U11707   0.713   3.379   4.108  0.7896  0.1454  0.0591
  113OSM    C1F11708   0.692   2.899   5.911  0.4684 -0.0496  0.9227
  113OSM     OF11709   0.635   2.842   5.999 -0.0326  0.4949  0.0727
  113OSM    C2F11710   0.797   2.821   5.826 -0.5525 -0.4348 -0.2445
  113OSM    H2F11711   0.849   2.761   5.904 -0.9438 -0.6686 -0.1630
  113OSM    H2G11712   0.879   2.891   5.798  1.8302 -2.1082  2.0459
  113OSM    C3F11713   0.730   2.725   5.730  0.1186 -0.6576 -0.1810
  113OSM    H3F11714   0.649   2.668   5.783  1.1043 -0.7890  1.2454
  113OSM    H3G11715   0.806   2.649   5.703  2.9025  1.1974  1.9339
  113OSM    C4F11716   0.679   2.784   5.600 -0.0372 -0.1325  0.4887
  113OSM    H4F11717   0.597   2.858   5.613 -1.1010 -1.5447  2.4190
  113OSM    H4G11718   0.627   2.701   5.548 -1.5682  1.9109 -1.4653
  113OSM    C5F11719   0.778   2.855   5.508 -0.1921 -0.4815 -0.4444
  113OSM    H5F11720   0.867   2.792   5.488  0.5655  0.8411 -1.3469
  113OSM    H5G11721   0.810   2.943   5.567 -0.1411 -1.2785  0.7508
  113OSM    C6F11722   0.719   2.904   5.373  0.4476  0.8558  1.1144
  113OSM    H6F11723   0.686   2.819   5.309 -2.1274  1.5715  1.3873
  113OSM    H6G11724   0.801   2.950   5.315 -0.2809 -2.1095 -2.6839
  113OSM    C7F11725   0.602   2.996   5.390  0.5374  0.1973 -0.1111
  113OSM    H7F11726   0.644   3.090   5.432 -0.1597  0.3005  0.3651
  113OSM    H7G11727   0.519   2.968   5.457  1.0080 -0.5508  0.1703
  113OSM    C8F11728   0.545   3.030   5.252  0.4598 -0.2423  0.2851
  113OSM    H8F11729   0.630   3.062   5.187  2.1503 -0.9559  2.0547
  113OSM    H8G11730   0.479   3.119   5.261 -0.7269 -1.1018  0.2847
  113OSM    C9F11731   0.467   2.925   5.185  0.0526 -0.0116 -0.3736
  113OSM    H9F11732   0.371   2.905   5.234  0.0738  0.6598 -0.0414
  113OSM   C10F11733   0.498   2.848   5.077  0.6354 -0.3665  0.6143
  113OSM   H10F11734   0.416   2.789   5.032  0.7741  0.0017 -0.1415
  113OSM   C11F11735   0.623   2.857   4.990  0.4475 -0.5402 -0.5566
  113OSM   H11F11736   0.660   2.754   4.969 -0.5375 -0.9635 -0.2649
  113OSM   H11G11737   0.704   2.898   5.055 -1.2168  2.9948 -0.4724
  113OSM   C12F11738   0.611   2.938   4.856 -0.5215  0.4368 -0.1812
  113OSM   H12F11739   0.714   2.964   4.824  0.1957  2.8550  3.4841
  113OSM   H12G11740   0.557   3.034   4.874 -1.5825 -0.0181 -0.8562
  113OSM   C13F11741   0.544   2.862   4.745 -0.3748  0.3713  0.7953
  113OSM   H13F11742   0.529   2.924   4.654 -0.3911 -1.9446 -0.8765
  113OSM   H13G11743   0.444   2.826   4.776 -0.3411 -0.2116  0.2439
  113OSM   C14F11744   0.616   2.730   4.702 -0.2820  0.4617 -0.5410
  113OSM   H14F11745   0.605   2.660   4.788 -3.5232  1.0681 -0.3321
  113OSM   H14G11746   0.724   2.750   4.685 -0.0400  0.2602  0.7052
  113OSM   C15F11747   0.551   2.658   4.577 -0.8091 -0.1655  0.1990
  113OSM   H15F11748   0.443   2.664   4.606 -1.0227  0.2845 -0.6575
  113OSM   H15G11749   0.592   2.555   4.591 -0.7755 -0.1350  0.3275
  113OSM   C16F11750   0.591   2.720   4.451 -0.6072 -0.3687  0.4073
  113OSM   H16F11751   0.701   2.735   4.447 -0.8468  1.2447 -2.2939
  113OSM   H16G11752   0.547   2.823   4.451 -0.0851 -0.1427  0.5445
  113OSM   C17F11753   0.555   2.632   4.333 -0.1822  0.3070  0.6095
  113OSM   H17F11754   0.445   2.632   4.314  0.1257 -2.5229 -1.9956
  113OSM   H17G11755   0.590   2.528   4.355 -0.6506 -0.1998 -0.8953
  113OSM   C18F11756   0.609   2.675   4.195 -0.4462 -0.1765  0.6733
  113OSM   H18F11757   0.720   2.685   4.187 -0.5391  0.1194 -0.3167
  113OSM   H18G11758   0.568   2.776   4.173 -0.3206 -0.2505  0.0688
  113OSM   H18H11759   0.581   2.594   4.124 -3.5493  0.8790  0.5765
  114OSM      N11760   6.469   2.327   6.603  0.9552  0.7337  0.5200
  114OSM    C1511761   6.600   2.270   6.564  0.0178  0.2119  0.2384
  114OSM   H15A11762   6.622   2.303   6.463 -1.1872  1.6456  0.4012
  114OSM   H15B11763   6.593   2.162   6.572 -3.3853  0.3940  1.1539
  114OSM   H15C11764   6.683   2.300   6.626  0.3773  0.7064 -0.4602
  114OSM    C1411765   6.442   2.303   6.746  0.1763 -0.2690 -0.1808
  114OSM   H14A11766   6.354   2.351   6.785 -1.1329 -1.1830 -1.8361
  114OSM   H14B11767   6.526   2.341   6.800 -0.0244 -0.9142  0.6120
  114OSM   H14C11768   6.434   2.199   6.776  0.8803 -0.7064 -1.4228
  114OSM    C1311769   6.474   2.474   6.582  0.1522  0.0700 -0.4922
  114OSM   H13A11770   6.374   2.509   6.602 -0.6089 -2.2673  0.0623
  114OSM   H13B11771   6.495   2.500   6.479 -0.5833 -0.2814 -0.7379
  114OSM   H13C11772   6.533   2.532   6.651 -0.0591 -1.6473  1.2224
  114OSM    C1211773   6.348   2.266   6.532 -0.1603  0.6344 -0.4467
  114OSM   H12A11774   6.256   2.310   6.568 -0.3926  0.3399 -0.6805
  114OSM   H12B11775   6.344   2.163   6.563  0.0937  0.5151 -0.8142
  114OSM    C1111776   6.345   2.281   6.384 -0.5791 -0.3462  0.2451
  114OSM   H11A11777   6.351   2.391   6.368  0.2340 -0.4323 -0.0994
  114OSM   H11B11778   6.245   2.257   6.342 -1.5520 -0.6403  2.6092
  114OSM      P11779   6.406   2.065   6.264 -0.1475 -0.4482  0.2747
  114OSM    O1311780   6.525   1.987   6.230  0.1758 -0.4461  0.3381
  114OSM    O1411781   6.302   2.002   6.350 -0.0290  0.0629 -0.1913
  114OSM    O1111782   6.342   2.096   6.122 -0.4552  0.0779 -0.6205
  114OSM    O1211783   6.447   2.213   6.311 -0.2367 -0.1935  0.1029
  114OSM    C1S11784   6.260   1.999   6.055 -0.2302  0.3474  0.0821
  114OSM    H1S11785   6.153   2.026   6.064 -0.3213  0.4653 -1.1387
  114OSM    H1T11786   6.280   1.893   6.081  1.4536  0.3707 -0.9491
  114OSM     NF11787   6.204   1.896   5.849  0.2993  0.6525 -0.5102
  114OSM    HNF11788   6.248   1.811   5.820 -1.3505 -0.4269  0.0428
  114OSM    C2S11789   6.287   2.000   5.899 -0.8511  0.0643  0.1339
  114OSM    H2S11790   6.262   2.102   5.864 -0.5612  0.7855  1.8939
  114OSM    C3S11791   6.438   1.977   5.871 -0.4599 -0.0511 -0.0305
  114OSM    H3S11792   6.474   1.882   5.915 -0.3260  0.4520  0.9999
  114OSM     O311793   6.528   2.070   5.935 -0.0665 -0.0195 -0.2851
  114OSM    HO311794   6.469   2.122   5.988  0.9400  0.2700  0.5908
  114OSM    C4S11795   6.448   1.975   5.721  0.5683 -0.1103 -0.1608
  114OSM    H4S11796   6.415   1.887   5.664  1.5519 -0.2316 -0.5660
  114OSM    C5S11797   6.504   2.063   5.637 -0.4354  0.4571  0.4427
  114OSM    H5S11798   6.548   2.152   5.684 -0.7515  0.2355  1.1743
  114OSM    C6S11799   6.500   2.044   5.484 -0.0238 -0.2472 -0.4531
  114OSM    H6S11800   6.465   1.941   5.461 -0.5471 -0.4131  1.0102
  114OSM    H6T11801   6.601   2.056   5.439  0.5041  0.0757  0.7871
  114OSM    C7S11802   6.393   2.138   5.417  0.6573  0.2623  0.5587
  114OSM    H7S11803   6.399   2.243   5.454 -3.0245  0.1155  1.9917
  114OSM    H7T11804   6.296   2.093   5.447  2.4670 -4.4816  0.1842
  114OSM    C8S11805   6.399   2.153   5.264  0.0047  0.0250  0.5875
  114OSM    H8S11806   6.401   2.052   5.217  0.3705  0.1010  0.4383
  114OSM    H8T11807   6.490   2.207   5.230  0.3674 -0.1672  1.2535
  114OSM    C9S11808   6.292   2.235   5.192  0.1529  0.6528 -0.1515
  114OSM    H9S11809   6.316   2.341   5.217  0.0691  0.6730 -0.1573
  114OSM    H9T11810   6.199   2.196   5.238  1.5308 -1.4624  0.9705
  114OSM   C10S11811   6.286   2.219   5.042 -0.1080  0.0442 -0.1279
  114OSM   H10S11812   6.273   2.114   5.010 -1.6429  0.1214  0.1889
  114OSM   H10T11813   6.383   2.251   4.997 -1.0607  1.1619 -1.4684
  114OSM   C11S11814   6.172   2.305   4.983 -0.1765 -0.7580  0.5186
  114OSM   H11S11815   6.198   2.408   5.016 -1.2331 -0.8322  1.6353
  114OSM   H11T11816   6.072   2.284   5.026 -1.0892  1.1987 -0.4946
  114OSM   C12S11817   6.181   2.308   4.834 -0.6532  1.0066 -0.3486
  114OSM   H12S11818   6.152   2.209   4.793  2.4059 -0.0832 -0.1193
  114OSM   H12T11819   6.285   2.308   4.795  0.0934  0.1070  1.4875
  114OSM   C13S11820   6.098   2.418   4.775 -0.8130 -0.6730 -0.2492
  114OSM   H13S11821   6.148   2.515   4.798 -0.0076 -1.0104 -0.5348
  114OSM   H13T11822   5.999   2.433   4.822 -0.4762  0.8286  0.0549
  114OSM   C14S11823   6.078   2.405   4.622 -0.2458  0.4744 -0.8868
  114OSM   H14S11824   6.017   2.316   4.598 -4.6309  2.2955  2.1552
  114OSM   H14T11825   6.176   2.394   4.571  0.2890  3.0614 -0.5912
  114OSM   C15S11826   5.996   2.519   4.562  0.2365  0.2444  0.9581
  114OSM   H15S11827   6.051   2.615   4.568  1.2861 -0.0968 -1.7762
  114OSM   H15T11828   5.910   2.534   4.631 -0.9901  1.7596 -0.8155
  114OSM   C16S11829   5.951   2.502   4.420  0.0624  0.7003  0.2703
  114OSM   H16S11830   5.884   2.415   4.403 -0.9363  1.6051 -0.5871
  114OSM   H16T11831   6.031   2.483   4.345 -2.5467  2.3366 -3.2232
  114OSM   C17S11832   5.873   2.617   4.362 -0.4328 -0.2305 -0.1857
  114OSM   H17S11833   5.946   2.699   4.380  1.7086 -2.3384  1.2122
  114OSM   H17T11834   5.782   2.610   4.425  0.0166 -2.2093  0.3140
  114OSM   C18S11835   5.846   2.602   4.218 -0.5777 -0.5307  0.0766
  114OSM   H18S11836   5.806   2.698   4.178  1.5889 -0.3382 -1.8046
  114OSM   H18T11837   5.764   2.534   4.187 -1.3598  1.0329 -1.4442
  114OSM   H18U11838   5.940   2.583   4.163 -0.2163  1.1768  0.0604
  114OSM    C1F11839   6.072   1.907   5.844  0.6676 -0.0195  0.1993
  114OSM     OF11840   6.009   2.012   5.870 -0.4019  0.1107  0.2941
  114OSM    C2F11841   5.996   1.784   5.803  0.0550  0.5575 -0.1901
  114OSM    H2F11842   5.924   1.766   5.886  0.6662  1.8928  0.6589
  114OSM    H2G11843   6.059   1.692   5.807 -1.8791 -0.7829  1.6709
  114OSM    C3F11844   5.922   1.794   5.674 -0.2007  0.2030 -0.2357
  114OSM    H3F11845   5.865   1.890   5.671  0.4718  0.7737  2.3688
  114OSM    H3G11846   5.858   1.703   5.668  1.0199 -0.6390 -0.7801
  114OSM    C4F11847   6.009   1.807   5.553 -0.1983  0.0188  0.0278
  114OSM    H4F11848   6.071   1.718   5.532  3.6866  3.0412 -2.9326
  114OSM    H4G11849   6.085   1.887   5.568  0.8441 -0.7417 -1.0148
  114OSM    C5F11850   5.919   1.835   5.422 -0.1994 -0.6686 -0.0902
  114OSM    H5F11851   5.857   1.925   5.440  0.7895 -0.2665  1.5545
  114OSM    H5G11852   5.856   1.748   5.394  1.6297 -1.5303 -1.7705
  114OSM    C6F11853   6.012   1.862   5.309  0.6962 -0.6888  0.1182
  114OSM    H6F11854   6.061   1.769   5.274  0.7707 -1.0546  1.1531
  114OSM    H6G11855   6.097   1.919   5.352  2.0319 -2.6506  0.1811
  114OSM    C7F11856   5.970   1.950   5.191  0.0274 -0.1046 -0.1205
  114OSM    H7F11857   5.959   2.052   5.232 -1.1745 -0.0716 -0.4898
  114OSM    H7G11858   5.866   1.924   5.163 -0.3585 -0.2700  1.3727
  114OSM    C8F11859   6.060   1.931   5.068  0.1020  0.1469 -0.4732
  114OSM    H8F11860   6.164   1.960   5.094  0.1727  0.6956 -1.3270
  114OSM    H8G11861   6.027   2.009   4.996  0.8760  1.3017  0.3958
  114OSM    C9F11862   6.065   1.793   5.003 -0.3576 -0.2037  0.0591
  114OSM    H9F11863   5.994   1.722   5.047 -2.5271  1.5549 -0.4243
  114OSM   C10F11864   6.173   1.750   4.934  0.1313  0.2294  0.1797
  114OSM   H10F11865   6.175   1.646   4.900  1.2126  0.6311 -1.0584
  114OSM   C11F11866   6.297   1.823   4.888  0.2977  0.2337 -0.0623
  114OSM   H11F11867   6.298   1.926   4.930  0.6054  0.4666 -0.6324
  114OSM   H11G11868   6.296   1.840   4.778  1.4679 -1.0038 -0.2855
  114OSM   C12F11869   6.425   1.747   4.927  0.4068 -0.8867  0.3171
  114OSM   H12F11870   6.506   1.800   4.872  0.8421 -0.7329  1.0830
  114OSM   H12G11871   6.439   1.646   4.885 -1.5801 -1.6220  1.2900
  114OSM   C13F11872   6.460   1.760   5.073 -0.0284 -0.1786 -0.9018
  114OSM   H13F11873   6.388   1.703   5.135  1.4633 -0.2887  0.7984
  114OSM   H13G11874   6.458   1.869   5.094  2.4337 -0.5899  2.0366
  114OSM   C14F11875   6.596   1.706   5.098 -0.6017  0.1776 -0.4044
  114OSM   H14F11876   6.677   1.769   5.057  1.3631 -1.6919  0.3974
  114OSM   H14G11877   6.601   1.609   5.045  1.1446  0.8586 -1.5590
  114OSM   C15F11878   6.618   1.687   5.250  0.2605 -0.0630  0.2193
  114OSM   H15F11879   6.536   1.628   5.296  2.2994 -1.6807  2.0229
  114OSM   H15G11880   6.609   1.778   5.313 -3.3456 -0.4580  0.4628
  114OSM   C16F11881   6.746   1.622   5.281  0.0740 -0.5962  0.5152
  114OSM   H16F11882   6.819   1.697   5.245 -2.7108  2.0266 -0.0108
  114OSM   H16G11883   6.755   1.524   5.228  0.5789 -1.4305  2.0594
  114OSM   C17F11884   6.776   1.589   5.432 -0.7385 -0.0217 -0.4025
  114OSM   H17F11885   6.695   1.520   5.465  2.0750 -3.5714 -0.3199
  114OSM   H17G11886   6.771   1.680   5.496  0.1556 -0.2852  0.0616
  114OSM   C18F11887   6.908   1.504   5.454 -0.1823 -0.0104 -0.1779
  114OSM   H18F11888   6.926   1.488   5.562  0.9592 -4.3222 -0.8244
  114OSM   H18G11889   6.993   1.569   5.426 -0.2874  0.3381  0.3114
  114OSM   H18H11890   6.914   1.407   5.399  1.1501  0.7582 -1.4612
  115OSM      N11891   6.566   4.260   6.225  0.0087 -0.3717 -0.1216
  115OSM    C1511892   6.617   4.348   6.334  0.3411  0.2833  0.3139
  115OSM   H15A11893   6.629   4.301   6.431 -0.7846  1.9290  1.2923
  115OSM   H15B11894   6.548   4.430   6.341 -0.7266 -0.1691 -3.2124
  115OSM   H15C11895   6.714   4.387   6.307  1.8922 -3.7001 -0.6995
  115OSM    C1411896   6.650   4.133   6.224  0.4809  0.7235 -0.0486
  115OSM   H14A11897   6.650   4.083   6.320  2.1250  2.3336  0.8474
  115OSM   H14B11898   6.752   4.155   6.197  1.4726 -2.2490  0.8646
  115OSM   H14C11899   6.615   4.056   6.157 -2.0726 -0.7066  2.6770
  115OSM    C1311900   6.424   4.212   6.265  0.4920  0.2196  0.0275
  115OSM   H13A11901   6.359   4.298   6.251 -1.0395 -1.0797 -1.2248
  115OSM   H13B11902   6.419   4.182   6.369 -0.8061  1.0162  0.2244
  115OSM   H13C11903   6.389   4.129   6.205 -0.9062  0.3924  0.5582
  115OSM    C1211904   6.585   4.325   6.086  0.2855 -0.4914  0.9459
  115OSM   H12A11905   6.583   4.256   6.004 -0.6179  0.5818  0.0234
  115OSM   H12B11906   6.685   4.364   6.080  0.1591 -0.3846 -1.9458
  115OSM    C1111907   6.494   4.444   6.056 -0.3620 -0.3126 -0.1028
  115OSM   H11A11908   6.508   4.482   5.953 -0.8347 -1.1610 -0.4939
  115OSM   H11B11909   6.542   4.526   6.114  1.2958 -2.1988  1.3410
  115OSM      P11910   6.277   4.557   6.153 -0.5481 -0.3360  0.2493
  115OSM    O1311911   6.135   4.511   6.157 -0.8338 -0.3587 -0.1329
  115OSM    O1411912   6.333   4.613   6.278 -0.0586 -0.7666  0.2551
  115OSM    O1111913   6.292   4.663   6.034  0.0794  0.2383 -0.2325
  115OSM    O1211914   6.353   4.438   6.086  0.9082 -0.3432  0.4226
  115OSM    C1S11915   6.246   4.628   5.907 -0.6954  0.4227 -0.2940
  115OSM    H1S11916   6.135   4.627   5.899 -0.6447 -0.3804 -1.1026
  115OSM    H1T11917   6.289   4.533   5.868  0.5721  0.9937 -0.3305
  115OSM     NF11918   6.200   4.739   5.679 -0.4619 -0.1651  0.2204
  115OSM    HNF11919   6.243   4.686   5.607  1.5809  0.9832  0.5343
  115OSM    C2S11920   6.273   4.744   5.802 -0.3316 -0.2223 -0.2692
  115OSM    H2S11921   6.233   4.828   5.864 -0.4103 -0.6153  0.2151
  115OSM    C3S11922   6.423   4.761   5.782 -0.3176  0.4330 -0.6917
  115OSM    H3S11923   6.459   4.673   5.725 -0.2854 -0.8161  1.1704
  115OSM     O311924   6.498   4.776   5.900 -0.2787  0.0691 -0.6264
  115OSM    HO311925   6.437   4.773   5.974  1.5468  0.4643  0.9861
  115OSM    C4S11926   6.434   4.884   5.686  0.7559  0.3068 -0.1304
  115OSM    H4S11927   6.364   4.962   5.720 -0.0730 -1.3333  2.2122
  115OSM    C5S11928   6.494   4.884   5.569 -1.3568 -0.2777 -0.3980
  115OSM    H5S11929   6.566   4.803   5.554 -0.7888  0.2120 -0.3433
  115OSM    C6S11930   6.494   5.003   5.477  0.4893 -0.2311 -0.1307
  115OSM    H6S11931   6.589   5.044   5.435 -0.1794  1.5743  0.0122
  115OSM    H6T11932   6.456   5.089   5.536 -1.0605  0.4238 -1.9632
  115OSM    C7S11933   6.388   4.977   5.357 -0.3412 -0.2920 -0.5265
  115OSM    H7S11934   6.370   5.073   5.305  3.2501  0.4985 -0.5610
  115OSM    H7T11935   6.303   4.928   5.408 -1.3061  1.3443 -0.5093
  115OSM    C8S11936   6.440   4.887   5.243  0.3561  0.4658  0.4628
  115OSM    H8S11937   6.466   4.794   5.299 -0.9247 -0.8796 -1.0911
  115OSM    H8T11938   6.529   4.929   5.192 -0.3527  0.1145 -1.1159
  115OSM    C9S11939   6.335   4.845   5.134 -0.3859 -0.5996 -0.2118
  115OSM    H9S11940   6.341   4.933   5.067 -0.6629  1.9172  2.8371
  115OSM    H9T11941   6.230   4.826   5.166 -0.9826 -1.2638 -2.4036
  115OSM   C10S11942   6.368   4.721   5.047 -0.0355  0.0289 -0.2430
  115OSM   H10S11943   6.278   4.678   4.998 -0.0377 -1.8218  1.2694
  115OSM   H10T11944   6.394   4.635   5.112  1.2825 -0.5000 -1.4125
  115OSM   C11S11945   6.482   4.740   4.942 -0.0657  0.7959  0.3504
  115OSM   H11S11946   6.514   4.637   4.914 -1.8837  0.6764 -1.5465
  115OSM   H11T11947   6.562   4.787   5.001  0.5826 -1.4718  1.3817
  115OSM   C12S11948   6.443   4.822   4.813  0.5498  0.5859 -0.6581
  115OSM   H12S11949   6.426   4.925   4.852  0.2922  1.8107 -3.6753
  115OSM   H12T11950   6.343   4.797   4.771 -0.4830  3.1956  0.0665
  115OSM   C13S11951   6.541   4.825   4.695 -0.0720  0.3117  0.1014
  115OSM   H13S11952   6.552   4.723   4.653 -2.8810 -0.5891  1.3052
  115OSM   H13T11953   6.645   4.849   4.724 -0.1073  1.0313 -0.3514
  115OSM   C14S11954   6.508   4.915   4.577  0.4022 -0.8653 -0.0854
  115OSM   H14S11955   6.419   4.875   4.523  0.5402 -0.4830 -0.6066
  115OSM   H14T11956   6.593   4.908   4.505  0.8045 -2.2823  0.4943
  115OSM   C15S11957   6.479   5.061   4.608 -0.5947  0.3978  0.7153
  115OSM   H15S11958   6.553   5.094   4.684  0.0852 -1.1195  0.7475
  115OSM   H15T11959   6.382   5.059   4.663  0.2006 -0.8310  2.1369
  115OSM   C16S11960   6.467   5.148   4.477  0.2465 -0.4284 -0.3980
  115OSM   H16S11961   6.397   5.102   4.405 -0.0421 -1.3343  0.4426
  115OSM   H16T11962   6.562   5.161   4.421  1.1863  0.6182  1.3521
  115OSM   C17S11963   6.416   5.292   4.506  0.8884 -0.7497 -0.2925
  115OSM   H17S11964   6.410   5.345   4.409 -1.1207 -0.6749 -0.1551
  115OSM   H17T11965   6.465   5.345   4.591 -1.6322 -0.9391  1.3966
  115OSM   C18S11966   6.266   5.292   4.544  0.6241 -0.2363 -0.6053
  115OSM   H18S11967   6.255   5.236   4.639  1.0575 -1.4630 -1.2525
  115OSM   H18T11968   6.204   5.247   4.463  2.0148 -0.4674 -1.5758
  115OSM   H18U11969   6.224   5.394   4.561 -0.4106 -0.6177 -0.8055
  115OSM    C1F11970   6.070   4.775   5.670  0.7791  1.1516  0.2087
  115OSM     OF11971   6.010   4.820   5.770  0.7532 -0.0779 -0.6466
  115OSM    C2F11972   6.010   4.755   5.533  0.0474  0.5207  0.0340
  115OSM    H2F11973   5.915   4.698   5.541  0.7665 -0.6630  0.4458
  115OSM    H2G11974   6.088   4.698   5.478  0.1844  0.7353  0.0038
  115OSM    C3F11975   6.003   4.888   5.469 -0.4774  0.6479  0.5486
  115OSM    H3F11976   6.102   4.938   5.467  0.5422 -1.2645  0.7464
  115OSM    H3G11977   5.930   4.946   5.530  0.6683  0.0307  2.5641
  115OSM    C4F11978   5.946   4.875   5.329  0.2108 -0.4297 -0.2998
  115OSM    H4F11979   5.840   4.845   5.324  0.2888 -0.5942 -3.8182
  115OSM    H4G11980   6.015   4.804   5.277  0.0051 -0.5928 -0.3505
  115OSM    C5F11981   5.943   5.011   5.252  0.5148  0.2084 -0.3416
  115OSM    H5F11982   6.046   5.053   5.253  0.9511 -0.8158  1.3900
  115OSM    H5G11983   5.874   5.073   5.313 -2.8148 -1.0836 -2.4890
  115OSM    C6F11984   5.896   5.015   5.106  0.0475 -0.7262  0.0882
  115OSM    H6F11985   5.898   5.122   5.077 -2.3455 -0.6063  0.1373
  115OSM    H6G11986   5.789   4.984   5.116 -0.2629  0.6414  1.2398
  115OSM    C7F11987   5.976   4.920   5.017 -0.2506 -0.3667  0.6040
  115OSM    H7F11988   5.972   4.820   5.065  1.7243 -0.3385  0.9450
  115OSM    H7G11989   6.081   4.955   5.027 -0.1678 -1.1284  3.0240
  115OSM    C8F11990   5.919   4.932   4.873 -0.2237  0.4385  0.0186
  115OSM    H8F11991   5.810   4.949   4.879  0.0997  2.2281  2.5207
  115OSM    H8G11992   5.929   4.836   4.819  1.5328  1.5246 -1.7556
  115OSM    C9F11993   5.989   5.039   4.789  0.6634  0.0225 -0.2509
  115OSM    H9F11994   5.987   5.141   4.831  1.1941  0.4610 -1.2491
  115OSM   C10F11995   6.065   5.015   4.675 -0.4550 -0.6166 -0.5056
  115OSM   H10F11996   6.100   5.102   4.616 -1.7986  1.1978  1.2373
  115OSM   C11F11997   6.093   4.880   4.611 -0.8864 -0.0413  0.0103
  115OSM   H11F11998   6.058   4.797   4.677  0.9620 -1.8673 -1.1854
  115OSM   H11G11999   6.204   4.874   4.607 -0.8365  1.3958 -2.1198
  115OSM   C12F12000   6.037   4.860   4.473  0.0167 -0.1100  0.1770
  115OSM   H12F12001   5.932   4.893   4.492 -0.1997  0.7294 -2.2504
  115OSM   H12G12002   6.046   4.754   4.440  0.0650  0.9076 -3.4586
  115OSM   C13F12003   6.107   4.948   4.359  0.2408 -0.6037  0.1412
  115OSM   H13F12004   6.217   4.934   4.365  0.0802 -1.4100  1.5272
  115OSM   H13G12005   6.084   5.054   4.381 -1.7419 -0.8508 -0.5914
  115OSM   C14F12006   6.069   4.904   4.219  0.4133 -0.0431 -0.6172
  115OSM   H14F12007   6.105   4.802   4.194 -0.9339 -0.7066  0.0568
  115OSM   H14G12008   6.104   4.982   4.147 -1.5550  2.4075  0.9157
  115OSM   C15F12009   5.915   4.893   4.202  0.2132 -0.9723 -0.2007
  115OSM   H15F12010   5.862   4.974   4.257 -0.0439 -2.7571  2.3791
  115OSM   H15G12011   5.891   4.801   4.260  1.4653 -0.9819  0.3250
  115OSM   C16F12012   5.881   4.865   4.057  0.1966  0.2490  0.5343
  115OSM   H16F12013   5.918   4.766   4.024  0.2474  0.1121  0.9982
  115OSM   H16G12014   5.933   4.946   4.002  1.2112 -0.4889  0.3993
  115OSM   C17F12015   5.728   4.873   4.032  0.2067  0.8820  0.9542
  115OSM   H17F12016   5.696   4.979   4.033 -0.8111  0.5757  1.7070
  115OSM   H17G12017   5.673   4.833   4.120 -0.5079  2.0527  1.0524
  115OSM   C18F12018   5.669   4.794   3.910 -0.6889 -0.6793 -0.7211
  115OSM   H18F12019   5.562   4.818   3.898 -1.0893 -0.3969  2.4912
  115OSM   H18G12020   5.666   4.686   3.935  1.2297 -0.2893  1.6054
  115OSM   H18H12021   5.720   4.820   3.815 -1.2369 -0.1240 -0.8680
  116OSM      N12022   6.057   1.410   6.407  0.1550 -0.2128 -0.2079
  116OSM    C1512023   6.074   1.266   6.443  0.9795  0.8960  0.0410
  116OSM   H15A12024   6.174   1.236   6.416  1.2834  2.0774 -0.2090
  116OSM   H15B12025   5.994   1.209   6.399 -1.0170  2.4915  1.4318
  116OSM   H15C12026   6.062   1.254   6.550 -4.3545 -0.2456 -0.4091
  116OSM    C1412027   5.930   1.465   6.462  0.5450  0.3012  0.1389
  116OSM   H14A12028   5.922   1.569   6.434 -0.1281 -0.5859 -3.5244
  116OSM   H14B12029   5.911   1.459   6.568  0.8173 -0.9173  0.1275
  116OSM   H14C12030   5.844   1.419   6.416  1.1602  0.2835 -1.0180
  116OSM    C1312031   6.162   1.499   6.456  0.0496 -0.6449 -0.5071
  116OSM   H13A12032   6.145   1.605   6.445 -1.2759 -0.7288  0.5329
  116OSM   H13B12033   6.249   1.476   6.396 -0.1183 -0.9247 -0.6416
  116OSM   H13C12034   6.181   1.479   6.561  0.1378  1.2738 -0.1213
  116OSM    C1212035   6.057   1.419   6.254  0.5350 -0.2723  0.5092
  116OSM   H12A12036   6.043   1.521   6.223  0.6942 -0.7833 -1.4198
  116OSM   H12B12037   5.976   1.355   6.221  1.9212 -1.9922  0.2586
  116OSM    C1112038   6.176   1.369   6.175  0.0483 -0.3759  0.5754
  116OSM   H11A12039   6.134   1.364   6.073 -3.1048 -0.7652  1.7527
  116OSM   H11B12040   6.206   1.266   6.207 -0.1458 -0.0684  1.8229
  116OSM      P12041   6.300   1.579   6.090  0.1891  0.3267 -0.3442
  116OSM    O1312042   6.175   1.656   6.108  0.8534 -0.6416  0.3441
  116OSM    O1412043   6.424   1.655   6.120 -0.1067  0.1183 -0.2377
  116OSM    O1112044   6.303   1.521   5.946 -0.0133 -0.5131 -0.1791
  116OSM    O1212045   6.289   1.454   6.187  0.2240  0.0619  0.2371
  116OSM    C1S12046   6.421   1.450   5.907  0.2884  0.0130  0.2646
  116OSM    H1S12047   6.414   1.347   5.949 -2.0401 -1.0259 -2.3735
  116OSM    H1T12048   6.519   1.494   5.933 -0.5292  0.4946  2.8430
  116OSM     NF12049   6.534   1.351   5.709  0.1943 -0.7292 -1.5116
  116OSM    HNF12050   6.618   1.399   5.685 -0.4650  0.8808 -0.7797
  116OSM    C2S12051   6.417   1.423   5.746 -0.5644  0.0070  0.2377
  116OSM    H2S12052   6.334   1.355   5.718  1.0424 -1.9818 -0.0134
  116OSM    C3S12053   6.401   1.550   5.659  0.2158  0.4333  0.2611
  116OSM    H3S12054   6.495   1.610   5.659  0.2808  0.4708  3.0469
  116OSM     O312055   6.319   1.650   5.721 -0.1890 -0.4110 -0.2106
  116OSM    HO312056   6.308   1.605   5.805 -0.7339 -1.2092 -0.6882
  116OSM    C4S12057   6.374   1.525   5.518  0.0376 -0.5182  0.8451
  116OSM    H4S12058   6.461   1.507   5.454 -1.7758 -0.2071 -1.8782
  116OSM    C5S12059   6.258   1.512   5.450 -0.4092  0.0932  0.7052
  116OSM    H5S12060   6.161   1.516   5.503 -0.8037  0.0415 -0.0000
  116OSM    C6S12061   6.248   1.495   5.298  0.2579 -0.3863  0.4772
  116OSM    H6S12062   6.341   1.495   5.238 -0.6194  0.5359 -0.9383
  116OSM    H6T12063   6.187   1.575   5.251  0.4843  0.3917  1.4772
  116OSM    C7S12064   6.185   1.358   5.264 -0.2344 -0.2065  0.2978
  116OSM    H7S12065   6.087   1.352   5.317  0.6832  1.0798  2.2455
  116OSM    H7T12066   6.249   1.284   5.317  0.0789  0.1313  0.3919
  116OSM    C8S12067   6.152   1.350   5.118  0.1076 -0.2708  0.0657
  116OSM    H8S12068   6.228   1.405   5.058 -1.4656  1.0932 -0.7521
  116OSM    H8T12069   6.059   1.407   5.095 -0.0402 -0.4142  0.3137
  116OSM    C9S12070   6.130   1.208   5.063  0.8860  1.2247  0.2839
  116OSM    H9S12071   6.049   1.149   5.111  1.9935 -0.9872 -0.3968
  116OSM    H9T12072   6.221   1.146   5.081  1.2231  1.7223  0.3042
  116OSM   C10S12073   6.110   1.210   4.908  0.5762  0.2619 -0.8796
  116OSM   H10S12074   6.065   1.111   4.881 -0.6213  0.7179 -0.6033
  116OSM   H10T12075   6.207   1.231   4.859  1.4767 -0.6583  0.4515
  116OSM   C11S12076   6.004   1.319   4.868 -0.2203 -0.0051 -0.7051
  116OSM   H11S12077   6.050   1.417   4.892  0.8382 -0.6684  0.0621
  116OSM   H11T12078   5.912   1.323   4.930  2.0575 -1.0183  3.1016
  116OSM   C12S12079   5.958   1.302   4.723 -0.1879 -0.2295  1.0331
  116OSM   H12S12080   6.053   1.290   4.668 -0.5527  0.1929  0.2928
  116OSM   H12T12081   5.908   1.396   4.691  2.5315  1.0270  0.1580
  116OSM   C13S12082   5.860   1.183   4.702  0.0236 -0.2165 -0.0200
  116OSM   H13S12083   5.774   1.184   4.772 -0.1652 -0.9881 -0.2310
  116OSM   H13T12084   5.913   1.090   4.735 -0.4255 -0.3524  0.3265
  116OSM   C14S12085   5.816   1.173   4.560  0.5602 -0.2538 -0.7442
  116OSM   H14S12086   5.910   1.146   4.508  0.9697 -1.2427  0.4838
  116OSM   H14T12087   5.793   1.277   4.526  3.3603  0.9017  0.6013
  116OSM   C15S12088   5.710   1.072   4.540 -0.2033 -0.0072  0.8223
  116OSM   H15S12089   5.616   1.117   4.579  0.5306  0.5842  1.9513
  116OSM   H15T12090   5.718   0.973   4.589 -0.4250  0.9392  2.8814
  116OSM   C16S12091   5.693   1.040   4.390 -0.3614 -0.3789  0.1582
  116OSM   H16S12092   5.792   1.010   4.350 -0.2913  0.2206 -0.1215
  116OSM   H16T12093   5.663   1.131   4.333  0.3881  0.2750  0.7933
  116OSM   C17S12094   5.601   0.921   4.358  0.2005 -0.5214  0.0383
  116OSM   H17S12095   5.504   0.956   4.398  0.5694 -0.4578  0.8963
  116OSM   H17T12096   5.632   0.836   4.422 -3.0782 -1.0575  1.0762
  116OSM   C18S12097   5.590   0.869   4.218  0.4327  0.1463 -0.5208
  116OSM   H18S12098   5.693   0.837   4.188  1.3024  1.2999  1.0657
  116OSM   H18T12099   5.547   0.940   4.144 -0.8961  0.5723  0.6243
  116OSM   H18U12100   5.532   0.775   4.218  0.8199 -0.1398  1.3570
  116OSM    C1F12101   6.547   1.226   5.750 -0.2636 -0.2235  0.4783
  116OSM     OF12102   6.461   1.169   5.817 -0.4938  0.3738  0.6430
  116OSM    C2F12103   6.685   1.163   5.728  0.4563 -0.1765  0.1240
  116OSM    H2F12104   6.669   1.062   5.773 -0.6520 -0.6065 -1.1617
  116OSM    H2G12105   6.762   1.214   5.790  1.3693  0.2497 -1.3103
  116OSM    C3F12106   6.736   1.177   5.579 -0.1430  0.6338 -0.0521
  116OSM    H3F12107   6.826   1.113   5.564 -2.3541 -2.5498 -0.5807
  116OSM    H3G12108   6.761   1.283   5.555  0.1635  0.4710 -0.4673
  116OSM    C4F12109   6.630   1.158   5.470  0.2060  0.4414 -0.1255
  116OSM    H4F12110   6.542   1.224   5.480 -0.2502 -0.3490  1.4024
  116OSM    H4G12111   6.590   1.055   5.479 -2.0419  1.2635 -0.1713
  116OSM    C5F12112   6.691   1.158   5.327  0.3599  0.3129  0.0774
  116OSM    H5F12113   6.784   1.100   5.343  0.6393  0.8713  0.5347
  116OSM    H5G12114   6.720   1.260   5.293 -0.4363  1.2980  2.2065
  116OSM    C6F12115   6.594   1.093   5.226 -1.2083 -0.5087 -0.6450
  116OSM    H6F12116   6.551   1.010   5.286  0.5303  0.6885  2.4510
  116OSM    H6G12117   6.649   1.046   5.141 -0.4631 -0.0039 -0.4419
  116OSM    C7F12118   6.495   1.195   5.162 -0.0037  0.5575 -0.0227
  116OSM    H7F12119   6.432   1.232   5.246  0.7662  2.5811 -0.3016
  116OSM    H7G12120   6.441   1.130   5.090  1.5523  0.3338 -1.0350
  116OSM    C8F12121   6.564   1.317   5.089 -0.2028 -0.1536 -0.2027
  116OSM    H8F12122   6.616   1.380   5.164 -2.3226  0.2912  0.9750
  116OSM    H8G12123   6.488   1.393   5.060 -1.1249 -1.0569 -0.2136
  116OSM    C9F12124   6.667   1.285   4.980  0.1621 -0.1335 -0.1816
  116OSM    H9F12125   6.770   1.270   5.017 -0.4351  0.6795  1.9713
  116OSM   C10F12126   6.637   1.316   4.853 -0.6684  0.0821  0.1797
  116OSM   H10F12127   6.708   1.285   4.775 -1.1575  0.2825 -0.3500
  116OSM   C11F12128   6.504   1.351   4.797  0.0323  0.1336 -0.0606
  116OSM   H11F12129   6.485   1.461   4.800 -0.6279  0.0142  0.4477
  116OSM   H11G12130   6.430   1.299   4.862  0.9243 -1.6089 -0.3932
  116OSM   C12F12131   6.479   1.312   4.648  0.0722 -0.2571  0.4733
  116OSM   H12F12132   6.522   1.211   4.626 -1.3735 -0.3498 -2.4198
  116OSM   H12G12133   6.543   1.386   4.595 -0.7245 -0.8981 -1.4892
  116OSM   C13F12134   6.335   1.320   4.594 -0.3443 -0.2640  0.3493
  116OSM   H13F12135   6.271   1.389   4.653 -1.5986  3.4742 -4.5932
  116OSM   H13G12136   6.294   1.220   4.617 -1.7816  0.0215 -0.8220
  116OSM   C14F12137   6.335   1.354   4.446  0.0659 -0.4003 -0.4740
  116OSM   H14F12138   6.390   1.276   4.390  3.1457  1.3192 -0.0743
  116OSM   H14G12139   6.394   1.449   4.443 -0.9882  0.2806 -0.1533
  116OSM   C15F12140   6.193   1.370   4.382  0.8053 -0.0765 -0.3646
  116OSM   H15F12141   6.141   1.274   4.404  0.3831  0.3893  0.7511
  116OSM   H15G12142   6.193   1.373   4.271 -0.3898 -3.0519 -0.5329
  116OSM   C16F12143   6.118   1.496   4.436 -0.2078 -0.6558 -0.7956
  116OSM   H16F12144   6.189   1.580   4.422  0.9798 -1.4250  0.3773
  116OSM   H16G12145   6.098   1.489   4.545  0.7529 -0.1350 -0.5781
  116OSM   C17F12146   5.995   1.517   4.360 -0.2365 -0.5010 -0.5720
  116OSM   H17F12147   5.939   1.422   4.374 -0.0731 -0.7561 -1.5535
  116OSM   H17G12148   6.010   1.547   4.254 -3.0855 -1.6229 -1.3855
  116OSM   C18F12149   5.909   1.633   4.411  0.0254 -0.5201 -0.0279
  116OSM   H18F12150   5.888   1.615   4.519 -1.4106 -0.9678 -0.3559
  116OSM   H18G12151   5.808   1.626   4.365 -0.9269  0.2788  1.8036
  116OSM   H18H12152   5.962   1.728   4.391  2.6179 -1.8856 -0.0640
  117OSM      N12153   0.145   5.451   6.340  0.8332  0.4866 -0.1132
  117OSM    C1512154   0.038   5.484   6.236 -0.0964 -0.3456 -0.3979
  117OSM   H15A12155  -0.054   5.493   6.291 -0.7336 -0.7686 -1.3654
  117OSM   H15B12156   0.025   5.409   6.159 -1.2182 -1.1774  0.5716
  117OSM   H15C12157   0.060   5.580   6.192  1.5588  0.2429  1.5365
  117OSM    C1412158   0.142   5.564   6.438 -0.3691 -1.2553 -0.5771
  117OSM   H14A12159   0.205   5.539   6.521 -1.5926 -1.4639  0.3192
  117OSM   H14B12160   0.039   5.575   6.470  0.0098 -0.8649  0.5280
  117OSM   H14C12161   0.183   5.651   6.389  0.2615 -0.2527  1.6330
  117OSM    C1312162   0.109   5.319   6.405  0.5136  0.4867 -0.1094
  117OSM   H13A12163   0.160   5.304   6.499  0.5451  1.9871  0.1325
  117OSM   H13B12164   0.136   5.242   6.335  0.5604  0.3839  0.0207
  117OSM   H13C12165   0.003   5.311   6.426  0.2503 -0.2258 -1.5679
  117OSM    C1212166   0.280   5.434   6.280 -0.2337 -0.1301 -0.0257
  117OSM   H12A12167   0.341   5.399   6.362 -0.5762 -1.0521 -0.1607
  117OSM   H12B12168   0.324   5.532   6.266 -0.1200  0.1774  2.1598
  117OSM    C1112169   0.305   5.357   6.148  0.4429  0.1314  0.7383
  117OSM   H11A12170   0.409   5.358   6.109  0.3751 -1.3342  0.4497
  117OSM   H11B12171   0.249   5.410   6.068 -1.2125 -1.8976  0.4692
  117OSM      P12172   0.350   5.114   6.196 -0.3763  0.3001  0.0496
  117OSM    O1312173   0.406   5.136   6.332 -0.1382 -0.2334  0.3256
  117OSM    O1412174   0.288   4.982   6.172  0.3342  0.1711  0.5047
  117OSM    O1112175   0.476   5.130   6.094  0.0200 -0.2995 -0.0137
  117OSM    O1212176   0.251   5.228   6.161 -0.0646  0.1773 -0.0416
  117OSM    C1S12177   0.471   5.095   5.961 -0.2535  0.2859  0.8294
  117OSM    H1S12178   0.369   5.062   5.932  0.0107  0.3414 -0.2335
  117OSM    H1T12179   0.535   5.007   5.936 -1.6991 -0.3660 -0.8289
  117OSM     NF12180   0.479   5.156   5.715  0.3364 -0.5932  0.0860
  117OSM    HNF12181   0.535   5.087   5.669 -2.2285 -2.2857 -0.7298
  117OSM    C2S12182   0.531   5.194   5.852  1.1059 -0.6318  0.0698
  117OSM    H2S12183   0.484   5.293   5.871 -0.5369 -0.9390 -2.0318
  117OSM    C3S12184   0.682   5.209   5.870  0.1094 -0.1161 -0.7655
  117OSM    H3S12185   0.728   5.109   5.857 -0.8108 -0.5299 -0.9223
  117OSM     O312186   0.719   5.245   6.004  0.1156 -0.5234  0.8602
  117OSM    HO312187   0.645   5.210   6.055 -0.8974  1.7784  1.0978
  117OSM    C4S12188   0.748   5.297   5.773 -0.2318 -0.1637  0.1248
  117OSM    H4S12189   0.713   5.401   5.782 -2.9767 -1.0152  0.0544
  117OSM    C5S12190   0.845   5.271   5.684  0.3616  0.3280  0.6305
  117OSM    H5S12191   0.873   5.167   5.664 -1.3981 -0.3627  1.4881
  117OSM    C6S12192   0.893   5.376   5.590 -0.1742  0.4016 -0.1259
  117OSM    H6S12193   1.002   5.393   5.600  0.1202 -1.2062 -0.2947
  117OSM    H6T12194   0.849   5.477   5.608  1.3763  1.8469 -3.5735
  117OSM    C7S12195   0.869   5.328   5.449 -0.1440 -0.4550  0.6528
  117OSM    H7S12196   0.761   5.326   5.424 -0.3231  1.5915  1.0669
  117OSM    H7T12197   0.920   5.232   5.425  0.9864  0.4786 -0.8145
  117OSM    C8S12198   0.926   5.431   5.343 -0.4836  0.5518  1.0844
  117OSM    H8S12199   1.037   5.431   5.343 -0.4375 -0.9609  2.7841
  117OSM    H8T12200   0.884   5.532   5.365 -1.3584  0.1640  1.2407
  117OSM    C9S12201   0.876   5.403   5.204 -0.3152  0.0747 -0.5921
  117OSM    H9S12202   0.768   5.426   5.198 -0.2377  0.2284 -1.4650
  117OSM    H9T12203   0.889   5.294   5.183 -1.6145 -0.4496  1.0950
  117OSM   C10S12204   0.934   5.502   5.093 -0.4520  0.0262 -0.0343
  117OSM   H10S12205   1.036   5.465   5.071 -0.9179 -1.0821 -0.4047
  117OSM   H10T12206   0.932   5.603   5.138 -0.4013  0.4089 -0.8730
  117OSM   C11S12207   0.848   5.501   4.966 -0.0287 -0.6608  0.2465
  117OSM   H11S12208   0.751   5.546   4.994  1.1937  0.6950  2.6167
  117OSM   H11T12209   0.837   5.392   4.944 -2.1730 -0.8094  1.6892
  117OSM   C12S12210   0.916   5.575   4.847 -0.0362  0.1627 -0.5795
  117OSM   H12S12211   1.020   5.538   4.831 -0.3734 -1.3133  0.4348
  117OSM   H12T12212   0.917   5.679   4.886  0.6951 -0.2956  0.6872
  117OSM   C13S12213   0.830   5.567   4.724 -0.4438 -0.4648  0.2624
  117OSM   H13S12214   0.884   5.626   4.647  0.1345 -0.1048  0.9290
  117OSM   H13T12215   0.735   5.616   4.755 -1.1638 -2.4210  1.3198
  117OSM   C14S12216   0.804   5.430   4.660 -0.0768  0.5885 -1.0103
  117OSM   H14S12217   0.742   5.371   4.732  0.4684 -1.1908 -1.9359
  117OSM   H14T12218   0.901   5.379   4.647 -0.3277 -0.2014  0.0510
  117OSM   C15S12219   0.737   5.433   4.517  0.0485 -0.3441  0.0930
  117OSM   H15S12220   0.808   5.479   4.445  0.6224  1.3947  1.6826
  117OSM   H15T12221   0.651   5.503   4.523 -0.4862 -0.7445 -2.1402
  117OSM   C16S12222   0.702   5.290   4.469 -0.0992 -0.3756  1.7398
  117OSM   H16S12223   0.619   5.246   4.529 -2.0731 -0.7673 -1.0959
  117OSM   H16T12224   0.792   5.225   4.479  0.9304  0.7160  0.0885
  117OSM   C17S12225   0.666   5.297   4.315  0.5211 -0.0922 -0.0205
  117OSM   H17S12226   0.730   5.369   4.260  0.3150 -0.5863 -0.9225
  117OSM   H17T12227   0.557   5.321   4.316  0.9312  1.9622  1.5004
  117OSM   C18S12228   0.687   5.170   4.226  0.3999 -0.4272  0.2937
  117OSM   H18S12229   0.623   5.091   4.272  0.8041 -0.3834  0.9520
  117OSM   H18T12230   0.791   5.130   4.224  0.3104 -0.8549  2.0300
  117OSM   H18U12231   0.654   5.205   4.126  0.5050  0.7576  0.6644
  117OSM    C1F12232   0.351   5.168   5.681 -0.0833  1.2849  0.2785
  117OSM     OF12233   0.274   5.224   5.752 -0.3929  0.2104  0.1445
  117OSM    C2F12234   0.300   5.101   5.555  0.4734  0.3904 -0.2339
  117OSM    H2F12235   0.201   5.143   5.528 -0.4266 -0.8515  0.9537
  117OSM    H2G12236   0.266   4.996   5.570 -0.1112  0.7324  0.9689
  117OSM    C3F12237   0.398   5.107   5.439 -0.9419  0.1381  0.2816
  117OSM    H3F12238   0.476   5.028   5.451 -1.5553 -0.5079  0.0590
  117OSM    H3G12239   0.449   5.205   5.428 -0.1807 -0.1570  1.1134
  117OSM    C4F12240   0.330   5.079   5.306 -0.1344 -0.5754  0.6145
  117OSM    H4F12241   0.245   5.149   5.294 -0.8397 -1.6246 -0.9912
  117OSM    H4G12242   0.297   4.974   5.290 -1.0346 -0.4257  1.3888
  117OSM    C5F12243   0.418   5.125   5.182  0.2633 -0.1353 -0.1445
  117OSM    H5F12244   0.499   5.049   5.172  2.0289  1.5537  0.6953
  117OSM    H5G12245   0.460   5.226   5.202  0.0542 -0.1023  0.1349
  117OSM    C6F12246   0.330   5.122   5.055 -0.2789  0.1582 -0.2601
  117OSM    H6F12247   0.232   5.175   5.062 -0.2755 -0.0340  2.0774
  117OSM    H6G12248   0.299   5.016   5.038 -1.5990  0.1774  1.6530
  117OSM    C7F12249   0.404   5.184   4.936 -0.2639  0.0565 -0.1522
  117OSM    H7F12250   0.336   5.170   4.848  1.0523 -1.6757 -0.9470
  117OSM    H7G12251   0.475   5.101   4.918 -0.0425  0.5487 -1.6869
  117OSM    C8F12252   0.462   5.328   4.947  0.1042  0.9262  0.0764
  117OSM    H8F12253   0.545   5.343   4.874  1.2635  2.6908  1.6447
  117OSM    H8G12254   0.497   5.345   5.051 -0.4423 -2.1079  0.8342
  117OSM    C9F12255   0.363   5.435   4.921  0.9282  0.3075 -0.4845
  117OSM    H9F12256   0.308   5.469   5.010  1.0762 -2.3361  0.7016
  117OSM   C10F12257   0.338   5.490   4.798 -0.3482  0.3987 -0.5515
  117OSM   H10F12258   0.269   5.575   4.784  2.2379  2.4425 -1.9061
  117OSM   C11F12259   0.394   5.437   4.669 -0.0007  0.2844  0.3203
  117OSM   H11F12260   0.396   5.326   4.660 -1.9536  0.3070 -0.9424
  117OSM   H11G12261   0.500   5.472   4.663  0.0802 -0.1864 -3.0893
  117OSM   C12F12262   0.328   5.487   4.536 -0.2492  0.9469  0.2284
  117OSM   H12F12263   0.395   5.468   4.449  1.7770 -2.8040  2.3161
  117OSM   H12G12264   0.313   5.596   4.548 -1.8954  0.7486  0.1371
  117OSM   C13F12265   0.184   5.445   4.508 -0.3862 -0.0341 -0.0179
  117OSM   H13F12266   0.131   5.453   4.605  0.5645  0.5912  0.4675
  117OSM   H13G12267   0.186   5.336   4.483 -0.5615 -0.0038 -0.1673
  117OSM   C14F12268   0.115   5.521   4.395  0.0632  0.0008  0.0902
  117OSM   H14F12269   0.125   5.630   4.412 -1.8599  0.4684 -1.4623
  117OSM   H14G12270   0.007   5.498   4.388 -0.4580  1.9341  1.1082
  117OSM   C15F12271   0.168   5.498   4.251  0.4219  0.3043 -0.9413
  117OSM   H15F12272   0.271   5.539   4.248  0.3037  1.0236  1.9362
  117OSM   H15G12273   0.104   5.565   4.190 -0.1227  1.1031  0.4425
  117OSM   C16F12274   0.162   5.353   4.201 -0.3152 -1.0817 -0.9632
  117OSM   H16F12275   0.057   5.316   4.194 -1.3896  1.8076 -1.4628
  117OSM   H16G12276   0.220   5.282   4.264 -1.0020 -0.9816 -0.1945
  117OSM   C17F12277   0.206   5.352   4.054 -1.1446  0.7058 -0.4492
  117OSM   H17F12278   0.313   5.380   4.046 -1.1463  1.9441  2.5331
  117OSM   H17G12279   0.142   5.419   3.993 -2.8404 -1.6885 -1.5024
  117OSM   C18F12280   0.186   5.209   3.992  0.3214 -0.0498 -0.1199
  117OSM   H18F12281   0.257   5.135   4.035 -0.1250 -1.5748 -1.9169
  117OSM   H18G12282   0.208   5.199   3.884 -0.3081  0.4240 -0.2971
  117OSM   H18H12283   0.088   5.165   4.021  2.4316 -3.1425  3.1741
  118OSM      N12284   0.131   4.405   6.032  0.7316  0.1056 -0.0696
  118OSM    C1512285   0.034   4.317   6.103  0.5869 -0.4412  0.3458
  118OSM   H15A12286  -0.044   4.280   6.039 -1.4361  0.3503  2.2329
  118OSM   H15B12287  -0.003   4.373   6.188 -0.4277  0.8642 -0.9194
  118OSM   H15C12288   0.082   4.234   6.153  1.1620 -0.0769  0.4211
  118OSM    C1412289   0.066   4.535   6.018  0.3977  0.2781 -0.1335
  118OSM   H14A12290   0.009   4.569   6.103  0.2387 -0.2831 -0.0121
  118OSM   H14B12291   0.016   4.546   5.923  2.1390 -0.0260 -1.1212
  118OSM   H14C12292   0.141   4.611   6.000  0.4010  0.7500  1.6397
  118OSM    C1312293   0.253   4.426   6.109  0.5445  0.1895  0.5179
  118OSM   H13A12294   0.307   4.516   6.081  1.5683 -1.1321 -2.1573
  118OSM   H13B12295   0.313   4.336   6.105  0.1757 -0.0220 -0.5109
  118OSM   H13C12296   0.220   4.442   6.211  1.5379 -1.1551  1.0829
  118OSM    C1212297   0.167   4.349   5.893  0.7596 -0.0606 -0.1656
  118OSM   H12A12298   0.219   4.424   5.834  2.6687 -0.0216  1.4471
  118OSM   H12B12299   0.082   4.315   5.837  2.4017  0.1002 -2.9368
  118OSM    C1112300   0.259   4.225   5.895  0.2893  0.7525 -1.3803
  118OSM   H11A12301   0.356   4.246   5.945  0.6796 -1.7192 -0.9890
  118OSM   H11B12302   0.282   4.198   5.790 -0.1370 -0.1926 -1.2368
  118OSM      P12303   0.107   4.006   5.898  0.6140 -0.0475  0.4906
  118OSM    O1312304   0.157   3.867   5.921  0.4114  0.2052 -0.0213
  118OSM    O1412305  -0.028   4.037   5.954 -0.3052  0.4839  0.2198
  118OSM    O1112306   0.102   4.034   5.740  0.1817  0.0634  0.1443
  118OSM    O1212307   0.202   4.108   5.961 -0.2861  0.0113  0.1759
  118OSM    C1S12308  -0.005   3.969   5.666 -0.0034 -0.0932 -0.9737
  118OSM    H1S12309  -0.101   4.014   5.699 -1.2788 -3.1103 -0.1569
  118OSM    H1T12310  -0.010   3.862   5.697  0.2078 -0.4518 -2.1544
  118OSM     NF12311  -0.104   3.944   5.445  0.1797  0.1776 -0.4066
  118OSM    HNF12312  -0.135   3.850   5.454  0.5332  0.2283  1.7341
  118OSM    C2S12313   0.019   3.976   5.510  0.2322 -0.2515  0.2432
  118OSM    H2S12314   0.034   4.081   5.479  0.2775 -0.3204  0.0312
  118OSM    C3S12315   0.145   3.896   5.474 -0.6756  0.3124  0.2791
  118OSM    H3S12316   0.128   3.788   5.495 -0.9065  0.0302 -1.2447
  118OSM     O312317   0.263   3.933   5.547  0.5416 -0.1335 -0.1575
  118OSM    HO312318   0.235   4.013   5.592  1.4710  1.0573 -1.5823
  118OSM    C4S12319   0.177   3.893   5.326  0.1190  0.3668  0.0571
  118OSM    H4S12320   0.182   3.997   5.292 -0.1617  0.8673  1.4679
  118OSM    C5S12321   0.190   3.788   5.242 -0.0637 -0.4348  0.7081
  118OSM    H5S12322   0.189   3.690   5.292 -2.2828 -0.1376  1.3178
  118OSM    C6S12323   0.221   3.803   5.097  0.4425  0.5233 -0.0919
  118OSM    H6S12324   0.283   3.714   5.070  0.2942  0.0690  1.0136
  118OSM    H6T12325   0.286   3.889   5.072  0.9736 -0.4789 -2.4495
  118OSM    C7S12326   0.107   3.818   4.989 -0.3724  0.1879  0.3902
  118OSM    H7S12327   0.046   3.909   5.009  1.9740  1.8790  0.2784
  118OSM    H7T12328   0.039   3.734   5.017  1.4405 -0.4228  3.4196
  118OSM    C8S12329   0.163   3.807   4.849  0.0809 -0.0711  0.3319
  118OSM    H8S12330   0.216   3.905   4.857 -0.8282  0.4560  0.0306
  118OSM    H8T12331   0.085   3.824   4.772 -0.8112  0.6041  1.3677
  118OSM    C9S12332   0.249   3.692   4.806 -0.2149 -0.3735 -0.1534
  118OSM    H9S12333   0.190   3.600   4.787 -1.0732  0.3605 -1.1650
  118OSM    H9T12334   0.338   3.679   4.871  1.2095  1.9787 -1.4926
  118OSM   C10S12335   0.318   3.732   4.669 -0.5474 -0.5532  0.4093
  118OSM   H10S12336   0.401   3.658   4.660 -0.2187 -0.3203  1.4420
  118OSM   H10T12337   0.360   3.834   4.675 -1.4846 -0.1936  1.2126
  118OSM   C11S12338   0.230   3.721   4.545 -0.5932  0.1240 -0.2558
  118OSM   H11S12339   0.165   3.811   4.548 -0.5042  0.1638  0.9819
  118OSM   H11T12340   0.160   3.634   4.550 -2.1232  1.3106 -0.1182
  118OSM   C12S12341   0.316   3.718   4.419 -0.2615  0.9962 -0.5932
  118OSM   H12S12342   0.387   3.633   4.424 -0.6356  0.7309  0.4651
  118OSM   H12T12343   0.373   3.813   4.420  0.8504  0.3859  2.2384
  118OSM   C13S12344   0.233   3.715   4.290  0.0723  0.0157  0.0256
  118OSM   H13S12345   0.165   3.803   4.289  0.1758  0.1566 -3.3078
  118OSM   H13T12346   0.168   3.625   4.295 -0.5981  0.4193 -1.1816
  118OSM   C14S12347   0.320   3.706   4.158 -0.3414  0.6281 -0.3732
  118OSM   H14S12348   0.250   3.691   4.074  2.1766  1.4499 -2.7470
  118OSM   H14T12349   0.400   3.629   4.162 -2.2305 -1.4029  1.9429
  118OSM   C15S12350   0.385   3.843   4.131 -0.2044 -0.1359  0.0282
  118OSM   H15S12351   0.446   3.860   4.221 -1.5062 -0.8252  1.0789
  118OSM   H15T12352   0.307   3.923   4.132 -0.0352  0.0204  0.5363
  118OSM   C16S12353   0.485   3.844   4.011  0.0745 -0.5610 -0.6233
  118OSM   H16S12354   0.419   3.816   3.925  0.0737  0.4030 -0.9500
  118OSM   H16T12355   0.567   3.770   4.017 -0.8633 -1.6228 -0.5782
  118OSM   C17S12356   0.561   3.978   3.991 -0.1042 -0.6883  0.8212
  118OSM   H17S12357   0.488   4.062   3.983  1.4473  0.6231 -0.0638
  118OSM   H17T12358   0.610   3.972   3.891  2.3000  0.1501  1.8790
  118OSM   C18S12359   0.667   4.019   4.096 -0.3640  0.6738  0.0132
  118OSM   H18S12360   0.731   3.931   4.119 -1.6247 -1.4786 -3.7058
  118OSM   H18T12361   0.617   4.037   4.193  1.6647  3.0546  0.6988
  118OSM   H18U12362   0.730   4.102   4.058  1.7044 -0.3503  1.0600
  118OSM    C1F12363  -0.225   4.016   5.446 -0.0465 -0.3382  0.5733
  118OSM     OF12364  -0.210   4.136   5.459 -0.1900 -0.2101 -0.0637
  118OSM    C2F12365  -0.355   3.939   5.428 -0.3073 -0.8611 -0.7286
  118OSM    H2F12366  -0.421   3.963   5.515  2.6838  0.6697  1.2732
  118OSM    H2G12367  -0.324   3.832   5.430  0.4683 -0.6284  0.7085
  118OSM    C3F12368  -0.425   3.974   5.292 -0.6383 -0.1473 -0.4684
  118OSM    H3F12369  -0.476   4.072   5.304  0.6222  0.3799  0.9328
  118OSM    H3G12370  -0.508   3.903   5.271 -1.6402  0.5111  1.1209
  118OSM    C4F12371  -0.319   3.977   5.175 -0.4061  0.8600  0.1670
  118OSM    H4F12372  -0.261   3.882   5.168 -1.1050  0.4647 -0.3693
  118OSM    H4G12373  -0.242   4.056   5.185 -0.5370  0.8982  0.9248
  118OSM    C5F12374  -0.390   3.988   5.038 -0.1866  0.1034 -0.3376
  118OSM    H5F12375  -0.421   4.095   5.045 -0.9347 -0.0742 -0.9561
  118OSM    H5G12376  -0.485   3.936   5.019 -0.5148  0.9161 -1.0045
  118OSM    C6F12377  -0.304   3.977   4.909  0.5278 -0.5123  0.0307
  118OSM    H6F12378  -0.277   3.872   4.887  1.0374 -1.1561  3.3077
  118OSM    H6G12379  -0.211   4.034   4.933  0.9502 -0.7276 -1.0180
  118OSM    C7F12380  -0.367   4.038   4.788 -0.6115  1.1598 -0.3900
  118OSM    H7F12381  -0.382   4.147   4.806 -0.9049  0.9040  1.1096
  118OSM    H7G12382  -0.470   3.995   4.781  0.5614 -1.7917 -1.0813
  118OSM    C8F12383  -0.293   4.010   4.654  0.4440 -1.1056  0.0653
  118OSM    H8F12384  -0.185   4.034   4.652  0.6641 -2.1324 -0.8716
  118OSM    H8G12385  -0.335   4.082   4.580 -1.5352 -2.8709 -0.6222
  118OSM    C9F12386  -0.310   3.867   4.606  0.3777  0.4325 -0.3750
  118OSM    H9F12387  -0.322   3.797   4.690 -0.2670  1.0411  0.0472
  118OSM   C10F12388  -0.318   3.828   4.486  0.7376 -0.1110 -0.5360
  118OSM   H10F12389  -0.345   3.725   4.458 -2.0489  1.0724 -2.7466
  118OSM   C11F12390  -0.301   3.906   4.357  0.2308  0.4469 -0.3546
  118OSM   H11F12391  -0.265   4.008   4.379  0.4652  0.5088 -0.9970
  118OSM   H11G12392  -0.392   3.909   4.293  0.6655  0.2033 -0.9952
  118OSM   C12F12393  -0.194   3.842   4.271 -0.2536 -0.4367 -0.4809
  118OSM   H12F12394  -0.210   3.733   4.258 -0.3487 -0.6483  1.1674
  118OSM   H12G12395  -0.101   3.851   4.331 -1.0612  0.4601  0.6996
  118OSM   C13F12396  -0.163   3.928   4.145  0.5603  0.0056 -0.1728
  118OSM   H13F12397  -0.142   4.032   4.177 -0.4602  0.6685 -1.5536
  118OSM   H13G12398  -0.250   3.927   4.077  1.2330 -0.2575 -1.0422
  118OSM   C14F12399  -0.049   3.868   4.064 -0.1028 -0.4075 -0.5559
  118OSM   H14F12400  -0.067   3.759   4.053  0.1105 -0.3601 -1.4659
  118OSM   H14G12401   0.043   3.874   4.127 -1.6923 -1.3509  2.0037
  118OSM   C15F12402  -0.015   3.936   3.933  0.3334 -0.6702  0.9665
  118OSM   H15F12403  -0.094   3.920   3.857  0.7380 -0.3765  0.4712
  118OSM   H15G12404   0.080   3.896   3.890  1.1500  2.0428  0.0016
  118OSM   C16F12405  -0.009   4.092   3.931 -0.2259  0.2916  0.0633
  118OSM   H16F12406  -0.103   4.141   3.964 -0.6896 -0.8207  0.4457
  118OSM   H16G12407  -0.002   4.127   3.825  0.3624  2.6087  0.8087
  118OSM   C17F12408   0.111   4.156   4.015 -0.3419  0.1782 -0.8437
  118OSM   H17F12409   0.206   4.101   4.000 -1.1333 -2.1202  1.7203
  118OSM   H17G12410   0.089   4.145   4.123  1.1013 -0.6407 -0.6106
  118OSM   C18F12411   0.134   4.304   3.994  0.8363 -0.7607 -0.1824
  118OSM   H18F12412   0.143   4.323   3.885  0.7709  1.4264  0.1562
  118OSM   H18G12413   0.221   4.334   4.056 -1.6553  2.8593  1.9805
  118OSM   H18H12414   0.045   4.368   4.014  1.8904  1.1127 -1.2419
  119OSM      N12415   2.987   0.510   6.047  0.3142 -0.2382 -0.1847
  119OSM    C1512416   2.990   0.419   6.157  0.5667 -0.0048 -0.1733
  119OSM   H15A12417   2.889   0.407   6.192  0.9871  0.8065  1.4717
  119OSM   H15B12418   3.059   0.451   6.234  0.2179  2.2289 -0.7009
  119OSM   H15C12419   3.025   0.324   6.122 -0.1249  0.7258 -3.0977
  119OSM    C1412420   2.893   0.452   5.942  0.3917 -0.2085 -0.0877
  119OSM   H14A12421   2.918   0.355   5.902 -0.6301 -1.0679  1.2426
  119OSM   H14B12422   2.873   0.528   5.868  3.8228  0.0463 -0.9427
  119OSM   H14C12423   2.798   0.435   5.991  1.2313 -0.6128  1.5021
  119OSM    C1312424   2.943   0.645   6.091 -0.7877  0.2022  0.5053
  119OSM   H13A12425   3.024   0.701   6.135 -0.1706 -0.6036  0.4288
  119OSM   H13B12426   2.872   0.636   6.172  1.5671 -0.4475  2.6239
  119OSM   H13C12427   2.912   0.711   6.012  0.5197  0.4208  0.1459
  119OSM    C1212428   3.124   0.515   5.981 -0.4979  0.5373  0.3501
  119OSM   H12A12429   3.190   0.550   6.058 -2.1513  2.1292  1.1270
  119OSM   H12B12430   3.117   0.591   5.904 -0.4173 -0.2707 -0.4701
  119OSM    C1112431   3.177   0.391   5.909 -0.4687 -0.3631  0.0086
  119OSM   H11A12432   3.281   0.416   5.879 -0.4237 -0.5466  0.0093
  119OSM   H11B12433   3.122   0.372   5.814  1.0264 -1.0529 -0.7590
  119OSM      P12434   3.300   0.237   6.091 -0.0366 -0.4188 -0.2465
  119OSM    O1312435   3.317   0.360   6.171  0.2049 -0.7133 -0.1271
  119OSM    O1412436   3.267   0.113   6.163 -0.6256 -0.4075  0.1154
  119OSM    O1112437   3.418   0.222   5.991 -0.2201 -0.5045  0.7572
  119OSM    O1212438   3.178   0.271   5.995  0.0541 -0.4468  0.1652
  119OSM    C1S12439   3.448   0.092   5.924  0.0377  0.4312 -0.2541
  119OSM    H1S12440   3.394   0.011   5.977 -3.7815  2.1196 -1.1947
  119OSM    H1T12441   3.558   0.076   5.919  0.1615  1.4066 -1.0542
  119OSM     NF12442   3.370  -0.035   5.722  0.4872 -0.1579 -0.4364
  119OSM    HNF12443   3.444  -0.064   5.662 -1.5514  0.3666 -3.4421
  119OSM    C2S12444   3.384   0.100   5.780 -0.4220 -0.0906 -0.1207
  119OSM    H2S12445   3.285   0.149   5.793 -0.6471 -0.1975 -1.3876
  119OSM    C3S12446   3.477   0.196   5.690  0.6641  0.0582  0.4162
  119OSM    H3S12447   3.570   0.136   5.677 -0.1097 -1.1506  0.2533
  119OSM     O312448   3.504   0.324   5.743  0.4363 -0.3001 -0.3832
  119OSM    HO312449   3.490   0.300   5.835  1.2339  1.9502  0.3791
  119OSM    C4S12450   3.421   0.201   5.550  0.2944  0.1778 -0.0318
  119OSM    H4S12451   3.461   0.131   5.475  0.5234 -0.8372  1.0135
  119OSM    C5S12452   3.326   0.291   5.514  0.2096 -0.4529 -0.0177
  119OSM    H5S12453   3.276   0.366   5.577 -0.4582  0.1892 -1.2769
  119OSM    C6S12454   3.315   0.328   5.367 -0.0777 -0.1865 -0.0028
  119OSM    H6S12455   3.387   0.412   5.356 -1.4907  1.0808  0.0066
  119OSM    H6T12456   3.213   0.364   5.341  0.5517  2.3299  0.7467
  119OSM    C7S12457   3.349   0.222   5.263  0.5298  0.2975 -0.3166
  119OSM    H7S12458   3.291   0.128   5.280  1.3692  0.0387  1.2815
  119OSM    H7T12459   3.455   0.193   5.274 -0.1750 -1.7774  2.0588
  119OSM    C8S12460   3.331   0.277   5.117 -0.1884  0.0877 -0.5402
  119OSM    H8S12461   3.382   0.375   5.120  1.5109 -0.7634  2.1385
  119OSM    H8T12462   3.222   0.287   5.100 -0.8493 -2.2379  1.5851
  119OSM    C9S12463   3.386   0.194   5.004  0.7651 -0.6297  0.7059
  119OSM    H9S12464   3.326   0.101   5.006 -0.1563 -0.1666 -1.8601
  119OSM    H9T12465   3.496   0.180   5.017  0.9835  0.4316  0.1457
  119OSM   C10S12466   3.363   0.260   4.861  0.7773 -0.4791 -0.1982
  119OSM   H10S12467   3.266   0.314   4.859  2.3710  2.5978 -1.8653
  119OSM   H10T12468   3.340   0.188   4.780  0.7055  1.3536 -1.8888
  119OSM   C11S12469   3.480   0.346   4.816 -0.5299  0.1057 -0.3476
  119OSM   H11S12470   3.572   0.285   4.810  0.8695  2.1788 -1.4460
  119OSM   H11T12471   3.491   0.421   4.898 -1.3720  0.1761 -0.2908
  119OSM   C12S12472   3.449   0.401   4.679  0.1618 -0.1927  0.2541
  119OSM   H12S12473   3.346   0.443   4.674  0.6517  1.0562  0.3256
  119OSM   H12T12474   3.445   0.314   4.611 -0.6632 -0.4773  0.6475
  119OSM   C13S12475   3.567   0.486   4.625 -0.2133 -0.4826 -0.0900
  119OSM   H13S12476   3.651   0.414   4.633  0.2419  0.2229  2.4050
  119OSM   H13T12477   3.586   0.568   4.698 -0.5556 -0.7024  0.2477
  119OSM   C14S12478   3.541   0.541   4.484  0.2389  0.3550 -0.4641
  119OSM   H14S12479   3.448   0.599   4.503  0.8817  0.6461  2.1232
  119OSM   H14T12480   3.519   0.460   4.410 -1.8939  2.3920 -2.2173
  119OSM   C15S12481   3.659   0.619   4.414  0.5140 -0.2255 -0.4652
  119OSM   H15S12482   3.698   0.693   4.488  0.4267 -1.9780  1.4467
  119OSM   H15T12483   3.623   0.682   4.330 -1.2959 -2.3948 -1.4111
  119OSM   C16S12484   3.778   0.527   4.374 -0.5708 -0.5961 -0.5053
  119OSM   H16S12485   3.743   0.477   4.282  0.6919  0.7821 -1.7739
  119OSM   H16T12486   3.784   0.451   4.455  0.8049  0.6040  0.5980
  119OSM   C17S12487   3.916   0.586   4.355 -0.3545 -0.3313  0.1375
  119OSM   H17S12488   3.989   0.505   4.337 -0.4426 -0.3211 -0.2735
  119OSM   H17T12489   3.940   0.635   4.452  0.2379  1.1622 -0.7491
  119OSM   C18S12490   3.932   0.693   4.246  0.3596  0.1099 -0.0670
  119OSM   H18S12491   3.848   0.765   4.250 -0.3338 -0.5129 -2.3568
  119OSM   H18T12492   3.932   0.641   4.148  0.0499  2.2330 -1.2474
  119OSM   H18U12493   4.025   0.753   4.250  0.8751 -0.6018 -0.9921
  119OSM    C1F12494   3.271  -0.117   5.761  0.0234  0.4943  0.0488
  119OSM     OF12495   3.193  -0.079   5.842  0.1605 -0.4041 -0.7271
  119OSM    C2F12496   3.282  -0.266   5.726 -0.7913 -0.2159  0.5948
  119OSM    H2F12497   3.303  -0.302   5.828  0.2635 -0.4673  0.3003
  119OSM    H2G12498   3.369  -0.295   5.664  0.1386  1.8560  0.8230
  119OSM    C3F12499   3.155  -0.327   5.656 -0.5063 -0.0938  0.5179
  119OSM    H3F12500   3.063  -0.325   5.718  0.6872 -0.5414  2.3825
  119OSM    H3G12501   3.172  -0.435   5.635  0.1915  0.1533 -0.2269
  119OSM    C4F12502   3.138  -0.263   5.516  0.2500 -0.3516 -0.4251
  119OSM    H4F12503   3.126  -0.347   5.444  0.2222  1.5336 -2.7520
  119OSM    H4G12504   3.236  -0.218   5.492  1.1878 -2.3460 -0.5122
  119OSM    C5F12505   3.027  -0.155   5.506  0.8011  0.2148  0.6974
  119OSM    H5F12506   3.077  -0.059   5.533 -0.1308  0.1462  2.8939
  119OSM    H5G12507   2.946  -0.178   5.579  0.1607  1.7001  0.4937
  119OSM    C6F12508   2.958  -0.144   5.368 -0.3167  0.2351 -0.5501
  119OSM    H6F12509   2.889  -0.057   5.373  0.5662  1.0321 -1.8001
  119OSM    H6G12510   2.898  -0.236   5.348  1.4036 -0.6311 -1.9293
  119OSM    C7F12511   3.054  -0.128   5.250 -0.3881 -1.1711  1.0016
  119OSM    H7F12512   3.150  -0.181   5.266  1.1001  0.7111 -1.0748
  119OSM    H7G12513   3.087  -0.022   5.263 -0.7863 -0.8192 -0.6266
  119OSM    C8F12514   3.003  -0.140   5.106 -0.0298 -0.2335 -0.9192
  119OSM    H8F12515   2.978  -0.248   5.107  0.2238 -0.2914 -0.6073
  119OSM    H8G12516   3.081  -0.113   5.031 -1.9203  0.2214 -2.8380
  119OSM    C9F12517   2.870  -0.078   5.074 -0.1625  0.2236  1.0508
  119OSM    H9F12518   2.789  -0.113   5.139  0.5527 -1.2592  1.2099
  119OSM   C10F12519   2.844   0.007   4.972  0.4355 -0.2002  0.6536
  119OSM   H10F12520   2.753   0.068   4.984  0.9764  1.1394 -1.5875
  119OSM   C11F12521   2.927   0.053   4.860 -0.5648 -0.1096  0.4060
  119OSM   H11F12522   3.026   0.003   4.856 -0.2430  0.5203 -3.5671
  119OSM   H11G12523   2.953   0.159   4.879 -0.6196 -0.0767  0.2997
  119OSM   C12F12524   2.864   0.030   4.719  0.2661 -0.0314 -0.1336
  119OSM   H12F12525   2.776   0.096   4.705 -0.5018 -0.9851  0.0419
  119OSM   H12G12526   2.837  -0.078   4.727 -0.4478  0.0969 -0.7312
  119OSM   C13F12527   2.956   0.017   4.596  0.1124 -0.5518 -0.5789
  119OSM   H13F12528   2.896  -0.004   4.505 -1.5119 -2.6530  0.8966
  119OSM   H13G12529   3.018  -0.074   4.610  0.6480  0.1346  2.0918
  119OSM   C14F12530   3.046   0.143   4.582 -0.9495 -1.1202  0.2609
  119OSM   H14F12531   3.147   0.129   4.624 -0.3413 -1.5692 -1.2582
  119OSM   H14G12532   3.013   0.223   4.651  0.0405 -1.8082  1.5592
  119OSM   C15F12533   3.051   0.177   4.432 -0.3924 -0.3524 -0.2404
  119OSM   H15F12534   2.945   0.199   4.405 -0.6242 -0.7110  0.3594
  119OSM   H15G12535   3.092   0.091   4.375 -1.8499 -1.8627  0.8785
  119OSM   C16F12536   3.134   0.296   4.390  0.4328 -0.0136  0.2649
  119OSM   H16F12537   3.151   0.299   4.280 -1.1298  2.3077  0.0092
  119OSM   H16G12538   3.230   0.313   4.443  0.4224 -0.9058  0.5890
  119OSM   C17F12539   3.054   0.426   4.406  0.3945  0.8109 -0.3866
  119OSM   H17F12540   3.047   0.440   4.516  0.7784 -1.7618  0.0228
  119OSM   H17G12541   2.949   0.412   4.373 -0.3408  0.6975  1.8192
  119OSM   C18F12542   3.116   0.543   4.334 -0.3074 -0.0968  0.8676
  119OSM   H18F12543   3.089   0.536   4.227 -0.3541 -0.6632  0.9131
  119OSM   H18G12544   3.225   0.532   4.351 -0.5435 -1.2131  1.8215
  119OSM   H18H12545   3.067   0.633   4.377 -1.7630 -0.3497 -0.1855
  120OSM      N12546   5.971   4.817   6.226 -0.1759 -0.0858 -0.2017
  120OSM    C1512547   5.985   4.776   6.088 -0.0463 -0.6993 -0.2985
  120OSM   H15A12548   6.025   4.677   6.082  1.7553 -0.0205  0.0503
  120OSM   H15B12549   6.061   4.836   6.040  1.0224  1.4530  3.6182
  120OSM   H15C12550   5.897   4.788   6.026  0.6539  0.1443 -1.1734
  120OSM    C1412551   5.891   4.946   6.226  0.6133 -0.0296  0.5465
  120OSM   H14A12552   5.935   5.008   6.150 -0.2733  0.0059  0.0500
  120OSM   H14B12553   5.890   4.989   6.325 -0.0738  1.7155 -0.1696
  120OSM   H14C12554   5.792   4.917   6.194  1.2974 -0.6113 -1.1334
  120OSM    C1312555   5.894   4.712   6.293 -1.1823 -0.6603  0.0064
  120OSM   H13A12556   5.870   4.726   6.397 -2.0310  0.2702 -0.2963
  120OSM   H13B12557   5.950   4.620   6.281  0.5369  0.0559  2.0500
  120OSM   H13C12558   5.797   4.701   6.245 -0.3708 -2.4682 -1.3523
  120OSM    C1212559   6.099   4.836   6.306 -0.0340  0.2595 -0.4229
  120OSM   H12A12560   6.155   4.744   6.314  0.5055  0.5823 -0.4239
  120OSM   H12B12561   6.075   4.872   6.405  0.8285 -1.4878  0.4507
  120OSM    C1112562   6.202   4.937   6.256 -0.2749  0.3305  0.0447
  120OSM   H11A12563   6.229   4.919   6.150 -0.5489  0.3650 -0.0319
  120OSM   H11B12564   6.290   4.906   6.316 -0.8176 -0.0761  0.6457
  120OSM      P12565   6.221   5.164   6.372 -0.3137  0.0453  0.3130
  120OSM    O1312566   6.107   5.216   6.448 -0.0650  0.0802 -0.1048
  120OSM    O1412567   6.332   5.110   6.447  0.0974  0.3540  0.4490
  120OSM    O1112568   6.270   5.284   6.282  0.5804  0.3156  0.2833
  120OSM    O1212569   6.161   5.072   6.262 -0.0189  0.0513  0.1730
  120OSM    C1S12570   6.347   5.276   6.162 -0.5248 -0.1179  0.2215
  120OSM    H1S12571   6.349   5.169   6.130 -0.6089 -0.4880  1.4072
  120OSM    H1T12572   6.455   5.297   6.171 -0.2535 -0.6773 -1.4164
  120OSM     NF12573   6.396   5.379   5.933  0.3007 -0.0710 -0.6091
  120OSM    HNF12574   6.452   5.462   5.929 -0.8119  0.7988  0.8981
  120OSM    C2S12575   6.296   5.364   6.041 -0.6576  0.4244  0.0302
  120OSM    H2S12576   6.218   5.300   5.994  0.3948 -0.8832 -0.0199
  120OSM    C3S12577   6.243   5.497   6.090  0.5078 -0.0007 -0.2364
  120OSM    H3S12578   6.310   5.555   6.156  0.3245 -0.4106  0.3284
  120OSM     O312579   6.129   5.480   6.180 -0.1553  0.2127 -0.1080
  120OSM    HO312580   6.133   5.386   6.200 -1.2055  0.3090  0.5988
  120OSM    C4S12581   6.196   5.583   5.979  0.1530 -0.1702  0.3480
  120OSM    H4S12582   6.111   5.542   5.923 -0.2337 -0.5930  1.2341
  120OSM    C5S12583   6.239   5.711   5.956 -0.1439  0.5149 -0.1259
  120OSM    H5S12584   6.302   5.761   6.031  0.5218  1.1185 -1.0622
  120OSM    C6S12585   6.186   5.798   5.851  0.5922  0.0327 -0.4021
  120OSM    H6S12586   6.263   5.878   5.853 -0.3888  1.0054  1.4551
  120OSM    H6T12587   6.088   5.826   5.893  0.0417 -0.7378 -1.1448
  120OSM    C7S12588   6.152   5.738   5.715 -0.1763  0.0535  0.5880
  120OSM    H7S12589   6.081   5.656   5.739  0.5870 -0.6063  0.6398
  120OSM    H7T12590   6.246   5.690   5.680 -0.8123 -0.3609 -0.6327
  120OSM    C8S12591   6.088   5.834   5.620  0.2914 -0.6429 -0.1159
  120OSM    H8S12592   6.149   5.927   5.615  0.0195 -0.1847  3.1719
  120OSM    H8T12593   5.990   5.862   5.665 -0.3065 -2.3725 -0.2596
  120OSM    C9S12594   6.079   5.780   5.483 -0.1154  0.0306 -0.5201
  120OSM    H9S12595   6.051   5.673   5.489 -0.8246  0.3078  1.6458
  120OSM    H9T12596   6.183   5.799   5.447  0.5418  3.0787  2.4899
  120OSM   C10S12597   5.990   5.865   5.387 -0.4969  0.3280 -0.6016
  120OSM   H10S12598   5.993   5.970   5.423 -0.1356 -0.3020  1.2832
  120OSM   H10T12599   5.881   5.844   5.391 -0.6066  0.5896 -1.8453
  120OSM   C11S12600   6.032   5.848   5.244 -0.0347 -0.0552 -0.4742
  120OSM   H11S12601   6.141   5.867   5.237  0.3123 -2.2300 -1.9167
  120OSM   H11T12602   5.989   5.920   5.172  0.9177 -0.3438 -1.3520
  120OSM   C12S12603   5.996   5.708   5.197 -0.1459  0.3006  0.3522
  120OSM   H12S12604   6.034   5.635   5.272 -0.5657  0.3271  0.5972
  120OSM   H12T12605   6.049   5.699   5.100  0.3545 -0.8846  0.7209
  120OSM   C13S12606   5.845   5.688   5.162 -0.4403 -0.2647 -0.6804
  120OSM   H13S12607   5.796   5.774   5.110 -2.6009 -1.0796 -0.0991
  120OSM   H13T12608   5.781   5.678   5.253 -0.7650 -1.6529 -1.0327
  120OSM   C14S12609   5.839   5.567   5.070 -0.2993  0.0822  0.5011
  120OSM   H14S12610   5.883   5.474   5.112 -0.7284 -0.2080  0.3131
  120OSM   H14T12611   5.896   5.598   4.979  0.7011 -3.9248 -0.4158
  120OSM   C15S12612   5.700   5.540   5.019 -0.0115 -0.2221  0.7559
  120OSM   H15S12613   5.682   5.626   4.951 -0.6791 -0.1655  0.9990
  120OSM   H15T12614   5.619   5.536   5.094  1.0786 -1.3441  1.9238
  120OSM   C16S12615   5.686   5.409   4.947 -0.3838 -0.0224 -0.2284
  120OSM   H16S12616   5.584   5.393   4.907 -0.8088  0.0928  0.7865
  120OSM   H16T12617   5.700   5.330   5.023 -0.1480  0.7275  0.5202
  120OSM   C17S12618   5.784   5.383   4.825  0.8854 -0.1892  0.0950
  120OSM   H17S12619   5.759   5.285   4.780  1.0494 -0.4864  0.6424
  120OSM   H17T12620   5.887   5.374   4.865  0.7079 -1.9329  0.2117
  120OSM   C18S12621   5.766   5.482   4.705  0.2024  0.2252 -0.0779
  120OSM   H18S12622   5.827   5.443   4.620 -0.0957  1.1261 -0.7143
  120OSM   H18T12623   5.789   5.587   4.731  2.4760 -0.0475 -0.7036
  120OSM   H18U12624   5.659   5.480   4.677 -0.4866  0.4356  2.3502
  120OSM    C1F12625   6.448   5.274   5.872 -0.0339 -1.4172  0.5542
  120OSM     OF12626   6.425   5.160   5.893  0.0973  0.1544 -0.4415
  120OSM    C2F12627   6.569   5.317   5.782  0.6815 -0.7026 -0.1682
  120OSM    H2F12628   6.616   5.223   5.745 -0.9790 -1.1650 -1.2072
  120OSM    H2G12629   6.638   5.373   5.848  0.9997  0.7746 -1.6797
  120OSM    C3F12630   6.522   5.414   5.668 -0.2645  0.1071 -0.2623
  120OSM    H3F12631   6.511   5.516   5.709  0.8283  1.7344 -3.6479
  120OSM    H3G12632   6.418   5.390   5.637 -1.5994 -0.2030  3.7992
  120OSM    C4F12633   6.615   5.412   5.549 -0.1019 -0.1731 -0.2449
  120OSM    H4F12634   6.630   5.306   5.520 -0.6882 -1.0818  2.4461
  120OSM    H4G12635   6.711   5.444   5.595 -0.7928  0.6296  0.6817
  120OSM    C5F12636   6.584   5.515   5.442 -0.2645  1.0188 -0.2260
  120OSM    H5F12637   6.644   5.608   5.455  2.1730 -0.1938 -2.0025
  120OSM    H5G12638   6.477   5.546   5.450 -0.9090 -0.2682 -2.6832
  120OSM    C6F12639   6.607   5.462   5.299 -0.5500 -0.0571 -0.8566
  120OSM    H6F12640   6.554   5.365   5.294 -0.3154 -0.5551  3.0441
  120OSM    H6G12641   6.716   5.456   5.277  0.1063  2.2841  1.2224
  120OSM    C7F12642   6.549   5.566   5.209  0.0976 -1.3259  0.3027
  120OSM    H7F12643   6.588   5.670   5.220  0.0840 -1.0781 -1.5989
  120OSM    H7G12644   6.440   5.567   5.231  0.5483 -1.4575  2.8117
  120OSM    C8F12645   6.571   5.558   5.056 -0.1305  0.0582 -0.0638
  120OSM    H8F12646   6.671   5.603   5.038 -0.5124  1.0762  0.2708
  120OSM    H8G12647   6.501   5.616   4.993  0.6200 -2.3680 -3.4161
  120OSM    C9F12648   6.567   5.419   5.004 -1.5436 -0.4182  0.4037
  120OSM    H9F12649   6.663   5.367   5.020 -0.7245  0.5684 -1.0912
  120OSM   C10F12650   6.466   5.372   4.934 -0.9131  0.8808 -0.0194
  120OSM   H10F12651   6.476   5.267   4.903  2.6690 -0.1335  3.6142
  120OSM   C11F12652   6.333   5.443   4.903  0.4185 -0.6528  0.3354
  120OSM   H11F12653   6.332   5.491   4.803  0.7102  0.8094  1.0053
  120OSM   H11G12654   6.318   5.535   4.964 -0.8251  0.2588 -1.2622
  120OSM   C12F12655   6.201   5.362   4.910  1.2070 -0.3127 -0.1679
  120OSM   H12F12656   6.193   5.285   4.830 -1.1361 -0.8408  0.4953
  120OSM   H12G12657   6.115   5.425   4.879  0.1170 -1.9225 -0.5578
  120OSM   C13F12658   6.160   5.301   5.052 -0.6852  0.6127  0.3353
  120OSM   H13F12659   6.208   5.202   5.054 -0.4964  0.7082  1.2026
  120OSM   H13G12660   6.051   5.276   5.048  0.2987 -4.9050  0.7469
  120OSM   C14F12661   6.189   5.390   5.174 -0.1610  0.0328  0.0075
  120OSM   H14F12662   6.173   5.497   5.149 -1.7195 -0.5636 -1.7088
  120OSM   H14G12663   6.299   5.381   5.188 -0.0324 -3.8338 -2.1321
  120OSM   C15F12664   6.115   5.352   5.301  0.0429 -0.1713  0.4558
  120OSM   H15F12665   6.108   5.241   5.303  2.0147 -0.3199  0.2971
  120OSM   H15G12666   6.009   5.384   5.290 -0.1174 -1.0945 -0.9222
  120OSM   C16F12667   6.184   5.407   5.423  0.0875  0.2387  0.6346
  120OSM   H16F12668   6.211   5.514   5.411  3.4353 -0.2854  2.1243
  120OSM   H16G12669   6.281   5.359   5.450  1.4477  2.2818 -0.3971
  120OSM   C17F12670   6.096   5.387   5.549 -0.6840  0.1880 -0.9381
  120OSM   H17F12671   5.987   5.405   5.545 -1.0291 -1.4740  0.0120
  120OSM   H17G12672   6.122   5.472   5.616 -0.4532 -0.9560  0.4934
  120OSM   C18F12673   6.109   5.250   5.613 -0.2095  0.0159  0.6207
  120OSM   H18F12674   6.214   5.220   5.635 -1.0639 -1.1639  3.6328
  120OSM   H18G12675   6.065   5.175   5.543 -0.5754  0.7744  0.0189
  120OSM   H18H12676   6.047   5.234   5.704 -1.7697 -0.4356 -0.4883
  121OSM      N12677   5.782   6.709   6.291 -0.0932  0.4867 -0.1817
  121OSM    C1512678   5.790   6.791   6.415 -0.4353  0.0374  0.0090
  121OSM   H15A12679   5.688   6.797   6.449 -0.6097 -0.0776 -0.4895
  121OSM   H15B12680   5.826   6.889   6.386  1.7843 -1.4446 -2.8027
  121OSM   H15C12681   5.851   6.743   6.491 -1.3194 -1.1441 -0.0111
  121OSM    C1412682   5.918   6.695   6.229 -0.3042 -0.4075 -0.5527
  121OSM   H14A12683   5.904   6.646   6.134 -0.9702 -0.1210 -0.6116
  121OSM   H14B12684   5.981   6.638   6.296  0.5231 -0.0900 -1.0514
  121OSM   H14C12685   5.967   6.791   6.224 -0.3092 -0.3567  0.2756
  121OSM    C1312686   5.731   6.578   6.343 -0.0143 -0.1080 -0.6459
  121OSM   H13A12687   5.711   6.500   6.270 -1.6329 -0.2104 -0.1492
  121OSM   H13B12688   5.633   6.592   6.386 -0.4970 -0.5531 -1.5589
  121OSM   H13C12689   5.796   6.538   6.420  0.2353 -3.0359 -2.1949
  121OSM    C1212690   5.686   6.770   6.194 -0.1612  0.1473 -1.4305
  121OSM   H12A12691   5.593   6.793   6.246  0.5194  0.3333 -0.2583
  121OSM   H12B12692   5.673   6.704   6.110 -1.1611 -1.7097  0.0894
  121OSM    C1112693   5.718   6.900   6.115 -0.4794  0.3429  0.4527
  121OSM   H11A12694   5.637   6.923   6.043  0.1691  2.9298  0.4683
  121OSM   H11B12695   5.807   6.872   6.054 -1.6273  0.7568 -1.4934
  121OSM      P12696   5.615   7.094   6.244  0.2323  0.0732 -0.1194
  121OSM    O1312697   5.499   6.997   6.269 -0.9558  0.8116 -0.3402
  121OSM    O1412698   5.647   7.180   6.355  0.1075 -0.0165 -0.9063
  121OSM    O1112699   5.577   7.172   6.104  0.0116  0.1104 -0.2525
  121OSM    O1212700   5.742   7.008   6.198 -0.1058  0.2560  0.5937
  121OSM    C1S12701   5.646   7.291   6.068  0.4595  0.5053  0.4689
  121OSM    H1S12702   5.743   7.302   6.121  1.3961 -0.8165 -0.8885
  121OSM    H1T12703   5.578   7.378   6.078  1.6949  1.5404  0.0562
  121OSM     NF12704   5.761   7.406   5.867  0.6906 -0.2854 -0.3621
  121OSM    HNF12705   5.700   7.465   5.815  0.4671 -1.6821 -1.7534
  121OSM    C2S12706   5.696   7.281   5.920  0.6951 -0.5506  0.5223
  121OSM    H2S12707   5.768   7.196   5.925  1.4588 -0.1491 -2.1098
  121OSM    C3S12708   5.582   7.225   5.821 -0.1287  0.2096  0.0027
  121OSM    H3S12709   5.511   7.308   5.800 -2.1151 -1.7564 -1.4882
  121OSM     O312710   5.503   7.119   5.874  0.5072 -0.4228 -0.7370
  121OSM    HO312711   5.528   7.142   5.964 -1.3616  2.0228 -0.7511
  121OSM    C4S12712   5.643   7.197   5.685 -0.5588 -0.0705 -0.2582
  121OSM    H4S12713   5.748   7.162   5.681 -0.2133  0.1311  3.5416
  121OSM    C5S12714   5.569   7.220   5.572  0.2225  0.2084 -0.3780
  121OSM    H5S12715   5.459   7.216   5.573  0.2167  0.0939 -1.0070
  121OSM    C6S12716   5.608   7.214   5.427 -0.1650  0.6816  0.3155
  121OSM    H6S12717   5.542   7.146   5.368  0.1365  1.9291 -1.5186
  121OSM    H6T12718   5.714   7.191   5.404 -0.1323  0.0752  1.0238
  121OSM    C7S12719   5.589   7.360   5.373 -0.0224  0.3665  0.0643
  121OSM    H7S12720   5.646   7.424   5.444  0.8508 -0.6748  0.3303
  121OSM    H7T12721   5.487   7.403   5.365  0.4223  1.5568  0.5380
  121OSM    C8S12722   5.660   7.371   5.238  0.1016 -0.2675 -0.1890
  121OSM    H8S12723   5.609   7.300   5.170  0.1082 -1.4429  0.9979
  121OSM    H8T12724   5.762   7.335   5.263  0.8150  0.4928 -1.8614
  121OSM    C9S12725   5.653   7.514   5.181 -0.5580  0.0577  0.1952
  121OSM    H9S12726   5.735   7.517   5.107  0.1033  0.1635  0.9169
  121OSM    H9T12727   5.665   7.592   5.260 -1.5960  1.4966 -1.0114
  121OSM   C10S12728   5.525   7.549   5.094 -0.8514 -0.1115 -0.6574
  121OSM   H10S12729   5.494   7.639   5.151  0.1057 -1.4550  2.1451
  121OSM   H10T12730   5.447   7.472   5.109  0.3900 -1.2531  0.2287
  121OSM   C11S12731   5.564   7.567   4.946 -0.7480  0.9754  0.7050
  121OSM   H11S12732   5.594   7.469   4.904 -1.0672  1.8720 -1.7835
  121OSM   H11T12733   5.651   7.637   4.942 -0.3143  0.4213 -2.4171
  121OSM   C12S12734   5.451   7.615   4.857 -0.1243 -0.3520  0.2674
  121OSM   H12S12735   5.405   7.706   4.901  2.0046  1.7171 -1.5524
  121OSM   H12T12736   5.380   7.529   4.847 -0.1852 -0.3197  0.4223
  121OSM   C13S12737   5.504   7.652   4.712 -0.4413 -0.6477 -0.2950
  121OSM   H13S12738   5.534   7.557   4.665  1.2486 -1.3545  2.0118
  121OSM   H13T12739   5.590   7.720   4.730  0.4362 -2.0536  1.1818
  121OSM   C14S12740   5.393   7.705   4.616  0.1765  0.1819 -0.5728
  121OSM   H14S12741   5.308   7.635   4.628  2.3795 -2.1784  3.1680
  121OSM   H14T12742   5.435   7.697   4.513  0.1050  2.5968 -0.8504
  121OSM   C15S12743   5.341   7.845   4.632  0.4040 -0.4150 -0.3539
  121OSM   H15S12744   5.424   7.911   4.667 -0.0871 -0.2779  0.6049
  121OSM   H15T12745   5.267   7.840   4.715  0.6777  1.9985  0.1306
  121OSM   C16S12746   5.264   7.893   4.512  0.1495 -0.8647 -0.0620
  121OSM   H16S12747   5.325   7.890   4.419 -2.0314  1.9849 -1.7389
  121OSM   H16T12748   5.234   8.000   4.519  2.1778 -0.1309 -1.4522
  121OSM   C17S12749   5.133   7.800   4.473  0.4416 -1.4077 -0.7581
  121OSM   H17S12750   5.047   7.869   4.463  0.3315 -1.4296  0.0347
  121OSM   H17T12751   5.123   7.716   4.545 -1.9480  0.2489  0.9823
  121OSM   C18S12752   5.140   7.739   4.337 -0.1380  0.0520 -0.2386
  121OSM   H18S12753   5.043   7.697   4.303 -0.2561  1.4009 -1.6483
  121OSM   H18T12754   5.227   7.673   4.319 -0.9469 -1.0298 -0.3043
  121OSM   H18U12755   5.145   7.825   4.267  1.3084  1.1149  1.0888
  121OSM    C1F12756   5.882   7.456   5.899 -0.7876  0.1742 -0.5073
  121OSM     OF12757   5.954   7.389   5.967 -0.3809 -0.1236 -0.0960
  121OSM    C2F12758   5.943   7.584   5.853  0.4640  0.1325 -0.6902
  121OSM    H2F12759   5.923   7.667   5.925  2.5031  0.7320 -0.7677
  121OSM    H2G12760   5.891   7.602   5.756  2.1154 -0.6648 -1.7582
  121OSM    C3F12761   6.092   7.580   5.828  0.2380  0.6319  0.5141
  121OSM    H3F12762   6.139   7.550   5.925 -0.1423 -0.5570  0.3492
  121OSM    H3G12763   6.127   7.685   5.823  2.7118 -0.1602 -0.7841
  121OSM    C4F12764   6.127   7.490   5.708 -0.7003  0.2423 -0.0629
  121OSM    H4F12765   6.108   7.383   5.726  0.4121 -0.1564 -1.0763
  121OSM    H4G12766   6.235   7.503   5.682 -0.4340 -2.0495 -0.2833
  121OSM    C5F12767   6.074   7.546   5.578  0.1045  0.2658 -0.3570
  121OSM    H5F12768   6.092   7.656   5.575 -0.7330  0.4777  1.1665
  121OSM    H5G12769   5.965   7.526   5.565  0.2888 -1.5814  0.6715
  121OSM    C6F12770   6.150   7.492   5.453 -0.2519 -0.3632 -0.5539
  121OSM    H6F12771   6.120   7.386   5.441 -5.3518  0.6435  0.6587
  121OSM    H6G12772   6.257   7.511   5.477 -0.7952  3.1607 -0.4323
  121OSM    C7F12773   6.115   7.558   5.318 -0.3610  0.1202  0.1480
  121OSM    H7F12774   6.150   7.663   5.317  0.5899 -0.1567 -2.0165
  121OSM    H7G12775   6.004   7.560   5.318 -0.3539  1.0454  0.2395
  121OSM    C8F12776   6.180   7.479   5.195  0.5404  0.3372 -0.4857
  121OSM    H8F12777   6.285   7.445   5.206  1.1438  2.7052  1.9065
  121OSM    H8G12778   6.173   7.561   5.120 -2.8463  1.5322  0.9352
  121OSM    C9F12779   6.082   7.374   5.158 -0.2115  0.9072  0.7845
  121OSM    H9F12780   6.071   7.290   5.229 -1.8526 -1.5922 -2.1411
  121OSM   C10F12781   6.004   7.365   5.052 -0.6945 -0.3041 -0.1254
  121OSM   H10F12782   5.950   7.270   5.044  1.0380 -1.3035 -0.6365
  121OSM   C11F12783   5.987   7.465   4.939  0.3254 -0.2178 -0.6554
  121OSM   H11F12784   6.085   7.505   4.902 -0.2577  1.5553 -0.4070
  121OSM   H11G12785   5.926   7.554   4.968  2.0270  0.4407  1.1747
  121OSM   C12F12786   5.912   7.394   4.822 -0.3065 -1.2216 -0.4925
  121OSM   H12F12787   5.838   7.319   4.856 -0.4677 -0.8641 -0.0559
  121OSM   H12G12788   5.983   7.330   4.765 -1.8711 -3.2338 -0.2739
  121OSM   C13F12789   5.842   7.500   4.735 -0.1135 -0.5281  0.5190
  121OSM   H13F12790   5.832   7.593   4.795 -1.0806 -0.8995  0.9630
  121OSM   H13G12791   5.737   7.465   4.720 -1.3913  2.0076  2.6338
  121OSM   C14F12792   5.901   7.526   4.593 -0.8023 -0.3769  0.5002
  121OSM   H14F12793   5.891   7.431   4.536 -0.2327  0.0707 -0.3643
  121OSM   H14G12794   6.003   7.569   4.601 -0.2300 -1.8102  1.4764
  121OSM   C15F12795   5.826   7.637   4.527  0.3533 -0.6208  0.9142
  121OSM   H15F12796   5.807   7.721   4.597  2.3668 -0.0603  0.8553
  121OSM   H15G12797   5.727   7.607   4.487 -0.0323  3.2743 -1.6950
  121OSM   C16F12798   5.899   7.705   4.408 -0.3000  0.8830  0.4920
  121OSM   H16F12799   6.007   7.685   4.427 -0.1227  0.5270 -0.7688
  121OSM   H16G12800   5.870   7.813   4.401 -0.3264  0.7610 -2.4745
  121OSM   C17F12801   5.867   7.631   4.282  0.1571 -0.1634 -0.7593
  121OSM   H17F12802   5.771   7.658   4.233  0.8050 -0.1990 -2.1010
  121OSM   H17G12803   5.868   7.522   4.301 -1.5230  0.1128  1.2600
  121OSM   C18F12804   5.966   7.642   4.171 -0.0875  0.1893 -0.1893
  121OSM   H18F12805   5.995   7.749   4.162  0.0980  0.2388  0.8397
  121OSM   H18G12806   5.923   7.601   4.077 -1.1633 -1.9872  1.1789
  121OSM   H18H12807   6.056   7.584   4.202 -0.1107 -0.3931 -1.1676
  122OSM      N12808   1.119   5.700   6.330  0.4382 -0.2901 -0.3162
  122OSM    C1512809   1.111   5.807   6.442  0.1920  0.0496  0.5149
  122OSM   H15A12810   1.072   5.759   6.531  0.5158 -1.5962 -0.1844
  122OSM   H15B12811   1.040   5.875   6.398 -1.5369 -2.5531 -1.0099
  122OSM   H15C12812   1.211   5.842   6.462  0.0820 -0.2703  1.7103
  122OSM    C1412813   1.163   5.762   6.206 -0.4425  0.0172 -0.0165
  122OSM   H14A12814   1.268   5.788   6.209 -0.2451 -0.7133 -0.3084
  122OSM   H14B12815   1.108   5.852   6.183  1.0972  0.4094 -2.6572
  122OSM   H14C12816   1.149   5.694   6.123 -0.5221 -0.5429  0.4560
  122OSM    C1312817   1.207   5.587   6.376  0.1573  0.1290 -0.8105
  122OSM   H13A12818   1.215   5.511   6.300 -1.1281 -1.8789  0.9539
  122OSM   H13B12819   1.176   5.557   6.475  3.1869  1.5223  0.6865
  122OSM   H13C12820   1.303   5.637   6.376 -0.6725  1.7735 -1.1155
  122OSM    C1212821   0.983   5.635   6.297 -0.4728 -0.0928 -0.6185
  122OSM   H12A12822   0.942   5.592   6.387 -0.0830  0.0953 -0.3470
  122OSM   H12B12823   1.004   5.556   6.227 -3.0070 -0.5855 -0.9157
  122OSM    C1112824   0.878   5.731   6.236  0.4714  0.2791 -0.6070
  122OSM   H11A12825   0.787   5.671   6.214  0.1009  1.1869 -1.6840
  122OSM   H11B12826   0.905   5.768   6.134  0.1476 -1.6630 -1.4476
  122OSM      P12827   0.718   5.855   6.405  0.1531 -0.0269 -0.2932
  122OSM    O1312828   0.711   5.722   6.478  0.0399  0.4176  0.2247
  122OSM    O1412829   0.700   5.981   6.478 -0.9909  0.2835 -0.1252
  122OSM    O1112830   0.593   5.845   6.309  0.4387 -0.3559 -0.1530
  122OSM    O1212831   0.843   5.848   6.316  0.1401  0.4166  0.6091
  122OSM    C1S12832   0.585   5.939   6.199 -0.1630 -0.1736 -0.2881
  122OSM    H1S12833   0.678   5.999   6.193  0.8191 -1.4563  1.2578
  122OSM    H1T12834   0.491   5.997   6.208 -0.0168  0.2987 -1.6151
  122OSM     NF12835   0.574   5.950   5.951  0.2122 -0.5693  0.1508
  122OSM    HNF12836   0.492   6.000   5.927  0.6741  0.5528  0.8183
  122OSM    C2S12837   0.565   5.864   6.066 -0.2799 -0.5624 -0.2302
  122OSM    H2S12838   0.636   5.779   6.071 -1.5622 -1.5972  1.9233
  122OSM    C3S12839   0.423   5.791   6.068 -0.2091 -0.8684  0.1408
  122OSM    H3S12840   0.357   5.879   6.082  0.4496 -0.2359 -0.6365
  122OSM     O312841   0.395   5.699   6.172 -0.1334 -0.0717 -0.3597
  122OSM    HO312842   0.474   5.709   6.226  0.8610 -0.1206 -1.7516
  122OSM    C4S12843   0.393   5.731   5.932  0.4552  0.1943  0.1527
  122OSM    H4S12844   0.321   5.786   5.870 -0.1728  0.0090  0.7063
  122OSM    C5S12845   0.436   5.612   5.881 -0.3290 -0.1310 -0.5894
  122OSM    H5S12846   0.493   5.552   5.954 -2.9590 -1.1676  0.7167
  122OSM    C6S12847   0.411   5.549   5.739 -0.3389  0.2961 -0.0184
  122OSM    H6S12848   0.314   5.574   5.693 -0.5247  0.7708  0.6179
  122OSM    H6T12849   0.407   5.438   5.749 -0.0729  0.3301  0.5680
  122OSM    C7S12850   0.508   5.587   5.620 -0.8802  0.0853 -0.2299
  122OSM    H7S12851   0.606   5.587   5.671 -0.2717  2.4844 -1.2735
  122OSM    H7T12852   0.490   5.695   5.600  0.2907  0.6116  1.4058
  122OSM    C8S12853   0.495   5.496   5.506 -0.2276  0.4842  0.3955
  122OSM    H8S12854   0.389   5.496   5.473 -0.9520 -3.0811  2.2158
  122OSM    H8T12855   0.524   5.391   5.530  0.1123  0.3176 -0.6936
  122OSM    C9S12856   0.579   5.541   5.388 -0.8127  0.3475 -0.6914
  122OSM    H9S12857   0.597   5.454   5.321 -0.4499  0.7943 -1.1815
  122OSM    H9T12858   0.680   5.576   5.419 -0.0226 -0.7345 -1.9262
  122OSM   C10S12859   0.510   5.658   5.307  0.6515 -0.8857 -0.4902
  122OSM   H10S12860   0.538   5.750   5.363  1.5363 -1.1948 -0.4072
  122OSM   H10T12861   0.399   5.665   5.304  0.6169 -0.5342  0.9659
  122OSM   C11S12862   0.564   5.660   5.169 -0.0004  0.5043  0.4430
  122OSM   H11S12863   0.539   5.562   5.123 -1.1859 -0.6853  3.3483
  122OSM   H11T12864   0.675   5.670   5.164  0.3400 -2.7847 -3.2490
  122OSM   C12S12865   0.490   5.760   5.074 -0.0805 -0.0541  1.0600
  122OSM   H12S12866   0.495   5.861   5.121 -0.3736  0.4068  0.1246
  122OSM   H12T12867   0.385   5.730   5.054  0.6282 -0.0530 -3.5534
  122OSM   C13S12868   0.558   5.755   4.942  0.1011  0.1725  0.3928
  122OSM   H13S12869   0.544   5.657   4.892  0.1888  1.1070 -1.5145
  122OSM   H13T12870   0.669   5.759   4.949  0.1996 -0.2316 -0.8045
  122OSM   C14S12871   0.507   5.859   4.838  0.2824  0.3793  0.0076
  122OSM   H14S12872   0.538   5.959   4.876  1.4818  0.6580 -1.6232
  122OSM   H14T12873   0.396   5.867   4.830  0.4655  2.9344 -0.9061
  122OSM   C15S12874   0.558   5.833   4.695  0.0475  0.9159 -0.2966
  122OSM   H15S12875   0.547   5.726   4.668  0.4656  0.5704  0.8440
  122OSM   H15T12876   0.669   5.842   4.699  0.2047 -1.0440  0.8836
  122OSM   C16S12877   0.505   5.922   4.581  0.2305 -0.6503  0.3490
  122OSM   H16S12878   0.540   6.028   4.579 -0.2344 -0.4975  0.1846
  122OSM   H16T12879   0.395   5.931   4.590 -0.0540  1.1692 -3.0526
  122OSM   C17S12880   0.526   5.863   4.439 -0.4911 -0.2072  0.0229
  122OSM   H17S12881   0.473   5.767   4.423  1.8255 -1.3347 -1.4311
  122OSM   H17T12882   0.633   5.846   4.412  0.0054  0.9637  1.1176
  122OSM   C18S12883   0.478   5.955   4.327 -0.7711  0.8062 -0.0803
  122OSM   H18S12884   0.492   5.910   4.226 -0.4313 -0.0495  0.3374
  122OSM   H18T12885   0.539   6.047   4.319  0.4126  0.1440  1.1262
  122OSM   H18U12886   0.374   5.990   4.345 -1.3812  0.0791 -1.9127
  122OSM    C1F12887   0.692   5.990   5.908  0.2555  0.7972 -0.7190
  122OSM     OF12888   0.793   5.933   5.943  0.0252  0.4659 -0.2298
  122OSM    C2F12889   0.697   6.100   5.803  0.4713  0.5089  0.7722
  122OSM    H2F12890   0.803   6.133   5.796  0.6379  0.3683  2.2618
  122OSM    H2G12891   0.630   6.176   5.849 -1.4564  0.7504 -2.2047
  122OSM    C3F12892   0.636   6.068   5.663 -0.6614 -0.1398  0.0774
  122OSM    H3F12893   0.538   6.016   5.669 -0.2633 -0.8702  0.3216
  122OSM    H3G12894   0.712   6.004   5.613 -0.8628 -1.2787  1.2016
  122OSM    C4F12895   0.619   6.196   5.575 -0.2831 -0.7665 -0.2516
  122OSM    H4F12896   0.709   6.263   5.579 -0.0110 -1.1119 -0.5056
  122OSM    H4G12897   0.543   6.257   5.628  1.5161  0.5803  0.9026
  122OSM    C5F12898   0.584   6.152   5.436 -1.1386 -0.1545 -0.2858
  122OSM    H5F12899   0.522   6.061   5.451 -0.0455 -0.9037 -0.1433
  122OSM    H5G12900   0.665   6.114   5.370 -2.1385  2.4478 -3.2439
  122OSM    C6F12901   0.492   6.248   5.356  0.2194 -0.0063 -0.1833
  122OSM    H6F12902   0.531   6.351   5.343  0.4479  0.0677  0.9735
  122OSM    H6G12903   0.403   6.256   5.422 -0.0619 -0.0325 -0.5575
  122OSM    C7F12904   0.429   6.175   5.234  0.2086  0.6296  0.4142
  122OSM    H7F12905   0.385   6.076   5.259  2.2914  0.0864  2.2481
  122OSM    H7G12906   0.506   6.155   5.157 -0.7891  0.8137 -0.6493
  122OSM    C8F12907   0.324   6.255   5.158 -0.4199  0.6089  0.6120
  122OSM    H8F12908   0.230   6.283   5.212 -1.6803  1.2340 -1.7773
  122OSM    H8G12909   0.290   6.185   5.079 -0.1001 -0.3503  1.3168
  122OSM    C9F12910   0.382   6.387   5.106  0.4371  0.0702  0.1680
  122OSM    H9F12911   0.362   6.476   5.168 -1.6766  0.4499 -1.0011
  122OSM   C10F12912   0.428   6.413   4.983 -0.5006 -0.6777  0.3921
  122OSM   H10F12913   0.445   6.518   4.955 -2.5669  0.3959  2.7852
  122OSM   C11F12914   0.447   6.318   4.866 -0.3774 -0.6727  0.2351
  122OSM   H11F12915   0.404   6.219   4.892  0.7111 -1.7240 -1.7515
  122OSM   H11G12916   0.557   6.308   4.864 -0.2967  0.1489  0.3930
  122OSM   C12F12917   0.402   6.367   4.718 -0.1165  0.8840 -0.8310
  122OSM   H12F12918   0.294   6.389   4.733  0.1621  0.4603  2.3102
  122OSM   H12G12919   0.417   6.274   4.660  0.6533  0.6376 -0.2443
  122OSM   C13F12920   0.482   6.470   4.651  0.3953  0.1880  0.6374
  122OSM   H13F12921   0.585   6.432   4.637 -0.0959 -1.0095  0.1502
  122OSM   H13G12922   0.483   6.567   4.705  1.0886  0.6671 -0.2107
  122OSM   C14F12923   0.423   6.508   4.512  1.1096  0.4439  0.3834
  122OSM   H14F12924   0.313   6.513   4.528  1.0272 -0.4555  0.1672
  122OSM   H14G12925   0.431   6.417   4.450 -1.9049  0.0741  0.3509
  122OSM   C15F12926   0.465   6.637   4.430  0.3267  0.3955 -0.0387
  122OSM   H15F12927   0.552   6.625   4.363  0.4196  0.4517  0.0708
  122OSM   H15G12928   0.479   6.728   4.491  0.9356 -0.8281  1.7515
  122OSM   C16F12929   0.351   6.675   4.332 -0.0341 -0.6770  0.0636
  122OSM   H16F12930   0.259   6.704   4.386  1.7205  2.5148  1.6642
  122OSM   H16G12931   0.326   6.592   4.263  0.6484 -1.2946  0.5415
  122OSM   C17F12932   0.370   6.801   4.240  0.2771  0.3460  0.8850
  122OSM   H17F12933   0.464   6.787   4.181 -1.2608 -1.5055 -1.3131
  122OSM   H17G12934   0.373   6.892   4.303  0.3754  0.1976  1.0971
  122OSM   C18F12935   0.256   6.824   4.147  0.6573 -0.0144  0.6524
  122OSM   H18F12936   0.276   6.899   4.068  0.1110 -0.2222  0.3091
  122OSM   H18G12937   0.160   6.843   4.199  0.7301 -0.2770  0.8859
  122OSM   H18H12938   0.230   6.728   4.097 -1.4658  1.5316 -1.3812
  123OSM      N12939   3.337   4.529   1.879 -0.1390  0.0208  0.3542
  123OSM    C1512940   3.317   4.638   1.778  0.3677 -0.0853  0.7239
  123OSM   H15A12941   3.240   4.707   1.808 -0.3420 -0.7528  0.4949
  123OSM   H15B12942   3.301   4.598   1.679  2.8636  4.5603 -1.8614
  123OSM   H15C12943   3.412   4.688   1.769  0.6589 -0.9812 -2.1177
  123OSM    C1412944   3.456   4.447   1.843  0.4492 -0.0199 -0.8746
  123OSM   H14A12945   3.451   4.409   1.742  2.0141 -1.0187 -0.6090
  123OSM   H14B12946   3.452   4.360   1.907 -2.9585 -0.1888 -1.1501
  123OSM   H14C12947   3.547   4.503   1.832 -0.0084  0.6517 -1.3153
  123OSM    C1312948   3.358   4.602   2.009  0.0411 -0.4624 -0.0921
  123OSM   H13A12949   3.402   4.537   2.083  0.1071 -0.1322  0.1604
  123OSM   H13B12950   3.265   4.641   2.048  0.2829  0.1345 -0.0922
  123OSM   H13C12951   3.426   4.682   1.983  2.7042 -2.9934 -1.3792
  123OSM    C1212952   3.205   4.451   1.892 -0.0342 -0.2648 -0.2118
  123OSM   H12A12953   3.179   4.416   1.793 -0.3157 -1.8586  0.3951
  123OSM   H12B12954   3.126   4.520   1.917  1.8041  2.1899 -0.8076
  123OSM    C1112955   3.201   4.323   1.985  0.1764 -0.3716 -0.2150
  123OSM   H11A12956   3.101   4.278   1.967 -0.4335  0.7710  0.2468
  123OSM   H11B12957   3.196   4.356   2.091  2.0977 -0.4122 -0.0898
  123OSM      P12958   3.305   4.107   1.882 -0.1930  0.3288  0.0213
  123OSM    O1312959   3.173   4.116   1.815  0.1612  0.4984  0.3388
  123OSM    O1412960   3.422   4.084   1.801 -0.3413  0.8239 -0.5624
  123OSM    O1112961   3.301   4.001   1.996 -0.5121  0.0956  0.5213
  123OSM    O1212962   3.316   4.234   1.971  0.1701  0.3046 -0.0902
  123OSM    C1S12963   3.415   3.984   2.082 -0.0055 -0.6098  0.8579
  123OSM    H1S12964   3.450   4.086   2.109 -2.2159  0.1371  1.1443
  123OSM    H1T12965   3.497   3.922   2.041  1.2604  0.6422  1.4096
  123OSM     NF12966   3.470   3.946   2.320 -0.2921 -0.5875  0.3969
  123OSM    HNF12967   3.533   3.871   2.336 -0.7388 -0.5527  2.7209
  123OSM    C2S12968   3.366   3.930   2.220 -0.2212  0.0298  0.1425
  123OSM    H2S12969   3.283   3.997   2.251 -2.1323 -1.8441 -0.6486
  123OSM    C3S12970   3.305   3.789   2.212 -0.4731  0.5713  0.4631
  123OSM    H3S12971   3.373   3.701   2.216 -1.2112 -0.0129  0.3530
  123OSM     O312972   3.230   3.769   2.097  0.2768 -0.5994 -0.2750
  123OSM    HO312973   3.238   3.850   2.046 -1.7488 -0.7921 -0.9893
  123OSM    C4S12974   3.209   3.755   2.320  0.2501  0.6484  0.3489
  123OSM    H4S12975   3.110   3.800   2.308 -0.9885 -2.4258 -2.4315
  123OSM    C5S12976   3.229   3.679   2.431 -0.3809  0.1261 -0.1242
  123OSM    H5S12977   3.329   3.640   2.451 -1.5806 -2.6813  0.9553
  123OSM    C6S12978   3.127   3.652   2.541  0.2398  0.1701 -0.3088
  123OSM    H6S12979   3.086   3.550   2.558  0.6670  0.0073 -0.2439
  123OSM    H6T12980   3.035   3.713   2.530 -1.0091 -1.6094 -0.3023
  123OSM    C7S12981   3.180   3.706   2.673  0.4861  0.1284  0.3583
  123OSM    H7S12982   3.201   3.815   2.663  2.3698 -0.0174  2.0433
  123OSM    H7T12983   3.270   3.651   2.707 -0.4976 -0.5057  2.0412
  123OSM    C8S12984   3.085   3.705   2.794 -0.2529  0.2817 -0.1189
  123OSM    H8S12985   3.070   3.595   2.799  1.1820 -0.2341 -4.0000
  123OSM    H8T12986   2.996   3.763   2.761  0.1308  0.8344 -0.1782
  123OSM    C9S12987   3.166   3.742   2.917  0.8648  0.5729 -0.1784
  123OSM    H9S12988   3.195   3.849   2.903 -1.4754  1.1198 -1.2025
  123OSM    H9T12989   3.254   3.679   2.941 -0.0468 -0.5214  0.3847
  123OSM   C10S12990   3.088   3.738   3.055  0.0996 -0.1514 -0.1069
  123OSM   H10S12991   3.041   3.638   3.064  0.8585 -0.4774  0.2901
  123OSM   H10T12992   3.016   3.823   3.065 -0.4857 -0.7162  0.5675
  123OSM   C11S12993   3.184   3.737   3.176 -0.2619 -0.4722 -0.4821
  123OSM   H11S12994   3.267   3.807   3.153 -0.0527 -0.2462  0.8882
  123OSM   H11T12995   3.234   3.639   3.163 -1.2814 -1.1361  0.3976
  123OSM   C12S12996   3.124   3.753   3.316 -0.2622  0.7351 -0.8674
  123OSM   H12S12997   3.049   3.834   3.314 -1.6768 -0.4932  0.2314
  123OSM   H12T12998   3.205   3.789   3.383  0.2447 -0.4525 -0.7996
  123OSM   C13S12999   3.054   3.625   3.366  0.3278  0.0913  0.1669
  123OSM   H13S13000   3.133   3.548   3.353 -0.6146 -0.8425 -0.2739
  123OSM   H13T13001   2.976   3.589   3.295 -0.9678 -1.0536  2.0775
  123OSM   C14S13002   3.009   3.626   3.514  0.6383 -0.6655  0.5156
  123OSM   H14S13003   2.931   3.704   3.524 -1.4276 -2.5629  0.2304
  123OSM   H14T13004   3.098   3.651   3.575  1.5899 -2.6575  0.0464
  123OSM   C15S13005   2.959   3.491   3.571 -0.0038  0.0325 -0.6096
  123OSM   H15S13006   2.872   3.452   3.514 -0.7567 -0.6890  0.9515
  123OSM   H15T13007   2.928   3.507   3.677  1.0098  1.6565 -0.5269
  123OSM   C16S13008   3.072   3.390   3.576  0.0866 -0.4704  1.1431
  123OSM   H16S13009   3.165   3.440   3.608  0.8802 -1.9882  1.3181
  123OSM   H16T13010   3.093   3.356   3.472  0.0022  0.3726  0.8453
  123OSM   C17S13011   3.037   3.263   3.649  0.2243  0.7425 -0.7295
  123OSM   H17S13012   2.971   3.290   3.734 -0.0944 -1.1167 -0.3518
  123OSM   H17T13013   3.133   3.216   3.681  1.0835  1.3136 -2.3276
  123OSM   C18S13014   2.961   3.150   3.572 -0.2075 -0.2784 -0.0177
  123OSM   H18S13015   2.864   3.198   3.547 -0.8989 -1.9197 -0.5612
  123OSM   H18T13016   2.933   3.065   3.638 -0.5919 -0.5287 -0.4991
  123OSM   H18U13017   3.017   3.115   3.482  0.8707 -0.0960  0.5640
  123OSM    C1F13018   3.504   4.064   2.365 -0.1109 -0.6321  0.4214
  123OSM     OF13019   3.433   4.167   2.349 -0.2082 -0.3626 -0.2891
  123OSM    C2F13020   3.636   4.073   2.441  0.8285 -0.2649 -0.2556
  123OSM    H2F13021   3.723   4.077   2.372  0.2361 -1.8268 -1.1172
  123OSM    H2G13022   3.646   3.983   2.505  1.5930 -0.4307 -0.5979
  123OSM    C3F13023   3.641   4.193   2.545  0.0043  0.0284  0.1768
  123OSM    H3F13024   3.546   4.202   2.601 -1.2907  1.7470 -2.0721
  123OSM    H3G13025   3.648   4.290   2.490  0.4193 -0.1314 -0.0606
  123OSM    C4F13026   3.765   4.191   2.637 -0.0982 -0.1191  0.0408
  123OSM    H4F13027   3.773   4.290   2.687 -0.4360 -0.2462  0.3540
  123OSM    H4G13028   3.857   4.189   2.576 -0.7403  1.9088 -1.0794
  123OSM    C5F13029   3.764   4.077   2.741 -0.4290 -0.2853  0.1855
  123OSM    H5F13030   3.782   3.978   2.694 -1.9505 -1.9077  2.7610
  123OSM    H5G13031   3.663   4.066   2.786 -1.2419  3.1057 -0.5574
  123OSM    C6F13032   3.863   4.093   2.851  0.5131 -0.4005  0.1108
  123OSM    H6F13033   3.835   4.189   2.900  1.6818 -1.8024  3.8468
  123OSM    H6G13034   3.964   4.095   2.806 -0.2067  0.9692 -1.6052
  123OSM    C7F13035   3.864   3.973   2.943  0.4199 -0.3148 -0.6241
  123OSM    H7F13036   3.891   3.878   2.891  0.8212 -1.7155  1.9538
  123OSM    H7G13037   3.760   3.957   2.978  0.2383  2.2481  0.2148
  123OSM    C8F13038   3.955   3.982   3.076 -0.3416  0.3049 -0.1639
  123OSM    H8F13039   4.061   3.977   3.042 -0.0017 -0.8557  1.0044
  123OSM    H8G13040   3.941   3.886   3.130  0.8046 -0.2813 -0.8664
  123OSM    C9F13041   3.917   4.098   3.167  0.0183 -0.1904  0.1665
  123OSM    H9F13042   3.913   4.193   3.112 -4.0061 -2.0384 -3.2050
  123OSM   C10F13043   3.905   4.087   3.303  0.2616 -0.1010 -0.0729
  123OSM   H10F13044   3.866   4.172   3.360  2.0782 -0.5287  1.9441
  123OSM   C11F13045   3.918   3.973   3.398 -0.3752 -0.7891  0.8750
  123OSM   H11F13046   3.982   3.895   3.352 -0.4802 -0.8247  0.7871
  123OSM   H11G13047   3.814   3.933   3.405 -0.3588 -1.0696 -0.2607
  123OSM   C12F13048   3.959   3.994   3.546 -0.2484  0.5173 -0.7056
  123OSM   H12F13049   3.955   3.896   3.599 -0.7826  0.1615 -1.3919
  123OSM   H12G13050   3.904   4.073   3.601  1.1631  1.3116 -0.3909
  123OSM   C13F13051   4.112   4.015   3.548  0.1891  0.2168  0.2483
  123OSM   H13F13052   4.129   4.113   3.499  1.7807 -1.4102 -2.7621
  123OSM   H13G13053   4.156   3.930   3.492 -3.8629 -1.5999 -0.5245
  123OSM   C14F13054   4.175   4.007   3.688 -0.0653 -0.2671  0.1568
  123OSM   H14F13055   4.146   3.905   3.723 -2.3306  0.8365  1.7682
  123OSM   H14G13056   4.137   4.079   3.763  2.1620  0.7462  0.4110
  123OSM   C15F13057   4.323   4.043   3.680 -0.0561  0.8300  0.1864
  123OSM   H15F13058   4.343   4.148   3.650 -1.0667  0.6826 -1.0757
  123OSM   H15G13059   4.371   3.977   3.605  0.0804 -0.0605  1.0377
  123OSM   C16F13060   4.402   4.020   3.805 -0.0396  0.7173 -0.0298
  123OSM   H16F13061   4.373   3.924   3.853  1.3158  0.5807  0.5544
  123OSM   H16G13062   4.374   4.107   3.867  0.0002  1.4777 -1.0526
  123OSM   C17F13063   4.557   4.013   3.789 -0.0354 -0.2220  0.1849
  123OSM   H17F13064   4.591   4.115   3.758  2.1950 -0.6374  1.0526
  123OSM   H17G13065   4.590   3.943   3.710  0.0713 -0.6875  0.6350
  123OSM   C18F13066   4.643   3.976   3.911 -0.7338  0.5193 -0.2455
  123OSM   H18F13067   4.750   3.978   3.880 -0.4549  0.5143  0.7031
  123OSM   H18G13068   4.613   3.874   3.946 -0.9091  0.5580 -0.2815
  123OSM   H18H13069   4.639   4.046   3.997 -2.2213 -0.2039  0.3027
  124OSM      N13070   2.645   4.547   1.405 -0.1987  0.1498  0.5131
  124OSM    C1513071   2.656   4.398   1.372  0.6038  0.0970 -0.5513
  124OSM   H15A13072   2.575   4.353   1.427  2.3723 -3.5048 -0.5843
  124OSM   H15B13073   2.738   4.349   1.422 -1.0130  0.0262  2.2764
  124OSM   H15C13074   2.672   4.370   1.269  0.1047  2.4974 -1.3435
  124OSM    C1413075   2.781   4.611   1.374 -0.0834  0.3957  0.7194
  124OSM   H14A13076   2.819   4.592   1.275 -1.7011 -1.3122  0.3539
  124OSM   H14B13077   2.850   4.596   1.455 -0.2078  1.2978  1.0067
  124OSM   H14C13078   2.771   4.719   1.381  0.3561  0.6681 -1.8455
  124OSM    C1313079   2.534   4.609   1.332 -0.2699 -0.0872 -0.9228
  124OSM   H13A13080   2.505   4.705   1.373  1.2782  0.0846 -0.1496
  124OSM   H13B13081   2.452   4.540   1.318 -0.1142 -0.1637 -1.4780
  124OSM   H13C13082   2.563   4.636   1.232 -2.1324  2.0040 -0.9686
  124OSM    C1213083   2.631   4.576   1.555  0.6074  0.1938 -0.4515
  124OSM   H12A13084   2.689   4.507   1.615  2.1898 -0.3130 -2.4317
  124OSM   H12B13085   2.532   4.539   1.577  0.6222 -1.1963 -2.4715
  124OSM    C1113086   2.635   4.720   1.607  0.1052  0.2873  0.1402
  124OSM   H11A13087   2.724   4.770   1.564 -0.0207  0.4716  0.0922
  124OSM   H11B13088   2.641   4.725   1.718 -1.8920 -2.2070  0.4563
  124OSM      P13089   2.387   4.786   1.619  0.0046 -0.1381 -0.0130
  124OSM    O1313090   2.307   4.901   1.579  0.0478  0.3594 -0.0343
  124OSM    O1413091   2.335   4.651   1.590 -0.3010 -0.0020  0.0090
  124OSM    O1113092   2.412   4.802   1.775  0.2496  0.5318  0.1925
  124OSM    O1213093   2.529   4.802   1.557 -0.4734  0.4376  0.3637
  124OSM    C1S13094   2.474   4.927   1.816 -0.2627  0.3462 -1.0243
  124OSM    H1S13095   2.419   5.016   1.779 -1.6379  0.2740  0.6795
  124OSM    H1T13096   2.581   4.939   1.791 -0.2711 -0.3040 -1.3934
  124OSM     NF13097   2.497   5.051   2.019  0.3050 -0.3520  0.2602
  124OSM    HNF13098   2.594   5.055   2.044  1.1041  1.0991 -2.6167
  124OSM    C2S13099   2.461   4.923   1.968  0.4957  0.1812  0.5459
  124OSM    H2S13100   2.353   4.904   1.985 -0.2757 -0.1873 -3.5755
  124OSM    C3S13101   2.545   4.815   2.035  0.2191  0.1434  0.8443
  124OSM    H3S13102   2.654   4.836   2.027 -0.4050  4.0092  0.5313
  124OSM     O313103   2.538   4.680   1.981 -0.9737 -0.0149  0.1838
  124OSM    HO313104   2.482   4.691   1.904 -1.5954 -2.3631  0.2248
  124OSM    C4S13105   2.517   4.812   2.186  0.3685  0.5023 -0.4977
  124OSM    H4S13106   2.415   4.787   2.216  0.1231  1.6018 -0.3688
  124OSM    C5S13107   2.605   4.847   2.282  0.2577 -0.5821 -0.0745
  124OSM    H5S13108   2.706   4.885   2.259 -0.4625  1.1272 -0.6163
  124OSM    C6S13109   2.590   4.836   2.432  0.5482  0.2368 -0.0312
  124OSM    H6S13110   2.498   4.778   2.454 -0.3213  0.8716 -1.8284
  124OSM    H6T13111   2.573   4.938   2.471 -0.4436  0.4531 -0.9975
  124OSM    C7S13112   2.706   4.765   2.501 -0.0330  0.3807 -0.1544
  124OSM    H7S13113   2.805   4.804   2.468  0.3187 -0.5046 -0.1638
  124OSM    H7T13114   2.702   4.662   2.459  0.0711  0.7272 -1.0339
  124OSM    C8S13115   2.700   4.746   2.655 -0.3251  0.1733  0.5995
  124OSM    H8S13116   2.611   4.681   2.669 -0.8541  0.6060 -0.5604
  124OSM    H8T13117   2.688   4.846   2.702 -0.8177  0.4186 -0.0264
  124OSM    C9S13118   2.832   4.678   2.702 -0.1658 -0.7537  0.2990
  124OSM    H9S13119   2.909   4.738   2.649 -0.9254 -0.2873 -0.2921
  124OSM    H9T13120   2.830   4.574   2.662 -1.2039 -1.3321  1.7530
  124OSM   C10S13121   2.829   4.692   2.854  0.5358 -0.1084  0.0716
  124OSM   H10S13122   2.732   4.644   2.877  0.8142  0.2481  2.1783
  124OSM   H10T13123   2.830   4.802   2.872 -1.4622 -0.3159  1.7739
  124OSM   C11S13124   2.937   4.615   2.921 -0.8532  0.3502 -1.1928
  124OSM   H11S13125   3.036   4.630   2.872  0.7233  0.0864  1.7125
  124OSM   H11T13126   2.905   4.508   2.918  1.5400 -0.6885  2.5759
  124OSM   C12S13127   2.975   4.655   3.062  0.5865  0.2046 -0.1738
  124OSM   H12S13128   2.880   4.632   3.116  0.3184  1.4642 -0.0860
  124OSM   H12T13129   3.007   4.761   3.061 -0.6688  0.6373  1.1687
  124OSM   C13S13130   3.102   4.591   3.113  0.1154  0.1095  0.2852
  124OSM   H13S13131   3.185   4.615   3.043  1.1796  2.6848  2.2537
  124OSM   H13T13132   3.092   4.481   3.121  1.6141 -0.1890 -1.1914
  124OSM   C14S13133   3.156   4.656   3.240  0.2946  1.0783  0.2425
  124OSM   H14S13134   3.080   4.653   3.321 -0.7926 -1.5160 -0.7633
  124OSM   H14T13135   3.187   4.761   3.223  0.2958  0.8982 -0.9696
  124OSM   C15S13136   3.284   4.575   3.284  0.7556 -0.3301 -0.3122
  124OSM   H15S13137   3.367   4.581   3.210  2.2970  0.6529  1.4089
  124OSM   H15T13138   3.257   4.469   3.301 -1.4945  0.3349  0.6656
  124OSM   C16S13139   3.342   4.641   3.413  0.5316  0.1941 -0.4275
  124OSM   H16S13140   3.276   4.728   3.432 -1.9460 -1.6352 -0.0475
  124OSM   H16T13141   3.448   4.671   3.401  0.2466  0.9770 -1.0730
  124OSM   C17S13142   3.334   4.543   3.528  0.4735  0.4260  0.1062
  124OSM   H17S13143   3.397   4.458   3.494 -0.1797 -0.5459  1.2344
  124OSM   H17T13144   3.232   4.500   3.544  0.7542  0.0546  0.9326
  124OSM   C18S13145   3.385   4.591   3.660 -0.4148 -0.8903 -0.8767
  124OSM   H18S13146   3.385   4.515   3.741 -1.3399 -0.6202 -0.6217
  124OSM   H18T13147   3.317   4.668   3.701 -0.3580 -1.2785 -0.0425
  124OSM   H18U13148   3.484   4.638   3.642 -0.8584 -0.8478 -3.7513
  124OSM    C1F13149   2.433   5.162   2.004 -0.1701 -0.6815 -0.4860
  124OSM     OF13150   2.333   5.165   1.940 -0.0282 -0.0854  0.7173
  124OSM    C2F13151   2.506   5.284   2.056  0.1340 -0.4377 -0.3347
  124OSM    H2F13152   2.456   5.370   2.008 -0.5107 -0.1204  0.8674
  124OSM    H2G13153   2.612   5.282   2.022  0.4842  1.3021  0.5631
  124OSM    C3F13154   2.506   5.304   2.207 -0.8273  0.0686 -0.1456
  124OSM    H3F13155   2.576   5.389   2.219 -0.2342 -0.1223 -2.0007
  124OSM    H3G13156   2.540   5.219   2.269  0.0375  0.3680 -0.1911
  124OSM    C4F13157   2.378   5.356   2.271  0.2018 -0.5800 -0.1136
  124OSM    H4F13158   2.302   5.285   2.234  0.8508 -1.1116 -0.4542
  124OSM    H4G13159   2.364   5.453   2.217  1.5689  0.9107  2.0364
  124OSM    C5F13160   2.364   5.374   2.422  0.0573 -0.2944 -0.3868
  124OSM    H5F13161   2.256   5.375   2.449 -0.5129  0.9953 -2.3836
  124OSM    H5G13162   2.403   5.474   2.452  0.6158 -1.3489  2.6976
  124OSM    C6F13163   2.418   5.258   2.502 -0.1320 -0.1781  0.6004
  124OSM    H6F13164   2.530   5.260   2.501 -0.0275 -2.8285 -0.6427
  124OSM    H6G13165   2.393   5.162   2.453  2.3862 -0.5668 -0.1083
  124OSM    C7F13166   2.368   5.259   2.645 -0.8974  0.2397 -0.1682
  124OSM    H7F13167   2.258   5.265   2.649 -0.8959  0.3627 -0.3059
  124OSM    H7G13168   2.412   5.344   2.700  0.9998 -0.8145  0.0518
  124OSM    C8F13169   2.409   5.130   2.715  0.4650  0.5472 -0.0015
  124OSM    H8F13170   2.516   5.103   2.725 -0.1964 -1.7078  1.9653
  124OSM    H8G13171   2.353   5.051   2.661  1.4495 -0.2499  0.1214
  124OSM    C9F13172   2.364   5.132   2.858 -0.6094 -0.1470 -0.5413
  124OSM    H9F13173   2.260   5.157   2.885  0.3692  1.1362  2.3802
  124OSM   C10F13174   2.440   5.107   2.970 -0.9834 -0.0899  0.1585
  124OSM   H10F13175   2.405   5.117   3.074  0.3748  0.2413  0.6011
  124OSM   C11F13176   2.583   5.064   2.976  0.5361  0.6995  0.5327
  124OSM   H11F13177   2.622   5.135   3.053  0.3629  0.9480  0.3946
  124OSM   H11G13178   2.634   5.086   2.880  0.1346  0.3848  0.2458
  124OSM   C12F13179   2.612   4.920   3.013 -0.3137 -0.6658 -0.3554
  124OSM   H12F13180   2.721   4.899   3.014 -0.1559  0.1111 -0.1375
  124OSM   H12G13181   2.553   4.856   2.945  0.4680 -0.7247 -0.9929
  124OSM   C13F13182   2.572   4.881   3.155 -0.1166 -0.4776 -0.2630
  124OSM   H13F13183   2.581   4.771   3.162 -0.3515 -0.4990 -0.2748
  124OSM   H13G13184   2.465   4.905   3.178  0.3353 -0.7842  2.5069
  124OSM   C14F13185   2.658   4.951   3.258 -0.5090  0.4917  0.2236
  124OSM   H14F13186   2.649   5.061   3.248 -0.7887  0.4150 -0.4368
  124OSM   H14G13187   2.760   4.916   3.228 -0.0225  0.3140  1.9860
  124OSM   C15F13188   2.635   4.895   3.396  0.0834  0.9343 -0.0047
  124OSM   H15F13189   2.711   4.928   3.470 -1.5004  0.6519  1.8467
  124OSM   H15G13190   2.660   4.789   3.375 -2.1631  0.6530 -1.5603
  124OSM   C16F13191   2.488   4.905   3.440  0.5055  0.0210 -0.4412
  124OSM   H16F13192   2.432   4.841   3.370  0.6466  1.6873 -2.1622
  124OSM   H16G13193   2.458   5.011   3.423  1.9528  0.9604  2.1344
  124OSM   C17F13194   2.465   4.864   3.586 -0.7900  0.3658 -0.0484
  124OSM   H17F13195   2.357   4.889   3.597 -0.8520  0.4805 -0.8323
  124OSM   H17G13196   2.513   4.935   3.656 -0.8781  2.9915 -2.4811
  124OSM   C18F13197   2.489   4.714   3.626  0.2423 -0.2200  0.4708
  124OSM   H18F13198   2.597   4.692   3.620  0.3327  0.4878 -1.1121
  124OSM   H18G13199   2.436   4.659   3.545  1.5530 -0.2295 -0.4091
  124OSM   H18H13200   2.443   4.695   3.725 -1.4627  1.0322 -0.0263
  125OSM      N13201   4.237   2.883   1.636  0.2063  0.0207 -0.0731
  125OSM    C1513202   4.188   2.747   1.615  0.1608 -0.3506 -0.2675
  125OSM   H15A13203   4.162   2.716   1.715  1.3420 -2.0579 -0.4362
  125OSM   H15B13204   4.254   2.678   1.565 -1.2995 -2.2159  0.2497
  125OSM   H15C13205   4.088   2.749   1.574  0.7067  0.5364 -1.5982
  125OSM    C1413206   4.376   2.865   1.686 -0.0332  0.7040 -0.8275
  125OSM   H14A13207   4.423   2.955   1.724 -0.7215  1.2453 -1.2523
  125OSM   H14B13208   4.455   2.845   1.615  1.9483 -1.4392  1.7861
  125OSM   H14C13209   4.371   2.791   1.764 -1.0446  1.5188 -0.0939
  125OSM    C1313210   4.241   2.963   1.509  0.6731 -0.3664  0.9709
  125OSM   H13A13211   4.288   3.059   1.522 -1.3020  0.8317 -0.2221
  125OSM   H13B13212   4.145   2.989   1.468  1.6338 -1.0781 -1.9611
  125OSM   H13C13213   4.289   2.915   1.425 -0.2298 -0.8243  0.7120
  125OSM    C1213214   4.155   2.957   1.744 -0.4309  0.1871 -0.3247
  125OSM   H12A13215   4.075   2.997   1.685  0.1797 -0.0372 -1.3230
  125OSM   H12B13216   4.219   3.039   1.773 -1.1298 -0.1176  2.3995
  125OSM    C1113217   4.101   2.876   1.874 -0.6701 -0.1505  0.7048
  125OSM   H11A13218   4.065   2.949   1.949 -0.4430 -0.4247  1.0802
  125OSM   H11B13219   4.183   2.820   1.924  0.9431  1.4245 -0.0355
  125OSM      P13220   3.858   2.803   1.794 -0.0882 -0.0495 -0.2954
  125OSM    O1313221   3.857   2.892   1.675 -0.1277 -0.2240  0.0593
  125OSM    O1413222   3.786   2.674   1.781 -0.2388 -0.4490 -0.2875
  125OSM    O1113223   3.796   2.878   1.918  0.6665  0.3250 -0.1252
  125OSM    O1213224   4.007   2.775   1.835 -1.1038 -0.1500  0.1750
  125OSM    C1S13225   3.670   2.847   1.976  0.6459 -0.1208 -0.0150
  125OSM    H1S13226   3.598   2.811   1.900  0.3894 -0.6939  0.4876
  125OSM    H1T13227   3.622   2.935   2.023 -0.8880 -0.6122 -0.5974
  125OSM     NF13228   3.555   2.708   2.150  0.3048  0.4024  0.0979
  125OSM    HNF13229   3.529   2.747   2.238 -4.0285 -0.9910 -0.3174
  125OSM    C2S13230   3.687   2.744   2.095  0.4685 -0.2614 -0.0273
  125OSM    H2S13231   3.725   2.650   2.049  2.8366  0.0192  1.2278
  125OSM    C3S13232   3.782   2.794   2.206  0.0251 -0.4517 -0.1447
  125OSM    H3S13233   3.721   2.873   2.254  0.6775 -0.0349  0.0159
  125OSM     O313234   3.900   2.857   2.157 -0.4038 -0.3138  0.0570
  125OSM    HO313235   3.879   2.870   2.064 -2.7477 -0.0469  0.5599
  125OSM    C4S13236   3.812   2.686   2.307 -0.5509  0.4905  0.5537
  125OSM    H4S13237   3.845   2.590   2.263 -2.2978 -0.2646  0.8193
  125OSM    C5S13238   3.800   2.680   2.436 -0.6271  0.6693  0.1728
  125OSM    H5S13239   3.765   2.768   2.491 -1.3606  0.6892 -0.3041
  125OSM    C6S13240   3.837   2.550   2.511  0.0724 -0.5166  0.0157
  125OSM    H6S13241   3.946   2.556   2.529 -0.2368  0.3851  1.8284
  125OSM    H6T13242   3.808   2.466   2.443 -0.2904  1.2586 -2.1229
  125OSM    C7S13243   3.760   2.521   2.641  0.2985  0.8766 -0.7714
  125OSM    H7S13244   3.651   2.533   2.620  0.2331 -1.2846 -1.8908
  125OSM    H7T13245   3.788   2.593   2.721  0.6193 -2.0461  1.9042
  125OSM    C8S13246   3.803   2.381   2.703  0.3788 -0.5748  0.3947
  125OSM    H8S13247   3.904   2.397   2.747 -0.4638  1.9497  1.5947
  125OSM    H8T13248   3.810   2.309   2.618  0.9999  0.0335 -0.0771
  125OSM    C9S13249   3.703   2.333   2.813  0.0629 -0.3344 -0.4795
  125OSM    H9S13250   3.728   2.228   2.840 -0.3050 -0.4874 -0.7325
  125OSM    H9T13251   3.603   2.347   2.768  0.6672 -0.3474 -1.8892
  125OSM   C10S13252   3.689   2.419   2.947 -0.0214  0.0708 -0.2732
  125OSM   H10S13253   3.591   2.392   2.991 -0.7027  0.8939 -1.2413
  125OSM   H10T13254   3.685   2.524   2.911  0.4956  0.6715  1.3479
  125OSM   C11S13255   3.808   2.402   3.041 -0.2911  0.0423  0.0787
  125OSM   H11S13256   3.895   2.467   3.016 -0.9074  0.7890 -0.1324
  125OSM   H11T13257   3.839   2.295   3.037  0.6725  0.1145  2.9640
  125OSM   C12S13258   3.766   2.422   3.192  0.2605 -0.7345 -0.5271
  125OSM   H12S13259   3.856   2.390   3.249 -0.6105  0.4063  1.5841
  125OSM   H12T13260   3.674   2.361   3.207 -1.5221  1.8559 -0.2551
  125OSM   C13S13261   3.716   2.565   3.231 -0.1475 -0.0381 -0.2496
  125OSM   H13S13262   3.615   2.580   3.190 -0.4027  0.3345  0.4935
  125OSM   H13T13263   3.795   2.630   3.187  1.8156 -2.2192 -0.2077
  125OSM   C14S13264   3.727   2.581   3.388  1.3805  0.0840  0.5655
  125OSM   H14S13265   3.712   2.690   3.400 -3.0754 -0.1992 -0.5652
  125OSM   H14T13266   3.832   2.557   3.413  1.2023 -1.7331 -0.2396
  125OSM   C15S13267   3.613   2.513   3.475 -0.5830 -0.2626  0.6291
  125OSM   H15S13268   3.621   2.404   3.455  1.1570  0.1161 -1.1703
  125OSM   H15T13269   3.514   2.547   3.439  0.3534  0.2743 -1.6131
  125OSM   C16S13270   3.633   2.531   3.628 -0.5504 -0.6893 -0.1283
  125OSM   H16S13271   3.679   2.631   3.646  0.4173 -1.2932  0.8138
  125OSM   H16T13272   3.703   2.455   3.668 -0.6659  0.5398  2.6192
  125OSM   C17S13273   3.505   2.504   3.701 -0.5383 -0.0188 -0.7972
  125OSM   H17S13274   3.533   2.477   3.804  0.7152 -2.0016 -1.6032
  125OSM   H17T13275   3.446   2.418   3.663 -0.2018 -1.1633  1.1566
  125OSM   C18S13276   3.404   2.623   3.708  0.3735  0.0464 -0.0229
  125OSM   H18S13277   3.442   2.704   3.774 -1.7043  1.3661 -0.3631
  125OSM   H18T13278   3.313   2.591   3.764  0.1152  1.2686  0.2709
  125OSM   H18U13279   3.386   2.649   3.602  0.7138 -2.5662 -0.7859
  125OSM    C1F13280   3.459   2.652   2.065  0.6717 -0.4074 -0.4345
  125OSM     OF13281   3.496   2.597   1.962 -0.1317 -0.8904  0.1406
  125OSM    C2F13282   3.310   2.652   2.115  0.1859  0.5435  0.5593
  125OSM    H2F13283   3.292   2.547   2.147 -0.0433  0.1643 -0.7744
  125OSM    H2G13284   3.241   2.669   2.030  1.3206  1.9540 -0.1250
  125OSM    C3F13285   3.272   2.752   2.227 -0.5316  0.2529  0.0675
  125OSM    H3F13286   3.162   2.765   2.231 -0.7975 -1.3615 -0.7918
  125OSM    H3G13287   3.309   2.853   2.200 -0.8107  0.0760 -1.0578
  125OSM    C4F13288   3.321   2.719   2.366  0.0266 -0.0830  0.2791
  125OSM    H4F13289   3.397   2.639   2.355  1.9668  1.7658 -0.5080
  125OSM    H4G13290   3.242   2.660   2.418 -0.9044 -0.3932 -1.4050
  125OSM    C5F13291   3.374   2.834   2.443  0.0643 -0.0195 -0.1611
  125OSM    H5F13292   3.297   2.913   2.459  1.2152  1.2537 -0.7247
  125OSM    H5G13293   3.452   2.888   2.385 -0.1145  1.8872  1.2638
  125OSM    C6F13294   3.441   2.788   2.571 -0.1773 -0.3681 -0.7251
  125OSM    H6F13295   3.539   2.739   2.550 -0.1767 -1.0188  0.6688
  125OSM    H6G13296   3.375   2.708   2.611  1.5840 -1.4501  0.1878
  125OSM    C7F13297   3.473   2.896   2.677 -0.0194  0.2339 -0.1250
  125OSM    H7F13298   3.375   2.939   2.707  0.0976 -0.0168  0.6364
  125OSM    H7G13299   3.530   2.978   2.629  0.0186  0.9245  1.0639
  125OSM    C8F13300   3.547   2.844   2.795  0.0710  0.4154 -0.8686
  125OSM    H8F13301   3.574   2.936   2.852  1.0633 -0.8470  0.7903
  125OSM    H8G13302   3.633   2.793   2.747 -1.4958 -1.2895 -2.0182
  125OSM    C9F13303   3.453   2.751   2.876  0.5333 -0.7471 -0.1873
  125OSM    H9F13304   3.409   2.659   2.833 -1.6848 -1.0116  2.3500
  125OSM   C10F13305   3.402   2.769   2.996 -0.5055 -0.3323  0.8535
  125OSM   H10F13306   3.324   2.695   3.017  0.9013 -2.8550 -2.0284
  125OSM   C11F13307   3.418   2.886   3.088  1.2844  0.0768  0.9727
  125OSM   H11F13308   3.329   2.952   3.079  2.2206  1.2335  0.0183
  125OSM   H11G13309   3.509   2.946   3.069  0.2906  1.6820  1.1225
  125OSM   C12F13310   3.424   2.836   3.232 -0.5004 -0.0997 -0.9946
  125OSM   H12F13311   3.520   2.786   3.257  0.8741  1.1267 -3.4209
  125OSM   H12G13312   3.337   2.769   3.252  0.0985  0.0065  2.5526
  125OSM   C13F13313   3.425   2.959   3.325 -0.1182 -0.3079  0.2693
  125OSM   H13F13314   3.335   3.022   3.307 -1.4717 -2.5016 -1.1155
  125OSM   H13G13315   3.518   3.017   3.306 -1.1928  1.1301 -0.8142
  125OSM   C14F13316   3.426   2.917   3.469  0.1903  0.9536  0.0300
  125OSM   H14F13317   3.506   2.844   3.495  0.4839  1.2016 -0.1710
  125OSM   H14G13318   3.333   2.869   3.506  0.0330  0.2547 -1.2139
  125OSM   C15F13319   3.451   3.035   3.567 -0.2387 -0.1967  0.4306
  125OSM   H15F13320   3.371   3.112   3.558 -0.0282 -0.2434 -3.5568
  125OSM   H15G13321   3.543   3.087   3.533 -0.2998 -0.8028 -0.7157
  125OSM   C16F13322   3.460   2.991   3.715  0.1777  0.1946 -0.3401
  125OSM   H16F13323   3.556   2.937   3.721  0.0371 -0.0982 -0.6579
  125OSM   H16G13324   3.375   2.921   3.729 -1.3570  2.1160  0.5140
  125OSM   C17F13325   3.438   3.102   3.820 -0.2587 -0.1463  0.1883
  125OSM   H17F13326   3.451   3.050   3.918 -0.5168 -1.0223 -0.2385
  125OSM   H17G13327   3.333   3.135   3.836 -0.8021 -2.3866  1.7223
  125OSM   C18F13328   3.541   3.217   3.803  0.2462  0.5708 -0.1077
  125OSM   H18F13329   3.519   3.264   3.705 -2.1637 -0.7368 -0.2782
  125OSM   H18G13330   3.648   3.185   3.812  0.9704  2.7203 -0.5786
  125OSM   H18H13331   3.522   3.298   3.876  1.5692  0.5324  0.3148
  126OSM      N13332   2.251   2.924   1.368  0.0322 -0.6114  0.2818
  126OSM    C1513333   2.235   3.076   1.370 -0.2900  0.7031 -0.0199
  126OSM   H15A13334   2.275   3.115   1.277 -0.3048  0.3457 -0.1740
  126OSM   H15B13335   2.279   3.121   1.458 -1.8019 -0.0785  1.1711
  126OSM   H15C13336   2.134   3.112   1.363 -0.3030  1.5163  2.9298
  126OSM    C1413337   2.180   2.859   1.255 -0.0534 -0.3479  0.1506
  126OSM   H14A13338   2.200   2.754   1.243  1.3164 -0.0877  0.0548
  126OSM   H14B13339   2.199   2.913   1.164  0.9300  2.5732  1.9570
  126OSM   H14C13340   2.074   2.856   1.278  0.0737  1.6067  1.2274
  126OSM    C1313341   2.393   2.898   1.352  0.7403  0.1109 -0.0620
  126OSM   H13A13342   2.419   2.795   1.372  0.8158  0.4520  1.7899
  126OSM   H13B13343   2.456   2.954   1.420 -0.0524 -0.5105  1.2249
  126OSM   H13C13344   2.434   2.916   1.254 -1.4282  1.6243 -0.7695
  126OSM    C1213345   2.198   2.876   1.508 -0.7637 -0.0231 -0.0685
  126OSM   H12A13346   2.097   2.912   1.526 -1.1399 -1.7152  1.4995
  126OSM   H12B13347   2.267   2.914   1.581 -3.2920 -0.1609  2.5913
  126OSM    C1113348   2.200   2.727   1.531  0.4641 -0.2645  0.1239
  126OSM   H11A13349   2.294   2.682   1.492  1.2127  1.9409 -0.7530
  126OSM   H11B13350   2.111   2.683   1.479 -0.0680 -1.3809  1.8898
  126OSM      P13351   2.048   2.689   1.734 -0.2687 -0.2446 -0.2148
  126OSM    O1313352   1.973   2.813   1.739  0.6882 -0.8204 -0.3431
  126OSM    O1413353   1.988   2.570   1.668  0.1675  0.1455  0.0687
  126OSM    O1113354   2.091   2.647   1.882  0.1633  0.6663 -0.0447
  126OSM    O1213355   2.186   2.713   1.666 -0.3729 -0.4010  1.0558
  126OSM    C1S13356   2.207   2.706   1.948  0.2680  0.3167 -0.2719
  126OSM    H1S13357   2.229   2.809   1.912 -0.2841  0.8565  0.8982
  126OSM    H1T13358   2.296   2.640   1.937  0.7142  0.8949 -0.1702
  126OSM     NF13359   2.288   2.810   2.154  0.7405 -0.0748  1.0905
  126OSM    HNF13360   2.361   2.775   2.212  1.2894  0.2752  0.6187
  126OSM    C2S13361   2.187   2.717   2.103 -0.8014 -0.0705  0.2114
  126OSM    H2S13362   2.090   2.769   2.121 -1.3642 -0.3419 -1.8381
  126OSM    C3S13363   2.171   2.577   2.177 -0.3170 -0.0015  0.4455
  126OSM    H3S13364   2.265   2.521   2.163 -0.5653  0.0471 -1.7762
  126OSM     O313365   2.057   2.507   2.126  0.0767 -0.1570 -0.0007
  126OSM    HO313366   2.026   2.573   2.063 -0.3925  1.8683  2.2208
  126OSM    C4S13367   2.165   2.596   2.324  0.0761  0.1152 -0.2599
  126OSM    H4S13368   2.265   2.599   2.370 -0.5695  1.2473  1.1522
  126OSM    C5S13369   2.047   2.596   2.402 -0.2728 -0.4291 -0.2630
  126OSM    H5S13370   1.946   2.593   2.357  0.3605 -0.5611 -1.7437
  126OSM    C6S13371   2.031   2.616   2.553  0.6076  0.2571 -0.0793
  126OSM    H6S13372   1.974   2.711   2.560 -0.9562 -0.6224 -0.4637
  126OSM    H6T13373   2.124   2.635   2.610  1.7413  2.2130 -2.3700
  126OSM    C7S13374   1.931   2.499   2.614 -0.6903 -0.3595 -0.3036
  126OSM    H7S13375   1.992   2.407   2.599  0.2384 -0.1375  1.7773
  126OSM    H7T13376   1.835   2.496   2.558  0.0409 -3.7916 -1.6649
  126OSM    C8S13377   1.896   2.522   2.759  0.3836  0.4741 -0.2427
  126OSM    H8S13378   1.841   2.432   2.793 -0.3530  1.3497  0.9645
  126OSM    H8T13379   1.830   2.611   2.761  0.3678  0.4609  2.2092
  126OSM    C9S13380   2.010   2.557   2.854  0.7372 -0.2051 -0.1033
  126OSM    H9S13381   2.050   2.657   2.828  0.3379 -0.2555 -0.9432
  126OSM    H9T13382   2.101   2.492   2.854  1.0094  0.1642 -0.7034
  126OSM   C10S13383   1.962   2.563   3.003 -0.4505  0.5535 -0.0688
  126OSM   H10S13384   1.959   2.459   3.043  0.9003  0.8710  0.9120
  126OSM   H10T13385   1.854   2.588   3.015 -0.3866 -0.3501  3.3043
  126OSM   C11S13386   2.039   2.640   3.118  0.9386  0.5004  0.0550
  126OSM   H11S13387   1.985   2.614   3.212 -1.1191  1.2093 -0.8621
  126OSM   H11T13388   2.030   2.750   3.110  2.0928  0.6987  1.1903
  126OSM   C12S13389   2.184   2.594   3.137  0.1116 -0.5927 -0.2985
  126OSM   H12S13390   2.249   2.647   3.065  0.3141 -2.2038 -1.3678
  126OSM   H12T13391   2.199   2.489   3.103  1.0767 -0.1915 -1.1642
  126OSM   C13S13392   2.239   2.607   3.282  0.6693  0.4919  0.0171
  126OSM   H13S13393   2.348   2.582   3.280  0.9487  1.5267 -2.8120
  126OSM   H13T13394   2.193   2.545   3.362  0.4986  2.4646  1.5020
  126OSM   C14S13395   2.239   2.751   3.329  0.1200 -0.9408 -0.4877
  126OSM   H14S13396   2.138   2.798   3.326  0.6661  0.6933  2.3852
  126OSM   H14T13397   2.304   2.812   3.263 -0.7639 -0.3238 -0.8048
  126OSM   C15S13398   2.296   2.751   3.473  0.4977 -0.8455 -0.1549
  126OSM   H15S13399   2.396   2.704   3.474  0.6234 -0.7628 -2.7037
  126OSM   H15T13400   2.224   2.700   3.541  0.0731 -2.7691 -1.9266
  126OSM   C16S13401   2.306   2.897   3.530  0.2239  0.9232  0.3342
  126OSM   H16S13402   2.209   2.950   3.546 -0.0513  0.5749 -0.1540
  126OSM   H16T13403   2.354   2.963   3.455 -1.5776  2.6552  0.6137
  126OSM   C17S13404   2.384   2.909   3.659 -0.5358 -0.1859  0.5078
  126OSM   H17S13405   2.370   3.014   3.691  0.6903 -0.5078  2.2737
  126OSM   H17T13406   2.491   2.890   3.640 -0.6704  0.8993 -1.5221
  126OSM   C18S13407   2.335   2.816   3.769 -0.1831 -0.7668  0.0880
  126OSM   H18S13408   2.226   2.827   3.782  0.1996  0.4139  3.2600
  126OSM   H18T13409   2.375   2.819   3.873 -1.7763 -3.3955  0.8783
  126OSM   H18U13410   2.357   2.712   3.735 -4.0564 -1.6393 -0.1791
  126OSM    C1F13411   2.286   2.937   2.117 -0.2574  0.5220 -0.0310
  126OSM     OF13412   2.188   2.981   2.055 -0.0124 -0.0125  0.1273
  126OSM    C2F13413   2.401   3.018   2.170  0.4083 -0.1258 -0.0519
  126OSM    H2F13414   2.418   3.101   2.098 -0.7858  0.2182  0.0428
  126OSM    H2G13415   2.499   2.966   2.170  0.6016  0.1617  1.7440
  126OSM    C3F13416   2.386   3.066   2.319  0.2824  0.0125 -0.3567
  126OSM    H3F13417   2.363   2.981   2.387  3.2352  0.8039  1.8049
  126OSM    H3G13418   2.301   3.138   2.328  0.0033 -0.4881  1.2818
  126OSM    C4F13419   2.512   3.142   2.374  0.2661  0.1844  0.2493
  126OSM    H4F13420   2.514   3.235   2.315 -1.1173 -0.3674 -0.7342
  126OSM    H4G13421   2.600   3.077   2.355 -1.4214 -2.5914  1.2805
  126OSM    C5F13422   2.489   3.176   2.520 -0.9212  0.7172 -0.5867
  126OSM    H5F13423   2.474   3.075   2.565  0.3712  1.0310  0.6183
  126OSM    H5G13424   2.394   3.232   2.531  0.0615  2.2530  0.4987
  126OSM    C6F13425   2.606   3.249   2.590 -0.0546 -0.1997  0.4959
  126OSM    H6F13426   2.607   3.355   2.556  0.7988 -0.0578  0.9337
  126OSM    H6G13427   2.708   3.219   2.559 -0.0910  0.0491  0.1230
  126OSM    C7F13428   2.595   3.263   2.741  0.5864 -0.1211 -0.5910
  126OSM    H7F13429   2.558   3.171   2.791  4.6915 -0.5508  2.1167
  126OSM    H7G13430   2.516   3.339   2.757 -0.2267 -0.9364 -0.6804
  126OSM    C8F13431   2.725   3.299   2.828  0.2079 -0.0511 -0.3169
  126OSM    H8F13432   2.806   3.222   2.823 -0.6521 -0.9038 -2.0487
  126OSM    H8G13433   2.696   3.295   2.935  2.7764  1.0627  0.5123
  126OSM    C9F13434   2.771   3.437   2.808 -0.5937 -0.5985 -0.1133
  126OSM    H9F13435   2.849   3.455   2.733 -0.7182  0.5093 -0.0033
  126OSM   C10F13436   2.744   3.547   2.880  0.1909  0.3877  0.5986
  126OSM   H10F13437   2.808   3.637   2.870  0.0905  0.5071  1.0383
  126OSM   C11F13438   2.656   3.540   2.999  0.1894  0.5515  1.0104
  126OSM   H11F13439   2.571   3.469   2.988  0.2305  0.6939 -0.4703
  126OSM   H11G13440   2.608   3.641   2.993 -0.6377  0.0696 -2.2346
  126OSM   C12F13441   2.735   3.538   3.126 -0.1896  0.1209  0.4530
  126OSM   H12F13442   2.806   3.623   3.135  0.6879 -0.6477  1.0844
  126OSM   H12G13443   2.805   3.452   3.137  1.3655  1.5051  1.9817
  126OSM   C13F13444   2.645   3.565   3.248 -0.1398  1.0430 -0.0458
  126OSM   H13F13445   2.696   3.504   3.325 -0.8886  0.4171 -0.0357
  126OSM   H13G13446   2.548   3.517   3.223 -0.3286  0.0393  2.3885
  126OSM   C14F13447   2.618   3.710   3.283  0.2798 -0.1573  0.9345
  126OSM   H14F13448   2.556   3.756   3.203 -2.6905 -2.4125  1.7467
  126OSM   H14G13449   2.708   3.774   3.296 -0.4175  0.9299  0.5184
  126OSM   C15F13450   2.538   3.734   3.423 -0.4155 -0.2794  0.0781
  126OSM   H15F13451   2.571   3.669   3.507  0.1345  1.8091  1.5456
  126OSM   H15G13452   2.432   3.703   3.408 -0.2831  0.1805 -2.0948
  126OSM   C16F13453   2.552   3.872   3.473  0.1429  0.5058 -0.1630
  126OSM   H16F13454   2.508   3.946   3.403  0.6963  1.1895  0.2044
  126OSM   H16G13455   2.656   3.903   3.497 -0.5909  2.2667  0.9204
  126OSM   C17F13456   2.474   3.885   3.605 -0.2382  0.4085 -0.3406
  126OSM   H17F13457   2.368   3.852   3.596 -0.1861  0.3048 -0.5915
  126OSM   H17G13458   2.471   3.990   3.640  1.4213  0.0521  1.0009
  126OSM   C18F13459   2.531   3.798   3.722  0.7213  0.9773  0.1841
  126OSM   H18F13460   2.638   3.825   3.738 -0.2107  4.3767  1.5990
  126OSM   H18G13461   2.530   3.689   3.700 -0.7839  1.2532 -1.2762
  126OSM   H18H13462   2.478   3.822   3.817 -0.1345  0.8051 -0.2393
  127OSM      N13463   1.776   5.095   1.400  0.4130 -0.0849 -0.0867
  127OSM    C1513464   1.856   5.167   1.296 -0.3679 -0.2380  0.3079
  127OSM   H15A13465   1.823   5.144   1.196 -1.4725 -0.7421  0.7772
  127OSM   H15B13466   1.956   5.128   1.305  0.2510  1.1966 -0.0069
  127OSM   H15C13467   1.853   5.275   1.303 -1.9013 -0.1902 -0.5182
  127OSM    C1413468   1.765   4.954   1.356  0.2967  0.1795  0.3231
  127OSM   H14A13469   1.724   4.939   1.257  1.3760 -1.7414  0.1107
  127OSM   H14B13470   1.716   4.893   1.430  2.4104 -0.1753  1.4997
  127OSM   H14C13471   1.861   4.907   1.340  0.4615  0.8769 -0.8813
  127OSM    C1313472   1.845   5.106   1.528  1.1015  0.5431  0.3590
  127OSM   H13A13473   1.935   5.047   1.521  1.1789  0.5580  1.1942
  127OSM   H13B13474   1.778   5.058   1.598 -1.1117 -1.3925 -2.8204
  127OSM   H13C13475   1.850   5.211   1.552 -2.8473  0.8154  0.6966
  127OSM    C1213476   1.643   5.165   1.405  0.0346 -0.8036 -0.0455
  127OSM   H12A13477   1.597   5.165   1.307 -1.0022 -1.3227  0.4216
  127OSM   H12B13478   1.677   5.264   1.432  1.4033 -0.5564 -2.3396
  127OSM    C1113479   1.543   5.108   1.509 -0.4121  0.6045  0.1989
  127OSM   H11A13480   1.525   5.001   1.484  2.8310 -0.2748  1.1492
  127OSM   H11B13481   1.442   5.151   1.496 -1.2494 -1.7143 -1.5780
  127OSM      P13482   1.549   5.219   1.726 -0.2152  0.0238  0.0370
  127OSM    O1313483   1.635   5.336   1.691  0.6582  0.8945  0.3876
  127OSM    O1413484   1.403   5.235   1.724 -0.3416 -0.1362 -0.3306
  127OSM    O1113485   1.586   5.173   1.873  0.0602  0.3328  1.0040
  127OSM    O1213486   1.595   5.097   1.642  0.3302  0.3651 -0.9302
  127OSM    C1S13487   1.689   5.083   1.911 -0.2006 -0.3602 -0.2532
  127OSM    H1S13488   1.784   5.103   1.857  0.1658  1.0170  0.8427
  127OSM    H1T13489   1.661   4.979   1.884 -3.0076 -0.4634  2.5237
  127OSM     NF13490   1.824   5.018   2.113  0.4467  0.3002 -0.0502
  127OSM    HNF13491   1.815   4.933   2.165 -0.7514  0.2236 -0.3563
  127OSM    C2S13492   1.710   5.094   2.066  0.3397  0.0941 -0.5460
  127OSM    H2S13493   1.735   5.198   2.095 -0.3106 -0.4114  2.1387
  127OSM    C3S13494   1.581   5.057   2.150  0.1528 -0.6560  0.1869
  127OSM    H3S13495   1.544   4.953   2.138  0.7395 -0.7207 -1.2448
  127OSM     O313496   1.471   5.140   2.096 -0.1901  0.5047  0.1250
  127OSM    HO313497   1.511   5.153   2.010  2.6797 -0.2032  1.2091
  127OSM    C4S13498   1.593   5.066   2.303 -0.1423  0.4603 -0.3155
  127OSM    H4S13499   1.578   4.971   2.356  2.9906 -0.4775 -0.9397
  127OSM    C5S13500   1.612   5.176   2.377  0.3044 -0.3304 -0.2468
  127OSM    H5S13501   1.619   5.273   2.325  1.5017 -1.5494 -2.5094
  127OSM    C6S13502   1.623   5.194   2.524  0.0405 -0.4905 -0.1166
  127OSM    H6S13503   1.529   5.236   2.565 -0.3516  1.3661 -2.6471
  127OSM    H6T13504   1.707   5.263   2.549  0.3052 -1.6387  2.5076
  127OSM    C7S13505   1.667   5.059   2.585 -0.1738  0.4906 -0.3196
  127OSM    H7S13506   1.759   5.022   2.536  2.0411  3.1429  1.5010
  127OSM    H7T13507   1.587   4.983   2.573 -0.1844  0.5770 -0.8142
  127OSM    C8S13508   1.700   5.053   2.741  0.3453  0.1491  0.5335
  127OSM    H8S13509   1.754   4.956   2.747 -0.1706 -0.3096 -1.4448
  127OSM    H8T13510   1.601   5.073   2.787 -0.4754  1.9662 -1.8011
  127OSM    C9S13511   1.800   5.162   2.779 -0.1888  0.4991 -0.7170
  127OSM    H9S13512   1.755   5.259   2.750  1.3167  1.4309 -0.0395
  127OSM    H9T13513   1.884   5.154   2.707  0.2535  0.2245 -0.1805
  127OSM   C10S13514   1.845   5.156   2.928  0.1225  0.5222  0.2251
  127OSM   H10S13515   1.764   5.109   2.987  0.4844 -2.8272 -1.7030
  127OSM   H10T13516   1.869   5.262   2.953 -0.7640  1.0885 -1.1700
  127OSM   C11S13517   1.956   5.058   2.954  0.5051 -0.8183 -0.3756
  127OSM   H11S13518   2.052   5.077   2.902  1.7696 -0.7134  1.8824
  127OSM   H11T13519   1.921   4.956   2.927 -0.1129 -0.8497  0.4979
  127OSM   C12S13520   2.009   5.062   3.103 -0.5019  0.3428 -0.1095
  127OSM   H12S13521   1.925   5.040   3.173  1.5212 -3.0729  1.4919
  127OSM   H12T13522   2.040   5.168   3.115 -0.9362  0.6040 -1.1278
  127OSM   C13S13523   2.121   4.958   3.131  0.3607 -0.3604  0.5583
  127OSM   H13S13524   2.214   4.978   3.073  1.8471 -0.9968  2.6139
  127OSM   H13T13525   2.090   4.869   3.072 -0.1537  0.4055 -0.3623
  127OSM   C14S13526   2.148   4.935   3.280 -0.2354 -0.4440  0.2889
  127OSM   H14S13527   2.188   5.025   3.332  1.2312 -1.1507  0.4509
  127OSM   H14T13528   2.225   4.854   3.283  0.4888  0.2098 -0.4545
  127OSM   C15S13529   2.021   4.888   3.350 -0.0507 -0.9257 -0.3838
  127OSM   H15S13530   1.968   4.810   3.291 -0.5726  0.3668 -1.6768
  127OSM   H15T13531   1.955   4.976   3.367 -1.0383 -1.5954 -0.6637
  127OSM   C16S13532   2.048   4.830   3.486 -0.2030 -0.2502 -0.2962
  127OSM   H16S13533   2.150   4.790   3.467  0.8477  2.4980 -0.8460
  127OSM   H16T13534   1.989   4.742   3.519  0.3125  0.1448  1.8270
  127OSM   C17S13535   2.059   4.943   3.593 -0.0162  0.0523 -0.3787
  127OSM   H17S13536   1.957   4.985   3.608 -0.2341 -0.6344  0.1132
  127OSM   H17T13537   2.120   5.029   3.557 -1.2926  1.1172 -0.0758
  127OSM   C18S13538   2.104   4.897   3.733 -0.3944 -0.0753  0.0582
  127OSM   H18S13539   2.210   4.865   3.729 -0.9762 -2.1354 -0.0464
  127OSM   H18T13540   2.037   4.822   3.780 -0.0958 -0.5493 -0.2664
  127OSM   H18U13541   2.101   4.983   3.803 -0.7987 -1.1456  1.4175
  127OSM    C1F13542   1.950   5.052   2.085  0.1484  0.0683  0.1523
  127OSM     OF13543   1.974   5.163   2.035 -0.5927  0.5420 -0.9155
  127OSM    C2F13544   2.050   4.947   2.108 -0.0289  0.0107 -0.7667
  127OSM    H2F13545   2.150   4.981   2.073  0.3011  0.0754  0.1839
  127OSM    H2G13546   2.036   4.850   2.056  1.7484 -1.2092  0.8801
  127OSM    C3F13547   2.069   4.900   2.263  0.4450  0.2242  0.1014
  127OSM    H3F13548   2.145   4.819   2.256 -0.5123 -0.6603 -0.3821
  127OSM    H3G13549   1.974   4.873   2.314  1.2114 -1.8310  0.5225
  127OSM    C4F13550   2.125   5.016   2.348 -0.2291  0.8651 -0.2123
  127OSM    H4F13551   2.067   5.107   2.322  0.7251  1.7377  0.5980
  127OSM    H4G13552   2.231   5.036   2.323 -0.0040 -1.1891 -1.0520
  127OSM    C5F13553   2.098   5.001   2.498 -0.3703  1.0690 -1.1850
  127OSM    H5F13554   1.992   5.023   2.526 -0.2130  0.6732 -0.2488
  127OSM    H5G13555   2.157   5.069   2.563 -0.2907 -0.0445 -0.0523
  127OSM    C6F13556   2.129   4.858   2.549 -0.0484 -0.3523  0.2342
  127OSM    H6F13557   2.231   4.834   2.516 -0.5345  1.1181 -2.6231
  127OSM    H6G13558   2.055   4.783   2.514  1.2049 -1.0167 -1.0429
  127OSM    C7F13559   2.121   4.864   2.700  0.1890  0.5646 -0.0555
  127OSM    H7F13560   2.015   4.884   2.729 -1.1647 -2.8749 -1.9903
  127OSM    H7G13561   2.194   4.935   2.743 -2.2416  2.2963  1.5033
  127OSM    C8F13562   2.173   4.730   2.770 -0.1159 -0.4407 -0.1470
  127OSM    H8F13563   2.184   4.753   2.878  0.0383 -0.1630 -0.2219
  127OSM    H8G13564   2.278   4.714   2.738 -0.1298 -0.0116 -0.4180
  127OSM    C9F13565   2.088   4.611   2.735  0.4831  0.1612  0.1424
  127OSM    H9F13566   2.134   4.531   2.676  0.8758  1.9804 -2.1668
  127OSM   C10F13567   1.965   4.590   2.774  0.4828  0.1458  0.0714
  127OSM   H10F13568   1.920   4.491   2.762 -1.8917  1.3236 -1.5664
  127OSM   C11F13569   1.880   4.683   2.863 -0.3832 -0.7724 -0.0579
  127OSM   H11F13570   1.791   4.720   2.806 -1.0345 -0.8145  0.9117
  127OSM   H11G13571   1.943   4.766   2.901  1.9332 -2.4192 -0.1027
  127OSM   C12F13572   1.824   4.616   2.993  0.4123  0.5978 -0.1923
  127OSM   H12F13573   1.780   4.518   2.963  2.7027 -0.2236 -1.0782
  127OSM   H12G13574   1.751   4.688   3.035 -0.0109 -0.2420  0.5613
  127OSM   C13F13575   1.932   4.574   3.084 -0.7002 -0.1069 -0.5276
  127OSM   H13F13576   2.010   4.653   3.090 -1.2345  0.4712 -0.9856
  127OSM   H13G13577   1.983   4.491   3.032 -2.4527  1.6844 -5.7506
  127OSM   C14F13578   1.889   4.519   3.221  0.3870 -0.4800  0.1705
  127OSM   H14F13579   1.816   4.435   3.218 -1.1068  0.7207  1.1674
  127OSM   H14G13580   1.831   4.604   3.263 -1.0199 -0.7461 -1.1404
  127OSM   C15F13581   2.011   4.481   3.303  0.0767 -0.0343  0.0533
  127OSM   H15F13582   2.079   4.565   3.330 -0.2308  0.2577 -0.0729
  127OSM   H15G13583   2.069   4.406   3.245 -0.3545  0.6721 -1.3638
  127OSM   C16F13584   1.950   4.440   3.447  0.2500  1.5060 -0.0115
  127OSM   H16F13585   1.926   4.331   3.442  1.0420  1.3245  0.0759
  127OSM   H16G13586   1.863   4.502   3.478  0.0862 -0.4769  4.1969
  127OSM   C17F13587   2.060   4.459   3.554 -0.0107  0.2135 -0.5630
  127OSM   H17F13588   2.085   4.566   3.573  0.2029 -0.1436  1.3688
  127OSM   H17G13589   2.145   4.400   3.515  0.5104  0.5271  0.0827
  127OSM   C18F13590   2.013   4.402   3.694 -0.1804 -0.1632 -0.2067
  127OSM   H18F13591   2.094   4.406   3.770 -1.9711  0.2436  1.8147
  127OSM   H18G13592   1.994   4.294   3.678  1.6232 -0.2271 -2.3622
  127OSM   H18H13593   1.920   4.448   3.733 -0.4366 -1.7345  1.1740
  128OSM      N13594   1.662   4.105   1.624  0.0362  0.6129  0.0611
  128OSM    C1513595   1.520   4.150   1.608 -0.1344  0.5707 -0.3447
  128OSM   H15A13596   1.507   4.254   1.633 -1.2489  0.3499  0.0461
  128OSM   H15B13597   1.452   4.089   1.666  3.4090 -2.2358  1.2554
  128OSM   H15C13598   1.497   4.140   1.503  1.7098  5.5461 -1.4720
  128OSM    C1413599   1.702   4.113   1.763  0.1212 -0.4875 -0.0295
  128OSM   H14A13600   1.645   4.041   1.820  1.3513  0.7926  3.0823
  128OSM   H14B13601   1.693   4.212   1.805  1.2328  1.0248 -3.0984
  128OSM   H14C13602   1.810   4.105   1.774  0.0542 -1.1401  0.1924
  128OSM    C1313603   1.678   3.965   1.578  0.1677  0.1941 -0.4547
  128OSM   H13A13604   1.632   3.894   1.645 -0.3679  1.0550  0.1175
  128OSM   H13B13605   1.781   3.932   1.581  0.2880  0.6036  1.6384
  128OSM   H13C13606   1.628   3.961   1.483 -0.3299 -0.2374 -0.1784
  128OSM    C1213607   1.754   4.202   1.538  0.3744 -1.0860 -0.6522
  128OSM   H12A13608   1.724   4.185   1.436 -1.2857  0.4339 -0.4725
  128OSM   H12B13609   1.854   4.166   1.559  0.3339 -0.3570  0.9871
  128OSM    C1113610   1.751   4.354   1.570  0.3281 -0.0534 -0.3417
  128OSM   H11A13611   1.647   4.393   1.562  0.7994  1.1228 -1.0252
  128OSM   H11B13612   1.800   4.421   1.496 -2.5202  1.9461 -0.5733
  128OSM      P13613   1.952   4.378   1.738  0.2610 -0.0547  0.1815
  128OSM    O1313614   2.029   4.294   1.643  0.0497 -0.1559  0.0995
  128OSM    O1413615   1.993   4.518   1.764  0.0675 -0.0661  0.0082
  128OSM    O1113616   1.949   4.300   1.876  0.1892 -0.4434 -0.2650
  128OSM    O1213617   1.795   4.373   1.706 -0.1114  0.9509  0.4594
  128OSM    C1S13618   1.886   4.362   1.981 -0.1810 -0.8905 -0.5738
  128OSM    H1S13619   1.777   4.350   1.963 -0.3186  0.7986 -1.0371
  128OSM    H1T13620   1.909   4.470   1.995 -1.6262 -0.5523 -0.6538
  128OSM     NF13621   1.825   4.344   2.219  0.6082  0.0434  0.1474
  128OSM    HNF13622   1.862   4.409   2.285 -1.5537 -1.3067  2.9030
  128OSM    C2S13623   1.910   4.288   2.115  0.1358  0.1222  0.4172
  128OSM    H2S13624   1.869   4.186   2.103 -0.5642  0.3095  1.0702
  128OSM    C3S13625   2.063   4.281   2.145  1.0956 -0.2604  0.1941
  128OSM    H3S13626   2.106   4.384   2.140  0.1828  0.0951 -0.5640
  128OSM     O313627   2.143   4.213   2.038  0.2062  0.6656 -0.4862
  128OSM    HO313628   2.080   4.208   1.966 -0.0463  0.5801 -0.2624
  128OSM    C4S13629   2.088   4.209   2.272  0.1508  0.1453  0.1717
  128OSM    H4S13630   2.077   4.266   2.365 -0.2447 -0.5527  0.5556
  128OSM    C5S13631   2.124   4.078   2.294  0.7239 -0.3324  0.2212
  128OSM    H5S13632   2.138   4.009   2.210 -0.7089 -2.0378  1.3117
  128OSM    C6S13633   2.156   4.023   2.432 -0.9203 -0.0684  1.4389
  128OSM    H6S13634   2.091   3.934   2.447  0.4484 -1.0569  1.7254
  128OSM    H6T13635   2.132   4.095   2.514 -1.0258  0.7293  0.7194
  128OSM    C7S13636   2.296   3.968   2.468 -0.2518 -0.2059  0.4665
  128OSM    H7S13637   2.371   4.049   2.458 -1.0356  0.4782 -0.0508
  128OSM    H7T13638   2.322   3.897   2.387 -0.8646  0.5273 -0.4045
  128OSM    C8S13639   2.295   3.902   2.608  0.4785  0.1277 -0.4710
  128OSM    H8S13640   2.371   3.822   2.619  0.8230  0.0879 -2.7322
  128OSM    H8T13641   2.195   3.854   2.617  1.1003 -1.4050 -1.4155
  128OSM    C9S13642   2.308   4.007   2.721 -0.0846 -0.5290 -0.2395
  128OSM    H9S13643   2.223   4.079   2.728 -1.5994 -2.2829  0.0375
  128OSM    H9T13644   2.401   4.068   2.722  2.3471 -3.8012  3.4510
  128OSM   C10S13645   2.302   3.936   2.859  0.9094 -0.0486  0.0508
  128OSM   H10S13646   2.393   3.877   2.884  1.8099  0.8416 -0.9972
  128OSM   H10T13647   2.204   3.884   2.854 -0.4198  2.3994 -0.9562
  128OSM   C11S13648   2.289   4.041   2.971 -0.4885  0.3872  0.6217
  128OSM   H11S13649   2.201   4.106   2.949 -1.0037 -0.6941 -0.6487
  128OSM   H11T13650   2.376   4.110   2.972  1.0879 -1.4725  2.9097
  128OSM   C12S13651   2.270   3.985   3.111 -0.0292  0.3784  0.0310
  128OSM   H12S13652   2.347   3.906   3.128 -1.3496 -0.9333  0.1061
  128OSM   H12T13653   2.176   3.928   3.096 -1.3773  2.3972  0.4499
  128OSM   C13S13654   2.256   4.090   3.221  0.1677  0.7826 -0.4867
  128OSM   H13S13655   2.181   4.165   3.188  0.0272  0.5289 -0.7484
  128OSM   H13T13656   2.352   4.147   3.220  1.6077 -1.4932  0.6408
  128OSM   C14S13657   2.237   4.038   3.364  0.2384 -0.0022 -0.0477
  128OSM   H14S13658   2.278   4.122   3.425  1.2460  0.6380 -1.5575
  128OSM   H14T13659   2.296   3.944   3.371  1.6338  0.8537  0.2322
  128OSM   C15S13660   2.093   4.012   3.412  0.6224  0.1467 -0.7796
  128OSM   H15S13661   2.049   3.936   3.344  0.9922 -2.0737  1.2984
  128OSM   H15T13662   2.040   4.105   3.385  1.1715  1.1149  1.2378
  128OSM   C16S13663   2.073   3.990   3.563  1.0211 -0.0108  0.6853
  128OSM   H16S13664   2.117   4.076   3.617  1.1445 -1.2785  2.6949
  128OSM   H16T13665   2.125   3.899   3.600 -0.4756 -1.0859  0.2763
  128OSM   C17S13666   1.926   3.981   3.619  0.4536 -0.2443  0.5782
  128OSM   H17S13667   1.883   3.894   3.566  1.1419 -0.4378  0.3347
  128OSM   H17T13668   1.873   4.072   3.582 -2.2817 -1.6414  0.8265
  128OSM   C18S13669   1.918   3.983   3.771 -0.1127  0.0136  0.2263
  128OSM   H18S13670   1.983   3.903   3.814 -0.1057  0.3505  0.8494
  128OSM   H18T13671   1.816   3.976   3.814  0.2677  1.2899  1.3980
  128OSM   H18U13672   1.954   4.081   3.808 -1.1190 -0.0011  1.2850
  128OSM    C1F13673   1.692   4.329   2.226  1.1914 -0.0183 -0.6171
  128OSM     OF13674   1.626   4.263   2.149 -0.2234  0.1566 -0.1170
  128OSM    C2F13675   1.627   4.399   2.351 -0.3989  0.0403 -0.4524
  128OSM    H2F13676   1.517   4.390   2.347 -0.3091 -1.0542 -0.7343
  128OSM    H2G13677   1.661   4.505   2.350 -0.2056 -0.0049  0.3632
  128OSM    C3F13678   1.686   4.341   2.486  0.7569  0.6340  0.6939
  128OSM    H3F13679   1.795   4.356   2.471  1.1120 -2.5777 -0.8378
  128OSM    H3G13680   1.670   4.232   2.505  0.2051  0.5101 -0.4027
  128OSM    C4F13681   1.644   4.407   2.613  0.7370  0.0068 -0.9352
  128OSM    H4F13682   1.649   4.518   2.607 -0.4044  0.1092 -0.2197
  128OSM    H4G13683   1.706   4.375   2.700  0.7429 -3.1809 -2.0068
  128OSM    C5F13684   1.497   4.379   2.652  0.5603  0.2118  0.3122
  128OSM    H5F13685   1.470   4.272   2.640 -1.5160  0.7598 -0.3443
  128OSM    H5G13686   1.430   4.431   2.579  0.3058  0.3930  0.6733
  128OSM    C6F13687   1.468   4.417   2.792  0.4461 -0.2187  0.0718
  128OSM    H6F13688   1.560   4.394   2.849  2.4504  2.1343 -1.9896
  128OSM    H6G13689   1.381   4.355   2.823 -0.8578  2.7416  2.9977
  128OSM    C7F13690   1.436   4.567   2.819  0.1343 -0.8280  0.3951
  128OSM    H7F13691   1.331   4.588   2.787  0.1840  1.2476  1.4038
  128OSM    H7G13692   1.509   4.632   2.767 -0.3256  1.1492  2.0504
  128OSM    C8F13693   1.444   4.603   2.969 -0.0378  0.5152 -0.1484
  128OSM    H8F13694   1.434   4.714   2.966  0.1136  0.5110 -2.1123
  128OSM    H8G13695   1.551   4.588   2.999 -0.0569  0.0417 -0.3084
  128OSM    C9F13696   1.330   4.540   3.048 -0.3694  0.4253  0.1407
  128OSM    H9F13697   1.227   4.569   3.023 -0.6330 -1.6203 -1.3985
  128OSM   C10F13698   1.340   4.440   3.138  0.0370 -0.4105 -0.2276
  128OSM   H10F13699   1.248   4.395   3.177  0.3904 -1.4335 -0.5368
  128OSM   C11F13700   1.468   4.375   3.185 -0.4028 -0.4073  0.1547
  128OSM   H11F13701   1.558   4.437   3.166 -0.9716  0.5776  0.5918
  128OSM   H11G13702   1.471   4.285   3.120 -1.0048  0.7174 -1.4860
  128OSM   C12F13703   1.458   4.341   3.339 -0.3626 -0.4078  0.5062
  128OSM   H12F13704   1.524   4.256   3.368  0.4203  1.0598  3.4029
  128OSM   H12G13705   1.352   4.307   3.347 -0.1985 -0.7816  1.1061
  128OSM   C13F13706   1.489   4.461   3.426 -0.1050 -0.9051 -0.1800
  128OSM   H13F13707   1.448   4.549   3.372 -0.9778 -1.8692 -1.1253
  128OSM   H13G13708   1.599   4.472   3.435 -0.3924  0.0482  4.5016
  128OSM   C14F13709   1.437   4.439   3.565 -0.0629 -0.0347 -0.1404
  128OSM   H14F13710   1.332   4.405   3.550  0.4636 -0.8968 -2.1919
  128OSM   H14G13711   1.436   4.533   3.623  0.0257 -0.2219  0.1705
  128OSM   C15F13712   1.493   4.325   3.651  0.2708  0.0732  0.2264
  128OSM   H15F13713   1.533   4.251   3.579 -1.2013  0.6676 -1.2661
  128OSM   H15G13714   1.408   4.277   3.705 -0.1523  0.4390 -0.1045
  128OSM   C16F13715   1.603   4.377   3.740 -1.0387  0.3748 -0.5116
  128OSM   H16F13716   1.570   4.454   3.813  0.4813 -0.1337  0.7724
  128OSM   H16G13717   1.681   4.433   3.685  1.4696 -1.2566  1.1429
  128OSM   C17F13718   1.669   4.252   3.818 -0.6599 -0.9731 -0.3008
  128OSM   H17F13719   1.754   4.295   3.874 -2.8353  2.3978  0.7040
  128OSM   H17G13720   1.704   4.193   3.731  1.7884 -1.9156  1.2387
  128OSM   C18F13721   1.577   4.169   3.911 -0.0058 -0.6821  0.0988
  128OSM   H18F13722   1.563   4.212   4.012 -1.7629  1.8981 -1.1291
  128OSM   H18G13723   1.619   4.068   3.929  0.7485 -0.2259  1.0324
  128OSM   H18H13724   1.476   4.149   3.869 -0.2882 -2.9487  1.6911
  129OSM      N13725   4.275   1.847   1.720 -0.0777 -0.4739  0.3463
  129OSM    C1513726   4.223   1.848   1.582  0.1321 -0.1901  0.5550
  129OSM   H15A13727   4.265   1.778   1.511  1.6046  1.2268 -0.0459
  129OSM   H15B13728   4.231   1.942   1.528 -2.8680  1.1613  2.2396
  129OSM   H15C13729   4.117   1.829   1.586 -0.0093  0.3439 -0.2410
  129OSM    C1413730   4.221   1.960   1.800  0.1203 -0.0216  0.2611
  129OSM   H14A13731   4.238   2.057   1.755 -0.9094  1.0059  1.9741
  129OSM   H14B13732   4.271   1.967   1.895 -0.2430 -0.4141  0.4856
  129OSM   H14C13733   4.114   1.951   1.809  0.3620 -3.7605  0.9193
  129OSM    C1313734   4.248   1.711   1.787  0.2060 -0.2467  0.4131
  129OSM   H13A13735   4.143   1.703   1.813  0.1398  0.2942  0.3216
  129OSM   H13B13736   4.311   1.701   1.874  1.1910 -1.0294 -0.3555
  129OSM   H13C13737   4.277   1.632   1.719 -0.6400 -0.2062 -0.0089
  129OSM    C1213738   4.430   1.858   1.708  0.7119 -0.4035  0.1960
  129OSM   H12A13739   4.445   1.953   1.659  0.3070 -0.6375 -0.3919
  129OSM   H12B13740   4.456   1.778   1.641 -0.5089 -1.1148  0.5353
  129OSM    C1113741   4.518   1.856   1.832  0.3337 -0.2518 -0.4486
  129OSM   H11A13742   4.481   1.935   1.902  0.9636 -1.2752  1.1111
  129OSM   H11B13743   4.621   1.894   1.816  1.4356 -0.9941  3.6547
  129OSM      P13744   4.603   1.736   2.038  0.1215  0.1347  0.0334
  129OSM    O1313745   4.609   1.602   2.096  0.0998  0.2288  0.3293
  129OSM    O1413746   4.727   1.821   2.027  0.0933  0.0694 -0.2267
  129OSM    O1113747   4.496   1.822   2.120  0.0425 -0.7194 -0.1134
  129OSM    O1213748   4.541   1.725   1.898  0.7021 -0.2516  0.4978
  129OSM    C1S13749   4.361   1.775   2.133  0.1345  0.6727 -0.0178
  129OSM    H1S13750   4.367   1.664   2.129  0.9881  0.6648  1.0487
  129OSM    H1T13751   4.290   1.812   2.056 -2.0892  1.1700  2.1244
  129OSM     NF13752   4.159   1.740   2.290  0.2301  0.6812  0.2576
  129OSM    HNF13753   4.082   1.804   2.288  1.1285  1.8011 -1.6322
  129OSM    C2S13754   4.287   1.804   2.271 -0.1047  0.3107  0.7785
  129OSM    H2S13755   4.354   1.756   2.346  2.3754  3.7115  1.0064
  129OSM    C3S13756   4.291   1.956   2.304 -0.3069  0.7212 -0.1648
  129OSM    H3S13757   4.209   2.003   2.244 -1.3183 -1.0887 -0.2749
  129OSM     O313758   4.411   2.022   2.263 -0.2112 -0.5788  0.1416
  129OSM    HO313759   4.443   1.956   2.201  0.1919 -0.7506  0.5310
  129OSM    C4S13760   4.248   1.983   2.448 -0.5301 -0.5714 -0.6907
  129OSM    H4S13761   4.139   1.986   2.464 -0.6641 -1.3899 -1.4130
  129OSM    C5S13762   4.325   2.004   2.557  0.3618 -0.3506 -0.8902
  129OSM    H5S13763   4.433   1.997   2.536  0.0426 -1.5553 -2.3677
  129OSM    C6S13764   4.287   2.046   2.693 -0.6658  0.7526 -0.2803
  129OSM    H6S13765   4.330   2.147   2.714 -1.7035  1.4367 -1.2960
  129OSM    H6T13766   4.310   1.962   2.762  0.9102 -0.7916 -2.5758
  129OSM    C7S13767   4.135   2.078   2.712  0.7265 -0.4588 -0.3307
  129OSM    H7S13768   4.073   1.986   2.716  0.4181 -0.2197  1.6043
  129OSM    H7T13769   4.098   2.150   2.635  0.2143 -0.2301  0.1228
  129OSM    C8S13770   4.102   2.126   2.854  0.0622 -0.3218 -0.0101
  129OSM    H8S13771   3.992   2.113   2.868  0.5774 -2.5337  2.9739
  129OSM    H8T13772   4.125   2.234   2.864 -1.4360 -0.0190  0.4291
  129OSM    C9S13773   4.163   2.051   2.972  0.3721 -0.5540  0.5077
  129OSM    H9S13774   4.270   2.080   2.977  0.2706  0.0376 -0.4480
  129OSM    H9T13775   4.168   1.942   2.953  1.2628 -0.8468  2.2012
  129OSM   C10S13776   4.101   2.089   3.107 -0.3851 -0.0535 -0.1529
  129OSM   H10S13777   3.991   2.100   3.101 -0.3585  0.1125 -0.3813
  129OSM   H10T13778   4.151   2.184   3.136  0.8199 -0.0726 -2.0187
  129OSM   C11S13779   4.112   1.981   3.218  0.0697 -0.1990  0.1117
  129OSM   H11S13780   4.213   1.943   3.244 -0.3979  0.4426  3.2576
  129OSM   H11T13781   4.065   1.894   3.168  1.7310 -0.2790 -1.4151
  129OSM   C12S13782   4.045   2.020   3.350  0.5217  0.4444 -0.1467
  129OSM   H12S13783   3.938   2.048   3.335  0.6515  0.3472 -1.3627
  129OSM   H12T13784   4.098   2.110   3.387  1.5951 -1.2716  2.8117
  129OSM   C13S13785   4.050   1.910   3.454  0.2840 -0.3859 -0.2253
  129OSM   H13S13786   4.156   1.917   3.486 -0.0671  1.9867  0.6074
  129OSM   H13T13787   4.026   1.813   3.405 -0.0777  0.3106 -1.4587
  129OSM   C14S13788   3.965   1.935   3.578 -0.0045  0.5026 -0.6540
  129OSM   H14S13789   3.862   1.909   3.547 -0.2148 -0.5226  0.7764
  129OSM   H14T13790   3.976   2.040   3.613 -0.9886  1.1702 -2.2647
  129OSM   C15S13791   4.000   1.842   3.691 -0.0936  0.0046  0.0818
  129OSM   H15S13792   4.064   1.764   3.644 -0.1511  0.8853 -1.5304
  129OSM   H15T13793   3.910   1.789   3.727  0.6140 -1.8703 -0.7788
  129OSM   C16S13794   4.075   1.911   3.801 -0.4902  0.4352 -0.3494
  129OSM   H16S13795   4.117   2.012   3.784 -0.9369  0.6540 -0.1960
  129OSM   H16T13796   4.156   1.848   3.844 -1.0561  1.2421  2.0446
  129OSM   C17S13797   3.977   1.933   3.915  0.5599  0.0573  0.6145
  129OSM   H17S13798   3.952   1.841   3.973 -0.2947  0.2164  0.5146
  129OSM   H17T13799   3.885   1.967   3.863  0.6071  0.3305  0.7094
  129OSM   C18S13800   4.020   2.048   4.010 -0.4558  1.1249  0.7126
  129OSM   H18S13801   4.040   2.141   3.954 -0.6319  0.7244 -0.0244
  129OSM   H18T13802   4.110   2.026   4.072 -0.0305  3.8587  1.1888
  129OSM   H18U13803   3.934   2.069   4.078  0.4430  0.9425  1.9339
  129OSM    C1F13804   4.137   1.608   2.291 -0.2255 -0.1954  0.1617
  129OSM     OF13805   4.227   1.528   2.295 -0.1065 -0.3556 -0.8941
  129OSM    C2F13806   3.990   1.571   2.275  0.0952  0.5434 -0.5852
  129OSM    H2F13807   3.989   1.493   2.196  3.4123 -0.8265  0.5406
  129OSM    H2G13808   3.936   1.657   2.231 -2.1612  0.4146  1.7117
  129OSM    C3F13809   3.931   1.497   2.397 -0.1320  0.1045 -0.4892
  129OSM    H3F13810   3.931   1.558   2.489 -1.6128 -1.5448  0.6602
  129OSM    H3G13811   3.991   1.410   2.430 -0.8597 -0.0427  0.4700
  129OSM    C4F13812   3.789   1.460   2.369  0.6684  0.4894 -0.3848
  129OSM    H4F13813   3.788   1.409   2.270 -3.0366 -2.2126  0.8002
  129OSM    H4G13814   3.726   1.552   2.364 -1.2163 -0.6875  0.4266
  129OSM    C5F13815   3.723   1.364   2.473 -0.0226  0.2041 -0.9403
  129OSM    H5F13816   3.773   1.266   2.479 -1.9082 -0.7288  3.3488
  129OSM    H5G13817   3.622   1.349   2.429 -1.3937  1.6543  1.5217
  129OSM    C6F13818   3.716   1.414   2.615 -0.8481 -0.0734  0.2554
  129OSM    H6F13819   3.665   1.513   2.620  1.7203  1.4407 -1.0200
  129OSM    H6G13820   3.815   1.446   2.655 -0.3100 -0.3683 -0.7918
  129OSM    C7F13821   3.636   1.324   2.707 -0.3938  0.5368 -0.0280
  129OSM    H7F13822   3.684   1.229   2.675 -0.6690  1.2332 -2.6656
  129OSM    H7G13823   3.532   1.306   2.674 -1.3852  2.0519  2.0055
  129OSM    C8F13824   3.644   1.361   2.853 -0.6734 -0.1238  0.0217
  129OSM    H8F13825   3.567   1.296   2.899 -0.7806  1.1204  1.7144
  129OSM    H8G13826   3.605   1.465   2.867  2.3764  1.4580 -2.1453
  129OSM    C9F13827   3.772   1.335   2.924  0.4232 -0.6825 -0.2939
  129OSM    H9F13828   3.867   1.347   2.870  1.1917  1.3874  1.3653
  129OSM   C10F13829   3.775   1.329   3.059  0.0003 -0.0967 -0.2557
  129OSM   H10F13830   3.873   1.311   3.106 -0.2721 -0.5156  0.1728
  129OSM   C11F13831   3.664   1.317   3.160  0.5206 -0.1818  0.1626
  129OSM   H11F13832   3.567   1.352   3.118  0.2412 -2.5420 -1.3607
  129OSM   H11G13833   3.680   1.380   3.250 -0.4097  0.8750 -0.3823
  129OSM   C12F13834   3.644   1.168   3.206 -0.3690 -0.9038 -0.3043
  129OSM   H12F13835   3.604   1.109   3.121 -0.6400 -0.1399 -0.7151
  129OSM   H12G13836   3.563   1.180   3.282  0.2036  2.3436 -0.0897
  129OSM   C13F13837   3.767   1.103   3.268  0.1233 -0.3057  0.1261
  129OSM   H13F13838   3.827   1.171   3.332 -0.3412 -0.0586  0.3101
  129OSM   H13G13839   3.837   1.072   3.188  2.0426  3.0638  0.3253
  129OSM   C14F13840   3.733   0.976   3.338  0.6288  0.5508 -0.0398
  129OSM   H14F13841   3.663   0.913   3.278  1.6303  0.3326 -1.0144
  129OSM   H14G13842   3.682   1.003   3.433  0.7153  0.4815  0.0265
  129OSM   C15F13843   3.863   0.895   3.353 -1.1588  0.2812  0.5604
  129OSM   H15F13844   3.927   0.967   3.409  0.2231 -0.4142 -0.0568
  129OSM   H15G13845   3.904   0.882   3.251 -0.9529 -1.1034  0.8040
  129OSM   C16F13846   3.853   0.755   3.401  0.1631  0.3026 -0.5940
  129OSM   H16F13847   3.832   0.682   3.319  0.9412  0.6920 -1.1607
  129OSM   H16G13848   3.765   0.744   3.467  1.1787 -0.2253  0.7294
  129OSM   C17F13849   3.980   0.702   3.470 -0.6233 -0.2960 -0.1969
  129OSM   H17F13850   4.076   0.738   3.425 -0.5825 -0.3676 -0.1674
  129OSM   H17G13851   3.983   0.591   3.461 -1.9755 -0.2260 -2.1294
  129OSM   C18F13852   3.983   0.730   3.620 -0.1776  0.5935 -0.6894
  129OSM   H18F13853   3.890   0.695   3.671 -0.3669  0.2579 -1.2609
  129OSM   H18G13854   3.985   0.841   3.628 -0.8026  0.6588 -1.3274
  129OSM   H18H13855   4.064   0.681   3.678 -1.7311  1.2535  2.2321
  130OSM      N13856   3.684   5.859   1.900 -0.4398 -0.0241  0.1540
  130OSM    C1513857   3.668   5.949   2.017  0.0515 -0.9200 -0.3982
  130OSM   H15A13858   3.610   5.900   2.094  1.0467  0.8910  1.6393
  130OSM   H15B13859   3.614   6.040   1.998 -0.1688 -0.2144  2.9553
  130OSM   H15C13860   3.770   5.964   2.051  0.8880  0.1429 -3.1035
  130OSM    C1413861   3.551   5.797   1.863 -0.4485  0.1683 -0.2980
  130OSM   H14A13862   3.550   5.742   1.770 -2.7920 -0.0473 -0.2167
  130OSM   H14B13863   3.476   5.872   1.843 -1.7990 -1.0317  0.0655
  130OSM   H14C13864   3.524   5.731   1.944  0.5092 -0.4080 -0.4275
  130OSM    C1313865   3.728   5.933   1.783 -0.1585  0.4644  0.3577
  130OSM   H13A13866   3.652   6.009   1.765 -0.1132  0.3413 -0.3458
  130OSM   H13B13867   3.725   5.862   1.703 -0.0287  0.3961  0.4137
  130OSM   H13C13868   3.830   5.968   1.791 -0.1867  0.3998  1.1037
  130OSM    C1213869   3.789   5.754   1.933  1.0405 -0.0377 -0.2084
  130OSM   H12A13870   3.773   5.668   1.869 -2.5534  2.0703 -2.4255
  130OSM   H12B13871   3.762   5.726   2.034 -0.9739  2.1631 -0.0582
  130OSM    C1113872   3.939   5.802   1.938  0.7660 -0.1861 -0.2212
  130OSM   H11A13873   3.959   5.851   1.840 -1.2431 -0.5834 -0.8771
  130OSM   H11B13874   4.001   5.711   1.954 -0.8700 -1.2157  0.5324
  130OSM      P13875   4.098   5.900   2.123 -0.3299 -0.2237  0.4050
  130OSM    O1313876   4.133   5.765   2.173 -0.0993  0.4323 -0.4303
  130OSM    O1413877   4.207   5.971   2.048  0.3541  0.7041  0.0493
  130OSM    O1113878   4.056   5.991   2.239  0.6322 -0.3185  0.0375
  130OSM    O1213879   3.958   5.890   2.045 -0.4153 -0.2557  0.7069
  130OSM    C1S13880   3.916   6.004   2.278 -0.5314  0.7689 -0.1133
  130OSM    H1S13881   3.862   5.907   2.271  0.9975 -0.1200 -0.1457
  130OSM    H1T13882   3.870   6.075   2.207 -1.5784  3.1079  2.7279
  130OSM     NF13883   3.780   6.042   2.478  0.9163  0.2895  0.1268
  130OSM    HNF13884   3.716   6.117   2.465  1.3914  0.6937  0.1038
  130OSM    C2S13885   3.909   6.067   2.415  0.2410  0.5563 -0.4682
  130OSM    H2S13886   3.982   6.015   2.481  1.6046  2.3047 -0.5233
  130OSM    C3S13887   3.958   6.215   2.406  0.4838 -0.3323 -0.5948
  130OSM    H3S13888   3.902   6.281   2.336  3.1466  1.9431 -0.7544
  130OSM     O313889   4.091   6.214   2.349  0.2243 -0.4233 -0.5473
  130OSM    HO313890   4.101   6.119   2.339  1.3409 -0.7241  2.4609
  130OSM    C4S13891   3.968   6.270   2.551 -0.1224 -0.5679 -0.2336
  130OSM    H4S13892   4.055   6.229   2.604 -0.1588 -0.9064 -0.4258
  130OSM    C5S13893   3.886   6.351   2.617  0.4369  0.6319 -1.0734
  130OSM    H5S13894   3.793   6.375   2.565  0.1130  1.3087 -0.1992
  130OSM    C6S13895   3.900   6.379   2.765  0.3274 -0.2198 -0.1434
  130OSM    H6S13896   3.893   6.489   2.781 -0.4485 -0.3257  0.3204
  130OSM    H6T13897   4.005   6.360   2.793 -0.1985 -1.8491  0.8542
  130OSM    C7S13898   3.791   6.309   2.848 -0.2072 -0.1149 -0.0365
  130OSM    H7S13899   3.823   6.323   2.954  0.5720 -0.3314 -0.2406
  130OSM    H7T13900   3.786   6.202   2.819 -0.7132  0.1863 -1.1124
  130OSM    C8S13901   3.649   6.372   2.838  0.0247  0.5284  0.1388
  130OSM    H8S13902   3.608   6.363   2.735 -1.2183 -1.8643  0.7552
  130OSM    H8T13903   3.652   6.481   2.858  0.1676  0.7491 -1.0383
  130OSM    C9S13904   3.566   6.285   2.937  0.1165  0.0125 -0.3960
  130OSM    H9S13905   3.581   6.311   3.044 -1.2367 -2.1275  0.3582
  130OSM    H9T13906   3.591   6.178   2.918  0.0297 -0.2913  1.0619
  130OSM   C10S13907   3.416   6.314   2.910 -0.5141 -0.0671  0.5925
  130OSM   H10S13908   3.386   6.304   2.803  1.3882  1.8303 -0.1846
  130OSM   H10T13909   3.406   6.424   2.927  0.2466  0.2768 -0.9920
  130OSM   C11S13910   3.323   6.244   3.011  0.0464  0.1740 -0.1934
  130OSM   H11S13911   3.341   6.134   3.017 -1.7003 -0.0931  0.4984
  130OSM   H11T13912   3.220   6.267   2.978 -0.2585  1.3144  1.4496
  130OSM   C12S13913   3.345   6.284   3.157 -0.1541 -0.1780  0.2850
  130OSM   H12S13914   3.316   6.391   3.166 -0.9478 -0.3056 -0.7262
  130OSM   H12T13915   3.450   6.272   3.193 -0.7170 -0.2942  2.0082
  130OSM   C13S13916   3.263   6.213   3.257 -0.0264 -0.4033 -0.0618
  130OSM   H13S13917   3.286   6.105   3.249  0.3877 -0.1970 -3.0112
  130OSM   H13T13918   3.155   6.238   3.248 -0.1514 -1.0905 -0.5340
  130OSM   C14S13919   3.295   6.252   3.400 -0.5216  0.4360 -0.2672
  130OSM   H14S13920   3.405   6.242   3.412 -0.3885  1.5996 -0.3686
  130OSM   H14T13921   3.254   6.170   3.462 -0.2399 -0.1357 -0.8239
  130OSM   C15S13922   3.243   6.389   3.451  0.2266  0.1849  0.5657
  130OSM   H15S13923   3.135   6.391   3.423  0.4257 -2.2606 -0.6239
  130OSM   H15T13924   3.288   6.475   3.397  0.2036 -0.2566 -0.1680
  130OSM   C16S13925   3.270   6.424   3.597  0.3596 -0.2182  0.3097
  130OSM   H16S13926   3.376   6.404   3.620  0.9595  2.4949  0.1761
  130OSM   H16T13927   3.215   6.348   3.657  0.4699 -1.3448 -0.9768
  130OSM   C17S13928   3.241   6.567   3.647  0.1586 -1.1805 -0.1556
  130OSM   H17S13929   3.134   6.595   3.631 -0.1869 -2.1103  0.4394
  130OSM   H17T13930   3.299   6.641   3.588 -0.8460 -0.2514 -0.0131
  130OSM   C18S13931   3.272   6.588   3.798  0.4549 -0.1170  0.7646
  130OSM   H18S13932   3.249   6.488   3.838 -1.4425 -0.0930 -0.1386
  130OSM   H18T13933   3.217   6.675   3.841 -0.9672  1.0869 -3.0045
  130OSM   H18U13934   3.380   6.613   3.805  0.1498  1.5288  0.2086
  130OSM    C1F13935   3.736   5.917   2.514  0.1260  0.2963 -0.0584
  130OSM     OF13936   3.810   5.815   2.507  0.2059 -0.6463 -0.0809
  130OSM    C2F13937   3.592   5.906   2.578 -0.5031  0.6861  0.4266
  130OSM    H2F13938   3.551   5.825   2.514  0.2615 -0.1126  0.9321
  130OSM    H2G13939   3.557   6.009   2.552  1.5728  1.4478  0.4363
  130OSM    C3F13940   3.590   5.871   2.721  0.6099 -0.1110  0.2447
  130OSM    H3F13941   3.672   5.918   2.778  0.6553  0.7761 -0.5224
  130OSM    H3G13942   3.601   5.760   2.725  0.5099 -0.1962 -1.1780
  130OSM    C4F13943   3.454   5.908   2.790 -0.3498  0.7844 -0.8940
  130OSM    H4F13944   3.369   5.879   2.724  0.0641 -2.7677 -0.0783
  130OSM    H4G13945   3.453   6.018   2.806 -0.6377  0.5513  0.8791
  130OSM    C5F13946   3.443   5.841   2.926  0.8030 -0.4693 -0.6119
  130OSM    H5F13947   3.439   5.731   2.913 -0.3490 -0.7778  1.8075
  130OSM    H5G13948   3.350   5.873   2.978  2.2964  1.1433  1.2187
  130OSM    C6F13949   3.560   5.874   3.022 -0.0081 -0.2212  0.5296
  130OSM    H6F13950   3.562   5.984   3.039 -0.0106 -0.1356 -0.0056
  130OSM    H6G13951   3.658   5.834   2.988  0.2621 -0.7492  1.8704
  130OSM    C7F13952   3.538   5.806   3.160 -0.5145  0.0479 -0.1093
  130OSM    H7F13953   3.539   5.696   3.142  0.1741  0.1631 -0.8203
  130OSM    H7G13954   3.440   5.822   3.209 -0.0992 -0.0698  0.7863
  130OSM    C8F13955   3.652   5.838   3.271  0.2083 -0.3287  0.8813
  130OSM    H8F13956   3.752   5.833   3.223 -0.2588  0.4958 -0.2137
  130OSM    H8G13957   3.640   5.758   3.348  1.2347 -0.5610  0.8061
  130OSM    C9F13958   3.644   5.985   3.319  0.3437  0.4820 -0.3084
  130OSM    H9F13959   3.589   6.052   3.251 -0.4259  0.0779 -0.0980
  130OSM   C10F13960   3.695   6.032   3.430  1.2500 -0.7281 -0.8970
  130OSM   H10F13961   3.663   6.135   3.452  4.5151 -0.0432  1.3770
  130OSM   C11F13962   3.771   5.958   3.538 -0.3543 -0.0443 -0.2358
  130OSM   H11F13963   3.753   5.850   3.519 -1.1766  0.1424 -0.5590
  130OSM   H11G13964   3.720   5.984   3.633 -0.7235 -0.2336 -0.3804
  130OSM   C12F13965   3.920   5.990   3.533  0.1106 -0.1429  0.3028
  130OSM   H12F13966   3.933   6.100   3.519  0.5342 -0.2603 -0.2930
  130OSM   H12G13967   3.967   5.943   3.444 -2.1306 -1.0210 -0.4938
  130OSM   C13F13968   3.988   5.951   3.659 -0.2107  0.3124  0.2889
  130OSM   H13F13969   3.971   5.842   3.666 -0.2013  0.3401  0.7666
  130OSM   H13G13970   3.932   6.000   3.741 -1.0773  2.8620 -1.6567
  130OSM   C14F13971   4.146   5.977   3.665  0.0513 -0.1491 -0.3557
  130OSM   H14F13972   4.153   6.085   3.689 -1.6786 -0.1160  0.1649
  130OSM   H14G13973   4.187   5.955   3.564 -1.6549 -0.2874 -1.0500
  130OSM   C15F13974   4.227   5.890   3.767 -0.0584  0.6687 -0.3738
  130OSM   H15F13975   4.261   5.794   3.722 -0.0520  0.9050 -0.8847
  130OSM   H15G13976   4.167   5.878   3.859 -2.7293  2.2240 -1.7951
  130OSM   C16F13977   4.356   5.964   3.812  0.2671  0.8058 -0.4034
  130OSM   H16F13978   4.324   6.062   3.853  0.5083  0.2025  1.3346
  130OSM   H16G13979   4.424   5.966   3.724 -0.4900 -3.3429 -1.2952
  130OSM   C17F13980   4.429   5.898   3.933 -0.4423  0.1333  0.2262
  130OSM   H17F13981   4.356   5.897   4.018  0.2790 -0.4812  0.8542
  130OSM   H17G13982   4.514   5.960   3.968  1.0529 -1.7133 -0.0137
  130OSM   C18F13983   4.475   5.759   3.895 -0.4458  0.3550 -0.2322
  130OSM   H18F13984   4.550   5.754   3.813  0.6660 -1.5520  0.8442
  130OSM   H18G13985   4.401   5.679   3.873 -1.8111  0.9984  1.7297
  130OSM   H18H13986   4.535   5.723   3.981  1.1690  0.3612 -1.3065
  131OSM      N13987   1.429   2.725   1.834 -0.4978  0.3496  0.6891
  131OSM    C1513988   1.431   2.628   1.723  0.5961  0.8786  0.7790
  131OSM   H15A13989   1.339   2.574   1.704  0.8662  0.8427 -0.4976
  131OSM   H15B13990   1.504   2.551   1.738 -1.4456 -1.1236  1.0443
  131OSM   H15C13991   1.455   2.686   1.635 -0.8955  1.0927  0.4832
  131OSM    C1413992   1.330   2.832   1.807 -0.6082  0.0671  1.3201
  131OSM   H14A13993   1.368   2.888   1.723 -3.3549  1.6711  1.0571
  131OSM   H14B13994   1.318   2.903   1.888 -1.1878 -0.0127  1.3022
  131OSM   H14C13995   1.233   2.792   1.783 -1.6185  1.9780  1.9409
  131OSM    C1313996   1.403   2.653   1.961 -0.2564 -0.2435  0.6960
  131OSM   H13A13997   1.398   2.729   2.037 -0.1698  0.2753  0.1950
  131OSM   H13B13998   1.480   2.578   1.975  0.2269  0.2120  0.5308
  131OSM   H13C13999   1.312   2.596   1.958 -0.2136 -0.2717 -1.1182
  131OSM    C1214000   1.570   2.782   1.843 -0.5894  0.4155  0.1937
  131OSM   H12A14001   1.635   2.700   1.872  1.1313  1.6320 -0.1066
  131OSM   H12B14002   1.580   2.864   1.912 -1.4552  1.0096 -0.3774
  131OSM    C1114003   1.626   2.837   1.709 -0.5311 -0.0099  0.6013
  131OSM   H11A14004   1.608   2.762   1.629 -3.5228 -0.2910  1.4152
  131OSM   H11B14005   1.736   2.849   1.714 -0.1784 -1.8008 -1.5143
  131OSM      P14006   1.607   3.099   1.721  0.5772  0.1918  0.0132
  131OSM    O1314007   1.732   3.135   1.647  0.2499  0.1593  1.0480
  131OSM    O1414008   1.494   3.193   1.721  0.4233 -0.3653 -0.1077
  131OSM    O1114009   1.643   3.064   1.869  0.2085  0.3094 -0.0301
  131OSM    O1214010   1.559   2.959   1.671  0.3033  0.5187  0.1199
  131OSM    C1S14011   1.564   3.089   1.984  0.0513 -0.0070  0.0745
  131OSM    H1S14012   1.490   3.007   1.974 -0.1467  0.3432 -1.6689
  131OSM    H1T14013   1.487   3.169   1.976  0.0871 -0.0376 -0.6595
  131OSM     NF14014   1.516   3.079   2.218 -0.4436  0.3342 -0.2631
  131OSM    HNF14015   1.499   3.167   2.262  2.4183  0.7558  0.1750
  131OSM    C2S14016   1.629   3.081   2.123  0.6888 -0.4728  0.5534
  131OSM    H2S14017   1.686   2.987   2.138  0.9861 -0.9749 -2.9689
  131OSM    C3S14018   1.727   3.200   2.147  0.9723  0.1133 -0.4100
  131OSM    H3S14019   1.672   3.296   2.132 -1.2767 -0.6503  2.1458
  131OSM     O314020   1.830   3.207   2.046 -0.4831 -0.0542  0.4354
  131OSM    HO314021   1.790   3.157   1.975 -1.4780 -1.4835  1.9431
  131OSM    C4S14022   1.792   3.190   2.286 -0.0249  0.5015  0.0297
  131OSM    H4S14023   1.744   3.244   2.368 -0.7371 -2.5956  1.8236
  131OSM    C5S14024   1.904   3.115   2.318  0.8237  0.3094  0.0779
  131OSM    H5S14025   1.945   3.051   2.238  0.5558  0.4134 -0.1430
  131OSM    C6S14026   1.987   3.103   2.443 -0.0615 -0.1119 -0.1147
  131OSM    H6S14027   2.005   3.199   2.496  0.4278 -0.4805  0.4001
  131OSM    H6T14028   2.088   3.067   2.414 -0.1612 -1.1357  0.7479
  131OSM    C7S14029   1.929   3.004   2.544  0.3269  0.2967  0.0576
  131OSM    H7S14030   1.889   2.913   2.495 -1.6072  1.5297 -0.7656
  131OSM    H7T14031   1.838   3.053   2.585  1.1113  1.9256 -0.0297
  131OSM    C8S14032   2.033   2.963   2.647  0.3615  0.6839 -0.1716
  131OSM    H8S14033   2.133   2.952   2.600  0.4171 -1.7605  0.3894
  131OSM    H8T14034   1.996   2.867   2.687 -0.1553  1.0559  0.2613
  131OSM    C9S14035   2.052   3.065   2.762  0.3454  0.3270 -0.1870
  131OSM    H9S14036   2.129   3.140   2.735  0.4656 -0.3741 -1.8950
  131OSM    H9T14037   2.099   3.014   2.849  1.8868  2.2191  0.1670
  131OSM   C10S14038   1.924   3.111   2.833 -0.3429  0.3835  0.3663
  131OSM   H10S14039   1.851   3.028   2.847 -0.4079  0.3030 -0.4069
  131OSM   H10T14040   1.873   3.193   2.777 -0.6757 -0.4650 -0.6101
  131OSM   C11S14041   1.955   3.151   2.980  1.2607 -0.0469  0.2688
  131OSM   H11S14042   2.022   3.239   2.989  0.3580  0.8452 -1.2035
  131OSM   H11T14043   2.005   3.066   3.030  0.8949  0.4277  1.4755
  131OSM   C12S14044   1.819   3.178   3.055  0.5647  0.5866 -0.8771
  131OSM   H12S14045   1.791   3.079   3.096  2.1448  1.1195  1.7403
  131OSM   H12T14046   1.740   3.211   2.984 -0.2598 -0.4258 -0.4524
  131OSM   C13S14047   1.843   3.284   3.165 -0.8447 -0.2996  0.7022
  131OSM   H13S14048   1.875   3.375   3.111  0.6455  0.1741  2.2736
  131OSM   H13T14049   1.920   3.261   3.242 -1.3634  3.3601  2.5503
  131OSM   C14S14050   1.716   3.328   3.238 -0.2505 -0.0603 -0.8150
  131OSM   H14S14051   1.644   3.357   3.159 -3.2682 -1.5274  1.1675
  131OSM   H14T14052   1.742   3.415   3.303 -0.7264 -0.0821 -0.5909
  131OSM   C15S14053   1.642   3.214   3.326 -0.2209 -0.1732 -0.3398
  131OSM   H15S14054   1.717   3.159   3.386 -2.1698  0.2013  2.6582
  131OSM   H15T14055   1.582   3.154   3.253 -2.6156  2.3611 -0.6515
  131OSM   C16S14056   1.540   3.267   3.428 -1.2174  0.9453 -0.4167
  131OSM   H16S14057   1.601   3.331   3.496  2.7623 -1.2341 -1.6428
  131OSM   H16T14058   1.507   3.174   3.479  1.3352 -1.1106 -2.2389
  131OSM   C17S14059   1.432   3.349   3.359 -0.0891  0.9605 -0.0191
  131OSM   H17S14060   1.399   3.288   3.272  3.6629 -1.2412 -0.1283
  131OSM   H17T14061   1.478   3.445   3.326  0.8003  1.0264  1.3225
  131OSM   C18S14062   1.314   3.378   3.455 -0.4924 -0.2480  0.6543
  131OSM   H18S14063   1.361   3.418   3.547  0.6764  0.2322 -0.1264
  131OSM   H18T14064   1.254   3.291   3.490 -0.4265 -1.2950 -1.6301
  131OSM   H18U14065   1.244   3.452   3.408  1.2135  1.0209  0.0022
  131OSM    C1F14066   1.440   2.972   2.222 -0.8263 -0.0156  0.1069
  131OSM     OF14067   1.466   2.868   2.158 -0.0472 -0.3539 -0.4771
  131OSM    C2F14068   1.319   2.978   2.310  0.3598  0.2423 -0.0735
  131OSM    H2F14069   1.249   2.915   2.251  0.1696  0.9707 -0.6326
  131OSM    H2G14070   1.282   3.080   2.333 -0.3011  0.0528 -0.2683
  131OSM    C3F14071   1.333   2.901   2.440 -0.3245  0.5372  0.0422
  131OSM    H3F14072   1.388   2.809   2.413  0.6883  1.6330 -1.9074
  131OSM    H3G14073   1.236   2.873   2.486 -0.5932  0.8145 -0.3390
  131OSM    C4F14074   1.415   2.976   2.537  0.3831 -0.5756 -0.3679
  131OSM    H4F14075   1.353   3.061   2.573  0.6993 -1.0612  1.4299
  131OSM    H4G14076   1.492   3.024   2.472 -0.7248  0.7649 -0.7439
  131OSM    C5F14077   1.470   2.886   2.654 -0.5041 -0.3626 -0.3832
  131OSM    H5F14078   1.536   2.803   2.620 -0.7245 -0.4749 -0.5369
  131OSM    H5G14079   1.384   2.831   2.698  0.8184 -2.7831 -0.6461
  131OSM    C6F14080   1.553   2.953   2.762  0.2010 -0.2803 -0.2091
  131OSM    H6F14081   1.491   3.024   2.820 -2.5519 -2.1447 -0.6637
  131OSM    H6G14082   1.631   3.011   2.708  0.9911 -2.2993 -1.3560
  131OSM    C7F14083   1.639   2.854   2.846 -0.1686  0.0887 -0.8679
  131OSM    H7F14084   1.717   2.901   2.909  2.1555 -2.5456 -1.5633
  131OSM    H7G14085   1.699   2.797   2.772  1.5712  0.8005 -0.0684
  131OSM    C8F14086   1.567   2.747   2.930 -0.6062  0.6170 -0.4277
  131OSM    H8F14087   1.630   2.666   2.972 -0.6087 -1.1271 -3.4653
  131OSM    H8G14088   1.492   2.693   2.868  0.0565 -1.7397  0.6774
  131OSM    C9F14089   1.498   2.825   3.037  0.6258  0.0539  0.6356
  131OSM    H9F14090   1.409   2.878   2.999  0.1933 -0.9495  0.2052
  131OSM   C10F14091   1.536   2.851   3.165 -0.1492  0.8266  0.2492
  131OSM   H10F14092   1.459   2.889   3.235 -0.3551 -1.5917  1.4306
  131OSM   C11F14093   1.660   2.810   3.240  0.0918  0.4716 -0.1547
  131OSM   H11F14094   1.752   2.859   3.201 -0.0258 -0.5535 -1.8218
  131OSM   H11G14095   1.686   2.704   3.220  0.1366  0.3646  0.4624
  131OSM   C12F14096   1.661   2.840   3.386 -0.2762 -0.5863 -0.7431
  131OSM   H12F14097   1.577   2.785   3.432 -0.2467 -1.1341 -1.3196
  131OSM   H12G14098   1.644   2.947   3.410 -1.1023 -0.9586  0.3976
  131OSM   C13F14099   1.791   2.793   3.449 -0.0216 -0.0667  0.2730
  131OSM   H13F14100   1.873   2.859   3.413 -0.6099  0.0790 -0.8417
  131OSM   H13G14101   1.802   2.690   3.411  2.7541  1.1840 -2.8414
  131OSM   C14F14102   1.788   2.794   3.602 -0.4961 -1.0275  0.2872
  131OSM   H14F14103   1.700   2.733   3.631 -1.9959  1.0966  0.4702
  131OSM   H14G14104   1.769   2.901   3.629 -0.5596 -0.1194 -2.9450
  131OSM   C15F14105   1.919   2.747   3.670 -0.5490 -0.4025 -0.4185
  131OSM   H15F14106   1.954   2.839   3.720 -2.0895  1.3647 -2.3774
  131OSM   H15G14107   1.997   2.710   3.600 -0.9311 -1.8695 -0.1055
  131OSM   C16F14108   1.905   2.622   3.762  0.3432  0.1333 -0.3464
  131OSM   H16F14109   1.897   2.524   3.710 -1.3179  0.3865 -0.6459
  131OSM   H16G14110   1.818   2.631   3.830  0.2009  1.3341 -0.6610
  131OSM   C17F14111   2.024   2.605   3.854 -0.0178 -0.5464  0.6801
  131OSM   H17F14112   2.118   2.622   3.798  0.2504  0.2363  1.3375
  131OSM   H17G14113   2.019   2.500   3.888 -0.8338 -1.1959 -1.2930
  131OSM   C18F14114   2.019   2.711   3.967  0.4057  0.4343  0.1895
  131OSM   H18F14115   1.938   2.684   4.039 -1.4342  0.4506 -1.7481
  131OSM   H18G14116   2.011   2.819   3.942  0.7393  0.3354 -0.3622
  131OSM   H18H14117   2.109   2.694   4.029 -0.7646 -1.5634  1.4591
  132OSM      N14118   1.316   3.708   2.040  0.6648 -0.1554  0.2067
  132OSM    C1514119   1.380   3.586   2.076  0.0596  0.5102 -0.3219
  132OSM   H15A14120   1.311   3.521   2.129 -0.8858  0.0234 -2.0721
  132OSM   H15B14121   1.464   3.604   2.141  1.0976  0.4070 -1.5904
  132OSM   H15C14122   1.425   3.537   1.991 -1.6347  0.7095 -1.3829
  132OSM    C1414123   1.313   3.795   2.164  0.5512 -1.0713  0.3681
  132OSM   H14A14124   1.414   3.801   2.201  0.1524  0.0745  1.3173
  132OSM   H14B14125   1.257   3.748   2.244 -1.0008  0.9610  0.5700
  132OSM   H14C14126   1.276   3.895   2.146  4.6036  0.0681 -3.1018
  132OSM    C1314127   1.404   3.784   1.941 -0.1205 -0.7040  0.0530
  132OSM   H13A14128   1.491   3.814   1.999 -0.6202 -0.6780  0.8009
  132OSM   H13B14129   1.359   3.874   1.903 -0.0264 -0.2173  1.0699
  132OSM   H13C14130   1.440   3.724   1.858  3.0587  1.4436 -0.2989
  132OSM    C1214131   1.189   3.680   1.971 -0.2001 -0.4920  0.0396
  132OSM   H12A14132   1.202   3.665   1.865  0.4888 -1.6348  0.2683
  132OSM   H12B14133   1.135   3.774   1.966  1.2993  0.6250  2.6277
  132OSM    C1114134   1.106   3.566   2.029 -0.5399  1.2378 -0.3653
  132OSM   H11A14135   1.162   3.471   2.036 -0.4939  1.3794  1.8494
  132OSM   H11B14136   1.028   3.538   1.955  1.9774 -2.6919 -1.8747
  132OSM      P14137   0.962   3.718   2.191 -0.0442  0.2510  0.0925
  132OSM    O1314138   0.996   3.760   2.328 -0.0431  0.1084 -0.4195
  132OSM    O1414139   0.948   3.821   2.086  0.8109 -0.0186 -0.2760
  132OSM    O1114140   0.823   3.649   2.200  0.0253  0.0705 -0.3706
  132OSM    O1214141   1.056   3.596   2.157 -0.3306  0.3015 -0.2708
  132OSM    C1S14142   0.810   3.521   2.263 -0.0847  0.1435 -0.7758
  132OSM    H1S14143   0.896   3.455   2.239  0.5285  0.9604 -0.8976
  132OSM    H1T14144   0.718   3.469   2.229 -0.1164 -0.0048 -0.4666
  132OSM     NF14145   0.799   3.387   2.486  0.2139 -0.4276  0.5902
  132OSM    HNF14146   0.724   3.357   2.544 -0.9606  0.8818 -0.1696
  132OSM    C2S14147   0.795   3.517   2.420  0.3147  0.7760  0.3055
  132OSM    H2S14148   0.879   3.585   2.446 -0.9638  2.5662 -0.0306
  132OSM    C3S14149   0.666   3.601   2.458 -0.0179 -0.6957  0.1532
  132OSM    H3S14150   0.577   3.544   2.421 -0.7613  1.1030 -0.9505
  132OSM     O314151   0.641   3.730   2.397 -0.3683 -0.2181  0.0749
  132OSM    HO314152   0.704   3.727   2.325 -0.1685  0.1027  0.2302
  132OSM    C4S14153   0.660   3.611   2.616 -0.1007 -0.0451 -0.0657
  132OSM    H4S14154   0.748   3.653   2.668  0.5391 -1.6720  0.2362
  132OSM    C5S14155   0.546   3.579   2.684 -0.0210  0.3424 -0.3487
  132OSM    H5S14156   0.461   3.531   2.633 -0.2920 -0.7355  1.0562
  132OSM    C6S14157   0.536   3.582   2.833  0.1867  0.2399  0.6045
  132OSM    H6S14158   0.464   3.508   2.875  1.4343 -1.0935  0.4950
  132OSM    H6T14159   0.492   3.679   2.862 -1.7258 -0.6578  0.8884
  132OSM    C7S14160   0.662   3.562   2.905 -0.5075  0.1200 -0.0151
  132OSM    H7S14161   0.745   3.626   2.868  1.2582 -1.6866  0.6178
  132OSM    H7T14162   0.699   3.460   2.883 -0.4347  0.1979 -0.2564
  132OSM    C8S14163   0.654   3.571   3.057 -0.8340 -0.1205  0.7707
  132OSM    H8S14164   0.754   3.544   3.097 -0.1603  1.0113 -0.1125
  132OSM    H8T14165   0.579   3.509   3.112  0.2535 -1.4322  0.8180
  132OSM    C9S14166   0.621   3.716   3.098 -0.4029  0.0782  0.1059
  132OSM    H9S14167   0.526   3.743   3.048 -0.0875  0.0179 -0.5385
  132OSM    H9T14168   0.711   3.777   3.073 -1.1402  0.5819 -1.4123
  132OSM   C10S14169   0.616   3.746   3.248 -0.1030  0.1067  0.5792
  132OSM   H10S14170   0.708   3.715   3.301  0.2689  0.1931 -0.0078
  132OSM   H10T14171   0.532   3.687   3.290  1.4816 -1.2111  2.0314
  132OSM   C11S14172   0.588   3.892   3.271 -0.0658 -0.1672  0.3400
  132OSM   H11S14173   0.484   3.902   3.233 -0.9132 -0.2612  2.4945
  132OSM   H11T14174   0.659   3.946   3.204  0.3181 -2.5299 -1.2624
  132OSM   C12S14175   0.602   3.954   3.413  0.2993 -0.3205  0.0921
  132OSM   H12S14176   0.533   3.904   3.485  1.4206 -2.8623 -0.4592
  132OSM   H12T14177   0.573   4.060   3.397 -2.6950 -1.0584 -0.0188
  132OSM   C13S14178   0.751   3.959   3.460  0.1926  0.4044  0.0003
  132OSM   H13S14179   0.819   3.977   3.374  0.9730  0.3268  0.5894
  132OSM   H13T14180   0.780   3.862   3.506  0.5346  0.6943  0.3945
  132OSM   C14S14181   0.793   4.065   3.560  0.0827 -0.0392 -0.2604
  132OSM   H14S14182   0.713   4.072   3.637 -0.0626  0.4043 -0.4502
  132OSM   H14T14183   0.798   4.165   3.513  3.0184 -0.1573 -0.4055
  132OSM   C15S14184   0.924   4.035   3.632  0.5548  0.8568 -0.0506
  132OSM   H15S14185   1.001   4.039   3.553 -1.8278  1.0398 -2.5210
  132OSM   H15T14186   0.906   3.938   3.683 -1.6117  1.1482 -0.1331
  132OSM   C16S14187   0.967   4.145   3.731  0.1905  0.8004  0.3108
  132OSM   H16S14188   0.895   4.148   3.815 -0.0211 -0.7499  0.1994
  132OSM   H16T14189   0.971   4.241   3.675  0.2537 -0.1988 -1.4744
  132OSM   C17S14190   1.112   4.127   3.788  0.1478  0.1657 -0.1033
  132OSM   H17S14191   1.185   4.133   3.705 -0.2231  0.0598 -0.4381
  132OSM   H17T14192   1.132   4.021   3.815  0.3779  0.6011  1.5995
  132OSM   C18S14193   1.130   4.218   3.898 -0.6156 -0.0397  0.4300
  132OSM   H18S14194   1.224   4.200   3.955 -0.0093  1.7260  0.0454
  132OSM   H18T14195   1.044   4.222   3.968 -1.7369 -0.1954 -0.9023
  132OSM   H18U14196   1.132   4.319   3.853 -0.5658  0.8329  2.3153
  132OSM    C1F14197   0.905   3.311   2.472 -0.2573 -0.0717 -0.4179
  132OSM     OF14198   1.008   3.343   2.413  0.6080  0.0551 -0.6017
  132OSM    C2F14199   0.895   3.177   2.543  0.2214 -0.1866 -1.4357
  132OSM    H2F14200   0.864   3.104   2.465 -1.6613  0.7291 -1.5951
  132OSM    H2G14201   0.822   3.176   2.626  3.1037 -0.5666  1.2792
  132OSM    C3F14202   1.039   3.139   2.590  0.0291 -0.3334  0.2518
  132OSM    H3F14203   1.108   3.147   2.504 -0.0900 -1.9998 -0.0195
  132OSM    H3G14204   1.047   3.031   2.612  0.7272 -0.2353  0.5117
  132OSM    C4F14205   1.096   3.239   2.692 -0.2178  0.5239 -0.0483
  132OSM    H4F14206   1.072   3.343   2.662  0.3454 -0.1823 -3.4146
  132OSM    H4G14207   1.206   3.222   2.691 -0.1171  1.1088 -1.6222
  132OSM    C5F14208   1.060   3.213   2.840 -0.2443  0.7031  0.2009
  132OSM    H5F14209   1.141   3.236   2.913  0.3819 -2.7448  0.7258
  132OSM    H5G14210   1.045   3.105   2.862 -1.9920  0.8049 -0.3341
  132OSM    C6F14211   0.944   3.294   2.896 -0.2431 -0.4630  0.9952
  132OSM    H6F14212   0.851   3.280   2.837 -0.7124  2.1970  1.0172
  132OSM    H6G14213   0.978   3.399   2.889  1.8173 -1.1945 -2.0222
  132OSM    C7F14214   0.908   3.265   3.044  0.3703 -0.0307  1.1103
  132OSM    H7F14215   0.838   3.347   3.074  1.3702  1.0008  0.6956
  132OSM    H7G14216   1.004   3.282   3.097  1.4236  2.4186 -1.3369
  132OSM    C8F14217   0.854   3.125   3.079  0.3462 -0.8157  0.1369
  132OSM    H8F14218   0.925   3.052   3.037  2.0072  1.5636 -1.3945
  132OSM    H8G14219   0.763   3.100   3.020  0.0414 -1.1365  0.7258
  132OSM    C9F14220   0.828   3.100   3.228  1.1243  0.6435  0.3151
  132OSM    H9F14221   0.751   3.164   3.273  0.7352  0.6541 -0.3463
  132OSM   C10F14222   0.881   2.999   3.304 -0.1927 -0.0621  0.0237
  132OSM   H10F14223   0.844   2.990   3.408 -0.9055  1.3953 -0.0744
  132OSM   C11F14224   0.991   2.892   3.276  0.5693 -0.5199  0.1367
  132OSM   H11F14225   0.998   2.866   3.169 -0.2990 -2.1034  0.4377
  132OSM   H11G14226   0.963   2.801   3.333  1.5743 -0.0944  1.3562
  132OSM   C12F14227   1.132   2.928   3.328  0.6439 -0.5088 -0.1232
  132OSM   H12F14228   1.157   3.026   3.281 -0.8283  0.7115  1.5241
  132OSM   H12G14229   1.202   2.850   3.291  2.2579  0.5371  0.6160
  132OSM   C13F14230   1.134   2.933   3.478 -0.3442  0.3119 -0.0815
  132OSM   H13F14231   1.035   2.897   3.513  0.2260  0.4445  1.7601
  132OSM   H13G14232   1.152   3.040   3.502  1.3163  0.2222 -0.7977
  132OSM   C14F14233   1.249   2.850   3.541 -0.1386 -0.1074 -0.0966
  132OSM   H14F14234   1.351   2.882   3.510  0.2268  0.2266  1.3711
  132OSM   H14G14235   1.250   2.742   3.514 -1.6972 -0.5742  1.5615
  132OSM   C15F14236   1.227   2.870   3.690  0.1573 -0.3954 -0.0854
  132OSM   H15F14237   1.141   2.803   3.713 -0.9326 -0.2032 -3.1423
  132OSM   H15G14238   1.196   2.973   3.715 -0.3195 -0.7812  0.9589
  132OSM   C16F14239   1.347   2.839   3.787  0.5993 -0.4752  0.1889
  132OSM   H16F14240   1.354   2.728   3.787  2.6961 -0.4806  3.4195
  132OSM   H16G14241   1.317   2.875   3.888  1.3671  2.4654 -0.5301
  132OSM   C17F14242   1.483   2.899   3.775 -0.7032 -0.5596 -0.4562
  132OSM   H17F14243   1.539   2.837   3.701 -0.1519  0.9968 -1.3847
  132OSM   H17G14244   1.536   2.902   3.873  2.1347 -0.1476 -1.9067
  132OSM   C18F14245   1.488   3.044   3.716  0.4406  0.1413  0.4414
  132OSM   H18F14246   1.424   3.050   3.626 -0.1691 -3.1108  0.5358
  132OSM   H18G14247   1.586   3.075   3.673  0.8189 -0.6050  0.7466
  132OSM   H18H14248   1.456   3.116   3.795  0.2492  1.3127 -0.6689
  133OSM      N14249   6.035   2.672   1.657  0.1502  0.5041  0.4122
  133OSM    C1514250   5.964   2.580   1.567 -0.3465  0.3308  0.1516
  133OSM   H15A14251   5.860   2.598   1.546 -0.8332 -1.9219  0.4218
  133OSM   H15B14252   5.976   2.475   1.591  2.0208  0.4662 -0.2110
  133OSM   H15C14253   6.006   2.595   1.468 -1.6830  1.0734 -0.3346
  133OSM    C1414254   6.188   2.640   1.663 -0.2549 -0.0177 -0.1612
  133OSM   H14A14255   6.237   2.657   1.568  0.8177 -1.5551  0.0801
  133OSM   H14B14256   6.197   2.536   1.693 -2.1977 -0.1061  0.2734
  133OSM   H14C14257   6.233   2.695   1.744 -0.7520 -1.0328  0.8276
  133OSM    C1314258   6.006   2.820   1.618  0.1775 -0.1147  0.2084
  133OSM   H13A14259   6.043   2.878   1.701  1.8442 -1.1115  0.2177
  133OSM   H13B14260   5.901   2.836   1.597  0.0076  1.1583  1.8479
  133OSM   H13C14261   6.055   2.842   1.524  0.2368 -0.5632  0.1292
  133OSM    C1214262   5.975   2.655   1.797  0.1661  0.1211 -0.2873
  133OSM   H12A14263   5.994   2.551   1.821  0.5400  0.2691  0.0589
  133OSM   H12B14264   5.868   2.671   1.790  0.5109  3.1843  0.2675
  133OSM    C1114265   6.020   2.740   1.915  0.3823 -0.1447  0.5318
  133OSM   H11A14266   5.938   2.746   1.990 -1.2348  1.3406 -1.2256
  133OSM   H11B14267   6.013   2.845   1.878 -0.2800 -0.0394  0.9325
  133OSM      P14268   6.251   2.802   2.018 -0.5503  0.5526 -0.6301
  133OSM    O1314269   6.378   2.726   2.039 -0.2227 -0.3698  0.0284
  133OSM    O1414270   6.254   2.920   1.925  0.0731  0.3991 -0.3649
  133OSM    O1114271   6.197   2.841   2.163 -0.2598 -0.1643 -0.3352
  133OSM    O1214272   6.143   2.700   1.971  0.9926 -0.2602  1.0092
  133OSM    C1S14273   6.147   2.739   2.250 -1.0208  0.0124 -0.1713
  133OSM    H1S14274   6.235   2.677   2.279  0.7674  3.2976  2.1953
  133OSM    H1T14275   6.068   2.680   2.200  0.0744 -3.1136  1.5393
  133OSM     NF14276   6.051   2.706   2.483  0.3687  0.1833 -0.3367
  133OSM    HNF14277   5.955   2.685   2.496  0.5244 -0.1218  0.4200
  133OSM    C2S14278   6.073   2.801   2.369 -0.3974 -0.2482 -0.5691
  133OSM    H2S14279   6.145   2.875   2.411 -0.4252  1.7067 -3.6749
  133OSM    C3S14280   5.951   2.886   2.315 -0.5363  0.3676 -1.5665
  133OSM    H3S14281   5.875   2.809   2.290 -0.2060 -0.4311 -0.1814
  133OSM     O314282   5.978   2.967   2.199  0.0292 -0.2228 -0.1104
  133OSM    HO314283   6.063   2.933   2.172  0.9548  3.5592 -2.6708
  133OSM    C4S14284   5.890   2.966   2.429  0.3788 -0.4689  0.1371
  133OSM    H4S14285   5.821   2.912   2.497  0.6558  0.1780  0.9466
  133OSM    C5S14286   5.896   3.097   2.438 -0.7237 -0.9561  0.4508
  133OSM    H5S14287   5.957   3.162   2.373 -2.5469  0.1111 -0.2764
  133OSM    C6S14288   5.827   3.182   2.546 -0.2054 -0.5492  0.9028
  133OSM    H6S14289   5.780   3.116   2.622 -1.1138 -1.2230 -0.2070
  133OSM    H6T14290   5.738   3.237   2.509  0.3899  0.6625  1.2352
  133OSM    C7S14291   5.925   3.282   2.595  0.2819  0.2069 -0.0630
  133OSM    H7S14292   5.962   3.361   2.527 -0.3798  1.0582  0.5412
  133OSM    H7T14293   6.003   3.217   2.640 -1.3387 -0.5951  1.7411
  133OSM    C8S14294   5.860   3.351   2.716 -0.1798 -0.4567 -0.8991
  133OSM    H8S14295   5.825   3.281   2.796  1.0334  0.6524  0.6553
  133OSM    H8T14296   5.783   3.426   2.689 -0.3254  0.7752  2.4509
  133OSM    C9S14297   5.968   3.424   2.795 -0.3600  0.2412  0.5441
  133OSM    H9S14298   6.007   3.507   2.732 -0.8178 -1.0635 -1.5441
  133OSM    H9T14299   6.048   3.347   2.791 -1.3554 -0.7644 -1.0917
  133OSM   C10S14300   5.930   3.466   2.938 -0.1814 -0.6368 -0.0266
  133OSM   H10S14301   5.888   3.376   2.987  1.0293 -0.3613  1.5881
  133OSM   H10T14302   5.861   3.553   2.940 -0.4412 -0.8596  1.0933
  133OSM   C11S14303   6.047   3.505   3.027 -0.2431 -0.6641 -0.5555
  133OSM   H11S14304   6.086   3.602   2.988 -0.6171 -1.0968 -2.0804
  133OSM   H11T14305   6.117   3.420   3.012  2.5586  1.8003 -2.7069
  133OSM   C12S14306   6.015   3.515   3.176 -0.5924  0.4867 -0.0637
  133OSM   H12S14307   5.937   3.593   3.188 -0.2909  0.5309  2.1861
  133OSM   H12T14308   6.106   3.561   3.221 -0.4636 -0.6821  0.9337
  133OSM   C13S14309   5.963   3.389   3.240 -0.4646  0.3591  0.7680
  133OSM   H13S14310   6.043   3.311   3.233 -2.2252 -1.5379  0.7039
  133OSM   H13T14311   5.879   3.351   3.178 -0.1954  0.4990  0.3139
  133OSM   C14S14312   5.913   3.401   3.382  1.4224 -0.3101  0.5232
  133OSM   H14S14313   5.839   3.324   3.413  2.0322 -1.3552 -0.5511
  133OSM   H14T14314   5.852   3.494   3.379 -0.4851 -1.5168  0.0985
  133OSM   C15S14315   6.020   3.425   3.485 -0.3824 -0.5517 -0.2007
  133OSM   H15S14316   6.100   3.483   3.435  0.2490 -1.0918  0.1622
  133OSM   H15T14317   6.054   3.334   3.539 -0.2741 -0.3261  0.1154
  133OSM   C16S14318   5.963   3.513   3.599  0.2774 -0.0331 -0.4908
  133OSM   H16S14319   5.860   3.478   3.624 -0.4741  2.0137 -0.4693
  133OSM   H16T14320   5.951   3.619   3.567 -2.1816  0.0973  0.5828
  133OSM   C17S14321   6.046   3.519   3.723 -0.3258 -0.0805  0.3918
  133OSM   H17S14322   6.150   3.542   3.692  0.2209 -0.5537  1.8048
  133OSM   H17T14323   6.045   3.412   3.754  0.6774 -1.2237 -3.0624
  133OSM   C18S14324   5.992   3.613   3.830  0.0270  0.1615 -0.4225
  133OSM   H18S14325   6.008   3.570   3.931  0.9334  0.2370 -0.5287
  133OSM   H18T14326   5.881   3.619   3.821 -0.0945  2.3434  1.5513
  133OSM   H18U14327   6.035   3.715   3.831 -0.2551  0.2884 -0.8891
  133OSM    C1F14328   6.146   2.647   2.554  0.3185  0.3260 -0.0912
  133OSM     OF14329   6.265   2.663   2.520 -0.1144  0.2608 -0.6791
  133OSM    C2F14330   6.106   2.561   2.669 -0.3406 -0.2599  0.7978
  133OSM    H2F14331   6.121   2.461   2.624  0.1302  0.4159 -0.6099
  133OSM    H2G14332   5.998   2.568   2.694 -0.4601 -1.9897  0.8577
  133OSM    C3F14333   6.196   2.573   2.785  0.8257 -0.0035 -0.1893
  133OSM    H3F14334   6.256   2.666   2.785  0.4007  0.2839 -1.6121
  133OSM    H3G14335   6.264   2.487   2.770  0.7344  0.1633 -1.6890
  133OSM    C4F14336   6.118   2.548   2.913  0.3826  0.0793 -0.2512
  133OSM    H4F14337   6.054   2.457   2.902  0.7318 -0.5629  2.3822
  133OSM    H4G14338   6.046   2.633   2.919 -0.8563 -0.9535  0.1712
  133OSM    C5F14339   6.206   2.540   3.036 -0.2144 -0.2922 -0.1450
  133OSM    H5F14340   6.275   2.624   3.058 -0.2961  0.3912 -2.3072
  133OSM    H5G14341   6.278   2.458   3.015 -1.0048 -0.5429 -2.0041
  133OSM    C6F14342   6.130   2.530   3.174  0.6807 -0.3128  0.9587
  133OSM    H6F14343   6.062   2.443   3.164  0.6731 -0.1196 -1.3755
  133OSM    H6G14344   6.066   2.620   3.175  0.2524 -0.5651 -0.5909
  133OSM    C7F14345   6.231   2.523   3.284 -0.4556 -0.5298  0.0825
  133OSM    H7F14346   6.298   2.611   3.295 -2.0357  0.6522  0.5263
  133OSM    H7G14347   6.304   2.444   3.256  0.4574  0.5727 -0.7589
  133OSM    C8F14348   6.173   2.482   3.421 -0.1793 -0.1160  0.0405
  133OSM    H8F14349   6.252   2.412   3.455 -0.1938 -0.6488 -0.9639
  133OSM    H8G14350   6.084   2.418   3.408 -0.3398 -0.2229  1.5223
  133OSM    C9F14351   6.145   2.600   3.512 -0.2678  0.1836 -0.7198
  133OSM    H9F14352   6.072   2.667   3.464  0.5306  1.5822 -0.0381
  133OSM   C10F14353   6.197   2.633   3.628 -0.0481  0.7221  0.3577
  133OSM   H10F14354   6.169   2.733   3.663  1.2753  1.2928 -0.1156
  133OSM   C11F14355   6.289   2.544   3.707 -0.2044 -0.2708  0.1085
  133OSM   H11F14356   6.396   2.574   3.709 -0.1860 -0.3091 -0.3307
  133OSM   H11G14357   6.298   2.441   3.667  1.8889 -1.6647  3.6887
  133OSM   C12F14358   6.252   2.527   3.852  0.0461 -0.1818 -0.2089
  133OSM   H12F14359   6.229   2.627   3.894  0.5558 -0.9234  1.9750
  133OSM   H12G14360   6.347   2.493   3.898  1.0258  2.3163 -0.2419
  133OSM   C13F14361   6.135   2.430   3.889  0.7130 -1.0196  0.3442
  133OSM   H13F14362   6.051   2.464   3.824  1.3932  0.7248  0.3443
  133OSM   H13G14363   6.113   2.462   3.993  0.8206  2.6700 -0.6375
  133OSM   C14F14364   6.177   2.279   3.888  0.3423  0.1236  0.3749
  133OSM   H14F14365   6.269   2.268   3.949  0.5905  3.4906  0.8278
  133OSM   H14G14366   6.207   2.257   3.784  0.9502  3.5101 -0.2714
  133OSM   C15F14367   6.065   2.175   3.909  0.5331  0.0801 -0.1557
  133OSM   H15F14368   6.118   2.078   3.900  1.4979  0.2718  2.6195
  133OSM   H15G14369   5.996   2.187   3.822  1.1275 -0.3970 -0.7035
  133OSM   C16F14370   5.993   2.186   4.045 -0.2351  0.2363 -1.2510
  133OSM   H16F14371   5.911   2.112   4.041 -1.1951  1.2217 -0.4777
  133OSM   H16G14372   5.948   2.287   4.058 -0.9350 -0.3565  1.4262
  133OSM   C17F14373   6.085   2.156   4.168 -0.1160 -0.2082 -0.8214
  133OSM   H17F14374   6.166   2.232   4.180 -0.7603  0.1935  1.4451
  133OSM   H17G14375   6.128   2.058   4.140  2.3450  0.4970  0.2174
  133OSM   C18F14376   6.008   2.148   4.295  0.5633 -0.3241  0.1816
  133OSM   H18F14377   5.906   2.107   4.279  1.1406 -1.7449 -0.0162
  133OSM   H18G14378   6.010   2.249   4.341  2.2161 -0.2016 -0.0843
  133OSM   H18H14379   6.052   2.078   4.369  0.4874 -1.8533 -1.1504
  134OSM      N14380   5.163   5.532   1.782 -0.3186  0.2041 -0.6581
  134OSM    C1514381   5.158   5.669   1.717  0.8199 -0.9462 -0.3513
  134OSM   H15A14382   5.091   5.728   1.776  0.3262 -1.8857  0.0498
  134OSM   H15B14383   5.114   5.664   1.619 -0.7630  0.1281  0.2749
  134OSM   H15C14384   5.258   5.710   1.717  1.1491 -1.7166 -0.7895
  134OSM    C1414385   5.010   5.493   1.783 -0.0982  0.1031  0.2358
  134OSM   H14A14386   4.949   5.561   1.842 -2.8147  0.6131 -2.8572
  134OSM   H14B14387   4.998   5.391   1.817  0.2381  0.2276  0.7333
  134OSM   H14C14388   4.980   5.500   1.680  0.6470  1.6382  0.1029
  134OSM    C1314389   5.246   5.434   1.692 -0.2968 -0.3214 -0.3956
  134OSM   H13A14390   5.181   5.368   1.638 -0.5568  1.0261 -1.8012
  134OSM   H13B14391   5.318   5.381   1.752  2.1322  3.0787  0.0136
  134OSM   H13C14392   5.308   5.502   1.635 -0.7323 -1.0405 -1.7486
  134OSM    C1214393   5.217   5.540   1.923  0.2755 -0.5457  0.8004
  134OSM   H12A14394   5.166   5.623   1.969 -2.0519  1.2133 -4.1755
  134OSM   H12B14395   5.318   5.577   1.920 -0.1050  0.4803 -0.0875
  134OSM    C1114396   5.204   5.417   2.016  0.8045 -0.4474 -0.4309
  134OSM   H11A14397   5.098   5.386   2.033  1.4052 -1.4519  1.8278
  134OSM   H11B14398   5.244   5.448   2.114  0.0532  2.5171 -0.9745
  134OSM      P14399   5.426   5.292   1.953 -0.2141 -0.6460  0.0428
  134OSM    O1314400   5.464   5.187   1.857  0.2758 -0.0623 -0.5662
  134OSM    O1414401   5.495   5.423   1.936 -0.5221 -0.5215 -0.3912
  134OSM    O1114402   5.459   5.228   2.089 -0.1983 -0.6818 -0.3626
  134OSM    O1214403   5.268   5.309   1.961 -0.1469  0.1168  0.1894
  134OSM    C1S14404   5.514   5.303   2.197 -0.7586 -0.1517 -0.0638
  134OSM    H1S14405   5.489   5.410   2.189  0.5390  0.0255 -2.9797
  134OSM    H1T14406   5.624   5.284   2.197 -0.4766  0.7943  3.2747
  134OSM     NF14407   5.521   5.339   2.440 -0.9417 -0.4203 -0.3433
  134OSM    HNF14408   5.611   5.318   2.476  0.0181  1.6761 -1.3662
  134OSM    C2S14409   5.477   5.243   2.335  0.0409  0.0339 -0.2569
  134OSM    H2S14410   5.366   5.249   2.334  0.0360  2.8560  2.4307
  134OSM    C3S14411   5.527   5.099   2.343 -0.5059 -0.8250  0.4221
  134OSM    H3S14412   5.638   5.091   2.334 -0.5030 -1.9069  1.1959
  134OSM     O314413   5.471   5.018   2.239  0.3704 -0.1551 -0.1952
  134OSM    HO314414   5.446   5.080   2.169 -2.3972 -1.3866 -0.4152
  134OSM    C4S14415   5.485   5.040   2.474  0.9514 -0.1960  0.0440
  134OSM    H4S14416   5.376   5.027   2.477  0.6002  2.3077  1.6019
  134OSM    C5S14417   5.564   5.000   2.575  0.3068  0.4008  0.3816
  134OSM    H5S14418   5.672   5.007   2.556  0.0296  2.4615 -0.6808
  134OSM    C6S14419   5.505   4.948   2.705 -0.4010 -0.1932 -0.2650
  134OSM    H6S14420   5.568   4.992   2.786  0.0812 -0.1477 -0.6597
  134OSM    H6T14421   5.527   4.840   2.719 -0.4833 -0.0057  1.6357
  134OSM    C7S14422   5.359   4.981   2.738 -0.4004 -0.3272 -0.6235
  134OSM    H7S14423   5.303   4.927   2.660  0.9138 -1.0132 -1.1145
  134OSM    H7T14424   5.349   5.091   2.723  1.3122 -0.4240 -2.8622
  134OSM    C8S14425   5.323   4.948   2.887 -0.3108 -0.4647  0.3392
  134OSM    H8S14426   5.212   4.961   2.893 -0.2322  0.2362  0.3467
  134OSM    H8T14427   5.376   5.026   2.946 -0.2574 -1.0679  1.1144
  134OSM    C9S14428   5.377   4.818   2.937  0.2070 -0.6402 -0.5230
  134OSM    H9S14429   5.487   4.802   2.935  0.6858  1.4122  2.8228
  134OSM    H9T14430   5.335   4.733   2.879 -0.3701 -0.8841  0.2244
  134OSM   C10S14431   5.319   4.791   3.077 -0.3844 -0.0044 -0.2437
  134OSM   H10S14432   5.314   4.684   3.107  0.6549  0.4465  1.7278
  134OSM   H10T14433   5.215   4.830   3.088 -0.4762 -0.6219  1.3119
  134OSM   C11S14434   5.391   4.856   3.196  0.5275 -1.0275  0.3715
  134OSM   H11S14435   5.335   4.844   3.291 -0.0614 -0.2063  0.1370
  134OSM   H11T14436   5.394   4.966   3.180 -0.1027 -0.9214  0.9328
  134OSM   C12S14437   5.536   4.805   3.217 -0.4052  0.4561  0.5100
  134OSM   H12S14438   5.599   4.790   3.127  0.3083  0.9448  0.9197
  134OSM   H12T14439   5.548   4.698   3.244  2.8015  0.7096  0.4242
  134OSM   C13S14440   5.627   4.884   3.308 -0.2537  0.5770 -0.3595
  134OSM   H13S14441   5.650   4.969   3.240 -1.7620  0.6165 -0.8445
  134OSM   H13T14442   5.719   4.829   3.338 -1.7066 -1.5498  0.4590
  134OSM   C14S14443   5.558   4.933   3.442  0.6888 -0.0520  0.0307
  134OSM   H14S14444   5.512   4.841   3.484 -1.6429  0.6625 -0.8177
  134OSM   H14T14445   5.468   4.993   3.417 -0.0536 -1.3833 -0.6349
  134OSM   C15S14446   5.655   5.004   3.538 -0.3598  0.7696 -0.0922
  134OSM   H15S14447   5.718   5.072   3.477  0.7907  0.3147  0.5739
  134OSM   H15T14448   5.723   4.937   3.595 -1.4289  0.5288  0.9473
  134OSM   C16S14449   5.585   5.094   3.641  0.0691 -0.7412 -0.5552
  134OSM   H16S14450   5.678   5.139   3.682 -1.9960  1.9458  1.6308
  134OSM   H16T14451   5.542   5.046   3.731  1.6964  1.8325  1.7510
  134OSM   C17S14452   5.485   5.200   3.585 -0.0368  0.7975 -0.4758
  134OSM   H17S14453   5.402   5.139   3.543 -0.0727  0.4963  0.0278
  134OSM   H17T14454   5.537   5.262   3.509  0.2085  2.8769  1.2801
  134OSM   C18S14455   5.415   5.286   3.696 -0.3250  0.1014  0.5027
  134OSM   H18S14456   5.380   5.218   3.777 -0.3568 -2.5038 -1.5432
  134OSM   H18T14457   5.333   5.337   3.641  0.5722 -0.9763 -1.9695
  134OSM   H18U14458   5.479   5.363   3.743  1.2039 -0.2994 -0.8054
  134OSM    C1F14459   5.471   5.460   2.461 -0.8277 -0.1472  0.0447
  134OSM     OF14460   5.374   5.506   2.404 -0.3094  0.0752 -0.8379
  134OSM    C2F14461   5.538   5.536   2.563 -0.4853 -0.0414 -0.4218
  134OSM    H2F14462   5.551   5.640   2.525  0.5388  0.1690  0.4412
  134OSM    H2G14463   5.637   5.494   2.591 -0.5671 -1.5098 -2.1401
  134OSM    C3F14464   5.447   5.544   2.695  0.3530  0.4143 -0.4220
  134OSM    H3F14465   5.343   5.559   2.659  0.1362  0.5241  0.2294
  134OSM    H3G14466   5.480   5.624   2.765  2.8899 -2.0699  1.4437
  134OSM    C4F14467   5.451   5.414   2.779 -0.3042  0.2393  0.7886
  134OSM    H4F14468   5.549   5.386   2.822  1.0256 -0.1742 -2.3043
  134OSM    H4G14469   5.413   5.331   2.715 -0.1133 -0.0832  1.0899
  134OSM    C5F14470   5.353   5.428   2.889  0.5227 -0.0374 -0.0202
  134OSM    H5F14471   5.253   5.410   2.844  1.0400 -1.2803 -0.7209
  134OSM    H5G14472   5.351   5.524   2.944 -0.3729 -0.3620  0.5343
  134OSM    C6F14473   5.353   5.320   2.999  0.0994  0.2110  0.0530
  134OSM    H6F14474   5.449   5.335   3.054 -1.3092  4.4176  1.7805
  134OSM    H6G14475   5.335   5.219   2.956  1.0978 -0.2003  0.5558
  134OSM    C7F14476   5.252   5.347   3.116 -0.0082  0.4080 -0.0253
  134OSM    H7F14477   5.153   5.361   3.067  0.5300  2.1836 -0.7147
  134OSM    H7G14478   5.268   5.450   3.155 -0.0605  0.2911  0.3076
  134OSM    C8F14479   5.243   5.243   3.221  0.6644 -1.0355 -0.3804
  134OSM    H8F14480   5.343   5.208   3.256  1.2252 -1.3783 -2.2155
  134OSM    H8G14481   5.197   5.152   3.179 -1.3972 -0.3922  0.3406
  134OSM    C9F14482   5.172   5.301   3.339 -0.4884  0.0954  0.0849
  134OSM    H9F14483   5.182   5.409   3.354 -1.6258  0.2687 -0.3016
  134OSM   C10F14484   5.078   5.245   3.420  0.0311 -0.5945  0.3395
  134OSM   H10F14485   5.044   5.302   3.508 -1.9158  0.8484 -1.2302
  134OSM   C11F14486   5.015   5.114   3.405  0.2939  1.0708 -1.3348
  134OSM   H11F14487   5.053   5.053   3.321  1.8877  0.5923 -0.2980
  134OSM   H11G14488   4.905   5.130   3.396  0.0056  1.0534  1.3176
  134OSM   C12F14489   5.033   5.024   3.535 -0.7738  0.7469 -0.2602
  134OSM   H12F14490   4.986   4.926   3.510  1.1364 -0.3514  0.2561
  134OSM   H12G14491   4.979   5.062   3.624 -1.2380  1.2271 -0.7420
  134OSM   C13F14492   5.179   4.988   3.563  0.0475  0.4724  0.5170
  134OSM   H13F14493   5.221   5.053   3.643  1.4833  2.3644 -1.6449
  134OSM   H13G14494   5.231   5.004   3.466 -0.8273  0.1492 -0.0209
  134OSM   C14F14495   5.200   4.840   3.590  0.1305 -0.5627 -0.0322
  134OSM   H14F14496   5.309   4.836   3.612 -0.2265 -0.8288  1.8466
  134OSM   H14G14497   5.169   4.770   3.510  1.0024  1.3306 -2.1375
  134OSM   C15F14498   5.130   4.806   3.723 -0.3571  0.4976 -0.7118
  134OSM   H15F14499   5.021   4.825   3.718 -0.4841 -0.2952 -0.9892
  134OSM   H15G14500   5.172   4.869   3.805 -0.5915  0.9000 -0.8977
  134OSM   C16F14501   5.161   4.657   3.777  0.5830  0.5954 -0.6128
  134OSM   H16F14502   5.269   4.656   3.805 -0.2973  2.1516  3.6546
  134OSM   H16G14503   5.147   4.588   3.692  1.4138 -1.1668  0.6094
  134OSM   C17F14504   5.065   4.611   3.884  0.1699  0.4079 -0.5307
  134OSM   H17F14505   4.959   4.635   3.864 -0.2654  0.6416  1.7975
  134OSM   H17G14506   5.094   4.672   3.972  0.3966  0.6342 -0.7639
  134OSM   C18F14507   5.082   4.465   3.916  0.4665 -0.3199  0.1742
  134OSM   H18F14508   5.055   4.417   3.820 -0.2648  0.4593 -0.0181
  134OSM   H18G14509   5.008   4.441   3.995 -0.2627 -1.4773 -0.8320
  134OSM   H18H14510   5.185   4.443   3.952 -0.1301  2.0203  3.9433
  135OSM      N14511   0.766   4.488   1.986  0.0379 -0.2028  0.1602
  135OSM    C1514512   0.683   4.467   1.855  0.3227 -0.4633 -0.8592
  135OSM   H15A14513   0.750   4.484   1.771  0.1019  1.0994 -0.7565
  135OSM   H15B14514   0.586   4.513   1.854 -2.5942 -5.7867  0.4599
  135OSM   H15C14515   0.651   4.364   1.851 -1.9188  0.2071 -2.3659
  135OSM    C1414516   0.674   4.465   2.104  0.2586  0.5458 -0.7306
  135OSM   H14A14517   0.648   4.361   2.116  1.1731  0.5498  1.7906
  135OSM   H14B14518   0.585   4.525   2.093 -1.2737 -1.9289 -3.2311
  135OSM   H14C14519   0.724   4.477   2.199 -0.3291  0.5558 -0.4182
  135OSM    C1314520   0.876   4.388   1.991  0.5862  0.4232 -1.0759
  135OSM   H13A14521   0.834   4.289   1.979 -3.0724  1.4094  1.5779
  135OSM   H13B14522   0.941   4.399   2.076 -1.2610  0.2133  0.4180
  135OSM   H13C14523   0.930   4.411   1.900  1.4377 -1.8769 -1.1988
  135OSM    C1214524   0.817   4.628   1.990 -0.0387 -0.7182 -0.4074
  135OSM   H12A14525   0.738   4.697   1.968 -1.2584 -1.0859  2.4785
  135OSM   H12B14526   0.902   4.645   1.924  1.1293 -1.9366  0.7231
  135OSM    C1114527   0.873   4.684   2.132  0.0084 -0.7260 -0.0576
  135OSM   H11A14528   0.798   4.663   2.212 -0.9510 -0.3274 -0.8371
  135OSM   H11B14529   0.881   4.795   2.130 -0.3096 -0.6999 -2.0260
  135OSM      P14530   1.136   4.676   2.084 -0.1914  0.2274  0.2186
  135OSM    O1314531   1.240   4.579   2.128  0.0764  0.3746  0.4826
  135OSM    O1414532   1.120   4.698   1.935  0.0252 -0.2376  0.3523
  135OSM    O1114533   1.171   4.813   2.148 -0.2442 -0.3151 -0.4730
  135OSM    O1214534   0.998   4.629   2.151 -0.2695 -0.2628  0.0800
  135OSM    C1S14535   1.149   4.828   2.291  0.3417  0.4024  0.0057
  135OSM    H1S14536   1.229   4.769   2.340  0.8876 -0.1706 -1.5370
  135OSM    H1T14537   1.049   4.793   2.324  0.7376  0.0801  0.8899
  135OSM     NF14538   1.155   4.974   2.495 -0.4598  1.0256 -0.4371
  135OSM    HNF14539   1.060   4.983   2.523 -0.4115 -1.9280  1.0698
  135OSM    C2S14540   1.172   4.972   2.351  0.0034 -0.0534  1.1125
  135OSM    H2S14541   1.279   4.997   2.334  0.3415  0.4788  3.6746
  135OSM    C3S14542   1.081   5.072   2.271 -0.6892 -0.0584 -0.4860
  135OSM    H3S14543   0.975   5.052   2.300 -1.7019  3.5287 -1.2464
  135OSM     O314544   1.079   5.061   2.128 -0.1779 -0.1429 -0.4564
  135OSM    HO314545   1.137   4.990   2.101  0.6494 -0.8565  2.7258
  135OSM    C4S14546   1.123   5.211   2.316 -0.0883  0.1611 -0.2349
  135OSM    H4S14547   1.231   5.230   2.301 -0.1784  2.6001  1.5680
  135OSM    C5S14548   1.035   5.302   2.361 -1.0385 -0.1185  0.1437
  135OSM    H5S14549   0.927   5.285   2.376 -0.9000  0.0857  1.5396
  135OSM    C6S14550   1.075   5.436   2.410 -0.5494 -0.3342 -0.1787
  135OSM    H6S14551   0.991   5.492   2.457  0.6231  0.3088  1.2333
  135OSM    H6T14552   1.106   5.499   2.324 -1.0872 -1.3140 -1.1094
  135OSM    C7S14553   1.198   5.451   2.505  0.0468 -0.0453 -0.2665
  135OSM    H7S14554   1.240   5.552   2.487 -0.9463  0.2217 -1.1894
  135OSM    H7T14555   1.276   5.384   2.463  1.3496  1.1213  0.2142
  135OSM    C8S14556   1.189   5.405   2.645  0.2404  0.3174 -0.0489
  135OSM    H8S14557   1.290   5.393   2.688  0.7000 -1.1289 -1.4495
  135OSM    H8T14558   1.126   5.313   2.646 -1.8562  1.6892  0.3918
  135OSM    C9S14559   1.114   5.508   2.733 -0.3425  1.1468 -0.0192
  135OSM    H9S14560   1.017   5.532   2.685  0.2451 -1.5806 -2.8479
  135OSM    H9T14561   1.168   5.604   2.747  0.4557  0.9544 -1.6326
  135OSM   C10S14562   1.087   5.452   2.878 -0.0237 -0.4002 -0.3593
  135OSM   H10S14563   1.023   5.361   2.875 -2.3494  1.0126  2.1150
  135OSM   H10T14564   1.022   5.525   2.931 -1.2438 -1.7435  0.0822
  135OSM   C11S14565   1.204   5.415   2.970 -0.4512  0.0637  0.3855
  135OSM   H11S14566   1.291   5.483   2.967  1.3459 -2.1011  1.0994
  135OSM   H11T14567   1.237   5.313   2.940  0.2526  0.5681 -0.6147
  135OSM   C12S14568   1.160   5.414   3.116 -0.5534  0.0001 -1.3162
  135OSM   H12S14569   1.118   5.513   3.145 -1.5836 -0.7647 -0.0988
  135OSM   H12T14570   1.256   5.392   3.167 -1.0236  1.4252  0.2685
  135OSM   C13S14571   1.052   5.318   3.143 -0.0100 -0.8726 -0.0675
  135OSM   H13S14572   1.061   5.227   3.081 -0.6647  0.1543 -1.7115
  135OSM   H13T14573   0.954   5.365   3.122 -1.1398 -1.9013  2.4701
  135OSM   C14S14574   1.039   5.284   3.290 -0.2245 -0.1306 -0.0187
  135OSM   H14S14575   1.035   5.372   3.356  1.0713  0.7478 -1.0467
  135OSM   H14T14576   1.132   5.226   3.311 -0.1757 -0.3218 -0.7193
  135OSM   C15S14577   0.933   5.187   3.326 -0.2405 -0.3018  0.2195
  135OSM   H15S14578   0.970   5.082   3.330  0.0338 -0.1798  1.0239
  135OSM   H15T14579   0.841   5.193   3.264  0.3092  0.2638 -0.5698
  135OSM   C16S14580   0.884   5.213   3.470  0.2211  0.0521  0.1922
  135OSM   H16S14581   0.784   5.168   3.486  0.5581 -0.7556  0.1211
  135OSM   H16T14582   0.877   5.322   3.491 -2.4708  0.1504 -0.8312
  135OSM   C17S14583   0.977   5.170   3.581 -0.7971  0.0828 -0.5909
  135OSM   H17S14584   1.069   5.231   3.572 -1.8078  1.6574 -0.7236
  135OSM   H17T14585   1.012   5.072   3.543  0.2429  0.3664 -0.4037
  135OSM   C18S14586   0.930   5.181   3.721 -0.1505 -0.8465  0.1965
  135OSM   H18S14587   1.009   5.172   3.798 -1.8273  0.6272  2.2031
  135OSM   H18T14588   0.852   5.102   3.728  0.9335 -1.8654  1.0598
  135OSM   H18U14589   0.893   5.284   3.741  3.8569  0.8283 -0.0423
  135OSM    C1F14590   1.244   4.938   2.591 -0.2023 -0.5086 -0.4200
  135OSM     OF14591   1.356   4.896   2.557  0.1731 -0.3839  0.1775
  135OSM    C2F14592   1.202   4.944   2.735  0.1828 -0.4127  0.2783
  135OSM    H2F14593   1.159   4.844   2.756  0.4089 -0.7037 -0.6095
  135OSM    H2G14594   1.123   5.022   2.740  0.1877 -0.4671  1.3726
  135OSM    C3F14595   1.324   4.989   2.817  0.4047 -0.1617  0.6194
  135OSM    H3F14596   1.336   5.098   2.805 -0.3648  0.0480  1.5374
  135OSM    H3G14597   1.414   4.931   2.786 -1.2006 -2.0711 -0.7276
  135OSM    C4F14598   1.304   4.991   2.969 -0.4284  0.2567  0.7890
  135OSM    H4F14599   1.318   4.888   3.008  1.7635  0.2307  0.0450
  135OSM    H4G14600   1.197   5.019   2.981 -0.3019  1.9226 -1.3276
  135OSM    C5F14601   1.382   5.094   3.059  0.4837 -0.1159  0.3308
  135OSM    H5F14602   1.304   5.106   3.138 -1.8026 -0.1059 -1.8152
  135OSM    H5G14603   1.406   5.190   3.009  1.6290 -1.0733 -1.0437
  135OSM    C6F14604   1.510   5.039   3.130  0.4659  0.3936  0.3133
  135OSM    H6F14605   1.546   5.120   3.198 -0.9733  0.2131  1.3413
  135OSM    H6G14606   1.598   5.009   3.069  1.4828  2.7705  0.5087
  135OSM    C7F14607   1.496   4.917   3.216 -0.4228 -0.0603  0.2002
  135OSM    H7F14608   1.488   4.829   3.149 -0.0439 -0.7186  0.9938
  135OSM    H7G14609   1.404   4.926   3.276 -0.3581 -0.9543  0.4474
  135OSM    C8F14610   1.615   4.916   3.323 -0.0874  0.0804  0.4154
  135OSM    H8F14611   1.591   4.999   3.392 -1.3005 -0.5802  0.8085
  135OSM    H8G14612   1.708   4.939   3.266 -1.0809 -1.1473 -1.8458
  135OSM    C9F14613   1.637   4.783   3.392 -0.2307 -0.0769 -0.4040
  135OSM    H9F14614   1.637   4.694   3.328  1.6275 -0.6245  0.3102
  135OSM   C10F14615   1.651   4.773   3.531  0.5768 -0.2333  0.4139
  135OSM   H10F14616   1.658   4.674   3.579 -1.2774 -0.3011  0.6198
  135OSM   C11F14617   1.654   4.888   3.626  0.5633 -0.5724  0.1205
  135OSM   H11F14618   1.548   4.918   3.646 -0.0467 -2.0929 -0.7020
  135OSM   H11G14619   1.716   4.974   3.592  2.3537 -1.6089  0.6511
  135OSM   C12F14620   1.715   4.834   3.762  0.1358  0.2636 -0.6144
  135OSM   H12F14621   1.824   4.817   3.747 -0.1823 -0.4893 -2.4167
  135OSM   H12G14622   1.663   4.744   3.801  1.9394 -0.2493  0.7036
  135OSM   C13F14623   1.691   4.934   3.877  0.0422 -0.3847 -0.3379
  135OSM   H13F14624   1.734   5.032   3.847 -0.2793 -0.0467  0.2797
  135OSM   H13G14625   1.757   4.914   3.964  0.5529  2.7996  0.1325
  135OSM   C14F14626   1.544   4.960   3.923 -0.3085  0.2761  0.0543
  135OSM   H14F14627   1.475   4.935   3.839  0.4537  2.5199 -1.3396
  135OSM   H14G14628   1.528   5.069   3.935 -1.6039  0.1235 -0.1100
  135OSM   C15F14629   1.517   4.905   4.066  0.1110  0.1222  0.5073
  135OSM   H15F14630   1.422   4.951   4.102  0.6031  0.5921  1.2468
  135OSM   H15G14631   1.581   4.950   4.145 -2.0839  0.0047  2.4532
  135OSM   C16F14632   1.528   4.753   4.073  0.4560  0.9590 -0.4884
  135OSM   H16F14633   1.629   4.713   4.052  1.1605  1.3127  1.9010
  135OSM   H16G14634   1.459   4.710   3.996 -0.8082  0.8143  0.6717
  135OSM   C17F14635   1.475   4.690   4.206 -0.0041  0.2964 -0.1158
  135OSM   H17F14636   1.543   4.729   4.284  0.9532  0.0099 -0.7900
  135OSM   H17G14637   1.482   4.580   4.197 -3.6216 -0.1282  0.5324
  135OSM   C18F14638   1.334   4.730   4.254  0.5740 -0.3711  0.1619
  135OSM   H18F14639   1.266   4.711   4.168  0.8602 -2.6355  0.3614
  135OSM   H18G14640   1.343   4.836   4.284 -0.9686  0.7233 -2.8020
  135OSM   H18H14641   1.303   4.665   4.339  0.5861  1.4224  1.5926
  136OSM      N14642   3.870   1.034   1.300  0.7987 -0.4161 -0.7386
  136OSM    C1514643   3.741   1.098   1.267 -0.2672 -0.1557 -0.7518
  136OSM   H15A14644   3.756   1.202   1.241  1.5236  0.3321  1.8117
  136OSM   H15B14645   3.682   1.091   1.357 -0.8167  1.2435 -0.9681
  136OSM   H15C14646   3.688   1.047   1.188  0.5852 -0.3314 -1.2250
  136OSM    C1414647   3.856   0.884   1.295 -0.1231  0.7800  0.2639
  136OSM   H14A14648   3.942   0.831   1.333 -2.1366 -0.4057  3.6378
  136OSM   H14B14649   3.835   0.850   1.194 -0.1967 -0.8050  0.7799
  136OSM   H14C14650   3.772   0.838   1.346 -0.6319  0.6077 -0.7007
  136OSM    C1314651   3.960   1.089   1.198 -0.0028  0.2696  0.0010
  136OSM   H13A14652   4.062   1.062   1.224 -0.1629 -1.4611 -1.0248
  136OSM   H13B14653   3.939   1.195   1.201 -1.3737  0.0677 -1.1945
  136OSM   H13C14654   3.936   1.057   1.098 -0.0763 -0.8042  0.3475
  136OSM    C1214655   3.914   1.078   1.440 -0.4863  0.1232  0.2178
  136OSM   H12A14656   3.947   1.181   1.432 -2.4223  0.7680  0.1574
  136OSM   H12B14657   3.990   1.009   1.473 -0.5982  0.0136  0.2450
  136OSM    C1114658   3.802   1.079   1.552  0.1470  0.0970  0.2715
  136OSM   H11A14659   3.868   1.084   1.641 -0.7387 -0.6054  0.9830
  136OSM   H11B14660   3.755   0.979   1.543  1.0024 -0.3799  0.9046
  136OSM      P14661   3.741   1.336   1.567  0.0353  0.5883 -0.3542
  136OSM    O1314662   3.881   1.364   1.522  0.3132  0.3830  0.1938
  136OSM    O1414663   3.636   1.424   1.512 -0.1086  0.3418  0.1917
  136OSM    O1114664   3.743   1.347   1.729  0.5606  0.4644  0.1381
  136OSM    O1214665   3.708   1.183   1.539 -0.4615 -0.0576 -0.1611
  136OSM    C1S14666   3.696   1.237   1.809 -0.3191 -0.5316 -0.0417
  136OSM    H1S14667   3.779   1.164   1.824 -0.4979 -0.4056  1.7977
  136OSM    H1T14668   3.607   1.204   1.752 -0.1971  2.1054 -1.9368
  136OSM     NF14669   3.586   1.157   2.034  0.1027 -0.3741 -0.1615
  136OSM    HNF14670   3.490   1.130   2.031 -0.0418 -0.0640  0.9727
  136OSM    C2S14671   3.636   1.273   1.959 -0.1576 -0.1851  0.1131
  136OSM    H2S14672   3.717   1.322   2.017 -0.3292  1.4524 -0.9692
  136OSM    C3S14673   3.540   1.398   1.939  0.1305 -0.2692  0.8408
  136OSM    H3S14674   3.472   1.361   1.859  0.9683 -0.3076  0.1321
  136OSM     O314675   3.606   1.515   1.891  0.0373 -0.5169  0.3089
  136OSM    HO314676   3.674   1.478   1.835 -0.1051 -2.0515  1.1109
  136OSM    C4S14677   3.462   1.434   2.061 -0.0541 -0.5740  0.9836
  136OSM    H4S14678   3.374   1.370   2.079 -0.1199 -0.2046  2.0403
  136OSM    C5S14679   3.498   1.536   2.150  0.2333 -0.3855  0.7305
  136OSM    H5S14680   3.585   1.599   2.127 -0.1869 -0.0722 -0.0505
  136OSM    C6S14681   3.432   1.545   2.285 -0.2913 -0.1947  0.9497
  136OSM    H6S14682   3.372   1.637   2.298 -2.0190 -0.8353 -1.7064
  136OSM    H6T14683   3.509   1.563   2.363 -1.5624 -0.3276  2.2908
  136OSM    C7S14684   3.358   1.419   2.345  0.1967 -0.4924  0.5987
  136OSM    H7S14685   3.426   1.331   2.341  0.2103 -0.4559 -0.0644
  136OSM    H7T14686   3.263   1.409   2.290 -1.4175  2.0299  2.6565
  136OSM    C8S14687   3.324   1.442   2.499 -0.2400 -0.4811 -0.2212
  136OSM    H8S14688   3.251   1.526   2.505  0.6818  0.3338 -0.0894
  136OSM    H8T14689   3.426   1.460   2.539 -0.0130  1.6592 -1.5696
  136OSM    C9S14690   3.261   1.318   2.568 -0.2795 -0.1115 -0.2729
  136OSM    H9S14691   3.336   1.236   2.561 -0.2853 -0.2493  1.0894
  136OSM    H9T14692   3.157   1.294   2.539 -1.9153  2.8874  2.4504
  136OSM   C10S14693   3.238   1.343   2.722 -0.4170  0.3444 -0.0673
  136OSM   H10S14694   3.147   1.406   2.726 -1.7296 -1.2021 -2.9383
  136OSM   H10T14695   3.327   1.389   2.772 -0.9217  1.3748 -0.0894
  136OSM   C11S14696   3.211   1.210   2.803  0.5504 -0.0745 -0.1317
  136OSM   H11S14697   3.307   1.155   2.805  0.0945 -0.9927 -1.5611
  136OSM   H11T14698   3.132   1.156   2.746 -2.5686  1.1490  2.7187
  136OSM   C12S14699   3.149   1.237   2.943  0.8586  0.0642 -0.0154
  136OSM   H12S14700   3.082   1.150   2.957  1.7147 -0.5063  0.6837
  136OSM   H12T14701   3.091   1.332   2.937 -0.3493 -0.7371 -1.5963
  136OSM   C13S14702   3.250   1.239   3.060  0.5782 -0.2346  0.1401
  136OSM   H13S14703   3.344   1.292   3.031 -0.2016  0.1490 -1.8277
  136OSM   H13T14704   3.271   1.134   3.090 -0.6754 -0.0347  1.8093
  136OSM   C14S14705   3.201   1.319   3.183  0.1054 -0.0643  0.2285
  136OSM   H14S14706   3.117   1.262   3.229  1.0694 -2.2731 -0.5884
  136OSM   H14T14707   3.164   1.416   3.144  0.5263  0.2020  0.4925
  136OSM   C15S14708   3.309   1.337   3.291 -0.2166 -0.0331 -0.6569
  136OSM   H15S14709   3.362   1.434   3.294  0.1683 -0.2570  0.3733
  136OSM   H15T14710   3.392   1.264   3.273 -0.8616 -0.9988  0.1443
  136OSM   C16S14711   3.258   1.292   3.425 -0.6690 -0.3846  0.0263
  136OSM   H16S14712   3.193   1.202   3.423  0.0136 -0.9691  2.0865
  136OSM   H16T14713   3.190   1.365   3.475 -0.6612  0.0987 -0.6532
  136OSM   C17S14714   3.380   1.261   3.512 -0.1234 -0.1159  0.2457
  136OSM   H17S14715   3.443   1.350   3.529  0.2173 -0.2613 -0.2670
  136OSM   H17T14716   3.452   1.191   3.464  2.6647  1.9489  1.1736
  136OSM   C18S14717   3.340   1.211   3.655 -0.5808  0.2071 -0.3168
  136OSM   H18S14718   3.342   1.100   3.654  2.1321  0.1895 -0.0444
  136OSM   H18T14719   3.241   1.252   3.684 -0.7543  0.3698 -1.1161
  136OSM   H18U14720   3.417   1.246   3.727 -1.9561  2.6015  0.1006
  136OSM    C1F14721   3.674   1.078   2.094  0.5807 -0.6356  0.3451
  136OSM     OF14722   3.786   1.076   2.064  0.0098 -0.4748  0.2101
  136OSM    C2F14723   3.636   0.998   2.211 -0.8976  0.1328 -0.5495
  136OSM    H2F14724   3.625   0.894   2.175  0.7120  0.5586 -2.4309
  136OSM    H2G14725   3.541   1.032   2.258 -0.1181  0.1112  1.1217
  136OSM    C3F14726   3.750   0.995   2.321  0.1193 -0.4862 -0.7389
  136OSM    H3F14727   3.795   1.096   2.336  0.4435 -0.9384  1.7991
  136OSM    H3G14728   3.831   0.924   2.293  1.4193 -1.0746  3.6523
  136OSM    C4F14729   3.704   0.949   2.459 -0.3910  0.3487  0.2920
  136OSM    H4F14730   3.652   0.851   2.453  0.3520 -0.0312 -0.1431
  136OSM    H4G14731   3.630   1.024   2.494 -0.0884 -1.2217  4.9222
  136OSM    C5F14732   3.822   0.926   2.560  0.2445  0.1202  0.3850
  136OSM    H5F14733   3.866   1.025   2.585 -1.0372  1.3340 -1.7431
  136OSM    H5G14734   3.902   0.869   2.509  0.9238  0.6094  0.8931
  136OSM    C6F14735   3.754   0.853   2.680  0.1235  0.4403 -0.2014
  136OSM    H6F14736   3.722   0.752   2.649 -0.4827 -0.1604  2.1292
  136OSM    H6G14737   3.667   0.917   2.706 -0.9943 -0.8082 -0.7963
  136OSM    C7F14738   3.850   0.832   2.801 -0.4517 -0.4753 -0.2069
  136OSM    H7F14739   3.901   0.925   2.834 -1.0688 -1.5109  4.3443
  136OSM    H7G14740   3.934   0.764   2.776  1.0468  1.3934 -0.5147
  136OSM    C8F14741   3.781   0.779   2.918  0.2250 -0.4961  0.4650
  136OSM    H8F14742   3.695   0.845   2.942  0.7888  0.2873  0.3577
  136OSM    H8G14743   3.854   0.799   2.999 -0.3651 -1.5215  1.2782
  136OSM    C9F14744   3.751   0.629   2.928 -0.1301 -0.2489  0.3118
  136OSM    H9F14745   3.654   0.600   2.886  0.0029 -0.8984  0.4496
  136OSM   C10F14746   3.837   0.536   2.985  0.1810  0.3578  0.3880
  136OSM   H10F14747   3.797   0.433   2.988 -3.4839  1.6016 -0.2110
  136OSM   C11F14748   3.979   0.557   3.035  0.3795  0.0470 -0.1991
  136OSM   H11F14749   3.974   0.523   3.140  0.3777  1.6481  0.3584
  136OSM   H11G14750   4.009   0.664   3.045 -1.8964  0.9799 -2.4084
  136OSM   C12F14751   4.086   0.488   2.947 -0.5418  1.0588  0.2619
  136OSM   H12F14752   4.087   0.533   2.845  2.5354  0.1493 -0.1950
  136OSM   H12G14753   4.048   0.387   2.920 -0.3093  1.0753 -0.1373
  136OSM   C13F14754   4.226   0.486   2.996 -0.3002 -0.0602 -0.7225
  136OSM   H13F14755   4.250   0.585   3.040 -2.8177  0.3881 -0.1903
  136OSM   H13G14756   4.307   0.465   2.922  1.1196  0.9515  0.4829
  136OSM   C14F14757   4.248   0.376   3.110 -0.5250  0.9704  0.2826
  136OSM   H14F14758   4.214   0.276   3.075  1.1539  0.5452 -0.2219
  136OSM   H14G14759   4.177   0.404   3.190 -1.8894  0.3180 -0.6663
  136OSM   C15F14760   4.399   0.382   3.149  0.8528  0.1874  0.0969
  136OSM   H15F14761   4.437   0.486   3.155 -0.5740  0.7811 -0.5913
  136OSM   H15G14762   4.445   0.333   3.060  2.2984  1.9359 -0.1576
  136OSM   C16F14763   4.425   0.301   3.281 -0.4907  1.1374 -0.5494
  136OSM   H16F14764   4.534   0.299   3.302 -0.5917  1.6279  0.0439
  136OSM   H16G14765   4.386   0.197   3.273  3.4991 -0.4475 -1.6333
  136OSM   C17F14766   4.360   0.354   3.409  0.9174 -0.0486  0.1386
  136OSM   H17F14767   4.253   0.341   3.383  1.0777 -1.6598  0.1371
  136OSM   H17G14768   4.383   0.462   3.412 -2.8027  0.8613  1.2060
  136OSM   C18F14769   4.382   0.285   3.541  0.3496  0.0940 -0.1462
  136OSM   H18F14770   4.355   0.178   3.538 -1.2258  0.4441  0.3074
  136OSM   H18G14771   4.314   0.319   3.622  0.4874  0.3537 -0.1371
  136OSM   H18H14772   4.484   0.302   3.580 -0.3465 -0.0262  1.8351
  137OSM      N14773   0.644   3.658   1.849 -1.2148 -0.0506  0.2044
  137OSM    C1514774   0.780   3.701   1.785  0.5994  0.2298 -0.6419
  137OSM   H15A14775   0.851   3.732   1.859  1.1431 -3.5388  0.6244
  137OSM   H15B14776   0.754   3.770   1.706 -0.0920 -1.2034 -1.7226
  137OSM   H15C14777   0.819   3.614   1.733  0.9457 -1.3470  2.0773
  137OSM    C1414778   0.563   3.583   1.749 -0.0914 -0.3122  0.4137
  137OSM   H14A14779   0.491   3.529   1.810 -0.1036  0.6829  1.3062
  137OSM   H14B14780   0.634   3.512   1.708 -0.1803 -0.1327 -0.0552
  137OSM   H14C14781   0.517   3.647   1.676  0.3798  0.2413  0.5906
  137OSM    C1314782   0.671   3.570   1.959  0.0154  0.1533 -0.4657
  137OSM   H13A14783   0.721   3.622   2.039 -0.1175  0.4152 -0.5538
  137OSM   H13B14784   0.727   3.485   1.922  0.0695  1.1248 -2.8056
  137OSM   H13C14785   0.575   3.541   1.999 -0.8009  4.0076  0.7308
  137OSM    C1214786   0.572   3.783   1.891  0.4807  0.8836  0.5832
  137OSM   H12A14787   0.469   3.763   1.917  0.7317 -0.0424  0.9237
  137OSM   H12B14788   0.554   3.848   1.807 -0.1634 -0.8417 -0.6789
  137OSM    C1114789   0.617   3.858   2.023 -0.1107  0.1700 -0.4026
  137OSM   H11A14790   0.724   3.884   2.010 -0.6919  2.3742 -1.3213
  137OSM   H11B14791   0.598   3.797   2.114 -2.6127  1.1835 -0.1575
  137OSM      P14792   0.575   4.129   2.017  0.5816  0.3202  0.2360
  137OSM    O1314793   0.684   4.141   1.917  0.1243 -0.1009 -0.5012
  137OSM    O1414794   0.445   4.201   1.995  0.0809 -0.0761 -0.7437
  137OSM    O1114795   0.625   4.188   2.155  0.2350  0.1000 -0.2075
  137OSM    O1214796   0.541   3.977   2.041  0.1669  0.3256 -0.1567
  137OSM    C1S14797   0.737   4.118   2.222 -0.6617 -0.1447 -0.1760
  137OSM    H1S14798   0.828   4.113   2.158  0.0456  0.5831  0.7436
  137OSM    H1T14799   0.726   4.009   2.238  0.6329 -0.3847 -0.7774
  137OSM     NF14800   0.910   4.132   2.390  0.5857 -0.0285  0.1351
  137OSM    HNF14801   0.903   4.048   2.444  0.3860  0.4943  0.9407
  137OSM    C2S14802   0.784   4.197   2.348  0.0449 -0.2407  0.5073
  137OSM    H2S14803   0.799   4.303   2.321 -2.2611 -0.0390 -0.1271
  137OSM    C3S14804   0.666   4.195   2.450  0.0193 -0.1823  0.7462
  137OSM    H3S14805   0.635   4.091   2.474  0.3668 -0.4030  0.2531
  137OSM     O314806   0.556   4.274   2.407 -0.2546  0.1916  0.1708
  137OSM    HO314807   0.549   4.253   2.314 -1.9900  0.7673  0.1306
  137OSM    C4S14808   0.725   4.255   2.575 -0.1095  0.2249  0.0515
  137OSM    H4S14809   0.773   4.353   2.564 -2.0922  1.1468 -1.0030
  137OSM    C5S14810   0.724   4.185   2.688  0.2161  0.6794 -0.8527
  137OSM    H5S14811   0.685   4.082   2.686  1.4874  0.1927 -1.3482
  137OSM    C6S14812   0.788   4.234   2.811 -0.0742 -0.5994 -0.3936
  137OSM    H6S14813   0.740   4.200   2.906  1.8989 -1.0774  0.4910
  137OSM    H6T14814   0.768   4.343   2.817 -0.2394 -0.6948  1.4132
  137OSM    C7S14815   0.939   4.212   2.799  0.1216  0.0105  0.4742
  137OSM    H7S14816   0.960   4.249   2.696 -3.2795  2.1647  0.3935
  137OSM    H7T14817   0.965   4.105   2.814 -0.3173  0.0087  1.2650
  137OSM    C8S14818   1.029   4.301   2.884 -0.4014  0.3894  0.3234
  137OSM    H8S14819   1.010   4.401   2.838 -0.1825 -0.3012 -1.3230
  137OSM    H8T14820   1.131   4.273   2.851 -0.1495  0.8841  0.6731
  137OSM    C9S14821   1.010   4.287   3.035 -0.7907  0.2189 -0.8196
  137OSM    H9S14822   0.904   4.291   3.068 -0.7134 -2.5797 -0.0221
  137OSM    H9T14823   1.056   4.378   3.079  0.2330 -0.9712  0.6785
  137OSM   C10S14824   1.082   4.162   3.097  0.0366  1.1631  0.5443
  137OSM   H10S14825   1.190   4.181   3.079  0.2345 -1.2951 -1.2019
  137OSM   H10T14826   1.051   4.077   3.033  0.7973  1.1351  0.1996
  137OSM   C11S14827   1.046   4.137   3.247 -0.1322 -0.2471  0.2583
  137OSM   H11S14828   0.938   4.112   3.242 -0.6128  0.8066  3.1304
  137OSM   H11T14829   1.042   4.221   3.319  1.5216  0.5376 -0.5272
  137OSM   C12S14830   1.122   4.013   3.297  0.1472 -0.2549  0.2669
  137OSM   H12S14831   1.119   3.933   3.219  0.6403 -0.2073  0.1926
  137OSM   H12T14832   1.075   3.972   3.389 -0.3258  0.6032  0.4103
  137OSM   C13S14833   1.260   4.042   3.346 -0.3642 -0.1093  0.0431
  137OSM   H13S14834   1.260   4.135   3.406 -0.3136  1.3873 -2.1407
  137OSM   H13T14835   1.337   4.049   3.267 -0.0351 -0.2090  0.3558
  137OSM   C14S14836   1.311   3.937   3.443  0.5344 -0.1429  0.4886
  137OSM   H14S14837   1.288   3.843   3.389 -2.1414  1.0205 -0.5933
  137OSM   H14T14838   1.254   3.936   3.538  0.7305 -0.8176  0.5997
  137OSM   C15S14839   1.459   3.956   3.467 -0.5286  0.5613  0.8273
  137OSM   H15S14840   1.465   4.013   3.562  2.1269  2.6076 -0.4398
  137OSM   H15T14841   1.503   4.017   3.385  1.2127 -2.5432 -0.7583
  137OSM   C16S14842   1.539   3.827   3.481  0.0112  0.2649  0.1018
  137OSM   H16S14843   1.640   3.845   3.439 -0.1268  0.4065 -0.1786
  137OSM   H16T14844   1.489   3.740   3.433  2.8869 -2.5359  1.7905
  137OSM   C17S14845   1.555   3.798   3.626 -0.3977  0.5876 -1.0223
  137OSM   H17S14846   1.463   3.767   3.681  0.5240  0.8977  0.7715
  137OSM   H17T14847   1.588   3.887   3.683  0.8215 -1.6016  2.0184
  137OSM   C18S14848   1.649   3.679   3.665 -0.9906 -0.1419  0.5041
  137OSM   H18S14849   1.632   3.587   3.604  0.7564 -1.6256  2.1031
  137OSM   H18T14850   1.633   3.644   3.769  2.7602  0.0039  1.2927
  137OSM   H18U14851   1.758   3.703   3.665 -1.2138  1.0536 -1.3888
  137OSM    C1F14852   1.025   4.159   2.325  0.0401  0.2129 -1.1704
  137OSM     OF14853   1.031   4.253   2.248 -0.4474  0.0095  0.0437
  137OSM    C2F14854   1.139   4.073   2.348  0.1417 -0.2297 -0.4863
  137OSM    H2F14855   1.206   4.071   2.259  1.2404 -1.1166  0.3253
  137OSM    H2G14856   1.111   3.966   2.360 -1.8893  0.4717  1.6357
  137OSM    C3F14857   1.229   4.115   2.474 -0.1007 -0.5595 -0.0625
  137OSM    H3F14858   1.154   4.120   2.556 -0.4974 -2.7544 -0.2369
  137OSM    H3G14859   1.256   4.221   2.454 -0.2374 -0.7105 -1.1501
  137OSM    C4F14860   1.356   4.027   2.509  0.3363 -0.0107  0.2464
  137OSM    H4F14861   1.402   4.078   2.597 -2.5052 -0.2862  2.0041
  137OSM    H4G14862   1.418   4.035   2.417 -0.7736  3.1000 -0.3608
  137OSM    C5F14863   1.327   3.875   2.556 -0.7658 -0.5737  0.0144
  137OSM    H5F14864   1.420   3.830   2.595 -0.7244 -0.3880  0.1293
  137OSM    H5G14865   1.313   3.823   2.459  1.3464 -0.1101 -0.5814
  137OSM    C6F14866   1.198   3.846   2.648 -0.3025  0.4454  0.0681
  137OSM    H6F14867   1.111   3.881   2.589  0.1973  0.1316 -0.8884
  137OSM    H6G14868   1.199   3.918   2.732 -1.6212  1.7170 -0.9554
  137OSM    C7F14869   1.194   3.700   2.691  0.1910  0.0745 -0.1857
  137OSM    H7F14870   1.277   3.684   2.762  0.0323 -0.9120 -0.2171
  137OSM    H7G14871   1.198   3.636   2.601 -2.0003 -3.2996  1.8852
  137OSM    C8F14872   1.055   3.672   2.767 -0.3543 -0.6166 -0.4024
  137OSM    H8F14873   1.053   3.565   2.796  0.8367 -0.5190  0.1095
  137OSM    H8G14874   0.980   3.666   2.685 -2.2871 -0.7772  1.2944
  137OSM    C9F14875   1.009   3.769   2.879  0.3977  0.2405  0.3627
  137OSM    H9F14876   0.958   3.860   2.846 -1.1306 -1.3119 -1.8153
  137OSM   C10F14877   1.018   3.732   3.014 -0.2608 -0.3482  0.4821
  137OSM   H10F14878   0.964   3.794   3.087 -0.1042 -0.3770  0.6216
  137OSM   C11F14879   1.095   3.620   3.073 -0.4630 -0.6464  0.0363
  137OSM   H11F14880   1.177   3.597   3.001 -0.2279  0.2292  0.0156
  137OSM   H11G14881   1.021   3.537   3.071  0.7726 -1.7928 -0.8360
  137OSM   C12F14882   1.155   3.656   3.213  0.3249 -0.2039  0.4322
  137OSM   H12F14883   1.224   3.742   3.203 -0.0571  0.0739  0.1374
  137OSM   H12G14884   1.208   3.562   3.236  0.2716 -0.8212 -1.7793
  137OSM   C13F14885   1.058   3.672   3.327  0.7077  0.7523  0.1864
  137OSM   H13F14886   0.983   3.755   3.322 -0.0466  0.1421  1.0883
  137OSM   H13G14887   1.115   3.680   3.421  0.6801 -0.7598  0.3446
  137OSM   C14F14888   0.966   3.540   3.348  0.2837 -0.2926  0.3227
  137OSM   H14F14889   1.033   3.452   3.359  0.6820 -0.1718 -0.9248
  137OSM   H14G14890   0.901   3.518   3.261  1.4376  1.9523 -1.2090
  137OSM   C15F14891   0.892   3.556   3.477 -0.0640 -0.0901 -1.0384
  137OSM   H15F14892   0.832   3.649   3.474  0.0799  0.2294  2.1341
  137OSM   H15G14893   0.971   3.568   3.555 -0.6652 -1.1117 -0.2380
  137OSM   C16F14894   0.808   3.433   3.506 -0.0801 -0.4027 -0.1526
  137OSM   H16F14895   0.878   3.348   3.497  0.3929  0.1413 -2.1362
  137OSM   H16G14896   0.731   3.420   3.427  1.1778 -1.3578 -1.2680
  137OSM   C17F14897   0.730   3.421   3.639 -0.1986 -0.5361  0.1563
  137OSM   H17F14898   0.797   3.418   3.728 -1.0165 -1.7773  0.7644
  137OSM   H17G14899   0.681   3.321   3.637 -0.1433 -0.6188  1.6936
  137OSM   C18F14900   0.621   3.528   3.651 -0.0951 -0.5348  0.3737
  137OSM   H18F14901   0.664   3.629   3.638  1.7660 -1.4184 -0.7214
  137OSM   H18G14902   0.552   3.504   3.735  1.7714 -0.5697  1.9728
  137OSM   H18H14903   0.570   3.532   3.552  1.3813  1.2205 -0.3698
  138OSM      N14904   6.042   1.084   1.989 -0.1318 -0.1261  0.3305
  138OSM    C1514905   6.134   1.135   1.881 -0.4298 -0.3691  0.0957
  138OSM   H15A14906   6.139   1.060   1.804  1.2152  0.5751 -0.7861
  138OSM   H15B14907   6.238   1.156   1.904 -0.4677  0.0558 -0.1103
  138OSM   H15C14908   6.090   1.216   1.826  0.2664 -1.0353 -1.5006
  138OSM    C1414909   5.908   1.066   1.922  0.2324  0.3199 -0.0053
  138OSM   H14A14910   5.856   1.156   1.894 -2.4574 -0.0941  3.0263
  138OSM   H14B14911   5.840   1.007   1.982  2.3067 -4.0134 -1.4256
  138OSM   H14C14912   5.922   1.003   1.835  0.7504 -0.3963  0.5836
  138OSM    C1314913   6.081   0.960   2.059 -0.1133 -0.1217 -0.8505
  138OSM   H13A14914   6.094   0.884   1.983 -2.8984 -0.9804 -0.5805
  138OSM   H13B14915   6.005   0.919   2.123  1.8053 -2.9692 -0.1861
  138OSM   H13C14916   6.169   0.975   2.120 -0.7781  2.9856 -0.4849
  138OSM    C1214917   6.027   1.201   2.089  0.9255  0.2639 -0.0142
  138OSM   H12A14918   6.113   1.209   2.154 -0.0449 -1.6737  1.6387
  138OSM   H12B14919   5.940   1.174   2.147 -0.0600  1.9170 -0.6824
  138OSM    C1114920   5.996   1.343   2.033 -0.0378  0.0348 -0.2885
  138OSM   H11A14921   6.075   1.372   1.961 -0.6519 -2.4451 -2.0849
  138OSM   H11B14922   5.997   1.410   2.121  1.0738  0.6779 -0.7747
  138OSM      P14923   5.768   1.468   2.001  0.3803  0.1598 -0.1099
  138OSM    O1314924   5.819   1.603   1.958  0.2976 -0.2110  0.1060
  138OSM    O1414925   5.631   1.436   1.954  0.4313 -0.6822 -0.0822
  138OSM    O1114926   5.757   1.463   2.156  0.0890  0.4163 -0.4525
  138OSM    O1214927   5.867   1.347   1.969  0.1908 -0.0617 -0.1881
  138OSM    C1S14928   5.738   1.352   2.241 -0.0755 -0.0214 -0.5780
  138OSM    H1S14929   5.797   1.260   2.221  1.2971 -0.0529  2.7816
  138OSM    H1T14930   5.632   1.319   2.248  0.7018 -2.4372  1.3501
  138OSM     NF14931   5.799   1.268   2.469 -0.2629 -0.3579  0.0904
  138OSM    HNF14932   5.726   1.225   2.521 -1.5562  1.5758  0.0070
  138OSM    C2S14933   5.767   1.387   2.392 -0.5796  0.3270 -0.4467
  138OSM    H2S14934   5.864   1.438   2.373  0.2841 -1.7944 -2.0837
  138OSM    C3S14935   5.670   1.490   2.442 -0.5687 -0.8457  0.1263
  138OSM    H3S14936   5.570   1.442   2.439 -1.6821  1.3716 -0.6792
  138OSM     O314937   5.661   1.605   2.358  0.6881  0.3644  0.3735
  138OSM    HO314938   5.732   1.591   2.295 -0.5592 -1.7879 -0.6609
  138OSM    C4S14939   5.690   1.540   2.586  0.4918  0.3962 -0.0301
  138OSM    H4S14940   5.618   1.496   2.657  0.1167  2.7900  1.1559
  138OSM    C5S14941   5.782   1.621   2.635 -0.1811 -0.0331  0.7032
  138OSM    H5S14942   5.841   1.681   2.565 -0.6260  1.8406  1.8616
  138OSM    C6S14943   5.787   1.661   2.777  0.0226  0.4114  0.7082
  138OSM    H6S14944   5.717   1.745   2.794 -2.1215 -1.0183 -0.5061
  138OSM    H6T14945   5.889   1.703   2.788  0.9379 -1.6055  0.3935
  138OSM    C7S14946   5.755   1.543   2.873 -1.0553  0.6224  0.5228
  138OSM    H7S14947   5.813   1.452   2.851 -1.0103  0.2638  2.0168
  138OSM    H7T14948   5.644   1.531   2.868 -0.8681 -1.2948  0.3073
  138OSM    C8S14949   5.765   1.570   3.031  0.5271 -0.2383  0.6230
  138OSM    H8S14950   5.705   1.661   3.048  1.5318  0.6734 -0.5331
  138OSM    H8T14951   5.871   1.601   3.044  0.9180 -0.6808 -1.1631
  138OSM    C9S14952   5.731   1.457   3.131  0.2242  0.3112 -0.0163
  138OSM    H9S14953   5.813   1.386   3.109 -0.6178  0.0790 -2.7864
  138OSM    H9T14954   5.640   1.394   3.118  1.0984 -0.8398 -0.7310
  138OSM   C10S14955   5.731   1.494   3.281 -0.1416 -0.8945 -0.0848
  138OSM   H10S14956   5.641   1.554   3.306  1.1188  1.3734 -0.6825
  138OSM   H10T14957   5.817   1.563   3.293 -0.9143  0.0251  0.3250
  138OSM   C11S14958   5.757   1.376   3.381 -0.1729  0.5429 -1.0707
  138OSM   H11S14959   5.849   1.320   3.353  0.0605  0.0716  0.5360
  138OSM   H11T14960   5.677   1.306   3.346 -0.6127  0.3655  0.2108
  138OSM   C12S14961   5.752   1.415   3.532 -0.0812 -0.6884 -0.0858
  138OSM   H12S14962   5.656   1.471   3.541 -0.5570 -1.6520  1.2664
  138OSM   H12T14963   5.840   1.474   3.565  0.2166 -0.8216 -0.6330
  138OSM   C13S14964   5.742   1.292   3.626  0.1530  0.2224  0.5270
  138OSM   H13S14965   5.744   1.324   3.733  0.4287 -2.8792  1.5673
  138OSM   H13T14966   5.832   1.230   3.609  0.9749  1.1852  1.2298
  138OSM   C14S14967   5.623   1.200   3.601  0.3275  1.2133  0.6430
  138OSM   H14S14968   5.650   1.137   3.514 -0.6671 -0.2447  1.3341
  138OSM   H14T14969   5.534   1.263   3.580 -0.3276 -0.1512 -0.8401
  138OSM   C15S14970   5.601   1.104   3.719 -0.2126  0.1005  0.5784
  138OSM   H15S14971   5.594   1.174   3.805  3.5799  1.3473  0.0478
  138OSM   H15T14972   5.689   1.038   3.737  1.5737  1.8969 -1.1604
  138OSM   C16S14973   5.487   1.013   3.697 -0.0959 -0.0307 -0.4332
  138OSM   H16S14974   5.511   0.947   3.611 -0.8181  1.6247 -1.9719
  138OSM   H16T14975   5.406   1.073   3.650  0.2674 -2.0902 -4.0561
  138OSM   C17S14976   5.464   0.934   3.828 -0.1118 -0.3690 -0.7257
  138OSM   H17S14977   5.438   1.008   3.907  1.8158  3.4324 -3.3090
  138OSM   H17T14978   5.556   0.881   3.860 -0.0438  0.3055  0.2136
  138OSM   C18S14979   5.347   0.834   3.816 -0.3454 -0.6157  0.0916
  138OSM   H18S14980   5.246   0.880   3.807  0.2225  0.3826 -1.8345
  138OSM   H18T14981   5.347   0.755   3.894  2.1340  0.5987  1.4427
  138OSM   H18U14982   5.361   0.788   3.715  0.8579 -1.8607  0.7905
  138OSM    C1F14983   5.909   1.196   2.447 -0.0194  0.2726 -0.2588
  138OSM     OF14984   6.006   1.257   2.411  0.1323  0.3024 -0.4907
  138OSM    C2F14985   5.889   1.044   2.475 -0.1251 -0.3880  0.7196
  138OSM    H2F14986   5.852   1.010   2.376  1.1668  0.6730 -0.1650
  138OSM    H2G14987   5.810   1.029   2.551  0.0301  0.2049  1.0051
  138OSM    C3F14988   6.019   0.967   2.508 -0.4604  0.0799  0.3999
  138OSM    H3F14989   6.077   0.962   2.414 -0.3614 -0.2953  0.4769
  138OSM    H3G14990   5.998   0.860   2.527 -0.0481 -0.2724 -1.0337
  138OSM    C4F14991   6.115   1.026   2.611 -0.3370  0.8555 -0.6574
  138OSM    H4F14992   6.142   1.131   2.589  0.8404  0.9757  1.1590
  138OSM    H4G14993   6.208   0.966   2.606 -0.9614 -0.4473  1.7566
  138OSM    C5F14994   6.072   1.013   2.759 -0.2211 -0.7761  0.3418
  138OSM    H5F14995   6.157   1.058   2.814 -0.8256  0.2368  0.4647
  138OSM    H5G14996   6.077   0.904   2.782 -1.0203 -0.1743  3.9931
  138OSM    C6F14997   5.939   1.056   2.798  0.0555  0.2128 -0.5196
  138OSM    H6F14998   5.858   1.005   2.740  0.0497  1.3934 -1.5884
  138OSM    H6G14999   5.926   1.165   2.785  1.0354  0.4044  0.0602
  138OSM    C7F15000   5.911   1.040   2.951  0.4573 -0.2783  0.5063
  138OSM    H7F15001   5.975   1.113   3.006 -0.6074  0.5118  0.7231
  138OSM    H7G15002   5.936   0.935   2.978 -0.0396 -0.3811  0.5656
  138OSM    C8F15003   5.769   1.080   2.991 -0.3614  0.0866  0.1137
  138OSM    H8F15004   5.704   1.002   2.947  1.8830 -2.2656  0.7738
  138OSM    H8G15005   5.743   1.177   2.942  0.0625  0.0518 -0.1833
  138OSM    C9F15006   5.742   1.081   3.139  0.4549  0.0483  0.0822
  138OSM    H9F15007   5.740   1.181   3.184 -1.8042  0.7496 -1.4202
  138OSM   C10F15008   5.696   0.979   3.219  0.1294  0.0955  0.0766
  138OSM   H10F15009   5.678   1.003   3.325  3.3876  0.4321  0.6647
  138OSM   C11F15010   5.687   0.842   3.164  0.2082 -0.1787  0.2511
  138OSM   H11F15011   5.744   0.821   3.072  1.6919  0.3355  1.0133
  138OSM   H11G15012   5.580   0.824   3.141  0.3756 -2.4519  0.9389
  138OSM   C12F15013   5.733   0.742   3.272  0.3781  0.8582 -0.3341
  138OSM   H12F15014   5.827   0.781   3.316  0.1853 -1.3579  2.2855
  138OSM   H12G15015   5.743   0.645   3.218  0.1631  1.2495 -1.0827
  138OSM   C13F15016   5.644   0.722   3.391 -0.3752 -0.7124 -0.3733
  138OSM   H13F15017   5.549   0.670   3.362 -0.7764 -0.4615  0.4519
  138OSM   H13G15018   5.612   0.814   3.444 -1.3914  0.1318 -2.3513
  138OSM   C14F15019   5.709   0.623   3.495 -0.2208  0.2093  1.5845
  138OSM   H14F15020   5.810   0.646   3.535  0.3377 -2.0632  1.6430
  138OSM   H14G15021   5.717   0.518   3.459 -0.3958  0.8923 -0.5444
  138OSM   C15F15022   5.609   0.613   3.615 -0.0127 -0.7043 -0.1536
  138OSM   H15F15023   5.513   0.576   3.573  1.2219 -2.1372 -1.8527
  138OSM   H15G15024   5.601   0.712   3.666  3.3675 -0.9368  1.0504
  138OSM   C16F15025   5.646   0.511   3.719  0.5686  0.4906  0.6688
  138OSM   H16F15026   5.748   0.528   3.760  0.9577 -0.8253  0.2924
  138OSM   H16G15027   5.643   0.409   3.675 -0.8990  1.0534 -0.6613
  138OSM   C17F15028   5.545   0.518   3.836  0.0511  0.9630  0.2316
  138OSM   H17F15029   5.445   0.504   3.789  0.3274  0.7604 -0.3061
  138OSM   H17G15030   5.541   0.623   3.872 -0.7406  0.9351  0.2419
  138OSM   C18F15031   5.567   0.419   3.949  0.2247 -0.5182  0.5783
  138OSM   H18F15032   5.579   0.314   3.916  2.8641 -0.0033 -0.2914
  138OSM   H18G15033   5.482   0.418   4.021 -0.1122  0.5020  0.2152
  138OSM   H18H15034   5.655   0.448   4.010  2.9378 -3.2111 -1.7302
  139OSM      N15035   0.023   3.476   1.748 -0.2239 -0.9271  0.1912
  139OSM    C1515036  -0.109   3.417   1.777  0.3333 -0.4052 -0.1214
  139OSM   H15A15037  -0.143   3.343   1.706  0.0129 -0.1240 -0.2630
  139OSM   H15B15038  -0.184   3.487   1.812 -1.9385 -2.5731 -0.3894
  139OSM   H15C15039  -0.104   3.359   1.867  0.2580  0.9746  0.8092
  139OSM    C1415040   0.135   3.389   1.742 -0.0264  0.7388 -0.1035
  139OSM   H14A15041   0.102   3.298   1.694  2.5291 -0.4070  0.1134
  139OSM   H14B15042   0.166   3.357   1.840 -3.0368  0.0886  0.7291
  139OSM   H14C15043   0.218   3.424   1.682 -0.4094 -0.0040 -1.1059
  139OSM    C1315044   0.014   3.542   1.613  0.4240 -0.0843  0.3926
  139OSM   H13A15045   0.108   3.588   1.587 -0.7861  1.6015 -1.3008
  139OSM   H13B15046  -0.054   3.625   1.605  0.9626  0.5274  1.8681
  139OSM   H13C15047  -0.011   3.469   1.537  1.6628  0.0151 -0.1364
  139OSM    C1215048   0.047   3.583   1.848 -0.3542  0.9313  0.2068
  139OSM   H12A15049  -0.037   3.651   1.838 -0.7386  0.7842  2.0418
  139OSM   H12B15050   0.137   3.625   1.807 -1.0864 -0.1436 -2.7469
  139OSM    C1115051   0.058   3.538   1.996 -0.5061 -0.1303  0.0564
  139OSM   H11A15052  -0.023   3.466   2.020  0.2566 -0.6400  1.2425
  139OSM   H11B15053   0.043   3.625   2.063 -2.0563 -0.5121  0.2443
  139OSM      P15054   0.316   3.527   2.047  0.1977  0.0241 -0.1503
  139OSM    O1315055   0.419   3.439   1.997 -0.4638 -0.0312  0.2497
  139OSM    O1415056   0.307   3.660   1.978  0.1267  0.4693  0.1060
  139OSM    O1115057   0.320   3.541   2.202 -0.1514  0.7784 -0.9645
  139OSM    O1215058   0.175   3.466   2.027  0.1279 -0.5733 -0.5273
  139OSM    C1S15059   0.289   3.433   2.290 -0.3452  0.7071  0.8793
  139OSM    H1S15060   0.376   3.363   2.292 -1.4481 -0.7949 -0.8363
  139OSM    H1T15061   0.203   3.374   2.252 -0.2750  1.3916 -0.3652
  139OSM     NF15062   0.260   3.349   2.524  0.3714 -0.0879 -0.0629
  139OSM    HNF15063   0.173   3.303   2.542  0.8267  0.0017  2.7246
  139OSM    C2S15064   0.260   3.472   2.436 -0.0706  0.2782  0.0866
  139OSM    H2S15065   0.346   3.531   2.474 -1.4219  0.1629  3.7561
  139OSM    C3S15066   0.128   3.559   2.454  0.3801  0.4175 -0.1480
  139OSM    H3S15067   0.046   3.487   2.430  0.1975  0.8157 -0.7364
  139OSM     O315068   0.110   3.669   2.372 -0.0286  0.0313  0.0076
  139OSM    HO315069   0.184   3.661   2.312  0.4329 -1.8403  0.7603
  139OSM    C4S15070   0.115   3.601   2.604 -0.0259 -0.3301 -0.2782
  139OSM    H4S15071   0.078   3.522   2.671  0.5443  0.9652  1.6530
  139OSM    C5S15072   0.168   3.715   2.661 -0.1228  0.7797  0.5110
  139OSM    H5S15073   0.226   3.778   2.593 -0.9205 -0.4699 -1.4231
  139OSM    C6S15074   0.154   3.740   2.809  0.0052  0.0303 -0.2081
  139OSM    H6S15075   0.245   3.702   2.858  0.2744  1.4866  0.4630
  139OSM    H6T15076   0.074   3.676   2.852  0.0041  2.2645  3.4508
  139OSM    C7S15077   0.136   3.880   2.865 -0.0915 -0.6376 -0.1234
  139OSM    H7S15078   0.107   3.890   2.972  1.6573  1.7050  0.2066
  139OSM    H7T15079   0.053   3.926   2.807  0.2196 -2.2616 -1.9837
  139OSM    C8S15080   0.244   3.982   2.844  0.0362 -0.6452 -0.2746
  139OSM    H8S15081   0.188   4.075   2.869 -0.6385 -0.5437 -2.0622
  139OSM    H8T15082   0.258   3.998   2.735 -0.8802 -1.9862 -0.6142
  139OSM    C9S15083   0.366   3.943   2.925 -0.1738  0.0848 -0.7141
  139OSM    H9S15084   0.423   3.879   2.855  0.4328 -0.4455  0.2441
  139OSM    H9T15085   0.333   3.907   3.025 -0.7079  1.8553 -0.2105
  139OSM   C10S15086   0.461   4.061   2.966 -0.2921  0.2602 -0.2692
  139OSM   H10S15087   0.514   4.113   2.883  2.2062 -0.1538  0.9711
  139OSM   H10T15088   0.542   4.031   3.035  0.7036  0.3029 -1.3823
  139OSM   C11S15089   0.387   4.165   3.052  0.1350  0.6077 -0.1257
  139OSM   H11S15090   0.365   4.111   3.146  1.2715 -1.7783 -1.1441
  139OSM   H11T15091   0.302   4.190   2.986  0.6435 -0.9588 -1.4342
  139OSM   C12S15092   0.475   4.290   3.077  0.4195  0.0248  0.2295
  139OSM   H12S15093   0.414   4.383   3.083  1.6296  0.8527 -0.1491
  139OSM   H12T15094   0.545   4.302   2.993  0.9214  0.5014  0.7066
  139OSM   C13S15095   0.565   4.300   3.206  0.1135 -0.7401 -0.4767
  139OSM   H13S15096   0.657   4.239   3.196  0.7842  0.3090 -0.8592
  139OSM   H13T15097   0.509   4.263   3.295  0.7913  0.2859  0.3986
  139OSM   C14S15098   0.596   4.449   3.247  0.0779 -0.2466  0.1231
  139OSM   H14S15099   0.625   4.494   3.149  2.2518 -0.1897  0.7452
  139OSM   H14T15100   0.678   4.450   3.322 -0.0973 -0.0472  0.3148
  139OSM   C15S15101   0.484   4.534   3.311  0.5097  0.3885 -0.6762
  139OSM   H15S15102   0.468   4.496   3.414 -0.4014  2.7536  0.1246
  139OSM   H15T15103   0.390   4.543   3.252  1.3180  1.5708 -1.8610
  139OSM   C16S15104   0.521   4.683   3.333  0.3044 -0.1068 -0.6732
  139OSM   H16S15105   0.436   4.727   3.388 -0.3153 -2.8481  0.7664
  139OSM   H16T15106   0.528   4.728   3.232 -0.2128  0.4418 -0.4647
  139OSM   C17S15107   0.637   4.723   3.418 -0.1357  0.0400  0.0112
  139OSM   H17S15108   0.731   4.686   3.370  0.2195  2.2909 -1.1624
  139OSM   H17T15109   0.638   4.668   3.515  1.7116 -1.3383 -0.7166
  139OSM   C18S15110   0.656   4.871   3.460 -0.1910  0.4414 -0.0769
  139OSM   H18S15111   0.580   4.876   3.541 -1.0876 -1.6621 -0.7315
  139OSM   H18T15112   0.619   4.939   3.380 -0.4976 -1.0919 -1.2858
  139OSM   H18U15113   0.758   4.889   3.501 -0.3153 -1.2049  1.0103
  139OSM    C1F15114   0.367   3.269   2.539  0.8449 -0.9670 -0.2997
  139OSM     OF15115   0.483   3.296   2.495  0.6380  0.1371  0.2733
  139OSM    C2F15116   0.343   3.133   2.615 -0.6885  0.0712  1.5653
  139OSM    H2F15117   0.311   3.059   2.537 -0.2161  3.0032 -1.6853
  139OSM    H2G15118   0.255   3.139   2.683 -0.8550  2.4010  1.2198
  139OSM    C3F15119   0.474   3.082   2.683  0.6723  0.5987 -0.0797
  139OSM    H3F15120   0.515   3.164   2.746 -0.4349  0.4367  0.8538
  139OSM    H3G15121   0.553   3.051   2.610 -0.2659 -1.1037 -0.4184
  139OSM    C4F15122   0.449   2.959   2.762 -0.4489 -0.3054 -0.4558
  139OSM    H4F15123   0.430   2.879   2.688 -0.2012  0.3256 -1.2146
  139OSM    H4G15124   0.352   2.976   2.813 -1.6366 -0.1830 -2.6353
  139OSM    C5F15125   0.562   2.921   2.856  0.5409 -0.5356  0.0170
  139OSM    H5F15126   0.560   2.991   2.943 -0.7127  0.0859 -0.4944
  139OSM    H5G15127   0.657   2.924   2.799 -0.7901 -0.0767 -2.2903
  139OSM    C6F15128   0.548   2.769   2.905  1.2220  0.2017 -0.1824
  139OSM    H6F15129   0.533   2.705   2.815 -0.6585  1.5709 -0.9006
  139OSM    H6G15130   0.457   2.746   2.963  0.0947  1.1427 -1.4962
  139OSM    C7F15131   0.672   2.730   2.987  0.7533  0.6795  0.3908
  139OSM    H7F15132   0.687   2.802   3.071 -1.6944  3.0393 -1.0176
  139OSM    H7G15133   0.761   2.742   2.921  1.6566 -1.3236  1.1476
  139OSM    C8F15134   0.668   2.587   3.031 -0.0063  0.9152 -0.0455
  139OSM    H8F15135   0.767   2.567   3.077 -0.5127 -1.6883  0.0752
  139OSM    H8G15136   0.656   2.512   2.949 -0.1882  0.1314  0.6896
  139OSM    C9F15137   0.565   2.549   3.134  0.3116 -0.2309 -0.0932
  139OSM    H9F15138   0.466   2.527   3.090  0.2917 -1.6671  0.6155
  139OSM   C10F15139   0.576   2.556   3.270 -0.2331  0.3750  0.4071
  139OSM   H10F15140   0.488   2.521   3.327  0.0457 -1.1990 -0.0990
  139OSM   C11F15141   0.699   2.603   3.343 -0.2655 -0.1907  0.4253
  139OSM   H11F15142   0.755   2.671   3.275  0.4234 -1.4876 -0.3480
  139OSM   H11G15143   0.761   2.514   3.368 -2.1915 -2.5521 -2.5014
  139OSM   C12F15144   0.675   2.702   3.469 -0.1386  0.6667  0.0487
  139OSM   H12F15145   0.617   2.790   3.435  1.7146  0.5401 -3.9824
  139OSM   H12G15146   0.778   2.720   3.507 -0.8792  1.4566  1.8017
  139OSM   C13F15147   0.591   2.640   3.581 -0.0798  0.2587 -0.1446
  139OSM   H13F15148   0.617   2.532   3.589 -1.9303 -0.2370 -0.5056
  139OSM   H13G15149   0.488   2.646   3.540  0.1260 -1.6494 -1.0457
  139OSM   C14F15150   0.595   2.704   3.721  0.0508  0.4061 -0.1529
  139OSM   H14F15151   0.682   2.671   3.782 -1.2356 -0.8555  1.0858
  139OSM   H14G15152   0.498   2.677   3.768  0.1605  2.2779  1.2816
  139OSM   C15F15153   0.593   2.858   3.715 -0.1210 -0.4776 -0.0739
  139OSM   H15F15154   0.492   2.881   3.676  0.0073  0.5955  0.1908
  139OSM   H15G15155   0.667   2.900   3.643 -0.2647 -1.5829 -0.8995
  139OSM   C16F15156   0.603   2.927   3.859  0.1605 -0.0294 -0.0397
  139OSM   H16F15157   0.693   2.898   3.917 -0.6138 -0.7230  0.8301
  139OSM   H16G15158   0.520   2.888   3.922 -1.4325  2.8950 -0.1393
  139OSM   C17F15159   0.580   3.081   3.855  0.7036  0.3037 -0.8868
  139OSM   H17F15160   0.477   3.091   3.815 -0.5911 -2.6248  1.2781
  139OSM   H17G15161   0.659   3.129   3.794  1.3405  0.1986 -0.1602
  139OSM   C18F15162   0.595   3.159   3.987 -0.1822  0.7436  0.3751
  139OSM   H18F15163   0.546   3.116   4.077  0.0405 -0.7205 -0.1676
  139OSM   H18G15164   0.553   3.261   3.972 -2.3997 -0.2814 -0.8989
  139OSM   H18H15165   0.703   3.157   4.013 -0.2561 -1.7331  0.7670
  140OSM      N15166   6.391   1.967   1.769 -0.6845  0.5309 -0.1440
  140OSM    C1515167   6.432   1.843   1.695  0.4429  0.4545 -1.0324
  140OSM   H15A15168   6.537   1.832   1.673 -0.0852  0.9860 -4.4969
  140OSM   H15B15169   6.381   1.828   1.600 -0.9508 -1.3679 -0.0722
  140OSM   H15C15170   6.394   1.761   1.754 -0.9650  0.7790 -1.4262
  140OSM    C1415171   6.449   2.078   1.694 -0.3531  0.0833  0.4186
  140OSM   H14A15172   6.557   2.073   1.685 -0.3618  0.1869  0.2481
  140OSM   H14B15173   6.434   2.177   1.734  0.9539 -0.1051  1.4645
  140OSM   H14C15174   6.410   2.079   1.593  0.1764 -0.1615  0.2036
  140OSM    C1315175   6.243   1.978   1.772 -0.2150 -0.2737  0.3400
  140OSM   H13A15176   6.199   1.906   1.840  1.1426 -1.6076 -0.1346
  140OSM   H13B15177   6.200   1.951   1.677 -1.2035  0.2098  0.6369
  140OSM   H13C15178   6.206   2.079   1.783  1.7814  0.4738  0.7862
  140OSM    C1215179   6.443   1.964   1.918  0.8391 -0.2959  0.3010
  140OSM   H12A15180   6.409   2.047   1.977  0.8432 -0.7089  0.8894
  140OSM   H12B15181   6.550   1.978   1.917  0.7570  0.3888  0.7603
  140OSM    C1115182   6.410   1.835   2.007 -0.2583 -0.4018  0.1127
  140OSM   H11A15183   6.467   1.834   2.102  1.0792  1.2851 -0.6241
  140OSM   H11B15184   6.436   1.741   1.952 -1.1061  0.7583 -2.4573
  140OSM      P15185   6.193   1.902   2.141  0.1365 -0.1731 -0.1518
  140OSM    O1315186   6.261   2.032   2.180 -0.1273  0.9201  0.9080
  140OSM    O1415187   6.050   1.917   2.111  0.1265  0.2440  0.2419
  140OSM    O1115188   6.217   1.790   2.248 -0.1902  0.1570  0.1598
  140OSM    O1215189   6.270   1.833   2.025 -0.2080  0.1930 -0.4660
  140OSM    C1S15190   6.183   1.649   2.222  0.4902 -0.2265  0.1179
  140OSM    H1S15191   6.238   1.600   2.139 -2.3724 -0.1035 -2.0158
  140OSM    H1T15192   6.073   1.643   2.210  0.5508 -0.0863 -0.5258
  140OSM     NF15193   6.208   1.433   2.323  0.6503  0.3052  0.1748
  140OSM    HNF15194   6.132   1.378   2.356  0.6522 -1.9030 -3.0228
  140OSM    C2S15195   6.211   1.572   2.349 -0.0193 -0.7738 -0.0817
  140OSM    H2S15196   6.314   1.610   2.368 -0.5874  1.6070 -1.4431
  140OSM    C3S15197   6.108   1.610   2.464 -0.3576 -0.4382 -0.0670
  140OSM    H3S15198   6.010   1.570   2.431 -0.4891  0.4851 -0.8647
  140OSM     O315199   6.080   1.748   2.480  0.6475  0.7648  0.0678
  140OSM    HO315200   6.123   1.781   2.401  1.2371 -0.7747 -0.3061
  140OSM    C4S15201   6.151   1.543   2.595 -0.3414 -0.4656 -0.5728
  140OSM    H4S15202   6.233   1.600   2.642 -0.4850  1.9809 -2.9840
  140OSM    C5S15203   6.097   1.435   2.659  0.2674  0.4801  1.2306
  140OSM    H5S15204   6.014   1.390   2.603  0.1756  1.4037  0.5920
  140OSM    C6S15205   6.136   1.376   2.792 -0.3467  0.6188 -1.0102
  140OSM    H6S15206   6.194   1.285   2.765  2.4497  0.6686  3.6802
  140OSM    H6T15207   6.039   1.356   2.842  1.2097 -1.1472  1.5054
  140OSM    C7S15208   6.212   1.458   2.904  0.2352 -0.7123  0.1476
  140OSM    H7S15209   6.179   1.564   2.903  1.5678 -0.2717  0.1808
  140OSM    H7T15210   6.316   1.448   2.867 -1.1083 -3.2495 -3.5136
  140OSM    C8S15211   6.217   1.396   3.041  0.1542 -0.4700 -0.2874
  140OSM    H8S15212   6.288   1.313   3.018 -0.6895 -0.7690 -2.0371
  140OSM    H8T15213   6.111   1.362   3.053 -0.4437  0.2279 -2.9687
  140OSM    C9S15214   6.256   1.492   3.153 -0.3809  0.5195  0.4144
  140OSM    H9S15215   6.178   1.570   3.169  1.0139  1.5811  2.3510
  140OSM    H9T15216   6.353   1.538   3.124  0.2492 -0.6690  0.5817
  140OSM   C10S15217   6.282   1.421   3.287  1.2229 -0.5879 -0.1343
  140OSM   H10S15218   6.320   1.498   3.359 -3.4278  1.2225  0.7137
  140OSM   H10T15219   6.367   1.355   3.261  1.7405  0.5063 -1.3811
  140OSM   C11S15220   6.157   1.348   3.339  0.2863  0.2656 -0.4506
  140OSM   H11S15221   6.121   1.270   3.269 -0.1159 -1.0238  1.1159
  140OSM   H11T15222   6.073   1.421   3.347  1.4626  1.4728  2.3817
  140OSM   C12S15223   6.186   1.270   3.468  0.2583 -0.0638 -0.1589
  140OSM   H12S15224   6.281   1.213   3.463 -0.2848 -0.9318 -0.9434
  140OSM   H12T15225   6.101   1.202   3.492 -0.4683  1.7147  2.8503
  140OSM   C13S15226   6.206   1.365   3.589  0.1632 -0.5227  0.0986
  140OSM   H13S15227   6.135   1.448   3.569  1.7901  1.2373  1.2725
  140OSM   H13T15228   6.310   1.401   3.606 -0.5634  1.1780  1.1391
  140OSM   C14S15229   6.173   1.295   3.720 -0.0163 -0.9532 -0.3348
  140OSM   H14S15230   6.071   1.250   3.721  0.0318 -1.4233 -3.7827
  140OSM   H14T15231   6.167   1.375   3.796  0.8544  0.3937 -1.6421
  140OSM   C15S15232   6.288   1.198   3.756 -0.3570  0.6892 -0.9914
  140OSM   H15S15233   6.389   1.242   3.745  0.5844 -0.8720  0.8826
  140OSM   H15T15234   6.286   1.113   3.684  2.5133  1.2415 -1.8161
  140OSM   C16S15235   6.273   1.124   3.890  0.5245  0.0866  0.4190
  140OSM   H16S15236   6.305   1.018   3.885  2.0514  0.5019  1.0169
  140OSM   H16T15237   6.163   1.114   3.905 -0.0718  3.5191 -0.6951
  140OSM   C17S15238   6.322   1.191   4.016 -0.3381  0.8245  0.8071
  140OSM   H17S15239   6.266   1.286   4.029 -0.8800  0.4741  1.0639
  140OSM   H17T15240   6.432   1.206   4.024 -0.3542  1.0919  0.5354
  140OSM   C18S15241   6.284   1.096   4.131 -0.1516  0.0668  0.6062
  140OSM   H18S15242   6.357   1.104   4.214  1.8338  2.6187 -1.2003
  140OSM   H18T15243   6.273   0.990   4.097 -0.5167  0.1879  0.3370
  140OSM   H18U15244   6.184   1.124   4.169  0.2718  0.4962  1.4273
  140OSM    C1F15245   6.316   1.367   2.296 -0.4074 -0.3297  0.2499
  140OSM     OF15246   6.420   1.426   2.255  0.7033  0.3432 -0.1526
  140OSM    C2F15247   6.326   1.215   2.299 -0.6817 -0.4610 -0.5000
  140OSM    H2F15248   6.327   1.180   2.194 -0.8236 -2.4279  0.1221
  140OSM    H2G15249   6.230   1.181   2.344 -0.5130  0.3971  0.5594
  140OSM    C3F15250   6.451   1.161   2.372 -0.5158 -0.5477 -0.2758
  140OSM    H3F15251   6.540   1.204   2.321  0.8821  0.3870  2.7620
  140OSM    H3G15252   6.454   1.053   2.347  1.8530 -0.2975 -1.3599
  140OSM    C4F15253   6.463   1.191   2.518 -0.3715 -0.3559 -0.1208
  140OSM    H4F15254   6.391   1.122   2.568 -1.2124  0.1822 -0.5604
  140OSM    H4G15255   6.423   1.294   2.531 -0.8534 -0.4532 -0.7904
  140OSM    C5F15256   6.603   1.170   2.576 -0.1171 -0.3580 -0.0096
  140OSM    H5F15257   6.679   1.240   2.533  0.7431  0.1106  2.1435
  140OSM    H5G15258   6.634   1.066   2.553 -0.7779 -0.8934  1.4200
  140OSM    C6F15259   6.599   1.171   2.727  0.0817 -1.3466 -0.3817
  140OSM    H6F15260   6.677   1.104   2.770 -1.0365 -0.7943  2.7842
  140OSM    H6G15261   6.501   1.126   2.751  0.1352 -1.2632 -0.0032
  140OSM    C7F15262   6.608   1.310   2.788 -0.1183 -0.9230 -0.2918
  140OSM    H7F15263   6.521   1.367   2.748 -0.9605 -0.4504  2.0430
  140OSM    H7G15264   6.697   1.367   2.753 -1.7587  1.3008 -1.1693
  140OSM    C8F15265   6.610   1.316   2.935 -0.0194 -0.4589  0.1282
  140OSM    H8F15266   6.530   1.256   2.983 -0.3783  0.2263  0.4064
  140OSM    H8G15267   6.579   1.420   2.961  1.7202 -0.2629  1.6140
  140OSM    C9F15268   6.747   1.280   2.994  0.1838  0.6300  0.0712
  140OSM    H9F15269   6.826   1.285   2.918 -0.7074  0.6632 -0.8759
  140OSM   C10F15270   6.782   1.219   3.113  0.7107  0.1910  0.2010
  140OSM   H10F15271   6.889   1.195   3.121  1.2874  1.3578 -2.7661
  140OSM   C11F15272   6.676   1.177   3.220  0.0056  0.3188  0.6643
  140OSM   H11F15273   6.674   1.066   3.224  3.2435  0.0684 -1.0737
  140OSM   H11G15274   6.575   1.215   3.195  0.5849  0.3148 -1.9617
  140OSM   C12F15275   6.714   1.238   3.351 -0.2943  0.2633 -0.6428
  140OSM   H12F15276   6.819   1.236   3.385 -1.2735  1.0188  2.8399
  140OSM   H12G15277   6.664   1.193   3.440  1.2007  0.0536  0.1295
  140OSM   C13F15278   6.667   1.388   3.352 -0.1503 -0.6445  0.3145
  140OSM   H13F15279   6.582   1.404   3.283  0.0489  0.1837  0.2523
  140OSM   H13G15280   6.749   1.452   3.313  2.4710 -1.4669  3.9248
  140OSM   C14F15281   6.625   1.462   3.482 -0.0130  0.5571  0.0315
  140OSM   H14F15282   6.520   1.432   3.503 -0.7740  2.4740 -0.8617
  140OSM   H14G15283   6.615   1.569   3.454  0.5441  0.5686 -0.1316
  140OSM   C15F15284   6.709   1.425   3.595 -0.1498  0.4335 -0.4651
  140OSM   H15F15285   6.816   1.423   3.566  0.1203  2.5974  0.1883
  140OSM   H15G15286   6.687   1.319   3.621  2.6989  0.0795  0.8219
  140OSM   C16F15287   6.714   1.521   3.716  0.4947  1.0780  0.0593
  140OSM   H16F15288   6.778   1.476   3.795  1.0843  1.7099 -0.0366
  140OSM   H16G15289   6.611   1.529   3.755  0.2545 -0.5320 -0.1833
  140OSM   C17F15290   6.739   1.662   3.686  0.2078  0.2994  0.4051
  140OSM   H17F15291   6.658   1.697   3.619  0.7272 -1.0577 -0.9799
  140OSM   H17G15292   6.830   1.686   3.627 -1.2870  4.6296 -0.4960
  140OSM   C18F15293   6.742   1.746   3.818 -0.5420  0.4681  0.0712
  140OSM   H18F15294   6.787   1.847   3.803 -1.7164  1.1643  0.9945
  140OSM   H18G15295   6.788   1.689   3.901 -0.9723 -0.5432 -0.3744
  140OSM   H18H15296   6.638   1.763   3.853 -0.3499  1.3623  0.2359
  141OSM      N15297   0.928   6.432   1.064 -0.3965  0.4676  1.2343
  141OSM    C1515298   0.993   6.423   0.930  0.3909 -0.1222 -0.1751
  141OSM   H15A15299   0.927   6.427   0.845  2.0304 -0.3329 -1.5181
  141OSM   H15B15300   1.034   6.324   0.921 -0.1498 -0.1384 -3.5565
  141OSM   H15C15301   1.069   6.500   0.922  0.3145  0.0724  0.8385
  141OSM    C1415302   0.835   6.551   1.064  0.6278  0.1258  0.6436
  141OSM   H14A15303   0.761   6.558   0.986  0.9184  1.4976  0.4678
  141OSM   H14B15304   0.899   6.638   1.058 -1.3302  1.8325  2.7297
  141OSM   H14C15305   0.786   6.565   1.159  0.9113  1.8971  0.5532
  141OSM    C1315306   0.846   6.305   1.085  0.2144  0.3190 -0.7236
  141OSM   H13A15307   0.907   6.216   1.085 -0.1002  0.0152  1.7947
  141OSM   H13B15308   0.760   6.296   1.020 -1.0395 -1.5596  1.0746
  141OSM   H13C15309   0.804   6.303   1.185 -0.0916 -2.2293 -0.8424
  141OSM    C1215310   1.029   6.439   1.173  0.1034 -0.0749 -0.3964
  141OSM   H12A15311   1.097   6.518   1.145 -0.5225  1.2257  1.5607
  141OSM   H12B15312   1.093   6.352   1.176  2.7648  1.7825 -0.2871
  141OSM    C1115313   0.974   6.472   1.317 -0.2602 -0.1031  0.2002
  141OSM   H11A15314   1.054   6.436   1.385 -0.4121 -0.5407  0.1466
  141OSM   H11B15315   0.881   6.412   1.320 -1.1621  1.2259 -0.2291
  141OSM      P15316   1.058   6.711   1.364  0.4367 -0.1890 -0.4339
  141OSM    O1315317   1.183   6.651   1.319 -0.0174  0.1299  0.8713
  141OSM    O1415318   1.013   6.839   1.301  0.0260 -0.4335 -0.3948
  141OSM    O1115319   1.057   6.728   1.522  0.1952 -0.0974  0.0175
  141OSM    O1215320   0.942   6.615   1.332 -0.0860  0.6233 -0.0028
  141OSM    C1S15321   1.017   6.625   1.618 -0.5812 -0.4738  0.7910
  141OSM    H1S15322   1.105   6.565   1.650  0.3041  0.4057  0.0744
  141OSM    H1T15323   0.932   6.561   1.584  0.3982 -0.6022 -1.6557
  141OSM     NF15324   0.972   6.571   1.860 -0.3651  0.7043  0.6459
  141OSM    HNF15325   0.898   6.504   1.857  1.0228 -0.9598  1.8627
  141OSM    C2S15326   0.971   6.678   1.765  0.4382 -0.2661 -0.2437
  141OSM    H2S15327   1.041   6.757   1.798 -0.4832  1.2461 -1.7179
  141OSM    C3S15328   0.830   6.742   1.758  0.4813  0.3000  1.0035
  141OSM    H3S15329   0.758   6.659   1.740 -0.4447  1.2827  0.0313
  141OSM     O315330   0.807   6.829   1.648  0.2481  0.0402  0.4701
  141OSM    HO315331   0.887   6.816   1.596 -0.2299 -0.7214 -0.1000
  141OSM    C4S15332   0.787   6.813   1.874 -0.2829  0.5535  0.3209
  141OSM    H4S15333   0.872   6.857   1.928  0.5512  0.4429 -0.8642
  141OSM    C5S15334   0.662   6.824   1.920  0.2002  0.3021  0.6647
  141OSM    H5S15335   0.592   6.757   1.869  0.4438  0.0695  0.6335
  141OSM    C6S15336   0.616   6.903   2.034  0.2847 -0.2796 -0.0419
  141OSM    H6S15337   0.568   6.832   2.104 -2.1309  1.8572  0.6471
  141OSM    H6T15338   0.532   6.972   2.012  1.6164  1.4279 -0.0164
  141OSM    C7S15339   0.718   6.973   2.127 -1.0649  1.7083 -0.8112
  141OSM    H7S15340   0.667   7.060   2.173 -1.6906  0.7949  0.2750
  141OSM    H7T15341   0.795   7.023   2.065  1.7843 -0.2776  0.8616
  141OSM    C8S15342   0.790   6.880   2.227  0.4928  0.2166  0.1731
  141OSM    H8S15343   0.874   6.931   2.277  1.4581 -1.1656  0.0253
  141OSM    H8T15344   0.838   6.789   2.184  0.4335 -0.0181  0.5947
  141OSM    C9S15345   0.705   6.817   2.336  0.5189 -0.1773  0.0330
  141OSM    H9S15346   0.641   6.741   2.286 -0.1072 -0.0082  0.5616
  141OSM    H9T15347   0.640   6.899   2.374  1.0688  0.1783  0.2217
  141OSM   C10S15348   0.780   6.750   2.449  0.1944  0.0460 -0.1595
  141OSM   H10S15349   0.826   6.842   2.490 -2.0406  2.0071 -1.8104
  141OSM   H10T15350   0.865   6.687   2.415  0.7891 -0.2247  1.6844
  141OSM   C11S15351   0.688   6.681   2.548  0.1382  0.4192 -0.0757
  141OSM   H11S15352   0.637   6.594   2.502 -0.4898 -0.5819  2.3646
  141OSM   H11T15353   0.610   6.756   2.576  2.2429  1.9942  1.9085
  141OSM   C12S15354   0.753   6.640   2.681 -0.3205  0.7754  0.2268
  141OSM   H12S15355   0.818   6.725   2.710  0.7963 -0.5277  1.7501
  141OSM   H12T15356   0.819   6.551   2.666 -2.6848 -1.0116 -0.1546
  141OSM   C13S15357   0.647   6.621   2.786  0.0579  0.0053  0.3407
  141OSM   H13S15358   0.581   6.540   2.747 -2.3629  2.1636 -0.3255
  141OSM   H13T15359   0.583   6.711   2.793  2.0358  1.5852 -0.9989
  141OSM   C14S15360   0.695   6.576   2.929 -0.4491 -0.1896  0.5023
  141OSM   H14S15361   0.776   6.646   2.960 -0.5518  0.2844 -0.2984
  141OSM   H14T15362   0.733   6.471   2.922  1.1445  0.0475  3.6470
  141OSM   C15S15363   0.588   6.580   3.048  0.0034 -0.7096  0.1081
  141OSM   H15S15364   0.524   6.489   3.050  1.6083 -1.8771  0.3974
  141OSM   H15T15365   0.531   6.670   3.016  1.9240  0.5368  0.0314
  141OSM   C16S15366   0.641   6.625   3.185  0.0128 -0.0009  0.6458
  141OSM   H16S15367   0.695   6.722   3.183 -1.3010  0.8022  2.0136
  141OSM   H16T15368   0.711   6.547   3.221 -1.5476 -2.0669 -0.5737
  141OSM   C17S15369   0.526   6.648   3.285  0.2375  0.6093  0.1124
  141OSM   H17S15370   0.559   6.646   3.391 -1.0061 -1.0204  0.5134
  141OSM   H17T15371   0.451   6.566   3.274  1.4310 -0.5235  0.2815
  141OSM   C18S15372   0.457   6.784   3.263 -0.1744  0.2761 -0.6517
  141OSM   H18S15373   0.523   6.866   3.297 -0.9851  1.3557 -1.6177
  141OSM   H18T15374   0.360   6.782   3.317  0.0615  2.2347 -0.0681
  141OSM   H18U15375   0.432   6.796   3.156 -1.4745  0.1016 -0.3847
  141OSM    C1F15376   1.084   6.531   1.919  0.3061  0.2428  0.1006
  141OSM     OF15377   1.193   6.563   1.886  0.6804 -0.1080  0.1845
  141OSM    C2F15378   1.062   6.444   2.037 -0.0398  0.1903  0.7058
  141OSM    H2F15379   1.047   6.338   2.008 -1.3721  0.0972  1.6679
  141OSM    H2G15380   0.976   6.490   2.089  0.0137  3.5910 -1.8577
  141OSM    C3F15381   1.182   6.436   2.130 -0.2763 -0.0539  0.0839
  141OSM    H3F15382   1.188   6.542   2.160 -3.0861  0.2842 -0.2507
  141OSM    H3G15383   1.275   6.404   2.077 -0.2792  0.3175 -0.1507
  141OSM    C4F15384   1.149   6.351   2.249 -0.3323  0.1060  1.0196
  141OSM    H4F15385   1.230   6.275   2.253 -0.7242 -0.5690 -1.6308
  141OSM    H4G15386   1.052   6.297   2.236 -0.6076  0.5431  1.2602
  141OSM    C5F15387   1.157   6.437   2.375 -0.3737 -0.6797 -0.3244
  141OSM    H5F15388   1.092   6.525   2.359  0.1417 -0.6911 -2.9173
  141OSM    H5G15389   1.261   6.476   2.385 -0.0229 -0.7236 -3.1571
  141OSM    C6F15390   1.114   6.371   2.509 -0.4080 -0.1823 -0.4312
  141OSM    H6F15391   1.174   6.281   2.536 -1.3928 -0.4980  0.8050
  141OSM    H6G15392   1.016   6.319   2.503  0.7038 -2.5463  0.5332
  141OSM    C7F15393   1.134   6.477   2.620  0.7265  0.0053  0.0038
  141OSM    H7F15394   1.079   6.570   2.593  2.3087  1.4159  1.3900
  141OSM    H7G15395   1.242   6.501   2.632  1.3540 -0.8811 -2.9822
  141OSM    C8F15396   1.065   6.438   2.752 -0.4939  0.5201  0.2053
  141OSM    H8F15397   0.971   6.380   2.742 -0.9936  0.3160  4.3492
  141OSM    H8G15398   1.023   6.520   2.814 -0.9072 -0.2462  0.9620
  141OSM    C9F15399   1.167   6.357   2.836 -0.0800  0.9046  0.4910
  141OSM    H9F15400   1.236   6.287   2.788 -2.0478 -0.4469 -0.5187
  141OSM   C10F15401   1.173   6.352   2.967 -0.4244 -0.3464  0.5566
  141OSM   H10F15402   1.248   6.288   3.016  0.4069 -0.5906 -0.9680
  141OSM   C11F15403   1.084   6.439   3.060  0.2979 -0.3581  0.0824
  141OSM   H11F15404   0.988   6.394   3.092  1.8022 -2.9003  1.3170
  141OSM   H11G15405   1.056   6.533   3.008 -1.1247 -1.8560 -2.0125
  141OSM   C12F15406   1.161   6.484   3.185 -0.5014 -0.6791  0.3660
  141OSM   H12F15407   1.261   6.525   3.160 -0.8621  0.7872  1.2500
  141OSM   H12G15408   1.187   6.391   3.241 -0.7192 -0.9289  0.0594
  141OSM   C13F15409   1.080   6.576   3.269 -0.3615  0.0212 -0.2201
  141OSM   H13F15410   1.000   6.513   3.313 -0.2136  0.2437  0.3733
  141OSM   H13G15411   1.044   6.656   3.201  1.7608  1.4768  0.2512
  141OSM   C14F15412   1.156   6.635   3.388  0.1834  0.2554 -0.2331
  141OSM   H14F15413   1.248   6.690   3.358  2.4168 -2.5324  1.0124
  141OSM   H14G15414   1.196   6.555   3.453  0.0367  0.8959  0.6614
  141OSM   C15F15415   1.074   6.739   3.469  0.5124  0.6242 -0.6326
  141OSM   H15F15416   1.052   6.821   3.397 -0.4779  1.6948  0.8389
  141OSM   H15G15417   1.138   6.778   3.550  0.2293 -1.2531  0.5608
  141OSM   C16F15418   0.942   6.708   3.530  0.2710 -0.1768 -0.1781
  141OSM   H16F15419   0.957   6.628   3.606  2.0132  0.7101  0.4743
  141OSM   H16G15420   0.874   6.666   3.453  1.1142 -2.0330  0.0273
  141OSM   C17F15421   0.879   6.828   3.606  0.7054 -0.3979  0.3557
  141OSM   H17F15422   0.769   6.819   3.596  0.8440  0.3201 -3.2151
  141OSM   H17G15423   0.910   6.923   3.559  0.8289  0.2540  1.6981
  141OSM   C18F15424   0.913   6.835   3.761  0.2128 -0.2178 -0.6883
  141OSM   H18F15425   0.862   6.929   3.790 -1.3838 -1.3632  0.3811
  141OSM   H18G15426   1.023   6.831   3.777  0.2740  2.3434 -0.0481
  141OSM   H18H15427   0.880   6.747   3.820 -1.3292  2.0657  2.0856
  142OSM      N15428   0.745   1.922   1.416 -0.7385  0.6421  0.2703
  142OSM    C1515429   0.603   1.888   1.443 -0.1173  0.2980  0.1451
  142OSM   H15A15430   0.547   1.893   1.350 -0.7905 -0.5850  0.4860
  142OSM   H15B15431   0.557   1.949   1.520 -1.0390  1.1176 -1.0216
  142OSM   H15C15432   0.590   1.790   1.485  2.8600 -0.3131 -0.1462
  142OSM    C1415433   0.800   1.843   1.311  0.3261 -0.3257 -0.7083
  142OSM   H14A15434   0.741   1.847   1.221  0.9441  1.7158 -1.0867
  142OSM   H14B15435   0.809   1.741   1.346 -0.4792  0.0997  0.7890
  142OSM   H14C15436   0.899   1.880   1.288  0.1771  2.6413  2.5977
  142OSM    C1315437   0.759   2.064   1.387 -0.0395 -0.1133  0.3044
  142OSM   H13A15438   0.681   2.085   1.315  1.3857  0.8637 -1.0281
  142OSM   H13B15439   0.852   2.096   1.342 -0.1685  0.3951  0.3957
  142OSM   H13C15440   0.739   2.131   1.469 -0.7616  0.9056 -0.6617
  142OSM    C1215441   0.823   1.891   1.547 -0.1456 -0.4313 -0.4204
  142OSM   H12A15442   0.787   1.959   1.623 -0.4206  1.4017 -2.1147
  142OSM   H12B15443   0.927   1.916   1.534  0.2917 -1.6854  0.4904
  142OSM    C1115444   0.821   1.746   1.604  0.3696 -0.0366 -0.2036
  142OSM   H11A15445   0.713   1.724   1.620  0.6237 -0.4897  1.0031
  142OSM   H11B15446   0.864   1.750   1.706 -0.9195  1.2680  0.3355
  142OSM      P15447   0.881   1.492   1.534 -0.0386 -0.4039  0.0561
  142OSM    O1315448   0.756   1.459   1.460 -0.1878  0.0322 -0.3538
  142OSM    O1415449   1.013   1.436   1.493 -0.0373  0.1195  0.2285
  142OSM    O1115450   0.865   1.486   1.694 -0.5496  0.4425 -0.1307
  142OSM    O1215451   0.885   1.649   1.511 -0.3288  0.8207 -0.3970
  142OSM    C1S15452   0.857   1.351   1.744 -0.2428 -0.9184  0.2188
  142OSM    H1S15453   0.953   1.302   1.716  1.1555  2.0055 -0.4453
  142OSM    H1T15454   0.773   1.297   1.695 -0.1523  0.5893 -1.7331
  142OSM     NF15455   0.809   1.210   1.932 -0.2251  0.2239  0.4166
  142OSM    HNF15456   0.717   1.185   1.960 -0.1551 -0.0953  0.3618
  142OSM    C2S15457   0.837   1.350   1.894 -0.4724 -0.3580 -0.7192
  142OSM    H2S15458   0.925   1.391   1.948  0.3891  0.7403 -2.8479
  142OSM    C3S15459   0.720   1.446   1.928  1.1393  0.1579 -0.6027
  142OSM    H3S15460   0.628   1.428   1.868  0.2376  0.4442  0.6498
  142OSM     O315461   0.748   1.583   1.899  0.1779 -0.0393  0.2780
  142OSM    HO315462   0.812   1.564   1.830  0.0906 -0.0617  0.2025
  142OSM    C4S15463   0.672   1.424   2.072  0.4854  0.5671 -0.1138
  142OSM    H4S15464   0.582   1.362   2.075  1.6947 -1.3309 -1.2984
  142OSM    C5S15465   0.723   1.472   2.185 -0.4133  0.3422 -0.2147
  142OSM    H5S15466   0.803   1.548   2.189  0.5111 -0.4444 -2.3220
  142OSM    C6S15467   0.673   1.449   2.320  0.8186  0.3851 -0.0152
  142OSM    H6S15468   0.621   1.540   2.357  0.4560 -0.1694  0.8779
  142OSM    H6T15469   0.759   1.444   2.389  0.2282  1.1445  0.7949
  142OSM    C7S15470   0.563   1.338   2.355 -0.3211 -0.4449  0.2541
  142OSM    H7S15471   0.591   1.233   2.331 -0.3536 -0.9632  2.3209
  142OSM    H7T15472   0.482   1.362   2.283 -0.5123 -0.2465  0.5342
  142OSM    C8S15473   0.493   1.360   2.495 -0.1782 -0.8018  0.2110
  142OSM    H8S15474   0.409   1.288   2.503  0.7787 -1.8547  1.1024
  142OSM    H8T15475   0.449   1.462   2.497 -1.5258 -1.2108 -3.1067
  142OSM    C9S15476   0.584   1.312   2.610  0.1323  0.1116  0.3342
  142OSM    H9S15477   0.676   1.374   2.605  1.0539 -1.1340  1.2366
  142OSM    H9T15478   0.624   1.210   2.590 -1.5732 -0.6237  0.5330
  142OSM   C10S15479   0.540   1.327   2.758  0.3768 -0.1809  0.3959
  142OSM   H10S15480   0.438   1.284   2.768  0.4673 -0.8465 -1.2380
  142OSM   H10T15481   0.532   1.436   2.772 -0.8425  0.3437 -3.3394
  142OSM   C11S15482   0.639   1.265   2.869 -0.0551  0.1167  0.3704
  142OSM   H11S15483   0.724   1.336   2.867 -1.0525  1.3379 -1.1920
  142OSM   H11T15484   0.678   1.162   2.852 -0.0438  0.2019 -0.1407
  142OSM   C12S15485   0.576   1.276   3.007 -0.3450  0.0647 -0.5838
  142OSM   H12S15486   0.488   1.209   3.010 -0.6136  0.4424  1.4770
  142OSM   H12T15487   0.544   1.380   3.030  0.5680  0.0909  0.7048
  142OSM   C13S15488   0.679   1.238   3.117  0.1654 -1.4402  0.0008
  142OSM   H13S15489   0.761   1.310   3.101  0.6487 -1.8778  0.4809
  142OSM   H13T15490   0.728   1.141   3.092  0.9769 -1.2338  0.7439
  142OSM   C14S15491   0.626   1.237   3.266 -0.4870  0.2158  0.5487
  142OSM   H14S15492   0.541   1.307   3.275 -0.0721  0.6924  0.8002
  142OSM   H14T15493   0.706   1.282   3.329 -1.2038 -0.3679  1.9205
  142OSM   C15S15494   0.594   1.098   3.308  0.0417 -0.2162 -0.1730
  142OSM   H15S15495   0.689   1.044   3.295  0.8859  0.7220  1.7265
  142OSM   H15T15496   0.518   1.061   3.235  1.0640 -3.0718  0.0929
  142OSM   C16S15497   0.577   1.076   3.452  0.2206  0.0468 -0.4685
  142OSM   H16S15498   0.668   1.105   3.508 -0.3765  0.6525  0.2142
  142OSM   H16T15499   0.546   0.977   3.492  0.3113  0.0923 -0.2848
  142OSM   C17S15500   0.462   1.174   3.508 -1.2523  0.8423  0.0291
  142OSM   H17S15501   0.369   1.141   3.457 -1.2029 -0.5925  0.8306
  142OSM   H17T15502   0.487   1.281   3.488 -0.7173  0.7945  0.4179
  142OSM   C18S15503   0.450   1.164   3.657  0.1632 -0.0647 -0.1572
  142OSM   H18S15504   0.376   1.236   3.697  2.0057  0.1154  3.2943
  142OSM   H18T15505   0.543   1.192   3.712  0.0548  1.2015 -0.5702
  142OSM   H18U15506   0.400   1.070   3.687 -0.3162  0.3255  0.2962
  142OSM    C1F15507   0.914   1.119   1.926 -0.3271  1.3746 -0.0120
  142OSM     OF15508   1.026   1.154   1.895  0.7535  0.2094 -0.2750
  142OSM    C2F15509   0.888   0.975   1.955 -0.4766 -0.1104  0.1100
  142OSM    H2F15510   0.861   0.916   1.864  0.7635 -0.5917  0.0330
  142OSM    H2G15511   0.803   0.959   2.026 -0.1262  2.1878  1.1082
  142OSM    C3F15512   1.017   0.910   2.007 -0.4797  0.1467  0.0803
  142OSM    H3F15513   1.099   0.917   1.933 -0.5745  2.9609  0.1144
  142OSM    H3G15514   1.008   0.799   2.014  0.8280 -0.1216 -1.8892
  142OSM    C4F15515   1.079   0.959   2.143 -0.0056  0.5766  0.7076
  142OSM    H4F15516   1.111   1.065   2.131  0.3026  0.5233  1.0332
  142OSM    H4G15517   1.172   0.900   2.160 -1.6082 -2.1700  0.4829
  142OSM    C5F15518   0.985   0.928   2.265  0.3852 -0.3460  0.1429
  142OSM    H5F15519   0.962   0.819   2.260  1.0628 -0.4420 -1.6282
  142OSM    H5G15520   0.887   0.979   2.253 -1.1591 -2.5099  2.4489
  142OSM    C6F15521   1.042   0.977   2.401  1.0007 -0.0918 -0.3825
  142OSM    H6F15522   1.053   1.084   2.374  0.1272  0.1605  0.2063
  142OSM    H6G15523   1.140   0.934   2.430 -1.0905 -2.5157  4.0557
  142OSM    C7F15524   0.950   0.947   2.517  0.2267 -0.0121  0.3735
  142OSM    H7F15525   0.862   1.015   2.520  0.0797 -0.1989  0.2527
  142OSM    H7G15526   1.006   0.967   2.612  1.5704 -1.6242 -0.0374
  142OSM    C8F15527   0.906   0.794   2.522 -0.0703 -0.4111 -0.0898
  142OSM    H8F15528   0.998   0.733   2.520  0.5516  0.5125 -0.1604
  142OSM    H8G15529   0.847   0.766   2.432  1.7869 -1.3771 -1.0492
  142OSM    C9F15530   0.822   0.759   2.640  0.3408  0.2253  0.4307
  142OSM    H9F15531   0.719   0.725   2.622  1.5742 -2.7275 -1.8499
  142OSM   C10F15532   0.866   0.749   2.759  0.4388 -0.2329 -0.0890
  142OSM   H10F15533   0.788   0.702   2.820 -1.4190  1.2647 -1.1927
  142OSM   C11F15534   1.004   0.764   2.808 -0.5634  0.3495  0.4247
  142OSM   H11F15535   0.995   0.854   2.872 -0.1243  0.3025  0.5580
  142OSM   H11G15536   1.068   0.793   2.722 -1.9002 -0.5407 -0.9061
  142OSM   C12F15537   1.073   0.646   2.877  0.3848  0.5844  0.2258
  142OSM   H12F15538   1.177   0.676   2.905  0.9965 -1.0706 -0.1923
  142OSM   H12G15539   1.094   0.560   2.811  1.7076  1.0952 -0.0627
  142OSM   C13F15540   1.005   0.600   3.010  0.9643  0.6158  0.0326
  142OSM   H13F15541   1.041   0.500   3.040 -0.8685 -0.0097  0.3097
  142OSM   H13G15542   0.898   0.585   2.983  1.0598  0.9226 -0.5225
  142OSM   C14F15543   1.031   0.706   3.120  0.3706  0.4119  0.1614
  142OSM   H14F15544   0.981   0.802   3.094 -0.1946 -0.3734 -1.8442
  142OSM   H14G15545   1.138   0.735   3.116  0.7384 -0.9912 -1.0603
  142OSM   C15F15546   0.990   0.660   3.261 -0.2803  1.0793  0.4055
  142OSM   H15F15547   1.047   0.566   3.277  0.2370  1.2852 -0.1726
  142OSM   H15G15548   0.885   0.625   3.258 -1.0348  2.5076  4.2387
  142OSM   C16F15549   1.015   0.753   3.382  0.6544  0.1295  0.1082
  142OSM   H16F15550   0.922   0.812   3.392 -1.0894 -2.2514 -1.1115
  142OSM   H16G15551   1.106   0.814   3.364  1.2807 -0.8411 -0.1020
  142OSM   C17F15552   1.048   0.679   3.513 -0.4691 -0.5646 -0.4621
  142OSM   H17F15553   1.127   0.608   3.480 -0.0980 -0.0835 -0.6272
  142OSM   H17G15554   0.965   0.622   3.560  0.2392 -1.7220 -0.5619
  142OSM   C18F15555   1.109   0.778   3.616 -0.1448  0.5914 -0.4657
  142OSM   H18F15556   1.190   0.841   3.574  2.1157 -2.1546 -0.5444
  142OSM   H18G15557   1.165   0.727   3.698  4.2119  4.8645 -0.2927
  142OSM   H18H15558   1.034   0.848   3.658  2.0817  0.7545  3.7377
  143OSM      N15559   0.874   5.774   1.471 -0.0152 -0.1969  0.4332
  143OSM    C1515560   0.842   5.843   1.338 -0.4741 -0.1087  0.6371
  143OSM   H15A15561   0.848   5.951   1.343 -0.2762  0.0815 -2.2642
  143OSM   H15B15562   0.744   5.820   1.299  1.2791 -2.7894 -2.6569
  143OSM   H15C15563   0.907   5.803   1.262 -1.5305 -1.0147  0.1812
  143OSM    C1415564   0.867   5.633   1.447  0.3577 -0.1534 -0.2964
  143OSM   H14A15565   0.936   5.591   1.376 -2.8141 -1.4844 -2.8647
  143OSM   H14B15566   0.772   5.605   1.403  1.3612 -1.1074 -1.9423
  143OSM   H14C15567   0.879   5.584   1.543 -1.4016 -0.4334 -0.1726
  143OSM    C1315568   1.016   5.816   1.515 -0.8789  0.0612 -0.0854
  143OSM   H13A15569   1.096   5.802   1.443  0.0147  0.6005  0.7743
  143OSM   H13B15570   1.051   5.784   1.612  0.4617 -0.8638 -0.8324
  143OSM   H13C15571   1.019   5.923   1.527  1.6358  0.2589 -1.6128
  143OSM    C1215572   0.779   5.808   1.583  0.2002 -0.1397  0.8520
  143OSM   H12A15573   0.828   5.769   1.671  3.0216 -2.0754 -1.4091
  143OSM   H12B15574   0.695   5.740   1.581 -0.0398  0.1209 -1.9838
  143OSM    C1115575   0.729   5.958   1.601  0.1065 -0.1494 -0.1407
  143OSM   H11A15576   0.818   6.021   1.622  0.3598 -0.3545 -0.5808
  143OSM   H11B15577   0.671   5.955   1.695 -2.1444 -0.1024 -1.4658
  143OSM      P15578   0.645   6.149   1.446  0.1941 -0.2258  0.1812
  143OSM    O1315579   0.762   6.169   1.360 -0.1287 -0.0002  0.3190
  143OSM    O1415580   0.512   6.170   1.388  0.0811 -0.0800  0.1839
  143OSM    O1115581   0.668   6.229   1.587  0.3696  0.4499 -0.0039
  143OSM    O1215582   0.644   5.999   1.498 -0.7155 -0.5084 -0.0299
  143OSM    C1S15583   0.559   6.272   1.665  0.4291 -0.2778 -0.2487
  143OSM    H1S15584   0.463   6.221   1.642 -1.1268  2.2667  0.1670
  143OSM    H1T15585   0.540   6.379   1.639  0.2269 -0.0081  0.9499
  143OSM     NF15586   0.457   6.300   1.891  0.2919  0.5159 -0.4284
  143OSM    HNF15587   0.437   6.393   1.922 -2.1788  0.2535 -0.9671
  143OSM    C2S15588   0.580   6.263   1.821 -0.4435 -0.1300 -0.5114
  143OSM    H2S15589   0.607   6.158   1.846  1.2601  0.8912  2.5368
  143OSM    C3S15590   0.701   6.349   1.858  0.2033 -0.2985 -0.7327
  143OSM    H3S15591   0.690   6.460   1.856  1.9863 -0.0657  0.0695
  143OSM     O315592   0.816   6.341   1.776 -0.9477  0.4482  0.7924
  143OSM    HO315593   0.788   6.291   1.699  0.0397 -1.0583  1.3851
  143OSM    C4S15594   0.736   6.321   1.999 -0.6812  0.4910  0.1421
  143OSM    H4S15595   0.775   6.219   2.017  0.4621  0.4445 -2.2467
  143OSM    C5S15596   0.718   6.398   2.113 -0.3753 -0.0221  0.0740
  143OSM    H5S15597   0.703   6.507   2.103  0.1905 -0.0838 -2.0087
  143OSM    C6S15598   0.754   6.359   2.253 -0.0964  0.8062 -0.2393
  143OSM    H6S15599   0.809   6.442   2.302 -0.7378  1.5660 -0.7791
  143OSM    H6T15600   0.823   6.272   2.259 -1.4958 -0.2974  0.4926
  143OSM    C7S15601   0.636   6.327   2.344 -0.1496 -0.0325  0.0219
  143OSM    H7S15602   0.554   6.272   2.294  1.6713 -1.9188 -1.0180
  143OSM    H7T15603   0.581   6.422   2.364 -1.1233 -0.7807  1.0427
  143OSM    C8S15604   0.672   6.256   2.477  0.5909  0.3755  0.7964
  143OSM    H8S15605   0.743   6.312   2.543  0.7993  0.5621  0.4179
  143OSM    H8T15606   0.717   6.157   2.454  1.1048  1.2331 -2.3633
  143OSM    C9S15607   0.541   6.226   2.545  0.4572 -1.1719  0.3915
  143OSM    H9S15608   0.470   6.173   2.478 -0.1053  0.5567 -0.4476
  143OSM    H9T15609   0.485   6.313   2.586 -3.3034 -2.5883 -1.2156
  143OSM   C10S15610   0.562   6.140   2.673 -0.3833 -0.0738  0.4607
  143OSM   H10S15611   0.590   6.039   2.634 -0.8498  0.3056 -0.9448
  143OSM   H10T15612   0.460   6.108   2.703 -0.4106  0.0819  0.5349
  143OSM   C11S15613   0.642   6.210   2.789  0.6013 -0.2073  0.2913
  143OSM   H11S15614   0.581   6.296   2.821  1.5517  0.5823  0.0173
  143OSM   H11T15615   0.742   6.239   2.752 -0.6644  1.9834 -1.6325
  143OSM   C12S15616   0.668   6.123   2.913 -0.2622  0.2589 -0.8858
  143OSM   H12S15617   0.725   6.191   2.979  1.0789 -1.9894  0.3989
  143OSM   H12T15618   0.725   6.030   2.889  1.6218  1.3624 -0.8865
  143OSM   C13S15619   0.540   6.066   2.986  0.5783 -0.7379 -0.2289
  143OSM   H13S15620   0.487   6.002   2.912 -0.4172 -1.3083  0.9600
  143OSM   H13T15621   0.476   6.151   3.016  1.2469 -0.9166  1.8603
  143OSM   C14S15622   0.562   5.985   3.109  0.1281 -0.0750  0.4977
  143OSM   H14S15623   0.659   6.017   3.153 -0.3303  1.9851  0.1354
  143OSM   H14T15624   0.574   5.876   3.093  0.1423 -0.3352  2.1129
  143OSM   C15S15625   0.458   6.013   3.223  0.3077  0.5092 -0.2952
  143OSM   H15S15626   0.440   6.122   3.237 -0.6301  0.7111 -2.5002
  143OSM   H15T15627   0.494   5.957   3.311 -0.4279 -0.9694 -0.8917
  143OSM   C16S15628   0.317   5.945   3.189 -0.1417 -0.4942  0.3657
  143OSM   H16S15629   0.346   5.845   3.151  0.1833 -0.8675  1.5310
  143OSM   H16T15630   0.261   6.009   3.118 -0.1224  0.2707  1.0193
  143OSM   C17S15631   0.236   5.926   3.315 -0.3533  0.1605  0.0017
  143OSM   H17S15632   0.298   5.861   3.380 -0.2259  0.1225 -0.1548
  143OSM   H17T15633   0.146   5.866   3.289  1.0181 -1.2102 -1.8806
  143OSM   C18S15634   0.189   6.049   3.377 -0.0183 -0.9457 -0.5137
  143OSM   H18S15635   0.115   6.096   3.308 -1.2784 -1.1025  0.6875
  143OSM   H18T15636   0.266   6.118   3.417 -1.6632  0.4996  0.3157
  143OSM   H18U15637   0.136   6.027   3.472  0.8089 -0.6798  0.0193
  143OSM    C1F15638   0.364   6.207   1.889  0.8830 -0.2169 -0.1535
  143OSM     OF15639   0.390   6.094   1.846 -0.3141  0.0774 -0.4237
  143OSM    C2F15640   0.219   6.246   1.937 -0.0245  0.1472  0.3508
  143OSM    H2F15641   0.162   6.279   1.848 -0.9549  0.6129  1.0939
  143OSM    H2G15642   0.213   6.336   2.002 -3.1821  0.4960 -0.2598
  143OSM    C3F15643   0.152   6.140   2.027 -0.6394  0.4966 -0.4919
  143OSM    H3F15644   0.163   6.035   1.992 -0.6326  0.1922  0.3863
  143OSM    H3G15645   0.044   6.159   2.046 -0.1252  1.4689  1.8190
  143OSM    C4F15646   0.208   6.147   2.174  0.5146  0.0208 -0.0851
  143OSM    H4F15647   0.320   6.146   2.175  0.5155 -0.1707 -0.2882
  143OSM    H4G15648   0.177   6.054   2.225  0.0586  1.0141  1.5152
  143OSM    C5F15649   0.143   6.268   2.254  0.8575 -0.0004 -0.1189
  143OSM    H5F15650   0.034   6.280   2.236  0.9790  1.0395 -0.2264
  143OSM    H5G15651   0.184   6.362   2.214  0.7623  0.3953  0.6922
  143OSM    C6F15652   0.172   6.243   2.402  0.1233  0.2908 -0.8408
  143OSM    H6F15653   0.150   6.330   2.468 -2.3335 -1.0239  0.2127
  143OSM    H6G15654   0.279   6.215   2.411 -0.4718 -1.4333  3.2841
  143OSM    C7F15655   0.085   6.126   2.466 -0.2809  0.5601  0.1524
  143OSM    H7F15656   0.127   6.026   2.445  0.6800  0.6529  1.5076
  143OSM    H7G15657  -0.019   6.145   2.430 -0.1693  0.5741 -0.1567
  143OSM    C8F15658   0.081   6.140   2.615  0.6398  0.3890  0.7062
  143OSM    H8F15659   0.036   6.235   2.651 -0.1942  1.8075 -3.5138
  143OSM    H8G15660   0.185   6.117   2.649  0.6139 -0.3714  0.2903
  143OSM    C9F15661  -0.003   6.029   2.676 -0.0883  0.1631 -0.6772
  143OSM    H9F15662  -0.045   5.948   2.614 -2.1085  0.1661  0.6051
  143OSM   C10F15663  -0.047   6.024   2.802 -0.3280 -0.3692  0.0249
  143OSM   H10F15664  -0.096   5.928   2.827  2.3674 -1.5193  1.3882
  143OSM   C11F15665  -0.026   6.116   2.918  0.0863  0.6408  0.1666
  143OSM   H11F15666  -0.019   6.223   2.889 -2.9065  1.0149  0.4926
  143OSM   H11G15667   0.066   6.084   2.972 -0.8482 -0.6945  1.0575
  143OSM   C12F15668  -0.130   6.122   3.032  0.0295 -0.0710 -0.5596
  143OSM   H12F15669  -0.090   6.193   3.106  2.2410 -1.0044 -0.7726
  143OSM   H12G15670  -0.154   6.024   3.079 -3.4444  0.4313 -1.0582
  143OSM   C13F15671  -0.256   6.184   2.978  0.1131  0.2119  0.1928
  143OSM   H13F15672  -0.289   6.118   2.894  1.5803  0.3487 -0.5261
  143OSM   H13G15673  -0.249   6.286   2.934 -1.0531  0.1451 -0.2063
  143OSM   C14F15674  -0.362   6.203   3.096 -0.0600 -0.7109  0.5193
  143OSM   H14F15675  -0.333   6.279   3.172 -0.9325  0.8647 -0.6732
  143OSM   H14G15676  -0.364   6.101   3.141 -2.3017 -0.3386  1.3981
  143OSM   C15F15677  -0.496   6.238   3.040  0.1188 -0.1491  0.1031
  143OSM   H15F15678  -0.518   6.159   2.965 -1.6369  1.4108 -1.1204
  143OSM   H15G15679  -0.492   6.327   2.974  2.0297  0.4607  0.9496
  143OSM   C16F15680  -0.608   6.237   3.149 -0.3664  0.1234  0.0313
  143OSM   H16F15681  -0.651   6.339   3.159 -3.6677 -1.0097 -1.0732
  143OSM   H16G15682  -0.562   6.213   3.247  0.3843  1.9509  0.1632
  143OSM   C17F15683  -0.715   6.138   3.117  0.1159  0.7511  0.2356
  143OSM   H17F15684  -0.671   6.043   3.081  1.3138  1.6414 -0.7162
  143OSM   H17G15685  -0.767   6.178   3.028  0.5198 -0.2051 -0.4522
  143OSM   C18F15686  -0.814   6.116   3.237 -0.0061 -0.8636  0.7350
  143OSM   H18F15687  -0.883   6.202   3.250  1.4543  0.5842 -0.6390
  143OSM   H18G15688  -0.762   6.101   3.334  0.6663  1.0829  0.7150
  143OSM   H18H15689  -0.869   6.021   3.219  1.9683 -2.0312  0.4995
  144OSM      N15690   7.046   6.804   1.528 -0.0204 -0.6038  0.8607
  144OSM    C1515691   7.162   6.715   1.497  0.6628 -0.0870  0.0360
  144OSM   H15A15692   7.160   6.668   1.400 -1.2305  1.5771 -0.7848
  144OSM   H15B15693   7.173   6.633   1.567 -0.0331 -1.6512 -1.5879
  144OSM   H15C15694   7.248   6.779   1.508  0.0501  0.4871  1.7008
  144OSM    C1415695   7.059   6.925   1.444  0.4038  0.0011 -0.0647
  144OSM   H14A15696   7.067   6.894   1.341  3.0393 -2.4160  0.7417
  144OSM   H14B15697   7.155   6.972   1.453  0.1178  0.5372  0.2310
  144OSM   H14C15698   6.977   6.996   1.448  0.1950 -0.1884 -0.7559
  144OSM    C1315699   6.914   6.744   1.493  0.1058 -0.5950  0.0428
  144OSM   H13A15700   6.844   6.815   1.533  1.9565 -0.6068  3.8163
  144OSM   H13B15701   6.899   6.650   1.546 -0.2880  0.6039  2.1925
  144OSM   H13C15702   6.902   6.730   1.387  1.7225  2.1532 -0.5945
  144OSM    C1215703   7.033   6.838   1.677  0.1480 -0.0840  0.3137
  144OSM   H12A15704   7.129   6.881   1.699 -0.4436  1.5286 -0.1452
  144OSM   H12B15705   7.021   6.743   1.727 -0.2996 -1.3760 -2.1100
  144OSM    C1115706   6.918   6.936   1.718 -0.5755  0.6270  0.0713
  144OSM   H11A15707   6.912   6.930   1.829 -2.4349 -0.6114 -0.0526
  144OSM   H11B15708   6.821   6.901   1.676 -0.9691 -0.1665  1.5561
  144OSM      P15709   7.062   7.143   1.761 -0.3888  0.3623 -0.4969
  144OSM    O1315710   7.195   7.084   1.743  0.0611 -0.2968  0.5782
  144OSM    O1415711   7.053   7.287   1.723 -0.1492  0.3471 -0.5597
  144OSM    O1115712   7.019   7.121   1.918  0.1107 -0.2827  0.2917
  144OSM    O1215713   6.958   7.066   1.669  0.9973 -0.1228 -0.0557
  144OSM    C1S15714   6.897   7.185   1.954  0.4349  0.0800 -0.3370
  144OSM    H1S15715   6.818   7.136   1.894  0.1033  0.2434 -0.0383
  144OSM    H1T15716   6.899   7.295   1.936 -0.4536  0.0802 -0.4468
  144OSM     NF15717   6.750   7.237   2.147  0.3331 -0.5642 -0.0400
  144OSM    HNF15718   6.773   7.334   2.153  1.9891 -0.8447 -1.3202
  144OSM    C2S15719   6.865   7.157   2.101  0.4849 -0.7753  0.1826
  144OSM    H2S15720   6.824   7.054   2.091 -0.5322 -0.5234  1.4346
  144OSM    C3S15721   6.988   7.177   2.194  0.0118 -0.1985  0.5387
  144OSM    H3S15722   7.003   7.285   2.216 -1.8822 -0.0082  1.0907
  144OSM     O315723   7.110   7.117   2.163  0.4489  0.6931  0.1150
  144OSM    HO315724   7.092   7.090   2.073  0.3840 -0.6155  0.4995
  144OSM    C4S15725   6.941   7.126   2.331 -0.0273 -0.2253  0.4399
  144OSM    H4S15726   6.942   7.017   2.345 -0.6235 -0.5419 -1.6384
  144OSM    C5S15727   6.925   7.203   2.439 -0.3290 -0.2472  0.4666
  144OSM    H5S15728   6.952   7.310   2.442 -1.2342  0.0301 -0.8583
  144OSM    C6S15729   6.881   7.163   2.582  0.3581 -0.0883 -0.0861
  144OSM    H6S15730   6.858   7.054   2.583  0.4556 -0.1548 -1.7632
  144OSM    H6T15731   6.780   7.206   2.601 -0.9297 -2.5316 -0.9456
  144OSM    C7S15732   6.975   7.176   2.694 -0.6553  0.1157 -0.0127
  144OSM    H7S15733   6.999   7.284   2.695  0.6813 -0.1748  0.9527
  144OSM    H7T15734   7.062   7.108   2.689 -0.8591 -0.1444 -0.0746
  144OSM    C8S15735   6.904   7.145   2.825 -1.1927  0.3940  0.4084
  144OSM    H8S15736   6.856   7.045   2.829 -1.4529  0.4990 -0.0928
  144OSM    H8T15737   6.820   7.216   2.813  0.3608  1.9433 -2.2946
  144OSM    C9S15738   6.991   7.163   2.954  0.1533 -0.6112  0.1003
  144OSM    H9S15739   7.054   7.254   2.965  2.2291 -1.7932 -1.2805
  144OSM    H9T15740   7.062   7.077   2.949  3.0265  1.3907  2.4126
  144OSM   C10S15741   6.905   7.138   3.082  0.1748  0.3685 -0.1926
  144OSM   H10S15742   6.825   7.066   3.056  1.1382 -0.9103  0.3290
  144OSM   H10T15743   6.865   7.240   3.106  1.7661  0.7589  0.9794
  144OSM   C11S15744   6.993   7.096   3.203 -0.2566  0.0533  0.1250
  144OSM   H11S15745   7.075   7.170   3.214  1.9625 -1.9764 -1.7735
  144OSM   H11T15746   7.049   7.005   3.172  1.1278  1.8142 -2.9236
  144OSM   C12S15747   6.919   7.085   3.344  0.8297 -0.4243 -0.0604
  144OSM   H12S15748   6.987   7.033   3.414 -0.0763  2.1093  2.9543
  144OSM   H12T15749   6.835   7.015   3.324 -0.2358  0.8414 -0.1598
  144OSM   C13S15750   6.871   7.223   3.394 -0.7361  0.0615 -0.4586
  144OSM   H13S15751   6.790   7.258   3.327  0.6494  0.8502 -1.7851
  144OSM   H13T15752   6.956   7.294   3.390  0.8755 -1.7783 -0.7382
  144OSM   C14S15753   6.815   7.219   3.535 -0.0027  0.0563 -1.0225
  144OSM   H14S15754   6.783   7.318   3.574  3.2427  1.1903 -0.9045
  144OSM   H14T15755   6.899   7.189   3.600 -1.4041  0.5285  1.0930
  144OSM   C15S15756   6.700   7.117   3.552  0.1701  0.4891 -0.6928
  144OSM   H15S15757   6.739   7.015   3.571 -1.0667 -0.2082 -1.7465
  144OSM   H15T15758   6.640   7.122   3.459  0.0696 -1.9914 -0.8315
  144OSM   C16S15759   6.597   7.156   3.666 -0.7066  0.1406 -0.1234
  144OSM   H16S15760   6.548   7.252   3.637 -0.2778 -0.3183 -2.5729
  144OSM   H16T15761   6.657   7.159   3.759 -0.7812  1.8951 -0.0990
  144OSM   C17S15762   6.486   7.053   3.686  0.4593 -0.0329 -0.1231
  144OSM   H17S15763   6.521   6.948   3.680 -1.9214 -0.8206 -2.2483
  144OSM   H17T15764   6.408   7.063   3.607 -0.3973 -1.9945  0.4197
  144OSM   C18S15765   6.424   7.058   3.823  0.1941  0.2681 -0.9543
  144OSM   H18S15766   6.502   7.043   3.901 -1.1007 -0.7220  0.2076
  144OSM   H18T15767   6.351   6.974   3.830 -0.4478  0.9085  0.4740
  144OSM   H18U15768   6.368   7.153   3.837 -0.2356 -0.2088  1.0551
  144OSM    C1F15769   6.624   7.209   2.117 -0.2575  0.2068  0.6431
  144OSM     OF15770   6.592   7.105   2.053  0.0543 -0.2452 -0.2501
  144OSM    C2F15771   6.525   7.307   2.160 -0.4533 -0.3967  0.6452
  144OSM    H2F15772   6.494   7.365   2.070  1.2611 -0.6452 -0.1477
  144OSM    H2G15773   6.579   7.384   2.219 -0.7784  1.6812 -1.5973
  144OSM    C3F15774   6.400   7.245   2.230  0.1637 -0.3023  0.4606
  144OSM    H3F15775   6.372   7.157   2.169  0.4248  0.0912 -0.2318
  144OSM    H3G15776   6.316   7.318   2.231 -0.0483 -0.4941 -0.9951
  144OSM    C4F15777   6.425   7.203   2.376  0.3827 -0.2718  0.5455
  144OSM    H4F15778   6.527   7.159   2.387  1.0512  0.1029 -3.0338
  144OSM    H4G15779   6.343   7.134   2.406  0.4166 -0.7684 -0.4666
  144OSM    C5F15780   6.433   7.325   2.480 -0.3627  0.0990  0.0515
  144OSM    H5F15781   6.345   7.389   2.461 -1.3252 -0.4280  2.3166
  144OSM    H5G15782   6.530   7.371   2.453 -0.1076 -0.9180 -0.8436
  144OSM    C6F15783   6.425   7.298   2.633  0.2259 -0.7612 -0.2048
  144OSM    H6F15784   6.510   7.232   2.663  2.9065  3.3541  2.4079
  144OSM    H6G15785   6.336   7.239   2.661 -0.2599  1.1032  2.5547
  144OSM    C7F15786   6.445   7.425   2.711 -0.1575 -0.4119 -0.1294
  144OSM    H7F15787   6.366   7.497   2.680  0.7359 -0.1943 -2.0678
  144OSM    H7G15788   6.549   7.458   2.693 -0.5865  1.0696 -0.0209
  144OSM    C8F15789   6.430   7.392   2.867  0.8594  0.1553  0.2149
  144OSM    H8F15790   6.328   7.349   2.861  1.1518 -0.5035 -4.6066
  144OSM    H8G15791   6.426   7.483   2.931 -0.8653 -0.6597  1.3483
  144OSM    C9F15792   6.542   7.317   2.922  0.3159  0.6925 -0.0132
  144OSM    H9F15793   6.630   7.326   2.856  0.0593 -3.1510 -1.1505
  144OSM   C10F15794   6.543   7.253   3.040  0.2155 -0.5815 -0.3578
  144OSM   H10F15795   6.636   7.206   3.077  0.1996  0.1969  0.7383
  144OSM   C11F15796   6.432   7.262   3.145 -0.4284  0.2296  0.3903
  144OSM   H11F15797   6.394   7.159   3.158  2.1346 -1.1326 -1.8129
  144OSM   H11G15798   6.346   7.317   3.102 -1.8554 -2.9550 -1.1038
  144OSM   C12F15799   6.476   7.332   3.281  0.2406  0.0292 -0.3220
  144OSM   H12F15800   6.567   7.286   3.324 -1.4240 -1.3042  2.0297
  144OSM   H12G15801   6.395   7.314   3.354 -0.8918  1.7576 -1.0753
  144OSM   C13F15802   6.486   7.480   3.260  0.5044 -0.3292  0.0178
  144OSM   H13F15803   6.383   7.511   3.232  0.8111  0.3701 -0.3373
  144OSM   H13G15804   6.559   7.485   3.177  1.6432 -1.2978  0.9086
  144OSM   C14F15805   6.529   7.549   3.391 -0.4426 -0.0952  0.4593
  144OSM   H14F15806   6.631   7.509   3.408  0.7436  0.9932 -3.2162
  144OSM   H14G15807   6.465   7.516   3.477 -1.3918 -1.8293 -0.8295
  144OSM   C15F15808   6.508   7.702   3.391 -0.1465  0.2273 -0.3210
  144OSM   H15F15809   6.399   7.716   3.377 -0.1639  0.7403  0.2673
  144OSM   H15G15810   6.569   7.747   3.310  0.4757  0.8894  0.4974
  144OSM   C16F15811   6.537   7.776   3.516  0.8465  0.4985 -0.3621
  144OSM   H16F15812   6.644   7.757   3.539  0.6303 -0.1831  0.1003
  144OSM   H16G15813   6.482   7.733   3.602  0.7963  2.2436  0.5254
  144OSM   C17F15814   6.528   7.931   3.507 -0.4343 -0.5460  0.1104
  144OSM   H17F15815   6.423   7.962   3.529 -0.0950  0.5622  0.2136
  144OSM   H17G15816   6.576   7.980   3.420 -1.8507 -0.1138 -0.4576
  144OSM   C18F15817   6.618   7.982   3.627  0.4459  0.9046 -0.0617
  144OSM   H18F15818   6.574   8.077   3.664 -0.7824 -0.5746  2.5439
  144OSM   H18G15819   6.723   7.994   3.592  1.1569 -0.9123  1.3084
  144OSM   H18H15820   6.609   7.902   3.703  0.5499  0.7259 -0.2370
  145SAPE     N15821   2.249   3.190   6.097 -0.2192 -0.0244  0.1012
  145SAPE   HN115822   2.335   3.233   6.136 -1.4152  1.5313  1.1124
  145SAPE   HN215823   2.214   3.107   6.149  1.5554  0.0242  1.4707
  145SAPE   HN315824   2.282   3.150   6.007 -1.9302  0.1136 -0.6151
  145SAPE   C1215825   2.141   3.297   6.065 -0.3900  0.8522  0.5951
  145SAPE  H12A15826   2.174   3.362   5.981  0.6804  0.8196  0.9761
  145SAPE  H12B15827   2.117   3.356   6.157  0.0483  2.3782 -0.2349
  145SAPE   C1115828   2.013   3.229   6.015 -0.0493  0.2399  0.0832
  145SAPE  H11A15829   1.947   3.304   5.966 -0.0386  0.2701  0.1153
  145SAPE  H11B15830   1.962   3.186   6.104  0.2033 -1.5073 -0.5779
  145SAPE     P15831   1.968   2.999   5.914 -0.5404  0.2252 -0.4055
  145SAPE   O1315832   2.006   2.922   6.035 -0.0791  0.2622 -0.4245
  145SAPE   O1415833   1.826   3.028   5.906 -0.3592 -0.0108  0.7149
  145SAPE   O1215834   2.048   3.133   5.915 -0.2632  0.7714  0.6291
  145SAPE   O1115835   2.015   2.916   5.794 -0.4061 -0.3918  0.5189
  145SAPE    C115836   2.098   2.982   5.698  0.2344 -0.0849 -0.1515
  145SAPE    HA15837   2.192   3.015   5.746  0.6388  0.2033 -1.1081
  145SAPE    HB15838   2.139   2.908   5.625  0.9104 -0.7421  0.8773
  145SAPE    C215839   2.021   3.101   5.619  0.8194  0.8905 -0.4457
  145SAPE    HS15840   1.965   3.160   5.694 -0.5094 -1.0968  0.2038
  145SAPE   O2115841   1.923   3.042   5.530 -0.4352 -0.6351 -0.4144
  145SAPE   C2115842   1.841   3.120   5.468  0.2636  0.8553  0.9057
  145SAPE   O2215843   1.817   3.232   5.504  0.2486 -0.2613  0.1530
  145SAPE   C2215844   1.775   3.044   5.346 -0.6290  0.2128 -0.9068
  145SAPE   H2R15845   1.858   3.010   5.280  0.1959 -1.5468  0.9400
  145SAPE   H2S15846   1.722   2.953   5.380 -0.9304 -0.3294 -2.7050
  145SAPE    C315847   2.117   3.182   5.541 -0.9427  0.1080 -1.1376
  145SAPE    HX15848   2.212   3.189   5.600 -0.0989 -0.4317 -2.3975
  145SAPE    HY15849   2.073   3.284   5.537 -0.1444  0.4501 -1.5629
  145SAPE   O3115850   2.137   3.132   5.405 -0.2850 -0.4408 -0.0952
  145SAPE   C3115851   2.259   3.081   5.390 -0.3242 -0.7443  0.3881
  145SAPE   O3215852   2.347   3.058   5.471  0.6684  0.4185 -0.6648
  145SAPE   C3215853   2.279   3.058   5.239  0.5733 -0.3186 -0.1124
  145SAPE   H2X15854   2.384   3.077   5.206  0.8689 -0.9815  0.4169
  145SAPE   H2Y15855   2.206   3.116   5.179  0.7609  0.0248 -0.0088
  145SAPE   C2315856   1.677   3.124   5.266  0.8697  1.1008  0.1248
  145SAPE   H3R15857   1.645   3.071   5.173  0.0220  0.5955  0.6840
  145SAPE   H3S15858   1.724   3.221   5.242 -0.1891  1.9768  1.4569
  145SAPE   C2415859   1.547   3.150   5.342 -0.0439 -0.8408 -0.0404
  145SAPE   H4R15860   1.481   3.218   5.284  0.2968 -0.9633 -0.5723
  145SAPE   H4S15861   1.576   3.200   5.437 -2.2208  0.1412  0.1734
  145SAPE   C2515862   1.469   3.021   5.376  0.2769  0.0249 -0.5458
  145SAPE   H5R15863   1.493   2.975   5.473  3.2636  3.5939  0.6320
  145SAPE   C2615864   1.377   2.970   5.294 -0.0194 -0.4423  0.3086
  145SAPE   H6R15865   1.334   2.873   5.323 -1.0227 -0.1307 -0.1005
  145SAPE   C2715866   1.335   3.017   5.155  0.1116  0.5702  0.9815
  145SAPE   H7R15867   1.395   3.101   5.114  0.2569  0.5555  1.1612
  145SAPE   H7S15868   1.229   3.053   5.154 -0.5480 -1.2813  0.7510
  145SAPE   C2815869   1.363   2.896   5.067  0.0631  0.1234 -0.3990
  145SAPE   H8R15870   1.464   2.856   5.083 -0.0107 -0.6306 -1.6798
  145SAPE   C2915871   1.280   2.841   4.973  0.0501  1.0333  0.6130
  145SAPE   H9R15872   1.327   2.766   4.907  1.3225 -0.0613  2.6694
  145SAPE  C21015873   1.156   2.912   4.928 -0.7879  0.1865 -0.8764
  145SAPE  H10R15874   1.193   2.991   4.859  1.4064 -0.4905 -0.5437
  145SAPE  H10S15875   1.109   2.959   5.016  0.6940 -0.5788  0.3589
  145SAPE  C21115876   1.058   2.817   4.862  0.2884 -0.0182 -0.9732
  145SAPE  H11R15877   1.023   2.733   4.925 -0.0256  1.1933  0.5202
  145SAPE  C21215878   1.018   2.811   4.733  0.6375 -0.4701 -0.0846
  145SAPE  H12R15879   0.958   2.720   4.716  1.1672 -1.1032  1.2200
  145SAPE  C21315880   1.040   2.918   4.628  0.2213  0.6658  0.0104
  145SAPE  H13R15881   1.141   2.965   4.634  0.0875  1.8676 -4.1234
  145SAPE  H13S15882   0.966   2.998   4.653 -2.8476 -1.4012 -1.7610
  145SAPE  C21415883   1.023   2.866   4.487 -0.4813 -0.2253 -0.4913
  145SAPE  H14R15884   1.096   2.789   4.457  1.3375  0.7580  1.2627
  145SAPE  C21515885   0.958   2.927   4.392  0.3811 -0.1033 -0.1260
  145SAPE  H15R15886   0.941   2.873   4.297 -1.6794  2.8824 -1.6365
  145SAPE  C21615887   0.882   3.056   4.394  0.5057 -0.3952 -0.4701
  145SAPE  H16R15888   0.886   3.104   4.495  0.6601 -0.6494 -0.3561
  145SAPE  H16S15889   0.772   3.040   4.384  0.1552  2.4485 -2.4727
  145SAPE  C21715890   0.924   3.145   4.279 -0.3040 -0.3781  0.1241
  145SAPE  H17R15891   1.017   3.201   4.306 -0.7452  0.5322 -0.1909
  145SAPE  H17S15892   0.853   3.230   4.271 -1.6033 -1.5268 -0.9843
  145SAPE  C21815893   0.940   3.083   4.137  0.2202  0.2403 -0.1131
  145SAPE  H18R15894   0.853   3.019   4.114  0.8833 -0.0528 -1.9578
  145SAPE  H18S15895   1.031   3.020   4.131 -1.2472 -1.9273 -0.7796
  145SAPE  C21915896   0.959   3.193   4.036  1.0146  0.2242  0.0027
  145SAPE  H19R15897   1.058   3.244   4.047  2.7604 -2.4909 -1.8538
  145SAPE  H19S15898   0.888   3.274   4.062  1.4347  0.2752  1.0596
  145SAPE  C22015899   0.953   3.131   3.896 -0.3246  0.5684  0.0657
  145SAPE  H20R15900   1.029   3.054   3.873  0.4166  1.6289 -1.1654
  145SAPE  H20S15901   0.964   3.207   3.816  1.8193 -0.1811 -0.3964
  145SAPE  H20T15902   0.858   3.074   3.887  1.3618 -2.2513 -0.9159
  145SAPE   C3315903   2.247   2.909   5.204  0.0222 -0.4615 -0.3653
  145SAPE   H3X15904   2.150   2.878   5.248  0.0697 -1.7939 -1.1559
  145SAPE   H3Y15905   2.324   2.845   5.253  1.5051  0.7062 -1.0947
  145SAPE   C3415906   2.249   2.881   5.056  0.3185  0.5129 -0.0003
  145SAPE   H4X15907   2.345   2.907   5.006  1.3747 -2.5272  0.2687
  145SAPE   H4Y15908   2.176   2.942   4.999  0.0798 -0.0332 -0.2828
  145SAPE   C3515909   2.220   2.736   5.027  0.3374  0.5367 -0.2210
  145SAPE   H5X15910   2.114   2.721   5.060 -0.1626 -1.3336 -2.4413
  145SAPE   H5Y15911   2.288   2.674   5.089  1.1779 -1.1814 -2.7347
  145SAPE   C3615912   2.229   2.687   4.888 -0.1744  0.8567  0.0868
  145SAPE   H6X15913   2.143   2.618   4.877  0.0356  0.7058 -0.6732
  145SAPE   H6Y15914   2.321   2.624   4.880 -0.3589  0.6137 -0.1192
  145SAPE   C3715915   2.225   2.793   4.773 -0.2998  0.2194  0.7351
  145SAPE   H7X15916   2.302   2.868   4.801  0.0280  1.1139 -2.2077
  145SAPE   H7Y15917   2.128   2.848   4.770 -0.3006  0.2057 -1.9555
  145SAPE   C3815918   2.252   2.750   4.630  0.3431 -0.1240  0.7760
  145SAPE   H8X15919   2.355   2.708   4.634  0.3387 -0.1161  0.9811
  145SAPE   H8Y15920   2.260   2.839   4.564  1.8403 -1.3361 -0.8011
  145SAPE   C3915921   2.160   2.646   4.569  1.1676  0.6032  0.4866
  145SAPE   H9X15922   2.119   2.599   4.661 -0.8165  3.1611  1.0273
  145SAPE   H9Y15923   2.221   2.575   4.509 -0.5072 -1.9496  1.5942
  145SAPE  C31015924   2.029   2.712   4.508 -0.7346 -0.5700  0.0393
  145SAPE  H10X15925   2.062   2.797   4.443 -1.8957  0.6750  1.0153
  145SAPE  H10Y15926   1.976   2.763   4.591 -0.7450  1.8215 -1.3442
  145SAPE  C31115927   1.943   2.617   4.422  0.5102  0.2077  0.5018
  145SAPE  H11X15928   1.895   2.534   4.479  1.3375  0.4179  1.5253
  145SAPE  H11Y15929   2.013   2.571   4.350  0.2289  1.6432 -0.7487
  145SAPE  C31215930   1.836   2.698   4.339 -0.8790 -0.3133 -0.4592
  145SAPE  H12X15931   1.784   2.621   4.278 -1.1212 -0.6515  0.1676
  145SAPE  H12Y15932   1.895   2.763   4.272  1.5939 -0.1234  1.7426
  145SAPE  C31315933   1.749   2.775   4.435  0.4363 -0.9287 -0.0159
  145SAPE  H13X15934   1.814   2.847   4.488 -1.7251  0.5104  0.8168
  145SAPE  H13Y15935   1.692   2.708   4.504 -2.4541  0.9586 -0.3901
  145SAPE  C31415936   1.637   2.859   4.366  0.4601  0.4539  0.4809
  145SAPE  H14X15937   1.571   2.812   4.291  1.0747  2.3228 -1.3377
  145SAPE  H14Y15938   1.688   2.945   4.316  1.2903  0.6720  1.6583
  145SAPE  C31515939   1.529   2.917   4.462  0.0684 -0.1500  0.0532
  145SAPE  H15X15940   1.591   2.982   4.528 -1.8660  0.3263  1.4809
  145SAPE  H15Y15941   1.484   2.836   4.523  1.5787 -0.8195  0.3169
  145SAPE  C31615942   1.414   2.988   4.387 -0.5619 -0.3175 -0.1599
  145SAPE  H16X15943   1.340   3.037   4.453 -1.2121 -0.9595 -0.3937
  145SAPE  H16Y15944   1.359   2.914   4.324 -0.6346 -1.0808  0.7725
  145SAPE  C31715945   1.467   3.095   4.285 -0.3330  0.4222  1.1192
  145SAPE  H17X15946   1.529   3.044   4.208 -1.7320  1.1336 -0.5585
  145SAPE  H17Y15947   1.537   3.163   4.339 -1.0740  1.8947  0.3075
  145SAPE  C31815948   1.354   3.190   4.236 -0.0960 -0.8614  0.1303
  145SAPE  H18X15949   1.298   3.224   4.325  1.4722 -2.6687  1.8871
  145SAPE  H18Y15950   1.281   3.132   4.175 -1.2001  0.7082 -0.1055
  145SAPE  H18Z15951   1.397   3.270   4.172  0.3010 -3.0465 -2.5357
  146SAPE     N15952   4.463   2.561   6.190 -0.5920 -0.8344  0.3831
  146SAPE   HN115953   4.541   2.535   6.126  1.7702 -1.0057  3.0844
  146SAPE   HN215954   4.408   2.628   6.133  1.0705 -1.0186 -1.5761
  146SAPE   HN315955   4.497   2.614   6.273 -1.9290  2.1143 -0.8325
  146SAPE   C1215956   4.386   2.434   6.214  0.1914  0.1011 -0.2931
  146SAPE  H12A15957   4.332   2.414   6.120 -0.3843  3.2495 -0.7169
  146SAPE  H12B15958   4.324   2.444   6.306  1.5940 -0.8307  0.8138
  146SAPE   C1115959   4.486   2.323   6.238 -0.5809 -0.4229  0.2250
  146SAPE  H11A15960   4.534   2.282   6.146  0.7263  0.9778  0.2411
  146SAPE  H11B15961   4.420   2.240   6.271 -0.5805 -0.6227 -0.2647
  146SAPE     P15962   4.695   2.240   6.368 -0.6500 -0.2882 -0.1838
  146SAPE   O1315963   4.799   2.307   6.449  0.9262  0.3900 -1.0440
  146SAPE   O1415964   4.628   2.120   6.424  0.1957 -0.0867  0.5251
  146SAPE   O1215965   4.581   2.344   6.336 -0.1599  1.1372 -0.7750
  146SAPE   O1115966   4.752   2.219   6.224  0.1684  0.3873  0.1903
  146SAPE    C115967   4.804   2.322   6.147  0.0893  0.3199  0.2327
  146SAPE    HA15968   4.795   2.302   6.038 -2.3970  0.1011  0.4054
  146SAPE    HB15969   4.769   2.424   6.169  1.4364  1.0502 -0.8395
  146SAPE    C215970   4.958   2.333   6.166  0.2432  0.7359 -1.0339
  146SAPE    HS15971   4.957   2.379   6.267 -2.6095  0.5800 -0.9036
  146SAPE   O2115972   5.019   2.419   6.062 -0.6900  0.3195 -0.5795
  146SAPE   C2115973   5.097   2.513   6.111  0.9530  0.9460 -0.1999
  146SAPE   O2215974   5.107   2.543   6.228  0.3883 -0.7941  0.2684
  146SAPE   C2215975   5.152   2.586   5.993 -1.0064 -0.0086  0.5211
  146SAPE   H2R15976   5.133   2.695   5.997  2.7924  0.8871 -1.1161
  146SAPE   H2S15977   5.262   2.578   6.003 -1.1486 -1.0750  1.4147
  146SAPE    C315978   5.028   2.198   6.160 -0.3737  0.4253  0.1578
  146SAPE    HX15979   4.997   2.134   6.245 -1.6502  1.2072  0.3160
  146SAPE    HY15980   5.139   2.208   6.158  0.0391 -2.7673  1.4205
  146SAPE   O3115981   4.987   2.131   6.042 -0.0054  0.2877 -0.1088
  146SAPE   C3115982   5.071   2.040   5.994  0.4185  1.0901 -0.0201
  146SAPE   O3215983   5.175   2.013   6.047 -0.2120  0.0832 -0.1780
  146SAPE   C3215984   5.009   1.955   5.875 -0.5945 -0.1952  0.2063
  146SAPE   H2X15985   4.899   1.949   5.891 -1.1204  1.8728 -2.0522
  146SAPE   H2Y15986   5.042   1.851   5.896 -0.7008 -0.7868 -2.2777
  146SAPE   C2315987   5.136   2.523   5.845 -0.2493  0.1971  0.4513
  146SAPE   H3R15988   5.041   2.568   5.810 -0.3586  1.0570  1.8197
  146SAPE   H3S15989   5.118   2.413   5.844  0.5424  0.0539 -0.7385
  146SAPE   C2415990   5.246   2.571   5.747 -1.0066 -0.8138  0.2633
  146SAPE   H4R15991   5.264   2.681   5.757  1.9186 -1.2508  0.5775
  146SAPE   H4S15992   5.204   2.550   5.647 -1.8772  1.7836 -0.0145
  146SAPE   C2515993   5.378   2.506   5.760  0.0256  1.1054  0.2485
  146SAPE   H5R15994   5.400   2.460   5.857 -1.4125  0.0664  0.1170
  146SAPE   C2615995   5.469   2.523   5.666  0.4915  0.1000  0.5249
  146SAPE   H6R15996   5.569   2.481   5.683  0.7605 -0.2471 -1.5614
  146SAPE   C2715997   5.454   2.597   5.529  0.5454  0.6799  0.1656
  146SAPE   H7R15998   5.376   2.553   5.464  1.7557 -0.2467 -0.7160
  146SAPE   H7S15999   5.552   2.576   5.481 -0.2600  0.5252 -1.4754
  146SAPE   C2816000   5.432   2.742   5.536 -0.3178  0.2886  0.0717
  146SAPE   H8R16001   5.378   2.785   5.622 -0.1013  2.8902 -1.0051
  146SAPE   C2916002   5.459   2.828   5.435 -0.2084 -0.2674  0.7832
  146SAPE   H9R16003   5.451   2.936   5.456  0.6648 -0.4752  2.3387
  146SAPE  C21016004   5.516   2.796   5.303 -0.9566 -0.5936 -0.7294
  146SAPE  H10R16005   5.525   2.686   5.287  2.2855 -0.6370  0.7100
  146SAPE  H10S16006   5.617   2.841   5.310 -2.2277  2.2665  1.2910
  146SAPE  C21116007   5.437   2.856   5.192 -0.3503 -0.2608 -0.2154
  146SAPE  H11R16008   5.356   2.924   5.222 -0.8559 -1.1920  0.6291
  146SAPE  C21216009   5.461   2.834   5.063 -0.1239  0.7996 -0.2262
  146SAPE  H12R16010   5.399   2.881   4.986  0.0845  1.5837  0.0806
  146SAPE  C21316011   5.571   2.753   5.008  0.5712 -0.4028 -0.2124
  146SAPE  H13R16012   5.527   2.663   4.962 -1.3730  0.4212 -0.0502
  146SAPE  H13S16013   5.637   2.703   5.082 -1.5579 -2.3918  0.4220
  146SAPE  C21416014   5.657   2.840   4.917 -0.1067 -0.3814 -0.2535
  146SAPE  H14R16015   5.753   2.875   4.956 -0.2264  1.2767 -1.3236
  146SAPE  C21516016   5.628   2.883   4.789 -0.4040  0.0205 -0.0963
  146SAPE  H15R16017   5.708   2.936   4.736 -0.2511  0.6264  0.7141
  146SAPE  C21616018   5.517   2.829   4.705 -0.3616 -0.6607 -0.1054
  146SAPE  H16R16019   5.437   2.905   4.721  1.5821  1.9360 -1.8950
  146SAPE  H16S16020   5.481   2.731   4.741 -1.3142  0.4977  2.3548
  146SAPE  C21716021   5.549   2.820   4.560 -0.0931  0.7325  0.2770
  146SAPE  H17R16022   5.639   2.756   4.545 -1.6639 -1.0035 -2.5967
  146SAPE  H17S16023   5.581   2.921   4.526 -0.2692  0.2398 -1.4623
  146SAPE  C21816024   5.436   2.769   4.468  0.0271 -0.4217 -0.0447
  146SAPE  H18R16025   5.360   2.849   4.460  1.6065  1.4849  2.4209
  146SAPE  H18S16026   5.382   2.681   4.508 -1.6670  0.2572 -0.7876
  146SAPE  C21916027   5.484   2.740   4.320 -0.4276 -0.0110 -0.1818
  146SAPE  H19R16028   5.550   2.651   4.315  3.1877  2.4219  0.6717
  146SAPE  H19S16029   5.536   2.830   4.282  0.6960 -1.0311 -1.1406
  146SAPE  C22016030   5.360   2.711   4.223  0.1500  0.5193 -0.5393
  146SAPE  H20R16031   5.398   2.724   4.120 -1.6485 -2.3710 -1.7036
  146SAPE  H20S16032   5.273   2.779   4.231 -0.6056 -0.5340  0.6545
  146SAPE  H20T16033   5.323   2.606   4.222 -0.2725  0.6654 -1.8836
  146SAPE   C3316034   5.043   2.004   5.732  0.0167 -0.1471 -0.0717
  146SAPE   H3X16035   4.995   1.942   5.653 -0.1761  0.7425 -0.6677
  146SAPE   H3Y16036   5.153   1.986   5.723  0.3828  2.0982 -0.7715
  146SAPE   C3416037   4.989   2.151   5.710  0.1234  0.5340 -0.4330
  146SAPE   H4X16038   5.014   2.220   5.794  0.7074  0.3028 -0.4066
  146SAPE   H4Y16039   4.879   2.142   5.717  0.2614 -0.2509  1.4463
  146SAPE   C3516040   5.034   2.214   5.575  0.2204 -0.9086 -0.3767
  146SAPE   H5X16041   5.032   2.132   5.499  3.2209 -2.4723  1.0415
  146SAPE   H5Y16042   5.140   2.241   5.587  0.0299 -0.3125 -0.0074
  146SAPE   C3616043   4.969   2.341   5.539  0.1552  0.0437 -0.0117
  146SAPE   H6X16044   5.012   2.428   5.592  1.6188 -1.7984  2.0400
  146SAPE   H6Y16045   4.861   2.325   5.560  0.5354 -1.3028  1.1428
  146SAPE   C3716046   4.982   2.373   5.391  0.0841  0.7018 -0.4324
  146SAPE   H7X16047   4.976   2.277   5.336  1.9370 -0.3808  1.1377
  146SAPE   H7Y16048   5.077   2.426   5.367  0.3815 -0.0862 -1.0298
  146SAPE   C3816049   4.870   2.460   5.335  0.5099  0.0583 -0.0093
  146SAPE   H8X16050   4.894   2.566   5.359  4.7035 -0.0552 -2.7004
  146SAPE   H8Y16051   4.771   2.428   5.374  0.5681  2.0276  2.0004
  146SAPE   C3916052   4.870   2.459   5.179  0.5390  0.2607  0.0022
  146SAPE   H9X16053   4.861   2.350   5.162  0.3529  0.6625 -2.9505
  146SAPE   H9Y16054   4.971   2.489   5.146  0.9038  1.8323  2.3212
  146SAPE  C31016055   4.752   2.543   5.114  0.0118 -0.1497 -0.5218
  146SAPE  H10X16056   4.658   2.502   5.156  0.7680 -1.0849  0.2778
  146SAPE  H10Y16057   4.759   2.514   5.007  0.6654 -2.0927  0.0098
  146SAPE  C31116058   4.761   2.694   5.134 -0.3852  0.4518 -0.1809
  146SAPE  H11X16059   4.854   2.723   5.082  1.2884 -1.2574  1.6413
  146SAPE  H11Y16060   4.774   2.724   5.241  0.7216  1.8229 -0.6699
  146SAPE  C31216061   4.634   2.771   5.093  0.3840 -0.0933 -0.2660
  146SAPE  H12X16062   4.616   2.858   5.159 -2.9174 -1.0001  0.1672
  146SAPE  H12Y16063   4.552   2.697   5.101 -0.0440  0.4099  0.0659
  146SAPE  C31316064   4.617   2.818   4.950  0.3054 -0.0285 -0.0770
  146SAPE  H13X16065   4.709   2.869   4.916  0.3747 -1.8959 -3.0201
  146SAPE  H13Y16066   4.542   2.900   4.950 -0.8865 -1.0684  0.9793
  146SAPE  C31416067   4.595   2.709   4.833 -0.0424  0.2730 -1.5825
  146SAPE  H14X16068   4.574   2.605   4.867  1.2072  0.2659 -0.7803
  146SAPE  H14Y16069   4.695   2.692   4.788  0.4253 -0.0074 -0.4901
  146SAPE  C31516070   4.514   2.743   4.713 -0.3070 -0.5747  0.1037
  146SAPE  H15X16071   4.555   2.842   4.684  1.0138 -1.1662 -0.0943
  146SAPE  H15Y16072   4.408   2.750   4.747 -0.5558 -3.7306  0.2456
  146SAPE  C31616073   4.531   2.644   4.591 -0.1815 -0.1243  0.4143
  146SAPE  H16X16074   4.443   2.666   4.526 -0.1361  0.0341  0.4061
  146SAPE  H16Y16075   4.518   2.538   4.620  1.4454 -0.3899  0.2604
  146SAPE  C31716076   4.656   2.659   4.502  0.0587  0.2881  0.0961
  146SAPE  H17X16077   4.733   2.611   4.566 -0.2797 -0.1107  0.2111
  146SAPE  H17Y16078   4.673   2.764   4.471  1.1653  0.1453  0.1678
  146SAPE  C31816079   4.658   2.563   4.382 -0.7925  0.8872  0.5551
  146SAPE  H18X16080   4.761   2.569   4.339 -0.9663  0.6749  0.0999
  146SAPE  H18Y16081   4.575   2.576   4.310 -1.0059 -0.8472  0.4281
  146SAPE  H18Z16082   4.648   2.458   4.418  1.2748  0.1507 -0.8232
  147SAPE     N16083   3.835   5.586   6.229  0.2909 -0.3393 -0.0720
  147SAPE   HN116084   3.893   5.558   6.147 -1.1259 -1.8940 -0.6133
  147SAPE   HN216085   3.904   5.640   6.285  0.4209  1.1832 -1.6132
  147SAPE   HN316086   3.807   5.503   6.284 -1.4107 -0.7198 -1.4084
  147SAPE   C1216087   3.718   5.668   6.191 -0.3885 -0.3234  0.0964
  147SAPE  H12A16088   3.758   5.770   6.175  0.3322 -0.6928 -0.5451
  147SAPE  H12B16089   3.637   5.650   6.266  1.0921 -0.8790  1.6314
  147SAPE   C1116090   3.677   5.634   6.044  0.0226  0.3832 -0.0184
  147SAPE  H11A16091   3.666   5.524   6.033 -0.1959  0.2875  1.0408
  147SAPE  H11B16092   3.754   5.664   5.969  0.0094 -1.5578 -0.8646
  147SAPE     P16093   3.418   5.631   6.055  0.2947  0.0270 -0.0542
  147SAPE   O1316094   3.433   5.578   6.190  0.0741 -0.2917 -0.0828
  147SAPE   O1416095   3.315   5.733   6.018 -0.3819  0.1441 -0.5875
  147SAPE   O1216096   3.557   5.701   6.021 -0.2532 -0.0104 -0.2820
  147SAPE   O1116097   3.416   5.508   5.955 -0.0460  0.4041 -0.6152
  147SAPE    C116098   3.456   5.538   5.819  0.1341 -0.0425 -0.5497
  147SAPE    HA16099   3.441   5.643   5.787 -1.3891  0.6867  2.2568
  147SAPE    HB16100   3.561   5.507   5.798  0.1114 -0.2944 -0.2946
  147SAPE    C216101   3.375   5.457   5.719  0.2612  0.0245  0.4689
  147SAPE    HS16102   3.392   5.347   5.731  0.9207  0.2239  1.5393
  147SAPE   O2116103   3.427   5.505   5.590  0.2660 -0.2267  0.0280
  147SAPE   C2116104   3.417   5.430   5.484 -0.9892  0.5825 -0.0528
  147SAPE   O2216105   3.409   5.305   5.480  0.1124 -0.1735  0.3108
  147SAPE   C2216106   3.418   5.521   5.361 -0.7489 -0.4533 -0.7030
  147SAPE   H2R16107   3.318   5.569   5.347 -0.2797  0.3683 -1.3649
  147SAPE   H2S16108   3.481   5.606   5.396  0.3448 -1.6723  0.3549
  147SAPE    C316109   3.224   5.485   5.730  0.2864 -0.6684  0.0936
  147SAPE    HX16110   3.210   5.594   5.717  0.9756 -0.6061 -0.1167
  147SAPE    HY16111   3.186   5.466   5.833  0.7672 -1.1547  0.1846
  147SAPE   O3116112   3.145   5.414   5.632 -0.3476  0.4821  0.6184
  147SAPE   C3116113   3.017   5.443   5.620  0.5869 -0.0582  0.5410
  147SAPE   O3216114   2.956   5.523   5.692  0.4302  0.2295 -0.1414
  147SAPE   C3216115   2.970   5.372   5.497 -0.3166  0.3362 -0.1469
  147SAPE   H2X16116   2.860   5.368   5.512  0.0154  1.2706  3.3815
  147SAPE   H2Y16117   2.998   5.265   5.498 -2.8049 -0.3987 -1.0982
  147SAPE   C2316118   3.476   5.454   5.233 -0.7202  0.5126  0.4183
  147SAPE   H3R16119   3.420   5.359   5.225  0.0482 -0.0279  1.2455
  147SAPE   H3S16120   3.585   5.436   5.243 -0.4049  2.4314  0.9025
  147SAPE   C2416121   3.450   5.546   5.107 -0.0045 -0.4609 -0.0049
  147SAPE   H4R16122   3.515   5.635   5.106 -0.4789 -0.1136 -0.5611
  147SAPE   H4S16123   3.347   5.587   5.116  0.6367  1.0056  0.8633
  147SAPE   C2516124   3.461   5.477   4.976 -0.3981  0.3571 -0.3036
  147SAPE   H5R16125   3.477   5.371   4.997  1.2484  1.3736  5.1106
  147SAPE   C2616126   3.443   5.515   4.848 -0.0293 -0.4815 -0.6963
  147SAPE   H6R16127   3.472   5.443   4.770  2.7621  0.2495 -0.4479
  147SAPE   C2716128   3.423   5.656   4.810 -0.1672  0.9860  0.0029
  147SAPE   H7R16129   3.510   5.690   4.750  0.7689  0.6254  1.1235
  147SAPE   H7S16130   3.420   5.725   4.898  1.8018  0.8798  0.1974
  147SAPE   C2816131   3.304   5.679   4.713  0.1463 -0.6130  0.4477
  147SAPE   H8R16132   3.294   5.594   4.644  1.2831  1.9689 -3.2179
  147SAPE   C2916133   3.212   5.781   4.710 -0.0267  0.1319  0.6382
  147SAPE   H9R16134   3.131   5.778   4.636  0.0172 -0.4315  0.6024
  147SAPE  C21016135   3.199   5.896   4.807 -0.1697  0.2186 -0.3151
  147SAPE  H10R16136   3.257   5.867   4.897  0.4928  0.1032 -0.7791
  147SAPE  H10S16137   3.097   5.896   4.852 -0.5573 -1.6641 -1.0806
  147SAPE  C21116138   3.258   6.030   4.762 -0.0938  0.3923  0.4505
  147SAPE  H11R16139   3.340   6.006   4.693 -2.3733  1.4609 -2.8947
  147SAPE  C21216140   3.225   6.159   4.799  0.1549  0.5353 -0.1055
  147SAPE  H12R16141   3.298   6.237   4.771 -1.3562  2.0188 -0.1027
  147SAPE  C21316142   3.124   6.205   4.899 -0.1668 -0.3960  0.4730
  147SAPE  H13R16143   3.108   6.116   4.963  1.1890 -0.3519  0.8823
  147SAPE  H13S16144   3.026   6.222   4.848  0.9793 -1.0497 -2.1175
  147SAPE  C21416145   3.156   6.329   4.978 -0.4457  0.9675 -1.0075
  147SAPE  H14R16146   3.197   6.413   4.921  1.3406 -0.5096 -2.0087
  147SAPE  C21516147   3.119   6.355   5.103  0.6117 -0.2146  0.6493
  147SAPE  H15R16148   3.157   6.438   5.164 -1.3406  0.9155  0.4450
  147SAPE  C21616149   3.050   6.253   5.196 -0.2487 -0.0631 -0.4385
  147SAPE  H16R16150   2.995   6.178   5.135  0.0800  0.7579 -1.7801
  147SAPE  H16S16151   2.983   6.300   5.271 -0.4804 -2.4056  0.9209
  147SAPE  C21716152   3.163   6.172   5.272 -0.3550 -0.3852 -0.5952
  147SAPE  H17R16153   3.210   6.217   5.362 -3.1967  0.2950  0.6467
  147SAPE  H17S16154   3.245   6.144   5.202  0.9290  2.3128 -0.3092
  147SAPE  C21816155   3.108   6.036   5.320  0.7661 -1.3319  0.4856
  147SAPE  H18R16156   3.083   5.980   5.228  2.6087 -0.9516 -0.3095
  147SAPE  H18S16157   3.013   6.045   5.376  0.5141  1.3464 -0.2502
  147SAPE  C21916158   3.198   5.958   5.408 -0.0797  0.2438 -0.0619
  147SAPE  H19R16159   3.230   6.013   5.499  1.0835 -1.2869  0.5013
  147SAPE  H19S16160   3.296   5.946   5.356  0.0278  0.6959  0.0257
  147SAPE  C22016161   3.154   5.811   5.455 -0.1704  0.2162 -0.0531
  147SAPE  H20R16162   3.153   5.739   5.371 -0.2658 -2.3081  2.0064
  147SAPE  H20S16163   3.059   5.818   5.512  0.4819  1.5040  0.9416
  147SAPE  H20T16164   3.225   5.767   5.529 -2.0015 -3.5136 -0.3095
  147SAPE   C3316165   3.016   5.448   5.372 -1.6405 -0.1763  0.9536
  147SAPE   H3X16166   3.124   5.472   5.379 -1.2257 -1.4662 -0.3917
  147SAPE   H3Y16167   2.962   5.545   5.368  0.8951  1.5581  4.0298
  147SAPE   C3416168   2.989   5.369   5.243  0.3177  0.1321 -0.0858
  147SAPE   H4X16169   2.883   5.383   5.214  0.2140 -0.4632 -0.0163
  147SAPE   H4Y16170   3.023   5.266   5.267 -0.3259 -0.2650 -0.8512
  147SAPE   C3516171   3.079   5.401   5.121 -0.0206 -0.3893  0.3128
  147SAPE   H5X16172   3.189   5.406   5.139  0.2481 -1.2825 -0.9641
  147SAPE   H5Y16173   3.053   5.507   5.099  2.7620  0.2459 -0.3358
  147SAPE   C3616174   3.039   5.309   5.002 -0.4956 -0.2870  0.0089
  147SAPE   H6X16175   2.929   5.313   4.983 -0.7218  2.2328  1.3819
  147SAPE   H6Y16176   3.058   5.202   5.025  2.6729  0.3644  0.8134
  147SAPE   C3716177   3.129   5.346   4.881 -0.0457  0.0013  0.5339
  147SAPE   H7X16178   3.235   5.320   4.901 -0.1476 -0.3802  0.5768
  147SAPE   H7Y16179   3.126   5.456   4.866 -0.1453  0.0185  0.6832
  147SAPE   C3816180   3.088   5.279   4.754  0.5774 -0.1241  0.3142
  147SAPE   H8X16181   2.985   5.301   4.719  0.2821 -1.3722  0.3423
  147SAPE   H8Y16182   3.089   5.170   4.776  0.3142 -0.8778 -2.8603
  147SAPE   C3916183   3.182   5.304   4.634 -0.0165  0.6775  0.1419
  147SAPE   H9X16184   3.290   5.280   4.645  0.1100  0.1203 -1.8084
  147SAPE   H9Y16185   3.188   5.415   4.626 -1.6766  0.9234  1.7537
  147SAPE  C31016186   3.127   5.241   4.498  0.1678 -0.3097  0.1519
  147SAPE  H10X16187   3.046   5.313   4.473  0.7108  0.2649  0.0152
  147SAPE  H10Y16188   3.089   5.138   4.514 -1.2285  0.2968  0.8635
  147SAPE  C31116189   3.243   5.229   4.401  0.3022 -0.0791  0.0532
  147SAPE  H11X16190   3.198   5.192   4.306 -1.5668 -0.3828  1.0204
  147SAPE  H11Y16191   3.322   5.159   4.436 -1.4832 -1.9586  0.4904
  147SAPE  C31216192   3.313   5.358   4.361  0.3423  0.8128 -0.1750
  147SAPE  H12X16193   3.382   5.336   4.276  2.6097  0.7093  1.6069
  147SAPE  H12Y16194   3.382   5.381   4.445  1.2460 -0.9823 -0.3657
  147SAPE  C31316195   3.224   5.476   4.317 -0.0398 -0.1736 -0.1609
  147SAPE  H13X16196   3.160   5.506   4.403 -2.6239 -0.1846 -1.9718
  147SAPE  H13Y16197   3.149   5.442   4.243  0.6028 -0.0004 -0.9050
  147SAPE  C31416198   3.292   5.602   4.258  0.7504 -0.1430 -0.2927
  147SAPE  H14X16199   3.372   5.561   4.193  0.7098  0.2631 -0.6039
  147SAPE  H14Y16200   3.325   5.654   4.351 -0.9303  0.2063  0.1381
  147SAPE  C31516201   3.208   5.703   4.180  0.6438  0.3714 -0.1886
  147SAPE  H15X16202   3.141   5.652   4.108 -1.5285  0.9520  1.2859
  147SAPE  H15Y16203   3.274   5.770   4.121 -2.5596  2.1533 -2.0084
  147SAPE  C31616204   3.115   5.787   4.263 -0.2811 -0.7929 -0.3234
  147SAPE  H16X16205   3.081   5.729   4.352  0.1430 -1.7190 -0.7487
  147SAPE  H16Y16206   3.026   5.809   4.201 -2.3693 -1.1683  2.3537
  147SAPE  C31716207   3.171   5.923   4.301  0.0500  0.0017  0.6571
  147SAPE  H17X16208   3.167   5.983   4.207 -1.7484 -0.5733  0.3287
  147SAPE  H17Y16209   3.273   5.917   4.344 -0.6763  0.7777  2.6166
  147SAPE  C31816210   3.087   5.992   4.400  0.1096  0.0974  0.5364
  147SAPE  H18X16211   2.997   6.033   4.349 -0.1648  0.6139  1.4066
  147SAPE  H18Y16212   3.145   6.073   4.448 -0.0160  0.7072 -0.3365
  147SAPE  H18Z16213   3.047   5.924   4.479  0.3384 -0.1137  0.4726
  148SAPE     N16214   2.174   2.133   6.295  0.4552 -0.0256 -0.8403
  148SAPE   HN116215   2.157   2.192   6.211  2.1720 -0.2455 -1.3958
  148SAPE   HN216216   2.274   2.105   6.288 -0.1170 -2.7226  0.6882
  148SAPE   HN316217   2.118   2.046   6.287  0.9357 -0.3656 -0.5469
  148SAPE   C1216218   2.139   2.189   6.424 -0.0688 -0.3300  0.3564
  148SAPE  H12A16219   2.166   2.114   6.502 -0.1396 -1.2083 -0.4433
  148SAPE  H12B16220   2.029   2.205   6.421  0.2147  1.6756 -0.5761
  148SAPE   C1116221   2.213   2.321   6.453  0.3531  0.1872  0.1605
  148SAPE  H11A16222   2.322   2.304   6.464  0.2921  0.1749  0.7814
  148SAPE  H11B16223   2.176   2.354   6.553 -1.2496  1.6788 -0.8690
  148SAPE     P16224   2.088   2.518   6.344 -0.6404 -0.2416  0.0173
  148SAPE   O1316225   1.966   2.467   6.410 -0.4375 -0.2456 -0.3478
  148SAPE   O1416226   2.142   2.642   6.391 -0.4758 -0.5465 -0.0244
  148SAPE   O1216227   2.197   2.409   6.341  0.0239  0.6433 -0.5095
  148SAPE   O1116228   2.062   2.527   6.192 -0.8855  0.7341  0.0718
  148SAPE    C116229   2.160   2.557   6.100  0.0578 -0.0054 -0.3989
  148SAPE    HA16230   2.234   2.632   6.136 -0.0063  0.4642 -1.2207
  148SAPE    HB16231   2.222   2.466   6.083 -0.1223 -0.0798 -0.6610
  148SAPE    C216232   2.095   2.599   5.970 -0.2503 -0.1668  0.2823
  148SAPE    HS16233   2.016   2.673   5.995  0.5217  0.5230  0.7005
  148SAPE   O2116234   2.026   2.485   5.918 -0.1010  0.2185 -0.4012
  148SAPE   C2116235   1.957   2.501   5.810  0.0106  0.0930 -0.3649
  148SAPE   O2216236   1.921   2.609   5.764 -0.1586 -0.7161  0.0467
  148SAPE   C2216237   1.935   2.370   5.736  0.6350 -0.7356 -0.3575
  148SAPE   H2R16238   1.916   2.284   5.804 -3.3259 -0.3884 -0.8131
  148SAPE   H2S16239   1.840   2.373   5.679  0.1531 -0.0350  0.4509
  148SAPE    C316240   2.199   2.654   5.874 -0.8448  0.7941 -0.3758
  148SAPE    HX16241   2.258   2.736   5.921 -0.8262  1.5247 -1.5995
  148SAPE    HY16242   2.143   2.690   5.785 -1.7071 -1.3353 -0.7531
  148SAPE   O3116243   2.290   2.550   5.827 -0.0492  0.9129 -0.3605
  148SAPE   C3116244   2.362   2.582   5.721 -1.0679  0.3568  0.4224
  148SAPE   O3216245   2.357   2.683   5.657 -0.4289  0.4911 -0.5654
  148SAPE   C3216246   2.477   2.473   5.707 -0.4192  0.5529  0.6881
  148SAPE   H2X16247   2.445   2.375   5.748  0.4433  0.4690  1.1950
  148SAPE   H2Y16248   2.562   2.497   5.774 -0.5292  0.5778  0.8192
  148SAPE   C2316249   2.055   2.331   5.650  0.6298 -0.4225  0.4353
  148SAPE   H3R16250   2.050   2.223   5.623  1.5445 -0.0812 -1.2854
  148SAPE   H3S16251   2.151   2.347   5.704 -0.2807  2.6305  1.3694
  148SAPE   C2416252   2.057   2.411   5.519 -0.1162  0.9246 -0.5150
  148SAPE   H4R16253   2.150   2.395   5.461 -1.0816 -0.5580 -1.7726
  148SAPE   H4S16254   2.051   2.521   5.537 -1.0669  0.6278  1.1789
  148SAPE   C2516255   1.949   2.370   5.429  0.0188 -0.7183  0.1946
  148SAPE   H5R16256   1.903   2.273   5.451  1.7793 -1.0093  3.1430
  148SAPE   C2616257   1.910   2.436   5.314 -0.0630 -0.1387 -0.2556
  148SAPE   H6R16258   1.813   2.404   5.274 -0.6093  0.7087  0.3455
  148SAPE   C2716259   1.978   2.552   5.250  0.1200  0.1136 -0.0266
  148SAPE   H7R16260   2.015   2.519   5.151  3.3295 -1.7688  1.6246
  148SAPE   H7S16261   2.077   2.574   5.294  1.8875 -2.1415 -2.5938
  148SAPE   C2816262   1.909   2.682   5.223  0.4562 -0.5280  0.4145
  148SAPE   H8R16263   1.947   2.755   5.296 -0.1889  0.0424  0.1876
  148SAPE   C2916264   1.820   2.712   5.128  0.0560  0.6531  0.6590
  148SAPE   H9R16265   1.768   2.808   5.135  0.8786  1.0892  0.9158
  148SAPE  C21016266   1.768   2.616   5.024 -0.6038  0.2248  0.4762
  148SAPE  H10R16267   1.662   2.600   5.050 -1.5085  0.4453 -2.6445
  148SAPE  H10S16268   1.817   2.516   5.022 -2.4059 -0.7120 -1.7878
  148SAPE  C21116269   1.759   2.666   4.879 -0.2912 -0.6838 -0.1600
  148SAPE  H11R16270   1.787   2.581   4.815 -0.3791  0.0868 -1.2380
  148SAPE  C21216271   1.733   2.785   4.824 -0.2101 -0.0501  0.3233
  148SAPE  H12R16272   1.729   2.771   4.715  1.3376  0.1748  0.2089
  148SAPE  C21316273   1.701   2.919   4.891 -0.0721 -0.0245 -0.5721
  148SAPE  H13R16274   1.797   2.972   4.910  0.1939 -0.4272 -0.7780
  148SAPE  H13S16275   1.662   2.897   4.992  0.8758 -0.1160 -0.2117
  148SAPE  C21416276   1.606   3.007   4.823  0.3930 -0.2413  0.4690
  148SAPE  H14R16277   1.513   2.965   4.782 -1.0601  2.0395  1.1922
  148SAPE  C21516278   1.626   3.138   4.812 -0.2732  0.0132  0.3021
  148SAPE  H15R16279   1.546   3.201   4.769 -1.0414 -0.0961  1.5315
  148SAPE  C21616280   1.736   3.222   4.862  0.3931  0.2541  0.1427
  148SAPE  H16R16281   1.772   3.198   4.965  0.1613  1.2815  0.4746
  148SAPE  H16S16282   1.697   3.326   4.871 -0.4505 -0.1159  0.9571
  148SAPE  C21716283   1.843   3.239   4.754 -1.2602  0.2715 -0.1275
  148SAPE  H17R16284   1.912   3.152   4.742  1.1661  2.0621  0.0747
  148SAPE  H17S16285   1.904   3.325   4.789 -2.9644  1.0806  0.9680
  148SAPE  C21816286   1.792   3.279   4.613  0.2931 -0.0686 -0.1717
  148SAPE  H18R16287   1.737   3.375   4.613  0.2375 -0.1006  0.0053
  148SAPE  H18S16288   1.722   3.201   4.575  0.1452 -1.0178  1.8801
  148SAPE  C21916289   1.903   3.294   4.510 -0.3401 -0.7970  1.1658
  148SAPE  H19R16290   1.953   3.195   4.501 -1.0556 -1.1601  1.1520
  148SAPE  H19S16291   1.972   3.368   4.557 -0.3359 -0.0816  0.0638
  148SAPE  C22016292   1.856   3.341   4.373 -0.3611 -0.1238 -0.3565
  148SAPE  H20R16293   1.775   3.415   4.382  0.0735  0.5277 -1.5596
  148SAPE  H20S16294   1.802   3.257   4.324  0.7307 -0.8493 -0.3591
  148SAPE  H20T16295   1.936   3.364   4.299 -0.0779 -1.8339 -0.6406
  148SAPE   C3316296   2.539   2.456   5.570  0.5235  0.4729  1.1837
  148SAPE   H3X16297   2.616   2.376   5.575 -0.4492 -0.5910 -0.2259
  148SAPE   H3Y16298   2.592   2.551   5.547  0.9321  0.1383  0.7114
  148SAPE   C3416299   2.434   2.410   5.469 -0.3938  0.5564 -0.1584
  148SAPE   H4X16300   2.365   2.494   5.448 -2.6123 -1.0823  0.1633
  148SAPE   H4Y16301   2.378   2.326   5.515  0.6945  0.2586  0.6522
  148SAPE   C3516302   2.481   2.361   5.326 -0.5732  0.1286 -0.2692
  148SAPE   H5X16303   2.403   2.293   5.286 -1.4955 -0.0498  1.6968
  148SAPE   H5Y16304   2.576   2.306   5.343 -1.3053 -0.8225  0.9132
  148SAPE   C3616305   2.495   2.479   5.230  0.7308 -0.6567 -0.2385
  148SAPE   H6X16306   2.567   2.555   5.265  0.8404 -1.5348  1.5455
  148SAPE   H6Y16307   2.398   2.534   5.227 -0.7797 -3.1338  0.4182
  148SAPE   C3716308   2.531   2.447   5.081 -0.5403  0.1288  0.3569
  148SAPE   H7X16309   2.522   2.541   5.023  0.3256  0.5410  0.8787
  148SAPE   H7Y16310   2.458   2.375   5.039 -0.5213  0.6370 -0.5735
  148SAPE   C3816311   2.667   2.385   5.064 -1.0911 -0.0102 -0.1366
  148SAPE   H8X16312   2.665   2.283   5.108  0.2652 -0.5831 -1.3182
  148SAPE   H8Y16313   2.745   2.440   5.120 -0.3454  0.3166 -1.4593
  148SAPE   C3916314   2.715   2.357   4.924  0.8554 -0.2928  0.1668
  148SAPE   H9X16315   2.802   2.289   4.917  0.1392 -1.2314  0.2284
  148SAPE   H9Y16316   2.745   2.457   4.885 -0.1569  0.3633  1.0005
  148SAPE  C31016317   2.601   2.307   4.832  0.6961  0.3384 -0.2751
  148SAPE  H10X16318   2.515   2.373   4.811 -1.4356 -2.0350  0.5081
  148SAPE  H10Y16319   2.558   2.217   4.882  2.2388 -0.7274 -0.7874
  148SAPE  C31116320   2.649   2.292   4.686 -0.2358 -0.0834  0.6051
  148SAPE  H11X16321   2.741   2.229   4.687  0.6785  1.1869  2.3182
  148SAPE  H11Y16322   2.674   2.395   4.653 -0.6852  0.1375  0.9411
  148SAPE  C31216323   2.541   2.230   4.589 -0.0682 -0.3368 -0.6349
  148SAPE  H12X16324   2.576   2.238   4.484 -0.5034 -2.8035 -1.0293
  148SAPE  H12Y16325   2.450   2.293   4.595  1.4745  2.0306 -0.8483
  148SAPE  C31316326   2.505   2.079   4.610 -0.2133  0.1880  0.2864
  148SAPE  H13X16327   2.483   2.049   4.715  1.9936 -1.2607  0.3876
  148SAPE  H13Y16328   2.595   2.019   4.588 -1.0219 -0.6904 -0.7372
  148SAPE  C31416329   2.393   2.031   4.518  0.0287  0.2263 -0.4710
  148SAPE  H14X16330   2.427   2.044   4.413  2.2175 -1.1550  0.0049
  148SAPE  H14Y16331   2.302   2.093   4.532 -0.1523 -0.2431  0.5478
  148SAPE  C31516332   2.359   1.885   4.535 -0.0315 -0.2938  0.1618
  148SAPE  H15X16333   2.323   1.861   4.637 -0.1602  0.5859  0.3359
  148SAPE  H15Y16334   2.452   1.825   4.528  2.1162  2.8493 -1.1699
  148SAPE  C31616335   2.261   1.829   4.435 -0.5255  0.2748 -0.3712
  148SAPE  H16X16336   2.306   1.854   4.336  0.6741  1.3443  0.4159
  148SAPE  H16Y16337   2.161   1.874   4.451 -0.9532 -1.5741  2.8091
  148SAPE  C31716338   2.242   1.677   4.440 -0.0789  0.2227  0.2656
  148SAPE  H17X16339   2.186   1.651   4.533 -0.2577  0.4803  0.2317
  148SAPE  H17Y16340   2.341   1.628   4.459 -1.4826 -2.6377  0.8042
  148SAPE  C31816341   2.174   1.616   4.325 -0.1322  0.7458 -0.5776
  148SAPE  H18X16342   2.245   1.619   4.239 -0.4187 -0.7305 -0.8904
  148SAPE  H18Y16343   2.083   1.675   4.303 -0.0890  1.4506  1.0182
  148SAPE  H18Z16344   2.143   1.510   4.338  0.9176  0.1911 -2.1650
  149SAPE     N16345   3.504   1.167   6.052 -0.5148 -0.2708  0.4623
  149SAPE   HN116346   3.540   1.254   6.009 -0.5596 -1.4525 -2.1583
  149SAPE   HN216347   3.517   1.172   6.155 -1.1134  1.6224  0.4920
  149SAPE   HN316348   3.572   1.099   6.011 -0.4591  0.2732 -0.3679
  149SAPE   C1216349   3.359   1.167   6.015 -0.1213  0.2848 -0.1448
  149SAPE  H12A16350   3.312   1.222   6.098  1.5816  0.0297  1.0470
  149SAPE  H12B16351   3.330   1.060   6.018  2.1915 -0.5387 -2.5657
  149SAPE   C1116352   3.335   1.233   5.878 -0.4817  0.4771 -0.1934
  149SAPE  H11A16353   3.226   1.237   5.856 -0.2142  1.4465 -1.4507
  149SAPE  H11B16354   3.377   1.165   5.801 -3.3308 -1.3382 -0.2806
  149SAPE     P16355   3.337   1.502   5.928  0.0695  0.6269 -0.3086
  149SAPE   O1316356   3.345   1.497   6.077  0.8158  0.5032 -0.0512
  149SAPE   O1416357   3.410   1.616   5.878  0.6069 -0.2555 -0.2726
  149SAPE   O1216358   3.395   1.362   5.864 -0.4497 -0.0682 -0.3743
  149SAPE   O1116359   3.191   1.506   5.877  0.8123 -0.3596 -0.1681
  149SAPE    C116360   3.151   1.560   5.751  0.3200  0.3862  0.1942
  149SAPE    HA16361   3.050   1.604   5.764 -0.8068 -1.7071 -0.9810
  149SAPE    HB16362   3.214   1.644   5.713 -0.9280  0.9478 -0.7194
  149SAPE    C216363   3.148   1.451   5.636 -0.1494 -0.1903  0.8795
  149SAPE    HS16364   3.109   1.363   5.690 -1.4979  1.3995  2.6408
  149SAPE   O2116365   3.284   1.451   5.587 -0.6197 -0.2122  0.9207
  149SAPE   C2116366   3.328   1.337   5.543 -0.1733  0.3894 -0.2369
  149SAPE   O2216367   3.262   1.230   5.546  0.2008  0.3350  0.2075
  149SAPE   C2216368   3.464   1.362   5.483 -0.5551 -0.1193 -0.8117
  149SAPE   H2R16369   3.461   1.445   5.409  0.2429  1.6410  1.0338
  149SAPE   H2S16370   3.535   1.383   5.567 -1.4561 -1.9586  0.4700
  149SAPE    C316371   3.049   1.493   5.524  0.5751 -0.3203 -0.0635
  149SAPE    HX16372   3.051   1.421   5.439 -3.3088  0.9438 -1.4338
  149SAPE    HY16373   3.093   1.589   5.489 -0.3560 -0.3476 -1.3932
  149SAPE   O3116374   2.907   1.516   5.573 -0.5288  0.2741  0.3038
  149SAPE   C3116375   2.824   1.404   5.555  0.1798 -0.4245 -0.3633
  149SAPE   O3216376   2.853   1.292   5.526 -0.0192  0.2235  0.6342
  149SAPE   C3216377   2.681   1.458   5.562 -0.5924  0.2880  0.1078
  149SAPE   H2X16378   2.685   1.566   5.537 -0.8434  0.6065  1.3340
  149SAPE   H2Y16379   2.639   1.447   5.665 -1.8789  0.8261 -0.3413
  149SAPE   C2316380   3.517   1.240   5.408  0.5158  0.2766  0.5361
  149SAPE   H3R16381   3.511   1.152   5.475  1.0685  0.0928  0.3529
  149SAPE   H3S16382   3.624   1.271   5.402  0.5691  0.8549  3.2349
  149SAPE   C2416383   3.449   1.207   5.275  0.6525 -0.4736 -0.1421
  149SAPE   H4R16384   3.340   1.194   5.293  0.3299 -0.8169 -2.0936
  149SAPE   H4S16385   3.489   1.106   5.254  0.2857 -0.6295 -0.1147
  149SAPE   C2516386   3.470   1.291   5.155 -0.1648 -0.3027 -0.7887
  149SAPE   H5R16387   3.555   1.361   5.163 -1.1702  0.9711 -0.9674
  149SAPE   C2616388   3.397   1.284   5.049 -1.0833  0.7864  0.0020
  149SAPE   H6R16389   3.421   1.350   4.964  2.7381 -0.2968  0.0347
  149SAPE   C2716390   3.291   1.179   5.019  0.0879 -0.4425 -0.2575
  149SAPE   H7R16391   3.254   1.148   5.119  2.7605  0.6353  1.1469
  149SAPE   H7S16392   3.320   1.084   4.968 -0.5526 -1.0753  0.5320
  149SAPE   C2816393   3.181   1.244   4.940 -0.4652 -0.4054  0.3079
  149SAPE   H8R16394   3.201   1.221   4.834  0.5123 -0.3608  0.4759
  149SAPE   C2916395   3.071   1.311   4.979  0.4020  0.4735 -1.1164
  149SAPE   H9R16396   3.003   1.360   4.908  1.0206  3.5245  0.1884
  149SAPE  C21016397   3.036   1.342   5.125  0.0178 -0.3380 -0.4451
  149SAPE  H10R16398   3.114   1.295   5.189 -0.0814 -0.2282 -0.2424
  149SAPE  H10S16399   2.938   1.291   5.139  0.3045 -0.0005  4.3268
  149SAPE  C21116400   3.013   1.494   5.152  0.0814 -0.0626 -0.2591
  149SAPE  H11R16401   2.916   1.520   5.106 -0.7678 -0.2904  1.2984
  149SAPE  C21216402   3.096   1.586   5.196 -0.7921 -0.0486  0.3842
  149SAPE  H12R16403   3.058   1.689   5.190  0.0327  0.3511  1.6652
  149SAPE  C21316404   3.240   1.560   5.239  0.2342  0.2586  0.5879
  149SAPE  H13R16405   3.294   1.495   5.167 -3.4366 -1.4115 -0.9344
  149SAPE  H13S16406   3.229   1.501   5.332 -2.7588 -0.7417 -0.2753
  149SAPE  C21416407   3.324   1.683   5.255  0.3040 -0.4842  0.1830
  149SAPE  H14R16408   3.347   1.719   5.356  1.3890 -0.5977 -0.0052
  149SAPE  C21516409   3.383   1.763   5.159 -0.1454  0.7910 -0.7560
  149SAPE  H15R16410   3.432   1.855   5.193 -0.9493  0.6281  0.9155
  149SAPE  C21616411   3.383   1.729   5.015  0.1539 -0.6706  0.1954
  149SAPE  H16R16412   3.301   1.656   4.997 -0.2754  0.2868 -2.1865
  149SAPE  H16S16413   3.473   1.670   4.986  0.5461 -0.5523  1.1436
  149SAPE  C21716414   3.385   1.837   4.902  0.2329  0.1908 -0.2107
  149SAPE  H17R16415   3.491   1.866   4.886  0.1790  0.6748  0.2697
  149SAPE  H17S16416   3.334   1.923   4.950  0.5319  0.9681 -1.2628
  149SAPE  C21816417   3.330   1.777   4.777 -0.4362 -0.2231  0.4412
  149SAPE  H18R16418   3.221   1.766   4.798 -0.4286 -1.4744 -0.1349
  149SAPE  H18S16419   3.378   1.683   4.743 -0.4710  0.3621 -1.3084
  149SAPE  C21916420   3.334   1.865   4.647 -0.3447  0.0530  0.2562
  149SAPE  H19R16421   3.439   1.900   4.639 -0.8961  1.4572 -2.2281
  149SAPE  H19S16422   3.268   1.954   4.658 -1.3867 -0.7951  1.0642
  149SAPE  C22016423   3.304   1.786   4.516  0.3389 -0.1674 -0.5077
  149SAPE  H20R16424   3.317   1.856   4.431 -1.0871  0.5806 -0.1466
  149SAPE  H20S16425   3.201   1.744   4.515 -0.0655  0.7799 -1.7377
  149SAPE  H20T16426   3.383   1.709   4.503  1.0033  0.3399  0.3794
  149SAPE   C3316427   2.571   1.383   5.479  0.4048 -0.6054  0.4389
  149SAPE   H3X16428   2.472   1.429   5.500  0.2158 -1.7117  2.2343
  149SAPE   H3Y16429   2.559   1.276   5.505 -3.1396 -0.8738 -1.6555
  149SAPE   C3416430   2.597   1.395   5.329 -0.2526  0.0714 -0.3073
  149SAPE   H4X16431   2.699   1.356   5.308  0.3320  1.4282 -0.0276
  149SAPE   H4Y16432   2.586   1.498   5.289 -1.3830 -0.3352 -1.1250
  149SAPE   C3516433   2.505   1.295   5.264 -0.1618 -0.1735  0.1976
  149SAPE   H5X16434   2.399   1.315   5.290 -0.3895 -2.0547  0.8953
  149SAPE   H5Y16435   2.517   1.201   5.321  0.2732 -0.0282  0.3513
  149SAPE   C3616436   2.536   1.272   5.116  0.3055 -0.2530 -0.0764
  149SAPE   H6X16437   2.644   1.252   5.106  0.1463 -0.6892 -0.9450
  149SAPE   H6Y16438   2.514   1.362   5.055  1.6152 -0.9753 -1.6662
  149SAPE   C3716439   2.473   1.149   5.063  1.2151  0.1896 -0.2397
  149SAPE   H7X16440   2.374   1.127   5.107  2.5614 -0.6443  2.6315
  149SAPE   H7Y16441   2.532   1.063   5.100  1.4429  0.8710  1.0523
  149SAPE   C3816442   2.469   1.146   4.908 -0.1573  1.5255 -0.0628
  149SAPE   H8X16443   2.463   1.039   4.878 -1.1913  1.2905  0.9052
  149SAPE   H8Y16444   2.562   1.188   4.864  0.2076  2.0134  1.1363
  149SAPE   C3916445   2.355   1.219   4.832 -0.3895  0.2015 -0.3871
  149SAPE   H9X16446   2.372   1.328   4.840 -0.4712  0.1818  0.0699
  149SAPE   H9Y16447   2.255   1.187   4.869 -0.2821 -0.0338 -0.2915
  149SAPE  C31016448   2.366   1.173   4.685  0.1446 -1.0309 -0.4376
  149SAPE  H10X16449   2.302   1.083   4.674 -0.6183 -0.7714  1.4210
  149SAPE  H10Y16450   2.468   1.142   4.656  1.2780  0.8028  1.3651
  149SAPE  C31116451   2.327   1.285   4.590  0.4040  0.2606 -0.1371
  149SAPE  H11X16452   2.413   1.355   4.581 -1.4637  2.7198  0.1927
  149SAPE  H11Y16453   2.248   1.345   4.639  0.9253  0.6947  0.1703
  149SAPE  C31216454   2.282   1.230   4.455  0.0499 -0.3666 -0.4920
  149SAPE  H12X16455   2.222   1.311   4.409 -0.9328  1.0118  2.9135
  149SAPE  H12Y16456   2.218   1.142   4.478 -0.6844  0.6802  1.7615
  149SAPE  C31316457   2.403   1.191   4.368  0.0229  0.2045  0.1900
  149SAPE  H13X16458   2.463   1.108   4.410  1.4495  0.7520 -0.7115
  149SAPE  H13Y16459   2.480   1.271   4.371 -0.2442  0.4446  2.2252
  149SAPE  C31416460   2.367   1.157   4.214 -0.3911 -0.1303  0.1202
  149SAPE  H14X16461   2.310   1.240   4.167 -0.2232 -0.0935 -0.0173
  149SAPE  H14Y16462   2.304   1.066   4.208  0.4512 -0.7575  0.6005
  149SAPE  C31516463   2.498   1.142   4.135  0.0846 -0.2732 -0.0852
  149SAPE  H15X16464   2.569   1.082   4.196  0.5146 -0.5891 -0.8880
  149SAPE  H15Y16465   2.535   1.246   4.129 -2.4060  0.8706  2.0361
  149SAPE  C31616466   2.488   1.086   3.991  0.4576  0.1770 -0.4623
  149SAPE  H16X16467   2.382   1.053   3.984  0.5437 -0.1578 -0.2356
  149SAPE  H16Y16468   2.546   0.991   3.993 -0.6818 -0.6526  3.6638
  149SAPE  C31716469   2.541   1.185   3.894 -0.0520  0.6947  0.2818
  149SAPE  H17X16470   2.476   1.275   3.894  0.2166  0.9131 -1.2122
  149SAPE  H17Y16471   2.517   1.133   3.798 -0.2146 -2.4258  1.8671
  149SAPE  C31816472   2.688   1.217   3.896 -0.0937  0.3010  0.0545
  149SAPE  H18X16473   2.739   1.123   3.865  0.0175  1.0072 -2.0123
  149SAPE  H18Y16474   2.731   1.251   3.993 -1.7783  0.5419  0.7390
  149SAPE  H18Z16475   2.712   1.297   3.823  1.6684  1.5413  1.8837
  150SAPE     N16476   5.723   3.756   6.200 -0.1994 -0.0336 -0.0086
  150SAPE   HN116477   5.726   3.795   6.297 -0.7937  0.1177 -0.0464
  150SAPE   HN216478   5.727   3.655   6.225 -3.4900 -0.0995  0.8516
  150SAPE   HN316479   5.797   3.787   6.135  0.7968  0.5299  1.3566
  150SAPE   C1216480   5.584   3.784   6.149  0.7429  0.4709  0.2264
  150SAPE  H12A16481   5.580   3.741   6.047 -0.0840 -2.3269  1.3257
  150SAPE  H12B16482   5.557   3.891   6.152 -1.7393 -0.0566 -0.7677
  150SAPE   C1116483   5.473   3.705   6.224  0.1729  0.1399  0.3822
  150SAPE  H11A16484   5.381   3.738   6.171 -1.3791 -1.3026  2.0828
  150SAPE  H11B16485   5.469   3.753   6.324  0.0380  1.7608 -0.3676
  150SAPE     P16486   5.401   3.445   6.195 -0.1658  0.0693  0.1240
  150SAPE   O1316487   5.463   3.325   6.260  0.0788  0.3821  0.2128
  150SAPE   O1416488   5.273   3.481   6.254  0.1749  0.0195 -0.3305
  150SAPE   O1216489   5.499   3.562   6.226  0.1742 -0.1346  0.0472
  150SAPE   O1116490   5.404   3.433   6.041  0.1904  0.5338 -0.0585
  150SAPE    C116491   5.488   3.352   5.963  1.0043 -0.2570 -0.4210
  150SAPE    HA16492   5.503   3.253   6.011 -1.5226  0.0906  1.2930
  150SAPE    HB16493   5.441   3.332   5.865  0.1431  0.2642 -0.1248
  150SAPE    C216494   5.633   3.410   5.945  0.5750 -0.3373  0.5725
  150SAPE    HS16495   5.658   3.458   6.042 -3.1147 -1.5609  2.3094
  150SAPE   O2116496   5.615   3.505   5.836  0.7696 -0.4933 -0.0311
  150SAPE   C2116497   5.718   3.564   5.783 -0.1499 -0.5201  0.3502
  150SAPE   O2216498   5.834   3.558   5.820 -0.2344 -0.2620  0.1284
  150SAPE   C2216499   5.668   3.664   5.666 -0.2863  0.0208  0.3511
  150SAPE   H2R16500   5.559   3.679   5.679  0.2353  4.4807  1.1380
  150SAPE   H2S16501   5.722   3.759   5.688  1.2885 -0.2615 -1.9289
  150SAPE    C316502   5.728   3.296   5.912 -0.2677 -0.4634  0.7830
  150SAPE    HX16503   5.710   3.210   5.981  2.0046 -2.1255 -0.5514
  150SAPE    HY16504   5.830   3.340   5.921 -1.2791  2.2173  0.0978
  150SAPE   O3116505   5.713   3.229   5.783  0.1091  0.4711  0.7864
  150SAPE   C3116506   5.806   3.222   5.694 -0.9779 -0.1708 -0.6697
  150SAPE   O3216507   5.914   3.278   5.699  0.3271  0.5948 -0.2420
  150SAPE   C3216508   5.780   3.114   5.589 -0.5419 -0.2370  0.4589
  150SAPE   H2X16509   5.682   3.069   5.615 -1.3809  1.0153 -0.3925
  150SAPE   H2Y16510   5.863   3.042   5.600 -0.6729 -0.0615  3.4033
  150SAPE   C2316511   5.720   3.604   5.534 -0.6365  0.2804  0.1749
  150SAPE   H3R16512   5.682   3.499   5.536  1.7906 -0.6826  3.1832
  150SAPE   H3S16513   5.831   3.602   5.531 -0.6305  0.8593 -0.1824
  150SAPE   C2416514   5.668   3.681   5.415  0.6186 -0.0739 -0.5535
  150SAPE   H4R16515   5.559   3.669   5.397  0.7014  0.7150 -1.6920
  150SAPE   H4S16516   5.714   3.644   5.321  1.2800 -2.3610  0.5899
  150SAPE   C2516517   5.687   3.832   5.435  0.1138 -0.6989 -0.1062
  150SAPE   H5R16518   5.610   3.886   5.493  1.4237  1.2899 -0.1087
  150SAPE   C2616519   5.769   3.916   5.362  0.7123  0.2947  0.2467
  150SAPE   H6R16520   5.759   4.025   5.373 -0.3693  0.3895 -1.3637
  150SAPE   C2716521   5.872   3.879   5.260  0.6093 -0.1951  0.0362
  150SAPE   H7R16522   5.852   3.934   5.165  1.7016 -1.3191 -0.8843
  150SAPE   H7S16523   5.861   3.774   5.226 -0.8788 -0.5228  1.3830
  150SAPE   C2816524   6.013   3.919   5.295  0.4202  0.5665 -0.2588
  150SAPE   H8R16525   6.016   4.007   5.360  0.9008 -1.1137  2.1291
  150SAPE   C2916526   6.126   3.857   5.276 -0.4074 -0.3498 -0.1153
  150SAPE   H9R16527   6.217   3.908   5.310  0.8582 -1.7266 -1.2994
  150SAPE  C21016528   6.154   3.738   5.193  0.6580 -0.3314 -0.5525
  150SAPE  H10R16529   6.258   3.731   5.154  1.8079 -0.8866  2.4112
  150SAPE  H10S16530   6.086   3.757   5.107 -1.3599 -2.0022  0.5745
  150SAPE  C21116531   6.119   3.607   5.262 -0.0787 -0.1433  0.2463
  150SAPE  H11R16532   6.051   3.620   5.348 -1.2350  1.7869 -0.8904
  150SAPE  C21216533   6.181   3.492   5.233 -0.7867 -0.2289  1.0192
  150SAPE  H12R16534   6.160   3.404   5.294 -3.5249 -0.4321 -0.0691
  150SAPE  C21316535   6.287   3.466   5.130 -0.1567  0.9106 -0.1683
  150SAPE  H13R16536   6.281   3.545   5.053 -1.5233  1.9195  0.9115
  150SAPE  H13S16537   6.267   3.372   5.073  1.6181 -1.3447  2.6046
  150SAPE  C21416538   6.423   3.462   5.199 -0.3275  0.7823 -0.6046
  150SAPE  H14R16539   6.434   3.406   5.293 -2.2802  1.3807  0.0218
  150SAPE  C21516540   6.530   3.530   5.168  0.4768  0.1273  0.0249
  150SAPE  H15R16541   6.620   3.518   5.230 -1.8542  1.6314  4.0870
  150SAPE  C21616542   6.539   3.627   5.055 -0.7210  0.2819 -0.5160
  150SAPE  H16R16543   6.600   3.718   5.074  0.3836 -0.7268  1.0080
  150SAPE  H16S16544   6.438   3.667   5.030 -0.9481 -0.3117 -0.5746
  150SAPE  C21716545   6.582   3.550   4.926  0.0762 -0.4649  0.1303
  150SAPE  H17R16546   6.533   3.609   4.846 -0.0325  1.5086  1.5773
  150SAPE  H17S16547   6.537   3.449   4.934 -0.6833 -0.1151  0.2987
  150SAPE  C21816548   6.737   3.542   4.906 -0.1391  0.8494 -0.2520
  150SAPE  H18R16549   6.774   3.470   4.982  0.6095  2.8833  1.3930
  150SAPE  H18S16550   6.801   3.631   4.921  1.7292 -0.7429  2.0734
  150SAPE  C21916551   6.761   3.478   4.772  0.4981 -0.1308 -0.1495
  150SAPE  H19R16552   6.695   3.516   4.691  0.1184  1.1450  0.7301
  150SAPE  H19S16553   6.741   3.371   4.795  1.1250  0.1420  1.9269
  150SAPE  C22016554   6.908   3.496   4.730  0.0921  0.1856 -0.1040
  150SAPE  H20R16555   6.974   3.443   4.802 -2.6658 -0.6052  2.0107
  150SAPE  H20S16556   6.936   3.601   4.708 -0.7409  0.3890 -0.2265
  150SAPE  H20T16557   6.921   3.436   4.637 -0.2697 -3.1433  1.7990
  150SAPE   C3316558   5.777   3.185   5.453  0.3305  0.0482 -0.1850
  150SAPE   H3X16559   5.860   3.255   5.428 -0.7850  1.1972 -0.8176
  150SAPE   H3Y16560   5.678   3.232   5.435 -0.4457 -1.6773 -0.5745
  150SAPE   C3416561   5.795   3.079   5.339  0.5777  0.6375 -0.7048
  150SAPE   H4X16562   5.777   2.979   5.384  4.2130  0.6652  1.1489
  150SAPE   H4Y16563   5.904   3.065   5.322  0.9595 -2.2138  2.9221
  150SAPE   C3516564   5.731   3.111   5.203 -0.6432 -0.6111 -0.2553
  150SAPE   H5X16565   5.620   3.113   5.215 -0.6872  2.2047 -0.6151
  150SAPE   H5Y16566   5.771   3.030   5.138  1.8783 -0.2400  0.7103
  150SAPE   C3616567   5.780   3.254   5.154 -0.3101  0.0628 -0.5007
  150SAPE   H6X16568   5.891   3.258   5.163 -0.4259  0.5191  0.9301
  150SAPE   H6Y16569   5.740   3.334   5.221  0.3508 -0.2893  0.3322
  150SAPE   C3716570   5.738   3.275   5.010  0.5117  0.3981 -1.0482
  150SAPE   H7X16571   5.757   3.183   4.952  0.0119  0.0609 -0.6778
  150SAPE   H7Y16572   5.783   3.368   4.968  0.6500  0.0528 -1.6764
  150SAPE   C3816573   5.590   3.309   5.015  0.1106 -0.6633  0.9238
  150SAPE   H8X16574   5.571   3.399   5.078 -3.1337  0.4673 -1.4394
  150SAPE   H8Y16575   5.532   3.228   5.063  2.5342 -3.3931 -0.4511
  150SAPE   C3916576   5.526   3.366   4.884 -0.3307  0.0837  0.3881
  150SAPE   H9X16577   5.573   3.463   4.854 -2.5698  1.0797 -0.1230
  150SAPE   H9Y16578   5.418   3.384   4.904 -1.0703 -1.7982 -1.5392
  150SAPE  C31016579   5.532   3.271   4.767  0.1495 -0.2396  0.1552
  150SAPE  H10X16580   5.500   3.169   4.793  0.5432 -0.0963  1.2427
  150SAPE  H10Y16581   5.641   3.255   4.750  0.3795 -0.5399  1.7658
  150SAPE  C31116582   5.474   3.317   4.632 -0.5041  0.1629 -0.1634
  150SAPE  H11X16583   5.522   3.415   4.614  0.8632  0.0912  2.6019
  150SAPE  H11Y16584   5.365   3.332   4.646 -0.5471 -0.5264  0.2818
  150SAPE  C31216585   5.504   3.223   4.519  0.8226  0.3025 -0.7490
  150SAPE  H12X16586   5.455   3.251   4.423 -2.0439  2.3088  1.1163
  150SAPE  H12Y16587   5.469   3.123   4.551  1.6305 -0.1653 -1.2986
  150SAPE  C31316588   5.650   3.192   4.498 -0.9086 -0.2479 -0.3664
  150SAPE  H13X16589   5.682   3.119   4.576 -1.9963 -2.0877 -1.5625
  150SAPE  H13Y16590   5.713   3.284   4.496  0.9665 -1.4489 -0.0237
  150SAPE  C31416591   5.665   3.124   4.359 -0.2008 -0.1780 -0.3409
  150SAPE  H14X16592   5.577   3.057   4.350  0.8574 -1.7564  0.5678
  150SAPE  H14Y16593   5.754   3.058   4.364 -0.6444 -0.6882  3.4187
  150SAPE  C31516594   5.671   3.220   4.239  0.3498 -0.2398 -0.3404
  150SAPE  H15X16595   5.767   3.277   4.237  0.1255  0.1842  0.5381
  150SAPE  H15Y16596   5.595   3.299   4.257  0.5876 -0.0146 -0.3199
  150SAPE  C31616597   5.657   3.163   4.101  0.5410 -0.1890  0.0921
  150SAPE  H16X16598   5.559   3.111   4.101  1.0354 -1.1541 -0.6954
  150SAPE  H16Y16599   5.737   3.091   4.074 -0.4090 -0.4542 -2.1907
  150SAPE  C31716600   5.662   3.271   3.990  0.6539  0.1998 -0.4771
  150SAPE  H17X16601   5.749   3.335   4.012 -0.7056  1.3646  1.8990
  150SAPE  H17Y16602   5.571   3.333   4.005  1.3554  1.2077 -0.3178
  150SAPE  C31816603   5.667   3.215   3.852 -0.2003 -0.0772  0.9207
  150SAPE  H18X16604   5.568   3.174   3.822  0.6897 -1.2564 -0.5265
  150SAPE  H18Y16605   5.741   3.132   3.862 -0.9460 -0.5335  3.8004
  150SAPE  H18Z16606   5.687   3.289   3.773  0.3169 -0.7622  0.4001
  151SAPE     N16607   4.295   1.671   6.023 -0.1791  0.7617  0.1125
  151SAPE   HN116608   4.214   1.671   6.089 -0.8044 -1.9743 -0.5390
  151SAPE   HN216609   4.310   1.772   6.005 -2.3609  1.1710  0.3099
  151SAPE   HN316610   4.256   1.626   5.937 -1.2090 -2.0193  1.8922
  151SAPE   C1216611   4.416   1.592   6.075  0.2510 -0.4613 -0.0265
  151SAPE  H12A16612   4.390   1.484   6.070  1.4989 -0.7860  0.1920
  151SAPE  H12B16613   4.424   1.631   6.179 -0.3773  2.6233 -1.0281
  151SAPE   C1116614   4.540   1.619   5.980  0.3151 -0.3543  0.9382
  151SAPE  H11A16615   4.557   1.727   5.960  1.6682 -0.8058 -0.6361
  151SAPE  H11B16616   4.511   1.591   5.876 -1.4257 -0.0790  1.3229
  151SAPE     P16617   4.766   1.622   6.103  0.2972 -0.2986 -0.0616
  151SAPE   O1316618   4.724   1.756   6.145  0.2197 -0.8085 -0.2777
  151SAPE   O1416619   4.795   1.526   6.210 -0.3032 -0.5489  0.2471
  151SAPE   O1216620   4.657   1.550   6.010 -0.4049 -0.3991  0.0530
  151SAPE   O1116621   4.895   1.630   6.011 -0.0905  0.1014  0.3495
  151SAPE    C116622   4.917   1.535   5.900 -0.6004  0.2592 -0.4611
  151SAPE    HA16623   4.839   1.456   5.908  0.5389 -0.7254  2.0854
  151SAPE    HB16624   4.905   1.583   5.801  0.5731 -0.5331 -1.0019
  151SAPE    C216625   5.055   1.470   5.902  0.0908  0.1187 -0.0345
  151SAPE    HS16626   5.080   1.429   6.002 -0.4834  0.1105  0.1112
  151SAPE   O2116627   5.151   1.568   5.861  0.0697 -0.2192 -0.1038
  151SAPE   C2116628   5.270   1.538   5.902 -0.3399 -0.1248  0.2474
  151SAPE   O2216629   5.301   1.437   5.963  0.0634  0.4137  0.1531
  151SAPE   C2216630   5.374   1.649   5.861  0.4135  0.7967 -0.6380
  151SAPE   H2R16631   5.375   1.731   5.936  1.3341  0.1598  0.0858
  151SAPE   H2S16632   5.467   1.590   5.874  1.1270  1.9846 -0.1757
  151SAPE    C316633   5.053   1.345   5.810  0.2611 -0.7306  0.3211
  151SAPE    HX16634   4.964   1.285   5.839  1.1596 -1.2733  2.1122
  151SAPE    HY16635   5.132   1.283   5.856 -0.9610 -0.6057  2.7602
  151SAPE   O3116636   5.056   1.373   5.669 -0.6093  0.3654  0.4628
  151SAPE   C3116637   5.078   1.271   5.593  0.1102  0.0471 -0.9009
  151SAPE   O3216638   5.095   1.151   5.631  0.2402  0.8255 -0.2617
  151SAPE   C3216639   5.093   1.307   5.448  0.5768  0.3249 -0.1221
  151SAPE   H2X16640   5.149   1.219   5.411  0.8381 -1.4389  3.9479
  151SAPE   H2Y16641   5.150   1.403   5.450  0.0297  0.6497  1.2601
  151SAPE   C2316642   5.358   1.701   5.728 -0.0636  0.3261  0.9078
  151SAPE   H3R16643   5.428   1.786   5.716 -1.8794  1.6119 -1.8238
  151SAPE   H3S16644   5.258   1.747   5.713 -0.9474 -2.2125 -2.0235
  151SAPE   C2416645   5.380   1.586   5.615  0.0183  0.1176 -0.6198
  151SAPE   H4R16646   5.279   1.542   5.600 -0.9832  1.7275  0.9543
  151SAPE   H4S16647   5.436   1.495   5.646 -2.0364 -1.1624 -0.5139
  151SAPE   C2516648   5.433   1.646   5.490 -0.1037  0.0900  0.5369
  151SAPE   H5R16649   5.543   1.643   5.489  0.0298  2.8733  0.4270
  151SAPE   C2616650   5.363   1.706   5.388 -0.3954  0.5335  0.2239
  151SAPE   H6R16651   5.419   1.743   5.301 -0.1812 -0.5639 -0.1256
  151SAPE   C2716652   5.212   1.731   5.391  0.6904 -0.4685  0.3943
  151SAPE   H7R16653   5.192   1.840   5.381  0.3750 -0.5160  0.4824
  151SAPE   H7S16654   5.165   1.705   5.488  1.1159  0.1206  0.7574
  151SAPE   C2816655   5.128   1.658   5.287 -0.3286  0.3732 -0.1174
  151SAPE   H8R16656   5.071   1.575   5.332  0.7046  0.2278  0.9982
  151SAPE   C2916657   5.115   1.686   5.156  0.4491  0.3736  0.3097
  151SAPE   H9R16658   5.066   1.615   5.088  0.6617 -1.2097  1.7411
  151SAPE  C21016659   5.185   1.808   5.101 -0.0460 -0.3000 -0.2192
  151SAPE  H10R16660   5.240   1.764   5.015 -1.0281  0.0150 -1.0306
  151SAPE  H10S16661   5.267   1.852   5.161  0.6820  0.2293 -1.5671
  151SAPE  C21116662   5.101   1.924   5.041 -0.4233  0.4168 -0.5974
  151SAPE  H11R16663   5.004   1.943   5.091 -0.2150 -0.5730  0.2172
  151SAPE  C21216664   5.137   1.991   4.934  0.2591  0.2058 -0.1930
  151SAPE  H12R16665   5.076   2.066   4.882 -1.0833  0.8983  2.2592
  151SAPE  C21316666   5.259   1.966   4.854 -0.2251 -0.1904  1.2273
  151SAPE  H13R16667   5.334   1.902   4.906 -0.8168 -1.2784  0.7688
  151SAPE  H13S16668   5.305   2.065   4.835 -0.3295 -0.4031 -0.2056
  151SAPE  C21416669   5.246   1.882   4.725 -0.1004 -0.6911 -0.2604
  151SAPE  H14R16670   5.270   1.777   4.745  1.5477 -0.1918  0.5931
  151SAPE  C21516671   5.214   1.925   4.600  0.6554 -0.1435  0.1490
  151SAPE  H15R16672   5.220   1.857   4.514 -0.1507 -1.4851  1.1321
  151SAPE  C21616673   5.172   2.067   4.563  0.2690 -0.0746 -0.1750
  151SAPE  H16R16674   5.147   2.127   4.653  0.4566  0.9272 -0.7741
  151SAPE  H16S16675   5.082   2.060   4.498 -0.5822  1.2490  0.8185
  151SAPE  C21716676   5.279   2.148   4.483  0.1889 -0.0082 -0.1981
  151SAPE  H17R16677   5.305   2.110   4.382  0.1090  0.2166 -0.3057
  151SAPE  H17S16678   5.375   2.132   4.536  0.7897 -1.2086 -1.5539
  151SAPE  C21816679   5.262   2.297   4.480 -0.7003  0.5481 -0.1593
  151SAPE  H18R16680   5.348   2.342   4.427 -0.0588  1.7598  1.8312
  151SAPE  H18S16681   5.277   2.325   4.586  0.3463 -0.6372  0.0386
  151SAPE  C21916682   5.120   2.358   4.444  0.2045  0.2336 -0.5310
  151SAPE  H19R16683   5.123   2.463   4.479 -2.5162  0.6666 -1.3153
  151SAPE  H19S16684   5.042   2.314   4.510 -2.0883  0.9933 -2.5784
  151SAPE  C22016685   5.075   2.337   4.306  0.1922 -0.0819  0.6985
  151SAPE  H20R16686   5.019   2.241   4.293 -2.2915  1.3147  0.4727
  151SAPE  H20S16687   5.158   2.357   4.236  0.3534 -0.7301  0.6991
  151SAPE  H20T16688   4.987   2.397   4.274  0.5119 -0.6643 -1.3924
  151SAPE   C3316689   4.958   1.313   5.366 -0.3145  0.1650  0.1322
  151SAPE   H3X16690   4.892   1.389   5.412 -0.4713 -1.0775  2.0903
  151SAPE   H3Y16691   4.911   1.213   5.377  0.0061  0.1032  1.0082
  151SAPE   C3416692   4.977   1.321   5.210 -0.0441  0.1818  0.0723
  151SAPE   H4X16693   4.994   1.216   5.178  0.0267  0.0630  0.4952
  151SAPE   H4Y16694   5.075   1.372   5.198  1.5847 -1.8148  3.4620
  151SAPE   C3516695   4.856   1.387   5.145  0.1321 -0.4609  0.4732
  151SAPE   H5X16696   4.859   1.490   5.188 -1.6651 -0.1995  0.0641
  151SAPE   H5Y16697   4.753   1.346   5.158 -0.4499  1.2336  1.5610
  151SAPE   C3616698   4.883   1.403   4.991  0.2555 -0.1377  0.5927
  151SAPE   H6X16699   4.868   1.303   4.944 -3.3002  1.1564 -1.4321
  151SAPE   H6Y16700   4.990   1.431   4.981 -0.3727  2.4178  0.3145
  151SAPE   C3716701   4.786   1.508   4.925 -0.1950 -0.0638 -0.6319
  151SAPE   H7X16702   4.812   1.603   4.976  0.9874  1.2461 -3.4651
  151SAPE   H7Y16703   4.679   1.478   4.937 -0.2969  0.0720 -1.1584
  151SAPE   C3816704   4.801   1.517   4.770 -0.1022 -0.8076  0.4403
  151SAPE   H8X16705   4.718   1.572   4.722  0.2597 -0.7342 -0.1107
  151SAPE   H8Y16706   4.790   1.415   4.729 -2.8607 -0.3477 -0.1161
  151SAPE   C3916707   4.929   1.592   4.720 -0.0527  0.5425  0.3430
  151SAPE   H9X16708   5.009   1.517   4.740 -0.3436  0.3764  0.9157
  151SAPE   H9Y16709   4.959   1.688   4.768  0.0371  2.3834 -3.0690
  151SAPE  C31016710   4.933   1.625   4.571  0.3235 -0.1147 -0.1795
  151SAPE  H10X16711   5.012   1.700   4.548 -0.7365  1.1398  0.1610
  151SAPE  H10Y16712   4.833   1.666   4.546  0.3977 -0.6997 -1.4895
  151SAPE  C31116713   4.965   1.499   4.484 -0.0378  0.8361 -0.0763
  151SAPE  H11X16714   4.889   1.422   4.510 -0.9283  2.4932  2.7098
  151SAPE  H11Y16715   5.070   1.473   4.508  0.0200  0.8986 -0.2633
  151SAPE  C31216716   4.953   1.514   4.329  0.3048 -0.4326 -0.4384
  151SAPE  H12X16717   4.843   1.526   4.318  0.1059 -1.4503  0.3095
  151SAPE  H12Y16718   4.984   1.410   4.306  1.1065 -0.2527 -0.2195
  151SAPE  C31316719   5.029   1.630   4.261  0.0744  0.2670  0.8682
  151SAPE  H13X16720   5.132   1.590   4.246  0.8540  0.8009  3.9787
  151SAPE  H13Y16721   5.044   1.716   4.330 -1.4047  1.1120  0.1814
  151SAPE  C31416722   4.974   1.681   4.129  0.7344 -0.4797  0.2119
  151SAPE  H14X16723   4.865   1.662   4.118  0.8710 -0.8655 -0.5802
  151SAPE  H14Y16724   5.016   1.623   4.044 -3.4696  0.5395 -2.8719
  151SAPE  C31516725   5.009   1.827   4.088  0.4030 -0.3422  0.8802
  151SAPE  H15X16726   4.944   1.890   4.152 -1.5947  0.5815 -1.8326
  151SAPE  H15Y16727   4.981   1.848   3.982  0.1040  2.2813  1.4049
  151SAPE  C31616728   5.161   1.857   4.100 -0.3994  0.5700  0.2341
  151SAPE  H16X16729   5.211   1.803   4.016 -0.6553  1.5576 -0.5629
  151SAPE  H16Y16730   5.196   1.825   4.200 -1.4911 -0.9474  0.1677
  151SAPE  C31716731   5.194   2.006   4.068  0.5402  0.1937 -0.3552
  151SAPE  H17X16732   5.303   2.028   4.072  0.2795  1.3438  1.7432
  151SAPE  H17Y16733   5.152   2.078   4.142  0.9135 -2.1573  2.3205
  151SAPE  C31816734   5.144   2.057   3.931 -0.4742  1.0905 -0.1886
  151SAPE  H18X16735   5.191   2.007   3.844 -1.2714 -0.7573  0.3889
  151SAPE  H18Y16736   5.167   2.165   3.914  0.4419  0.7861 -0.9640
  151SAPE  H18Z16737   5.037   2.031   3.919 -0.0900 -0.7780  0.2141
  152SAPE     N16738   1.738   2.496   6.218 -0.2242  0.2463 -0.1484
  152SAPE   HN116739   1.682   2.463   6.137  0.8802  1.3773 -1.4117
  152SAPE   HN216740   1.828   2.445   6.220 -0.6717 -0.5530  0.0297
  152SAPE   HN316741   1.685   2.468   6.303  0.2498 -0.2070 -0.0016
  152SAPE   C1216742   1.754   2.649   6.216  0.2718  0.4083  0.1495
  152SAPE  H12A16743   1.850   2.672   6.165  0.7125 -1.2576  0.1754
  152SAPE  H12B16744   1.751   2.673   6.325 -0.8731 -3.2313  1.0673
  152SAPE   C1116745   1.639   2.724   6.140 -0.0702 -0.3101 -0.6868
  152SAPE  H11A16746   1.667   2.707   6.034  2.1640 -1.3576  0.0029
  152SAPE  H11B16747   1.630   2.830   6.172 -2.0346 -1.2265  2.2007
  152SAPE     P16748   1.378   2.718   6.143 -0.4669  0.0444 -0.3746
  152SAPE   O1316749   1.281   2.661   6.237 -0.4733 -0.0190  0.6969
  152SAPE   O1416750   1.390   2.865   6.144 -0.3461 -0.7493  0.1527
  152SAPE   O1216751   1.518   2.653   6.171 -0.2041 -0.6061  0.2240
  152SAPE   O1116752   1.355   2.663   5.998  0.3068 -0.2305 -0.0753
  152SAPE    C116753   1.344   2.522   5.994 -0.4181 -0.5835 -0.5149
  152SAPE    HA16754   1.440   2.472   6.020 -1.0937 -1.3961  0.5037
  152SAPE    HB16755   1.266   2.477   6.060 -0.4127 -1.8618 -1.3269
  152SAPE    C216756   1.302   2.472   5.852 -0.4885  0.3671 -0.2988
  152SAPE    HS16757   1.336   2.367   5.836 -1.3419  0.1072 -0.4431
  152SAPE   O2116758   1.364   2.554   5.757  0.5524 -0.0252  0.3397
  152SAPE   C2116759   1.498   2.537   5.737  0.6009  0.0468 -0.0239
  152SAPE   O2216760   1.559   2.455   5.803 -0.2010  0.1933  0.6791
  152SAPE   C2216761   1.546   2.617   5.624 -0.0034 -0.1081  0.1384
  152SAPE   H2R16762   1.465   2.685   5.591 -0.3565 -0.2696  0.6542
  152SAPE   H2S16763   1.635   2.675   5.657  0.0555 -0.4471  0.5851
  152SAPE    C316764   1.145   2.467   5.833  0.1865  0.4690 -0.0502
  152SAPE    HX16765   1.089   2.563   5.837  0.8451  0.8388  0.6203
  152SAPE    HY16766   1.110   2.405   5.919  0.6833  2.4061  1.6270
  152SAPE   O3116767   1.109   2.401   5.712 -0.1715 -0.8384  0.2705
  152SAPE   C3116768   1.086   2.479   5.605  0.7063 -0.6202  0.0290
  152SAPE   O3216769   1.108   2.598   5.602 -0.0604  0.1454 -0.2925
  152SAPE   C3216770   1.036   2.398   5.490  0.3783 -0.5661 -0.1789
  152SAPE   H2X16771   0.957   2.335   5.536  0.6931 -0.6057  0.3071
  152SAPE   H2Y16772   1.123   2.338   5.456  1.0910 -0.3354  1.1774
  152SAPE   C2316773   1.580   2.536   5.493 -0.5752  0.0099  0.2734
  152SAPE   H3R16774   1.661   2.468   5.528 -1.0983 -0.5738  0.3815
  152SAPE   H3S16775   1.630   2.602   5.420 -0.1600  0.4400  0.9342
  152SAPE   C2416776   1.455   2.463   5.431 -0.0430  0.4157  0.3422
  152SAPE   H4R16777   1.417   2.394   5.509  0.3373  1.7279  1.7443
  152SAPE   H4S16778   1.503   2.399   5.354 -1.0449  0.7559 -0.5961
  152SAPE   C2516779   1.344   2.552   5.378 -0.1097 -1.1180 -0.1974
  152SAPE   H5R16780   1.305   2.624   5.451 -1.4925 -1.9638 -0.0749
  152SAPE   C2616781   1.306   2.573   5.246  0.1084 -0.3791  1.0428
  152SAPE   H6R16782   1.222   2.644   5.234  1.9593  1.8349  0.4313
  152SAPE   C2716783   1.357   2.484   5.128  0.7597 -0.2982  0.3337
  152SAPE   H7R16784   1.405   2.388   5.158  2.1341 -0.2014 -1.3748
  152SAPE   H7S16785   1.427   2.539   5.061  1.4626 -0.9309  0.5280
  152SAPE   C2816786   1.241   2.454   5.028 -0.5674  0.6256 -0.0842
  152SAPE   H8R16787   1.138   2.467   5.065 -0.1885  0.9768  0.8824
  152SAPE   C2916788   1.237   2.464   4.890  0.0627 -0.3691  0.3153
  152SAPE   H9R16789   1.141   2.465   4.835 -0.1136  0.9596  0.6073
  152SAPE  C21016790   1.355   2.491   4.797  0.5228  0.5661  0.0565
  152SAPE  H10R16791   1.422   2.567   4.843  0.3532  1.2792 -0.8313
  152SAPE  H10S16792   1.324   2.544   4.704 -0.2179  1.3780  0.7603
  152SAPE  C21116793   1.432   2.369   4.766  0.0189  0.5488 -0.2797
  152SAPE  H11R16794   1.433   2.299   4.850 -0.0789  0.2387 -0.5358
  152SAPE  C21216795   1.499   2.343   4.650 -0.6324  0.2338  0.5379
  152SAPE  H12R16796   1.546   2.245   4.634  2.3577  1.7596 -0.7477
  152SAPE  C21316797   1.517   2.452   4.545  0.1196  0.1710 -0.2785
  152SAPE  H13R16798   1.564   2.543   4.588  2.3768  0.2389 -2.6589
  152SAPE  H13S16799   1.420   2.493   4.508 -1.0072  0.1411  2.4495
  152SAPE  C21416800   1.594   2.434   4.418  0.3725  0.0995  0.8234
  152SAPE  H14R16801   1.703   2.443   4.429  0.5213 -0.1329 -0.3375
  152SAPE  C21516802   1.541   2.425   4.290 -0.1514 -0.5291 -0.0224
  152SAPE  H15R16803   1.600   2.423   4.197 -0.6578 -1.0981 -0.3397
  152SAPE  C21616804   1.396   2.402   4.256  0.0900  0.3182 -0.1282
  152SAPE  H16R16805   1.342   2.369   4.348  0.7087 -1.1654 -0.2715
  152SAPE  H16S16806   1.386   2.308   4.199 -1.6997 -0.3117  1.1016
  152SAPE  C21716807   1.334   2.533   4.192 -0.3803  0.2342 -0.0142
  152SAPE  H17R16808   1.345   2.626   4.253  1.9135  0.3117 -0.4480
  152SAPE  H17S16809   1.230   2.513   4.158  0.1472 -1.1140 -0.9298
  152SAPE  C21816810   1.409   2.561   4.059  0.0089 -0.6722  0.1578
  152SAPE  H18R16811   1.511   2.599   4.082  0.0478  0.6245 -1.8900
  152SAPE  H18S16812   1.355   2.639   4.001 -0.9460 -1.7902 -0.4928
  152SAPE  C21916813   1.405   2.447   3.962 -0.4344  0.1510  0.3392
  152SAPE  H19R16814   1.296   2.424   3.956 -0.5962  1.0828 -0.6735
  152SAPE  H19S16815   1.455   2.361   4.011  2.9884 -0.3894 -3.5819
  152SAPE  C22016816   1.480   2.454   3.829  0.3755 -0.3683 -0.0378
  152SAPE  H20R16817   1.584   2.484   3.853  1.1866 -1.2552 -2.1481
  152SAPE  H20S16818   1.450   2.547   3.776  2.6293  0.3356 -0.1594
  152SAPE  H20T16819   1.481   2.359   3.772  0.6721 -0.2319 -0.2639
  152SAPE   C3316820   0.963   2.472   5.376  0.6017 -0.2401  0.6936
  152SAPE   H3X16821   1.014   2.566   5.347 -0.5262 -0.1397 -1.0969
  152SAPE   H3Y16822   0.862   2.514   5.396 -0.1233 -2.7359  2.7095
  152SAPE   C3416823   0.954   2.382   5.252 -0.1227 -0.0363  0.6817
  152SAPE   H4X16824   0.905   2.289   5.288 -0.5322 -0.6249 -1.2577
  152SAPE   H4Y16825   1.057   2.351   5.225 -0.3048  0.5762 -0.8326
  152SAPE   C3516826   0.881   2.452   5.131  0.2128  0.0297 -0.6299
  152SAPE   H5X16827   0.936   2.543   5.096 -1.3887  0.9369 -0.8591
  152SAPE   H5Y16828   0.785   2.496   5.163 -0.3241 -0.7935 -1.0887
  152SAPE   C3616829   0.862   2.353   5.013 -0.5967 -0.6024 -0.0666
  152SAPE   H6X16830   0.772   2.291   5.035 -1.7561  0.8896 -0.4264
  152SAPE   H6Y16831   0.953   2.289   5.010 -0.5194 -0.4564 -1.1569
  152SAPE   C3716832   0.853   2.421   4.882  0.4078  0.1442  0.6820
  152SAPE   H7X16833   0.913   2.514   4.870 -1.8653  1.6995  0.5884
  152SAPE   H7Y16834   0.749   2.460   4.873 -0.0747 -1.3774 -0.8256
  152SAPE   C3816835   0.881   2.331   4.761  0.9070  0.3692  0.8674
  152SAPE   H8X16836   0.796   2.259   4.766 -1.5502  3.0934  0.4406
  152SAPE   H8Y16837   0.975   2.279   4.792  1.0515  0.4666  0.5973
  152SAPE   C3916838   0.904   2.401   4.632  0.5416  0.0455 -0.1535
  152SAPE   H9X16839   1.000   2.456   4.646  0.6906 -0.0886 -0.6324
  152SAPE   H9Y16840   0.832   2.485   4.619  2.2634  1.7508  0.7072
  152SAPE  C31016841   0.902   2.304   4.507  0.1769 -0.1710 -0.9149
  152SAPE  H10X16842   0.808   2.245   4.511 -0.1807  0.3533 -1.5175
  152SAPE  H10Y16843   0.991   2.238   4.499  1.5128  1.6699 -1.7356
  152SAPE  C31116844   0.904   2.395   4.381 -0.4047  0.2668 -0.3188
  152SAPE  H11X16845   0.993   2.460   4.391 -1.2062  1.4625 -0.6574
  152SAPE  H11Y16846   0.817   2.465   4.389  0.3372  1.2607 -0.7165
  152SAPE  C31216847   0.894   2.310   4.252 -0.2009  0.3873 -0.5679
  152SAPE  H12X16848   0.827   2.226   4.281  0.0392  1.2799  3.0016
  152SAPE  H12Y16849   0.997   2.271   4.242 -0.7588 -1.5702  0.8425
  152SAPE  C31316850   0.854   2.367   4.118  0.4854 -0.2582  0.5447
  152SAPE  H13X16851   0.879   2.475   4.125 -0.8771  0.2627 -1.5340
  152SAPE  H13Y16852   0.744   2.353   4.122  0.1754  1.8269  0.3755
  152SAPE  C31416853   0.919   2.300   3.999 -0.6637  0.1242  0.2077
  152SAPE  H14X16854   0.903   2.191   4.005 -0.2468 -0.1012 -1.8677
  152SAPE  H14Y16855   1.029   2.310   3.995 -0.6387 -0.1267  0.2622
  152SAPE  C31516856   0.861   2.339   3.865 -1.2695  0.3761 -0.1559
  152SAPE  H15X16857   0.751   2.325   3.858 -1.4200  1.5130 -0.2745
  152SAPE  H15Y16858   0.903   2.269   3.790 -3.1375 -1.2826  0.2709
  152SAPE  C31616859   0.882   2.481   3.814  0.2722  0.3779 -0.4561
  152SAPE  H16X16860   0.838   2.548   3.891  0.7111 -1.1250  1.1574
  152SAPE  H16Y16861   0.831   2.486   3.715 -0.1673 -0.7936 -0.2974
  152SAPE  C31716862   1.028   2.524   3.784 -0.1414  0.0100  0.3889
  152SAPE  H17X16863   1.077   2.503   3.881 -0.0098 -3.5939 -0.3059
  152SAPE  H17Y16864   1.023   2.633   3.764 -2.0275  0.0117  0.7444
  152SAPE  C31816865   1.099   2.443   3.668  0.1433 -1.3767  0.4052
  152SAPE  H18X16866   1.119   2.340   3.706  1.1870 -1.2915  0.1219
  152SAPE  H18Y16867   1.203   2.477   3.649 -0.3957 -0.4572 -1.0626
  152SAPE  H18Z16868   1.048   2.451   3.570  0.4560 -0.8772  0.2830
  153SAPE     N16869   6.057   2.793   5.833 -0.5368  0.1946 -0.4372
  153SAPE   HN116870   5.986   2.831   5.900  0.9827 -0.5178  1.6908
  153SAPE   HN216871   6.026   2.694   5.830  0.2521 -0.3431  3.4946
  153SAPE   HN316872   6.152   2.789   5.875 -0.2518 -0.5036 -1.1345
  153SAPE   C1216873   6.064   2.854   5.692 -0.2614 -0.4532  0.0520
  153SAPE  H12A16874   5.962   2.864   5.650 -0.9091 -1.4805  1.3206
  153SAPE  H12B16875   6.130   2.790   5.629 -0.1746 -1.5160  1.1906
  153SAPE   C1116876   6.133   2.988   5.691 -0.2512  0.1445  0.0144
  153SAPE  H11A16877   6.073   3.060   5.751  0.3382 -0.0687  0.8839
  153SAPE  H11B16878   6.126   3.020   5.585 -2.3814 -0.9855 -0.2389
  153SAPE     P16879   6.370   3.096   5.716 -0.6638  0.4431  0.4008
  153SAPE   O1316880   6.317   3.213   5.792  0.0081  0.0011 -0.6019
  153SAPE   O1416881   6.507   3.063   5.761 -0.6211  0.2339  0.0963
  153SAPE   O1216882   6.271   2.971   5.737  0.1379 -0.6822  0.4686
  153SAPE   O1116883   6.360   3.138   5.562  0.3849  0.2747  0.2380
  153SAPE    C116884   6.410   3.063   5.454 -0.2300  0.6974 -0.0847
  153SAPE    HA16885   6.364   2.963   5.438  0.3265  0.6171 -1.2670
  153SAPE    HB16886   6.386   3.119   5.361  0.4025  0.6997 -0.2475
  153SAPE    C216887   6.563   3.043   5.452  0.4800 -0.1094  0.6096
  153SAPE    HS16888   6.599   2.982   5.538  0.6651 -1.6254 -0.4912
  153SAPE   O2116889   6.626   3.171   5.434 -0.4375  0.1812 -0.2968
  153SAPE   C2116890   6.746   3.179   5.481  0.1596 -0.3963  0.3820
  153SAPE   O2216891   6.806   3.095   5.546 -0.2843  0.2854  0.4514
  153SAPE   C2216892   6.811   3.302   5.429 -0.3147 -0.9454  0.6771
  153SAPE   H2R16893   6.737   3.384   5.434 -1.5270 -1.5026 -4.0069
  153SAPE   H2S16894   6.898   3.330   5.493 -0.4639  0.3852  0.3207
  153SAPE    C316895   6.594   2.954   5.334 -0.0318  0.2085  0.4557
  153SAPE    HX16896   6.532   2.862   5.336 -0.0459  0.1803 -0.6379
  153SAPE    HY16897   6.699   2.920   5.343  0.0476 -0.7943 -2.7433
  153SAPE   O3116898   6.563   3.013   5.201 -0.4657  0.1699 -0.3420
  153SAPE   C3116899   6.667   3.012   5.116 -0.3759 -0.1230 -0.3414
  153SAPE   O3216900   6.779   2.976   5.140 -0.3776  0.3419  0.1201
  153SAPE   C3216901   6.613   3.042   4.976 -0.2208 -0.3249 -0.2763
  153SAPE   H2X16902   6.550   3.132   4.988  1.2679  0.7906 -0.5209
  153SAPE   H2Y16903   6.544   2.959   4.950  0.2861 -0.2695 -1.8730
  153SAPE   C2316904   6.841   3.294   5.281 -0.2254  0.5593  0.2430
  153SAPE   H3R16905   6.747   3.296   5.223  0.6350  2.1687 -1.1662
  153SAPE   H3S16906   6.900   3.204   5.254  1.0823  1.0795  1.2398
  153SAPE   C2416907   6.925   3.412   5.221 -0.8507  0.1843  0.0003
  153SAPE   H4R16908   6.868   3.505   5.245 -0.7880  0.2349 -0.0458
  153SAPE   H4S16909   6.915   3.411   5.110 -1.1465  0.6937  0.0169
  153SAPE   C2516910   7.078   3.418   5.259  0.4112  0.7186 -0.0885
  153SAPE   H5R16911   7.099   3.441   5.364  2.1829  0.3378 -0.3342
  153SAPE   C2616912   7.179   3.367   5.189  0.2823  0.2731  0.2736
  153SAPE   H6R16913   7.277   3.359   5.238  0.0387  3.0913  1.4177
  153SAPE   C2716914   7.164   3.297   5.056 -0.1805  0.1815  0.3546
  153SAPE   H7R16915   7.159   3.367   4.971 -1.2368 -2.0147 -1.5081
  153SAPE   H7S16916   7.074   3.232   5.058  1.5101 -2.3485  2.1728
  153SAPE   C2816917   7.282   3.197   5.038 -0.1082  0.3185  0.3645
  153SAPE   H8R16918   7.317   3.155   5.134 -1.2528 -0.2151  0.5681
  153SAPE   C2916919   7.347   3.171   4.922  0.2544 -0.4401 -1.2295
  153SAPE   H9R16920   7.425   3.093   4.919  0.2819 -0.3838 -1.9710
  153SAPE  C21016921   7.313   3.235   4.792  0.4856  0.3453 -0.0560
  153SAPE  H10R16922   7.403   3.244   4.726 -0.0070  1.6928 -0.5954
  153SAPE  H10S16923   7.286   3.341   4.812 -0.5210  0.2791 -0.9486
  153SAPE  C21116924   7.195   3.167   4.729  0.4177  0.1329 -0.5950
  153SAPE  H11R16925   7.096   3.183   4.773 -0.4241 -1.7729 -1.6757
  153SAPE  C21216926   7.192   3.089   4.621  0.2393 -0.1363 -0.3460
  153SAPE  H12R16927   7.100   3.033   4.596  0.1211  0.1918 -0.6510
  153SAPE  C21316928   7.309   3.066   4.528 -0.0503 -0.1365 -0.5274
  153SAPE  H13R16929   7.314   2.960   4.495 -0.3321 -0.1465 -0.5477
  153SAPE  H13S16930   7.405   3.085   4.580 -0.7689 -1.0889  1.2554
  153SAPE  C21416931   7.300   3.152   4.403 -0.3163  0.3968  0.2799
  153SAPE  H14R16932   7.273   3.257   4.419  2.3401  1.2781 -0.5072
  153SAPE  C21516933   7.334   3.117   4.272 -0.1405 -0.2588 -0.5832
  153SAPE  H15R16934   7.329   3.197   4.197 -0.2876 -1.3834 -1.8128
  153SAPE  C21616935   7.395   2.987   4.232  0.6495  0.0982 -0.5039
  153SAPE  H16R16936   7.390   2.912   4.314 -2.2019  1.9617  1.2476
  153SAPE  H16S16937   7.504   2.987   4.210  0.8704 -0.2703  0.5324
  153SAPE  C21716938   7.299   2.938   4.124 -0.2830 -0.4847 -0.2701
  153SAPE  H17R16939   7.308   2.997   4.030 -0.4178  2.8779  1.6885
  153SAPE  H17S16940   7.192   2.948   4.153 -0.7129 -1.6152 -1.3665
  153SAPE  C21816941   7.319   2.790   4.082 -0.5017 -0.1220 -0.4241
  153SAPE  H18R16942   7.305   2.725   4.171  1.4255  0.6879  0.4998
  153SAPE  H18S16943   7.419   2.770   4.038  0.0789  0.9126  0.3967
  153SAPE  C21916944   7.212   2.734   3.981  0.0490  0.9161 -0.3992
  153SAPE  H19R16945   7.201   2.801   3.893  0.4354  1.6169  0.0768
  153SAPE  H19S16946   7.118   2.721   4.039  0.2947  1.8085  0.2148
  153SAPE  C22016947   7.248   2.602   3.909  0.0765 -0.7613 -0.0171
  153SAPE  H20R16948   7.170   2.587   3.831  0.0457 -0.6988  0.0016
  153SAPE  H20S16949   7.252   2.526   3.990 -2.1981  0.8647  1.7479
  153SAPE  H20T16950   7.352   2.601   3.870  0.1432 -1.6503  0.1726
  153SAPE   C3316951   6.731   3.063   4.877 -0.4459  0.4579 -0.1549
  153SAPE   H3X16952   6.774   2.963   4.853  1.7361  1.4467 -0.6790
  153SAPE   H3Y16953   6.817   3.126   4.910 -0.4947 -0.3894  1.6929
  153SAPE   C3416954   6.687   3.116   4.740  0.2957  0.1470 -0.8803
  153SAPE   H4X16955   6.626   3.208   4.751  0.8094  0.3382  0.5608
  153SAPE   H4Y16956   6.611   3.040   4.712 -0.2912  0.6382 -0.6472
  153SAPE   C3516957   6.794   3.127   4.633  0.7804  0.8036 -0.3799
  153SAPE   H5X16958   6.824   3.025   4.599  1.0013  1.1343 -1.2037
  153SAPE   H5Y16959   6.883   3.169   4.684  1.1719 -0.8307  0.3489
  153SAPE   C3616960   6.752   3.217   4.511 -0.3538  1.2553 -0.8199
  153SAPE   H6X16961   6.709   3.314   4.544 -1.7226 -0.4962  3.0913
  153SAPE   H6Y16962   6.665   3.169   4.462  0.1833  1.8810 -2.4646
  153SAPE   C3716963   6.873   3.241   4.416  0.1439 -0.0454  0.7995
  153SAPE   H7X16964   6.911   3.137   4.401  2.4886  0.6360  1.4910
  153SAPE   H7Y16965   6.949   3.301   4.471  3.9453 -2.9165 -0.7981
  153SAPE   C3816966   6.848   3.330   4.292  0.2171 -0.4624  0.7328
  153SAPE   H8X16967   6.822   3.435   4.320 -0.4542 -0.3923 -0.0778
  153SAPE   H8Y16968   6.764   3.287   4.234 -0.6635  0.7404  1.0657
  153SAPE   C3916969   6.972   3.330   4.213 -0.1349 -0.2114 -0.4800
  153SAPE   H9X16970   6.992   3.226   4.178 -0.5482  0.0229 -1.4552
  153SAPE   H9Y16971   7.067   3.355   4.266  0.1114 -2.2656  0.1110
  153SAPE  C31016972   6.955   3.417   4.084 -0.0526  0.3509  0.9537
  153SAPE  H10X16973   6.946   3.524   4.109 -0.4677  0.1284  1.7774
  153SAPE  H10Y16974   6.864   3.377   4.034 -0.5783 -1.5784  3.2734
  153SAPE  C31116975   7.070   3.409   3.983 -0.0059 -0.7372  0.5480
  153SAPE  H11X16976   7.084   3.307   3.940 -0.0565  0.3710 -2.3600
  153SAPE  H11Y16977   7.163   3.438   4.035  0.3458  1.5931 -1.2011
  153SAPE  C31216978   7.046   3.506   3.864 -0.0003 -0.4571 -0.3635
  153SAPE  H12X16979   7.040   3.609   3.905  0.7093 -0.7949  0.6157
  153SAPE  H12Y16980   6.950   3.492   3.810 -0.1039  0.7723 -0.5322
  153SAPE  C31316981   7.162   3.500   3.764  0.1884 -0.7045 -0.1309
  153SAPE  H13X16982   7.165   3.400   3.714  0.4278 -0.3826 -0.7659
  153SAPE  H13Y16983   7.254   3.510   3.825 -0.4527  0.3080  0.6970
  153SAPE  C31416984   7.175   3.602   3.653 -0.2276 -0.5890 -0.0024
  153SAPE  H14X16985   7.187   3.708   3.685  1.6000 -1.2832  1.8093
  153SAPE  H14Y16986   7.088   3.600   3.584 -1.6781  0.9812  1.6620
  153SAPE  C31516987   7.305   3.592   3.570 -0.6292  0.4337 -1.0839
  153SAPE  H15X16988   7.300   3.497   3.513  0.6026 -0.7612  0.6932
  153SAPE  H15Y16989   7.391   3.597   3.641 -2.0625  2.4611  0.6377
  153SAPE  C31616990   7.321   3.707   3.467  0.1559  0.0584 -0.6538
  153SAPE  H16X16991   7.432   3.713   3.457  0.5010 -1.2443  1.6794
  153SAPE  H16Y16992   7.288   3.804   3.508 -1.4283 -1.3800  1.7092
  153SAPE  C31716993   7.255   3.671   3.335  0.5535 -0.1479  0.3252
  153SAPE  H17X16994   7.146   3.671   3.356  0.5953 -0.0658  0.5430
  153SAPE  H17Y16995   7.281   3.567   3.305 -0.0344  0.3028 -1.9838
  153SAPE  C31816996   7.288   3.770   3.216 -0.3037  0.0511  0.2387
  153SAPE  H18X16997   7.396   3.754   3.194 -0.3244  1.4241 -0.9661
  153SAPE  H18Y16998   7.263   3.877   3.236 -0.6478  0.0079  0.0353
  153SAPE  H18Z16999   7.230   3.739   3.127 -0.7239  0.9592  0.1866
  154SAPE     N17000   3.163   6.920   6.110  0.3657 -0.0089  0.0878
  154SAPE   HN117001   3.197   6.914   6.012 -1.0248 -2.2207 -0.3445
  154SAPE   HN217002   3.060   6.911   6.105 -0.1231  3.7029  0.4830
  154SAPE   HN317003   3.195   7.007   6.157  0.5606 -0.9769  1.8487
  154SAPE   C1217004   3.233   6.816   6.190 -0.3210  0.2363  0.3366
  154SAPE  H12A17005   3.212   6.710   6.164  0.5707 -0.8771  3.6595
  154SAPE  H12B17006   3.200   6.819   6.296  1.4052 -1.8375  1.0264
  154SAPE   C1117007   3.384   6.846   6.174  0.3910 -0.1799 -0.1374
  154SAPE  H11A17008   3.425   6.769   6.243  0.0176  0.2818  0.6150
  154SAPE  H11B17009   3.402   6.948   6.213  1.9061 -1.1313  1.8430
  154SAPE     P17010   3.554   6.778   5.983 -0.4532  0.1015  0.5575
  154SAPE   O1317011   3.589   6.822   5.840 -0.2254 -0.1484 -0.3362
  154SAPE   O1417012   3.646   6.818   6.090  0.4001 -0.3948  0.4453
  154SAPE   O1217013   3.416   6.832   6.036 -0.0672  0.5209 -0.0038
  154SAPE   O1117014   3.537   6.620   5.987 -0.4800  0.1717  0.1593
  154SAPE    C117015   3.638   6.535   5.926  0.0092 -0.2999  0.3570
  154SAPE    HA17016   3.603   6.433   5.951 -1.5335 -0.0606 -0.6457
  154SAPE    HB17017   3.640   6.559   5.818  2.3952  3.0089  0.9855
  154SAPE    C217018   3.785   6.544   5.982  0.1756 -0.0411 -0.5628
  154SAPE    HS17019   3.776   6.525   6.092 -0.7167  1.0794 -0.4129
  154SAPE   O2117020   3.845   6.673   5.948  0.0941 -0.1909 -0.4467
  154SAPE   C2117021   3.956   6.707   6.010  0.0547 -0.1680  0.1320
  154SAPE   O2217022   4.001   6.655   6.111 -0.4813 -0.2086  0.0760
  154SAPE   C2217023   4.019   6.828   5.937 -0.1285 -0.3852 -0.2077
  154SAPE   H2R17024   3.942   6.880   5.877  0.4536  0.8072  0.0365
  154SAPE   H2S17025   4.041   6.903   6.017 -0.8892 -0.9246  0.5235
  154SAPE    C317026   3.866   6.434   5.917 -0.8355  0.0559 -0.0095
  154SAPE    HX17027   3.811   6.338   5.924  0.5451 -0.6305  2.4304
  154SAPE    HY17028   3.961   6.416   5.971 -0.0406  1.8831 -0.7242
  154SAPE   O3117029   3.911   6.464   5.790 -0.1183  0.1152  0.2768
  154SAPE   C3117030   3.941   6.359   5.722  0.6909  0.2841  0.4520
  154SAPE   O3217031   3.914   6.239   5.743 -0.4742  0.1213  0.0223
  154SAPE   C3217032   4.001   6.396   5.584 -0.4568 -0.0501 -0.5702
  154SAPE   H2X17033   4.040   6.308   5.530  1.7679 -0.5696  1.6745
  154SAPE   H2Y17034   4.084   6.465   5.612 -0.1346 -1.5350  2.5024
  154SAPE   C2317035   4.155   6.803   5.874  0.1551 -0.1245  0.1283
  154SAPE   H3R17036   4.223   6.759   5.950  0.9957 -2.3958 -1.8078
  154SAPE   H3S17037   4.202   6.897   5.840 -0.0346  0.5610  1.6650
  154SAPE   C2417038   4.141   6.716   5.747 -0.0237 -0.6149 -0.1699
  154SAPE   H4R17039   4.110   6.613   5.773  2.7418 -1.3152  0.6700
  154SAPE   H4S17040   4.244   6.703   5.707  0.1880 -0.8822  0.4468
  154SAPE   C2517041   4.063   6.772   5.633  0.1510  0.3483 -0.0877
  154SAPE   H5R17042   3.956   6.789   5.654  0.3855  1.7330  0.0745
  154SAPE   C2617043   4.103   6.818   5.519  0.2549 -0.7349  0.4064
  154SAPE   H6R17044   4.029   6.858   5.448 -1.5673 -0.7256  2.2194
  154SAPE   C2717045   4.242   6.827   5.463  0.4314  1.1235 -0.0847
  154SAPE   H7R17046   4.254   6.766   5.370 -1.9599 -1.7799  1.3337
  154SAPE   H7S17047   4.310   6.768   5.527 -1.2841  0.9971  1.7276
  154SAPE   C2817048   4.301   6.963   5.447 -0.3301 -0.2897 -0.7892
  154SAPE   H8R17049   4.352   6.994   5.540 -3.4600  0.0006  0.9518
  154SAPE   C2917050   4.292   7.053   5.351  0.3717  0.2913 -0.6167
  154SAPE   H9R17051   4.334   7.151   5.379 -1.3847  0.3312  2.3854
  154SAPE  C21017052   4.217   7.031   5.227  0.3217  0.5128 -0.1075
  154SAPE  H10R17053   4.169   6.931   5.228  0.6893  0.3310 -0.3537
  154SAPE  H10S17054   4.287   7.025   5.141 -1.2068  0.5160 -1.4144
  154SAPE  C21117055   4.121   7.150   5.204 -0.1755  0.5627 -0.6921
  154SAPE  H11R17056   4.172   7.245   5.182  1.7747 -0.6897 -1.8944
  154SAPE  C21217057   3.994   7.147   5.179  0.4558  0.5450  0.6697
  154SAPE  H12R17058   3.934   7.238   5.171 -1.4296 -0.7091 -0.2819
  154SAPE  C21317059   3.904   7.021   5.160 -0.7370 -0.1309 -0.0639
  154SAPE  H13R17060   3.871   6.992   5.262  0.2793  0.5062  0.4652
  154SAPE  H13S17061   3.959   6.940   5.107 -1.1035 -0.7622  0.5081
  154SAPE  C21417062   3.778   7.059   5.096  0.8690 -0.0331  0.1231
  154SAPE  H14R17063   3.727   7.132   5.160  1.0169  1.3814 -1.3255
  154SAPE  C21517064   3.733   7.021   4.975 -0.2767 -0.1187  0.0655
  154SAPE  H15R17065   3.634   7.057   4.945 -0.5376 -0.5794  0.3697
  154SAPE  C21617066   3.815   6.936   4.878  0.3252  0.0981 -0.3413
  154SAPE  H16R17067   3.800   6.830   4.907  0.0162  0.1912 -0.1583
  154SAPE  H16S17068   3.922   6.950   4.906  0.9874 -1.5357 -1.8211
  154SAPE  C21717069   3.799   6.956   4.722 -0.3798  0.5904  0.2571
  154SAPE  H17R17070   3.862   6.886   4.664 -0.4002  1.3627 -0.7259
  154SAPE  H17S17071   3.841   7.056   4.703  0.7045 -0.2007 -1.7852
  154SAPE  C21817072   3.656   6.954   4.668  0.5693 -0.2979 -0.3782
  154SAPE  H18R17073   3.591   7.023   4.726  0.3395  1.1902 -2.3373
  154SAPE  H18S17074   3.609   6.854   4.685 -1.7248  0.9976  1.5998
  154SAPE  C21917075   3.648   6.992   4.515  0.8866 -0.1548  0.5050
  154SAPE  H19R17076   3.585   6.920   4.460  0.7065  0.6005 -0.3046
  154SAPE  H19S17077   3.749   6.998   4.468  1.2655  0.7087  1.3935
  154SAPE  C22017078   3.585   7.131   4.502  0.3478  0.3266  0.2908
  154SAPE  H20R17079   3.477   7.141   4.525  0.9022  3.8375  2.0094
  154SAPE  H20S17080   3.598   7.163   4.396 -0.8106  1.0700  0.3598
  154SAPE  H20T17081   3.635   7.201   4.572  0.5753  0.2767  0.1795
  154SAPE   C3317082   3.899   6.469   5.496 -0.1814  0.3522  0.1257
  154SAPE   H3X17083   3.898   6.580   5.509 -1.2737  0.4128 -0.3762
  154SAPE   H3Y17084   3.792   6.442   5.509  0.2156 -1.8987 -0.9235
  154SAPE   C3417085   3.936   6.450   5.349  0.2135 -0.2572  0.2332
  154SAPE   H4X17086   3.909   6.345   5.326 -2.0206 -0.0044  1.3982
  154SAPE   H4Y17087   4.045   6.465   5.336  0.0903  1.1293  0.6387
  154SAPE   C3517088   3.862   6.551   5.256 -0.1362  0.4154  0.3900
  154SAPE   H5X17089   3.873   6.657   5.290 -1.0340  1.8512 -3.2926
  154SAPE   H5Y17090   3.753   6.534   5.263  0.0114 -0.1711  1.4832
  154SAPE   C3617091   3.906   6.551   5.112  0.5247  0.2033  0.6182
  154SAPE   H6X17092   3.840   6.617   5.051 -1.6577 -1.6881  0.8075
  154SAPE   H6Y17093   3.891   6.449   5.071 -0.6166 -0.1848  1.9302
  154SAPE   C3717094   4.048   6.606   5.083  0.3941  0.0827  0.2973
  154SAPE   H7X17095   4.113   6.520   5.108  0.2051 -0.3256 -0.5769
  154SAPE   H7Y17096   4.077   6.695   5.143 -0.4783  0.9054 -0.4706
  154SAPE   C3817097   4.076   6.615   4.934  0.1334  0.6356 -0.0154
  154SAPE   H8X17098   4.010   6.691   4.886 -0.1255  0.3354 -0.1369
  154SAPE   H8Y17099   4.037   6.524   4.883 -0.7343  0.7704  0.3890
  154SAPE   C3917100   4.220   6.660   4.901 -0.4958  0.3648 -0.5051
  154SAPE   H9X17101   4.292   6.590   4.949  0.6076  1.7866 -0.0005
  154SAPE   H9Y17102   4.237   6.765   4.934  0.6538 -0.4078  1.5443
  154SAPE  C31017103   4.243   6.641   4.751  0.2083  0.7312 -0.2317
  154SAPE  H10X17104   4.194   6.547   4.720  0.0588  0.4033  0.9588
  154SAPE  H10Y17105   4.352   6.633   4.733  0.1913  0.0669 -0.0457
  154SAPE  C31117106   4.175   6.744   4.661 -0.3215 -0.3104 -0.6992
  154SAPE  H11X17107   4.219   6.841   4.694  0.2701 -0.6662 -0.4243
  154SAPE  H11Y17108   4.068   6.747   4.689 -0.1574 -0.1077 -0.0883
  154SAPE  C31217109   4.192   6.709   4.512 -0.3875  0.2290  0.2092
  154SAPE  H12X17110   4.174   6.600   4.513 -1.2082  0.3482  2.3248
  154SAPE  H12Y17111   4.296   6.726   4.475  0.1816 -1.3683  0.9799
  154SAPE  C31317112   4.087   6.784   4.433  0.6240  0.1580  0.7033
  154SAPE  H13X17113   3.991   6.792   4.487  0.4955  0.0839  0.4865
  154SAPE  H13Y17114   4.074   6.716   4.346  0.1479 -1.7339  2.2039
  154SAPE  C31417115   4.119   6.928   4.387  0.2137  0.0862 -0.2092
  154SAPE  H14X17116   4.206   6.920   4.318  0.3893  0.7161 -0.0638
  154SAPE  H14Y17117   4.150   6.986   4.476 -2.0118 -0.5053  1.0400
  154SAPE  C31517118   4.004   7.006   4.322 -0.6205  0.2037  0.1720
  154SAPE  H15X17119   3.922   7.013   4.397 -1.6464 -1.3297 -0.7505
  154SAPE  H15Y17120   3.967   6.962   4.227 -1.2798 -1.8303  1.3091
  154SAPE  C31617121   4.042   7.154   4.297 -0.4694 -0.5114 -0.4282
  154SAPE  H16X17122   4.134   7.163   4.235 -1.2832  0.4063 -1.5505
  154SAPE  H16Y17123   4.066   7.181   4.402 -1.1181  0.9760 -0.6424
  154SAPE  C31717124   3.931   7.250   4.259  0.2522 -0.5837  0.7633
  154SAPE  H17X17125   3.950   7.352   4.298  2.6903  0.0692 -1.7883
  154SAPE  H17Y17126   3.845   7.233   4.328 -0.4280 -2.9120 -0.5205
  154SAPE  C31817127   3.882   7.255   4.115  0.5364  0.4905  0.1055
  154SAPE  H18X17128   3.793   7.194   4.087  1.6525 -0.6062 -1.2367
  154SAPE  H18Y17129   3.959   7.230   4.038  0.2905 -1.0718  0.3343
  154SAPE  H18Z17130   3.853   7.359   4.090  1.2341  0.2885 -1.7718
  155SAPE     N17131   5.251   6.982   6.155  0.4754  0.0988  0.3732
  155SAPE   HN117132   5.351   6.999   6.180  1.1844 -2.8010 -0.1775
  155SAPE   HN217133   5.174   7.020   6.214 -1.0853  1.2511 -2.2446
  155SAPE   HN317134   5.240   6.879   6.162  0.6766  0.1214  1.1422
  155SAPE   C1217135   5.209   7.014   6.010 -0.2266  0.1282 -0.4903
  155SAPE  H12A17136   5.257   6.932   5.954  1.2560 -0.8554  2.0288
  155SAPE  H12B17137   5.258   7.110   5.984  0.8128 -0.1618  0.3422
  155SAPE   C1117138   5.055   7.036   6.005  0.6560  0.0793 -0.0249
  155SAPE  H11A17139   4.993   6.945   6.022 -0.6458  0.9830  0.1850
  155SAPE  H11B17140   5.025   7.063   5.901 -1.3013  2.0161  0.9732
  155SAPE     P17141   4.921   7.124   6.222  0.3820  0.2597  0.3460
  155SAPE   O1317142   4.998   7.031   6.302  0.0344  0.2982  0.2262
  155SAPE   O1417143   4.883   7.251   6.284  0.5005 -0.4154 -0.6016
  155SAPE   O1217144   5.009   7.147   6.088  0.4065 -0.3964 -0.6175
  155SAPE   O1117145   4.790   7.051   6.179  0.1114  0.3418 -0.3005
  155SAPE    C117146   4.702   7.078   6.071 -0.9539 -0.1697 -0.3026
  155SAPE    HA17147   4.614   7.142   6.094  0.0225  1.6415 -1.3916
  155SAPE    HB17148   4.747   7.133   5.986 -1.8745  0.1022 -0.6225
  155SAPE    C217149   4.644   6.954   5.999 -0.3475 -0.1439  0.0851
  155SAPE    HS17150   4.601   6.896   6.083 -0.0715  1.8396  1.6635
  155SAPE   O2117151   4.760   6.892   5.942  0.9812 -0.2987  0.9429
  155SAPE   C2117152   4.740   6.766   5.918 -0.3442  0.4179 -0.5311
  155SAPE   O2217153   4.646   6.695   5.960  0.1649  0.1367  0.2371
  155SAPE   C2217154   4.845   6.707   5.832  0.1384  0.1137  0.2293
  155SAPE   H2R17155   4.875   6.784   5.758  3.3653 -0.9794  0.2473
  155SAPE   H2S17156   4.935   6.690   5.894 -0.1905 -1.4482  0.3042
  155SAPE    C317157   4.529   6.976   5.896  0.5897  0.0536  0.1530
  155SAPE    HX17158   4.451   7.037   5.946 -0.4036 -0.4358 -0.7796
  155SAPE    HY17159   4.483   6.878   5.873  1.4418 -0.5053  0.8027
  155SAPE   O3117160   4.585   7.041   5.783 -0.0081  0.0386  0.0821
  155SAPE   C3117161   4.585   7.181   5.787  0.1165 -0.7007  0.2900
  155SAPE   O3217162   4.522   7.247   5.868 -0.0348 -0.0719 -0.1085
  155SAPE   C3217163   4.688   7.243   5.695 -0.0812  0.7761 -0.6245
  155SAPE   H2X17164   4.704   7.352   5.712  0.8939  0.3761  1.3307
  155SAPE   H2Y17165   4.658   7.219   5.591 -1.3555 -1.6773  0.2470
  155SAPE   C2317166   4.796   6.582   5.764  0.1100 -0.0089  0.5347
  155SAPE   H3R17167   4.720   6.524   5.821 -0.1959 -0.1677 -0.0307
  155SAPE   H3S17168   4.888   6.520   5.770  1.3762  1.8629  1.7388
  155SAPE   C2417169   4.767   6.581   5.614 -0.3428  0.2811  0.0338
  155SAPE   H4R17170   4.751   6.475   5.585  0.3250  0.0434  0.5199
  155SAPE   H4S17171   4.852   6.612   5.549 -1.7875  1.0469 -1.5727
  155SAPE   C2517172   4.651   6.674   5.578 -1.1451 -0.1812 -0.3078
  155SAPE   H5R17173   4.571   6.674   5.653 -0.0367  0.3571  0.9214
  155SAPE   C2617174   4.637   6.752   5.468  0.4316  0.1223  0.2592
  155SAPE   H6R17175   4.544   6.810   5.461  0.6674  0.5986  0.9445
  155SAPE   C2717176   4.738   6.763   5.359  0.5115 -0.7256  0.0000
  155SAPE   H7R17177   4.699   6.728   5.261 -0.1842 -0.9009  0.3378
  155SAPE   H7S17178   4.828   6.704   5.388 -1.2199 -4.0890 -0.9431
  155SAPE   C2817179   4.770   6.910   5.351  0.0387  0.1942 -0.2711
  155SAPE   H8R17180   4.850   6.933   5.423  0.1352  0.0155 -0.3225
  155SAPE   C2917181   4.747   7.004   5.263 -0.2587 -0.0965  0.0551
  155SAPE   H9R17182   4.782   7.103   5.296  0.6744 -0.7502  1.0901
  155SAPE  C21017183   4.654   6.994   5.149  0.4682  0.2044 -0.0255
  155SAPE  H10R17184   4.573   7.066   5.172 -0.4558 -1.3127  1.7266
  155SAPE  H10S17185   4.603   6.896   5.145 -1.8203  1.2908  0.8597
  155SAPE  C21117186   4.732   7.008   5.021 -0.1578 -0.5083 -0.0457
  155SAPE  H11R17187   4.834   6.968   5.007  0.4841 -0.4424  3.4185
  155SAPE  C21217188   4.678   7.065   4.912  0.1686 -0.2447  0.0207
  155SAPE  H12R17189   4.730   7.071   4.816 -1.8961  3.8930 -1.0954
  155SAPE  C21317190   4.546   7.140   4.907 -0.5770 -0.4682  0.2845
  155SAPE  H13R17191   4.548   7.198   4.812 -1.8805  0.4805  0.8107
  155SAPE  H13S17192   4.544   7.229   4.973 -0.0028  2.2974 -3.1193
  155SAPE  C21417193   4.414   7.068   4.905 -0.7017  0.3675  0.2471
  155SAPE  H14R17194   4.412   6.985   4.976  1.2555 -0.4445 -0.5829
  155SAPE  C21517195   4.304   7.105   4.841  0.1089  0.6535  0.2736
  155SAPE  H15R17196   4.218   7.037   4.828 -0.7620  1.4653  1.4898
  155SAPE  C21617197   4.291   7.221   4.753  0.0030  0.1761  0.3995
  155SAPE  H16R17198   4.283   7.186   4.648  0.3076 -0.9177  0.7284
  155SAPE  H16S17199   4.381   7.286   4.754  0.7781 -0.5332 -3.9326
  155SAPE  C21717200   4.170   7.309   4.779  0.5573 -0.4021  1.2685
  155SAPE  H17R17201   4.176   7.409   4.731  1.5466 -0.3572  1.4667
  155SAPE  H17S17202   4.167   7.318   4.889  0.7357 -1.1137  1.3355
  155SAPE  C21817203   4.038   7.255   4.716 -0.8288  0.2522 -0.0240
  155SAPE  H18R17204   4.018   7.164   4.777 -0.0387  0.2138  0.1950
  155SAPE  H18S17205   4.059   7.221   4.612  1.4411 -2.1569  1.1224
  155SAPE  C21917206   3.922   7.351   4.730 -0.1260 -0.0709  0.2241
  155SAPE  H19R17207   3.854   7.308   4.654 -0.1737  0.7740 -0.2240
  155SAPE  H19S17208   3.946   7.452   4.689  1.2349 -1.1502 -1.7672
  155SAPE  C22017209   3.861   7.355   4.867  0.2341  0.3752  0.2083
  155SAPE  H20R17210   3.752   7.377   4.861 -0.0232 -0.2178  2.0775
  155SAPE  H20S17211   3.905   7.433   4.932 -0.7477  1.7219 -0.6778
  155SAPE  H20T17212   3.863   7.255   4.916  0.3369  0.2973  0.0468
  155SAPE   C3317213   4.828   7.183   5.726  0.0494  0.8635  0.2456
  155SAPE   H3X17214   4.823   7.072   5.732  2.0128  0.7693  0.8610
  155SAPE   H3Y17215   4.879   7.230   5.813  0.9634  0.3265  0.0048
  155SAPE   C3417216   4.933   7.198   5.611 -0.0175  0.6278  0.1268
  155SAPE   H4X17217   4.948   7.308   5.614  0.3330  0.6155 -0.8157
  155SAPE   H4Y17218   4.890   7.170   5.512  0.7119 -1.8300  0.4313
  155SAPE   C3517219   5.067   7.123   5.628  0.0002 -0.4391  0.2774
  155SAPE   H5X17220   5.045   7.015   5.615  0.8711 -0.5062 -0.6806
  155SAPE   H5Y17221   5.110   7.138   5.730 -0.7870 -0.6340  0.6497
  155SAPE   C3617222   5.164   7.174   5.529  0.3085 -0.0536 -0.0802
  155SAPE   H6X17223   5.257   7.117   5.552 -2.2670 -3.8308  2.0744
  155SAPE   H6Y17224   5.182   7.283   5.536 -0.4101  0.0079  0.9968
  155SAPE   C3717225   5.121   7.149   5.384 -0.0677  0.3014 -0.4516
  155SAPE   H7X17226   5.025   7.201   5.364  0.4163  1.4586  0.1443
  155SAPE   H7Y17227   5.096   7.042   5.367  2.2731 -0.1408 -1.6245
  155SAPE   C3817228   5.226   7.186   5.281  0.1711 -0.4345  0.1178
  155SAPE   H8X17229   5.318   7.129   5.307  0.4443  0.7073  1.8176
  155SAPE   H8Y17230   5.257   7.292   5.297  1.1985 -0.9043  1.4737
  155SAPE   C3917231   5.203   7.145   5.135  0.4808  0.4711 -0.2787
  155SAPE   H9X17232   5.112   7.196   5.096  0.3704  1.8118  1.5878
  155SAPE   H9Y17233   5.187   7.036   5.123  1.5175 -0.0153  2.0900
  155SAPE  C31017234   5.317   7.188   5.039  0.0931 -0.7090 -0.3028
  155SAPE  H10X17235   5.412   7.141   5.073 -0.2711  0.2415  2.2077
  155SAPE  H10Y17236   5.316   7.299   5.032 -3.0005 -0.6981 -0.8804
  155SAPE  C31117237   5.294   7.153   4.890 -0.2974 -0.3334  0.4616
  155SAPE  H11X17238   5.229   7.229   4.840 -0.8721 -0.2129  1.3665
  155SAPE  H11Y17239   5.246   7.053   4.891  1.4513 -1.2183  1.6279
  155SAPE  C31217240   5.421   7.147   4.806  0.2410 -0.3201 -0.1760
  155SAPE  H12X17241   5.481   7.065   4.851 -0.4076 -1.0692 -0.6590
  155SAPE  H12Y17242   5.473   7.244   4.820  0.1347 -0.2392 -0.3372
  155SAPE  C31317243   5.399   7.117   4.662  0.0607 -0.1664  0.2813
  155SAPE  H13X17244   5.302   7.156   4.624  0.0363 -1.2938 -0.8674
  155SAPE  H13Y17245   5.401   7.007   4.649  0.9724 -0.2810  1.3131
  155SAPE  C31417246   5.509   7.168   4.566 -0.1185  0.1452 -0.3502
  155SAPE  H14X17247   5.504   7.279   4.563  1.1225  0.2430  0.5263
  155SAPE  H14Y17248   5.497   7.132   4.461  0.9163  0.3492 -0.5458
  155SAPE  C31517249   5.644   7.114   4.612  0.6229  0.2507 -0.4201
  155SAPE  H15X17250   5.636   7.004   4.626  2.8430  0.1695  0.7112
  155SAPE  H15Y17251   5.664   7.163   4.710  0.9960 -0.9441  0.1273
  155SAPE  C31617252   5.756   7.141   4.508 -0.1002 -0.7930  0.4251
  155SAPE  H16X17253   5.744   7.245   4.469  2.1974 -0.5648  0.1727
  155SAPE  H16Y17254   5.766   7.066   4.427  2.8606 -0.8684  0.7424
  155SAPE  C31717255   5.888   7.128   4.581 -0.6518 -0.1894 -0.3250
  155SAPE  H17X17256   5.908   7.023   4.613  2.0253 -0.4077 -2.3610
  155SAPE  H17Y17257   5.879   7.195   4.669  0.8171  0.8547 -0.9356
  155SAPE  C31817258   6.017   7.149   4.502  0.2297  0.3411  0.0693
  155SAPE  H18X17259   6.021   7.248   4.451  1.1449 -0.7283 -2.0350
  155SAPE  H18Y17260   6.016   7.070   4.424 -1.2633 -0.5422  0.9392
  155SAPE  H18Z17261   6.100   7.126   4.571  0.7338 -0.2123 -0.7160
  156SAPE     N17262   6.698   1.823   6.109  0.0657  0.1261  0.9046
  156SAPE   HN117263   6.767   1.806   6.186  1.4347 -1.1375 -0.5124
  156SAPE   HN217264   6.634   1.897   6.142 -0.1021 -0.0952  1.0778
  156SAPE   HN317265   6.635   1.740   6.107 -1.5351  1.2804  1.3705
  156SAPE   C1217266   6.779   1.846   5.986  0.2854 -0.3749 -0.4911
  156SAPE  H12A17267   6.885   1.827   6.012 -0.5149 -2.4140  1.6465
  156SAPE  H12B17268   6.750   1.948   5.952 -0.9004  0.1534  1.8752
  156SAPE   C1117269   6.733   1.743   5.875  0.1357  0.0288 -0.3367
  156SAPE  H11A17270   6.798   1.767   5.788  0.2306  1.3445  0.0603
  156SAPE  H11B17271   6.627   1.769   5.852 -0.1414 -1.2486 -0.5596
  156SAPE     P17272   6.837   1.496   5.897  0.1663  0.1066 -0.3418
  156SAPE   O1317273   6.825   1.401   6.013 -0.4853  0.4808 -0.6352
  156SAPE   O1417274   6.819   1.442   5.761  0.0503 -0.1684  0.4804
  156SAPE   O1217275   6.735   1.608   5.920  0.3416  0.5001 -0.1519
  156SAPE   O1117276   6.977   1.566   5.902 -0.5425 -0.0796  0.5033
  156SAPE    C117277   7.050   1.581   6.027  0.0882  0.2242  0.4935
  156SAPE    HA17278   7.015   1.673   6.077 -1.0294 -0.6697  1.4110
  156SAPE    HB17279   7.047   1.496   6.098  3.1487  0.0442  0.5529
  156SAPE    C217280   7.209   1.606   6.002  0.1256  0.0626  0.2567
  156SAPE    HS17281   7.237   1.674   6.085 -0.0197 -0.5435  0.8143
  156SAPE   O2117282   7.235   1.657   5.873 -0.1971 -0.3005  0.2600
  156SAPE   C2117283   7.183   1.779   5.861 -0.3984 -0.3886 -0.2047
  156SAPE   O2217284   7.118   1.843   5.946 -0.6244 -0.5929  0.1807
  156SAPE   C2217285   7.218   1.836   5.723 -0.3089 -0.1486  0.7177
  156SAPE   H2R17286   7.198   1.945   5.720  0.9662  0.1449  1.9349
  156SAPE   H2S17287   7.325   1.814   5.702 -0.5381  0.5099 -1.4356
  156SAPE    C317288   7.292   1.480   6.009 -0.4448  0.5069 -0.5387
  156SAPE    HX17289   7.263   1.428   6.103 -0.1176  1.5918  0.1854
  156SAPE    HY17290   7.398   1.513   6.019  0.4128 -2.5350  2.4735
  156SAPE   O3117291   7.279   1.399   5.887 -0.1809  0.3358 -0.0276
  156SAPE   C3117292   7.198   1.298   5.898  0.2239 -0.0494 -0.3766
  156SAPE   O3217293   7.134   1.267   5.995  0.1455  0.1848  0.0078
  156SAPE   C3217294   7.165   1.264   5.758  1.0389  0.8725 -0.1946
  156SAPE   H2X17295   7.224   1.321   5.682 -0.1961  1.9724 -0.3774
  156SAPE   H2Y17296   7.057   1.290   5.749  0.3728 -1.8311 -0.9883
  156SAPE   C2317297   7.129   1.772   5.612  0.1875  0.0687  0.6009
  156SAPE   H3R17298   7.026   1.762   5.652 -0.0661 -1.5491 -0.3801
  156SAPE   H3S17299   7.161   1.670   5.580 -1.2814  0.2287 -1.6262
  156SAPE   C2417300   7.115   1.862   5.484 -0.7649 -0.6502 -0.0767
  156SAPE   H4R17301   7.112   1.966   5.522 -1.3968 -0.1372 -1.4563
  156SAPE   H4S17302   7.024   1.842   5.423  0.0765 -1.6849 -1.0633
  156SAPE   C2517303   7.240   1.853   5.408 -0.1626  0.5278  0.3710
  156SAPE   H5R17304   7.331   1.857   5.468 -0.0008 -1.4178  0.3189
  156SAPE   C2617305   7.249   1.808   5.280 -0.2406  0.2542  0.2331
  156SAPE   H6R17306   7.349   1.803   5.233  1.5103  2.3818  3.3684
  156SAPE   C2717307   7.131   1.756   5.197 -0.4157  0.2091 -0.5048
  156SAPE   H7R17308   7.037   1.806   5.229 -0.3307  0.2401 -0.3040
  156SAPE   H7S17309   7.114   1.647   5.212  1.2190 -0.0274 -0.2236
  156SAPE   C2817310   7.147   1.786   5.051  0.4547 -0.5477  0.4697
  156SAPE   H8R17311   7.229   1.847   5.011  0.6527 -1.4571 -0.5680
  156SAPE   C2917312   7.069   1.744   4.946  0.8631  0.1382 -0.6712
  156SAPE   H9R17313   7.093   1.772   4.842 -1.5372  3.3320 -0.5176
  156SAPE  C21017314   6.952   1.651   4.959  0.8567  0.5444 -0.0464
  156SAPE  H10R17315   6.863   1.712   4.985 -1.9563 -2.9663 -0.5787
  156SAPE  H10S17316   6.964   1.594   5.054 -0.1429 -1.4805 -1.0505
  156SAPE  C21117317   6.926   1.566   4.841  0.2160 -1.0018  0.7181
  156SAPE  H11R17318   6.988   1.475   4.839  1.1344 -0.4839 -3.3074
  156SAPE  C21217319   6.846   1.590   4.730 -0.1119  0.1574 -0.3464
  156SAPE  H12R17320   6.847   1.517   4.648  1.7778  0.6269 -0.7710
  156SAPE  C21317321   6.758   1.710   4.709 -0.1218  0.3091 -0.3994
  156SAPE  H13R17322   6.813   1.801   4.739  0.6653 -0.4974  0.6927
  156SAPE  H13S17323   6.673   1.693   4.778  0.5066 -0.2496  0.2513
  156SAPE  C21417324   6.707   1.732   4.574  0.1903 -0.5942 -0.0513
  156SAPE  H14R17325   6.598   1.725   4.565  0.1081  1.0018 -0.7065
  156SAPE  C21517326   6.768   1.801   4.476 -0.2568  0.2258 -0.1550
  156SAPE  H15R17327   6.732   1.815   4.372  2.9278  2.4596 -1.0965
  156SAPE  C21617328   6.893   1.878   4.487 -0.0853  0.7081  0.4308
  156SAPE  H16R17329   6.908   1.922   4.589  0.0240  1.5717  0.0545
  156SAPE  H16S17330   6.900   1.970   4.424 -0.6816  2.1095  2.2889
  156SAPE  C21717331   7.014   1.785   4.481  0.6352 -0.4883  0.4622
  156SAPE  H17R17332   7.021   1.756   4.374 -0.8581  2.0661 -0.4182
  156SAPE  H17S17333   7.003   1.694   4.545  2.7527 -0.2305  1.2579
  156SAPE  C21817334   7.150   1.848   4.505 -0.2227 -0.4031  0.1573
  156SAPE  H18R17335   7.149   1.902   4.602 -2.6393  0.0438 -0.0470
  156SAPE  H18S17336   7.182   1.921   4.428  2.4330 -1.2186  0.3748
  156SAPE  C21917337   7.257   1.739   4.527 -0.9470 -0.2833  0.0464
  156SAPE  H19R17338   7.244   1.680   4.620 -0.3864 -2.6547 -1.2960
  156SAPE  H19S17339   7.354   1.794   4.535 -0.3704 -1.3998  0.9062
  156SAPE  C22017340   7.278   1.642   4.409  0.3211  0.6798  0.0628
  156SAPE  H20R17341   7.281   1.692   4.309  0.9807 -0.3833 -0.4722
  156SAPE  H20S17342   7.206   1.557   4.410 -0.0542  0.9970  0.0304
  156SAPE  H20T17343   7.370   1.582   4.425 -0.1381 -0.0873 -0.1055
  156SAPE   C3317344   7.168   1.110   5.744 -0.4738 -0.8728  0.1096
  156SAPE   H3X17345   7.082   1.080   5.808 -0.3422 -1.9597 -0.2202
  156SAPE   H3Y17346   7.264   1.067   5.780 -0.3678  0.4925  1.5972
  156SAPE   C3417347   7.163   1.074   5.589  0.1669  0.2519 -0.5280
  156SAPE   H4X17348   7.085   1.133   5.536  0.4979  0.0131 -1.2877
  156SAPE   H4Y17349   7.133   0.968   5.579 -0.4616  0.0283  2.6116
  156SAPE   C3517350   7.293   1.094   5.510 -0.2264  0.4166 -0.1374
  156SAPE   H5X17351   7.355   1.011   5.551  1.0752  2.3680  2.1013
  156SAPE   H5Y17352   7.343   1.186   5.549  0.7238 -0.9546  2.0960
  156SAPE   C3617353   7.291   1.093   5.362  0.4824 -0.0060 -0.6180
  156SAPE   H6X17354   7.231   1.006   5.328 -1.4362 -0.0834  2.5193
  156SAPE   H6Y17355   7.391   1.077   5.317  0.9882 -2.1773  1.1148
  156SAPE   C3717356   7.237   1.228   5.302  0.2068 -0.2462  0.5282
  156SAPE   H7X17357   7.292   1.313   5.347 -0.6906  1.5783 -1.6608
  156SAPE   H7Y17358   7.129   1.228   5.329  0.2857 -1.0342  0.8978
  156SAPE   C3817359   7.259   1.234   5.153  0.6588  0.1517 -0.0621
  156SAPE   H8X17360   7.200   1.150   5.112  1.0592 -0.2591  0.1910
  156SAPE   H8Y17361   7.368   1.220   5.134  0.8552 -0.7943  1.5587
  156SAPE   C3917362   7.211   1.367   5.093 -0.0282  0.0769  0.7228
  156SAPE   H9X17363   7.248   1.451   5.155 -0.5254  0.4980  0.4514
  156SAPE   H9Y17364   7.100   1.366   5.108 -0.0831  2.3020  0.7712
  156SAPE  C31017365   7.248   1.375   4.946  0.2176 -0.1673  0.4878
  156SAPE  H10X17366   7.357   1.377   4.924  0.5073 -2.8104  1.3292
  156SAPE  H10Y17367   7.217   1.475   4.910  1.0702  0.7739  2.2095
  156SAPE  C31117368   7.162   1.280   4.866 -0.3160  0.7649 -0.5178
  156SAPE  H11X17369   7.057   1.302   4.893 -0.2916  0.5275 -0.2320
  156SAPE  H11Y17370   7.194   1.180   4.902 -0.0380  0.8712 -0.4703
  156SAPE  C31217371   7.172   1.281   4.713  0.0665  0.3217 -0.2445
  156SAPE  H12X17372   7.277   1.250   4.697  0.6914 -0.1373  3.6953
  156SAPE  H12Y17373   7.161   1.386   4.680  0.9319  0.3954 -0.3198
  156SAPE  C31317374   7.088   1.172   4.644 -0.2370  0.0601 -0.1014
  156SAPE  H13X17375   6.981   1.202   4.649 -0.4229  0.0567 -2.8205
  156SAPE  H13Y17376   7.106   1.076   4.696  3.3115 -0.4816 -1.9802
  156SAPE  C31417377   7.117   1.152   4.498 -0.4066  0.1338  0.3769
  156SAPE  H14X17378   7.192   1.227   4.467  1.0025 -1.8412 -1.2715
  156SAPE  H14Y17379   7.026   1.159   4.434 -1.2353 -2.6375  1.0912
  156SAPE  C31517380   7.167   1.012   4.475 -0.2089 -0.4882  0.4666
  156SAPE  H15X17381   7.093   0.943   4.520 -1.9890  0.6649 -0.6018
  156SAPE  H15Y17382   7.264   1.005   4.529 -1.0507  0.8483  2.2600
  156SAPE  C31617383   7.208   0.969   4.327  0.6068  0.0022 -0.2602
  156SAPE  H16X17384   7.263   1.059   4.293 -0.5177  0.9576  0.3741
  156SAPE  H16Y17385   7.109   0.970   4.277  0.3498  2.1202  0.1909
  156SAPE  C31717386   7.274   0.837   4.303 -1.0006 -0.2620  0.0644
  156SAPE  H17X17387   7.229   0.753   4.360  0.5883 -1.4572 -0.3613
  156SAPE  H17Y17388   7.382   0.829   4.326 -0.1932  3.7467 -1.5524
  156SAPE  C31817389   7.254   0.799   4.152 -0.0118 -0.3967 -0.2249
  156SAPE  H18X17390   7.146   0.787   4.127 -0.4932  2.3527  0.3056
  156SAPE  H18Y17391   7.308   0.707   4.120  2.3329  1.7909 -3.0842
  156SAPE  H18Z17392   7.284   0.881   4.084 -0.8243 -1.0526 -1.4143
  157SAPE     N17393   6.070   0.269   6.195 -0.4360 -0.6114  0.0294
  157SAPE   HN117394   6.026   0.298   6.105  0.8604  1.1526 -0.0823
  157SAPE   HN217395   6.156   0.324   6.211 -0.8792 -0.2645  1.3172
  157SAPE   HN317396   6.090   0.169   6.174 -0.4171 -0.8913  1.3377
  157SAPE   C1217397   5.981   0.300   6.306  0.3128 -0.0078  0.0324
  157SAPE  H12A17398   6.026   0.253   6.396  2.1660 -1.3978 -1.5395
  157SAPE  H12B17399   5.886   0.246   6.287  0.2849 -0.3532  1.0909
  157SAPE   C1117400   5.969   0.450   6.325 -0.2882  0.5111 -0.7728
  157SAPE  H11A17401   5.893   0.466   6.404  2.6433  0.8109  2.2077
  157SAPE  H11B17402   5.932   0.496   6.231 -3.1743  0.1287  0.0809
  157SAPE     P17403   6.131   0.650   6.366  0.4329 -0.1538  0.1844
  157SAPE   O1317404   6.008   0.727   6.342 -0.0036 -0.1594 -0.6381
  157SAPE   O1417405   6.214   0.683   6.482 -0.6626 -0.2090  0.2206
  157SAPE   O1217406   6.096   0.498   6.367  0.2286  1.0244 -0.0056
  157SAPE   O1117407   6.220   0.670   6.241 -0.1827  0.0442  0.2944
  157SAPE    C117408   6.329   0.574   6.221 -0.2034 -0.7467 -0.0204
  157SAPE    HA17409   6.369   0.531   6.315 -1.0164 -1.7004 -0.0885
  157SAPE    HB17410   6.289   0.488   6.163 -1.3243  0.2736 -0.7955
  157SAPE    C217411   6.455   0.634   6.144 -0.6344  0.3715  0.0460
  157SAPE    HS17412   6.493   0.719   6.205  0.0264  0.2654 -0.2104
  157SAPE   O2117413   6.427   0.681   6.008 -0.4028  0.3613 -0.2270
  157SAPE   C2117414   6.525   0.760   5.955 -0.7267  0.2913  0.2886
  157SAPE   O2217415   6.617   0.801   6.020 -0.5700  0.0199  0.0552
  157SAPE   C2217416   6.508   0.781   5.804 -0.7556  0.5829 -0.0179
  157SAPE   H2R17417   6.534   0.888   5.788  1.0313  0.2324  0.2746
  157SAPE   H2S17418   6.589   0.726   5.752 -0.3221  1.5969 -0.4526
  157SAPE    C317419   6.574   0.534   6.133  0.1156  0.3260  0.4911
  157SAPE    HX17420   6.600   0.519   6.239 -1.2812  3.7908  1.4681
  157SAPE    HY17421   6.666   0.587   6.099  0.5376 -0.5575  0.2410
  157SAPE   O3117422   6.547   0.411   6.061  0.2519  0.2222  0.0447
  157SAPE   C3117423   6.600   0.416   5.935  0.8266  0.4890  0.0315
  157SAPE   O3217424   6.668   0.506   5.890  0.1604 -0.4093 -0.6987
  157SAPE   C3217425   6.570   0.290   5.865 -0.6496 -0.3991  0.2211
  157SAPE   H2X17426   6.528   0.218   5.939 -0.7193 -0.2789  0.2998
  157SAPE   H2Y17427   6.668   0.253   5.829  0.7983  1.3417  2.1267
  157SAPE   C2317428   6.369   0.745   5.742 -0.0762  0.0719  0.4136
  157SAPE   H3R17429   6.290   0.802   5.794  1.3093  0.6818  1.9421
  157SAPE   H3S17430   6.356   0.635   5.754 -0.8053 -0.1220 -1.6811
  157SAPE   C2417431   6.355   0.770   5.594  0.1354  0.2090 -0.6527
  157SAPE   H4R17432   6.259   0.731   5.554  0.0141  0.1505 -0.3045
  157SAPE   H4S17433   6.442   0.719   5.546  0.8001  0.7655 -0.0609
  157SAPE   C2517434   6.366   0.915   5.570  0.1052 -0.2308 -1.0612
  157SAPE   H5R17435   6.405   0.978   5.652 -0.5203  0.1693 -1.0677
  157SAPE   C2617436   6.321   0.969   5.461  0.4350  0.3667 -0.2352
  157SAPE   H6R17437   6.328   1.078   5.449 -0.7585  0.1558 -4.2780
  157SAPE   C2717438   6.251   0.892   5.347  0.8746  0.1942  0.0165
  157SAPE   H7R17439   6.180   0.958   5.293  0.1921 -2.1545 -2.1728
  157SAPE   H7S17440   6.194   0.806   5.390  0.7556  0.0267 -0.4698
  157SAPE   C2817441   6.344   0.835   5.243 -0.8117  0.0967 -0.2661
  157SAPE   H8R17442   6.449   0.823   5.274 -0.5036  1.1205 -0.9000
  157SAPE   C2917443   6.323   0.815   5.112 -0.0105  0.2752 -0.1497
  157SAPE   H9R17444   6.411   0.783   5.053  0.0721  1.5757 -0.7683
  157SAPE  C21017445   6.200   0.861   5.035 -1.1258 -0.4398 -0.2299
  157SAPE  H10R17446   6.234   0.947   4.974  1.2900 -0.6160  0.7502
  157SAPE  H10S17447   6.114   0.880   5.102 -0.4937  2.0825 -0.0583
  157SAPE  C21117448   6.151   0.758   4.932 -0.4078  0.9330  0.0980
  157SAPE  H11R17449   6.093   0.679   4.983  0.5011 -0.9698 -1.6599
  157SAPE  C21217450   6.181   0.748   4.801 -0.1628 -0.0199  0.5065
  157SAPE  H12R17451   6.163   0.652   4.751  1.2599  0.7015 -1.5508
  157SAPE  C21317452   6.280   0.833   4.728  0.2293  0.4714  0.1585
  157SAPE  H13R17453   6.374   0.779   4.702 -0.3423 -0.0781 -0.8577
  157SAPE  H13S17454   6.302   0.929   4.778 -2.1701  1.4567 -0.4939
  157SAPE  C21417455   6.216   0.877   4.601 -0.5191  1.0179  1.0912
  157SAPE  H14R17456   6.126   0.940   4.615 -1.4051 -0.4607  2.4195
  157SAPE  C21517457   6.250   0.846   4.470  1.0630 -0.5678  0.7140
  157SAPE  H15R17458   6.181   0.882   4.393 -0.4230 -1.2106  1.6851
  157SAPE  C21617459   6.363   0.758   4.420 -1.0409 -0.3962  0.5890
  157SAPE  H16R17460   6.334   0.684   4.342  1.2155 -0.2469 -0.4446
  157SAPE  H16S17461   6.413   0.702   4.501  2.8128 -2.2087 -2.6894
  157SAPE  C21717462   6.476   0.841   4.351 -0.3038 -0.0598  0.4239
  157SAPE  H17R17463   6.420   0.890   4.268 -1.1154  0.0001  0.9897
  157SAPE  H17S17464   6.560   0.785   4.307 -2.2436 -2.6073 -0.2423
  157SAPE  C21817465   6.542   0.948   4.443 -0.2981 -0.5683  0.1408
  157SAPE  H18R17466   6.479   1.016   4.505 -0.9931 -2.7808  1.9923
  157SAPE  H18S17467   6.604   1.012   4.376 -0.8255 -0.1328  0.0574
  157SAPE  C21917468   6.638   0.884   4.542  0.0419 -0.1628  0.0038
  157SAPE  H19R17469   6.717   0.825   4.490  0.5624 -1.2299  1.8680
  157SAPE  H19S17470   6.581   0.807   4.599 -0.7497  1.7903  1.9964
  157SAPE  C22017471   6.712   0.967   4.636  0.0108 -0.4670 -0.0716
  157SAPE  H20R17472   6.756   1.055   4.585 -0.5482  0.5546  1.1614
  157SAPE  H20S17473   6.799   0.910   4.676  0.0351 -0.6852 -0.4338
  157SAPE  H20T17474   6.643   1.009   4.713  1.1674  0.2405  0.6196
  157SAPE   C3317475   6.486   0.312   5.742 -0.8038 -1.0156 -0.1690
  157SAPE   H3X17476   6.407   0.387   5.762  1.2687  0.8339  1.7066
  157SAPE   H3Y17477   6.423   0.222   5.726 -1.5780 -0.3685 -0.8058
  157SAPE   C3417478   6.572   0.352   5.621  0.6427  0.4620 -0.0562
  157SAPE   H4X17479   6.675   0.311   5.619  0.0244 -1.1468 -2.4966
  157SAPE   H4Y17480   6.568   0.462   5.608 -1.4052  0.4076 -0.2790
  157SAPE   C3517481   6.518   0.283   5.490 -0.2485  0.4429  0.0282
  157SAPE   H5X17482   6.407   0.296   5.489 -0.7115 -2.5470  1.0280
  157SAPE   H5Y17483   6.522   0.172   5.489 -0.1030  0.4412 -1.4769
  157SAPE   C3617484   6.588   0.325   5.358 -0.3289  0.6506 -0.7190
  157SAPE   H6X17485   6.556   0.279   5.263  2.7386  0.2710 -1.6890
  157SAPE   H6Y17486   6.694   0.291   5.363 -1.1553 -2.0125  1.0646
  157SAPE   C3717487   6.565   0.481   5.338 -0.5982  0.2520  0.1875
  157SAPE   H7X17488   6.632   0.531   5.410 -0.2276  0.7040 -0.4631
  157SAPE   H7Y17489   6.457   0.498   5.360 -0.7286  0.2592 -0.4397
  157SAPE   C3817490   6.614   0.527   5.197  0.2115  0.2888  0.4748
  157SAPE   H8X17491   6.711   0.480   5.171 -0.1088  0.4991 -1.1999
  157SAPE   H8Y17492   6.635   0.636   5.209  0.3390  0.2040  1.0406
  157SAPE   C3917493   6.514   0.497   5.081 -0.4090  0.2085  0.0787
  157SAPE   H9X17494   6.420   0.556   5.090 -0.2051  0.4470  0.6785
  157SAPE   H9Y17495   6.483   0.391   5.075 -0.3485  0.1958 -0.0099
  157SAPE  C31017496   6.573   0.529   4.937  0.3714 -0.0927 -0.7967
  157SAPE  H10X17497   6.672   0.477   4.936  0.0714 -0.8095  1.3810
  157SAPE  H10Y17498   6.600   0.637   4.935  2.2525 -0.3884  1.8650
  157SAPE  C31117499   6.480   0.487   4.818 -0.2744  0.5046 -0.1694
  157SAPE  H11X17500   6.531   0.529   4.729 -1.3712 -1.4661 -1.8057
  157SAPE  H11Y17501   6.381   0.536   4.825 -0.3951  0.2231  0.1383
  157SAPE  C31217502   6.460   0.335   4.794 -0.0540  0.1803  0.3054
  157SAPE  H12X17503   6.384   0.288   4.862  0.3336 -1.1790 -0.1691
  157SAPE  H12Y17504   6.554   0.283   4.823  0.7553  1.6387  0.3516
  157SAPE  C31317505   6.427   0.304   4.648  0.0907 -0.7139  0.1254
  157SAPE  H13X17506   6.426   0.193   4.642 -1.8844 -0.7320  0.1317
  157SAPE  H13Y17507   6.508   0.339   4.581  0.5365 -1.0807  0.4531
  157SAPE  C31417508   6.297   0.351   4.598 -0.4681 -0.2532 -0.1806
  157SAPE  H14X17509   6.286   0.452   4.642 -1.1154 -0.4844  0.2091
  157SAPE  H14Y17510   6.205   0.303   4.640 -1.5413 -0.6981 -2.8648
  157SAPE  C31517511   6.295   0.362   4.442 -0.1888 -0.3235 -0.0436
  157SAPE  H15X17512   6.371   0.438   4.413 -0.7305 -0.3387 -1.5952
  157SAPE  H15Y17513   6.199   0.406   4.406  2.2031  2.8649 -3.2683
  157SAPE  C31617514   6.327   0.240   4.357  0.1106 -0.2938 -0.9952
  157SAPE  H16X17515   6.252   0.165   4.389 -1.7872  2.0007  0.2676
  157SAPE  H16Y17516   6.431   0.202   4.370 -0.2315 -0.9500 -0.0551
  157SAPE  C31717517   6.300   0.269   4.211 -0.3369  0.2948 -0.5938
  157SAPE  H17X17518   6.371   0.341   4.164 -1.4402  0.7110 -1.6774
  157SAPE  H17Y17519   6.205   0.323   4.189 -0.9732 -0.3200  0.5534
  157SAPE  C31817520   6.304   0.150   4.114  0.0426  0.1850 -0.5108
  157SAPE  H18X17521   6.259   0.185   4.018 -1.4713  0.1158  0.1401
  157SAPE  H18Y17522   6.233   0.073   4.151 -0.1763  0.4632 -0.3483
  157SAPE  H18Z17523   6.409   0.113   4.107  0.7350  2.1682 -1.3018
  158SAPE     N17524   0.645   0.964   6.303  0.4068  0.2640  0.3482
  158SAPE   HN117525   0.660   1.030   6.383  2.4366  0.3621 -0.0754
  158SAPE   HN217526   0.720   0.893   6.296 -1.6436 -2.5612  3.6852
  158SAPE   HN317527   0.638   1.019   6.215  0.1620  0.3299  0.4055
  158SAPE   C1217528   0.513   0.896   6.344 -0.0305 -0.3125 -0.1958
  158SAPE  H12A17529   0.423   0.957   6.320 -0.4554 -1.2577 -1.1292
  158SAPE  H12B17530   0.511   0.876   6.453  0.3785 -1.0185 -0.3111
  158SAPE   C1117531   0.478   0.762   6.271 -0.0766  0.4037 -0.2721
  158SAPE  H11A17532   0.480   0.775   6.161  1.7498 -1.2201 -0.4851
  158SAPE  H11B17533   0.372   0.740   6.297 -0.2562  3.0782  1.6904
  158SAPE     P17534   0.697   0.622   6.249  0.3328 -0.2101  0.0463
  158SAPE   O1317535   0.786   0.745   6.252  1.1079  0.0102  0.2915
  158SAPE   O1417536   0.747   0.509   6.340 -0.5376  0.0812  0.1713
  158SAPE   O1217537   0.559   0.657   6.310  0.0293  0.1434 -0.3051
  158SAPE   O1117538   0.661   0.575   6.110 -0.0700 -0.0759  0.6741
  158SAPE    C117539   0.643   0.436   6.065  0.9484 -0.0519  0.1811
  158SAPE    HA17540   0.593   0.371   6.140  0.3070  0.5444  0.2777
  158SAPE    HB17541   0.560   0.429   5.992 -2.4303  0.0310  3.6505
  158SAPE    C217542   0.777   0.379   6.009  0.4266 -0.5964 -0.0791
  158SAPE    HS17543   0.839   0.343   6.094  1.6950  1.4512 -0.0738
  158SAPE   O2117544   0.855   0.479   5.943  0.4599 -0.2350  0.6059
  158SAPE   C2117545   0.983   0.447   5.922 -0.1868 -0.8298  0.0975
  158SAPE   O2217546   1.029   0.344   5.956 -0.6160  0.6308 -0.0966
  158SAPE   C2217547   1.049   0.553   5.832 -0.4475 -0.0903 -0.4976
  158SAPE   H2R17548   1.077   0.638   5.898 -2.1798  1.6057 -1.8299
  158SAPE   H2S17549   1.142   0.510   5.788  0.1783  0.2510  0.4551
  158SAPE    C317550   0.747   0.245   5.922 -0.5202 -0.1817  0.2391
  158SAPE    HX17551   0.685   0.177   5.983 -2.0216  2.3206  1.6495
  158SAPE    HY17552   0.839   0.184   5.911 -0.9437 -0.8123  0.1453
  158SAPE   O3117553   0.689   0.272   5.792 -0.4147  0.1697  0.7104
  158SAPE   C3117554   0.559   0.242   5.781 -0.6299  0.0693 -0.5482
  158SAPE   O3217555   0.483   0.212   5.868  0.4882  0.1833  0.2627
  158SAPE   C3217556   0.517   0.272   5.639 -0.1984 -0.5719 -0.4475
  158SAPE   H2X17557   0.599   0.236   5.573  2.4722 -0.1046  2.4187
  158SAPE   H2Y17558   0.513   0.381   5.619 -1.0963 -0.8089 -1.6997
  158SAPE   C2317559   0.956   0.601   5.719 -0.6545 -0.4146 -0.6565
  158SAPE   H3R17560   1.000   0.687   5.664 -0.2520  0.7573  1.4225
  158SAPE   H3S17561   0.862   0.642   5.760 -0.7569  0.5576 -1.8127
  158SAPE   C2417562   0.927   0.482   5.629  0.2893 -0.9204  0.2294
  158SAPE   H4R17563   0.879   0.400   5.687  0.7447 -0.2867  1.5469
  158SAPE   H4S17564   1.024   0.447   5.588  1.7307  2.6978  0.1376
  158SAPE   C2517565   0.821   0.539   5.531 -0.2429  0.3756 -0.8515
  158SAPE   H5R17566   0.739   0.592   5.582  0.4487  0.0707  0.6250
  158SAPE   C2617567   0.832   0.553   5.403 -0.7190  0.0156  0.2050
  158SAPE   H6R17568   0.747   0.597   5.349  0.4113  0.3946 -1.3190
  158SAPE   C2717569   0.950   0.511   5.318  0.3600  0.0506 -1.1323
  158SAPE   H7R17570   0.922   0.411   5.279  1.5489 -0.8628  0.2574
  158SAPE   H7S17571   1.034   0.485   5.386 -0.0757 -0.3821 -0.7547
  158SAPE   C2817572   0.988   0.599   5.198  0.0376  0.7473 -0.0888
  158SAPE   H8R17573   1.079   0.659   5.206 -0.1483  1.0736 -0.3991
  158SAPE   C2917574   0.938   0.602   5.069  0.2627 -0.8063  0.2067
  158SAPE   H9R17575   0.998   0.655   4.993  0.5177  1.4016  1.8380
  158SAPE  C21017576   0.816   0.520   5.015 -0.1626 -0.1580  0.0932
  158SAPE  H10R17577   0.795   0.448   5.097  0.7527 -2.1211 -1.3084
  158SAPE  H10S17578   0.853   0.459   4.930  1.3152  0.8639 -0.0322
  158SAPE  C21117579   0.686   0.594   4.987  0.3493 -0.6941  0.6754
  158SAPE  H11R17580   0.604   0.546   5.042 -0.4735  1.7330  1.6642
  158SAPE  C21217581   0.660   0.705   4.912 -0.0254  0.8854  0.3946
  158SAPE  H12R17582   0.572   0.767   4.936  0.6140  1.3364  1.6777
  158SAPE  C21317583   0.761   0.777   4.820 -0.3801 -0.0152 -0.5238
  158SAPE  H13R17584   0.699   0.801   4.731 -2.3414 -1.0851  0.4799
  158SAPE  H13S17585   0.833   0.704   4.778 -0.4739  0.5868 -1.7787
  158SAPE  C21417586   0.854   0.876   4.879 -0.9024  0.1839 -0.2788
  158SAPE  H14R17587   0.869   0.871   4.987  1.1438  1.2083 -0.4531
  158SAPE  C21517588   0.904   0.976   4.806  0.5522 -0.3673  0.4341
  158SAPE  H15R17589   0.959   1.054   4.861 -1.5657  0.1408  1.9688
  158SAPE  C21617590   0.879   1.000   4.657  0.7962 -0.6232 -0.7766
  158SAPE  H16R17591   0.841   1.104   4.643 -1.1965 -0.8185  2.2009
  158SAPE  H16S17592   0.802   0.935   4.610 -0.0665  1.3850 -2.2925
  158SAPE  C21717593   1.000   0.984   4.553  0.2163 -0.0025 -0.3084
  158SAPE  H17R17594   1.088   1.041   4.591  0.7311  0.3925 -1.9954
  158SAPE  H17S17595   0.964   1.040   4.464 -1.9972  1.1471  1.2121
  158SAPE  C21817596   1.047   0.842   4.518  0.5177 -0.4910 -0.1988
  158SAPE  H18R17597   0.986   0.771   4.577  3.0961 -1.9539  0.9027
  158SAPE  H18S17598   1.148   0.832   4.564  0.4353 -0.8778 -0.0970
  158SAPE  C21917599   1.046   0.798   4.377  0.3044  0.0251  0.2408
  158SAPE  H19R17600   0.946   0.808   4.329 -0.2682 -1.1577  1.1328
  158SAPE  H19S17601   1.072   0.691   4.372  1.6360  0.3910 -1.6919
  158SAPE  C22017602   1.161   0.857   4.288  0.2754 -0.4195 -0.4110
  158SAPE  H20R17603   1.254   0.840   4.346  0.8649 -0.4589 -1.3514
  158SAPE  H20S17604   1.143   0.965   4.273 -1.1767 -0.4948  0.5634
  158SAPE  H20T17605   1.168   0.802   4.191  2.6168  0.0485 -0.5639
  158SAPE   C3317606   0.391   0.191   5.604  0.3576  0.5800  0.1686
  158SAPE   H3X17607   0.297   0.221   5.655 -2.1195 -2.8999 -1.9441
  158SAPE   H3Y17608   0.411   0.085   5.627 -2.0941 -0.0085 -0.2224
  158SAPE   C3417609   0.352   0.201   5.454  0.0858  0.1220  0.2788
  158SAPE   H4X17610   0.317   0.302   5.425  0.2898  0.1149  0.0015
  158SAPE   H4Y17611   0.269   0.129   5.435 -0.5063  0.6832  0.6951
  158SAPE   C3517612   0.459   0.153   5.356  0.1595  0.4403  0.7878
  158SAPE   H5X17613   0.504   0.058   5.392  1.8535  0.9192  0.0598
  158SAPE   H5Y17614   0.537   0.232   5.349  1.2055 -0.6825 -0.8070
  158SAPE   C3617615   0.383   0.129   5.215  0.0854 -0.1965 -0.6471
  158SAPE   H6X17616   0.297   0.200   5.211 -0.6032 -1.0143 -0.6714
  158SAPE   H6Y17617   0.340   0.027   5.229 -1.7343  0.7227  0.9484
  158SAPE   C3717618   0.471   0.135   5.095 -0.7007 -0.3116 -0.9421
  158SAPE   H7X17619   0.484   0.032   5.055 -0.9504 -1.1663  1.0581
  158SAPE   H7Y17620   0.567   0.182   5.127 -0.7202 -1.5601  1.1159
  158SAPE   C3817621   0.398   0.220   4.991 -0.2810  0.1372 -0.1401
  158SAPE   H8X17622   0.386   0.319   5.041  3.9962  0.5678  0.4453
  158SAPE   H8Y17623   0.298   0.175   4.974 -0.5447  0.8353 -0.4766
  158SAPE   C3917624   0.472   0.251   4.865 -0.3440  0.3736 -0.7369
  158SAPE   H9X17625   0.492   0.162   4.802 -0.5463  1.1498 -1.9355
  158SAPE   H9Y17626   0.572   0.288   4.895 -0.5903  0.1126  0.4688
  158SAPE  C31017627   0.392   0.347   4.780  1.0483 -0.4265  0.1040
  158SAPE  H10X17628   0.411   0.449   4.819 -2.5856 -0.0498  1.2006
  158SAPE  H10Y17629   0.284   0.323   4.792  1.4183 -0.9192  3.0427
  158SAPE  C31117630   0.441   0.339   4.629  0.1529  0.7288  0.1721
  158SAPE  H11X17631   0.404   0.249   4.576  2.0675  0.1309 -0.2215
  158SAPE  H11Y17632   0.551   0.334   4.639  0.3573  2.7500 -0.4892
  158SAPE  C31217633   0.402   0.464   4.544  0.3712 -0.2673  0.3861
  158SAPE  H12X17634   0.466   0.548   4.581  0.1949  0.8719 -1.7276
  158SAPE  H12Y17635   0.295   0.493   4.546  1.0850  3.1143 -1.7072
  158SAPE  C31317636   0.438   0.443   4.399  0.0338  0.1168  0.2475
  158SAPE  H13X17637   0.346   0.453   4.338 -0.8288 -0.7706  1.3665
  158SAPE  H13Y17638   0.477   0.342   4.373  0.3214 -0.1334  1.5931
  158SAPE  C31417639   0.539   0.551   4.347  0.2377 -0.6664 -0.3325
  158SAPE  H14X17640   0.611   0.579   4.426 -0.0654  0.6787 -0.5114
  158SAPE  H14Y17641   0.485   0.648   4.341 -1.2756 -1.3157  1.5913
  158SAPE  C31517642   0.611   0.519   4.219 -0.6115  0.1048 -0.4585
  158SAPE  H15X17643   0.530   0.512   4.143 -0.9433  0.5309 -0.1502
  158SAPE  H15Y17644   0.666   0.423   4.228  0.3429  0.8138  1.9151
  158SAPE  C31617645   0.706   0.631   4.187 -0.3080 -0.0368  0.2925
  158SAPE  H16X17646   0.785   0.634   4.266  1.1704  0.3338 -1.1289
  158SAPE  H16Y17647   0.652   0.728   4.191 -0.7278 -0.2854  3.0136
  158SAPE  C31717648   0.768   0.623   4.051 -0.2294 -0.0184  0.0491
  158SAPE  H17X17649   0.822   0.717   4.024  2.8959 -0.9684  2.3327
  158SAPE  H17Y17650   0.684   0.607   3.981 -1.7032  1.7712  1.3208
  158SAPE  C31817651   0.883   0.524   4.025  0.3285  0.8215  0.7043
  158SAPE  H18X17652   0.855   0.448   3.948 -1.6832  2.2006 -0.0120
  158SAPE  H18Y17653   0.908   0.468   4.118 -1.2841  2.2937  2.1044
  158SAPE  H18Z17654   0.973   0.574   3.984  0.2589  0.9958  0.7660
  159SAPE     N17655   4.506   4.501   2.174 -0.2817 -0.0359  0.3568
  159SAPE   HN117656   4.610   4.497   2.178 -0.1320  1.8836 -0.4589
  159SAPE   HN217657   4.478   4.599   2.193 -1.7094 -0.0349 -1.4751
  159SAPE   HN317658   4.458   4.446   2.248  0.3571 -1.3396 -0.1666
  159SAPE   C1217659   4.437   4.452   2.052 -0.1620 -0.3965  0.0074
  159SAPE  H12A17660   4.407   4.535   1.985  1.3452  0.3819  0.2470
  159SAPE  H12B17661   4.351   4.394   2.090 -0.1073  0.8006  2.0948
  159SAPE   C1117662   4.522   4.354   1.970 -0.3806 -0.1927 -0.2463
  159SAPE  H11A17663   4.598   4.408   1.909 -0.7703  0.5509 -0.0779
  159SAPE  H11B17664   4.454   4.313   1.893 -0.9621 -0.0507  0.1877
  159SAPE     P17665   4.694   4.146   1.988 -0.0021  0.7657  0.0438
  159SAPE   O1317666   4.623   4.020   1.945 -0.1958 -0.2833 -0.0192
  159SAPE   O1417667   4.767   4.215   1.880  0.0110  0.1658 -0.0757
  159SAPE   O1217668   4.586   4.248   2.047 -0.3710 -0.8893 -0.2802
  159SAPE   O1117669   4.797   4.116   2.099 -0.4380  0.6838 -0.2322
  159SAPE    C117670   4.754   4.098   2.234 -0.3179  0.7387  0.1733
  159SAPE    HA17671   4.833   4.124   2.307 -0.1070  1.1462 -0.1987
  159SAPE    HB17672   4.663   4.154   2.265 -0.6431 -0.6797  1.9491
  159SAPE    C217673   4.720   3.949   2.255  0.1346  0.5794  0.1247
  159SAPE    HS17674   4.625   3.927   2.202  0.0079  0.8058  0.2522
  159SAPE   O2117675   4.699   3.919   2.394  0.0503 -0.3249  0.2514
  159SAPE   C2117676   4.587   3.959   2.447  0.1766 -0.5724  0.2186
  159SAPE   O2217677   4.501   4.024   2.386 -0.7572  0.1955 -0.3096
  159SAPE   C2217678   4.579   3.924   2.593  0.2182  0.1111 -0.2262
  159SAPE   H2R17679   4.525   3.828   2.607 -0.4172  0.8201  2.8029
  159SAPE   H2S17680   4.681   3.894   2.626  0.7702  2.1016  0.0337
  159SAPE    C317681   4.822   3.848   2.208 -0.0504  1.5275 -0.1472
  159SAPE    HX17682   4.837   3.858   2.099  0.3609 -0.6923 -0.3370
  159SAPE    HY17683   4.784   3.744   2.216  1.3680  1.0007  0.0186
  159SAPE   O3117684   4.950   3.860   2.280 -0.0528 -0.2694  0.3302
  159SAPE   C3117685   4.978   3.769   2.382 -0.3530 -0.7715  0.6700
  159SAPE   O3217686   4.908   3.687   2.430 -0.1033  0.4303 -0.2445
  159SAPE   C3217687   5.115   3.815   2.434 -0.2260 -1.0158  0.1845
  159SAPE   H2X17688   5.120   3.916   2.478 -0.3796 -0.4771 -0.9981
  159SAPE   H2Y17689   5.183   3.819   2.346  0.9688  3.2476  1.0575
  159SAPE   C2317690   4.534   4.034   2.689 -0.4794 -0.2472 -0.5992
  159SAPE   H3R17691   4.533   3.980   2.786 -0.0596 -1.4607 -1.2412
  159SAPE   H3S17692   4.434   4.076   2.661 -0.1244  1.3094  0.3502
  159SAPE   C2417693   4.642   4.139   2.698  0.3785 -0.1585  0.2722
  159SAPE   H4R17694   4.592   4.222   2.753  2.6765  2.2578 -1.0808
  159SAPE   H4S17695   4.660   4.170   2.592 -2.5585 -0.6588 -0.4669
  159SAPE   C2517696   4.777   4.103   2.763  0.7726 -0.0166  0.4441
  159SAPE   H5R17697   4.855   4.053   2.705  1.2004  1.3258 -0.1800
  159SAPE   C2617698   4.816   4.147   2.885  0.1087 -0.0417 -0.1651
  159SAPE   H6R17699   4.918   4.129   2.923 -0.9961 -1.0873  2.5984
  159SAPE   C2717700   4.720   4.224   2.982  0.2799  0.0397  0.4158
  159SAPE   H7R17701   4.619   4.178   2.983  0.0427  0.4030 -1.7646
  159SAPE   H7S17702   4.714   4.333   2.965 -2.1646 -0.0046  0.6400
  159SAPE   C2817703   4.782   4.208   3.124 -0.0173  0.4302  0.3548
  159SAPE   H8R17704   4.821   4.303   3.163 -0.8565  0.4745  1.1206
  159SAPE   C2917705   4.795   4.099   3.197 -0.1084  0.3094  0.1831
  159SAPE   H9R17706   4.860   4.099   3.285  1.2302  1.3805 -0.7582
  159SAPE  C21017707   4.741   3.966   3.154  0.7589 -0.6151  0.0600
  159SAPE  H10R17708   4.814   3.883   3.160  0.2247 -1.0891  0.0539
  159SAPE  H10S17709   4.717   3.970   3.045  1.7555 -0.0535 -0.1553
  159SAPE  C21117710   4.608   3.943   3.226  0.4189  0.2913  0.1178
  159SAPE  H11R17711   4.529   4.015   3.204  0.1244  0.0615  0.4151
  159SAPE  C21217712   4.583   3.840   3.303  0.8269  0.0169 -0.9276
  159SAPE  H12R17713   4.489   3.838   3.360  0.0998  1.8547 -1.9657
  159SAPE  C21317714   4.683   3.737   3.357  0.2850 -0.2343 -0.7963
  159SAPE  H13R17715   4.753   3.767   3.437 -0.5804 -0.0958 -0.0719
  159SAPE  H13S17716   4.744   3.727   3.264  0.0868 -1.6939 -0.7934
  159SAPE  C21417717   4.646   3.599   3.402  0.5831  0.2490 -0.8090
  159SAPE  H14R17718   4.604   3.539   3.320  0.5038 -2.3420  1.0217
  159SAPE  C21517719   4.619   3.566   3.527  0.4395  0.0260 -0.7328
  159SAPE  H15R17720   4.581   3.470   3.562  1.9087  1.0272  4.6269
  159SAPE  C21617721   4.621   3.654   3.650 -0.9246 -0.1376  0.5283
  159SAPE  H16R17722   4.524   3.642   3.703 -1.8293  1.4093 -0.6861
  159SAPE  H16S17723   4.623   3.761   3.618 -2.3128 -0.7709 -1.9275
  159SAPE  C21717724   4.748   3.628   3.736  1.1421 -0.7238 -0.0760
  159SAPE  H17R17725   4.744   3.714   3.807 -0.1651 -0.4332 -0.4847
  159SAPE  H17S17726   4.840   3.639   3.674  2.6352 -2.2928  1.7196
  159SAPE  C21817727   4.744   3.505   3.825  0.5404 -0.4776 -0.3861
  159SAPE  H18R17728   4.793   3.410   3.793  0.6053 -0.9257  0.9718
  159SAPE  H18S17729   4.638   3.475   3.841  0.3218  0.8379  0.7743
  159SAPE  C21917730   4.794   3.527   3.967  0.3984  0.0706 -0.1864
  159SAPE  H19R17731   4.781   3.634   3.996 -0.3685  0.1212 -0.7031
  159SAPE  H19S17732   4.898   3.492   3.986 -0.3977 -1.4050  1.8554
  159SAPE  C22017733   4.719   3.454   4.082 -0.1015  0.5357  0.3858
  159SAPE  H20R17734   4.613   3.448   4.050 -0.2231 -1.0499  0.9754
  159SAPE  H20S17735   4.742   3.490   4.184  1.3346 -0.7585  0.5667
  159SAPE  H20T17736   4.747   3.346   4.091 -0.7577  0.5366  3.0441
  159SAPE   C3317737   5.169   3.725   2.546  0.1470 -0.3013  0.1141
  159SAPE   H3X17738   5.275   3.751   2.566 -0.2959  0.7418  1.2064
  159SAPE   H3Y17739   5.163   3.618   2.516 -1.0630  0.5835 -3.2262
  159SAPE   C3417740   5.094   3.741   2.686 -0.5260 -0.0001 -0.1399
  159SAPE   H4X17741   5.011   3.667   2.692  1.2933 -2.1932 -0.2189
  159SAPE   H4Y17742   5.060   3.845   2.700 -2.6598  0.0602 -4.3734
  159SAPE   C3517743   5.200   3.716   2.795  0.2434  0.2125  0.3040
  159SAPE   H5X17744   5.290   3.780   2.788 -0.7070  1.7355  1.5222
  159SAPE   H5Y17745   5.219   3.606   2.793 -0.5842  0.0596  0.5606
  159SAPE   C3617746   5.145   3.751   2.936  0.0249 -0.1609 -0.3060
  159SAPE   H6X17747   5.039   3.720   2.940 -0.4086  1.2350 -0.5094
  159SAPE   H6Y17748   5.140   3.862   2.944  1.5424 -0.1150  0.5236
  159SAPE   C3717749   5.193   3.686   3.069  0.1309 -0.1759  0.3858
  159SAPE   H7X17750   5.301   3.672   3.088  0.0385 -0.1367  0.9712
  159SAPE   H7Y17751   5.138   3.591   3.089 -1.6539  1.1493  2.2237
  159SAPE   C3817752   5.146   3.773   3.184 -0.0051  0.7595  0.5794
  159SAPE   H8X17753   5.036   3.788   3.180 -0.2060 -0.3551  1.3430
  159SAPE   H8Y17754   5.185   3.875   3.166  0.1483  0.3845 -1.3471
  159SAPE   C3917755   5.199   3.729   3.318  0.0118  0.2758  0.7160
  159SAPE   H9X17756   5.297   3.781   3.320 -0.1314  0.7216 -1.2492
  159SAPE   H9Y17757   5.208   3.620   3.334 -1.6866 -0.4018 -2.1332
  159SAPE  C31017758   5.112   3.771   3.439  0.6955  0.2620 -0.2596
  159SAPE  H10X17759   5.178   3.740   3.522 -1.2053 -0.7003  0.9609
  159SAPE  H10Y17760   5.019   3.710   3.448  1.3033 -0.6276  0.0524
  159SAPE  C31117761   5.082   3.921   3.445 -0.6856  0.5923  0.4473
  159SAPE  H11X17762   5.033   3.967   3.356 -1.3338  1.1525  1.0830
  159SAPE  H11Y17763   5.183   3.965   3.437 -0.7912  0.5646 -1.3466
  159SAPE  C31217764   5.011   3.961   3.576  0.1386  0.3350  0.4629
  159SAPE  H12X17765   5.035   3.890   3.658  1.2234 -2.1798 -1.8740
  159SAPE  H12Y17766   4.903   3.955   3.550  0.3640  1.2524 -0.7698
  159SAPE  C31317767   5.053   4.094   3.635 -0.1299 -0.3201  0.3205
  159SAPE  H13X17768   5.164   4.108   3.632  0.0358 -1.7109 -0.8754
  159SAPE  H13Y17769   5.031   4.095   3.743  1.1777  1.0649  0.6218
  159SAPE  C31417770   4.998   4.217   3.565  0.3347 -0.2581  0.1744
  159SAPE  H14X17771   4.998   4.215   3.454  0.6793  2.9921  0.0309
  159SAPE  H14Y17772   5.060   4.300   3.606  1.4078 -1.5472  1.2860
  159SAPE  C31517773   4.850   4.241   3.591 -0.5403 -0.9611  0.6412
  159SAPE  H15X17774   4.842   4.250   3.701  1.0803  0.2864  0.6938
  159SAPE  H15Y17775   4.798   4.150   3.554 -0.9864 -0.0001 -1.2223
  159SAPE  C31617776   4.799   4.374   3.524  0.1544  0.4399 -0.3113
  159SAPE  H16X17777   4.689   4.383   3.536 -0.1470 -2.6044  0.1435
  159SAPE  H16Y17778   4.816   4.374   3.414  0.7025 -2.3000 -0.3133
  159SAPE  C31717779   4.875   4.490   3.589 -0.1999 -0.7180 -0.2344
  159SAPE  H17X17780   4.984   4.497   3.570 -0.5945  1.7751 -1.9050
  159SAPE  H17Y17781   4.851   4.481   3.698  0.6364  3.6321  0.4964
  159SAPE  C31817782   4.810   4.623   3.563 -0.7417  0.0901  0.1114
  159SAPE  H18X17783   4.853   4.704   3.626 -0.4284 -0.6622  0.8882
  159SAPE  H18Y17784   4.702   4.618   3.585 -0.1908 -1.9026  2.8842
  159SAPE  H18Z17785   4.825   4.654   3.457  2.2102  1.1047  0.7395
  160SAPE     N17786   5.311   2.721   1.559 -0.1017 -0.4533 -0.2932
  160SAPE   HN117787   5.289   2.680   1.466 -0.4780 -0.0146 -0.4020
  160SAPE   HN217788   5.238   2.791   1.581  1.3576  0.9389  0.2755
  160SAPE   HN317789   5.399   2.775   1.552 -0.7011  0.8870  1.6495
  160SAPE   C1217790   5.313   2.617   1.667 -0.0763 -0.2297  0.5813
  160SAPE  H12A17791   5.385   2.539   1.633 -0.4937 -0.6028  0.5321
  160SAPE  H12B17792   5.210   2.575   1.669 -0.8191  1.4797 -0.0229
  160SAPE   C1117793   5.351   2.671   1.808 -0.2519 -0.8456  0.7047
  160SAPE  H11A17794   5.349   2.590   1.883  1.1585 -0.6689  0.9492
  160SAPE  H11B17795   5.265   2.741   1.818 -0.2300 -0.3103 -2.0180
  160SAPE     P17796   5.615   2.680   1.801 -0.0685  0.2859  0.5160
  160SAPE   O1317797   5.633   2.608   1.671 -0.0729  0.3153  0.6370
  160SAPE   O1417798   5.715   2.785   1.830 -0.0028  0.5768 -0.1963
  160SAPE   O1217799   5.472   2.746   1.798  0.3216  0.0272  0.4456
  160SAPE   O1117800   5.609   2.580   1.920 -0.1225 -0.0206 -0.3623
  160SAPE    C117801   5.618   2.634   2.049 -0.2693 -0.4139 -0.0063
  160SAPE    HA17802   5.716   2.682   2.070 -0.3044 -0.7992  1.0834
  160SAPE    HB17803   5.542   2.712   2.072  0.0896  0.3621 -1.3404
  160SAPE    C217804   5.615   2.512   2.148 -0.2907 -0.3611  0.0396
  160SAPE    HS17805   5.667   2.426   2.101 -1.2967 -0.9473 -0.0297
  160SAPE   O2117806   5.476   2.490   2.179 -0.0095 -0.2829 -0.7063
  160SAPE   C2117807   5.439   2.365   2.190 -0.0899  0.0477 -0.6429
  160SAPE   O2217808   5.515   2.266   2.190  0.1237 -0.6642  0.2469
  160SAPE   C2217809   5.289   2.348   2.210  0.3575  0.2587 -0.3571
  160SAPE   H2R17810   5.248   2.348   2.107 -1.1704  1.6607  0.1940
  160SAPE   H2S17811   5.282   2.250   2.262 -1.0745  0.3732 -0.2861
  160SAPE    C317812   5.694   2.535   2.279  0.0778  0.2608 -0.2639
  160SAPE    HX17813   5.677   2.640   2.311  2.1500  0.1690  1.2992
  160SAPE    HY17814   5.798   2.518   2.245  0.0179 -2.1042  0.5142
  160SAPE   O3117815   5.666   2.441   2.383  0.4260  0.2523 -0.1763
  160SAPE   C3117816   5.731   2.483   2.493  0.0390 -0.2171  0.1852
  160SAPE   O3217817   5.796   2.585   2.494  0.2775 -0.8719  0.4513
  160SAPE   C3217818   5.685   2.390   2.604 -0.0720  0.7541 -0.3932
  160SAPE   H2X17819   5.747   2.299   2.590  1.4702  1.5757  0.7921
  160SAPE   H2Y17820   5.579   2.359   2.593 -0.6251  2.4807 -0.2129
  160SAPE   C2317821   5.232   2.477   2.284 -0.0089 -0.0169 -0.1627
  160SAPE   H3R17822   5.123   2.462   2.296  0.0984  0.8970  2.7369
  160SAPE   H3S17823   5.254   2.565   2.221 -1.0176  0.7366  0.5100
  160SAPE   C2417824   5.289   2.506   2.424  0.5447  0.0395  0.1834
  160SAPE   H4R17825   5.241   2.599   2.462  0.0822 -0.0465 -0.1801
  160SAPE   H4S17826   5.398   2.528   2.422  0.4213  0.6331 -0.2400
  160SAPE   C2517827   5.258   2.407   2.532 -0.1822  0.1822  0.0287
  160SAPE   H5R17828   5.225   2.305   2.506  0.0186 -0.2471  1.3626
  160SAPE   C2617829   5.276   2.419   2.662 -0.8316 -0.2670 -0.4174
  160SAPE   H6R17830   5.241   2.340   2.730 -1.2393 -0.1529 -0.4923
  160SAPE   C2717831   5.332   2.540   2.741  0.0985  0.2303 -0.5203
  160SAPE   H7R17832   5.411   2.596   2.687  0.0951 -0.1045 -0.8741
  160SAPE   H7S17833   5.389   2.495   2.825 -0.0254  0.9616 -0.0359
  160SAPE   C2817834   5.218   2.624   2.796 -0.3285  0.3461  0.4563
  160SAPE   H8R17835   5.169   2.698   2.732 -4.6532 -1.9394  0.7783
  160SAPE   C2917836   5.180   2.622   2.928  0.4012  0.9493 -0.6655
  160SAPE   H9R17837   5.091   2.685   2.944 -0.7500 -0.0467 -2.8139
  160SAPE  C21017838   5.235   2.547   3.044  0.3305 -0.0454 -0.5827
  160SAPE  H10R17839   5.336   2.580   3.074 -0.4445  1.0248  1.0278
  160SAPE  H10S17840   5.234   2.441   3.013  0.9580  0.5080 -2.6323
  160SAPE  C21117841   5.138   2.556   3.162 -0.3947 -0.7307 -1.2491
  160SAPE  H11R17842   5.036   2.570   3.122 -0.3705 -2.8393 -2.1989
  160SAPE  C21217843   5.142   2.515   3.294 -0.1625 -0.3659  0.4252
  160SAPE  H12R17844   5.050   2.532   3.352 -1.2658 -1.3753 -0.9489
  160SAPE  C21317845   5.260   2.449   3.361  0.0019  0.3123  0.3426
  160SAPE  H13R17846   5.303   2.512   3.442 -2.3684  1.5221  0.7407
  160SAPE  H13S17847   5.343   2.432   3.290  0.2817  1.8567  0.2702
  160SAPE  C21417848   5.239   2.311   3.419 -0.0154  0.8018 -0.1310
  160SAPE  H14R17849   5.273   2.230   3.354 -1.5642  0.6338 -0.7715
  160SAPE  C21517850   5.209   2.276   3.547  0.0093  0.9633  0.3151
  160SAPE  H15R17851   5.180   2.172   3.568 -0.2800  1.0935  0.5709
  160SAPE  C21617852   5.179   2.374   3.664 -0.7512 -0.2199  0.3156
  160SAPE  H16R17853   5.188   2.479   3.628 -2.2952 -0.5055 -1.0368
  160SAPE  H16S17854   5.249   2.361   3.749 -1.0291 -2.2335  0.2833
  160SAPE  C21717855   5.033   2.342   3.706  0.4194 -0.4067  0.4116
  160SAPE  H17R17856   5.016   2.232   3.711  0.0439 -0.3000  2.0895
  160SAPE  H17S17857   4.954   2.375   3.635 -2.0221 -4.5018  0.9025
  160SAPE  C21817858   4.988   2.397   3.844  0.4912  0.3772 -0.5736
  160SAPE  H18R17859   5.038   2.335   3.922  0.4496 -0.9827 -1.6026
  160SAPE  H18S17860   4.884   2.367   3.869  0.6622  2.0881  2.9039
  160SAPE  C21917861   5.013   2.546   3.869  0.5531  0.4365  0.3786
  160SAPE  H19R17862   4.955   2.611   3.800  0.1610  0.6410  0.8934
  160SAPE  H19S17863   5.116   2.570   3.837  1.3702 -1.3341  1.5387
  160SAPE  C22017864   4.990   2.595   4.013  0.5112 -0.0226  0.2105
  160SAPE  H20R17865   4.882   2.607   4.036  0.2267 -0.9774 -0.5268
  160SAPE  H20S17866   5.041   2.693   4.017  2.6098 -1.0666  0.2447
  160SAPE  H20T17867   5.037   2.532   4.091  0.5470  0.0207  0.2244
  160SAPE   C3317868   5.711   2.445   2.747 -0.1701  0.5016 -0.4707
  160SAPE   H3X17869   5.656   2.538   2.772 -0.1678  0.2524  0.5460
  160SAPE   H3Y17870   5.815   2.481   2.760  0.1583 -0.2311 -0.9930
  160SAPE   C3417871   5.665   2.353   2.870 -0.5706 -0.1190  0.3895
  160SAPE   H4X17872   5.737   2.268   2.857  0.4565  1.1508 -3.9530
  160SAPE   H4Y17873   5.562   2.321   2.846 -1.1098  3.0349 -2.1547
  160SAPE   C3517874   5.675   2.414   3.004 -0.0041 -0.7326  0.0257
  160SAPE   H5X17875   5.586   2.479   3.020  0.6467  0.6967 -1.8365
  160SAPE   H5Y17876   5.757   2.489   3.001 -1.6960  1.2406  0.0418
  160SAPE   C3617877   5.687   2.308   3.117 -0.1536 -1.1069 -1.1173
  160SAPE   H6X17878   5.784   2.257   3.097  1.2521  1.3016 -0.8363
  160SAPE   H6Y17879   5.616   2.223   3.105 -0.7410 -0.6698 -0.7815
  160SAPE   C3717880   5.675   2.369   3.251  0.7108 -1.0209 -0.4821
  160SAPE   H7X17881   5.578   2.416   3.279  0.9523 -1.8526  2.0780
  160SAPE   H7Y17882   5.754   2.446   3.247 -0.2975  0.0735  0.0302
  160SAPE   C3817883   5.713   2.276   3.365 -0.4056  0.2929  0.3674
  160SAPE   H8X17884   5.806   2.220   3.343 -1.4815 -2.6649  2.7628
  160SAPE   H8Y17885   5.633   2.198   3.373 -0.8054  0.4584 -1.5492
  160SAPE   C3917886   5.737   2.335   3.505 -0.2817  0.4083  0.0137
  160SAPE   H9X17887   5.647   2.398   3.523 -0.5259  0.8404 -2.3758
  160SAPE   H9Y17888   5.820   2.408   3.520  0.3373 -0.3063  0.1132
  160SAPE  C31017889   5.745   2.237   3.613 -0.3012 -0.0923 -0.3055
  160SAPE  H10X17890   5.833   2.169   3.614  1.6615  2.2667  2.0358
  160SAPE  H10Y17891   5.665   2.160   3.600 -1.5561  0.3192  3.5659
  160SAPE  C31117892   5.731   2.302   3.754 -0.3367 -0.0087  0.7887
  160SAPE  H11X17893   5.673   2.396   3.751 -0.0335  0.1635 -0.7191
  160SAPE  H11Y17894   5.834   2.327   3.786 -0.5135 -0.9779  2.1830
  160SAPE  C31217895   5.661   2.202   3.851 -0.1309 -0.8089  0.0812
  160SAPE  H12X17896   5.738   2.123   3.866 -0.9373 -1.6218  0.0519
  160SAPE  H12Y17897   5.573   2.155   3.803  0.0367 -0.4366 -0.6067
  160SAPE  C31317898   5.626   2.269   3.986  0.5550 -0.5040  0.3565
  160SAPE  H13X17899   5.568   2.363   3.968  1.9694  0.2582 -0.3851
  160SAPE  H13Y17900   5.719   2.308   4.032  0.1354  2.0107 -0.7405
  160SAPE  C31417901   5.540   2.187   4.075  0.0441 -0.0336  0.6741
  160SAPE  H14X17902   5.464   2.135   4.014  0.6750 -1.7096  1.2610
  160SAPE  H14Y17903   5.485   2.249   4.149  0.1089 -1.0870  1.6389
  160SAPE  C31517904   5.627   2.077   4.150 -0.3388 -0.1638  1.1541
  160SAPE  H15X17905   5.694   2.135   4.217  3.9655 -0.2822 -2.6004
  160SAPE  H15Y17906   5.699   2.024   4.084 -0.3326  0.1163  0.9352
  160SAPE  C31617907   5.550   1.985   4.249 -0.4385 -0.6749  0.8319
  160SAPE  H16X17908   5.473   1.930   4.190 -0.5504 -1.7439  1.9270
  160SAPE  H16Y17909   5.498   2.050   4.322  0.1363  1.3362 -0.4830
  160SAPE  C31717910   5.639   1.891   4.333 -0.2860  0.1947 -0.0291
  160SAPE  H17X17911   5.723   1.956   4.367 -0.0497 -0.4398  0.6302
  160SAPE  H17Y17912   5.679   1.816   4.261  2.1461  1.8311 -0.4972
  160SAPE  C31817913   5.559   1.819   4.443  0.1645 -0.4619  0.5951
  160SAPE  H18X17914   5.457   1.783   4.419  0.6693 -0.1235 -2.3546
  160SAPE  H18Y17915   5.557   1.891   4.527  0.7808  0.7354 -0.3880
  160SAPE  H18Z17916   5.620   1.729   4.466  0.1713 -0.0769  2.2106
  161SAPE     N17917   3.143   6.138   1.939 -0.2462  0.0558  0.8775
  161SAPE   HN117918   3.182   6.042   1.941  0.0500  0.1832  1.7066
  161SAPE   HN217919   3.041   6.121   1.933 -0.5551  1.6947  1.0970
  161SAPE   HN317920   3.182   6.190   1.858  0.9529 -1.4438  0.4320
  161SAPE   C1217921   3.171   6.225   2.058 -0.9866  0.1748  0.1030
  161SAPE  H12A17922   3.121   6.324   2.060  1.0257  1.2403  1.6947
  161SAPE  H12B17923   3.279   6.247   2.074 -0.9236  1.2506 -1.5805
  161SAPE   C1117924   3.144   6.151   2.191  0.4174 -1.3343  0.0005
  161SAPE  H11A17925   3.034   6.143   2.208  0.0560 -2.0384 -2.3666
  161SAPE  H11B17926   3.181   6.206   2.281  0.3876 -1.2135 -0.0603
  161SAPE     P17927   3.339   5.989   2.241 -0.1657 -0.0374 -0.1341
  161SAPE   O1317928   3.379   5.854   2.196 -0.0105 -0.0139 -0.0930
  161SAPE   O1417929   3.417   6.106   2.211 -0.5659 -0.3832 -0.0038
  161SAPE   O1217930   3.203   6.019   2.181  0.5322 -0.5402 -0.4205
  161SAPE   O1117931   3.316   5.974   2.394 -0.1247 -0.3473 -0.1676
  161SAPE    C117932   3.208   5.893   2.449 -0.4017  0.0511  0.3363
  161SAPE    HA17933   3.200   5.807   2.379  1.8321  1.9541 -2.5291
  161SAPE    HB17934   3.233   5.860   2.552 -0.4129 -2.6027 -0.4341
  161SAPE    C217935   3.071   5.959   2.444 -0.2955  0.2262 -0.2154
  161SAPE    HS17936   3.036   5.976   2.340  1.7935  1.2716 -0.8101
  161SAPE   O2117937   3.087   6.081   2.514  0.3879 -0.3665 -0.0407
  161SAPE   C2117938   2.983   6.160   2.504 -0.5232 -0.0310  0.3342
  161SAPE   O2217939   2.895   6.157   2.418  0.2991  0.6374 -0.2360
  161SAPE   C2217940   3.001   6.263   2.611  0.0318 -0.1381 -0.7538
  161SAPE   H2R17941   2.907   6.284   2.665 -0.0372  0.2607 -1.0205
  161SAPE   H2S17942   3.087   6.233   2.674  0.8741  1.2523 -1.1744
  161SAPE    C317943   2.959   5.875   2.514 -0.1006  0.0976  0.3355
  161SAPE    HX17944   2.923   5.801   2.440  0.5368 -0.3580  0.4751
  161SAPE    HY17945   2.869   5.934   2.543 -0.8777 -0.9561  0.0966
  161SAPE   O3117946   3.011   5.818   2.632 -0.6363 -0.2101  0.6762
  161SAPE   C3117947   2.988   5.885   2.748  0.5565 -0.6611  0.6871
  161SAPE   O3217948   2.916   5.985   2.757 -0.2517 -0.0188 -0.0402
  161SAPE   C3217949   3.053   5.805   2.862 -0.6834 -0.1389  0.5718
  161SAPE   H2X17950   3.158   5.802   2.828 -1.1422 -2.4284 -0.8413
  161SAPE   H2Y17951   3.008   5.704   2.853  0.1111 -0.7450  2.6665
  161SAPE   C2317952   3.053   6.398   2.548  0.0955 -0.4750 -0.4699
  161SAPE   H3R17953   2.986   6.425   2.464 -1.4939  0.8812  1.1702
  161SAPE   H3S17954   3.157   6.396   2.508  0.1770  0.7430 -0.3531
  161SAPE   C2417955   3.032   6.506   2.649  0.3131  0.0625 -0.2443
  161SAPE   H4R17956   2.927   6.521   2.680  0.8411  1.5069  1.0212
  161SAPE   H4S17957   3.045   6.604   2.598  0.3078 -0.9325 -2.2443
  161SAPE   C2517958   3.121   6.501   2.767  0.2831 -0.6530 -0.0807
  161SAPE   H5R17959   3.195   6.420   2.754  3.1980  1.6796  0.8681
  161SAPE   C2617960   3.112   6.560   2.883  0.1262 -0.3697 -0.6373
  161SAPE   H6R17961   3.171   6.534   2.972 -0.8062  2.6686  0.9940
  161SAPE   C2717962   3.023   6.681   2.917 -0.4671 -0.0734 -0.4451
  161SAPE   H7R17963   3.004   6.730   2.819  0.6298 -1.2437 -1.2856
  161SAPE   H7S17964   3.070   6.742   2.997 -1.2388 -0.6110  0.4388
  161SAPE   C2817965   2.908   6.613   2.971 -0.3096 -0.2370 -0.9766
  161SAPE   H8R17966   2.813   6.612   2.915  0.2232 -0.4725 -1.8909
  161SAPE   C2917967   2.888   6.538   3.080 -0.7469 -0.5387 -0.7689
  161SAPE   H9R17968   2.787   6.497   3.095 -0.3958 -0.6590  1.9013
  161SAPE  C21017969   2.977   6.507   3.199 -0.2135  0.7836 -0.8920
  161SAPE  H10R17970   3.069   6.570   3.198  0.7599 -0.5914 -0.1588
  161SAPE  H10S17971   3.008   6.401   3.187  1.0312  0.8486  1.3241
  161SAPE  C21117972   2.892   6.518   3.327 -0.4262 -0.1359 -0.3963
  161SAPE  H11R17973   2.821   6.434   3.336 -1.5439  0.4155 -2.9402
  161SAPE  C21217974   2.890   6.609   3.427 -0.9202 -0.9322 -0.5010
  161SAPE  H12R17975   2.826   6.593   3.515 -2.2173 -1.2271 -1.4588
  161SAPE  C21317976   2.970   6.730   3.456 -0.7794 -0.4152 -0.1650
  161SAPE  H13R17977   3.077   6.712   3.433 -1.0994  0.3640 -2.4875
  161SAPE  H13S17978   2.964   6.756   3.564  2.5584 -2.9651  0.8022
  161SAPE  C21417979   2.929   6.841   3.365 -0.1928 -0.1924  0.1596
  161SAPE  H14R17980   2.928   6.812   3.260  0.7950  0.4061 -0.0324
  161SAPE  C21517981   2.863   6.952   3.400 -0.3879 -0.5838 -0.5053
  161SAPE  H15R17982   2.833   7.015   3.316 -0.2621  0.3434  0.1312
  161SAPE  C21617983   2.827   7.006   3.538 -0.1122 -0.5212  0.1240
  161SAPE  H16R17984   2.822   7.117   3.538 -1.6371 -0.4536  3.7321
  161SAPE  H16S17985   2.907   6.982   3.610  0.5729 -0.0917 -0.4849
  161SAPE  C21717986   2.691   6.955   3.583  0.0977 -1.1733 -0.2211
  161SAPE  H17R17987   2.681   6.847   3.559  1.3220 -1.0990 -1.1524
  161SAPE  H17S17988   2.614   7.011   3.527  0.2363  1.4992  2.0283
  161SAPE  C21817989   2.667   6.937   3.726  0.6544 -0.2053 -0.1174
  161SAPE  H18R17990   2.695   7.027   3.784 -0.9559  1.2271 -1.4396
  161SAPE  H18S17991   2.722   6.847   3.761 -2.4344 -1.7665  1.1365
  161SAPE  C21917992   2.522   6.924   3.767 -0.0935 -0.5346 -0.0861
  161SAPE  H19R17993   2.483   6.832   3.720  2.3114 -1.2257 -0.8925
  161SAPE  H19S17994   2.455   7.009   3.742 -0.6679 -0.5655  1.2550
  161SAPE  C22017995   2.493   6.918   3.915  0.5577  0.5263 -0.0801
  161SAPE  H20R17996   2.388   6.941   3.942  0.8642 -0.8216  2.6383
  161SAPE  H20S17997   2.552   6.990   3.976  2.7740 -1.6166  0.4692
  161SAPE  H20T17998   2.499   6.818   3.962 -0.6452  0.0913 -0.8216
  161SAPE   C3317999   3.024   5.864   3.005  1.1235 -0.5894 -0.5724
  161SAPE   H3X18000   2.915   5.886   3.017  1.4530 -0.1105  2.0416
  161SAPE   H3Y18001   3.076   5.962   3.010 -1.6733  0.9849  0.2689
  161SAPE   C3418002   3.072   5.759   3.105  0.0657 -0.0023 -0.7318
  161SAPE   H4X18003   3.176   5.728   3.082  0.5050  0.0380  1.0481
  161SAPE   H4Y18004   3.005   5.671   3.092 -4.0890  2.4548  1.8964
  161SAPE   C3518005   3.071   5.798   3.245  0.8011  0.0344 -0.1707
  161SAPE   H5X18006   2.967   5.822   3.276  1.6002  1.2908  1.7548
  161SAPE   H5Y18007   3.129   5.891   3.266 -0.6464  0.8145  0.5434
  161SAPE   C3618008   3.115   5.684   3.339  0.3349  0.3702  0.0606
  161SAPE   H6X18009   3.205   5.636   3.295 -0.3527 -1.0887  0.1735
  161SAPE   H6Y18010   3.030   5.612   3.332  0.3716  0.3857 -0.6244
  161SAPE   C3718011   3.145   5.713   3.490 -0.1199 -0.0102  0.8965
  161SAPE   H7X18012   3.171   5.616   3.538  0.1170 -0.7010 -0.5532
  161SAPE   H7Y18013   3.060   5.759   3.545  0.3009  2.3136 -0.2601
  161SAPE   C3818014   3.254   5.817   3.513 -0.0466  0.0916 -0.7588
  161SAPE   H8X18015   3.206   5.914   3.488 -0.4813 -0.4854 -2.2291
  161SAPE   H8Y18016   3.337   5.799   3.442  0.6996  0.4899 -0.0090
  161SAPE   C3918017   3.310   5.820   3.660  0.1884 -0.2551  0.3216
  161SAPE   H9X18018   3.360   5.722   3.673  2.8009  0.6232 -2.0633
  161SAPE   H9Y18019   3.226   5.827   3.733 -2.2298 -1.7026 -2.1254
  161SAPE  C31018020   3.410   5.935   3.682  1.0723  0.1126  0.1079
  161SAPE  H10X18021   3.348   6.023   3.656 -4.1241 -3.2708 -0.3757
  161SAPE  H10Y18022   3.487   5.931   3.602 -0.1476 -1.7215 -1.0448
  161SAPE  C31118023   3.472   5.937   3.817 -0.5210 -0.5272  0.3353
  161SAPE  H11X18024   3.559   6.005   3.816  0.2635 -1.4202  1.9294
  161SAPE  H11Y18025   3.524   5.840   3.836  1.3516  0.5233  0.7310
  161SAPE  C31218026   3.370   5.950   3.934  0.1751 -0.2431  0.2712
  161SAPE  H12X18027   3.421   5.914   4.027  0.0757  0.3023  0.5418
  161SAPE  H12Y18028   3.279   5.888   3.924 -0.1106  0.3067 -0.7014
  161SAPE  C31318029   3.323   6.102   3.960  0.6450 -0.1723  0.5867
  161SAPE  H13X18030   3.255   6.113   4.047  0.8097 -1.0871  0.8480
  161SAPE  H13Y18031   3.267   6.129   3.868  0.7126  0.4703  0.7336
  161SAPE  C31418032   3.441   6.207   3.983 -0.4740  0.5607  0.5880
  161SAPE  H14X18033   3.404   6.312   3.982  1.9632  1.4940 -0.7861
  161SAPE  H14Y18034   3.507   6.189   3.895  0.0768 -0.1568  1.1289
  161SAPE  C31518035   3.526   6.189   4.112  0.6843 -0.3232  0.6113
  161SAPE  H15X18036   3.589   6.280   4.116  0.6862 -0.3646  2.2558
  161SAPE  H15Y18037   3.591   6.100   4.109  1.4703  0.2572 -0.1660
  161SAPE  C31618038   3.447   6.176   4.240  0.7193  0.6098 -0.0691
  161SAPE  H16X18039   3.403   6.074   4.240  1.8528  0.0790 -2.1825
  161SAPE  H16Y18040   3.384   6.267   4.232  0.2395  0.2328 -0.6674
  161SAPE  C31718041   3.522   6.200   4.372  0.5511  0.4981 -0.3146
  161SAPE  H17X18042   3.577   6.296   4.375 -1.3754  1.6639 -0.9828
  161SAPE  H17Y18043   3.602   6.125   4.390  0.5727  1.0361  2.2078
  161SAPE  C31818044   3.429   6.194   4.493  0.1200  0.4663  0.0770
  161SAPE  H18X18045   3.354   6.276   4.485 -1.1539 -0.7702 -1.1294
  161SAPE  H18Y18046   3.486   6.187   4.589 -0.2913 -0.9942  0.2288
  161SAPE  H18Z18047   3.369   6.101   4.496 -2.2329  1.9152  1.1723
  162SAPE     N18048   2.832   1.093   1.670 -0.2752  0.2662 -0.5885
  162SAPE   HN118049   2.879   1.095   1.763  3.2132 -0.8102 -2.1664
  162SAPE   HN218050   2.748   1.154   1.666 -1.1545 -0.7347  1.0659
  162SAPE   HN318051   2.784   1.001   1.682 -1.8053  1.3097  2.0846
  162SAPE   C1218052   2.933   1.123   1.565  0.2281 -0.3141  0.3429
  162SAPE  H12A18053   2.881   1.130   1.466  0.5511 -1.6265  0.0656
  162SAPE  H12B18054   3.011   1.044   1.561  1.3373  0.7479  0.2716
  162SAPE   C1118055   3.009   1.257   1.597  0.3999  0.5175 -0.6691
  162SAPE  H11A18056   2.944   1.347   1.596  0.9077  0.8895 -0.6832
  162SAPE  H11B18057   3.089   1.278   1.522 -0.7397 -1.0068 -2.3790
  162SAPE     P18058   3.156   1.355   1.794 -0.1959  0.1687 -0.1915
  162SAPE   O1318059   3.182   1.307   1.935 -0.4411 -0.2834 -0.0199
  162SAPE   O1418060   3.268   1.386   1.701 -0.5899 -1.2172  0.2349
  162SAPE   O1218061   3.069   1.242   1.730  0.3061  0.4777 -0.6970
  162SAPE   O1118062   3.058   1.471   1.810 -0.5121  0.1170 -0.0367
  162SAPE    C118063   2.921   1.455   1.862 -0.5523 -0.6278  0.3114
  162SAPE    HA18064   2.850   1.437   1.778 -0.2910  0.4875 -0.1589
  162SAPE    HB18065   2.909   1.369   1.932  0.9522 -0.7863  0.4100
  162SAPE    C218066   2.877   1.580   1.940 -0.1607  0.1076 -0.3268
  162SAPE    HS18067   2.925   1.667   1.889  0.5089  1.0373  1.7779
  162SAPE   O2118068   2.927   1.566   2.072 -0.2321 -0.1691 -0.4523
  162SAPE   C2118069   2.952   1.680   2.136 -0.8935 -0.3894  0.2783
  162SAPE   O2218070   2.914   1.788   2.085 -0.1797 -0.4764 -0.3935
  162SAPE   C2218071   3.011   1.652   2.271  0.1643 -0.9535  0.4070
  162SAPE   H2R18072   3.069   1.558   2.259  0.4352 -0.4532 -3.3370
  162SAPE   H2S18073   3.079   1.729   2.314  0.1478 -0.3917 -0.5393
  162SAPE    C318074   2.724   1.611   1.933 -0.6580  0.2472  0.4410
  162SAPE    HX18075   2.697   1.628   1.826  0.6015  0.1353  0.0885
  162SAPE    HY18076   2.719   1.703   1.994 -0.6375 -0.2025  1.1299
  162SAPE   O3118077   2.646   1.507   2.003  0.1480 -0.4096  0.1822
  162SAPE   C3118078   2.600   1.410   1.930 -0.4638  0.3329 -0.3059
  162SAPE   O3218079   2.614   1.397   1.807 -0.0831 -0.1273  0.0456
  162SAPE   C3218080   2.527   1.302   2.017  0.6986  0.2438  0.2740
  162SAPE   H2X18081   2.512   1.213   1.952  1.1063 -0.9886  1.8241
  162SAPE   H2Y18082   2.429   1.348   2.044  0.7055  0.6016 -0.2980
  162SAPE   C2318083   2.893   1.618   2.364 -0.9926  0.8666  0.0635
  162SAPE   H3R18084   2.925   1.536   2.432 -0.7485  0.1461 -0.9017
  162SAPE   H3S18085   2.819   1.554   2.313 -0.5502  0.7035 -0.3847
  162SAPE   C2418086   2.844   1.732   2.453 -0.1633 -0.0016  0.2434
  162SAPE   H4R18087   2.935   1.785   2.488  0.5177 -1.2148  0.3551
  162SAPE   H4S18088   2.787   1.673   2.528  0.2719 -1.7996 -0.7699
  162SAPE   C2518089   2.755   1.827   2.380  0.0013 -1.0069  0.2820
  162SAPE   H5R18090   2.820   1.902   2.334 -1.7879  0.3169 -0.2298
  162SAPE   C2618091   2.622   1.825   2.356  1.1310  0.0493  0.2014
  162SAPE   H6R18092   2.575   1.915   2.314 -1.2352 -0.9170  0.6301
  162SAPE   C2718093   2.532   1.712   2.393  0.3312  0.3795 -0.3207
  162SAPE   H7R18094   2.583   1.614   2.383  0.9833  0.7777 -0.9937
  162SAPE   H7S18095   2.451   1.691   2.320  1.4011  0.3268 -1.5298
  162SAPE   C2818096   2.470   1.747   2.530 -1.0659 -0.0474  0.3186
  162SAPE   H8R18097   2.485   1.853   2.555  0.3710  0.4124 -2.2129
  162SAPE   C2918098   2.387   1.676   2.609 -0.2862  0.4098 -0.1535
  162SAPE   H9R18099   2.354   1.719   2.705 -0.6347 -0.3047  0.0521
  162SAPE  C21018100   2.328   1.540   2.592  0.8638  0.3015  0.4755
  162SAPE  H10R18101   2.397   1.463   2.632  0.7187 -0.4404 -0.6697
  162SAPE  H10S18102   2.332   1.510   2.485  0.9470 -0.7388  0.7568
  162SAPE  C21118103   2.180   1.528   2.644  0.2463  1.0063 -0.1428
  162SAPE  H11R18104   2.095   1.518   2.575 -2.7653 -0.0768  3.3673
  162SAPE  C21218105   2.155   1.508   2.774  0.0576 -0.0049  0.1383
  162SAPE  H12R18106   2.049   1.483   2.794 -0.6495  0.1127 -2.8681
  162SAPE  C21318107   2.252   1.524   2.886  0.2967 -0.0208 -0.9820
  162SAPE  H13R18108   2.269   1.631   2.910  0.8066  0.0565 -1.6441
  162SAPE  H13S18109   2.349   1.482   2.850 -1.2303 -1.2270 -4.0216
  162SAPE  C21418110   2.224   1.438   3.010 -0.5086  0.0023  0.9760
  162SAPE  H14R18111   2.261   1.335   3.007  0.1052  0.2037  1.5288
  162SAPE  C21518112   2.167   1.480   3.124 -0.7143  0.1978  0.5231
  162SAPE  H15R18113   2.151   1.415   3.211  0.7312  1.2037  1.5928
  162SAPE  C21618114   2.117   1.619   3.143 -0.9799 -0.5291 -0.0162
  162SAPE  H16R18115   2.131   1.679   3.051  0.8850 -0.8921 -0.0018
  162SAPE  H16S18116   2.180   1.671   3.219  1.4102 -2.5942 -0.4309
  162SAPE  C21718117   1.971   1.616   3.192 -0.5141 -0.3602 -0.0028
  162SAPE  H17R18118   1.968   1.563   3.289 -1.8338 -0.0703  0.1435
  162SAPE  H17S18119   1.908   1.553   3.125  1.7860 -2.3892 -0.3855
  162SAPE  C21818120   1.923   1.764   3.189  0.9607 -0.6661 -0.3759
  162SAPE  H18R18121   1.912   1.805   3.087 -1.0178  0.2654  0.1484
  162SAPE  H18S18122   1.995   1.833   3.238  1.2925  0.0469 -1.8249
  162SAPE  C21918123   1.790   1.779   3.272  0.2095  0.4774  0.2608
  162SAPE  H19R18124   1.715   1.704   3.237  0.4879  0.9281 -1.4221
  162SAPE  H19S18125   1.760   1.884   3.249  1.2518  0.7646  0.1403
  162SAPE  C22018126   1.799   1.757   3.425 -0.7171 -0.0143  0.0388
  162SAPE  H20R18127   1.715   1.806   3.480 -1.0469  0.4596 -0.8777
  162SAPE  H20S18128   1.897   1.784   3.470 -0.8495 -0.3914  0.5747
  162SAPE  H20T18129   1.782   1.650   3.453 -2.4051  0.5157  1.2257
  162SAPE   C3318130   2.603   1.246   2.138 -0.5087 -0.5685 -0.0749
  162SAPE   H3X18131   2.710   1.229   2.115  0.3903  2.5715  1.2568
  162SAPE   H3Y18132   2.561   1.152   2.181  0.8173  0.2584  3.3347
  162SAPE   C3418133   2.598   1.344   2.257  0.6825  0.0025 -0.4519
  162SAPE   H4X18134   2.493   1.378   2.268  0.4695 -0.3390 -1.3611
  162SAPE   H4Y18135   2.670   1.427   2.241  1.5327 -0.4859  0.6867
  162SAPE   C3518136   2.637   1.265   2.388  0.3949  0.8535  0.3573
  162SAPE   H5X18137   2.738   1.222   2.369 -0.3632 -0.6623 -0.4205
  162SAPE   H5Y18138   2.562   1.183   2.401 -1.4332  2.5369  0.8857
  162SAPE   C3618139   2.654   1.342   2.522  0.0789  0.2341 -0.2655
  162SAPE   H6X18140   2.561   1.327   2.580 -0.1392 -2.7799 -1.1771
  162SAPE   H6Y18141   2.657   1.450   2.497 -1.3542  0.7203  1.4754
  162SAPE   C3718142   2.776   1.302   2.619  0.1723  0.7749  0.3616
  162SAPE   H7X18143   2.870   1.299   2.559  0.0381  1.1111  0.1273
  162SAPE   H7Y18144   2.756   1.197   2.648  0.0159  0.3814 -1.0869
  162SAPE   C3818145   2.799   1.378   2.745 -0.5821 -0.1945 -0.4161
  162SAPE   H8X18146   2.802   1.485   2.715 -0.1567  0.3753  1.5362
  162SAPE   H8Y18147   2.888   1.348   2.804  0.4664  0.6722 -1.5200
  162SAPE   C3918148   2.687   1.366   2.855  0.0414 -0.7261  0.4843
  162SAPE   H9X18149   2.692   1.265   2.902  0.1665 -0.4515  1.0705
  162SAPE   H9Y18150   2.591   1.364   2.799 -1.4263 -3.1843  2.8687
  162SAPE  C31018151   2.682   1.476   2.962  0.2464 -0.1429 -0.2709
  162SAPE  H10X18152   2.580   1.515   2.980  1.6247  5.1344 -1.9728
  162SAPE  H10Y18153   2.732   1.570   2.928  1.9547 -0.9440 -0.1110
  162SAPE  C31118154   2.749   1.423   3.094 -0.1336 -0.0705 -0.2491
  162SAPE  H11X18155   2.783   1.515   3.146 -2.9582  1.1603 -0.3942
  162SAPE  H11Y18156   2.839   1.370   3.058  2.0872  1.7941  2.1864
  162SAPE  C31218157   2.661   1.331   3.180  0.7825 -0.2846  0.0947
  162SAPE  H12X18158   2.629   1.253   3.107  0.2009  0.9488 -1.0167
  162SAPE  H12Y18159   2.572   1.395   3.199  0.2041 -0.4731 -1.7825
  162SAPE  C31318160   2.724   1.279   3.311  0.3898 -0.0123  0.4372
  162SAPE  H13X18161   2.644   1.218   3.357  0.8558  0.8628  2.4978
  162SAPE  H13Y18162   2.754   1.358   3.383 -3.1141  0.7076  1.2705
  162SAPE  C31418163   2.840   1.181   3.280 -0.6328  0.3323  0.4980
  162SAPE  H14X18164   2.938   1.226   3.310 -0.8872  2.2788 -1.3311
  162SAPE  H14Y18165   2.854   1.174   3.170  1.8966  0.5888  0.7249
  162SAPE  C31518166   2.824   1.043   3.336 -0.0631  0.4773  0.5958
  162SAPE  H15X18167   2.912   0.982   3.304  0.8879  1.7219  0.7715
  162SAPE  H15Y18168   2.735   0.991   3.295  0.4782  0.9395 -1.2519
  162SAPE  C31618169   2.830   1.034   3.486 -0.7144  0.7143 -0.6474
  162SAPE  H16X18170   2.804   0.927   3.501 -0.1513  0.4437 -1.5039
  162SAPE  H16Y18171   2.747   1.084   3.542 -0.8787 -2.2538  2.0660
  162SAPE  C31718172   2.972   1.054   3.541  0.5196 -0.1646 -0.1699
  162SAPE  H17X18173   2.988   1.164   3.531 -3.2574  0.3025 -3.4024
  162SAPE  H17Y18174   3.050   1.006   3.478 -1.1028 -1.4238 -1.2838
  162SAPE  C31818175   3.003   1.005   3.682 -0.4237  0.0160  0.5292
  162SAPE  H18X18176   2.922   1.030   3.753  0.7602 -0.4002  2.0773
  162SAPE  H18Y18177   3.095   1.056   3.716 -0.2150  0.9707 -1.3217
  162SAPE  H18Z18178   3.013   0.894   3.677  0.3450  0.1215 -1.2113
  163SAPE     N18179   4.758   6.358   1.758  0.8163 -1.0255  0.2725
  163SAPE   HN118180   4.786   6.275   1.700 -0.2414  0.8979 -3.2959
  163SAPE   HN218181   4.778   6.329   1.856 -0.8306  0.9017  1.2412
  163SAPE   HN318182   4.657   6.377   1.743  1.0647  0.9279  0.9028
  163SAPE   C1218183   4.849   6.477   1.725  0.3468  0.2621 -0.9095
  163SAPE  H12A18184   4.808   6.532   1.638  1.6441  0.3717 -1.4790
  163SAPE  H12B18185   4.951   6.434   1.714  1.1806  0.9134  2.6925
  163SAPE   C1118186   4.861   6.585   1.833 -0.1080 -0.6060  0.0701
  163SAPE  H11A18187   4.779   6.660   1.829  0.4976  0.0219 -1.7909
  163SAPE  H11B18188   4.953   6.643   1.809 -0.2043 -0.7250 -0.6048
  163SAPE     P18189   4.874   6.608   2.095 -0.3357  0.2363 -0.5333
  163SAPE   O1318190   4.905   6.526   2.216 -0.2177  0.4676  0.6097
  163SAPE   O1418191   4.965   6.722   2.068 -0.0552  0.5511  0.2491
  163SAPE   O1218192   4.878   6.522   1.962 -0.2919  0.2258 -0.5670
  163SAPE   O1118193   4.716   6.648   2.096  0.0957 -0.3106  0.1491
  163SAPE    C118194   4.615   6.548   2.093 -0.7620 -0.4005  0.3413
  163SAPE    HA18195   4.632   6.469   2.017  1.6319 -0.7827  1.1810
  163SAPE    HB18196   4.625   6.487   2.185  1.7184  1.2808  1.2944
  163SAPE    C218197   4.478   6.624   2.084  0.4841 -0.2139  0.0508
  163SAPE    HS18198   4.470   6.667   1.982  0.0035  0.5735  0.4042
  163SAPE   O2118199   4.482   6.728   2.185 -0.2449 -0.2985 -0.1250
  163SAPE   C2118200   4.379   6.807   2.177 -0.3656 -0.0372 -0.5535
  163SAPE   O2218201   4.299   6.806   2.086  0.4318  0.4860  0.0361
  163SAPE   C2218202   4.389   6.897   2.302  0.2100  0.4886  0.7652
  163SAPE   H2R18203   4.408   6.820   2.380  1.5912 -2.0938 -1.9019
  163SAPE   H2S18204   4.488   6.948   2.294  0.2164  0.4256  0.4443
  163SAPE    C318205   4.365   6.516   2.109 -0.3365 -0.4073 -0.0218
  163SAPE    HX18206   4.380   6.440   2.029 -1.3506  0.4241 -1.0419
  163SAPE    HY18207   4.267   6.564   2.088 -0.1449  0.6839  1.4393
  163SAPE   O3118208   4.393   6.462   2.233 -0.3969  0.0281 -0.1632
  163SAPE   C3118209   4.303   6.490   2.334 -0.0220  0.3685  0.1487
  163SAPE   O3218210   4.199   6.551   2.316 -0.3479  0.1241 -0.0234
  163SAPE   C3218211   4.344   6.432   2.473  0.7003  0.1896 -0.4074
  163SAPE   H2X18212   4.425   6.359   2.452  0.4124 -0.4198  0.5421
  163SAPE   H2Y18213   4.254   6.378   2.511  0.8936 -0.5486 -0.9709
  163SAPE   C2318214   4.280   6.991   2.322 -0.5923  0.4298  0.0449
  163SAPE   H3R18215   4.272   7.042   2.224  1.3563 -3.0206 -2.1068
  163SAPE   H3S18216   4.316   7.061   2.401  0.1954 -0.6219  0.6461
  163SAPE   C2418217   4.143   6.921   2.367  0.0507  0.3377 -0.2597
  163SAPE   H4R18218   4.152   6.817   2.329  0.4117  0.9669 -1.9752
  163SAPE   H4S18219   4.054   6.970   2.323 -1.5722 -0.5429  1.8550
  163SAPE   C2518220   4.119   6.925   2.516 -0.6697  0.9066  0.8729
  163SAPE   H5R18221   4.181   6.997   2.571 -0.7241  0.1313  1.9696
  163SAPE   C2618222   4.025   6.845   2.572 -0.1877 -0.0211 -0.3177
  163SAPE   H6R18223   4.010   6.845   2.680  0.1621 -2.8466 -0.1805
  163SAPE   C2718224   3.950   6.735   2.507  0.0973  1.0572  0.2297
  163SAPE   H7R18225   3.941   6.656   2.584  2.3058 -0.0120 -0.5397
  163SAPE   H7S18226   4.007   6.691   2.423 -1.5426 -0.0193 -0.3750
  163SAPE   C2818227   3.816   6.772   2.447 -0.4119 -0.7473 -0.4082
  163SAPE   H8R18228   3.821   6.819   2.348  1.5037 -1.1095 -0.5247
  163SAPE   C2918229   3.697   6.781   2.518 -0.0338 -0.0095  0.2329
  163SAPE   H9R18230   3.615   6.827   2.462  1.2754 -0.8466 -2.5695
  163SAPE  C21018231   3.670   6.736   2.657 -0.1539  0.2455  0.0899
  163SAPE  H10R18232   3.696   6.820   2.725 -0.8711 -0.8808  1.8316
  163SAPE  H10S18233   3.744   6.653   2.667 -0.7459 -0.2797  0.2280
  163SAPE  C21118234   3.525   6.690   2.679  0.9064  0.1065 -0.6045
  163SAPE  H11R18235   3.468   6.648   2.595  1.4425 -1.2635 -0.3177
  163SAPE  C21218236   3.452   6.718   2.794  0.3841  0.7283  1.1056
  163SAPE  H12R18237   3.346   6.691   2.797  0.8835 -1.3434  1.3532
  163SAPE  C21318238   3.502   6.790   2.915 -0.0764 -0.0412 -0.2869
  163SAPE  H13R18239   3.457   6.891   2.908 -1.4195 -0.5841  0.2518
  163SAPE  H13S18240   3.610   6.816   2.909 -0.3209  1.0469 -0.1203
  163SAPE  C21418241   3.476   6.724   3.047  0.2774 -0.5447 -0.3258
  163SAPE  H14R18242   3.544   6.640   3.069  2.7274  1.8424  1.9218
  163SAPE  C21518243   3.392   6.765   3.146  0.3084 -0.3659 -0.1340
  163SAPE  H15R18244   3.382   6.703   3.236  1.5628  0.0770  0.3394
  163SAPE  C21618245   3.315   6.897   3.142 -0.8195  0.5529 -0.6211
  163SAPE  H16R18246   3.212   6.883   3.181 -0.5553 -0.1116 -0.1505
  163SAPE  H16S18247   3.298   6.923   3.035  0.3557 -1.8384 -1.4583
  163SAPE  C21718248   3.394   7.007   3.217 -0.7255 -0.2020 -0.7569
  163SAPE  H17R18249   3.343   7.104   3.200 -1.8107 -0.4277  0.9139
  163SAPE  H17S18250   3.498   7.014   3.178 -0.6831  0.5127 -0.5369
  163SAPE  C21818251   3.408   7.005   3.365  0.4665  0.2755 -0.0169
  163SAPE  H18R18252   3.482   7.070   3.417  0.4852 -1.1590  1.8749
  163SAPE  H18S18253   3.436   6.901   3.391 -0.4849  0.2809  1.1329
  163SAPE  C21918254   3.267   7.040   3.426  0.0167 -0.8760  0.6667
  163SAPE  H19R18255   3.180   6.989   3.380 -1.0132  1.6540 -0.3928
  163SAPE  H19S18256   3.253   7.147   3.400  1.7325 -0.3254  1.7899
  163SAPE  C22018257   3.263   7.023   3.579  0.0247  0.1476  0.7575
  163SAPE  H20R18258   3.339   7.100   3.602  0.9287 -0.3966 -0.2894
  163SAPE  H20S18259   3.300   6.927   3.621 -1.6005 -1.1936 -0.6892
  163SAPE  H20T18260   3.163   7.041   3.623  0.8591 -1.3888  3.5241
  163SAPE   C3318261   4.379   6.548   2.572  0.2532  0.3097 -0.0999
  163SAPE   H3X18262   4.345   6.646   2.533  1.9432  0.5977 -0.9520
  163SAPE   H3Y18263   4.490   6.556   2.572  0.1809  3.3102 -3.0168
  163SAPE   C3418264   4.305   6.519   2.701  0.8188  0.6861 -0.2401
  163SAPE   H4X18265   4.319   6.414   2.733 -0.1171  0.3215 -0.9806
  163SAPE   H4Y18266   4.196   6.513   2.677  1.4389  0.8231 -3.5288
  163SAPE   C3518267   4.334   6.619   2.818  0.3298 -0.0082 -0.1919
  163SAPE   H5X18268   4.326   6.723   2.778  0.4292 -0.7415 -2.2547
  163SAPE   H5Y18269   4.437   6.596   2.851 -0.0066 -0.9583  0.2152
  163SAPE   C3618270   4.237   6.596   2.942  0.0017  0.1642 -0.3365
  163SAPE   H6X18271   4.291   6.614   3.037 -1.4994  0.9029  0.4023
  163SAPE   H6Y18272   4.197   6.492   2.939  0.2814  0.0568 -0.4085
  163SAPE   C3718273   4.111   6.686   2.932  0.1027  0.5623  0.2018
  163SAPE   H7X18274   4.065   6.669   2.832 -0.0742 -1.7306  0.6144
  163SAPE   H7Y18275   4.151   6.789   2.942  1.5148  0.1297 -0.7169
  163SAPE   C3818276   4.017   6.662   3.049 -0.2112  0.1695 -0.6311
  163SAPE   H8X18277   4.058   6.661   3.152 -3.4204 -1.0417  0.7379
  163SAPE   H8Y18278   3.959   6.570   3.030 -1.0126  0.1661  1.5940
  163SAPE   C3918279   3.915   6.777   3.054  0.3740 -0.0917  0.7349
  163SAPE   H9X18280   3.867   6.785   2.954 -0.6319 -0.1415  1.2068
  163SAPE   H9Y18281   3.967   6.875   3.066 -1.7007  1.0367  0.9708
  163SAPE  C31018282   3.808   6.759   3.155  0.3155 -0.2456 -0.6496
  163SAPE  H10X18283   3.747   6.673   3.121 -1.0781  0.4181  0.0957
  163SAPE  H10Y18284   3.741   6.847   3.147 -0.4338 -0.5166  1.6121
  163SAPE  C31118285   3.854   6.744   3.300  0.5789 -0.1144 -0.1748
  163SAPE  H11X18286   3.927   6.824   3.325 -0.5302  0.4944  1.2175
  163SAPE  H11Y18287   3.920   6.659   3.329  1.3793  1.1902  2.0783
  163SAPE  C31218288   3.746   6.778   3.396  0.3796 -0.3313  0.6086
  163SAPE  H12X18289   3.686   6.687   3.415 -0.0154 -0.2787 -0.3492
  163SAPE  H12Y18290   3.680   6.850   3.343  1.1430  0.0844  0.2059
  163SAPE  C31318291   3.799   6.839   3.521 -0.5737 -0.0543 -0.3334
  163SAPE  H13X18292   3.855   6.931   3.495 -0.4996 -0.3416 -1.2286
  163SAPE  H13Y18293   3.879   6.783   3.575  1.8167  1.4536 -2.1239
  163SAPE  C31418294   3.700   6.877   3.632 -0.0919  0.0825  0.6419
  163SAPE  H14X18295   3.597   6.839   3.615  0.5091 -1.3043 -0.0496
  163SAPE  H14Y18296   3.689   6.987   3.622 -0.2232  0.1717  1.6652
  163SAPE  C31518297   3.732   6.855   3.778 -0.2630 -0.3699  0.5050
  163SAPE  H15X18298   3.813   6.917   3.823 -0.2205 -0.4149  0.4903
  163SAPE  H15Y18299   3.751   6.748   3.800  0.4165 -0.8281 -1.9877
  163SAPE  C31618300   3.612   6.894   3.871 -0.5474  0.8223  1.0962
  163SAPE  H16X18301   3.524   6.859   3.813  1.3119  0.1506 -1.4730
  163SAPE  H16Y18302   3.611   7.003   3.895 -1.3129  0.8766  0.8589
  163SAPE  C31718303   3.615   6.818   4.010  0.0888  0.1929 -0.7878
  163SAPE  H17X18304   3.698   6.861   4.070 -1.7828  1.6581  0.9015
  163SAPE  H17Y18305   3.632   6.710   3.993 -2.1763 -0.6282  1.5082
  163SAPE  C31818306   3.486   6.840   4.095 -0.3835 -0.4909  0.5354
  163SAPE  H18X18307   3.468   6.950   4.098 -0.5891 -0.3831 -2.1191
  163SAPE  H18Y18308   3.499   6.811   4.201  0.9784 -1.6138  0.0788
  163SAPE  H18Z18309   3.396   6.786   4.059 -1.3305  0.9319  0.6523
  164SAPE     N18310   5.848   4.957   1.875 -0.2090  0.4835  0.1874
  164SAPE   HN118311   5.803   4.864   1.873  3.1656 -1.2919  0.0181
  164SAPE   HN218312   5.910   4.979   1.794 -1.0724  1.9293 -0.1208
  164SAPE   HN318313   5.906   4.966   1.961  1.0728 -0.4273 -0.5469
  164SAPE   C1218314   5.735   5.055   1.889  0.0484 -0.0232  0.1137
  164SAPE  H12A18315   5.658   5.004   1.951 -0.8370 -0.8009 -1.5872
  164SAPE  H12B18316   5.688   5.071   1.791  0.9357 -1.0496 -0.5100
  164SAPE   C1118317   5.776   5.195   1.943 -0.6910  0.4088  0.1528
  164SAPE  H11A18318   5.781   5.177   2.052  2.0070  0.8784  0.1868
  164SAPE  H11B18319   5.702   5.276   1.925 -2.7941 -1.3003  0.8490
  164SAPE     P18320   5.965   5.365   1.955  0.0583 -0.1098  0.3317
  164SAPE   O1318321   6.101   5.382   1.901  0.1360 -0.1273  0.1442
  164SAPE   O1418322   5.877   5.474   1.914 -0.3125  0.0667 -0.5581
  164SAPE   O1218323   5.905   5.233   1.898  0.1444  0.5299 -0.1383
  164SAPE   O1118324   5.967   5.344   2.111  0.8713 -0.3259  0.0022
  164SAPE    C118325   6.049   5.267   2.190 -0.6244 -0.2361  0.3699
  164SAPE    HA18326   6.067   5.165   2.150  0.3697  0.1363 -0.1736
  164SAPE    HB18327   6.154   5.304   2.196 -0.8373  0.5288 -0.5386
  164SAPE    C218328   5.977   5.236   2.327  0.3987  0.2520 -0.3009
  164SAPE    HS18329   5.873   5.211   2.298 -0.3305 -1.0756  3.0276
  164SAPE   O2118330   5.989   5.345   2.420 -0.5233 -0.1541  0.1421
  164SAPE   C2118331   5.892   5.360   2.502 -0.2571 -0.1748 -0.1211
  164SAPE   O2218332   5.788   5.301   2.506  0.5202 -0.0227  0.2173
  164SAPE   C2218333   5.941   5.444   2.619 -0.0647  0.2757  0.4157
  164SAPE   H2R18334   6.044   5.481   2.599  0.0846 -0.0136  0.6298
  164SAPE   H2S18335   5.874   5.532   2.615 -1.3375 -0.6919 -0.1309
  164SAPE    C318336   6.032   5.107   2.403 -0.7890  0.3566 -0.0733
  164SAPE    HX18337   6.038   5.019   2.335 -1.3238 -0.2956  0.7092
  164SAPE    HY18338   5.960   5.078   2.482 -0.9056  1.6512  0.3173
  164SAPE   O3118339   6.161   5.127   2.460 -0.5318  0.3092 -0.4369
  164SAPE   C3118340   6.219   5.013   2.500 -0.4417  0.3721  0.1418
  164SAPE   O3218341   6.173   4.901   2.488  0.0154 -0.0555  0.4519
  164SAPE   C3218342   6.362   5.047   2.560  0.9834 -0.2309 -0.3361
  164SAPE   H2X18343   6.360   5.156   2.581 -1.7515 -0.1557 -0.7005
  164SAPE   H2Y18344   6.446   5.039   2.487  0.8181 -0.8265 -0.4710
  164SAPE   C2318345   5.941   5.382   2.763  0.2215  0.3197  0.0820
  164SAPE   H3R18346   5.839   5.352   2.793  1.1450 -2.0809  1.0622
  164SAPE   H3S18347   5.971   5.461   2.836  0.7160 -1.1064  1.4756
  164SAPE   C2418348   6.036   5.256   2.767  0.0474 -0.9177 -0.2370
  164SAPE   H4R18349   5.998   5.187   2.689 -1.7970  0.4481 -0.6178
  164SAPE   H4S18350   6.022   5.203   2.863  0.5949  0.9747  0.9489
  164SAPE   C2518351   6.178   5.303   2.748 -0.0893  0.2707 -0.6847
  164SAPE   H5R18352   6.196   5.315   2.640  1.0933  3.1186 -0.2631
  164SAPE   C2618353   6.279   5.309   2.838  0.6550 -0.3507 -0.9570
  164SAPE   H6R18354   6.378   5.339   2.802  0.4930 -1.0579 -2.0617
  164SAPE   C2718355   6.262   5.270   2.986 -0.2681  0.6220  0.6017
  164SAPE   H7R18356   6.280   5.161   2.992  1.3969  0.8431  0.1669
  164SAPE   H7S18357   6.165   5.289   3.036  1.1106 -1.0131  4.1850
  164SAPE   C2818358   6.363   5.343   3.072  0.1708 -0.6772  0.0034
  164SAPE   H8R18359   6.362   5.452   3.055 -3.1581 -0.5179  0.5476
  164SAPE   C2918360   6.428   5.290   3.177  0.5939 -0.0474  0.0937
  164SAPE   H9R18361   6.493   5.356   3.235 -0.1992 -0.0999  1.0679
  164SAPE  C21018362   6.407   5.149   3.219  0.1106  0.1535 -0.1414
  164SAPE  H10R18363   6.493   5.102   3.167  1.0253  3.2797 -1.6745
  164SAPE  H10S18364   6.308   5.106   3.193  0.6006 -1.1872  0.1224
  164SAPE  C21118365   6.431   5.118   3.363 -0.1278 -0.6254 -0.1823
  164SAPE  H11R18366   6.425   5.206   3.429 -0.2767  0.5490 -1.6995
  164SAPE  C21218367   6.454   4.991   3.405 -0.3294  0.2650 -0.6828
  164SAPE  H12R18368   6.437   4.976   3.512 -0.4664  0.0630 -0.7329
  164SAPE  C21318369   6.469   4.873   3.310  0.3235  0.2192 -0.1560
  164SAPE  H13R18370   6.487   4.906   3.206  0.5156  1.1368  0.1599
  164SAPE  H13S18371   6.373   4.817   3.306  0.8681 -0.6435 -2.2530
  164SAPE  C21418372   6.583   4.791   3.359 -0.0780 -0.2278 -0.9601
  164SAPE  H14R18373   6.680   4.842   3.344 -1.2725  2.1387 -1.1381
  164SAPE  C21518374   6.585   4.670   3.414 -0.8927  0.0607 -0.3598
  164SAPE  H15R18375   6.681   4.628   3.447 -1.9696 -1.0610  1.5175
  164SAPE  C21618376   6.467   4.585   3.444 -0.0917 -0.1045 -0.6664
  164SAPE  H16R18377   6.503   4.484   3.473  1.7521  0.4794 -0.7279
  164SAPE  H16S18378   6.398   4.565   3.360  0.2978 -1.5285 -0.6763
  164SAPE  C21718379   6.397   4.648   3.570  0.0327  0.2093  0.3997
  164SAPE  H17R18380   6.343   4.740   3.538  0.3087  1.6325  3.6244
  164SAPE  H17S18381   6.472   4.677   3.647 -1.7350  3.8067  1.0046
  164SAPE  C21818382   6.301   4.558   3.636  0.1121 -0.1030  0.2851
  164SAPE  H18R18383   6.234   4.509   3.563 -2.3905 -0.9863  2.9994
  164SAPE  H18S18384   6.235   4.622   3.699 -0.7615 -0.3618 -0.3575
  164SAPE  C21918385   6.370   4.444   3.725  0.4738 -0.4477  0.1734
  164SAPE  H19R18386   6.433   4.386   3.654  0.0057 -0.0303 -0.6029
  164SAPE  H19S18387   6.300   4.373   3.773 -0.6878  0.5697  0.0256
  164SAPE  C22018388   6.445   4.507   3.839  0.5053  0.0634 -0.6911
  164SAPE  H20R18389   6.375   4.558   3.909 -1.3050 -1.7291 -1.0861
  164SAPE  H20S18390   6.520   4.583   3.809 -0.1930  0.4012 -1.6137
  164SAPE  H20T18391   6.493   4.427   3.901  0.2248 -1.3578 -2.2198
  164SAPE   C3318392   6.402   4.964   2.686  1.0699 -0.7423 -0.8301
  164SAPE   H3X18393   6.370   4.858   2.672  3.6946 -1.5538 -1.3035
  164SAPE   H3Y18394   6.342   4.997   2.773  1.2046 -3.7735  0.5534
  164SAPE   C3418395   6.546   4.976   2.723 -0.4920  0.5666 -0.4082
  164SAPE   H4X18396   6.600   4.915   2.647  0.7927 -0.1866  1.0764
  164SAPE   H4Y18397   6.556   4.929   2.822  1.2455 -0.2102 -0.9154
  164SAPE   C3518398   6.598   5.120   2.738  0.8024  0.0999 -0.1266
  164SAPE   H5X18399   6.530   5.178   2.804  1.2610  2.5942 -1.7171
  164SAPE   H5Y18400   6.600   5.163   2.636  1.9496  0.0004 -0.1687
  164SAPE   C3618401   6.748   5.120   2.785 -0.4520  0.5020  0.3202
  164SAPE   H6X18402   6.806   5.173   2.708  0.4347 -0.9367 -0.0471
  164SAPE   H6Y18403   6.789   5.017   2.794 -1.2785  0.1702  0.4597
  164SAPE   C3718404   6.772   5.189   2.922  0.0496 -0.1970  0.2302
  164SAPE   H7X18405   6.710   5.280   2.943 -1.4204 -1.1457  0.1511
  164SAPE   H7Y18406   6.876   5.225   2.934 -0.3745  0.9299  0.7965
  164SAPE   C3818407   6.764   5.088   3.039 -0.1946  0.0067  0.3563
  164SAPE   H8X18408   6.851   5.021   3.019  1.7810  2.8580 -1.2226
  164SAPE   H8Y18409   6.671   5.026   3.042 -1.7543  2.1460 -0.8670
  164SAPE   C3918410   6.786   5.154   3.176  0.2476 -0.2861  1.0166
  164SAPE   H9X18411   6.688   5.171   3.225  0.0718  0.5938  0.3759
  164SAPE   H9Y18412   6.829   5.254   3.152  0.1802 -0.4325  0.2811
  164SAPE  C31018413   6.884   5.084   3.263 -0.6340  0.2087 -0.1450
  164SAPE  H10X18414   6.981   5.087   3.209 -0.1720  1.8553  0.7167
  164SAPE  H10Y18415   6.858   4.977   3.281  0.2394  0.3314  2.1605
  164SAPE  C31118416   6.897   5.156   3.394  0.7884 -0.2373  0.3960
  164SAPE  H11X18417   6.928   5.262   3.382  0.3146 -0.0153  1.0882
  164SAPE  H11Y18418   6.978   5.105   3.452 -0.3482  1.3602  3.6404
  164SAPE  C31218419   6.773   5.155   3.484 -0.1978 -0.4166  0.3266
  164SAPE  H12X18420   6.745   5.048   3.497  1.9956 -0.9294  1.4329
  164SAPE  H12Y18421   6.696   5.211   3.427 -0.2147 -0.5433  0.2247
  164SAPE  C31318422   6.810   5.221   3.619 -0.3702  0.3949  0.4298
  164SAPE  H13X18423   6.822   5.330   3.602 -0.8409  0.1869 -1.4751
  164SAPE  H13Y18424   6.897   5.181   3.676 -0.3096 -1.2029 -0.6903
  164SAPE  C31418425   6.692   5.214   3.722 -0.3366  0.6208  0.4695
  164SAPE  H14X18426   6.604   5.243   3.661 -1.3277 -2.2348  0.4077
  164SAPE  H14Y18427   6.725   5.291   3.795  1.8034 -0.3115  0.5537
  164SAPE  C31518428   6.666   5.077   3.791  0.2106 -0.3270  0.0275
  164SAPE  H15X18429   6.768   5.055   3.830  0.6970  0.1407 -0.9591
  164SAPE  H15Y18430   6.641   5.009   3.708 -0.9618  0.6914 -0.4801
  164SAPE  C31618431   6.555   5.070   3.902  0.1041  0.2618  0.1963
  164SAPE  H16X18432   6.583   4.980   3.961  3.1774  0.2645 -1.1041
  164SAPE  H16Y18433   6.459   5.041   3.854 -1.5706  0.6059  3.0748
  164SAPE  C31718434   6.543   5.200   3.987  0.2128  0.1254  0.4668
  164SAPE  H17X18435   6.503   5.290   3.936  2.0869  0.8068  0.1471
  164SAPE  H17Y18436   6.644   5.229   4.023  0.6917 -0.3627 -0.4592
  164SAPE  C31818437   6.447   5.178   4.112 -0.3077  0.4380  0.3083
  164SAPE  H18X18438   6.496   5.109   4.184 -1.9439  1.2408  2.2519
  164SAPE  H18Y18439   6.353   5.137   4.068 -0.3472  1.1131 -0.2561
  164SAPE  H18Z18440   6.419   5.269   4.169 -0.3130 -0.9822  2.7122
  165SAPE     N18441   3.887   6.771   1.702 -0.4349  0.1935 -0.2389
  165SAPE   HN118442   3.834   6.780   1.613 -0.2468  0.3441 -0.3357
  165SAPE   HN218443   3.989   6.762   1.681 -0.9941 -1.1991 -2.7829
  165SAPE   HN318444   3.854   6.679   1.737  0.0447 -0.7044 -1.9993
  165SAPE   C1218445   3.859   6.886   1.805  0.4770  0.1362  0.7054
  165SAPE  H12A18446   3.961   6.928   1.818  1.0140 -0.6846 -0.6472
  165SAPE  H12B18447   3.832   6.831   1.898  2.5821  0.4340  1.5435
  165SAPE   C1118448   3.756   6.986   1.753 -0.0802 -0.2495  0.2694
  165SAPE  H11A18449   3.820   7.053   1.692 -0.0895 -1.6530 -1.3442
  165SAPE  H11B18450   3.727   7.048   1.841 -0.1023 -0.1819  0.2148
  165SAPE     P18451   3.535   6.851   1.781  0.0488 -0.2909 -0.1884
  165SAPE   O1318452   3.493   6.714   1.734 -0.2126 -0.2742 -0.3545
  165SAPE   O1418453   3.572   6.864   1.919 -0.4549  0.2621  0.1293
  165SAPE   O1218454   3.646   6.926   1.686  0.3654  0.2193 -0.4741
  165SAPE   O1118455   3.404   6.943   1.762 -0.4879  0.5586 -0.4235
  165SAPE    C118456   3.402   7.088   1.755 -0.8461  0.2487  0.7868
  165SAPE    HA18457   3.493   7.123   1.702 -0.9724  1.2258  1.1905
  165SAPE    HB18458   3.322   7.118   1.684  0.7832  0.6407 -0.9643
  165SAPE    C218459   3.398   7.171   1.883  0.5856  0.1247 -0.2112
  165SAPE    HS18460   3.502   7.188   1.918  0.4840  1.0870 -0.3509
  165SAPE   O2118461   3.317   7.087   1.968  0.1987 -0.7327 -0.2575
  165SAPE   C2118462   3.358   7.074   2.093  0.6613 -0.0895 -0.2047
  165SAPE   O2218463   3.469   7.101   2.134  0.0877 -0.1919 -0.3717
  165SAPE   C2218464   3.253   7.014   2.182 -0.0275  0.0458  0.1167
  165SAPE   H2R18465   3.151   7.053   2.158  0.3805  3.1247  2.6935
  165SAPE   H2S18466   3.246   6.904   2.165 -0.8625 -0.1930  1.7699
  165SAPE    C318467   3.349   7.316   1.864 -0.1767 -0.2064 -0.4813
  165SAPE    HX18468   3.250   7.308   1.815  0.3311 -0.2476 -1.5309
  165SAPE    HY18469   3.414   7.362   1.786  0.3047  0.5967  0.3649
  165SAPE   O3118470   3.344   7.386   1.990  0.3728  0.0812  0.0060
  165SAPE   C3118471   3.452   7.458   2.018 -0.1516 -0.2355  0.4017
  165SAPE   O3218472   3.550   7.467   1.946 -0.5761 -0.0534 -0.0527
  165SAPE   C3218473   3.418   7.544   2.145  1.0595  0.1895 -0.1074
  165SAPE   H2X18474   3.311   7.530   2.174  0.7450  0.1652 -1.2286
  165SAPE   H2Y18475   3.432   7.647   2.108  2.1201 -0.1079 -0.5504
  165SAPE   C2318476   3.290   7.038   2.335  0.0335 -0.0093  0.4341
  165SAPE   H3R18477   3.298   7.147   2.353  0.6103  0.0986 -0.3887
  165SAPE   H3S18478   3.388   6.988   2.350  1.2796  0.7180 -3.7698
  165SAPE   C2418479   3.190   6.970   2.431  0.2816 -0.5590  0.0505
  165SAPE   H4R18480   3.172   6.864   2.403  0.8682 -1.6397  3.3208
  165SAPE   H4S18481   3.099   7.033   2.427  1.7599  1.7060  0.1316
  165SAPE   C2518482   3.246   6.962   2.573  0.5692  0.5445 -0.1958
  165SAPE   H5R18483   3.350   6.929   2.587  1.0109  1.2227 -1.6429
  165SAPE   C2618484   3.172   6.990   2.680  0.4622 -0.4266 -0.2913
  165SAPE   H6R18485   3.217   6.993   2.780 -1.7678  1.7752  0.7499
  165SAPE   C2718486   3.030   7.042   2.686 -0.1384  0.4761  0.3129
  165SAPE   H7R18487   2.981   7.000   2.595  0.0080 -0.6396  0.7341
  165SAPE   H7S18488   3.039   7.153   2.687  0.1116  0.4547  1.2924
  165SAPE   C2818489   2.954   6.988   2.804 -0.1943 -0.4059  0.0085
  165SAPE   H8R18490   2.896   6.896   2.787 -1.8355  0.1200  2.2986
  165SAPE   C2918491   2.925   7.057   2.915  0.2404  0.2362  0.1164
  165SAPE   H9R18492   2.858   7.006   2.985  1.1922 -3.0197 -1.1590
  165SAPE  C21018493   2.982   7.190   2.962 -0.0225  0.3408 -0.1880
  165SAPE  H10R18494   3.026   7.240   2.873  1.5874  0.4397  0.6313
  165SAPE  H10S18495   3.071   7.168   3.024  1.5065  1.0923 -1.9919
  165SAPE  C21118496   2.880   7.277   3.033 -0.4069  0.0177 -0.1261
  165SAPE  H11R18497   2.794   7.306   2.971 -0.7771  0.0381  0.3921
  165SAPE  C21218498   2.882   7.318   3.163  0.2753 -0.5096  0.0905
  165SAPE  H12R18499   2.803   7.387   3.195 -0.4405 -0.1509 -2.2250
  165SAPE  C21318500   2.993   7.296   3.263  0.3551  0.4728 -0.1949
  165SAPE  H13R18501   3.050   7.207   3.227  0.7380  1.1790 -1.3721
  165SAPE  H13S18502   2.946   7.268   3.360  1.1796  0.3788  0.1932
  165SAPE  C21418503   3.081   7.412   3.307 -0.3668 -0.2882  0.4329
  165SAPE  H14R18504   3.124   7.466   3.221  1.4745  0.0128  1.5054
  165SAPE  C21518505   3.126   7.451   3.428  0.0767  0.0220  0.2583
  165SAPE  H15R18506   3.174   7.550   3.426  0.6731 -0.2805 -1.7731
  165SAPE  C21618507   3.098   7.386   3.557  0.2740  0.3616 -0.5050
  165SAPE  H16R18508   3.190   7.372   3.618  0.1742 -0.9178 -0.6185
  165SAPE  H16S18509   3.060   7.284   3.532  0.1756  0.5847 -1.3187
  165SAPE  C21718510   2.998   7.462   3.655 -0.8989 -0.1150 -0.2789
  165SAPE  H17R18511   2.946   7.387   3.718 -1.1184 -0.8775 -1.3361
  165SAPE  H17S18512   2.913   7.500   3.593 -0.3665 -0.4067 -1.2162
  165SAPE  C21818513   3.076   7.573   3.729  0.3083  1.0925 -0.0432
  165SAPE  H18R18514   3.128   7.637   3.655 -0.2820  0.5171 -0.9781
  165SAPE  H18S18515   3.164   7.537   3.786 -1.1135 -1.6793  0.5585
  165SAPE  C21918516   2.993   7.666   3.822 -0.2435 -0.2858 -0.4752
  165SAPE  H19R18517   2.894   7.700   3.783  0.4179  2.2194 -0.1748
  165SAPE  H19S18518   3.057   7.756   3.808  1.0160 -1.2059 -0.7405
  165SAPE  C22018519   3.004   7.624   3.964  0.1799 -0.2875 -0.2996
  165SAPE  H20R18520   2.935   7.543   3.998 -0.3319 -0.1787 -1.0694
  165SAPE  H20S18521   2.992   7.706   4.037 -0.6688  0.8551 -1.6835
  165SAPE  H20T18522   3.104   7.582   3.990 -0.2586 -0.0094  2.0910
  165SAPE   C3318523   3.518   7.519   2.255 -0.5158  0.0502 -0.2323
  165SAPE   H3X18524   3.522   7.620   2.301  1.2496  0.6144 -1.5046
  165SAPE   H3Y18525   3.620   7.489   2.221 -0.3148 -2.5093  2.2468
  165SAPE   C3418526   3.470   7.424   2.363  0.2195  0.1855 -0.0783
  165SAPE   H4X18527   3.555   7.379   2.418  0.0558  0.2750  0.2547
  165SAPE   H4Y18528   3.423   7.337   2.311 -2.0888  2.1583 -1.5269
  165SAPE   C3518529   3.377   7.484   2.468  0.4880  0.1682  0.0823
  165SAPE   H5X18530   3.286   7.526   2.420  0.5250  1.6561  1.2440
  165SAPE   H5Y18531   3.426   7.578   2.501  0.0578  0.5647 -0.4018
  165SAPE   C3618532   3.367   7.385   2.579 -0.4253  0.2061  0.5430
  165SAPE   H6X18533   3.392   7.283   2.545 -0.4223  0.5624 -0.5384
  165SAPE   H6Y18534   3.267   7.393   2.628  0.1954  2.1048  1.6267
  165SAPE   C3718535   3.474   7.417   2.691  0.9150 -0.2099  1.1675
  165SAPE   H7X18536   3.466   7.526   2.711 -1.3078 -0.5587  2.5354
  165SAPE   H7Y18537   3.576   7.391   2.658  0.1316 -1.5213 -0.3043
  165SAPE   C3818538   3.443   7.356   2.825 -0.0132 -0.2952 -0.9155
  165SAPE   H8X18539   3.465   7.248   2.807 -1.3144 -0.6664 -0.3594
  165SAPE   H8Y18540   3.335   7.370   2.843  0.0998 -0.9077  0.4458
  165SAPE   C3918541   3.532   7.398   2.942  0.4606 -0.7094 -0.4513
  165SAPE   H9X18542   3.530   7.509   2.947 -3.1703 -0.5869 -1.8083
  165SAPE   H9Y18543   3.636   7.363   2.925  0.7754  0.0108 -0.0351
  165SAPE  C31018544   3.465   7.367   3.074  0.5458  0.5839  0.5358
  165SAPE  H10X18545   3.427   7.264   3.088  1.0912  0.5390  1.7962
  165SAPE  H10Y18546   3.380   7.439   3.081 -0.3819 -0.5030  0.7898
  165SAPE  C31118547   3.556   7.403   3.194  0.2038  0.4739  0.1756
  165SAPE  H11X18548   3.606   7.501   3.183 -0.1483  0.9274  2.2909
  165SAPE  H11Y18549   3.632   7.322   3.199 -0.2795  0.0217  0.3388
  165SAPE  C31218550   3.486   7.386   3.328  1.1316  0.2970  0.7794
  165SAPE  H12X18551   3.450   7.281   3.336 -3.1263  1.6140  1.4125
  165SAPE  H12Y18552   3.395   7.449   3.321  0.3479 -0.9638 -1.6770
  165SAPE  C31318553   3.575   7.411   3.447  0.2537  0.3089 -0.1400
  165SAPE  H13X18554   3.617   7.513   3.454  0.4891  0.1525  0.9524
  165SAPE  H13Y18555   3.655   7.334   3.448  0.4234  0.4737 -0.6348
  165SAPE  C31418556   3.489   7.404   3.575  0.0068  0.3757  0.0708
  165SAPE  H14X18557   3.421   7.317   3.567 -0.1722  0.4266  0.8734
  165SAPE  H14Y18558   3.426   7.496   3.581 -1.2476 -0.1051 -3.5897
  165SAPE  C31518559   3.571   7.389   3.709  0.2228 -0.1554  0.4695
  165SAPE  H15X18560   3.628   7.483   3.723 -0.5252 -0.0066  2.9200
  165SAPE  H15Y18561   3.639   7.301   3.701  1.5288  0.9005 -0.3110
  165SAPE  C31618562   3.478   7.366   3.830  0.5545  0.2849 -0.4296
  165SAPE  H16X18563   3.442   7.263   3.813  1.1107  0.2739 -1.6825
  165SAPE  H16Y18564   3.392   7.436   3.825  1.5891  1.5575 -1.2661
  165SAPE  C31718565   3.539   7.380   3.962 -0.2302  0.1511  0.1909
  165SAPE  H17X18566   3.523   7.487   3.989  0.7943  0.0733  1.1981
  165SAPE  H17Y18567   3.648   7.357   3.962 -0.4965 -1.2322 -0.5480
  165SAPE  C31818568   3.477   7.297   4.076 -0.0923  0.0681  0.1775
  165SAPE  H18X18569   3.390   7.350   4.120 -0.8707 -0.2701 -0.8954
  165SAPE  H18Y18570   3.539   7.279   4.166  0.5008  0.0351 -0.2315
  165SAPE  H18Z18571   3.451   7.197   4.035  1.6341  0.8259 -3.1236
  166SAPE     N18572   5.141   0.628   1.696  0.0603 -0.4781 -0.3537
  166SAPE   HN118573   5.184   0.714   1.736 -0.0838 -0.8556  0.6270
  166SAPE   HN218574   5.218   0.560   1.711 -0.6951 -1.0974  0.8556
  166SAPE   HN318575   5.127   0.640   1.594  1.0899 -1.9450 -0.6933
  166SAPE   C1218576   5.019   0.588   1.774 -0.1481 -0.2272  0.0310
  166SAPE  H12A18577   4.958   0.514   1.718 -1.5003 -1.0750  2.4480
  166SAPE  H12B18578   4.964   0.684   1.784 -0.3528 -0.3155 -0.2247
  166SAPE   C1118579   5.054   0.535   1.914  0.3453  0.7733 -0.0095
  166SAPE  H11A18580   4.966   0.493   1.966  1.0404 -1.7395 -0.7132
  166SAPE  H11B18581   5.085   0.617   1.982 -0.5680  1.9575 -0.9517
  166SAPE     P18582   5.137   0.292   1.859  0.0795 -0.2858 -0.1463
  166SAPE   O1318583   5.120   0.291   1.715  0.1228  0.3422  0.0959
  166SAPE   O1418584   5.252   0.216   1.912  0.5806  0.6961 -0.3293
  166SAPE   O1218585   5.158   0.439   1.900  0.9595 -0.2938 -0.0630
  166SAPE   O1118586   5.005   0.235   1.922 -0.3014 -0.2120  0.1422
  166SAPE    C118587   5.000   0.211   2.067 -0.1232  0.1911 -0.2195
  166SAPE    HA18588   5.039   0.110   2.090  1.6473  0.9848  0.4603
  166SAPE    HB18589   5.072   0.267   2.131 -0.4799 -1.3725  1.6590
  166SAPE    C218590   4.855   0.236   2.122  0.4910 -0.2413 -1.0095
  166SAPE    HS18591   4.787   0.164   2.073 -1.2560  1.0409 -0.5583
  166SAPE   O2118592   4.813   0.368   2.101  0.2191  0.4987 -0.0305
  166SAPE   C2118593   4.690   0.388   2.079  0.1258 -0.1517 -0.1941
  166SAPE   O2218594   4.596   0.307   2.087 -0.1872  1.1389  0.2576
  166SAPE   C2218595   4.667   0.530   2.039  0.6265  0.0540  1.0559
  166SAPE   H2R18596   4.752   0.577   1.984 -0.6222 -1.0303 -2.0202
  166SAPE   H2S18597   4.588   0.545   1.963  1.6182 -0.2622 -0.0801
  166SAPE    C318598   4.860   0.204   2.274 -0.1486  0.3438  0.0252
  166SAPE    HX18599   4.896   0.100   2.293  0.9774  1.1224  2.7040
  166SAPE    HY18600   4.757   0.193   2.316  0.1529  0.4008  0.7979
  166SAPE   O3118601   4.951   0.294   2.344  0.5322 -0.2194 -0.2523
  166SAPE   C3118602   4.890   0.402   2.389  0.5017  0.3449 -0.2381
  166SAPE   O3218603   4.772   0.422   2.389  0.0466  0.2489  1.0923
  166SAPE   C3218604   4.990   0.496   2.446 -0.1012 -0.2770  0.0487
  166SAPE   H2X18605   4.951   0.549   2.536 -2.5619  1.7110 -2.0139
  166SAPE   H2Y18606   5.007   0.577   2.373 -1.3032  1.6082  1.7467
  166SAPE   C2318607   4.607   0.599   2.155  0.0808  0.5294  0.1410
  166SAPE   H3R18608   4.681   0.600   2.238  0.8494  5.5157 -0.2839
  166SAPE   H3S18609   4.519   0.542   2.192 -1.1951  1.5240 -1.2316
  166SAPE   C2418610   4.569   0.739   2.135 -0.1232 -0.5765 -0.3755
  166SAPE   H4R18611   4.493   0.772   2.209  2.0919  2.8847  0.5931
  166SAPE   H4S18612   4.528   0.732   2.032 -0.3077 -0.0039 -0.3440
  166SAPE   C2518613   4.690   0.833   2.131  0.4125  0.4435 -0.0002
  166SAPE   H5R18614   4.742   0.832   2.034 -1.5935 -0.9061 -1.1300
  166SAPE   C2618615   4.754   0.902   2.229 -0.9620 -0.0299 -0.7590
  166SAPE   H6R18616   4.828   0.978   2.200 -0.1563 -0.5928 -0.2194
  166SAPE   C2718617   4.696   0.922   2.363 -1.0328  0.1497  0.3926
  166SAPE   H7R18618   4.587   0.901   2.366 -1.0381  0.2594  1.4209
  166SAPE   H7S18619   4.713   1.028   2.392 -0.1015 -0.2411  1.3659
  166SAPE   C2818620   4.764   0.828   2.465 -0.2336  0.4264  0.1418
  166SAPE   H8R18621   4.767   0.723   2.430  1.0394  0.9990 -1.6184
  166SAPE   C2918622   4.824   0.845   2.587  0.0668 -0.8765 -0.2489
  166SAPE   H9R18623   4.882   0.758   2.621  1.0233  0.3873  1.4511
  166SAPE  C21018624   4.837   0.987   2.649  0.8094  0.1182 -0.1035
  166SAPE  H10R18625   4.747   0.990   2.715 -0.0682  0.2535 -1.2634
  166SAPE  H10S18626   4.812   1.067   2.575 -2.7053  0.6124  1.3752
  166SAPE  C21118627   4.966   1.019   2.721  0.2054  0.0797 -0.5295
  166SAPE  H11R18628   5.057   1.022   2.660  0.0844  0.3474 -0.7010
  166SAPE  C21218629   4.987   1.048   2.851 -0.2214 -0.3368  0.5178
  166SAPE  H12R18630   5.089   1.070   2.885 -0.9237  2.2752  1.1648
  166SAPE  C21318631   4.878   1.057   2.958 -0.4379 -0.4394 -0.6823
  166SAPE  H13R18632   4.908   0.996   3.046 -0.6466  0.9427  0.3890
  166SAPE  H13S18633   4.779   1.015   2.932 -1.2751  0.1021  1.4252
  166SAPE  C21418634   4.853   1.199   2.997  0.0674  0.2080  0.1140
  166SAPE  H14R18635   4.853   1.267   2.911 -1.6034  0.3384  0.1800
  166SAPE  C21518636   4.845   1.247   3.126  0.1621  0.1884 -0.1442
  166SAPE  H15R18637   4.856   1.355   3.145  0.1121  0.2415 -0.4097
  166SAPE  C21618638   4.841   1.173   3.260 -0.1507 -0.1430 -0.3671
  166SAPE  H16R18639   4.920   1.222   3.322  0.8914 -1.4799 -0.5971
  166SAPE  H16S18640   4.878   1.069   3.254 -1.2580 -0.5915  0.2860
  166SAPE  C21718641   4.707   1.166   3.333 -0.0706 -0.2460  0.3195
  166SAPE  H17R18642   4.646   1.082   3.292  0.3491 -2.1675  3.2928
  166SAPE  H17S18643   4.648   1.260   3.339  0.7527  0.3525 -0.6508
  166SAPE  C21818644   4.737   1.141   3.483  0.3139 -0.1423 -0.0849
  166SAPE  H18R18645   4.647   1.165   3.542 -0.3240  0.9170 -1.4380
  166SAPE  H18S18646   4.804   1.225   3.511  1.0432 -0.5283 -0.6145
  166SAPE  C21918647   4.803   1.006   3.500 -0.0261  0.2672 -0.3471
  166SAPE  H19R18648   4.880   0.975   3.426 -2.1340 -0.8934 -2.1442
  166SAPE  H19S18649   4.719   0.939   3.475 -1.8572  1.9944  0.9272
  166SAPE  C22018650   4.854   0.987   3.640 -0.5320 -0.6103 -0.2613
  166SAPE  H20R18651   4.951   1.041   3.638 -0.0704 -1.3962 -2.5696
  166SAPE  H20S18652   4.875   0.878   3.652  1.2727 -0.2961 -0.3123
  166SAPE  H20T18653   4.790   1.024   3.722 -0.2462  1.0328 -0.7453
  166SAPE   C3318654   5.130   0.435   2.479 -0.0564 -0.3717 -0.0592
  166SAPE   H3X18655   5.201   0.517   2.503  0.9321 -1.4973  1.0582
  166SAPE   H3Y18656   5.167   0.384   2.387  2.1038  3.3645 -1.4951
  166SAPE   C3418657   5.139   0.332   2.593  0.9046  0.0635  0.2702
  166SAPE   H4X18658   5.242   0.293   2.605  0.9305  0.0872  0.1327
  166SAPE   H4Y18659   5.072   0.245   2.579  1.6221 -0.6248  0.9910
  166SAPE   C3518660   5.104   0.396   2.729  0.2735  0.1081  0.5300
  166SAPE   H5X18661   5.002   0.441   2.732 -0.3602 -1.2899  0.6270
  166SAPE   H5Y18662   5.168   0.482   2.759 -0.6111  0.9128  0.1876
  166SAPE   C3618663   5.104   0.280   2.833  0.7223 -0.0481 -0.1135
  166SAPE   H6X18664   5.207   0.253   2.864  0.3793 -1.9243 -0.4847
  166SAPE   H6Y18665   5.058   0.187   2.794 -1.0300 -0.0880  1.8619
  166SAPE   C3718666   5.026   0.327   2.958 -0.4993 -0.6502  1.0034
  166SAPE   H7X18667   4.924   0.337   2.914 -0.3735 -2.0471  0.3443
  166SAPE   H7Y18668   5.051   0.432   2.984  0.2608 -1.2833  3.0190
  166SAPE   C3818669   5.017   0.220   3.069  0.5410 -0.5184 -0.3814
  166SAPE   H8X18670   5.117   0.216   3.117  0.2447 -0.1951  0.2715
  166SAPE   H8Y18671   5.002   0.126   3.011 -0.6372 -1.6743  1.6820
  166SAPE   C3918672   4.911   0.250   3.171  0.2391 -0.1838 -0.0562
  166SAPE   H9X18673   4.823   0.285   3.113  0.4948  1.0256  0.2609
  166SAPE   H9Y18674   4.965   0.328   3.228  0.8131 -1.5625  1.3588
  166SAPE  C31018675   4.890   0.133   3.266  0.7400  0.0166 -0.4012
  166SAPE  H10X18676   4.991   0.089   3.285  1.0765  1.1187  0.4219
  166SAPE  H10Y18677   4.825   0.058   3.216  1.4654 -0.6723 -0.3345
  166SAPE  C31118678   4.833   0.170   3.403 -0.2860 -0.4565  0.5172
  166SAPE  H11X18679   4.733   0.214   3.389  0.3209  0.7432 -0.1766
  166SAPE  H11Y18680   4.910   0.241   3.442  0.5473 -1.2481  0.3679
  166SAPE  C31218681   4.825   0.058   3.496  0.2800 -0.3447 -0.5598
  166SAPE  H12X18682   4.925   0.009   3.508  0.3312 -0.3003 -0.8075
  166SAPE  H12Y18683   4.765  -0.020   3.444 -3.3812  0.7115  1.7182
  166SAPE  C31318684   4.777   0.097   3.635  0.1962 -0.1423  0.6138
  166SAPE  H13X18685   4.675   0.140   3.637 -0.1161 -0.8852  1.1637
  166SAPE  H13Y18686   4.842   0.179   3.672 -0.4538  0.9318 -0.5655
  166SAPE  C31418687   4.778  -0.021   3.737 -1.3063 -0.0978  0.1491
  166SAPE  H14X18688   4.780   0.028   3.836 -1.0775 -0.9698  0.5795
  166SAPE  H14Y18689   4.866  -0.084   3.713 -1.7997 -0.0167 -2.1778
  166SAPE  C31518690   4.650  -0.105   3.729  0.0603 -0.0280 -0.1206
  166SAPE  H15X18691   4.641  -0.154   3.630 -0.4462  0.7813 -0.4843
  166SAPE  H15Y18692   4.561  -0.039   3.725 -0.3344 -0.6290 -2.2074
  166SAPE  C31618693   4.620  -0.196   3.845  0.4404 -0.2742  0.2070
  166SAPE  H16X18694   4.517  -0.239   3.835  0.8493 -1.0926 -0.6227
  166SAPE  H16Y18695   4.635  -0.144   3.942  1.3636  0.7321 -0.4634
  166SAPE  C31718696   4.718  -0.313   3.860 -0.1902  0.1603 -0.2885
  166SAPE  H17X18697   4.812  -0.288   3.806  1.1117 -3.5318 -0.0543
  166SAPE  H17Y18698   4.671  -0.405   3.819  0.5811 -0.5916  0.4584
  166SAPE  C31818699   4.747  -0.349   4.008 -0.0119  1.2218  0.0854
  166SAPE  H18X18700   4.649  -0.371   4.056  0.3610 -1.9759 -0.4285
  166SAPE  H18Y18701   4.797  -0.263   4.058 -0.1957  1.4402 -0.1054
  166SAPE  H18Z18702   4.815  -0.437   4.010 -1.3519  0.1362 -0.7236
  167SAPE     N18703   0.159   4.551   2.126  0.2662  0.9183  0.0834
  167SAPE   HN118704   0.242   4.532   2.066 -0.7670 -1.1737 -0.7946
  167SAPE   HN218705   0.175   4.509   2.220 -0.0254  0.9646  0.1566
  167SAPE   HN318706   0.067   4.516   2.093 -1.3078  2.6727  2.2804
  167SAPE   C1218707   0.151   4.702   2.153  0.3558  0.5772  0.4221
  167SAPE  H12A18708   0.067   4.723   2.223 -1.2941 -1.3785 -0.8724
  167SAPE  H12B18709   0.132   4.758   2.059 -0.1512 -2.6019 -1.4906
  167SAPE   C1118710   0.285   4.743   2.218 -0.0451 -1.1859 -0.8927
  167SAPE  H11A18711   0.302   4.676   2.305 -0.4898 -1.6963 -1.1907
  167SAPE  H11B18712   0.278   4.842   2.267 -2.8853 -1.9457  0.4834
  167SAPE     P18713   0.469   4.861   2.069 -0.1363 -0.1768  0.5269
  167SAPE   O1318714   0.605   4.842   2.018  0.0326 -0.7941  0.8358
  167SAPE   O1418715   0.373   4.929   1.976 -0.3598 -0.3276  0.4913
  167SAPE   O1218716   0.398   4.733   2.125  0.0167  0.1298  0.0963
  167SAPE   O1118717   0.474   4.958   2.198 -0.6424 -0.1037 -0.0948
  167SAPE    C118718   0.589   5.041   2.225  0.9349 -0.0126  0.6845
  167SAPE    HA18719   0.678   5.022   2.162 -0.9112 -0.5065 -1.9428
  167SAPE    HB18720   0.557   5.147   2.213 -0.4075 -0.3431  1.1218
  167SAPE    C218721   0.633   5.037   2.373 -0.5754  0.4734 -0.6880
  167SAPE    HS18722   0.711   5.115   2.385 -1.1493  0.8785  0.6959
  167SAPE   O2118723   0.685   4.905   2.400 -0.1548  0.4167 -0.2686
  167SAPE   C2118724   0.776   4.895   2.494  0.0374  0.1046 -0.6968
  167SAPE   O2218725   0.827   4.989   2.556 -0.0378 -0.3346  0.4263
  167SAPE   C2218726   0.817   4.755   2.534  0.0156  0.8295 -0.0958
  167SAPE   H2R18727   0.745   4.679   2.496  0.7694  0.4877 -0.8815
  167SAPE   H2S18728   0.912   4.728   2.483 -0.1726 -0.8062  0.3644
  167SAPE    C318729   0.512   5.069   2.466 -0.2762 -0.6603  0.3788
  167SAPE    HX18730   0.446   4.981   2.461  1.3660 -1.9556  0.5086
  167SAPE    HY18731   0.449   5.154   2.432 -0.3492 -0.1325  1.7938
  167SAPE   O3118732   0.547   5.109   2.598 -0.4529 -0.4013  0.1270
  167SAPE   C3118733   0.615   5.218   2.611  0.2611 -0.0069 -0.1505
  167SAPE   O3218734   0.645   5.306   2.534 -0.2554 -0.1661 -0.0644
  167SAPE   C3218735   0.660   5.236   2.759 -0.4269  0.4730  0.4511
  167SAPE   H2X18736   0.584   5.290   2.819 -0.3075 -0.7855  1.7807
  167SAPE   H2Y18737   0.746   5.307   2.761 -0.8270  0.9385  1.4188
  167SAPE   C2318738   0.847   4.720   2.682  0.1974 -0.0830 -0.6203
  167SAPE   H3R18739   0.911   4.799   2.726  0.6570 -0.4004 -0.7125
  167SAPE   H3S18740   0.908   4.627   2.683  0.7732  0.2401  1.7303
  167SAPE   C2418741   0.725   4.695   2.768  0.7926  0.8109 -0.2823
  167SAPE   H4R18742   0.679   4.794   2.790  1.4070  0.8572  0.8852
  167SAPE   H4S18743   0.751   4.656   2.868  1.5315  3.0603  0.4699
  167SAPE   C2518744   0.629   4.592   2.703 -0.0504 -0.6078  0.6558
  167SAPE   H5R18745   0.675   4.493   2.687  0.7847 -0.2723  0.9372
  167SAPE   C2618746   0.502   4.611   2.662 -0.8056  0.0481  0.5100
  167SAPE   H6R18747   0.451   4.521   2.623  1.3010 -0.4949 -1.1767
  167SAPE   C2718748   0.427   4.740   2.676 -0.2392 -0.7399  0.5361
  167SAPE   H7R18749   0.489   4.830   2.659 -2.4167  0.7511  0.0545
  167SAPE   H7S18750   0.379   4.750   2.776  0.0576  2.8605  0.4672
  167SAPE   C2818751   0.322   4.739   2.571  0.8387 -0.2448  0.5657
  167SAPE   H8R18752   0.346   4.798   2.481  0.9790 -0.3458  0.5370
  167SAPE   C2918753   0.198   4.688   2.580  0.1885  0.0691 -0.7648
  167SAPE   H9R18754   0.132   4.696   2.492 -0.4560 -2.7562 -0.6240
  167SAPE  C21018755   0.137   4.643   2.719  0.4171 -0.3748 -0.2013
  167SAPE  H10R18756   0.152   4.715   2.802  0.6467 -1.0114  0.3228
  167SAPE  H10S18757   0.198   4.553   2.743  0.6106 -0.4671 -1.0125
  167SAPE  C21118758  -0.009   4.612   2.711  0.2361 -0.3643  0.5313
  167SAPE  H11R18759  -0.044   4.569   2.616  0.1486  2.6920 -0.9506
  167SAPE  C21218760  -0.101   4.616   2.815 -0.0546  0.9869  0.0783
  167SAPE  H12R18761  -0.208   4.596   2.801  0.0250 -0.8983  1.6880
  167SAPE  C21318762  -0.063   4.654   2.960  0.3068 -0.0846  0.1050
  167SAPE  H13R18763  -0.158   4.667   3.016  0.3815 -0.0141  0.2155
  167SAPE  H13S18764  -0.019   4.756   2.953 -0.8994  0.5473  1.2584
  167SAPE  C21418765   0.023   4.559   3.035 -0.1689 -0.4935  0.0909
  167SAPE  H14R18766   0.037   4.465   2.980 -1.4213 -1.5065  1.4538
  167SAPE  C21518767   0.066   4.575   3.162  0.2532  0.2324 -0.2196
  167SAPE  H15R18768   0.140   4.512   3.215  0.7274  1.9520  1.2585
  167SAPE  C21618769   0.022   4.697   3.244  0.6000  0.7486  0.1077
  167SAPE  H16R18770  -0.089   4.693   3.256  0.7816 -1.1765  1.5724
  167SAPE  H16S18771   0.044   4.782   3.176  1.8434  0.6792  0.4143
  167SAPE  C21718772   0.086   4.708   3.381 -0.0722  0.0871 -0.1145
  167SAPE  H17R18773   0.194   4.710   3.355 -0.3855 -2.0029 -1.7985
  167SAPE  H17S18774   0.078   4.614   3.440  2.5651  0.7832  1.5377
  167SAPE  C21818775   0.040   4.838   3.454  0.0416 -0.1884 -0.2964
  167SAPE  H18R18776  -0.067   4.836   3.483 -0.2024  0.9181 -1.0967
  167SAPE  H18S18777   0.045   4.923   3.383  0.2198  0.4963  0.5173
  167SAPE  C21918778   0.133   4.872   3.571  0.4206 -0.4912 -0.2401
  167SAPE  H19R18779   0.237   4.877   3.530  0.5317 -0.7534  0.0047
  167SAPE  H19S18780   0.145   4.779   3.632  1.5229 -0.1193  0.1426
  167SAPE  C22018781   0.103   5.000   3.660  0.0775  0.3139  0.0631
  167SAPE  H20R18782   0.006   4.993   3.714  0.5454 -0.1499  0.8658
  167SAPE  H20S18783   0.096   5.098   3.609 -0.7771  0.8668  1.2042
  167SAPE  H20T18784   0.185   5.017   3.733  0.6172  0.1388 -0.4890
  167SAPE   C3318785   0.701   5.107   2.843 -0.1359  0.0872 -0.2429
  167SAPE   H3X18786   0.805   5.077   2.815 -0.0250  0.4808 -0.2604
  167SAPE   H3Y18787   0.639   5.020   2.812  1.6473 -1.3770  0.0863
  167SAPE   C3418788   0.696   5.124   2.997 -0.2666 -0.1376  0.4965
  167SAPE   H4X18789   0.599   5.170   3.024 -1.2376 -0.7086 -1.8690
  167SAPE   H4Y18790   0.778   5.194   3.027 -0.3301 -0.3538  1.1887
  167SAPE   C3518791   0.737   4.988   3.060 -0.1048 -0.4698  0.8572
  167SAPE   H5X18792   0.656   4.913   3.046  0.7037 -1.6835  2.3952
  167SAPE   H5Y18793   0.737   4.992   3.171  0.8035 -0.0399  0.8533
  167SAPE   C3618794   0.871   4.941   3.004  0.3476  0.0494  0.3663
  167SAPE   H6X18795   0.945   5.024   3.005 -0.3878  0.7155  0.9969
  167SAPE   H6Y18796   0.864   4.915   2.896  1.3422 -0.7658  0.4866
  167SAPE   C3718797   0.913   4.807   3.065 -0.2641 -0.3549  0.0608
  167SAPE   H7X18798   0.991   4.752   3.009  0.5326 -1.0385  1.7785
  167SAPE   H7Y18799   0.824   4.740   3.068 -0.5442 -0.0536 -0.9824
  167SAPE   C3818800   0.963   4.827   3.207 -0.2821 -0.4833  0.1450
  167SAPE   H8X18801   0.873   4.870   3.257  0.3517  1.5089 -0.3388
  167SAPE   H8Y18802   1.045   4.901   3.200 -0.6146 -0.0713  0.5926
  167SAPE   C3918803   1.002   4.695   3.273 -0.4458  0.0866  0.2590
  167SAPE   H9X18804   1.086   4.650   3.215 -0.3095  0.9736 -0.2504
  167SAPE   H9Y18805   0.918   4.622   3.275  1.6116 -2.4277  0.9820
  167SAPE  C31018806   1.056   4.715   3.413 -0.0575 -0.9416  0.4005
  167SAPE  H10X18807   1.089   4.612   3.441 -1.2094 -1.4495 -0.0638
  167SAPE  H10Y18808   0.979   4.733   3.490  2.1924  2.1381  2.1676
  167SAPE  C31118809   1.176   4.811   3.421 -0.3827 -0.0216  0.1147
  167SAPE  H11X18810   1.132   4.904   3.463  1.4837  1.0716 -0.2270
  167SAPE  H11Y18811   1.225   4.828   3.323  1.1698  0.4994  0.9494
  167SAPE  C31218812   1.279   4.759   3.529 -0.0844 -1.0709  0.8125
  167SAPE  H12X18813   1.366   4.827   3.534 -0.7546 -0.2584  1.9255
  167SAPE  H12Y18814   1.317   4.663   3.486  2.0741  0.4969 -0.9957
  167SAPE  C31318815   1.222   4.731   3.667 -0.1447 -0.2934 -0.0106
  167SAPE  H13X18816   1.305   4.684   3.724  1.3924 -0.0256 -1.9263
  167SAPE  H13Y18817   1.134   4.664   3.657 -1.9890  2.1346 -1.2127
  167SAPE  C31418818   1.174   4.853   3.742  0.1358 -0.2938  0.1909
  167SAPE  H14X18819   1.079   4.891   3.699  0.2802  0.3719  0.4464
  167SAPE  H14Y18820   1.246   4.937   3.727 -0.1338 -0.2911 -1.2627
  167SAPE  C31518821   1.130   4.828   3.891 -0.0333 -0.0027  0.3951
  167SAPE  H15X18822   1.101   4.931   3.923 -0.4267  0.0757 -0.1987
  167SAPE  H15Y18823   1.204   4.799   3.968  0.7559 -2.6172 -1.2297
  167SAPE  C31618824   1.003   4.742   3.912 -0.1533  0.0622 -0.3721
  167SAPE  H16X18825   1.030   4.634   3.910  1.4659  0.4496 -0.8308
  167SAPE  H16Y18826   0.931   4.751   3.828 -1.5548 -1.0292  0.6370
  167SAPE  C31718827   0.932   4.779   4.044  0.5786 -0.2091  0.6204
  167SAPE  H17X18828   0.901   4.886   4.040  1.5452  0.0533 -0.9579
  167SAPE  H17Y18829   1.006   4.767   4.126  2.3985  0.5338 -0.8240
  167SAPE  C31818830   0.808   4.691   4.069  0.3992  0.6481 -0.0473
  167SAPE  H18X18831   0.749   4.734   4.153 -0.7420 -0.9211  0.0165
  167SAPE  H18Y18832   0.835   4.590   4.108 -2.7310 -1.2375 -2.2401
  167SAPE  H18Z18833   0.732   4.684   3.988 -0.1483 -0.9928  0.5454
  168SAPE     N18834   1.948   0.733   1.482  0.1650 -0.7686  0.0766
  168SAPE   HN118835   2.052   0.733   1.489  0.2307 -0.8032 -0.8781
  168SAPE   HN218836   1.910   0.666   1.553 -2.2699 -0.5660 -0.9597
  168SAPE   HN318837   1.930   0.693   1.388 -0.9442 -3.1886  1.2196
  168SAPE   C1218838   1.896   0.875   1.491  0.2031 -0.4059  0.2760
  168SAPE  H12A18839   1.788   0.877   1.464  0.0826  0.2027  0.7685
  168SAPE  H12B18840   1.944   0.940   1.415 -2.1965 -0.5284 -1.4431
  168SAPE   C1118841   1.911   0.910   1.629 -0.2303  0.2543  0.0912
  168SAPE  H11A18842   1.847   0.851   1.698 -2.0707  2.6329  0.5646
  168SAPE  H11B18843   1.873   1.014   1.645 -0.4326  0.1406  0.3600
  168SAPE     P18844   2.096   0.977   1.804  0.2119  0.1254  0.2347
  168SAPE   O1318845   2.246   0.976   1.814  0.0109  0.2156 -0.3437
  168SAPE   O1418846   2.039   1.117   1.805 -0.3904  0.0189  0.1276
  168SAPE   O1218847   2.046   0.899   1.670 -0.2121  0.3738  0.1938
  168SAPE   O1118848   2.033   0.896   1.920 -0.0102 -1.2585  0.4141
  168SAPE    C118849   2.026   0.756   1.938 -0.4280  0.1095  0.3905
  168SAPE    HA18850   1.994   0.715   1.840 -2.0826  0.1181  0.9029
  168SAPE    HB18851   2.125   0.711   1.964 -0.9637 -1.2173  0.1769
  168SAPE    C218852   1.925   0.704   2.048 -0.7926  0.4358  0.2505
  168SAPE    HS18853   1.827   0.755   2.037  0.1934  2.6367  1.1351
  168SAPE   O2118854   1.990   0.711   2.176 -0.4365  0.5841  0.1903
  168SAPE   C2118855   1.984   0.833   2.233  0.1470  0.5159  0.2130
  168SAPE   O2218856   1.905   0.922   2.206 -0.1671  0.9054  0.1613
  168SAPE   C2218857   2.077   0.834   2.359 -0.0099  0.2076 -0.6291
  168SAPE   H2R18858   2.182   0.813   2.330 -0.7081 -1.9796 -1.7578
  168SAPE   H2S18859   2.069   0.937   2.401 -0.4532 -0.4659  1.0059
  168SAPE    C318860   1.900   0.547   2.022 -0.6287 -0.6907 -0.7747
  168SAPE    HX18861   1.997   0.491   2.024 -0.6976 -0.7890  0.6692
  168SAPE    HY18862   1.833   0.539   1.934 -2.0161  0.8778  0.1015
  168SAPE   O3118863   1.825   0.508   2.141 -0.1976 -0.2382  0.2288
  168SAPE   C3118864   1.789   0.385   2.151 -0.4776  0.0214  0.1718
  168SAPE   O3218865   1.810   0.307   2.055 -0.3343  0.3482  0.2179
  168SAPE   C3218866   1.719   0.356   2.276  1.1195  0.7205  0.6933
  168SAPE   H2X18867   1.683   0.252   2.262  2.2456 -0.0214  2.8558
  168SAPE   H2Y18868   1.634   0.423   2.300  0.5253 -0.4288  1.9387
  168SAPE   C2318869   2.017   0.724   2.458  0.0110  0.3756  0.0597
  168SAPE   H3R18870   1.993   0.633   2.399  2.7804 -0.9722  0.8749
  168SAPE   H3S18871   1.921   0.755   2.506 -0.3397 -1.8341  0.8880
  168SAPE   C2418872   2.124   0.689   2.570 -0.0835 -0.6581  0.0080
  168SAPE   H4R18873   2.146   0.787   2.617 -2.4981  1.9697 -3.6822
  168SAPE   H4S18874   2.216   0.662   2.513  0.4320  0.2204  0.4062
  168SAPE   C2518875   2.085   0.586   2.676 -0.3469 -0.6619 -0.2081
  168SAPE   H5R18876   2.102   0.480   2.653 -1.4294 -0.8692 -0.1017
  168SAPE   C2618877   2.031   0.611   2.790  0.4504  0.2800 -0.2914
  168SAPE   H6R18878   2.025   0.526   2.858 -0.9287 -1.1550 -2.1027
  168SAPE   C2718879   1.995   0.746   2.849 -0.4561  0.2371  0.1578
  168SAPE   H7R18880   1.908   0.738   2.918 -1.1344 -1.3166 -0.8165
  168SAPE   H7S18881   1.968   0.817   2.768 -2.1260 -0.6803 -0.1284
  168SAPE   C2818882   2.105   0.800   2.939 -0.0902  0.1274  0.4204
  168SAPE   H8R18883   2.198   0.828   2.886 -0.0306 -2.5004 -1.0336
  168SAPE   C2918884   2.112   0.785   3.079  0.1799 -0.2475  0.3163
  168SAPE   H9R18885   2.199   0.832   3.128 -0.1963  0.1154  0.6328
  168SAPE  C21018886   2.020   0.695   3.158  0.0994 -0.3413 -0.1204
  168SAPE  H10R18887   1.974   0.611   3.101 -1.3433 -2.0852  3.3526
  168SAPE  H10S18888   1.936   0.756   3.196 -0.5721 -2.4373  1.9688
  168SAPE  C21118889   2.088   0.633   3.280  0.4137  0.5242 -0.8112
  168SAPE  H11R18890   2.125   0.711   3.348 -1.3094  0.7799 -0.1048
  168SAPE  C21218891   2.089   0.503   3.325 -0.3798  0.2101 -0.2316
  168SAPE  H12R18892   2.137   0.475   3.420 -0.2163 -0.7557 -0.5931
  168SAPE  C21318893   2.034   0.386   3.255  0.2080 -0.2806  0.0554
  168SAPE  H13R18894   2.103   0.300   3.267 -0.0592 -0.2012  2.9251
  168SAPE  H13S18895   2.011   0.409   3.149  0.0473 -1.6052 -0.2244
  168SAPE  C21418896   1.906   0.352   3.333 -0.4297  0.1484  0.6896
  168SAPE  H14R18897   1.834   0.434   3.321  0.2929  0.7052  0.0669
  168SAPE  C21518898   1.875   0.241   3.400 -0.3783  0.6722 -0.3397
  168SAPE  H15R18899   1.771   0.220   3.430  0.6823 -1.0396  2.5606
  168SAPE  C21618900   1.979   0.131   3.424 -0.3045  0.0978  0.1787
  168SAPE  H16R18901   2.074   0.175   3.461  0.9592 -1.5480 -0.9509
  168SAPE  H16S18902   2.013   0.088   3.327  0.7109  1.4262 -0.0830
  168SAPE  C21718903   1.927   0.012   3.513 -0.2371 -0.2781  0.0601
  168SAPE  H17R18904   1.830  -0.023   3.471 -0.8946 -0.2364  1.4828
  168SAPE  H17S18905   1.915   0.048   3.618 -1.6656 -0.1062 -0.1371
  168SAPE  C21818906   2.025  -0.105   3.511 -0.5053  0.3156  0.0936
  168SAPE  H18R18907   2.131  -0.073   3.521 -0.2050  0.0387 -1.9254
  168SAPE  H18S18908   2.020  -0.140   3.406  0.3037  0.1188  0.1161
  168SAPE  C21918909   2.001  -0.205   3.621 -0.1579  0.3674  0.2234
  168SAPE  H19R18910   2.079  -0.283   3.612 -1.6175 -1.0592 -0.5787
  168SAPE  H19S18911   1.905  -0.245   3.580 -1.0548  0.3228  2.2370
  168SAPE  C22018912   1.984  -0.158   3.756  0.2125  0.1228 -0.4943
  168SAPE  H20R18913   1.961  -0.241   3.826 -2.7114  1.1026 -0.1223
  168SAPE  H20S18914   1.901  -0.084   3.759  0.7773  0.7915 -1.0104
  168SAPE  H20T18915   2.074  -0.103   3.791  0.2481  0.0943 -0.5420
  168SAPE   C3318916   1.814   0.351   2.401 -0.5074  0.7392 -0.9201
  168SAPE   H3X18917   1.834   0.454   2.438  1.5808  0.5019 -1.2683
  168SAPE   H3Y18918   1.914   0.307   2.380  0.5776  2.0785  1.1186
  168SAPE   C3418919   1.751   0.266   2.513 -0.5033 -0.2223 -0.1201
  168SAPE   H4X18920   1.763   0.160   2.482  1.6905 -0.2113  0.5015
  168SAPE   H4Y18921   1.644   0.294   2.520 -0.5167 -0.1236 -0.6269
  168SAPE   C3518922   1.832   0.286   2.644 -0.3756 -0.0219 -0.0991
  168SAPE   H5X18923   1.836   0.392   2.676  0.7170  0.1378 -0.7152
  168SAPE   H5Y18924   1.937   0.265   2.612 -0.0497 -1.7354  1.8496
  168SAPE   C3618925   1.800   0.211   2.766 -0.2622  0.4951 -0.2106
  168SAPE   H6X18926   1.789   0.104   2.738 -1.5652  0.3465  0.7666
  168SAPE   H6Y18927   1.698   0.243   2.798  0.4154  0.3193  2.3391
  168SAPE   C3718928   1.904   0.228   2.873 -0.6582 -0.2188  0.1246
  168SAPE   H7X18929   1.913   0.336   2.898  0.8482 -0.9815  3.5695
  168SAPE   H7Y18930   2.001   0.182   2.843 -0.8641 -1.4924  1.3046
  168SAPE   C3818931   1.874   0.150   3.000  0.6903 -0.6395  0.2391
  168SAPE   H8X18932   1.777   0.189   3.038 -0.1984 -0.7106 -1.7957
  168SAPE   H8Y18933   1.964   0.176   3.060  0.8203 -0.0477 -0.2091
  168SAPE   C3918934   1.869  -0.004   2.995 -0.2722 -0.1825  0.0264
  168SAPE   H9X18935   1.819  -0.048   2.906 -1.2841  0.9657 -0.0008
  168SAPE   H9Y18936   1.808  -0.035   3.082 -0.7133  1.8696  0.5204
  168SAPE  C31018937   2.006  -0.078   3.012  0.1394  0.5116  0.0684
  168SAPE  H10X18938   2.060  -0.028   3.095  1.7546  0.4283 -0.8994
  168SAPE  H10Y18939   2.065  -0.065   2.919 -0.7829 -0.8928 -0.7662
  168SAPE  C31118940   1.993  -0.228   3.050  0.6938 -0.6080 -0.3323
  168SAPE  H11X18941   1.937  -0.269   2.963 -1.5776  1.8685 -0.1642
  168SAPE  H11Y18942   1.933  -0.244   3.142 -0.5300  1.6224 -0.6834
  168SAPE  C31218943   2.127  -0.304   3.064  0.1789 -0.2370  0.5362
  168SAPE  H12X18944   2.199  -0.263   3.138  2.2381 -1.7013 -0.5696
  168SAPE  H12Y18945   2.172  -0.309   2.963 -1.5597  0.6764 -0.3141
  168SAPE  C31318946   2.116  -0.445   3.113  0.5547 -0.4260 -0.1086
  168SAPE  H13X18947   2.215  -0.495   3.123 -0.6528 -2.7549  1.1486
  168SAPE  H13Y18948   2.043  -0.497   3.048  1.1121 -0.7314 -0.4945
  168SAPE  C31418949   2.051  -0.449   3.253 -0.2470 -0.2432 -0.3220
  168SAPE  H14X18950   1.950  -0.404   3.261 -0.6248 -1.3116  1.3640
  168SAPE  H14Y18951   2.119  -0.398   3.325 -0.2010 -0.4054 -0.2504
  168SAPE  C31518952   2.025  -0.587   3.309  0.3693 -0.5330  0.1164
  168SAPE  H15X18953   2.107  -0.648   3.265  2.4790  1.0892  1.6051
  168SAPE  H15Y18954   1.929  -0.623   3.265 -1.5020  2.0848  1.7513
  168SAPE  C31618955   2.021  -0.604   3.458  0.4948 -0.3807 -0.7356
  168SAPE  H16X18956   1.946  -0.536   3.504  1.4423 -0.4814  1.0266
  168SAPE  H16Y18957   2.113  -0.563   3.505 -1.4891  0.7048  2.5367
  168SAPE  C31718958   2.009  -0.750   3.515  0.0033 -0.4767 -0.1174
  168SAPE  H17X18959   2.107  -0.792   3.486  0.9624  0.2495  1.8774
  168SAPE  H17Y18960   1.930  -0.807   3.462 -2.6629  1.4848  1.4746
  168SAPE  C31818961   2.013  -0.757   3.671 -0.3560  0.5957  0.4326
  168SAPE  H18X18962   1.920  -0.743   3.731  1.5178  2.0903  3.2443
  168SAPE  H18Y18963   2.074  -0.675   3.715  0.2971  0.0548  0.5537
  168SAPE  H18Z18964   2.066  -0.852   3.692 -0.5947  0.7213  1.6662
  169SAPE     N18965   0.306   5.184   2.014  0.5000 -0.5355  0.0062
  169SAPE   HN118966   0.242   5.227   1.945  2.2332  1.2209 -0.6283
  169SAPE   HN218967   0.390   5.247   2.014 -1.1942  1.8661 -0.5074
  169SAPE   HN318968   0.323   5.087   1.981 -0.5864 -0.6034 -0.3712
  169SAPE   C1218969   0.231   5.184   2.143 -0.5529  0.0995  0.9106
  169SAPE  H12A18970   0.196   5.288   2.162  0.7517  0.5413  1.0129
  169SAPE  H12B18971   0.301   5.142   2.219  0.6826 -0.3123 -0.4101
  169SAPE   C1118972   0.125   5.077   2.136 -0.3620  0.2212 -0.1778
  169SAPE  H11A18973   0.056   5.100   2.220 -0.7221  0.0198 -0.4150
  169SAPE  H11B18974   0.161   4.973   2.153 -0.4560  0.1991 -0.1086
  169SAPE     P18975  -0.080   5.005   1.977 -0.3986 -0.0463 -0.3756
  169SAPE   O1318976  -0.202   5.081   1.951 -0.3834 -0.3695 -0.5647
  169SAPE   O1418977  -0.037   4.921   1.865 -0.1651  0.3331 -0.2938
  169SAPE   O1218978   0.039   5.094   2.024 -0.0011 -0.1999 -0.0997
  169SAPE   O1118979  -0.081   4.903   2.102 -0.8034  0.4471  0.6352
  169SAPE    C118980  -0.203   4.860   2.165 -0.5505 -0.0305 -0.2887
  169SAPE    HA18981  -0.278   4.838   2.087 -1.1627 -1.7013  0.7334
  169SAPE    HB18982  -0.184   4.769   2.226 -0.3116  0.6608  0.6974
  169SAPE    C218983  -0.261   4.968   2.259 -0.3359  0.8614  0.1584
  169SAPE    HS18984  -0.294   5.049   2.191  1.4099 -0.2395 -2.1312
  169SAPE   O2118985  -0.154   5.013   2.345 -0.5044 -0.3162 -0.1142
  169SAPE   C2118986  -0.174   5.130   2.402  0.0499  0.3634 -0.0461
  169SAPE   O2218987  -0.274   5.197   2.396 -0.0289 -0.1350 -0.6107
  169SAPE   C2218988  -0.054   5.192   2.471  0.6082 -0.1644  0.0499
  169SAPE   H2R18989   0.005   5.246   2.394  0.3024  2.0368  1.2834
  169SAPE   H2S18990  -0.094   5.268   2.541  2.7081  0.4370  0.6733
  169SAPE    C318991  -0.388   4.928   2.347  0.1854  0.8259 -0.1838
  169SAPE    HX18992  -0.459   4.901   2.265  2.0032 -1.5393 -1.0778
  169SAPE    HY18993  -0.442   5.020   2.377  0.1251  1.1712 -1.2838
  169SAPE   O3118994  -0.371   4.838   2.452  0.0465  0.3354 -0.1623
  169SAPE   C3118995  -0.435   4.724   2.447  0.4564 -0.5766  0.2030
  169SAPE   O3218996  -0.520   4.699   2.366 -0.9162 -0.2203 -0.0984
  169SAPE   C3218997  -0.399   4.641   2.565 -0.5124  0.6836 -0.4884
  169SAPE   H2X18998  -0.361   4.697   2.653 -2.2001 -0.3547  0.9651
  169SAPE   H2Y18999  -0.319   4.573   2.528 -2.7756 -2.5117  0.0699
  169SAPE   C2319000   0.037   5.091   2.539  0.0540 -0.3908  0.2152
  169SAPE   H3R19001   0.081   5.032   2.456  0.6197  0.5471 -0.1649
  169SAPE   H3S19002  -0.016   5.032   2.617  0.5178 -0.5888  0.3892
  169SAPE   C2419003   0.169   5.154   2.599 -0.1132 -0.2423 -0.7418
  169SAPE   H4R19004   0.221   5.213   2.521  2.7392 -0.4396  0.8998
  169SAPE   H4S19005   0.231   5.064   2.619 -0.9927 -0.5420  0.8226
  169SAPE   C2519006   0.127   5.236   2.720 -0.4568  0.4290 -0.2268
  169SAPE   H5R19007   0.110   5.342   2.696 -0.6248  0.4266 -0.1205
  169SAPE   C2619008   0.107   5.190   2.846 -0.6612 -0.9540 -0.3060
  169SAPE   H6R19009   0.079   5.267   2.919 -1.3886 -0.8601 -0.6730
  169SAPE   C2719010   0.119   5.050   2.894 -0.0741  0.5174  0.2751
  169SAPE   H7R19011   0.079   4.969   2.830  3.0904 -0.1726 -1.0379
  169SAPE   H7S19012   0.073   5.043   2.995  0.8632  1.8394  0.8242
  169SAPE   C2819013   0.263   5.009   2.924  0.3349  0.3662  0.2739
  169SAPE   H8R19014   0.311   4.978   2.831 -2.1510 -1.1000 -0.6249
  169SAPE   C2919015   0.333   5.011   3.042  0.8253 -1.1828  0.1329
  169SAPE   H9R19016   0.436   4.974   3.044  0.3726 -3.0511 -2.9927
  169SAPE  C21019017   0.282   5.040   3.178 -0.1582  0.1495 -0.0450
  169SAPE  H10R19018   0.352   4.992   3.250 -0.5155 -0.8056 -0.3137
  169SAPE  H10S19019   0.183   4.992   3.194  0.4546 -0.6513  1.5178
  169SAPE  C21119020   0.263   5.185   3.205  0.5851  0.1764  0.1060
  169SAPE  H11R19021   0.180   5.228   3.147  2.7804  0.6977 -2.8784
  169SAPE  C21219022   0.337   5.264   3.286 -0.2443  0.9149  0.5949
  169SAPE  H12R19023   0.316   5.372   3.293  0.7254  1.1816 -0.2493
  169SAPE  C21319024   0.455   5.219   3.367  0.1994 -0.0056  0.1776
  169SAPE  H13R19025   0.532   5.299   3.365  1.6672 -1.3239  0.9814
  169SAPE  H13S19026   0.517   5.139   3.321 -0.8635 -0.2510 -0.8792
  169SAPE  C21419027   0.407   5.179   3.504 -0.0688 -0.8024 -0.4220
  169SAPE  H14R19028   0.353   5.084   3.515 -0.0077 -0.7528  0.4426
  169SAPE  C21519029   0.427   5.241   3.619 -0.3316  0.0106  0.1164
  169SAPE  H15R19030   0.379   5.192   3.705 -1.6787  1.2173  0.0820
  169SAPE  C21619031   0.513   5.361   3.660  0.2641 -0.2178  0.8740
  169SAPE  H16R19032   0.448   5.450   3.673  0.8041 -0.0148  2.3163
  169SAPE  H16S19033   0.595   5.386   3.589  1.1823 -1.6427  1.3847
  169SAPE  C21719034   0.586   5.353   3.795 -0.4106 -0.9020 -0.1456
  169SAPE  H17R19035   0.632   5.253   3.803 -0.6476 -1.0269 -0.3367
  169SAPE  H17S19036   0.509   5.363   3.875 -1.2933 -0.5322 -1.0283
  169SAPE  C21819037   0.680   5.471   3.826 -0.2285 -0.1109  0.3647
  169SAPE  H18R19038   0.619   5.564   3.827  0.7155  0.5254 -0.2016
  169SAPE  H18S19039   0.755   5.482   3.745 -0.8352  0.4527 -0.1392
  169SAPE  C21919040   0.743   5.453   3.958 -0.6156  0.1477 -0.3777
  169SAPE  H19R19041   0.827   5.380   3.951 -1.4275 -0.9216  0.5926
  169SAPE  H19S19042   0.671   5.415   4.034 -1.0311 -0.4928 -1.0706
  169SAPE  C22019043   0.793   5.583   4.024  0.3927 -0.8379  0.0505
  169SAPE  H20R19044   0.840   5.562   4.122  1.1083  0.3974 -0.0041
  169SAPE  H20S19045   0.715   5.662   4.031 -0.3454 -1.6224  0.9797
  169SAPE  H20T19046   0.873   5.619   3.956  1.0585 -1.0179  0.7273
  169SAPE   C3319047  -0.516   4.557   2.625 -0.4373  0.2344 -0.4388
  169SAPE   H3X19048  -0.569   4.500   2.546  3.0443 -1.9623 -1.4430
  169SAPE   H3Y19049  -0.591   4.629   2.665 -1.0386 -0.5031 -0.2071
  169SAPE   C3419050  -0.479   4.459   2.743 -0.0375  0.2156 -0.0793
  169SAPE   H4X19051  -0.374   4.427   2.728 -0.3308 -1.1099  0.5209
  169SAPE   H4Y19052  -0.544   4.369   2.732 -0.5404  0.1518  2.6692
  169SAPE   C3519053  -0.502   4.505   2.888 -0.2054 -0.1865  1.0236
  169SAPE   H5X19054  -0.612   4.515   2.893 -0.1838 -0.4363  2.3789
  169SAPE   H5Y19055  -0.453   4.602   2.913  2.1978 -0.3681 -2.3522
  169SAPE   C3619056  -0.466   4.391   2.992 -0.4424  0.2109  0.3014
  169SAPE   H6X19057  -0.528   4.300   2.971 -0.1667  0.2372 -0.6838
  169SAPE   H6Y19058  -0.502   4.430   3.089  1.7397  1.4328  0.6617
  169SAPE   C3719059  -0.318   4.357   3.000 -0.4369  0.0644  0.3403
  169SAPE   H7X19060  -0.258   4.428   3.060  1.7537  2.7117 -4.3720
  169SAPE   H7Y19061  -0.276   4.363   2.897 -2.7641  1.9105 -0.6074
  169SAPE   C3819062  -0.280   4.216   3.053 -0.2618 -0.1296  0.8746
  169SAPE   H8X19063  -0.299   4.137   2.977  0.3794 -0.9049  1.4987
  169SAPE   H8Y19064  -0.344   4.205   3.144 -0.2720  0.7052  0.9756
  169SAPE   C3919065  -0.132   4.196   3.101 -0.1735  0.2004  0.3132
  169SAPE   H9X19066  -0.049   4.227   3.033  0.5587 -2.4340 -0.0893
  169SAPE   H9Y19067  -0.116   4.087   3.114  0.3023  0.0500 -1.2487
  169SAPE  C31019068  -0.098   4.247   3.240  0.7428 -0.6059  1.0779
  169SAPE  H10X19069  -0.178   4.207   3.306 -1.5984 -0.9878 -1.7457
  169SAPE  H10Y19070  -0.110   4.356   3.252  1.0721 -0.3734 -0.4234
  169SAPE  C31119071   0.045   4.208   3.293 -0.1769  0.2918  0.7088
  169SAPE  H11X19072   0.117   4.245   3.216  1.7375 -0.3545  2.1073
  169SAPE  H11Y19073   0.049   4.098   3.304 -0.2472  0.2438  0.2824
  169SAPE  C31219074   0.074   4.266   3.430 -0.1617 -0.0365  0.8761
  169SAPE  H12X19075  -0.014   4.232   3.488 -0.3873  0.4427  0.8179
  169SAPE  H12Y19076   0.072   4.376   3.419 -0.3650  0.1667  2.5615
  169SAPE  C31319077   0.209   4.219   3.489  0.4916  0.2338 -0.0181
  169SAPE  H13X19078   0.283   4.215   3.406  0.9856 -0.8629  0.4658
  169SAPE  H13Y19079   0.194   4.113   3.518 -0.3284 -0.5809 -3.0218
  169SAPE  C31419080   0.255   4.315   3.598 -0.2944  0.3539 -0.2602
  169SAPE  H14X19081   0.189   4.332   3.686 -0.4647  0.0088 -0.3236
  169SAPE  H14Y19082   0.245   4.412   3.545  0.7058  1.4032  1.3601
  169SAPE  C31519083   0.398   4.287   3.651  0.1000  0.5644 -0.6712
  169SAPE  H15X19084   0.469   4.278   3.565  0.4523 -0.6670 -0.2773
  169SAPE  H15Y19085   0.389   4.188   3.701 -0.9122 -0.3052 -2.4836
  169SAPE  C31619086   0.461   4.380   3.751 -0.2359 -0.2859  0.9439
  169SAPE  H16X19087   0.392   4.396   3.837  0.5081  2.7673  1.1024
  169SAPE  H16Y19088   0.485   4.477   3.701  0.7202 -0.9409  0.0925
  169SAPE  C31719089   0.595   4.333   3.806  0.0985  0.1759  0.3862
  169SAPE  H17X19090   0.671   4.341   3.725 -0.0404  1.9074  0.4045
  169SAPE  H17Y19091   0.597   4.224   3.830 -0.7171  0.1850  0.5297
  169SAPE  C31819092   0.644   4.410   3.928  0.4536  0.6728 -0.1801
  169SAPE  H18X19093   0.650   4.513   3.885  1.9056  1.4819  1.8053
  169SAPE  H18Y19094   0.747   4.382   3.961  0.1245  0.4563  0.6847
  169SAPE  H18Z19095   0.583   4.408   4.020  0.3293 -1.7298 -0.2492
  170SAPE     N19096   5.277   6.392   2.008 -0.6522 -0.2515  0.7936
  170SAPE   HN119097   5.202   6.322   1.988 -0.7597 -0.4121  1.7027
  170SAPE   HN219098   5.263   6.430   2.104 -0.6010  2.0973 -0.0785
  170SAPE   HN319099   5.271   6.472   1.943  3.7814 -0.1872  0.1570
  170SAPE   C1219100   5.415   6.337   2.028 -0.0606  1.2706 -0.1206
  170SAPE  H12A19101   5.442   6.294   1.929  0.6703 -2.6907  1.6196
  170SAPE  H12B19102   5.396   6.262   2.107 -2.9806  0.2063 -1.6944
  170SAPE   C1119103   5.517   6.440   2.076 -0.8441 -0.3860 -0.7054
  170SAPE  H11A19104   5.610   6.380   2.082 -0.4992  0.0892 -1.1848
  170SAPE  H11B19105   5.491   6.476   2.178 -3.4285  1.3716 -1.8727
  170SAPE     P19106   5.650   6.641   1.971 -0.2563 -0.1288 -0.4384
  170SAPE   O1319107   5.746   6.583   1.880  0.0094 -0.0736 -0.3531
  170SAPE   O1419108   5.614   6.784   1.941 -0.5056 -0.7064  0.2132
  170SAPE   O1219109   5.523   6.550   1.977 -0.5774  0.6175 -0.2243
  170SAPE   O1119110   5.714   6.644   2.118  0.3949  0.5251  0.8011
  170SAPE    C119111   5.707   6.748   2.213 -0.8360  0.5825  0.5809
  170SAPE    HA19112   5.623   6.820   2.206 -0.8653  1.0012  3.6541
  170SAPE    HB19113   5.698   6.717   2.319  1.2464  0.4066  0.7635
  170SAPE    C219114   5.837   6.836   2.204  0.8462 -0.6357  0.2531
  170SAPE    HS19115   5.870   6.831   2.098 -0.6518  0.3309 -0.2825
  170SAPE   O2119116   5.934   6.769   2.284  0.2335 -0.3331  0.0870
  170SAPE   C2119117   6.057   6.818   2.276  0.0585 -0.1240 -0.0919
  170SAPE   O2219118   6.093   6.894   2.189 -0.9567  0.4325 -0.2977
  170SAPE   C2219119   6.146   6.765   2.389  0.5167 -0.2034 -0.1597
  170SAPE   H2R19120   6.076   6.698   2.443 -0.6934  1.2059  0.0806
  170SAPE   H2S19121   6.224   6.704   2.339  0.7760  0.9215 -1.1553
  170SAPE    C319122   5.813   6.983   2.251  0.6001  0.0990 -0.1537
  170SAPE    HX19123   5.746   7.046   2.189  0.8526 -0.7702 -1.3323
  170SAPE    HY19124   5.908   7.041   2.241  1.1737 -0.8224 -0.1475
  170SAPE   O3119125   5.773   6.990   2.398 -0.6885  0.2465  0.3754
  170SAPE   C3119126   5.649   7.024   2.419  0.4735  0.6360  0.4454
  170SAPE   O3219127   5.559   7.034   2.336 -0.0280  0.0966  0.2987
  170SAPE   C3219128   5.628   7.049   2.569  0.2212  0.3036 -0.2148
  170SAPE   H2X19129   5.686   6.977   2.630  1.3420  0.6770 -0.8193
  170SAPE   H2Y19130   5.519   7.048   2.591  0.1913  2.9759  0.1740
  170SAPE   C2319131   6.199   6.867   2.490 -0.1802  0.1957 -0.7544
  170SAPE   H3R19132   6.285   6.922   2.446  1.3601 -1.6984 -0.2657
  170SAPE   H3S19133   6.228   6.801   2.574  0.1881  1.3255  0.0237
  170SAPE   C2419134   6.098   6.971   2.549 -0.1581 -0.2424 -0.3682
  170SAPE   H4R19135   6.034   7.012   2.467 -0.6990  1.1237  0.6869
  170SAPE   H4S19136   6.158   7.052   2.595 -2.2255  0.2502  1.6342
  170SAPE   C2519137   6.013   6.902   2.654 -1.0371 -0.0896  0.5605
  170SAPE   H5R19138   5.964   6.810   2.621 -1.9982  0.4010  0.5781
  170SAPE   C2619139   6.000   6.939   2.787 -0.1998 -0.2851  0.7935
  170SAPE   H6R19140   5.926   6.892   2.853 -1.3311 -0.7080 -0.7285
  170SAPE   C2719141   6.062   7.058   2.854  0.8881  0.0831  0.3603
  170SAPE   H7R19142   5.979   7.131   2.852 -1.6314 -2.5999 -0.0233
  170SAPE   H7S19143   6.139   7.102   2.788  0.1461 -1.7616 -1.8679
  170SAPE   C2819144   6.096   7.057   3.007 -0.6223  0.2671  0.4904
  170SAPE   H8R19145   6.204   7.050   3.027 -0.5667  0.3397  0.2180
  170SAPE   C2919146   6.014   7.068   3.111 -0.3706  0.3237 -0.1686
  170SAPE   H9R19147   6.058   7.060   3.212 -0.7972 -0.3485 -0.0350
  170SAPE  C21019148   5.864   7.080   3.107  0.3179  0.2803 -0.1096
  170SAPE  H10R19149   5.839   7.119   3.006  1.8543  2.5832  0.3111
  170SAPE  H10S19150   5.826   7.155   3.181  1.2445  2.0520 -1.3481
  170SAPE  C21119151   5.804   6.944   3.146 -0.3518  0.0582 -0.0847
  170SAPE  H11R19152   5.770   6.888   3.058  0.8135  0.7398 -0.9920
  170SAPE  C21219153   5.785   6.887   3.268 -0.1352 -0.1708 -0.7463
  170SAPE  H12R19154   5.745   6.785   3.274  0.9460 -0.5544  0.3485
  170SAPE  C21319155   5.819   6.958   3.400 -0.2354  0.0836  0.1508
  170SAPE  H13R19156   5.900   7.032   3.385 -0.7910  0.4087 -1.4216
  170SAPE  H13S19157   5.869   6.877   3.458  2.1951 -0.6159 -2.7069
  170SAPE  C21419158   5.701   7.028   3.463  0.1868  0.3189 -0.1160
  170SAPE  H14R19159   5.605   6.995   3.422  0.2830  0.0785 -0.1495
  170SAPE  C21519160   5.690   7.137   3.541 -0.4395 -0.3641 -0.0677
  170SAPE  H15R19161   5.586   7.167   3.564  0.2879  1.3677  1.1984
  170SAPE  C21619162   5.802   7.204   3.615  0.0816  0.6303  0.5166
  170SAPE  H16R19163   5.765   7.300   3.658 -0.5228  0.7787 -0.3069
  170SAPE  H16S19164   5.881   7.222   3.540  0.3253 -2.2755 -0.0345
  170SAPE  C21719165   5.865   7.120   3.730 -0.1982  0.6167 -0.2561
  170SAPE  H17R19166   5.904   7.028   3.682 -0.9829 -0.1096  0.4799
  170SAPE  H17S19167   5.785   7.094   3.802  0.8033  1.1926  1.0960
  170SAPE  C21819168   5.986   7.183   3.797 -0.2093 -0.1707 -0.3068
  170SAPE  H18R19169   6.048   7.228   3.717  1.7155 -0.2219  1.0652
  170SAPE  H18S19170   6.046   7.106   3.851 -0.2903  0.5480  0.8596
  170SAPE  C21919171   5.954   7.301   3.894  0.5166 -0.8880 -0.7991
  170SAPE  H19R19172   5.882   7.372   3.850 -0.2901 -0.8043  0.6112
  170SAPE  H19S19173   6.043   7.366   3.909 -0.3540  0.3687 -0.9111
  170SAPE  C22019174   5.918   7.250   4.033 -0.0452  0.0423  0.2729
  170SAPE  H20R19175   5.816   7.205   4.033 -0.2587  0.5110  1.1177
  170SAPE  H20S19176   5.924   7.327   4.113 -3.8985 -0.2974  1.1003
  170SAPE  H20T19177   5.996   7.181   4.072  1.3360  1.6907  0.5169
  170SAPE   C3319178   5.673   7.188   2.606  0.0651 -0.8064 -0.0670
  170SAPE   H3X19179   5.638   7.260   2.528  0.9596  0.5483  0.7473
  170SAPE   H3Y19180   5.784   7.201   2.602 -0.1170  1.2957  0.4418
  170SAPE   C3419181   5.617   7.232   2.739 -0.2713 -0.1560  0.0498
  170SAPE   H4X19182   5.657   7.149   2.801  2.3763 -0.7043 -2.1898
  170SAPE   H4Y19183   5.506   7.236   2.734 -0.1896  0.8067 -1.9098
  170SAPE   C3519184   5.658   7.374   2.785 -0.1252  0.1758 -0.0414
  170SAPE   H5X19185   5.645   7.447   2.702 -0.3243 -0.8618 -0.9399
  170SAPE   H5Y19186   5.769   7.370   2.797 -0.2535 -0.0231  1.1828
  170SAPE   C3619187   5.578   7.425   2.909 -0.4253  0.0314  0.0424
  170SAPE   H6X19188   5.468   7.426   2.889 -0.2187  1.0069 -1.1890
  170SAPE   H6Y19189   5.617   7.527   2.926  0.8550 -0.5811  0.9043
  170SAPE   C3719190   5.609   7.350   3.036  0.3743  0.7872 -0.4007
  170SAPE   H7X19191   5.719   7.352   3.050  0.3884 -1.8664  0.5323
  170SAPE   H7Y19192   5.578   7.243   3.031  2.1012  0.3321 -2.1722
  170SAPE   C3819193   5.550   7.412   3.167  0.2118  0.2201 -0.1923
  170SAPE   H8X19194   5.444   7.426   3.140  0.4782  1.8099 -0.4928
  170SAPE   H8Y19195   5.580   7.517   3.190  2.4152 -0.5291  0.6858
  170SAPE   C3919196   5.559   7.335   3.300 -0.2470 -0.2195 -0.2659
  170SAPE   H9X19197   5.664   7.346   3.333 -0.4177 -1.0650  0.5955
  170SAPE   H9Y19198   5.557   7.226   3.279  0.5988 -0.2853 -0.0270
  170SAPE  C31019199   5.461   7.394   3.405 -0.6248  0.3705 -0.6427
  170SAPE  H10X19200   5.480   7.503   3.405  1.8911 -0.0048 -1.9954
  170SAPE  H10Y19201   5.505   7.361   3.502 -2.2469  0.9631  0.3480
  170SAPE  C31119202   5.326   7.341   3.392 -0.0980  0.0441 -0.3992
  170SAPE  H11X19203   5.325   7.233   3.369  1.4570  0.2137 -1.3855
  170SAPE  H11Y19204   5.282   7.399   3.307 -0.4364 -0.7176 -0.7535
  170SAPE  C31219205   5.239   7.362   3.513  0.5240 -0.1039 -0.6103
  170SAPE  H12X19206   5.133   7.346   3.483 -0.4519  2.8227  0.8984
  170SAPE  H12Y19207   5.229   7.470   3.537 -0.9363 -0.4521  0.4507
  170SAPE  C31319208   5.279   7.284   3.633  0.5504 -0.2230  0.0996
  170SAPE  H13X19209   5.374   7.327   3.671 -0.2003  1.9548 -0.3584
  170SAPE  H13Y19210   5.302   7.182   3.596  0.7882  0.2055 -0.9773
  170SAPE  C31419211   5.194   7.268   3.757 -0.5799  0.1838  0.7295
  170SAPE  H14X19212   5.223   7.178   3.815 -1.3974 -0.6937 -0.1953
  170SAPE  H14Y19213   5.086   7.267   3.730 -0.6071 -0.2884  0.8429
  170SAPE  C31519214   5.214   7.385   3.852 -0.0119  0.7545 -0.2370
  170SAPE  H15X19215   5.315   7.431   3.851  0.2082  0.3756  1.5558
  170SAPE  H15Y19216   5.214   7.350   3.957  1.1930  0.4349 -0.3343
  170SAPE  C31619217   5.114   7.498   3.820 -1.0910 -0.0532  0.2238
  170SAPE  H16X19218   5.088   7.499   3.712  0.1489  4.1500 -0.1982
  170SAPE  H16Y19219   5.179   7.587   3.831  0.1655 -0.6901 -1.5147
  170SAPE  C31719220   4.994   7.495   3.904 -0.0840 -0.8297  0.4081
  170SAPE  H17X19221   4.956   7.391   3.915 -1.9672 -0.1801  0.5346
  170SAPE  H17Y19222   4.923   7.562   3.851  0.4160 -0.6090  0.0107
  170SAPE  C31819223   5.025   7.556   4.042  0.4734 -0.1933  0.1225
  170SAPE  H18X19224   5.037   7.666   4.033 -0.7290  0.3157  3.4890
  170SAPE  H18Y19225   5.123   7.514   4.073  0.6658 -0.5091 -0.8861
  170SAPE  H18Z19226   4.939   7.527   4.107  0.5647 -0.9637 -0.0930
  171SAPE     N19227   1.206   5.232   1.899 -1.0413 -0.2835  0.3086
  171SAPE   HN119228   1.283   5.209   1.833 -0.3939 -1.3442  1.3671
  171SAPE   HN219229   1.212   5.149   1.962  4.1920 -1.8645 -1.7515
  171SAPE   HN319230   1.114   5.244   1.853  0.0176  2.5344 -1.3457
  171SAPE   C1219231   1.241   5.365   1.965  0.1301  0.4896  0.4785
  171SAPE  H12A19232   1.311   5.419   1.898  2.5112 -1.8356  0.9125
  171SAPE  H12B19233   1.293   5.346   2.061 -0.4657  0.4226  0.7939
  171SAPE   C1119234   1.105   5.442   1.990  0.2724  0.5714  0.5657
  171SAPE  H11A19235   1.129   5.528   2.056  1.6995  0.5050  0.1747
  171SAPE  H11B19236   1.040   5.370   2.045  0.5666 -0.4100 -0.3242
  171SAPE     P19237   0.940   5.595   1.861  0.0113  0.0703  0.4606
  171SAPE   O1319238   1.021   5.711   1.810 -0.4318 -0.1841 -0.3425
  171SAPE   O1419239   0.826   5.560   1.774 -0.2301 -0.2709 -0.3158
  171SAPE   O1219240   1.042   5.471   1.865  0.2170 -0.0453  0.2429
  171SAPE   O1119241   0.899   5.624   2.010 -0.2389 -0.3486 -0.6100
  171SAPE    C119242   0.845   5.751   2.056 -0.9416 -0.0984 -0.1731
  171SAPE    HA19243   0.763   5.778   1.987 -2.7468 -1.5073  1.3354
  171SAPE    HB19244   0.789   5.738   2.150 -0.9497  2.8216  0.3229
  171SAPE    C219245   0.958   5.862   2.080  0.6974  0.6033  0.2929
  171SAPE    HS19246   1.004   5.881   1.981 -0.0054  2.8962  0.3622
  171SAPE   O2119247   1.049   5.825   2.184 -0.6973  0.2001 -0.4017
  171SAPE   C2119248   1.168   5.880   2.168 -0.0083 -0.6407  0.5099
  171SAPE   O2219249   1.206   5.947   2.073  0.0456  0.1788 -0.3557
  171SAPE   C2219250   1.258   5.838   2.274  0.5362 -0.2103 -0.8414
  171SAPE   H2R19251   1.247   5.732   2.306  1.0368  0.5741  2.2434
  171SAPE   H2S19252   1.362   5.840   2.233  1.3438  0.2763  1.1121
  171SAPE    C319253   0.898   5.995   2.102  0.1493 -0.7190  0.0239
  171SAPE    HX19254   0.865   6.036   2.004 -1.6662  0.9801  1.2549
  171SAPE    HY19255   0.976   6.069   2.128  0.7653 -1.0146 -0.9375
  171SAPE   O3119256   0.803   5.999   2.206 -0.4981  0.1187 -0.0015
  171SAPE   C3119257   0.670   5.981   2.170 -0.5455  0.2850 -0.0349
  171SAPE   O3219258   0.635   5.987   2.053  0.1912 -0.4912  0.3774
  171SAPE   C3219259   0.579   5.947   2.285  0.1921 -0.6800  0.0859
  171SAPE   H2X19260   0.473   5.955   2.252 -0.6691  0.1651  2.7847
  171SAPE   H2Y19261   0.591   6.029   2.359  1.6616 -0.5163 -0.3062
  171SAPE   C2319262   1.275   5.926   2.403 -0.9134  0.0809  0.0786
  171SAPE   H3R19263   1.274   6.035   2.380  0.7294  0.4358  1.4816
  171SAPE   H3S19264   1.378   5.905   2.439 -1.6021  1.1566  2.9432
  171SAPE   C2419265   1.182   5.889   2.514  0.0809 -0.1259  0.1947
  171SAPE   H4R19266   1.229   5.874   2.613 -2.2184 -3.1050  0.9932
  171SAPE   H4S19267   1.155   5.782   2.506  0.4917 -0.3622  1.6322
  171SAPE   C2519268   1.064   5.980   2.516  0.3556  0.3240 -0.1910
  171SAPE   H5R19269   1.001   5.987   2.426 -2.0825  1.4389  1.5082
  171SAPE   C2619270   1.008   6.043   2.623  0.2279 -1.0450  0.0336
  171SAPE   H6R19271   0.922   6.107   2.599 -0.2900 -2.0804 -0.9229
  171SAPE   C2719272   1.060   6.044   2.767 -0.1299  0.8168  0.1203
  171SAPE   H7R19273   1.007   6.125   2.820 -0.1236  0.9325 -0.0481
  171SAPE   H7S19274   1.170   6.055   2.774 -0.0705  0.3899 -0.0810
  171SAPE   C2819275   1.031   5.917   2.837 -1.2494  0.6985 -0.2971
  171SAPE   H8R19276   0.973   5.842   2.781 -2.5765  1.7189 -0.3583
  171SAPE   C2919277   1.058   5.891   2.970  0.1600 -0.0799 -0.8399
  171SAPE   H9R19278   1.045   5.791   3.014 -3.9951  0.0118 -1.3936
  171SAPE  C21019279   1.111   5.995   3.072  0.0678  0.1574  0.0376
  171SAPE  H10R19280   1.170   6.070   3.015 -0.7573  0.4747 -0.4170
  171SAPE  H10S19281   1.183   5.950   3.143 -1.1326  1.1665  1.9589
  171SAPE  C21119282   1.000   6.064   3.142 -0.1336  0.3372  0.3570
  171SAPE  H11R19283   0.897   6.036   3.114 -0.5203 -0.1877  2.1818
  171SAPE  C21219284   1.017   6.123   3.265  0.0765 -0.4801 -0.3097
  171SAPE  H12R19285   0.934   6.170   3.320  0.3884  1.6232 -1.5573
  171SAPE  C21319286   1.152   6.141   3.338  0.4063  0.1950 -0.3172
  171SAPE  H13R19287   1.152   6.244   3.378  0.4953 -0.6219  1.9112
  171SAPE  H13S19288   1.229   6.135   3.258 -0.9781 -0.4370 -1.6437
  171SAPE  C21419289   1.175   6.044   3.452  0.1780 -0.0476 -0.3825
  171SAPE  H14R19290   1.114   5.953   3.439 -1.4432  0.9524  0.0124
  171SAPE  C21519291   1.234   6.082   3.568 -0.0158  0.0792  0.2838
  171SAPE  H15R19292   1.250   6.012   3.651 -1.0539 -0.9093 -0.3159
  171SAPE  C21619293   1.295   6.220   3.588  0.4034  0.8694  0.0809
  171SAPE  H16R19294   1.360   6.260   3.508 -0.0696  2.1560  0.3085
  171SAPE  H16S19295   1.377   6.202   3.661 -0.4995 -0.7691  0.7622
  171SAPE  C21719296   1.186   6.310   3.644  0.4420 -0.0515  0.6724
  171SAPE  H17R19297   1.093   6.256   3.671  0.2905 -0.2194 -0.1601
  171SAPE  H17S19298   1.167   6.379   3.558  1.6611  0.6687  0.9459
  171SAPE  C21819299   1.228   6.398   3.763  0.0381 -0.3704 -0.6504
  171SAPE  H18R19300   1.324   6.450   3.747  0.6236 -1.0892  0.3947
  171SAPE  H18S19301   1.242   6.327   3.847 -0.6309 -0.9490 -1.0097
  171SAPE  C21919302   1.118   6.502   3.803  0.4977 -0.3641  0.2070
  171SAPE  H19R19303   1.110   6.580   3.724 -1.2466 -1.1478 -0.4476
  171SAPE  H19S19304   1.150   6.561   3.891  1.2368 -0.1277 -0.2052
  171SAPE  C22019305   0.984   6.428   3.826  0.4022 -0.2729  0.4715
  171SAPE  H20R19306   0.936   6.395   3.731 -0.7916  2.4783  0.0165
  171SAPE  H20S19307   0.915   6.506   3.865  0.0124 -0.1900 -0.3632
  171SAPE  H20T19308   0.995   6.347   3.902  0.8491 -1.6317 -0.9818
  171SAPE   C3319309   0.609   5.815   2.362  0.2290  0.9025 -0.0057
  171SAPE   H3X19310   0.603   5.725   2.298 -1.7485  0.7504  0.3327
  171SAPE   H3Y19311   0.524   5.806   2.433  0.5325  3.2632  0.7575
  171SAPE   C3419312   0.740   5.818   2.439  0.0225  0.6571 -0.4387
  171SAPE   H4X19313   0.745   5.912   2.498 -0.2160 -0.4603  1.4294
  171SAPE   H4Y19314   0.824   5.808   2.367  0.9932  3.2113  0.2351
  171SAPE   C3519315   0.745   5.699   2.539  0.8188 -0.4394 -0.3130
  171SAPE   H5X19316   0.842   5.670   2.584  0.2512  0.5221  1.6369
  171SAPE   H5Y19317   0.697   5.608   2.498 -1.0390  0.9825 -1.5330
  171SAPE   C3619318   0.681   5.739   2.680  0.2780  0.6182 -0.6472
  171SAPE   H6X19319   0.574   5.768   2.677  0.8503  2.7494 -2.5216
  171SAPE   H6Y19320   0.735   5.831   2.710 -0.4841  1.0436 -0.5607
  171SAPE   C3719321   0.710   5.632   2.791 -0.0326 -0.0414 -0.0541
  171SAPE   H7X19322   0.820   5.624   2.790 -0.0116  0.1617  0.3684
  171SAPE   H7Y19323   0.673   5.532   2.759 -1.2143  0.7638 -1.3303
  171SAPE   C3819324   0.651   5.658   2.927 -0.5535 -0.6339 -0.2421
  171SAPE   H8X19325   0.542   5.678   2.930 -0.3511  0.6133  2.7023
  171SAPE   H8Y19326   0.700   5.745   2.977 -2.4794  0.5059 -0.2275
  171SAPE   C3919327   0.677   5.544   3.020 -0.2634 -0.2126 -0.4384
  171SAPE   H9X19328   0.785   5.518   3.019  0.1757  1.1635  1.9500
  171SAPE   H9Y19329   0.622   5.453   2.989  1.2736 -1.1441 -0.5711
  171SAPE  C31019330   0.629   5.573   3.162 -0.1654 -0.3800  0.3251
  171SAPE  H10X19331   0.609   5.473   3.208  1.1378 -0.6190  0.3863
  171SAPE  H10Y19332   0.536   5.633   3.149  0.6438  0.4372 -2.1575
  171SAPE  C31119333   0.719   5.657   3.255  0.2272 -0.5425 -0.3219
  171SAPE  H11X19334   0.759   5.752   3.213  0.1713 -0.3044  0.1622
  171SAPE  H11Y19335   0.808   5.594   3.275 -0.0300 -1.1204 -0.9636
  171SAPE  C31219336   0.647   5.681   3.387 -0.8633 -0.2943  0.7646
  171SAPE  H12X19337   0.594   5.584   3.403 -1.8313 -0.0386 -0.6981
  171SAPE  H12Y19338   0.574   5.765   3.386 -0.1426  0.3921  2.3295
  171SAPE  C31319339   0.732   5.716   3.510  0.3486  0.2084 -0.1860
  171SAPE  H13X19340   0.789   5.625   3.540 -1.1583 -0.5270  0.5518
  171SAPE  H13Y19341   0.666   5.732   3.598 -0.3521  0.8203 -0.8146
  171SAPE  C31419342   0.825   5.832   3.504 -0.0757 -0.3393  0.0494
  171SAPE  H14X19343   0.901   5.820   3.423 -0.3767  0.9520 -0.4445
  171SAPE  H14Y19344   0.873   5.839   3.604 -2.0009  1.5631  0.9329
  171SAPE  C31519345   0.756   5.971   3.487  0.0791  0.1744  0.4495
  171SAPE  H15X19346   0.710   5.992   3.388  1.2566  0.4878 -0.0526
  171SAPE  H15Y19347   0.833   6.050   3.504  1.2369 -0.6067 -0.9175
  171SAPE  C31619348   0.643   6.002   3.579  0.3064 -0.6164  0.1018
  171SAPE  H16X19349   0.667   5.978   3.685  0.4631 -0.5098  0.0902
  171SAPE  H16Y19350   0.557   5.938   3.550  2.6255 -2.2290 -4.1051
  171SAPE  C31719351   0.601   6.152   3.593 -0.0183 -0.0495  0.4438
  171SAPE  H17X19352   0.598   6.206   3.496  0.1169  0.3049  0.6336
  171SAPE  H17Y19353   0.679   6.211   3.646 -1.9697  1.3183  1.9399
  171SAPE  C31819354   0.464   6.166   3.661  0.3799 -0.1179 -0.3594
  171SAPE  H18X19355   0.394   6.088   3.625 -0.4465  0.0377  0.8422
  171SAPE  H18Y19356   0.422   6.267   3.645 -0.6957 -0.8246 -2.4708
  171SAPE  H18Z19357   0.459   6.143   3.770 -0.6036  1.2275 -0.1020
  172SAPE     N19358   5.890   6.451   2.211  0.2226 -0.4469  0.1547
  172SAPE   HN119359   5.879   6.542   2.162  0.4118 -1.1019 -1.1660
  172SAPE   HN219360   5.891   6.379   2.135  1.3081  1.0671 -1.3371
  172SAPE   HN319361   5.802   6.432   2.262  0.2575  0.9213  0.7607
  172SAPE   C1219362   6.002   6.430   2.309  0.4297 -0.2363 -0.1267
  172SAPE  H12A19363   5.971   6.341   2.368 -1.3900  0.6806  0.3796
  172SAPE  H12B19364   6.007   6.520   2.374  1.6385 -1.1518  1.1117
  172SAPE   C1119365   6.130   6.391   2.230 -0.1730 -1.0659  0.5497
  172SAPE  H11A19366   6.111   6.298   2.172 -2.0856 -1.2807  1.4638
  172SAPE  H11B19367   6.213   6.374   2.302  0.0241 -0.2273  0.5305
  172SAPE     P19368   6.281   6.512   2.044 -0.5040 -0.0416  0.4896
  172SAPE   O1319369   6.300   6.384   1.968  0.2264  0.1282 -0.3179
  172SAPE   O1419370   6.285   6.628   1.956 -0.5582  0.0669  0.1646
  172SAPE   O1219371   6.155   6.504   2.143  0.1717  0.4178 -0.7716
  172SAPE   O1119372   6.396   6.531   2.149  0.7052  0.0524 -0.3027
  172SAPE    C119373   6.437   6.649   2.214 -0.1725  0.2882  0.1020
  172SAPE    HA19374   6.381   6.735   2.173  0.8437  1.6639  1.5152
  172SAPE    HB19375   6.411   6.628   2.320 -3.3282  0.4163 -0.5451
  172SAPE    C219376   6.588   6.680   2.212 -0.1386 -0.2817  0.5536
  172SAPE    HS19377   6.613   6.678   2.104  0.1716 -2.2520  0.6135
  172SAPE   O2119378   6.649   6.571   2.282  0.0372  0.7064  0.5314
  172SAPE   C2119379   6.768   6.540   2.246 -0.5126 -0.3323  0.1511
  172SAPE   O2219380   6.834   6.599   2.165 -0.0766 -0.6636 -0.0577
  172SAPE   C2219381   6.814   6.412   2.322  0.0681 -0.0070 -0.3068
  172SAPE   H2R19382   6.724   6.361   2.359 -0.6758  0.5199 -1.3212
  172SAPE   H2S19383   6.861   6.361   2.235  2.2247  0.5676  0.4545
  172SAPE    C319384   6.621   6.822   2.268  0.3680 -0.3779  0.1594
  172SAPE    HX19385   6.564   6.891   2.202  1.3701  1.9235  1.5734
  172SAPE    HY19386   6.728   6.849   2.258  0.6825 -1.0865  1.4243
  172SAPE   O3119387   6.568   6.836   2.399  0.5851 -0.2477  0.0580
  172SAPE   C3119388   6.646   6.840   2.498  1.0360  0.2479 -0.4673
  172SAPE   O3219389   6.767   6.838   2.502  0.6330 -0.2103  0.4053
  172SAPE   C3219390   6.547   6.836   2.620 -0.6078 -0.4432  0.7119
  172SAPE   H2X19391   6.469   6.761   2.598 -2.1577  1.8097 -2.1378
  172SAPE   H2Y19392   6.494   6.934   2.625  0.3915  0.1572 -0.1113
  172SAPE   C2319393   6.904   6.441   2.444 -0.6242  0.2107  0.3493
  172SAPE   H3R19394   6.963   6.527   2.407 -5.0015  2.4367 -2.2166
  172SAPE   H3S19395   6.983   6.367   2.470  0.5641  1.4859  0.4977
  172SAPE   C2419396   6.829   6.486   2.576  0.0995  0.2074 -1.3164
  172SAPE   H4R19397   6.750   6.551   2.533 -0.6441  0.6435  0.6336
  172SAPE   H4S19398   6.909   6.534   2.636  1.0472 -1.6216 -1.0284
  172SAPE   C2519399   6.766   6.364   2.642  0.0228 -0.5326 -0.0002
  172SAPE   H5R19400   6.839   6.289   2.674  1.2622  1.4183  2.0631
  172SAPE   C2619401   6.637   6.353   2.677 -0.1231 -0.5446 -0.2417
  172SAPE   H6R19402   6.603   6.270   2.741 -0.2224  0.2747  0.7961
  172SAPE   C2719403   6.538   6.464   2.668 -0.8291  0.1187  0.4500
  172SAPE   H7R19404   6.585   6.563   2.656  3.0507 -1.6616 -0.7534
  172SAPE   H7S19405   6.489   6.470   2.767  1.1211  0.0487  1.4555
  172SAPE   C2819406   6.432   6.432   2.565  0.9056  0.7536  0.9365
  172SAPE   H8R19407   6.456   6.383   2.470 -1.6039 -2.1682  1.6466
  172SAPE   C2919408   6.297   6.452   2.587 -0.6720  0.2794 -0.2431
  172SAPE   H9R19409   6.224   6.424   2.510 -1.1243 -2.5235  1.0450
  172SAPE  C21019410   6.222   6.524   2.694  0.7728  0.1808 -0.0486
  172SAPE  H10R19411   6.130   6.564   2.647  0.5170 -0.2621  0.0647
  172SAPE  H10S19412   6.274   6.613   2.736  1.2978 -0.6079  1.0451
  172SAPE  C21119413   6.167   6.435   2.806  0.4446  0.1111 -0.1812
  172SAPE  H11R19414   6.164   6.329   2.774 -0.8274 -0.3669  1.4053
  172SAPE  C21219415   6.124   6.479   2.924  0.4186 -0.1142  0.0940
  172SAPE  H12R19416   6.097   6.392   2.987  1.0166 -1.9969 -2.1007
  172SAPE  C21319417   6.113   6.621   2.977  0.5735 -0.9227  0.7166
  172SAPE  H13R19418   6.011   6.643   3.014  0.4454 -2.4173  1.3528
  172SAPE  H13S19419   6.132   6.697   2.898  0.5987 -1.7311 -0.0714
  172SAPE  C21419420   6.216   6.662   3.079  0.4350 -0.6021 -0.0534
  172SAPE  H14R19421   6.317   6.671   3.038  0.4529 -2.7306 -0.5806
  172SAPE  C21519422   6.197   6.690   3.213  0.1825 -0.4728  0.1332
  172SAPE  H15R19423   6.281   6.713   3.280 -1.6848  2.6053  1.6582
  172SAPE  C21619424   6.069   6.689   3.298 -0.1145  0.5194  0.0632
  172SAPE  H16R19425   5.983   6.648   3.242  1.5045 -1.9015 -0.8026
  172SAPE  H16S19426   6.046   6.798   3.300 -0.9601  0.3873 -1.4215
  172SAPE  C21719427   6.082   6.626   3.440 -0.0003  0.2763  0.4082
  172SAPE  H17R19428   5.979   6.610   3.477  0.1578  0.4934  0.9523
  172SAPE  H17S19429   6.138   6.699   3.502  0.6803  0.6934 -0.6752
  172SAPE  C21819430   6.146   6.487   3.450 -1.1439 -0.2265 -0.1838
  172SAPE  H18R19431   6.253   6.478   3.421 -0.4021 -1.0026  2.4323
  172SAPE  H18S19432   6.093   6.415   3.384 -3.2361  0.5911  0.5290
  172SAPE  C21919433   6.137   6.425   3.595 -0.6896  0.2481 -0.1723
  172SAPE  H19R19434   6.031   6.420   3.627 -0.4996 -0.0555  0.4313
  172SAPE  H19S19435   6.176   6.504   3.663 -3.0855  0.4557  1.0787
  172SAPE  C22019436   6.213   6.288   3.614 -0.5610 -0.2216 -0.5801
  172SAPE  H20R19437   6.178   6.211   3.542 -0.5575  1.0916 -2.0408
  172SAPE  H20S19438   6.191   6.263   3.720 -0.2333 -0.4242 -0.5588
  172SAPE  H20T19439   6.324   6.288   3.616 -0.5492 -1.8471 -0.1098
  172SAPE   C3319440   6.610   6.821   2.762 -0.8335  0.7885  0.3172
  172SAPE   H3X19441   6.688   6.900   2.763  0.8045 -0.6661 -1.9238
  172SAPE   H3Y19442   6.668   6.727   2.751  0.0544  1.3609  0.0605
  172SAPE   C3419443   6.504   6.821   2.863 -0.0892  0.2380 -0.0728
  172SAPE   H4X19444   6.442   6.733   2.835  0.8591  0.1096 -1.9061
  172SAPE   H4Y19445   6.433   6.907   2.864 -0.2516  0.1025  0.1492
  172SAPE   C3519446   6.540   6.816   3.016 -0.1655 -0.5167  0.3218
  172SAPE   H5X19447   6.452   6.826   3.084 -0.6427  3.8518 -0.6505
  172SAPE   H5Y19448   6.605   6.905   3.034  0.6549 -0.8933 -0.7143
  172SAPE   C3619449   6.613   6.686   3.058  0.1276 -0.3689  0.2006
  172SAPE   H6X19450   6.701   6.655   2.997  0.1595 -1.6665  0.8814
  172SAPE   H6Y19451   6.538   6.607   3.035 -0.4277  0.3822 -0.6349
  172SAPE   C3719452   6.656   6.691   3.202  1.2911 -0.1485 -0.3710
  172SAPE   H7X19453   6.570   6.726   3.264  2.2261 -0.5459  1.2076
  172SAPE   H7Y19454   6.738   6.766   3.205  3.5232 -2.4701  1.2625
  172SAPE   C3819455   6.709   6.560   3.249 -0.5556  0.0187  0.4047
  172SAPE   H8X19456   6.813   6.547   3.212 -0.7386  0.1089 -0.1438
  172SAPE   H8Y19457   6.649   6.474   3.214  0.5094 -0.3657 -0.5479
  172SAPE   C3919458   6.698   6.573   3.404  0.3788  0.1145 -0.3191
  172SAPE   H9X19459   6.716   6.681   3.423 -1.2143  1.0133 -3.3152
  172SAPE   H9Y19460   6.769   6.513   3.464 -1.9834  0.1141  2.7699
  172SAPE  C31019461   6.558   6.526   3.447  0.2570  0.5065  0.0741
  172SAPE  H10X19462   6.531   6.434   3.390  0.3971  1.4357 -1.5591
  172SAPE  H10Y19463   6.484   6.597   3.404 -1.3587 -0.5601  0.9767
  172SAPE  C31119464   6.523   6.534   3.598  0.2930 -0.3536 -0.7374
  172SAPE  H11X19465   6.414   6.513   3.599  0.3667 -0.7467 -0.9710
  172SAPE  H11Y19466   6.530   6.641   3.630  0.9378 -0.1944 -1.3666
  172SAPE  C31219467   6.606   6.448   3.691 -0.3132  0.5944 -0.5609
  172SAPE  H12X19468   6.716   6.464   3.689 -0.1996  0.1345  0.7729
  172SAPE  H12Y19469   6.588   6.342   3.663  0.7941 -0.4802  2.3958
  172SAPE  C31319470   6.561   6.453   3.840 -0.0100  0.1789  0.0351
  172SAPE  H13X19471   6.451   6.439   3.834  0.1377 -1.6093  0.8415
  172SAPE  H13Y19472   6.580   6.556   3.878  0.8148  0.0555 -0.0217
  172SAPE  C31419473   6.628   6.346   3.934 -0.2820 -0.1172  0.5043
  172SAPE  H14X19474   6.597   6.361   4.039  0.6621 -0.5234  0.8575
  172SAPE  H14Y19475   6.738   6.363   3.932 -0.4215  0.8194 -0.1605
  172SAPE  C31519476   6.611   6.205   3.892  0.1022  1.3595  0.1836
  172SAPE  H15X19477   6.635   6.195   3.784 -2.4333  3.4196 -0.6725
  172SAPE  H15Y19478   6.510   6.163   3.909  1.5415 -2.3608  0.4591
  172SAPE  C31619479   6.707   6.103   3.967  0.2126 -0.2728  0.1334
  172SAPE  H16X19480   6.663   6.092   4.069 -1.1714 -2.2147 -0.6148
  172SAPE  H16Y19481   6.801   6.160   3.983 -2.4667  4.1599  2.1858
  172SAPE  C31719482   6.715   5.961   3.913  0.3631  0.1470 -0.7845
  172SAPE  H17X19483   6.747   5.961   3.807  0.1277 -2.0133 -0.9014
  172SAPE  H17Y19484   6.610   5.926   3.907  0.3931 -0.5817  1.7068
  172SAPE  C31819485   6.797   5.874   3.999  0.1543 -0.0017 -0.8111
  172SAPE  H18X19486   6.907   5.882   3.986  0.4948 -0.8163  1.1628
  172SAPE  H18Y19487   6.764   5.770   3.979 -0.7250  0.0183  0.4378
  172SAPE  H18Z19488   6.774   5.876   4.108  1.3487 -0.0572 -0.5347
  173SLPC     N19489   5.603   2.632   6.269 -0.0972 -0.3531 -0.5755
  173SLPC   C1319490   5.663   2.502   6.314 -0.1599 -0.2461  0.1622
  173SLPC  H13A19491   5.755   2.529   6.364 -1.1319  0.3778  1.6702
  173SLPC  H13B19492   5.592   2.447   6.373 -1.8837  3.5849  1.9757
  173SLPC  H13C19493   5.689   2.438   6.231 -1.5526 -1.7902  0.8624
  173SLPC   C1419494   5.619   2.738   6.376 -0.0679 -0.3497  0.2777
  173SLPC  H14A19495   5.719   2.748   6.415 -0.2531 -1.0291  0.9455
  173SLPC  H14B19496   5.589   2.837   6.345  1.6772 -0.2263 -1.1739
  173SLPC  H14C19497   5.559   2.711   6.462 -0.4365  0.4314  0.2749
  173SLPC   C1519498   5.454   2.600   6.251 -0.1600 -0.6616 -0.1623
  173SLPC  H15A19499   5.445   2.511   6.191 -0.5011 -1.1873  0.6586
  173SLPC  H15B19500   5.407   2.574   6.345 -2.3747 -1.5668 -1.4388
  173SLPC  H15C19501   5.404   2.686   6.209  1.1473  0.9788  1.4656
  173SLPC   C1219502   5.666   2.685   6.136  0.7215 -0.1666 -0.5165
  173SLPC  H12A19503   5.769   2.715   6.151  0.6119 -0.3373  0.6612
  173SLPC  H12B19504   5.613   2.772   6.103 -0.9289  0.6029  3.5130
  173SLPC   C1119505   5.676   2.598   6.012  0.6818 -0.8801 -0.1127
  173SLPC  H11A19506   5.708   2.650   5.919  1.4558 -3.6714 -1.5042
  173SLPC  H11B19507   5.570   2.571   5.992  1.2061 -2.5831 -0.7467
  173SLPC     P19508   5.906   2.482   6.040  0.3529  0.0989 -0.3998
  173SLPC   O1319509   5.943   2.578   6.150  0.0586  0.6589  0.3732
  173SLPC   O1419510   5.945   2.343   6.069  0.4111 -0.0021 -0.1036
  173SLPC   O1219511   5.748   2.478   6.027  0.9738  0.0929  0.3555
  173SLPC   O1119512   5.965   2.530   5.901  0.4742 -0.0518  0.0745
  173SLPC    C119513   5.938   2.463   5.774  0.2194 -0.1424  0.4031
  173SLPC    HA19514   5.852   2.393   5.784  1.0426 -1.2280  0.1086
  173SLPC    HB19515   5.924   2.538   5.693 -1.6398 -1.9012 -1.0171
  173SLPC    C219516   6.059   2.386   5.725 -0.2828 -0.6330 -0.6324
  173SLPC    HS19517   6.094   2.335   5.817  0.8687 -0.4199 -0.9277
  173SLPC   O2119518   6.148   2.481   5.667  0.2881  0.6938  0.4643
  173SLPC   C2119519   6.273   2.437   5.663  0.3468  0.0563  0.6061
  173SLPC   O2219520   6.313   2.329   5.701 -0.4630  0.0174  1.2587
  173SLPC   C2219521   6.355   2.552   5.606  0.0600 -0.4918  0.4847
  173SLPC   H2R19522   6.295   2.626   5.549  1.2432  0.7947  0.8342
  173SLPC   H2S19523   6.396   2.598   5.698 -0.8464 -1.2517  1.2888
  173SLPC    C319524   6.024   2.263   5.631 -0.2575  0.1953 -0.3613
  173SLPC    HX19525   5.930   2.211   5.661  0.5937 -0.0863  2.0647
  173SLPC    HY19526   6.105   2.189   5.651 -0.1756  0.1683 -0.7899
  173SLPC   O3119527   6.028   2.308   5.491 -0.2971 -0.2661 -0.4702
  173SLPC   C3119528   5.913   2.349   5.450 -0.7854 -0.0119  0.4322
  173SLPC   O3219529   5.812   2.356   5.518 -0.1650  0.3814  0.1034
  173SLPC   C3219530   5.912   2.364   5.292  0.6334 -1.0505  0.0128
  173SLPC   H2X19531   5.891   2.266   5.244  2.0838 -1.8566  0.9622
  173SLPC   H2Y19532   6.017   2.381   5.262  0.1846 -0.5964 -1.3643
  173SLPC   C2319533   6.466   2.497   5.520 -0.2552  0.7569  0.8293
  173SLPC   H3R19534   6.427   2.437   5.435 -0.9072  1.2015  0.8033
  173SLPC   H3S19535   6.535   2.429   5.573  1.4455  0.5448 -1.5219
  173SLPC   C2419536   6.557   2.603   5.448  0.5748  0.2402  0.3118
  173SLPC   H4R19537   6.572   2.672   5.533 -1.6132 -0.3938  1.2928
  173SLPC   H4S19538   6.493   2.651   5.370  2.6325  1.6016 -0.6215
  173SLPC   C2519539   6.686   2.562   5.382 -0.7127 -0.2878  0.5938
  173SLPC   H5R19540   6.732   2.483   5.445  2.3381  2.2158  1.7880
  173SLPC   H5S19541   6.761   2.643   5.393  1.8250 -2.0133 -2.3614
  173SLPC   C2619542   6.678   2.519   5.236 -0.6694  0.6529 -0.3970
  173SLPC   H6R19543   6.588   2.458   5.213 -0.0881 -0.2573 -0.3035
  173SLPC   H6S19544   6.761   2.449   5.214 -2.5052 -1.4431 -1.0083
  173SLPC   C2719545   6.672   2.641   5.146 -0.6389  0.6045  0.3531
  173SLPC   H7R19546   6.767   2.695   5.165  0.4366 -1.5206  1.4260
  173SLPC   H7S19547   6.586   2.708   5.164 -0.6326  0.5389  0.6273
  173SLPC   C2819548   6.669   2.607   4.992  0.1356 -0.2366  0.2525
  173SLPC   H8R19549   6.744   2.530   4.965  0.3024  0.4139 -1.2979
  173SLPC   H8S19550   6.700   2.703   4.945 -0.4997 -0.8048 -1.4053
  173SLPC   C2919551   6.532   2.573   4.939 -0.1835 -0.2714 -0.4035
  173SLPC   H9R19552   6.468   2.536   5.020 -0.7123 -1.2944 -1.2710
  173SLPC  C21019553   6.481   2.605   4.817  0.5469  0.1637 -0.9859
  173SLPC  H10R19554   6.378   2.574   4.798 -0.2471  3.0618 -1.9197
  173SLPC  C21119555   6.540   2.697   4.715 -0.0630 -0.3501  0.1891
  173SLPC  H11R19556   6.648   2.717   4.731 -0.4124  0.7840  1.2529
  173SLPC  H11S19557   6.482   2.792   4.721 -0.6373 -0.5520 -1.5043
  173SLPC  C21219558   6.532   2.651   4.574  0.4418  0.1786 -0.3573
  173SLPC  H12R19559   6.577   2.551   4.562 -2.7463 -1.5401  0.6897
  173SLPC  C21319560   6.478   2.709   4.468  0.3171 -0.1234  0.4275
  173SLPC  H13R19561   6.488   2.657   4.372  2.8163 -0.7559  0.9378
  173SLPC  C21419562   6.411   2.844   4.451  1.1327  0.6729 -0.7492
  173SLPC  H14R19563   6.457   2.917   4.380  0.1632  2.4637  0.3707
  173SLPC  H14S19564   6.430   2.908   4.540 -0.5996  0.1862  0.0032
  173SLPC  C21519565   6.257   2.838   4.446 -0.1897  0.0813  0.0023
  173SLPC  H15R19566   6.212   2.808   4.542  0.9169  0.2993  0.6077
  173SLPC  H15S19567   6.216   2.761   4.376  0.9044 -0.1588 -0.4008
  173SLPC  C21619568   6.198   2.976   4.407 -0.3172  0.1318  0.1403
  173SLPC  H16R19569   6.225   2.995   4.301  2.8546  1.3530  1.0430
  173SLPC  H16S19570   6.245   3.049   4.477  0.6596  2.2871 -2.5711
  173SLPC  C21719571   6.044   2.996   4.431 -0.6144  0.3036 -0.3728
  173SLPC  H17R19572   5.993   2.957   4.341 -2.4526 -1.0728  1.1644
  173SLPC  H17S19573   6.037   3.107   4.424 -0.5514  0.3984  0.8114
  173SLPC  C21819574   5.968   2.951   4.561  0.7686  0.8049  0.1644
  173SLPC  H18R19575   6.005   3.014   4.645  1.4986  0.1745  0.3271
  173SLPC  H18S19576   5.980   2.841   4.569 -0.4162  0.5018 -1.7215
  173SLPC  H18T19577   5.861   2.977   4.546  0.1629  0.4807  3.2751
  173SLPC   C3319578   5.816   2.488   5.254  0.5990 -0.9514 -0.4375
  173SLPC   H3X19579   5.715   2.471   5.297  0.7549  0.3534  0.5189
  173SLPC   H3Y19580   5.796   2.478   5.146 -0.9126  1.7794 -0.5209
  173SLPC   C3419581   5.878   2.624   5.299  0.7331  0.6337 -0.1987
  173SLPC   H4X19582   5.890   2.630   5.409  1.6373  1.3129 -0.3264
  173SLPC   H4Y19583   5.803   2.702   5.274 -0.7762 -0.9974 -1.0020
  173SLPC   C3519584   6.013   2.663   5.233  0.0232  0.2385 -0.1865
  173SLPC   H5X19585   5.999   2.633   5.126 -0.8968 -1.1391  0.2853
  173SLPC   H5Y19586   6.092   2.604   5.284 -1.1102 -2.0806 -0.9453
  173SLPC   C3619587   6.057   2.814   5.236 -0.2986  0.1248 -0.3459
  173SLPC   H6X19588   6.065   2.846   5.342  0.9949 -0.3650 -0.2750
  173SLPC   H6Y19589   5.977   2.868   5.183 -0.9094 -1.9244 -1.6459
  173SLPC   C3719590   6.190   2.848   5.168 -0.5657 -0.5568 -0.0479
  173SLPC   H7X19591   6.272   2.812   5.234  1.0624 -0.1422 -1.7564
  173SLPC   H7Y19592   6.208   2.957   5.163  0.0785 -0.5494  1.6517
  173SLPC   C3819593   6.214   2.786   5.031  0.3864 -0.3044 -0.2533
  173SLPC   H8X19594   6.212   2.676   5.043  1.4001 -0.1955  1.1878
  173SLPC   H8Y19595   6.315   2.814   4.996 -0.3581 -0.6132 -2.8969
  173SLPC   C3919596   6.102   2.829   4.929  0.3240  0.2873  0.1166
  173SLPC   H9X19597   6.005   2.791   4.967  0.8988 -0.9907  0.3731
  173SLPC   H9Y19598   6.124   2.772   4.836 -1.3399 -1.4123  0.7180
  173SLPC  C31019599   6.087   2.980   4.914  0.2547  0.1193 -0.3258
  173SLPC  H10X19600   6.065   3.030   5.011  0.9214 -1.2892  0.5908
  173SLPC  H10Y19601   5.995   3.007   4.859  1.9213 -0.0412 -3.4092
  173SLPC  C31119602   6.207   3.042   4.845  0.0913 -0.8191 -0.1035
  173SLPC  H11X19603   6.213   3.003   4.741 -0.0688 -0.3722 -0.2840
  173SLPC  H11Y19604   6.305   3.009   4.886  0.3137 -0.6027 -0.4459
  173SLPC  C31219605   6.204   3.196   4.846 -0.0352 -0.0993  0.0713
  173SLPC  H12X19606   6.303   3.235   4.813 -0.2747  0.7900  0.3979
  173SLPC  H12Y19607   6.187   3.230   4.950  0.2402  2.8168 -0.7445
  173SLPC  C31319608   6.091   3.256   4.756  0.2101  0.6713  0.4044
  173SLPC  H13X19609   5.994   3.229   4.802  1.2147 -2.1314  1.0595
  173SLPC  H13Y19610   6.104   3.218   4.652 -0.8457 -0.3245  0.6149
  173SLPC  C31419611   6.095   3.407   4.740  0.5142 -0.0188 -0.1157
  173SLPC  H14X19612   6.080   3.449   4.842 -0.1232 -0.5602  0.0249
  173SLPC  H14Y19613   6.012   3.455   4.683 -0.0049 -0.3410  0.3537
  173SLPC  C31519614   6.228   3.467   4.693  0.4077 -0.0038 -0.0922
  173SLPC  H15X19615   6.302   3.443   4.772  0.3078 -1.0170 -0.2949
  173SLPC  H15Y19616   6.213   3.577   4.685  0.4232  0.0729  0.8712
  173SLPC  C31619617   6.276   3.426   4.555 -0.0490 -0.6060  0.4108
  173SLPC  H16X19618   6.201   3.467   4.483 -0.1830  2.4710  2.1337
  173SLPC  H16Y19619   6.275   3.315   4.551 -2.2882 -0.7626  2.9467
  173SLPC  C31719620   6.411   3.485   4.529  0.6707 -1.1556 -0.5910
  173SLPC  H17X19621   6.484   3.435   4.597 -0.3285  0.0478  1.4771
  173SLPC  H17Y19622   6.398   3.592   4.556 -0.5814 -1.5568  0.5389
  173SLPC  C31819623   6.453   3.463   4.387 -0.6458  1.0979 -0.0794
  173SLPC  H18X19624   6.445   3.354   4.369  4.5526  0.3084  0.8863
  173SLPC  H18Y19625   6.556   3.501   4.367 -0.3288 -0.2769 -1.2378
  173SLPC  H18Z19626   6.389   3.517   4.314  0.6120  1.3146 -1.0568
  174SLPC     N19627   2.089   1.418   6.283  0.0216  0.1578  0.3979
  174SLPC   C1319628   2.130   1.300   6.200  0.4390 -0.1216 -0.5635
  174SLPC  H13A19629   2.094   1.302   6.098 -0.5313  1.2434 -0.2152
  174SLPC  H13B19630   2.238   1.298   6.191  0.4595  0.1559 -0.3846
  174SLPC  H13C19631   2.102   1.208   6.249  1.8564 -0.3231 -0.0804
  174SLPC   C1419632   2.178   1.528   6.237  0.4208 -0.1135  0.4218
  174SLPC  H14A19633   2.150   1.616   6.293 -3.2554 -1.1909  0.5382
  174SLPC  H14B19634   2.280   1.507   6.267  1.1522  4.1470  1.7171
  174SLPC  H14C19635   2.175   1.542   6.130  0.2887  0.7011  0.5232
  174SLPC   C1519636   2.125   1.387   6.422 -0.2403  0.5414  0.1498
  174SLPC  H15A19637   2.231   1.379   6.438 -0.3240 -0.5303  0.2157
  174SLPC  H15B19638   2.097   1.474   6.481 -1.4016  1.4331 -1.6364
  174SLPC  H15C19639   2.088   1.295   6.464 -0.3424  0.0019 -1.0867
  174SLPC   C1219640   1.936   1.454   6.269 -0.2388  0.0585 -0.0742
  174SLPC  H12A19641   1.888   1.358   6.277 -0.0036  0.0365  1.3063
  174SLPC  H12B19642   1.910   1.495   6.172 -1.5147 -0.2338  0.1176
  174SLPC   C1119643   1.872   1.558   6.369 -0.3660 -0.0591 -0.2235
  174SLPC  H11A19644   1.876   1.510   6.470 -1.2604 -0.5939 -0.4329
  174SLPC  H11B19645   1.764   1.578   6.355 -0.4679 -0.6462 -0.3166
  174SLPC     P19646   1.904   1.806   6.280 -0.3897  0.4569  0.0041
  174SLPC   O1319647   1.788   1.876   6.340 -0.3318  0.4279  0.3484
  174SLPC   O1419648   2.018   1.898   6.247  0.1641 -0.1652  0.2214
  174SLPC   O1219649   1.952   1.682   6.363 -0.9431  0.5772 -0.4204
  174SLPC   O1119650   1.844   1.733   6.154  0.3694 -0.1486 -0.0036
  174SLPC    C119651   1.900   1.755   6.023  0.8469  0.1191 -0.5229
  174SLPC    HA19652   2.007   1.723   6.019  0.8274 -0.0681  0.2717
  174SLPC    HB19653   1.857   1.678   5.956 -1.5181  0.2507  0.7397
  174SLPC    C219654   1.859   1.898   5.964  0.0743  0.3586  0.3627
  174SLPC    HS19655   1.873   1.966   6.051 -2.7522 -1.3415  2.3448
  174SLPC   O2119656   1.717   1.889   5.934  0.0128  1.0029 -0.3229
  174SLPC   C2119657   1.662   2.011   5.907  0.3533  1.1308  0.2962
  174SLPC   O2219658   1.720   2.116   5.925  0.5522  0.0109  0.1557
  174SLPC   C2219659   1.536   1.984   5.828  0.0180 -1.0082 -0.0991
  174SLPC   H2R19660   1.485   1.896   5.873 -0.3895 -1.4348 -1.3418
  174SLPC   H2S19661   1.474   2.075   5.832  0.4713 -0.7231  0.8417
  174SLPC    C319662   1.957   1.950   5.849 -0.1915 -0.2888 -0.1742
  174SLPC    HX19663   2.065   1.955   5.876  0.0211  0.7398 -1.1464
  174SLPC    HY19664   1.925   2.056   5.839 -3.1737 -1.1013  0.0099
  174SLPC   O3119665   1.936   1.880   5.720  0.2019  0.1475  0.0626
  174SLPC   C3119666   1.995   1.765   5.701  0.1383 -0.1003  0.2660
  174SLPC   O3219667   2.070   1.711   5.777 -0.3035 -0.0767 -0.6350
  174SLPC   C3219668   1.944   1.704   5.566 -0.0513 -0.6147 -0.1795
  174SLPC   H2X19669   1.961   1.780   5.486  2.0616  2.1761  2.6772
  174SLPC   H2Y19670   1.836   1.692   5.588  0.3283 -0.6859  1.8433
  174SLPC   C2319671   1.566   1.946   5.677  0.4309  0.4996 -0.5357
  174SLPC   H3R19672   1.478   1.897   5.629 -0.3046  0.4366  0.8087
  174SLPC   H3S19673   1.646   1.870   5.672  0.8957  0.9331  0.0985
  174SLPC   C2419674   1.610   2.068   5.597  0.4346  0.0090 -0.0697
  174SLPC   H4R19675   1.670   2.124   5.671 -2.7371 -0.4421  3.0952
  174SLPC   H4S19676   1.523   2.133   5.573  0.2662 -0.5392 -1.0462
  174SLPC   C2519677   1.696   2.041   5.478 -0.1432  0.0738 -0.0387
  174SLPC   H5R19678   1.769   1.960   5.502  1.0421  1.0051 -0.3605
  174SLPC   H5S19679   1.754   2.135   5.463  1.1451 -0.9472 -1.9082
  174SLPC   C2619680   1.613   2.000   5.355  0.3173 -0.2396  0.1622
  174SLPC   H6R19681   1.561   2.096   5.334  0.9769  0.5461  1.9689
  174SLPC   H6S19682   1.533   1.925   5.377  1.4421 -2.2030 -1.9543
  174SLPC   C2719683   1.694   1.959   5.229 -0.4165  0.7876  0.4049
  174SLPC   H7R19684   1.631   1.942   5.139 -0.0290 -0.1424  0.2951
  174SLPC   H7S19685   1.736   1.860   5.259 -0.2885  1.2419  1.7793
  174SLPC   C2819686   1.798   2.060   5.180 -0.2678  0.3642 -0.1961
  174SLPC   H8R19687   1.862   2.015   5.102 -0.4887  1.6718 -1.1755
  174SLPC   H8S19688   1.860   2.084   5.269 -1.4659 -0.4381  0.8890
  174SLPC   C2919689   1.734   2.188   5.128  0.2215 -0.5929  0.5501
  174SLPC   H9R19690   1.692   2.250   5.208 -3.0136 -0.3002 -1.2234
  174SLPC  C21019691   1.725   2.233   4.998 -0.2522  0.1734  0.1403
  174SLPC  H10R19692   1.679   2.326   4.964 -2.5396 -0.7227  0.5941
  174SLPC  C21119693   1.785   2.168   4.867  0.7543 -0.4411  1.2459
  174SLPC  H11R19694   1.704   2.176   4.792  0.8167  0.0181  1.2238
  174SLPC  H11S19695   1.797   2.057   4.865 -1.3609 -0.7292 -1.7912
  174SLPC  C21219696   1.908   2.220   4.812 -0.4631 -0.3922  0.6404
  174SLPC  H12R19697   1.975   2.255   4.891 -0.8814 -1.4483  1.4935
  174SLPC  C21319698   1.942   2.232   4.685 -0.5958  0.2034 -0.2878
  174SLPC  H13R19699   2.037   2.279   4.654 -0.1210 -0.3336  0.3221
  174SLPC  C21419700   1.861   2.186   4.569  0.1667 -0.3242  0.3565
  174SLPC  H14R19701   1.783   2.261   4.544 -0.0381 -0.5892  0.1929
  174SLPC  H14S19702   1.798   2.097   4.594  0.3534 -1.1459 -1.9178
  174SLPC  C21519703   1.942   2.151   4.440  0.4990  0.1831  0.2086
  174SLPC  H15R19704   1.865   2.115   4.369  1.3991  0.5596 -0.9761
  174SLPC  H15S19705   2.004   2.062   4.464 -1.0487 -1.5584 -1.8647
  174SLPC  C21619706   2.032   2.258   4.380  0.0895 -0.3801  0.1522
  174SLPC  H16R19707   2.128   2.267   4.435  0.1466  0.6084 -0.0967
  174SLPC  H16S19708   1.982   2.356   4.362 -2.0896 -1.1708  1.4766
  174SLPC  C21719709   2.077   2.219   4.233  0.3968 -0.1550 -0.2458
  174SLPC  H17R19710   1.984   2.188   4.181 -0.8688 -1.6287  2.6436
  174SLPC  H17S19711   2.133   2.123   4.230  0.5130 -0.1203  0.6310
  174SLPC  C21819712   2.145   2.324   4.144  0.0318 -0.6479  0.1747
  174SLPC  H18R19713   2.159   2.266   4.051 -0.0595 -0.2742 -0.0754
  174SLPC  H18S19714   2.244   2.356   4.185 -0.1970 -0.9155  0.9470
  174SLPC  H18T19715   2.078   2.410   4.122 -0.6667 -1.1705  0.2539
  174SLPC   C3319716   2.020   1.577   5.525 -0.3544 -0.0465  0.0478
  174SLPC   H3X19717   2.010   1.505   5.609  0.9647  1.1154  1.2625
  174SLPC   H3Y19718   2.128   1.588   5.502  0.1177 -3.9520 -0.3083
  174SLPC   C3419719   1.958   1.528   5.393 -0.2354 -0.2004 -0.4920
  174SLPC   H4X19720   1.959   1.616   5.326 -0.6371  0.5349  0.4460
  174SLPC   H4Y19721   1.849   1.509   5.406 -0.1970  0.2652  0.6068
  174SLPC   C3519722   2.023   1.404   5.334 -0.0579  0.0812 -0.0325
  174SLPC   H5X19723   2.032   1.320   5.406  0.8640 -1.8953 -2.3245
  174SLPC   H5Y19724   2.127   1.429   5.302 -1.1093  2.5951 -1.8550
  174SLPC   C3619725   1.950   1.335   5.215  0.4767 -0.3253 -0.0374
  174SLPC   H6X19726   1.845   1.364   5.237  0.9280  1.5906 -0.2081
  174SLPC   H6Y19727   1.955   1.225   5.231  0.5456 -0.0806  1.9088
  174SLPC   C3719728   1.993   1.382   5.075 -0.0702 -0.3527  0.0384
  174SLPC   H7X19729   2.100   1.410   5.088 -0.0045 -0.5687 -0.0359
  174SLPC   H7Y19730   1.939   1.474   5.045 -1.9293 -1.9212 -1.7082
  174SLPC   C3819731   1.972   1.288   4.958 -0.0608  0.0470  0.7735
  174SLPC   H8X19732   2.018   1.189   4.978 -0.4907  0.0956  2.1151
  174SLPC   H8Y19733   2.027   1.318   4.866 -2.0182 -0.8175 -0.7769
  174SLPC   C3919734   1.832   1.256   4.897  0.1582 -0.4051  0.0843
  174SLPC   H9X19735   1.773   1.344   4.864  0.8079  0.2429  0.5973
  174SLPC   H9Y19736   1.771   1.203   4.973  1.2642 -1.3965  0.3083
  174SLPC  C31019737   1.851   1.158   4.786 -0.2147  0.1748 -0.8999
  174SLPC  H10X19738   1.763   1.090   4.776 -0.0450 -0.2024 -0.0031
  174SLPC  H10Y19739   1.941   1.094   4.792  0.2866  1.0143  2.7514
  174SLPC  C31119740   1.855   1.219   4.647 -0.5103  0.2077  0.5192
  174SLPC  H11X19741   1.944   1.284   4.660 -0.4675  0.4461 -0.7890
  174SLPC  H11Y19742   1.776   1.292   4.620  1.4588  2.0217 -0.7273
  174SLPC  C31219743   1.886   1.114   4.538  0.5919 -0.6241 -0.1716
  174SLPC  H12X19744   1.795   1.051   4.531 -0.2300  0.3000  1.6536
  174SLPC  H12Y19745   1.969   1.049   4.573  0.8355 -0.3921 -0.3115
  174SLPC  C31319746   1.919   1.182   4.406 -0.7278 -0.8581  0.3331
  174SLPC  H13X19747   1.995   1.261   4.423 -1.6817 -0.2477  1.8772
  174SLPC  H13Y19748   1.826   1.238   4.384 -0.3572 -0.1997  0.4091
  174SLPC  C31419749   1.954   1.080   4.298 -0.7438 -0.0569  0.1393
  174SLPC  H14X19750   1.884   0.994   4.300 -0.8607 -0.0111 -1.0879
  174SLPC  H14Y19751   2.051   1.033   4.327 -1.4347 -1.1755  0.7220
  174SLPC  C31519752   1.974   1.134   4.158  0.5757  0.0888 -0.4942
  174SLPC  H15X19753   2.041   1.219   4.181  0.6425 -0.2559  0.6512
  174SLPC  H15Y19754   1.879   1.182   4.127  0.4767  0.0558 -0.2510
  174SLPC  C31619755   2.025   1.036   4.057 -1.1302 -0.0373 -0.3990
  174SLPC  H16X19756   1.959   0.953   4.025 -0.6397 -0.9993  1.0101
  174SLPC  H16Y19757   2.115   0.987   4.100  0.6621  1.9398 -1.6719
  174SLPC  C31719758   2.073   1.093   3.919 -0.2687 -0.4985  0.8221
  174SLPC  H17X19759   2.177   1.131   3.931 -0.4208  0.4202 -0.5198
  174SLPC  H17Y19760   2.015   1.182   3.885  0.2155 -1.1055 -1.8177
  174SLPC  C31819761   2.078   0.984   3.803  0.7136 -0.0697 -0.0203
  174SLPC  H18X19762   1.979   0.935   3.789 -0.5928  1.5897  2.7617
  174SLPC  H18Y19763   2.155   0.909   3.830  1.4476  1.1118  1.2299
  174SLPC  H18Z19764   2.101   1.034   3.707 -0.1257 -0.4756 -0.4511
  175SLPC     N19765   6.241   3.737   5.668 -0.8937  1.1349  0.0778
  175SLPC   C1319766   6.326   3.693   5.784  0.3994 -0.1338  0.1609
  175SLPC  H13A19767   6.409   3.761   5.796 -0.5439  1.4051 -1.4486
  175SLPC  H13B19768   6.271   3.703   5.876  0.0340 -0.2110 -0.0486
  175SLPC  H13C19769   6.356   3.589   5.779  1.4647  0.1828 -0.4519
  175SLPC   C1419770   6.111   3.668   5.683  0.5140 -0.6004  0.2575
  175SLPC  H14A19771   6.107   3.562   5.666  0.4341 -0.6161  0.3762
  175SLPC  H14B19772   6.049   3.686   5.769  0.0062  1.1819 -0.4349
  175SLPC  H14C19773   6.044   3.701   5.604 -0.4940 -1.4071  0.7565
  175SLPC   C1519774   6.309   3.698   5.541 -0.2410 -0.0955  0.3483
  175SLPC  H15A19775   6.322   3.593   5.521  0.1023 -0.0130  0.1379
  175SLPC  H15B19776   6.253   3.734   5.456 -0.4793 -0.8365  0.1832
  175SLPC  H15C19777   6.408   3.739   5.530  0.0003 -0.9613 -0.9431
  175SLPC   C1219778   6.224   3.886   5.683  0.6407 -1.0310 -0.3720
  175SLPC  H12A19779   6.196   3.916   5.783 -0.8190  2.3073 -1.6385
  175SLPC  H12B19780   6.142   3.916   5.619  0.7132  0.7070  0.3054
  175SLPC   C1119781   6.338   3.983   5.639  0.0216 -0.1326  0.2525
  175SLPC  H11A19782   6.290   4.084   5.646  1.3764  0.5202  0.4100
  175SLPC  H11B19783   6.375   3.968   5.535 -2.3492 -2.6233 -0.3570
  175SLPC     P19784   6.474   4.084   5.837  0.2079 -0.0839 -0.5402
  175SLPC   O1319785   6.376   4.072   5.949 -0.4487 -0.5363 -0.3011
  175SLPC   O1419786   6.617   4.072   5.878 -0.0205 -0.1318  0.1422
  175SLPC   O1219787   6.450   3.978   5.721  0.3030 -0.0395  0.3860
  175SLPC   O1119788   6.459   4.215   5.769 -0.4181 -0.7685 -0.2180
  175SLPC    C119789   6.545   4.257   5.661  0.1540 -0.7264 -0.2745
  175SLPC    HA19790   6.651   4.275   5.691  1.2526 -5.0470 -0.9761
  175SLPC    HB19791   6.542   4.171   5.591 -0.0887 -0.4457 -0.6128
  175SLPC    C219792   6.474   4.376   5.600 -0.2010 -0.0923  0.2000
  175SLPC    HS19793   6.429   4.429   5.686 -1.3514 -0.5189 -0.1149
  175SLPC   O2119794   6.360   4.322   5.527 -0.0870  0.3980  0.6765
  175SLPC   C2119795   6.277   4.418   5.479 -0.1594  0.3057 -0.2200
  175SLPC   O2219796   6.276   4.536   5.508  0.1638  0.1359  0.6719
  175SLPC   C2219797   6.185   4.350   5.378 -0.5577 -0.2944  0.1704
  175SLPC   H2R19798   6.199   4.240   5.372  1.6660 -0.0704  0.3466
  175SLPC   H2S19799   6.083   4.372   5.415 -0.5133 -0.9018  0.6565
  175SLPC    C319800   6.558   4.474   5.519  0.2600 -0.0579 -0.1162
  175SLPC    HX19801   6.639   4.500   5.591  0.8328 -1.7528 -0.0853
  175SLPC    HY19802   6.496   4.563   5.499 -0.2467 -0.8268 -2.1681
  175SLPC   O3119803   6.606   4.420   5.397 -0.0614  0.4722  0.1304
  175SLPC   C3119804   6.740   4.405   5.376 -0.2251  0.1588 -0.4534
  175SLPC   O3219805   6.828   4.448   5.447 -0.4044 -0.1057  0.2943
  175SLPC   C3219806   6.763   4.340   5.241  0.0522 -0.0228 -0.4995
  175SLPC   H2X19807   6.719   4.238   5.236 -0.8954  0.3756 -0.4875
  175SLPC   H2Y19808   6.871   4.317   5.236  0.3044  0.2431  2.2706
  175SLPC   C2319809   6.196   4.410   5.237 -0.4256  0.2587 -0.1138
  175SLPC   H3R19810   6.188   4.521   5.241  0.3581  0.2880  3.2580
  175SLPC   H3S19811   6.123   4.374   5.161  1.0239  1.2621 -2.0972
  175SLPC   C2419812   6.334   4.374   5.171  0.7901  0.1994 -0.5995
  175SLPC   H4R19813   6.418   4.428   5.219  0.4044  0.5154 -0.2757
  175SLPC   H4S19814   6.325   4.413   5.067 -1.1448 -1.3491 -1.0783
  175SLPC   C2519815   6.366   4.226   5.142  0.8614  0.3813  0.4291
  175SLPC   H5R19816   6.387   4.177   5.240  0.9882  1.7242  1.0886
  175SLPC   H5S19817   6.468   4.219   5.098  0.5635 -0.1817 -0.1876
  175SLPC   C2619818   6.261   4.146   5.063  0.1842  0.7090  0.7218
  175SLPC   H6R19819   6.165   4.154   5.118 -0.3412 -1.4861  0.2206
  175SLPC   H6S19820   6.277   4.036   5.071 -0.0368  0.7822  2.4777
  175SLPC   C2719821   6.234   4.197   4.921  0.2017 -0.1363  0.5093
  175SLPC   H7R19822   6.321   4.181   4.853  0.4322 -0.8087  0.9560
  175SLPC   H7S19823   6.219   4.307   4.932  0.3941 -0.1505  0.9261
  175SLPC   C2819824   6.115   4.134   4.849  0.3917  0.1311  0.7076
  175SLPC   H8R19825   6.092   4.180   4.751 -0.7357 -3.6804 -0.9955
  175SLPC   H8S19826   6.023   4.164   4.903  0.0703 -0.2094  0.3467
  175SLPC   C2919827   6.129   3.983   4.827 -0.0036 -0.3420 -0.1822
  175SLPC   H9R19828   6.123   3.931   4.924  2.9801 -0.5568 -0.0210
  175SLPC  C21019829   6.159   3.914   4.712 -0.3196 -0.6285 -1.1740
  175SLPC  H10R19830   6.174   3.806   4.701  2.4725 -0.3020 -1.3701
  175SLPC  C21119831   6.197   3.990   4.589  0.8799  0.1253 -0.4147
  175SLPC  H11R19832   6.147   4.088   4.575  1.5157  1.0108  2.6753
  175SLPC  H11S19833   6.156   3.923   4.511 -0.2034 -0.4079  0.5718
  175SLPC  C21219834   6.340   4.016   4.573  0.4264  0.3622  0.5986
  175SLPC  H12R19835   6.395   3.923   4.594  0.6154  0.2531 -0.3290
  175SLPC  C21319836   6.406   4.120   4.524  0.5758  0.1955 -0.0838
  175SLPC  H13R19837   6.515   4.112   4.510  0.4435 -1.4892 -0.2709
  175SLPC  C21419838   6.340   4.248   4.475  0.5238  0.2310  0.5675
  175SLPC  H14R19839   6.235   4.258   4.508  0.1821  3.9092 -1.2204
  175SLPC  H14S19840   6.356   4.261   4.366  0.8549  0.4459  0.6394
  175SLPC  C21519841   6.422   4.362   4.536  0.4741  0.1237 -0.3516
  175SLPC  H15R19842   6.532   4.348   4.524  0.9879  0.3388  3.1177
  175SLPC  H15S19843   6.402   4.354   4.645 -2.1040 -1.4821 -0.8599
  175SLPC  C21619844   6.389   4.507   4.489  1.0875  0.9345 -0.0021
  175SLPC  H16R19845   6.470   4.578   4.517 -2.1570  4.8057  0.5073
  175SLPC  H16S19846   6.302   4.538   4.550  1.2759 -1.1159  1.4222
  175SLPC  C21719847   6.361   4.523   4.342  0.6059  0.6959  0.3254
  175SLPC  H17R19848   6.261   4.476   4.327  0.3528  1.4907 -0.5655
  175SLPC  H17S19849   6.438   4.470   4.281 -1.0452 -1.4228 -0.0326
  175SLPC  C21819850   6.355   4.667   4.299  0.1988 -0.0223  0.0529
  175SLPC  H18R19851   6.450   4.719   4.323 -0.8222  1.2229  1.6417
  175SLPC  H18S19852   6.265   4.707   4.350 -0.9855 -1.2823 -0.9881
  175SLPC  H18T19853   6.353   4.684   4.189  0.7148 -0.4366 -0.0238
  175SLPC   C3319854   6.735   4.436   5.124 -0.3438 -0.0027  0.2448
  175SLPC   H3X19855   6.769   4.541   5.141 -0.1166 -0.2105  1.1813
  175SLPC   H3Y19856   6.627   4.438   5.099  0.2708  2.7201 -2.7591
  175SLPC   C3419857   6.819   4.388   5.002  0.1559  0.0450  0.0186
  175SLPC   H4X19858   6.795   4.283   4.976 -1.7405  0.3664  0.3156
  175SLPC   H4Y19859   6.925   4.403   5.033  0.3112 -0.6937 -0.1319
  175SLPC   C3519860   6.779   4.481   4.888  0.4173 -0.4515 -0.0124
  175SLPC   H5X19861   6.795   4.589   4.905 -2.3592  0.0847 -0.4069
  175SLPC   H5Y19862   6.668   4.473   4.880  0.2375  2.2408 -1.1163
  175SLPC   C3619863   6.842   4.444   4.755  0.2743 -0.1742  0.4632
  175SLPC   H6X19864   6.841   4.335   4.734 -1.3689  0.1528 -1.5099
  175SLPC   H6Y19865   6.950   4.469   4.759 -0.5605  4.4200  0.0492
  175SLPC   C3719866   6.772   4.506   4.630  0.6626 -0.2578 -0.6907
  175SLPC   H7X19867   6.781   4.616   4.643 -1.1248 -0.1612  0.1098
  175SLPC   H7Y19868   6.663   4.486   4.643  1.0229 -1.1801  1.2491
  175SLPC   C3819869   6.841   4.467   4.498  0.6091 -0.2924  0.1071
  175SLPC   H8X19870   6.825   4.358   4.478 -0.4043  0.2925 -2.8540
  175SLPC   H8Y19871   6.945   4.505   4.496  0.4328  0.2097 -1.8951
  175SLPC   C3919872   6.787   4.539   4.374  0.1737 -0.5634 -0.3893
  175SLPC   H9X19873   6.809   4.645   4.398  0.0334 -0.5418 -0.3585
  175SLPC   H9Y19874   6.676   4.537   4.372  0.1310  0.9727 -0.6978
  175SLPC  C31019875   6.858   4.504   4.241 -0.5331 -0.3912 -0.1067
  175SLPC  H10X19876   6.965   4.529   4.254 -0.7125  0.2290  0.2368
  175SLPC  H10Y19877   6.820   4.576   4.165 -1.5445 -0.6297  0.1530
  175SLPC  C31119878   6.831   4.363   4.194 -0.0394 -0.3470  0.5168
  175SLPC  H11X19879   6.868   4.292   4.272  1.5015  0.6050  0.6845
  175SLPC  H11Y19880   6.876   4.357   4.093  2.3417  1.9239  1.3325
  175SLPC  C31219881   6.681   4.343   4.179 -0.4299 -0.2134 -0.0547
  175SLPC  H12X19882   6.646   4.396   4.088  1.2732  1.1117  0.0315
  175SLPC  H12Y19883   6.628   4.387   4.266 -0.2938  0.0865 -0.1220
  175SLPC  C31319884   6.632   4.189   4.164  1.2762 -0.8454  0.2224
  175SLPC  H13X19885   6.611   4.149   4.265 -0.9108  1.4877  0.7832
  175SLPC  H13Y19886   6.699   4.127   4.100 -0.1909 -3.6194  1.2093
  175SLPC  C31419887   6.489   4.182   4.110  0.0042  0.1813 -0.0438
  175SLPC  H14X19888   6.497   4.211   4.003  1.1660  2.1692  0.5305
  175SLPC  H14Y19889   6.420   4.258   4.153  0.2168  0.6853 -0.5904
  175SLPC  C31519890   6.421   4.044   4.117  0.2555 -0.1529 -0.8140
  175SLPC  H15X19891   6.407   4.015   4.224  0.7763 -1.5167 -1.0900
  175SLPC  H15Y19892   6.482   3.968   4.064 -1.7832 -1.8490 -0.8983
  175SLPC  C31619893   6.293   4.047   4.032  0.1837 -0.3043 -0.0592
  175SLPC  H16X19894   6.321   4.084   3.931 -0.4413  0.2512 -0.0354
  175SLPC  H16Y19895   6.213   4.102   4.085  0.5486 -0.3406  0.5439
  175SLPC  C31719896   6.240   3.907   4.003 -0.9658 -0.4393 -0.0717
  175SLPC  H17X19897   6.322   3.852   3.953  0.1563  0.6746  0.4676
  175SLPC  H17Y19898   6.157   3.912   3.930 -2.0818  0.2252  1.1852
  175SLPC  C31819899   6.182   3.817   4.116  0.2754 -0.3330 -0.3324
  175SLPC  H18X19900   6.083   3.851   4.154  0.3614  0.4151 -0.7737
  175SLPC  H18Y19901   6.247   3.812   4.206  0.0251  1.5572  0.0007
  175SLPC  H18Z19902   6.177   3.711   4.084 -0.2896 -0.7778  1.1011
  176SLPC     N19903   5.403   0.898   6.570  0.0844 -1.0010 -0.5100
  176SLPC   C1319904   5.251   0.917   6.590  0.0211 -0.4758  0.2122
  176SLPC  H13A19905   5.223   1.018   6.616  0.7170 -0.5497  1.3462
  176SLPC  H13B19906   5.196   0.895   6.500  0.3519  1.3134 -0.4557
  176SLPC  H13C19907   5.218   0.860   6.676 -2.2422  0.5879  0.1110
  176SLPC   C1419908   5.424   0.750   6.591 -0.0821 -0.2726 -0.1013
  176SLPC  H14A19909   5.395   0.694   6.503 -0.8120 -2.8668  1.6603
  176SLPC  H14B19910   5.525   0.721   6.616  0.1840 -2.1958 -2.8800
  176SLPC  H14C19911   5.353   0.720   6.666 -1.1486 -0.3804 -1.1239
  176SLPC   C1519912   5.472   0.967   6.685 -1.3131 -0.1048  0.2619
  176SLPC  H15A19913   5.450   0.928   6.783 -0.1636  1.0053  0.9758
  176SLPC  H15B19914   5.578   0.960   6.668 -1.4157 -1.0364 -0.0737
  176SLPC  H15C19915   5.451   1.073   6.683  1.2811  0.5336 -3.1284
  176SLPC   C1219916   5.451   0.954   6.436 -0.3748  0.1688  0.5434
  176SLPC  H12A19917   5.551   0.916   6.420 -0.8317 -0.6901 -0.3714
  176SLPC  H12B19918   5.461   1.061   6.444  0.0943  0.0132  2.7446
  176SLPC   C1119919   5.374   0.921   6.307 -0.0240  0.3398 -0.0179
  176SLPC  H11A19920   5.440   0.961   6.228  0.0820 -0.2714 -0.2411
  176SLPC  H11B19921   5.284   0.987   6.307 -0.3758 -0.1322 -0.7174
  176SLPC     P19922   5.212   0.727   6.261 -0.6080  0.5212 -0.4175
  176SLPC   O1319923   5.218   0.576   6.253 -0.2284  0.3959 -0.3926
  176SLPC   O1419924   5.117   0.787   6.359  0.3206  0.0879  0.0388
  176SLPC   O1219925   5.365   0.779   6.289  0.2008 -0.6974 -0.5850
  176SLPC   O1119926   5.200   0.788   6.117  0.6065 -0.3387 -0.4996
  176SLPC    C119927   5.271   0.727   6.009  0.3583 -0.2957  1.0019
  176SLPC    HA19928   5.316   0.630   6.039 -1.1141 -1.2447  0.2406
  176SLPC    HB19929   5.209   0.702   5.921  1.6669 -1.5224  0.3841
  176SLPC    C219930   5.407   0.803   5.960 -0.2971  0.0944  0.3516
  176SLPC    HS19931   5.471   0.829   6.047 -0.0305 -0.1949  0.2439
  176SLPC   O2119932   5.361   0.918   5.884 -0.2649 -0.2120 -0.7456
  176SLPC   C2119933   5.425   1.033   5.915 -0.3757 -0.9874  0.3537
  176SLPC   O2219934   5.519   1.048   5.992 -0.1780 -0.0190 -0.3037
  176SLPC   C2219935   5.380   1.145   5.831 -0.1994  0.2495  0.3779
  176SLPC   H2R19936   5.301   1.105   5.764  2.9688 -1.9830 -2.3955
  176SLPC   H2S19937   5.343   1.211   5.912 -1.1430  1.1946 -0.7865
  176SLPC    C319938   5.497   0.710   5.873 -0.7279 -0.3919 -0.0950
  176SLPC    HX19939   5.545   0.640   5.945 -0.9042  1.7281  2.2057
  176SLPC    HY19940   5.574   0.773   5.824  0.1186 -0.7804  0.6987
  176SLPC   O3119941   5.416   0.654   5.776  0.1112 -0.2949 -0.2606
  176SLPC   C3119942   5.468   0.558   5.704  0.0549  0.3321  0.0679
  176SLPC   O3219943   5.585   0.525   5.709  0.4008  0.3373  0.2425
  176SLPC   C3219944   5.368   0.493   5.607 -0.3276 -0.2805 -0.1584
  176SLPC   H2X19945   5.267   0.499   5.651  0.2606 -0.7979  1.3255
  176SLPC   H2Y19946   5.389   0.384   5.598  0.9504  0.0645 -1.9442
  176SLPC   C2319947   5.493   1.219   5.764  0.8086 -0.1197  1.0190
  176SLPC   H3R19948   5.597   1.197   5.797  1.6750  2.3801  0.1472
  176SLPC   H3S19949   5.490   1.328   5.782  1.7017  0.3905 -1.4412
  176SLPC   C2419950   5.482   1.208   5.609 -0.3435  0.0073 -0.0349
  176SLPC   H4R19951   5.387   1.249   5.569 -0.9470 -1.0584  0.2779
  176SLPC   H4S19952   5.490   1.100   5.584 -0.3188  0.0955 -0.4078
  176SLPC   C2519953   5.599   1.276   5.533  0.3978 -0.5454 -0.2292
  176SLPC   H5R19954   5.699   1.239   5.564  0.5797  0.4067  0.3434
  176SLPC   H5S19955   5.596   1.386   5.546 -1.1617 -0.5523 -0.2952
  176SLPC   C2619956   5.587   1.241   5.386 -0.4815 -0.0538  0.9448
  176SLPC   H6R19957   5.485   1.236   5.342  1.1110 -2.0973 -3.0215
  176SLPC   H6S19958   5.632   1.141   5.368 -2.4690 -0.7154 -0.6928
  176SLPC   C2719959   5.677   1.337   5.301 -0.2404 -0.0266 -0.4085
  176SLPC   H7R19960   5.782   1.317   5.333  0.4002 -0.6623 -2.7251
  176SLPC   H7S19961   5.659   1.445   5.322 -1.0734 -0.2618  0.1494
  176SLPC   C2819962   5.677   1.306   5.149 -0.3813 -0.3306 -0.1973
  176SLPC   H8R19963   5.702   1.198   5.142  0.8804  0.0129 -1.6097
  176SLPC   H8S19964   5.759   1.367   5.105 -0.4208 -0.1974 -0.0888
  176SLPC   C2919965   5.542   1.343   5.098  0.8698  0.0411  0.3499
  176SLPC   H9R19966   5.471   1.261   5.085  0.1733  0.9366 -2.0013
  176SLPC  C21019967   5.501   1.462   5.053  0.0659 -0.1894  0.0342
  176SLPC  H10R19968   5.397   1.477   5.019 -1.7537 -0.4700  4.6611
  176SLPC  C21119969   5.583   1.587   5.036 -0.1569 -0.7466 -0.5209
  176SLPC  H11R19970   5.657   1.586   5.119 -0.4157 -1.1199 -0.2900
  176SLPC  H11S19971   5.524   1.680   5.049  0.1839 -0.4537 -1.0411
  176SLPC  C21219972   5.653   1.592   4.902  0.2481  0.1266 -0.8283
  176SLPC  H12R19973   5.679   1.493   4.862  0.1804 -1.0880  1.9606
  176SLPC  C21319974   5.656   1.703   4.822  0.0702 -0.0318 -0.5650
  176SLPC  H13R19975   5.695   1.686   4.721  0.6371  0.0837 -0.3674
  176SLPC  C21419976   5.616   1.843   4.859  0.5959  0.4029  0.6630
  176SLPC  H14R19977   5.621   1.865   4.968 -2.3641 -1.7926  1.3994
  176SLPC  H14S19978   5.506   1.850   4.842  0.6298 -1.5794 -0.6791
  176SLPC  C21519979   5.694   1.950   4.785  0.6241 -0.3411 -0.3666
  176SLPC  H15R19980   5.709   1.920   4.679 -0.9355 -0.0367 -0.6891
  176SLPC  H15S19981   5.795   1.941   4.831  1.3718  1.0179 -1.6163
  176SLPC  C21619982   5.636   2.097   4.781  0.1046 -0.1535  0.5353
  176SLPC  H16R19983   5.614   2.127   4.885 -0.5914 -0.5384  0.5032
  176SLPC  H16S19984   5.540   2.100   4.726  0.4480 -2.0332 -0.2771
  176SLPC  C21719985   5.734   2.205   4.731  0.3955 -0.4985 -0.2199
  176SLPC  H17R19986   5.750   2.197   4.621  0.5335 -0.2262 -0.2190
  176SLPC  H17S19987   5.834   2.188   4.778 -0.2123 -0.6618  1.0343
  176SLPC  C21819988   5.684   2.346   4.757 -0.3063 -1.3911 -0.6057
  176SLPC  H18R19989   5.760   2.425   4.746 -0.9304 -0.4681  1.2664
  176SLPC  H18S19990   5.665   2.348   4.867  3.7487  0.1067  0.2537
  176SLPC  H18T19991   5.592   2.367   4.698 -0.6198 -1.8365 -0.2791
  176SLPC   C3319992   5.379   0.566   5.473  0.5429  0.0140 -0.4816
  176SLPC   H3X19993   5.306   0.524   5.400  0.7762 -0.1251 -0.6376
  176SLPC   H3Y19994   5.481   0.552   5.430  0.6994 -0.2209 -0.0465
  176SLPC   C3419995   5.339   0.718   5.476 -0.2442 -0.4664  0.5241
  176SLPC   H4X19996   5.411   0.771   5.541 -0.2575  0.0488  0.1312
  176SLPC   H4Y19997   5.232   0.728   5.505 -0.2191  2.3442 -0.0598
  176SLPC   C3519998   5.359   0.773   5.334 -0.0900  0.3160 -0.7388
  176SLPC   H5X19999   5.293   0.716   5.266  0.4410 -0.5259 -0.5520
  176SLPC   H5Y20000   5.467   0.771   5.309  0.4458  1.7120  1.1801
  176SLPC   C3620001   5.326   0.927   5.332  0.3523  0.9268 -0.9195
  176SLPC   H6X20002   5.377   0.966   5.423  0.7710 -3.2648  0.9039
  176SLPC   H6Y20003   5.217   0.939   5.354  0.5085  0.4236  0.2534
  176SLPC   C3720004   5.364   1.003   5.206  0.0028 -0.0420  0.1509
  176SLPC   H7X20005   5.474   0.998   5.191  0.1498  0.8723  0.8462
  176SLPC   H7Y20006   5.325   1.104   5.231 -2.3085 -1.0300  0.7931
  176SLPC   C3820007   5.290   0.951   5.076  0.0982 -0.0761 -0.7142
  176SLPC   H8X20008   5.185   0.939   5.110  1.3436 -1.5733  3.1094
  176SLPC   H8Y20009   5.317   0.846   5.055  2.4465  0.2975  0.1505
  176SLPC   C3920010   5.317   1.051   4.955 -0.6061 -0.0444 -0.2577
  176SLPC   H9X20011   5.329   0.981   4.869 -0.0776 -2.1528  1.4243
  176SLPC   H9Y20012   5.419   1.089   4.980 -0.4557 -1.3440  1.3081
  176SLPC  C31020013   5.221   1.170   4.948  0.7234  0.5999  0.2079
  176SLPC  H10X20014   5.229   1.228   5.042  1.0124 -0.3425  0.7737
  176SLPC  H10Y20015   5.117   1.131   4.946  1.3745 -1.2516  0.5258
  176SLPC  C31120016   5.257   1.268   4.833 -0.2928 -0.0022 -0.4643
  176SLPC  H11X20017   5.360   1.302   4.855 -0.8535  0.2926  1.9723
  176SLPC  H11Y20018   5.184   1.351   4.834 -0.9524 -0.5768 -0.2755
  176SLPC  C31220019   5.253   1.205   4.690 -0.0423 -0.3124 -0.1432
  176SLPC  H12X20020   5.150   1.173   4.663  0.4868 -0.9852 -1.4593
  176SLPC  H12Y20021   5.312   1.111   4.697  1.5934  0.6998  0.1251
  176SLPC  C31320022   5.320   1.292   4.588  0.1763  0.1131  0.1795
  176SLPC  H13X20023   5.429   1.283   4.609 -0.3927 -4.3380  2.4112
  176SLPC  H13Y20024   5.271   1.391   4.602 -1.3520 -0.1234 -2.7740
  176SLPC  C31420025   5.306   1.238   4.442 -0.1811 -0.2404  0.1608
  176SLPC  H14X20026   5.198   1.245   4.415 -0.0751  1.2203  0.0071
  176SLPC  H14Y20027   5.344   1.134   4.440 -0.1128 -0.2053 -1.2318
  176SLPC  C31520028   5.392   1.313   4.335 -0.9042  0.0526 -0.7143
  176SLPC  H15X20029   5.498   1.308   4.366 -1.3033 -0.6867  0.5996
  176SLPC  H15Y20030   5.364   1.421   4.335  0.3621  0.4032 -1.2681
  176SLPC  C31620031   5.399   1.257   4.193  0.0903 -0.2830 -0.0388
  176SLPC  H16X20032   5.302   1.249   4.140  0.9166 -0.2179 -1.6321
  176SLPC  H16Y20033   5.443   1.156   4.206  0.8650 -0.0889 -1.0610
  176SLPC  C31720034   5.495   1.330   4.098 -0.6145  0.3747 -0.2530
  176SLPC  H17X20035   5.533   1.262   4.019  0.3327  0.6901 -0.0830
  176SLPC  H17Y20036   5.587   1.367   4.149 -0.9320 -1.8857  2.2202
  176SLPC  C31820037   5.427   1.446   4.024  0.2406  0.1617  0.3065
  176SLPC  H18X20038   5.326   1.430   3.980  0.5215  0.9383 -0.6698
  176SLPC  H18Y20039   5.485   1.478   3.935  0.6254 -0.3088  0.3855
  176SLPC  H18Z20040   5.433   1.533   4.093 -1.8927  0.2790  0.4246
  177SLPC     N20041   6.849   3.267   5.945 -0.0028  0.1341 -0.0016
  177SLPC   C1320042   6.922   3.344   5.837  0.4931  0.3715 -0.2965
  177SLPC  H13A20043   6.873   3.337   5.741 -0.9853 -0.5228  0.4835
  177SLPC  H13B20044   6.917   3.449   5.863  0.9698  0.0537  1.1553
  177SLPC  H13C20045   7.024   3.309   5.833  0.0681 -0.8447 -1.2374
  177SLPC   C1420046   6.706   3.324   5.950  0.0805 -0.7864  0.2536
  177SLPC  H14A20047   6.646   3.301   5.863 -0.1123 -1.1641  0.4821
  177SLPC  H14B20048   6.653   3.291   6.038  1.1117 -2.0513  0.4273
  177SLPC  H14C20049   6.723   3.430   5.951  0.8705 -0.8821 -0.9543
  177SLPC   C1520050   6.916   3.302   6.080  0.0618  0.1932  0.2958
  177SLPC  H15A20051   7.015   3.261   6.082 -0.0900 -0.1497  1.1866
  177SLPC  H15B20052   6.923   3.410   6.075 -0.4399  0.2449  0.6348
  177SLPC  H15C20053   6.861   3.260   6.164  1.2042 -1.3961  0.2854
  177SLPC   C1220054   6.854   3.116   5.922  0.3179 -0.3704  0.0005
  177SLPC  H12A20055   6.794   3.103   5.833  1.3197  2.0681 -1.1142
  177SLPC  H12B20056   6.805   3.074   6.009 -1.1626  1.8649  0.3222
  177SLPC   C1120057   6.990   3.050   5.901 -0.5412  0.1027  0.2897
  177SLPC  H11A20058   7.033   3.110   5.817 -1.3089  0.9713  0.4882
  177SLPC  H11B20059   6.986   2.946   5.864 -1.3904 -0.1107  0.9502
  177SLPC     P20060   7.063   2.951   6.133 -0.0591  0.2389  0.3469
  177SLPC   O1320061   7.113   3.014   6.253 -0.7687 -0.2221  0.2337
  177SLPC   O1420062   6.928   2.903   6.138  0.0909 -0.1784 -0.1357
  177SLPC   O1220063   7.072   3.059   6.018 -0.3458  0.0683  0.3439
  177SLPC   O1120064   7.161   2.836   6.089 -0.4736  0.4037 -0.2058
  177SLPC    C120065   7.281   2.855   6.018  0.2779  0.1032  0.0655
  177SLPC    HA20066   7.319   2.959   6.024 -1.2808  0.6347  1.7532
  177SLPC    HB20067   7.363   2.792   6.057  0.1265  1.9808  3.9528
  177SLPC    C220068   7.269   2.815   5.869  0.4141 -0.5762 -0.1919
  177SLPC    HS20069   7.194   2.886   5.827  0.9299 -0.8689 -1.6604
  177SLPC   O2120070   7.236   2.674   5.868  0.2094  0.7680  0.3247
  177SLPC   C2120071   7.142   2.638   5.783  0.9191 -0.4757  0.2034
  177SLPC   O2220072   7.075   2.718   5.715 -0.6963  0.0417  0.7354
  177SLPC   C2220073   7.130   2.487   5.782 -1.1345  0.1342  0.2410
  177SLPC   H2R20074   7.230   2.439   5.792 -1.0919 -0.5534 -2.5916
  177SLPC   H2S20075   7.067   2.459   5.869 -1.8026 -2.5227 -1.0053
  177SLPC    C320076   7.395   2.826   5.781  0.4519  0.5114  0.2266
  177SLPC    HX20077   7.466   2.747   5.811  1.9275  1.5199 -0.4708
  177SLPC    HY20078   7.430   2.929   5.804 -0.8658  1.2098 -0.7419
  177SLPC   O3120079   7.367   2.803   5.636  0.0439  0.1787  0.6349
  177SLPC   C3120080   7.297   2.901   5.575  0.7116 -0.9188  0.1529
  177SLPC   O3220081   7.291   3.016   5.613 -0.0874  0.3522  0.0926
  177SLPC   C3220082   7.235   2.842   5.453 -0.3998  0.2794  0.5014
  177SLPC   H2X20083   7.173   2.756   5.487  0.3131 -1.3406 -2.0353
  177SLPC   H2Y20084   7.315   2.789   5.398 -1.5500  0.4633 -1.4420
  177SLPC   C2320085   7.071   2.451   5.647  0.0525 -0.0672 -0.1139
  177SLPC   H3R20086   7.144   2.478   5.568  0.2667  3.0297  1.0137
  177SLPC   H3S20087   6.979   2.505   5.616 -0.0100  0.3489  0.7767
  177SLPC   C2420088   7.031   2.305   5.636  0.0991  0.3364  0.8718
  177SLPC   H4R20089   6.943   2.316   5.703  0.9127  2.6604  1.6231
  177SLPC   H4S20090   7.106   2.238   5.683  1.0142  1.6931  1.3804
  177SLPC   C2520091   6.979   2.253   5.502  0.0136  0.7605  0.1405
  177SLPC   H5R20092   6.893   2.310   5.459 -1.5374 -0.9403  0.8518
  177SLPC   H5S20093   6.954   2.146   5.514  0.1953  0.5792 -0.9763
  177SLPC   C2620094   7.082   2.252   5.390 -0.3163 -0.2463 -0.0903
  177SLPC   H6R20095   7.132   2.154   5.404 -1.1844 -0.9046 -1.4624
  177SLPC   H6S20096   7.155   2.336   5.388  0.0455 -0.5516  0.2898
  177SLPC   C2720097   7.023   2.257   5.247  0.3795 -0.2513 -0.3938
  177SLPC   H7R20098   7.105   2.308   5.192 -0.1262  0.2505 -0.6965
  177SLPC   H7S20099   6.935   2.324   5.245  0.0308 -0.6864  0.0738
  177SLPC   C2820100   6.999   2.120   5.165  0.9819  0.2655 -0.5279
  177SLPC   H8R20101   7.087   2.052   5.171 -0.0601 -1.3070 -2.0400
  177SLPC   H8S20102   6.976   2.136   5.057 -1.5503 -1.1732 -0.2761
  177SLPC   C2920103   6.884   2.039   5.221  0.7181 -0.4316 -0.4599
  177SLPC   H9R20104   6.896   1.990   5.319 -1.0890  1.3550  0.7195
  177SLPC  C21020105   6.761   2.025   5.165  0.0613  1.0758  0.2986
  177SLPC  H10R20106   6.688   1.961   5.217 -1.6354  1.4410 -1.4955
  177SLPC  C21120107   6.707   2.075   5.029  0.7101 -0.3227  0.4261
  177SLPC  H11R20108   6.704   2.187   5.032 -2.2617 -0.3543  1.7928
  177SLPC  H11S20109   6.603   2.044   5.007  1.0224 -0.0287 -1.7088
  177SLPC  C21220110   6.777   2.030   4.903  0.1587  0.0439  0.2392
  177SLPC  H12R20111   6.791   1.921   4.908 -4.2153 -0.7126 -0.4819
  177SLPC  C21320112   6.784   2.096   4.786  0.5051 -0.1292  0.0387
  177SLPC  H13R20113   6.839   2.049   4.703  1.5261 -0.3673  0.8393
  177SLPC  C21420114   6.729   2.232   4.753  0.2593  0.0714  0.3333
  177SLPC  H14R20115   6.774   2.286   4.666 -0.6225  2.1900  1.1077
  177SLPC  H14S20116   6.755   2.295   4.841  1.0960 -0.4503  0.4681
  177SLPC  C21520117   6.578   2.215   4.719  0.0254 -0.0045 -0.5675
  177SLPC  H15R20118   6.531   2.313   4.697  0.7434  0.7784  1.1306
  177SLPC  H15S20119   6.525   2.175   4.808  0.7617 -1.5921 -0.8020
  177SLPC  C21620120   6.539   2.120   4.602  0.1671  0.1381 -0.0879
  177SLPC  H16R20121   6.598   2.026   4.611  3.0423  2.0128  3.1630
  177SLPC  H16S20122   6.576   2.171   4.510  1.3285  0.1621  0.3719
  177SLPC  C21720123   6.394   2.095   4.587 -0.3494  0.8064  0.0481
  177SLPC  H17R20124   6.340   2.190   4.565  0.9014  1.5365  0.0808
  177SLPC  H17S20125   6.355   2.071   4.689 -0.6004  0.3552 -0.1482
  177SLPC  C21820126   6.365   1.986   4.481 -0.3771  0.5324 -1.0188
  177SLPC  H18R20127   6.259   1.952   4.476  0.5590 -2.6514 -1.5229
  177SLPC  H18S20128   6.427   1.896   4.503 -1.9688 -0.3785 -0.0052
  177SLPC  H18T20129   6.399   2.015   4.380  1.2739 -3.1508 -1.6959
  177SLPC   C3320130   7.158   2.941   5.372 -0.0039 -0.3892 -1.0121
  177SLPC   H3X20131   7.231   3.013   5.329  0.5639 -0.0637  0.4173
  177SLPC   H3Y20132   7.091   2.989   5.447 -0.4113 -0.8044 -1.1092
  177SLPC   C3420133   7.074   2.873   5.266  0.6737 -0.1260  0.5658
  177SLPC   H4X20134   7.005   2.947   5.221  1.8137  2.0512  2.2009
  177SLPC   H4Y20135   7.019   2.786   5.309  0.8403 -0.6059 -0.1753
  177SLPC   C3520136   7.161   2.817   5.149  0.3867 -0.1821 -0.3446
  177SLPC   H5X20137   7.203   2.718   5.176  0.2383 -0.0359  0.4388
  177SLPC   H5Y20138   7.244   2.889   5.135 -0.3635  0.8207  0.2362
  177SLPC   C3620139   7.087   2.810   5.014  0.5468  0.3353 -0.3398
  177SLPC   H6X20140   7.072   2.915   4.980 -0.7270 -0.3395 -1.9940
  177SLPC   H6Y20141   6.998   2.746   5.031 -0.7225  1.8005 -1.1449
  177SLPC   C3720142   7.179   2.753   4.910  0.1921  0.3730  0.4501
  177SLPC   H7X20143   7.244   2.669   4.943 -1.1191 -0.9670 -0.2425
  177SLPC   H7Y20144   7.234   2.844   4.879 -2.0105  2.1094  1.3991
  177SLPC   C3820145   7.111   2.694   4.786  0.5818  1.2289  0.5579
  177SLPC   H8X20146   7.193   2.679   4.713  0.2575  1.5210  0.1291
  177SLPC   H8Y20147   7.041   2.768   4.741 -1.5102 -0.9150  0.1247
  177SLPC   C3920148   7.049   2.549   4.805  0.0250 -0.6393 -0.0647
  177SLPC   H9X20149   6.943   2.551   4.837  0.6001 -0.5778  1.9562
  177SLPC   H9Y20150   7.110   2.503   4.886 -1.6657 -1.1560  0.9457
  177SLPC  C31020151   7.052   2.476   4.671 -0.8517 -0.1380  0.6893
  177SLPC  H10X20152   7.036   2.367   4.684  1.6755 -0.5531  0.8376
  177SLPC  H10Y20153   7.151   2.481   4.621 -0.2972 -1.5241  1.5754
  177SLPC  C31120154   6.942   2.530   4.576  0.0232  0.0295  0.4807
  177SLPC  H11X20155   6.861   2.567   4.642 -1.1876 -1.3465 -0.1955
  177SLPC  H11Y20156   6.899   2.450   4.513 -3.6713  1.8899  0.3729
  177SLPC  C31220157   6.985   2.638   4.485 -0.0480  0.4141  0.6008
  177SLPC  H12X20158   7.071   2.614   4.419  0.2921 -2.3903  1.9553
  177SLPC  H12Y20159   7.026   2.724   4.543 -0.2395 -0.5129  2.1623
  177SLPC  C31320160   6.868   2.695   4.396 -0.3589  0.0966 -0.1780
  177SLPC  H13X20161   6.792   2.743   4.462 -1.1618 -0.0236 -0.9876
  177SLPC  H13Y20162   6.811   2.605   4.364  0.8503 -1.2766  1.4184
  177SLPC  C31420163   6.917   2.772   4.275 -0.3769  0.0294  0.1880
  177SLPC  H14X20164   6.937   2.693   4.198  2.0286  1.2048 -0.4958
  177SLPC  H14Y20165   7.025   2.799   4.276  0.3055 -2.2949 -0.9483
  177SLPC  C31520166   6.839   2.883   4.213  0.9743  0.4242 -0.0536
  177SLPC  H15X20167   6.895   2.920   4.125  1.0941 -0.5296 -0.3990
  177SLPC  H15Y20168   6.833   2.966   4.286  1.3547  0.2388  0.1927
  177SLPC  C31620169   6.696   2.839   4.166 -1.1064 -0.4614  0.0706
  177SLPC  H16X20170   6.652   2.771   4.242  2.0930 -2.4040  0.4133
  177SLPC  H16Y20171   6.709   2.775   4.076  0.2216 -0.9814  0.6063
  177SLPC  C31720172   6.602   2.950   4.136 -0.1250 -0.0997 -0.0813
  177SLPC  H17X20173   6.605   3.006   4.232 -1.2409  0.1338 -0.1805
  177SLPC  H17Y20174   6.505   2.902   4.111 -0.6134  1.3895 -1.1712
  177SLPC  C31820175   6.659   3.035   4.026 -0.4899 -0.2368 -0.3346
  177SLPC  H18X20176   6.584   3.094   3.969  0.5271 -0.1125 -1.6059
  177SLPC  H18Y20177   6.712   2.969   3.953  0.0690 -2.8303  2.2517
  177SLPC  H18Z20178   6.736   3.103   4.068  0.4706 -0.1856 -2.0901
  178SLPC     N20179   1.352   6.676   6.389 -0.2253  0.0143  0.1891
  178SLPC   C1320180   1.466   6.749   6.455  0.7763 -0.1238  0.4756
  178SLPC  H13A20181   1.435   6.849   6.482 -0.0729 -0.5932  1.2786
  178SLPC  H13B20182   1.499   6.702   6.546  1.4572  0.6422  0.6313
  178SLPC  H13C20183   1.551   6.738   6.389  0.2116 -2.0105  0.0009
  178SLPC   C1420184   1.222   6.706   6.461  0.0768  0.2777  0.2138
  178SLPC  H14A20185   1.146   6.652   6.406  0.0733  0.0055  0.4886
  178SLPC  H14B20186   1.221   6.692   6.568 -0.7938  2.1417  0.5016
  178SLPC  H14C20187   1.200   6.812   6.455 -0.8462  0.0802  0.0493
  178SLPC   C1520188   1.385   6.533   6.390  0.1315 -0.6221 -0.3211
  178SLPC  H15A20189   1.322   6.468   6.332  1.9466 -0.0812 -3.0801
  178SLPC  H15B20190   1.484   6.527   6.348  0.2553  1.1631 -0.3462
  178SLPC  H15C20191   1.400   6.496   6.490  0.5948 -0.4929 -0.3397
  178SLPC   C1220192   1.331   6.715   6.246  0.0493  0.2949  0.3357
  178SLPC  H12A20193   1.300   6.819   6.247  1.9357  0.8921  0.5884
  178SLPC  H12B20194   1.243   6.669   6.204  0.3656  1.9003 -2.3253
  178SLPC   C1120195   1.443   6.688   6.142 -0.0722  0.2614  0.0550
  178SLPC  H11A20196   1.387   6.713   6.049 -0.9331 -0.9208  0.2308
  178SLPC  H11B20197   1.462   6.578   6.144  2.1911  0.6065  0.4168
  178SLPC     P20198   1.580   6.919   6.141  0.4387  0.2440  0.3897
  178SLPC   O1320199   1.488   7.000   6.226 -0.8202 -0.0031  0.0431
  178SLPC   O1420200   1.727   6.945   6.158 -0.0156  0.1138  0.2905
  178SLPC   O1220201   1.566   6.760   6.160 -0.2017 -0.8119  0.3465
  178SLPC   O1120202   1.537   6.928   5.982  0.4472  0.1007 -0.6951
  178SLPC    C120203   1.587   6.846   5.883  0.0030  0.3676  0.2096
  178SLPC    HA20204   1.587   6.740   5.918 -2.2531  0.4039  0.4811
  178SLPC    HB20205   1.520   6.842   5.794  1.2757  1.7835 -0.8649
  178SLPC    C220206   1.731   6.888   5.835  0.6912 -0.5148  0.0182
  178SLPC    HS20207   1.773   6.961   5.909  0.2006 -1.0017  0.7957
  178SLPC   O2120208   1.711   6.957   5.711 -0.5979 -0.5185 -0.7218
  178SLPC   C2120209   1.804   7.045   5.680 -0.5133 -0.2853  0.8930
  178SLPC   O2220210   1.902   7.072   5.745  0.3318  0.0697 -0.1395
  178SLPC   C2220211   1.782   7.098   5.538  0.2292  0.0540 -0.0708
  178SLPC   H2R20212   1.674   7.125   5.534 -0.9918 -4.0096  1.2890
  178SLPC   H2S20213   1.852   7.184   5.524  2.1086 -1.2226  1.0380
  178SLPC    C320214   1.831   6.770   5.821  0.6303  0.5997  0.1695
  178SLPC    HX20215   1.839   6.705   5.910  2.7543 -0.8136 -0.9741
  178SLPC    HY20216   1.933   6.814   5.816  0.9726 -0.2186 -0.3112
  178SLPC   O3120217   1.789   6.690   5.709  0.0136 -0.3000  0.0669
  178SLPC   C3120218   1.866   6.586   5.669 -0.1696  0.8646 -0.5238
  178SLPC   O3220219   1.952   6.530   5.734  0.8100 -0.6646 -0.3499
  178SLPC   C3220220   1.822   6.546   5.528  0.5599 -0.1785 -0.1473
  178SLPC   H2X20221   1.714   6.520   5.531  1.0418 -2.4563 -0.5580
  178SLPC   H2Y20222   1.881   6.452   5.515 -0.2292 -0.9018  1.2397
  178SLPC   C2320223   1.810   7.001   5.415  0.0849  0.0874 -0.6348
  178SLPC   H3R20224   1.726   6.929   5.416  1.7217 -1.9354  0.7541
  178SLPC   H3S20225   1.899   6.934   5.421 -1.9182 -2.7234 -0.6343
  178SLPC   C2420226   1.823   7.070   5.277 -0.5754 -0.5300  0.2893
  178SLPC   H4R20227   1.866   6.993   5.210 -0.6571  0.1617 -0.5785
  178SLPC   H4S20228   1.898   7.152   5.281 -2.9193  1.8203 -0.4837
  178SLPC   C2520229   1.687   7.128   5.221  0.6310 -0.2410 -0.3188
  178SLPC   H5R20230   1.657   7.214   5.284  0.6351 -1.5728  1.6017
  178SLPC   H5S20231   1.611   7.046   5.224  0.4697 -0.0878 -0.1607
  178SLPC   C2620232   1.685   7.162   5.067  0.2132  0.5101  0.8258
  178SLPC   H6R20233   1.753   7.089   5.019 -1.2467  0.1769 -0.8187
  178SLPC   H6S20234   1.717   7.267   5.049  0.0348  0.5008  0.4672
  178SLPC   C2720235   1.546   7.152   5.011  0.6100  0.2961 -0.8216
  178SLPC   H7R20236   1.489   7.222   5.076  1.3549  1.0360 -0.9408
  178SLPC   H7S20237   1.506   7.051   5.036 -0.9605  1.6316  2.8247
  178SLPC   C2820238   1.530   7.193   4.864 -0.3214 -0.2481  0.1963
  178SLPC   H8R20239   1.565   7.298   4.861  1.5103 -0.8429 -0.3265
  178SLPC   H8S20240   1.427   7.190   4.823 -0.6438  1.1919  0.8170
  178SLPC   C2920241   1.609   7.095   4.781 -0.4500  0.3932 -0.2580
  178SLPC   H9R20242   1.664   7.012   4.828 -0.5459  1.4821  1.9054
  178SLPC  C21020243   1.626   7.108   4.645 -0.1562 -0.0790 -0.3879
  178SLPC  H10R20244   1.691   7.035   4.596 -2.8275 -2.0942 -1.1977
  178SLPC  C21120245   1.553   7.216   4.572  0.5287  0.4108 -0.6685
  178SLPC  H11R20246   1.499   7.283   4.642  2.0898  0.1034  0.9108
  178SLPC  H11S20247   1.475   7.172   4.506  0.5305 -0.5582 -0.0358
  178SLPC  C21220248   1.644   7.302   4.494  0.9317  0.1530  0.0011
  178SLPC  H12R20249   1.741   7.323   4.540  0.2507  0.9108  1.1614
  178SLPC  C21320250   1.615   7.363   4.375 -0.1290  0.0845  0.3628
  178SLPC  H13R20251   1.691   7.431   4.333 -0.2614  0.2896  0.4507
  178SLPC  C21420252   1.489   7.363   4.291  0.9616 -0.3924  0.3200
  178SLPC  H14R20253   1.403   7.328   4.352  0.3816 -3.0779 -1.8039
  178SLPC  H14S20254   1.502   7.292   4.206  0.3727  0.9143 -0.9099
  178SLPC  C21520255   1.461   7.511   4.243  0.3629  0.0032 -0.5040
  178SLPC  H15R20256   1.552   7.542   4.186 -0.6536  2.0083 -1.1210
  178SLPC  H15S20257   1.442   7.571   4.334 -0.9899 -1.7612  0.4278
  178SLPC  C21620258   1.330   7.529   4.155  0.1533  0.2088  0.7140
  178SLPC  H16R20259   1.306   7.637   4.153  1.4943  0.7187  4.2986
  178SLPC  H16S20260   1.249   7.464   4.193  0.7906 -1.6170 -0.8771
  178SLPC  C21720261   1.360   7.493   4.007 -0.6842 -0.6227  0.4828
  178SLPC  H17R20262   1.395   7.388   4.005  0.9190 -0.1071  0.1966
  178SLPC  H17S20263   1.443   7.554   3.966  0.4047 -1.7217  0.9948
  178SLPC  C21820264   1.239   7.517   3.919 -0.3588 -0.0123 -0.4049
  178SLPC  H18R20265   1.197   7.618   3.937  1.7313  0.7576  0.4140
  178SLPC  H18S20266   1.162   7.445   3.954  1.9054 -1.1002  2.7994
  178SLPC  H18T20267   1.258   7.505   3.810  2.5970 -1.8870  0.2162
  178SLPC   C3320268   1.847   6.657   5.419  0.1097  0.2237 -0.3602
  178SLPC   H3X20269   1.940   6.710   5.450  0.1833 -1.8655  3.5866
  178SLPC   H3Y20270   1.762   6.728   5.415  0.0077  0.0619 -1.2321
  178SLPC   C3420271   1.877   6.612   5.273  0.2361 -0.1278 -0.7455
  178SLPC   H4X20272   1.786   6.556   5.243  0.2335  0.0787 -1.1248
  178SLPC   H4Y20273   1.969   6.550   5.267  0.3584 -0.1154  0.7367
  178SLPC   C3520274   1.881   6.737   5.186  0.1138 -0.1099  0.8511
  178SLPC   H5X20275   1.966   6.801   5.218  2.1062 -1.1499 -1.9520
  178SLPC   H5Y20276   1.784   6.789   5.201 -1.5063 -2.0361 -1.8358
  178SLPC   C3620277   1.884   6.727   5.035 -0.7617  0.2521  0.1080
  178SLPC   H6X20278   1.969   6.656   5.020  0.8964  1.9968  0.7850
  178SLPC   H6Y20279   1.903   6.825   4.986 -1.1196  0.0482 -0.4484
  178SLPC   C3720280   1.758   6.664   4.971  0.1135  0.0260  0.1468
  178SLPC   H7X20281   1.671   6.723   5.007 -0.4980 -0.6917 -0.1404
  178SLPC   H7Y20282   1.739   6.561   5.008 -0.5071  0.0167 -0.1756
  178SLPC   C3820283   1.767   6.678   4.825 -0.6132 -0.0572 -0.1195
  178SLPC   H8X20284   1.782   6.784   4.795  0.1576 -0.6225 -1.8535
  178SLPC   H8Y20285   1.667   6.662   4.780 -0.9027 -0.7398  0.7279
  178SLPC   C3920286   1.849   6.573   4.751  0.1092  0.3372 -0.1285
  178SLPC   H9X20287   1.786   6.490   4.715 -0.3436 -0.7418  2.8636
  178SLPC   H9Y20288   1.924   6.534   4.824  0.4216 -0.2623 -0.7614
  178SLPC  C31020289   1.936   6.624   4.639 -0.7176 -0.4164 -0.6943
  178SLPC  H10X20290   1.878   6.669   4.556  0.9670 -0.3618 -1.8800
  178SLPC  H10Y20291   1.981   6.543   4.578  0.8025  0.7602 -1.1860
  178SLPC  C31120292   2.055   6.719   4.668 -0.2814 -0.1064  0.2382
  178SLPC  H11X20293   2.133   6.685   4.740 -0.4986  1.2094  1.1235
  178SLPC  H11Y20294   2.004   6.799   4.725  0.0474 -0.7057  1.3988
  178SLPC  C31220295   2.112   6.784   4.545  0.0275 -0.2978  0.2267
  178SLPC  H12X20296   2.177   6.868   4.578 -0.5608  0.1454  0.2871
  178SLPC  H12Y20297   2.022   6.819   4.489  1.9034  1.4791 -1.9019
  178SLPC  C31320298   2.195   6.694   4.451 -0.1839 -0.3199  0.1829
  178SLPC  H13X20299   2.149   6.593   4.438 -0.7534  0.0154 -0.4045
  178SLPC  H13Y20300   2.297   6.680   4.494 -0.8039 -0.3769  1.7317
  178SLPC  C31420301   2.199   6.747   4.305  1.3433 -0.1775  0.5427
  178SLPC  H14X20302   2.240   6.850   4.313  0.7281  0.0944  0.2449
  178SLPC  H14Y20303   2.096   6.766   4.269  1.6630 -0.1453 -0.4046
  178SLPC  C31520304   2.284   6.662   4.211  0.4754  0.0506 -0.0590
  178SLPC  H15X20305   2.374   6.644   4.274 -0.3794  2.9081  2.1665
  178SLPC  H15Y20306   2.314   6.722   4.122  0.7706 -1.1838 -0.8180
  178SLPC  C31620307   2.203   6.547   4.157  0.3743 -0.3232 -0.0810
  178SLPC  H16X20308   2.102   6.574   4.120 -1.7713 -2.2563  3.6936
  178SLPC  H16Y20309   2.180   6.471   4.235 -0.1927 -0.3018 -0.2197
  178SLPC  C31720310   2.264   6.479   4.035  0.3032 -0.0218  0.1820
  178SLPC  H17X20311   2.362   6.432   4.061  0.7734  0.0579 -1.3454
  178SLPC  H17Y20312   2.295   6.559   3.965 -0.4005  1.3279  1.3584
  178SLPC  C31820313   2.173   6.375   3.969 -0.1514 -0.3596  0.1647
  178SLPC  H18X20314   2.224   6.326   3.883 -0.3275 -2.3511  1.1279
  178SLPC  H18Y20315   2.083   6.427   3.931  0.9604  1.1056 -0.6169
  178SLPC  H18Z20316   2.145   6.299   4.045 -2.6464  2.1247  1.9174
  179SLPC     N20317   2.608   2.818   1.743 -0.4987  0.0155 -0.2045
  179SLPC   C1320318   2.548   2.926   1.825 -0.3566 -0.5865  0.0299
  179SLPC  H13A20319   2.615   2.993   1.876 -2.8974  1.2751  1.1255
  179SLPC  H13B20320   2.506   3.000   1.758 -1.8760 -2.5912 -1.3685
  179SLPC  H13C20321   2.468   2.887   1.887 -1.1728  1.1051  0.1015
  179SLPC   C1420322   2.722   2.855   1.661  0.6002 -0.9189  0.8331
  179SLPC  H14A20323   2.804   2.899   1.716  1.5407 -1.0738 -0.3915
  179SLPC  H14B20324   2.766   2.772   1.607 -0.1816 -0.5531 -0.3894
  179SLPC  H14C20325   2.698   2.933   1.591 -0.1722  0.0789  2.1670
  179SLPC   C1520326   2.498   2.761   1.660 -0.7114 -0.1265 -0.5875
  179SLPC  H15A20327   2.406   2.754   1.716  0.3327  1.3431  1.4563
  179SLPC  H15B20328   2.477   2.827   1.578 -0.8396  0.9133  0.2570
  179SLPC  H15C20329   2.533   2.662   1.634 -0.1636 -0.2483  0.5561
  179SLPC   C1220330   2.659   2.699   1.834 -0.1939 -0.3004 -0.0147
  179SLPC  H12A20331   2.745   2.735   1.889 -2.5255 -0.1881  3.8841
  179SLPC  H12B20332   2.689   2.618   1.769 -0.9944  0.2166 -1.0678
  179SLPC   C1120333   2.562   2.649   1.938 -0.4985 -0.4748  0.4512
  179SLPC  H11A20334   2.479   2.605   1.879 -0.0737  2.1301 -2.3021
  179SLPC  H11B20335   2.514   2.740   1.979 -1.1151  0.0966 -1.4423
  179SLPC     P20336   2.655   2.410   2.013  0.2557 -0.2708  0.0160
  179SLPC   O1320337   2.546   2.342   2.085 -0.0791 -0.2156 -0.0407
  179SLPC   O1420338   2.667   2.379   1.867 -0.2383 -0.1504  0.2625
  179SLPC   O1220339   2.623   2.560   2.031 -0.2038  0.1696 -0.1964
  179SLPC   O1120340   2.793   2.382   2.087 -0.0432 -0.0556 -0.0020
  179SLPC    C120341   2.856   2.495   2.147 -0.7899  0.3407 -0.5746
  179SLPC    HA20342   2.964   2.473   2.157 -1.4474 -2.8385  0.7556
  179SLPC    HB20343   2.865   2.580   2.077 -1.5516 -0.4069 -1.6025
  179SLPC    C220344   2.797   2.535   2.294 -0.4310  0.4562 -0.8241
  179SLPC    HS20345   2.873   2.598   2.344 -0.5568 -0.4406  0.5567
  179SLPC   O2120346   2.764   2.421   2.372 -0.0191  0.3017  0.3180
  179SLPC   C2120347   2.857   2.330   2.390 -0.6496  0.3331  0.1300
  179SLPC   O2220348   2.974   2.340   2.360  0.4438  0.3103 -0.3140
  179SLPC   C2220349   2.809   2.210   2.456  0.6150  0.5172 -0.4506
  179SLPC   H2R20350   2.700   2.219   2.473  0.3285 -1.4355 -0.9955
  179SLPC   H2S20351   2.829   2.125   2.386  0.7632  0.9086 -0.8841
  179SLPC    C320352   2.673   2.631   2.300 -0.1595  0.2042  0.4406
  179SLPC    HX20353   2.584   2.568   2.280  0.8853 -0.8435 -1.2653
  179SLPC    HY20354   2.681   2.699   2.213 -0.2794 -0.8475 -0.4199
  179SLPC   O3120355   2.677   2.701   2.424 -0.2502  0.8744 -1.0030
  179SLPC   C3120356   2.555   2.738   2.468 -0.1542  0.2513 -0.4229
  179SLPC   O3220357   2.455   2.732   2.402 -0.2701 -0.9361  0.2728
  179SLPC   C3220358   2.561   2.791   2.614  0.6044 -1.4689  0.4373
  179SLPC   H2X20359   2.610   2.891   2.604 -2.8749  0.5120  1.4821
  179SLPC   H2Y20360   2.629   2.724   2.670  1.2328 -2.7132 -1.6940
  179SLPC   C2320361   2.883   2.191   2.588 -0.4886 -0.2140  0.2264
  179SLPC   H3R20362   2.880   2.272   2.664  1.8266  0.1741 -0.0296
  179SLPC   H3S20363   2.986   2.156   2.564 -0.9156 -0.7492 -0.8710
  179SLPC   C2420364   2.804   2.084   2.663  0.4445  0.1126  0.5672
  179SLPC   H4R20365   2.792   1.983   2.618 -2.1391  1.2843 -1.6305
  179SLPC   H4S20366   2.700   2.118   2.683  0.5865 -0.4766  2.5957
  179SLPC   C2520367   2.865   2.052   2.801  0.1261 -0.1732 -0.5691
  179SLPC   H5R20368   2.948   2.125   2.820  0.5246 -0.9927  1.0581
  179SLPC   H5S20369   2.918   1.954   2.800  2.0451  0.7844  0.3043
  179SLPC   C2620370   2.755   2.048   2.912 -0.5154  0.3136  0.8499
  179SLPC   H6R20371   2.702   2.145   2.905 -0.0732  0.4914 -0.0267
  179SLPC   H6S20372   2.799   2.036   3.013 -0.1999  0.6316  0.7507
  179SLPC   C2720373   2.639   1.936   2.900 -0.6681  0.2117 -0.1078
  179SLPC   H7R20374   2.696   1.841   2.913  1.7344  1.5592 -0.2025
  179SLPC   H7S20375   2.591   1.940   2.800 -2.8470  2.0377  0.9232
  179SLPC   C2820376   2.534   1.956   3.008 -0.4153  1.1929  0.0245
  179SLPC   H8R20377   2.473   1.863   3.002  2.3698 -0.6512 -3.4567
  179SLPC   H8S20378   2.475   2.044   2.975 -1.7049  0.6770  0.8397
  179SLPC   C2920379   2.584   1.986   3.151 -0.0099 -0.6960  0.3588
  179SLPC   H9R20380   2.610   2.091   3.165  0.9609 -1.1957  2.7764
  179SLPC  C21020381   2.583   1.887   3.245 -0.9615  0.6497 -0.2913
  179SLPC  H10R20382   2.620   1.924   3.342  2.6949  0.0583 -1.2846
  179SLPC  C21120383   2.538   1.743   3.241  0.5329  0.0088 -0.5384
  179SLPC  H11R20384   2.632   1.688   3.219  1.0916 -1.2861  4.0527
  179SLPC  H11S20385   2.471   1.716   3.157 -1.3100 -0.4062  1.0053
  179SLPC  C21220386   2.469   1.683   3.363 -0.5198 -0.1345  0.3177
  179SLPC  H12R20387   2.359   1.676   3.353 -0.5153 -0.9554  0.7669
  179SLPC  C21320388   2.522   1.632   3.474  0.3344  0.3151 -0.1078
  179SLPC  H13R20389   2.463   1.579   3.551  1.4971 -2.1430 -0.7995
  179SLPC  C21420390   2.672   1.617   3.507 -0.3397 -0.9581 -0.4211
  179SLPC  H14R20391   2.731   1.658   3.422  0.9351 -1.6049  0.1147
  179SLPC  H14S20392   2.701   1.511   3.521  0.2090 -0.8660 -0.8390
  179SLPC  C21520393   2.706   1.698   3.627 -0.3893  0.9441 -0.1185
  179SLPC  H15R20394   2.650   1.794   3.622 -0.3900  0.9532  0.0792
  179SLPC  H15S20395   2.813   1.724   3.639 -0.6704  0.9875  3.1057
  179SLPC  C21620396   2.678   1.622   3.759  0.2780 -0.0378 -0.4689
  179SLPC  H16R20397   2.760   1.552   3.785 -0.5834 -0.7058  0.5140
  179SLPC  H16S20398   2.583   1.565   3.746  0.0602  0.1382  0.3162
  179SLPC  C21720399   2.645   1.709   3.886 -0.0300 -0.0817  0.7873
  179SLPC  H17R20400   2.579   1.795   3.862  0.1391 -0.2536 -0.3881
  179SLPC  H17S20401   2.742   1.751   3.920 -0.2511  1.3413 -0.2455
  179SLPC  C21820402   2.597   1.616   3.999  0.4421  0.0142 -0.1277
  179SLPC  H18R20403   2.617   1.661   4.098  1.4079 -0.8798  0.1014
  179SLPC  H18S20404   2.654   1.521   3.993  0.3488  0.0236 -1.6441
  179SLPC  H18T20405   2.490   1.593   3.976  0.2204 -0.7065  1.4855
  179SLPC   C3320406   2.423   2.804   2.678 -0.9496  0.2822 -0.8328
  179SLPC   H3X20407   2.357   2.716   2.659 -1.6106  0.6833 -0.4489
  179SLPC   H3Y20408   2.370   2.895   2.643  0.7406  0.6945 -2.5126
  179SLPC   C3420409   2.422   2.801   2.836  0.1674 -0.1718 -0.2602
  179SLPC   H4X20410   2.472   2.704   2.861  0.3280 -0.5302 -1.8932
  179SLPC   H4Y20411   2.313   2.790   2.856  0.2620 -0.6506  0.0177
  179SLPC   C3520412   2.475   2.934   2.889 -0.3696  0.8107 -0.4900
  179SLPC   H5X20413   2.581   2.947   2.858  0.4750  1.1658  2.2220
  179SLPC   H5Y20414   2.422   3.012   2.830  1.7633  1.8779 -1.1196
  179SLPC   C3620415   2.455   2.952   3.041 -0.1015 -0.2812 -0.0018
  179SLPC   H6X20416   2.517   2.878   3.097  2.1389  0.5244 -1.3025
  179SLPC   H6Y20417   2.346   2.935   3.058  0.3211 -1.0827  2.1943
  179SLPC   C3720418   2.486   3.088   3.088  0.0316  1.0777  0.9336
  179SLPC   H7X20419   2.414   3.165   3.051 -1.7382 -1.7271 -1.9563
  179SLPC   H7Y20420   2.592   3.114   3.065  0.1637  0.4566  0.8324
  179SLPC   C3820421   2.474   3.086   3.240  0.5975 -0.5934 -1.2480
  179SLPC   H8X20422   2.529   3.000   3.283  4.0263  1.7818 -0.4871
  179SLPC   H8Y20423   2.371   3.088   3.282  1.0160  1.7322 -0.1384
  179SLPC   C3920424   2.540   3.207   3.304  0.3414  0.4639  0.1149
  179SLPC   H9X20425   2.508   3.298   3.248 -1.0570 -0.1262 -0.0677
  179SLPC   H9Y20426   2.648   3.199   3.280  0.4175  2.0565 -0.2083
  179SLPC  C31020427   2.512   3.232   3.449  0.9463  0.0539  0.0883
  179SLPC  H10X20428   2.542   3.141   3.506  1.2690 -0.0051 -0.1751
  179SLPC  H10Y20429   2.403   3.250   3.460  0.6771 -1.1204 -0.5486
  179SLPC  C31120430   2.580   3.358   3.505  0.4866  0.0314  0.7911
  179SLPC  H11X20431   2.518   3.443   3.470 -2.1357 -1.2999  1.9003
  179SLPC  H11Y20432   2.681   3.349   3.460 -0.5191 -0.8178 -1.4572
  179SLPC  C31220433   2.575   3.365   3.657  0.2077  0.0343  0.0117
  179SLPC  H12X20434   2.652   3.435   3.696 -0.0984  0.0346  0.6349
  179SLPC  H12Y20435   2.605   3.265   3.694 -1.2156 -0.8740 -1.1811
  179SLPC  C31320436   2.437   3.409   3.713 -1.1276 -0.3433  0.0084
  179SLPC  H13X20437   2.372   3.319   3.709 -0.5251 -0.7289 -2.1079
  179SLPC  H13Y20438   2.394   3.495   3.656  0.4370  0.6008  0.1981
  179SLPC  C31420439   2.455   3.450   3.856  0.3661  0.5785  0.1856
  179SLPC  H14X20440   2.528   3.532   3.875  1.0172  0.0349  0.0499
  179SLPC  H14Y20441   2.475   3.355   3.909  0.9125  0.9783  0.7141
  179SLPC  C31520442   2.315   3.499   3.915  0.5963  0.2366  0.0806
  179SLPC  H15X20443   2.242   3.417   3.895  1.9457 -0.1880 -3.8635
  179SLPC  H15Y20444   2.287   3.591   3.858 -0.1800  0.2898  0.5246
  179SLPC  C31620445   2.324   3.548   4.059 -0.3941 -0.5084 -0.0325
  179SLPC  H16X20446   2.400   3.629   4.066 -1.2557  0.5863 -2.4673
  179SLPC  H16Y20447   2.354   3.466   4.127  2.9391  0.7243  0.1764
  179SLPC  C31720448   2.192   3.618   4.115 -0.5473 -0.3818 -0.5080
  179SLPC  H17X20449   2.099   3.568   4.080 -2.4488  0.9040  2.3550
  179SLPC  H17Y20450   2.186   3.722   4.078 -2.3033  0.0093  0.7277
  179SLPC  C31820451   2.192   3.623   4.270 -0.1219  0.3087 -0.6491
  179SLPC  H18X20452   2.281   3.681   4.304  0.2663 -1.5476  1.8067
  179SLPC  H18Y20453   2.182   3.527   4.324 -0.3916  0.4050 -0.5237
  179SLPC  H18Z20454   2.100   3.674   4.307 -0.8177 -0.1173 -1.7588
  180SLPC     N20455   2.220   3.507   1.770  0.7075  0.5794  0.2215
  180SLPC   C1320456   2.330   3.548   1.670  0.6096 -0.2120 -0.2072
  180SLPC  H13A20457   2.310   3.644   1.626  2.9258  0.6305  0.4210
  180SLPC  H13B20458   2.421   3.562   1.726 -0.7089  1.6376  1.6196
  180SLPC  H13C20459   2.347   3.476   1.591  1.4271 -2.1452  1.6269
  180SLPC   C1420460   2.229   3.606   1.875  0.1072 -0.2795  0.3374
  180SLPC  H14A20461   2.332   3.612   1.907  0.2117  1.2331 -0.2320
  180SLPC  H14B20462   2.208   3.705   1.840  2.9870  0.7382  1.2259
  180SLPC  H14C20463   2.164   3.573   1.954 -0.5955 -2.5835 -1.0684
  180SLPC   C1520464   2.247   3.369   1.822  0.2477  0.0756  0.8434
  180SLPC  H15A20465   2.217   3.295   1.749 -0.4458  1.8084 -0.7181
  180SLPC  H15B20466   2.353   3.346   1.817  0.3323  0.7337 -1.0896
  180SLPC  H15C20467   2.194   3.338   1.910 -1.3662 -1.4730 -0.6021
  180SLPC   C1220468   2.084   3.507   1.694  0.2806 -0.6897 -0.1496
  180SLPC  H12A20469   2.013   3.468   1.765 -0.1418 -0.0939 -0.2381
  180SLPC  H12B20470   2.086   3.436   1.612 -0.4266 -0.7060 -0.1557
  180SLPC   C1120471   2.022   3.628   1.621  0.2359 -0.0470 -0.1048
  180SLPC  H11A20472   1.940   3.583   1.562 -1.2598  3.0593 -0.6040
  180SLPC  H11B20473   2.083   3.662   1.534  0.0777 -1.3626 -0.7489
  180SLPC     P20474   2.035   3.868   1.719 -0.0282  0.2923 -0.1211
  180SLPC   O1320475   2.178   3.867   1.759  0.2165  0.6995 -0.1156
  180SLPC   O1420476   2.005   3.934   1.588 -0.8535 -0.4675  0.0786
  180SLPC   O1220477   1.971   3.728   1.712 -0.1222  0.1995  0.0067
  180SLPC   O1120478   1.957   3.928   1.836 -0.2121 -0.3451 -0.0404
  180SLPC    C120479   1.991   3.896   1.970 -0.1731 -0.4429 -0.0610
  180SLPC    HA20480   2.083   3.835   1.979  1.3658  1.7569 -0.0605
  180SLPC    HB20481   2.019   3.995   2.012 -2.2493  0.8639 -1.5463
  180SLPC    C220482   1.878   3.831   2.054  0.2840  0.1594 -0.4134
  180SLPC    HS20483   1.783   3.832   1.996  0.8477 -1.8072 -1.4658
  180SLPC   O2120484   1.864   3.901   2.177 -0.2400  1.1508 -0.4866
  180SLPC   C2120485   1.745   3.886   2.234 -0.1038 -0.0164 -0.0853
  180SLPC   O2220486   1.659   3.813   2.185  0.6735 -0.2197 -0.3608
  180SLPC   C2220487   1.739   3.960   2.369  0.0533  0.1006 -0.2811
  180SLPC   H2R20488   1.829   4.024   2.382  0.0384  0.0544  0.0505
  180SLPC   H2S20489   1.650   4.025   2.373  0.4744  0.6112  1.1132
  180SLPC    C320490   1.903   3.675   2.056 -0.0014 -0.1815 -0.1494
  180SLPC    HX20491   1.918   3.647   1.949 -0.3565  1.6861 -0.7217
  180SLPC    HY20492   1.813   3.618   2.088 -1.5993  1.4806 -1.4235
  180SLPC   O3120493   2.023   3.641   2.129 -0.4907  0.1505  0.3146
  180SLPC   C3120494   2.011   3.601   2.253  0.1391  0.4197  0.4422
  180SLPC   O3220495   1.907   3.599   2.314  0.0046  1.1043  0.2858
  180SLPC   C3220496   2.151   3.575   2.311 -0.3221  0.0594  0.1430
  180SLPC   H2X20497   2.212   3.662   2.281 -0.7794  0.3160 -0.0606
  180SLPC   H2Y20498   2.197   3.486   2.263  0.3346  1.2773 -1.5981
  180SLPC   C2320499   1.730   3.850   2.475 -0.4837 -0.0012 -0.6345
  180SLPC   H3R20500   1.830   3.803   2.479 -2.3940 -4.5231  0.3508
  180SLPC   H3S20501   1.653   3.772   2.455  0.7016 -0.9371 -1.6787
  180SLPC   C2420502   1.706   3.918   2.608  0.2705  0.1401  0.4531
  180SLPC   H4R20503   1.684   3.835   2.679 -1.2891  1.2902  1.3950
  180SLPC   H4S20504   1.608   3.971   2.603  0.4577  0.3655 -1.7051
  180SLPC   C2520505   1.806   4.008   2.672  0.3327 -0.4005  0.0455
  180SLPC   H5R20506   1.853   4.074   2.596 -1.5108 -0.7891 -1.5276
  180SLPC   H5S20507   1.886   3.940   2.710  1.4668  0.9190  0.0836
  180SLPC   C2620508   1.748   4.098   2.782  0.2788  0.0430 -0.3163
  180SLPC   H6R20509   1.659   4.159   2.755  1.5209  0.7799 -3.1176
  180SLPC   H6S20510   1.825   4.175   2.802 -1.6655  1.8695  0.5547
  180SLPC   C2720511   1.715   4.029   2.918 -0.1930  0.1452 -0.0383
  180SLPC   H7R20512   1.732   4.099   3.003  0.9335 -1.4743  1.1198
  180SLPC   H7S20513   1.775   3.939   2.942 -0.1500  0.2293  0.1722
  180SLPC   C2820514   1.564   3.998   2.917 -0.1156  0.1441  0.1253
  180SLPC   H8R20515   1.543   3.921   2.839  1.5135 -1.1361  0.8944
  180SLPC   H8S20516   1.513   4.090   2.881  1.0358  0.2949 -1.1915
  180SLPC   C2920517   1.515   3.944   3.050 -0.2891  0.3677 -0.3299
  180SLPC   H9R20518   1.527   4.014   3.134  2.1276 -0.0369 -0.2403
  180SLPC  C21020519   1.476   3.814   3.077 -0.1665 -0.0315 -0.7205
  180SLPC  H10R20520   1.415   3.799   3.168 -0.5819  1.2211 -0.7731
  180SLPC  C21120521   1.481   3.698   2.985  0.6548 -0.0892  0.1950
  180SLPC  H11R20522   1.582   3.691   2.937  0.1845 -4.2923 -0.6255
  180SLPC  H11S20523   1.417   3.712   2.895  0.2744 -0.3025  0.4324
  180SLPC  C21220524   1.470   3.564   3.052 -0.4233 -0.4492  0.2761
  180SLPC  H12R20525   1.504   3.569   3.157  3.0765  1.7104 -0.7927
  180SLPC  C21320526   1.428   3.447   3.000  0.1265 -0.2118 -0.2637
  180SLPC  H13R20527   1.428   3.358   3.065 -2.6882  0.3359  0.5971
  180SLPC  C21420528   1.386   3.425   2.851  0.1067  0.0552 -0.3780
  180SLPC  H14R20529   1.398   3.516   2.789  0.8088  0.2256 -0.0066
  180SLPC  H14S20530   1.277   3.407   2.846  0.4205 -1.6080 -2.6303
  180SLPC  C21520531   1.470   3.324   2.780 -0.3474  0.1946  0.0886
  180SLPC  H15R20532   1.421   3.313   2.681  1.4542  1.1062 -0.9675
  180SLPC  H15S20533   1.466   3.228   2.835  3.7718  0.1432  0.6042
  180SLPC  C21620534   1.623   3.354   2.751  0.5425 -0.4101 -0.0333
  180SLPC  H16R20535   1.674   3.273   2.696  0.5804  0.1366 -0.8317
  180SLPC  H16S20536   1.678   3.367   2.846  0.7127 -0.3772 -0.1366
  180SLPC  C21720537   1.649   3.483   2.665  0.2349  0.2849 -0.4345
  180SLPC  H17R20538   1.622   3.559   2.741 -0.5489 -1.1941  0.8173
  180SLPC  H17S20539   1.574   3.497   2.584  0.9401  1.1678 -0.9517
  180SLPC  C21820540   1.791   3.504   2.611 -0.4111 -0.4696 -0.4259
  180SLPC  H18R20541   1.868   3.500   2.691  0.8265 -2.6763 -1.6163
  180SLPC  H18S20542   1.805   3.603   2.562  3.2271  1.1119  3.2327
  180SLPC  H18T20543   1.813   3.426   2.535 -0.8106 -0.9573 -0.0445
  180SLPC   C3320544   2.145   3.548   2.463 -0.4784  0.1325  1.3742
  180SLPC   H3X20545   2.096   3.449   2.473 -1.9309  0.6997  0.1541
  180SLPC   H3Y20546   2.093   3.631   2.516 -0.3755  1.2862 -0.2562
  180SLPC   C3420547   2.285   3.537   2.528 -0.4091 -0.1894  0.4430
  180SLPC   H4X20548   2.348   3.622   2.493 -1.7083  0.5859 -0.0525
  180SLPC   H4Y20549   2.335   3.448   2.484 -0.7178  0.3651 -1.0801
  180SLPC   C3520550   2.298   3.556   2.685 -0.1151  0.0510  0.5754
  180SLPC   H5X20551   2.235   3.646   2.695 -1.1075 -0.4523 -0.7978
  180SLPC   H5Y20552   2.406   3.575   2.706  0.4863 -0.7241 -1.5542
  180SLPC   C3620553   2.251   3.436   2.774 -0.8614  0.0124 -0.0688
  180SLPC   H6X20554   2.291   3.336   2.743  1.2306  0.7932 -0.0932
  180SLPC   H6Y20555   2.143   3.418   2.756 -0.6256 -1.1104 -0.4833
  180SLPC   C3720556   2.272   3.464   2.923 -0.0768  0.2365  0.2546
  180SLPC   H7X20557   2.372   3.499   2.958 -0.2648  0.0586  0.9820
  180SLPC   H7Y20558   2.250   3.367   2.973 -2.0616  0.2452 -0.5315
  180SLPC   C3820559   2.178   3.567   2.971  0.3380 -0.1980  0.2206
  180SLPC   H8X20560   2.090   3.559   2.903 -0.5329 -0.6258  1.3591
  180SLPC   H8Y20561   2.201   3.674   2.953 -1.5774  0.2441  0.1071
  180SLPC   C3920562   2.129   3.526   3.113 -0.1860  0.2355  0.2041
  180SLPC   H9X20563   2.096   3.420   3.123 -0.0913  0.3138  1.5365
  180SLPC   H9Y20564   2.045   3.592   3.140 -1.3009 -1.4075  0.9107
  180SLPC  C31020565   2.225   3.568   3.224 -0.2663 -0.3139 -0.0050
  180SLPC  H10X20566   2.276   3.664   3.205 -0.4789 -0.5658 -2.0248
  180SLPC  H10Y20567   2.314   3.502   3.225  2.3970  3.0014  2.0243
  180SLPC  C31120568   2.162   3.576   3.360 -0.3352 -0.6490 -0.7302
  180SLPC  H11X20569   2.068   3.633   3.340  0.4853  0.5303 -1.3533
  180SLPC  H11Y20570   2.235   3.632   3.422 -0.3804 -1.3659 -0.0005
  180SLPC  C31220571   2.126   3.438   3.420  0.5427  0.2248 -0.1718
  180SLPC  H12X20572   2.214   3.369   3.415  1.1099  0.9924 -1.0358
  180SLPC  H12Y20573   2.040   3.397   3.363  1.3780 -0.1326 -1.2104
  180SLPC  C31320574   2.073   3.451   3.567  0.7803  0.6305 -0.3659
  180SLPC  H13X20575   1.990   3.524   3.568 -0.6046 -0.7912 -2.5998
  180SLPC  H13Y20576   2.150   3.489   3.637  0.2593 -0.4719  0.8476
  180SLPC  C31420577   2.040   3.312   3.627 -0.4545 -0.1916  0.1738
  180SLPC  H14X20578   2.137   3.267   3.656  0.6824  1.3187 -1.1438
  180SLPC  H14Y20579   1.988   3.243   3.556  0.4189 -0.7017  0.0227
  180SLPC  C31520580   1.953   3.318   3.746 -0.4312  0.0163  0.3993
  180SLPC  H15X20581   1.850   3.343   3.713 -0.2136 -1.7941 -1.9060
  180SLPC  H15Y20582   1.989   3.395   3.817  0.4337 -0.9033  0.9871
  180SLPC  C31620583   1.947   3.191   3.831 -0.5472 -0.3811 -0.6141
  180SLPC  H16X20584   2.037   3.176   3.894  0.3776  0.9499 -1.5647
  180SLPC  H16Y20585   1.953   3.099   3.768  2.3859 -0.7866  0.1265
  180SLPC  C31720586   1.813   3.180   3.901  0.0841 -0.3978  0.4978
  180SLPC  H17X20587   1.746   3.152   3.818  1.4926 -1.4414 -0.3274
  180SLPC  H17Y20588   1.785   3.274   3.954 -0.9878 -0.1466 -0.4759
  180SLPC  C31820589   1.805   3.074   4.012 -0.5620 -0.9621  0.6132
  180SLPC  H18X20590   1.848   2.975   3.988 -0.9967 -1.4001  1.6130
  180SLPC  H18Y20591   1.696   3.066   4.030 -0.7478 -1.2089 -0.5576
  180SLPC  H18Z20592   1.842   3.112   4.109  0.1032 -2.5961  1.0340
  181SLPC     N20593   1.471   1.837   1.725 -0.5208  0.0014 -0.1050
  181SLPC   C1320594   1.552   1.917   1.625  0.2931 -0.0155 -0.3359
  181SLPC  H13A20595   1.526   1.878   1.528  0.7169  0.0929 -0.4936
  181SLPC  H13B20596   1.528   2.022   1.632 -0.8362 -0.3068  0.4530
  181SLPC  H13C20597   1.657   1.901   1.644  0.4909  0.6051 -0.9097
  181SLPC   C1420598   1.486   1.690   1.696 -1.1826  0.1621  0.0047
  181SLPC  H14A20599   1.429   1.619   1.754 -1.9368 -0.9280 -1.9993
  181SLPC  H14B20600   1.475   1.665   1.592  0.2191 -0.7137  0.0403
  181SLPC  H14C20601   1.590   1.660   1.698 -1.5058 -1.4465 -2.7710
  181SLPC   C1520602   1.324   1.871   1.706  0.3790  0.1890 -0.0973
  181SLPC  H15A20603   1.264   1.796   1.756  1.0326  0.2789  0.8528
  181SLPC  H15B20604   1.310   1.968   1.752  1.2251  0.2599  0.0168
  181SLPC  H15C20605   1.288   1.870   1.604 -2.1190  0.3964  0.7138
  181SLPC   C1220606   1.518   1.876   1.863 -0.1253 -0.1656  0.1258
  181SLPC  H12A20607   1.609   1.826   1.892 -2.5265 -3.8815  2.1013
  181SLPC  H12B20608   1.456   1.830   1.939  1.5659 -1.5497  0.7303
  181SLPC   C1120609   1.530   2.030   1.897  0.5885  0.2284 -0.0677
  181SLPC  H11A20610   1.611   2.075   1.835  1.5395 -1.7409 -0.3185
  181SLPC  H11B20611   1.562   2.038   2.004  0.0813 -1.2606  0.2188
  181SLPC     P20612   1.382   2.241   1.943  0.6404 -0.2450 -0.1498
  181SLPC   O1320613   1.467   2.333   1.861 -0.0819  0.4556  0.0128
  181SLPC   O1420614   1.240   2.276   1.942  0.0974  0.1348  0.1215
  181SLPC   O1220615   1.408   2.099   1.883  0.1109  0.4281 -0.4823
  181SLPC   O1120616   1.433   2.222   2.097  0.6929  0.0108 -0.4010
  181SLPC    C120617   1.351   2.135   2.178  0.3698  0.0140  0.1142
  181SLPC    HA20618   1.263   2.195   2.210  1.0093  1.3397 -0.5483
  181SLPC    HB20619   1.309   2.047   2.124 -4.2577  1.1248  1.4214
  181SLPC    C220620   1.427   2.072   2.295 -0.3136  0.7763  0.0744
  181SLPC    HS20621   1.361   1.997   2.342  0.5754  0.5621  0.9964
  181SLPC   O2120622   1.456   2.167   2.403  0.3518 -0.5289 -0.4686
  181SLPC   C2120623   1.353   2.208   2.473 -0.2024 -0.5748 -0.1562
  181SLPC   O2220624   1.241   2.163   2.455  0.1888 -0.2673  0.1141
  181SLPC   C2220625   1.404   2.294   2.585  0.7550  0.4244  0.4556
  181SLPC   H2R20626   1.420   2.396   2.545 -0.2304  0.9214  1.2892
  181SLPC   H2S20627   1.328   2.306   2.665 -0.3626  0.7055 -0.6256
  181SLPC    C320628   1.544   1.979   2.255  0.2958 -0.0775  0.3431
  181SLPC    HX20629   1.616   2.046   2.203 -0.6736  0.4220 -0.3805
  181SLPC    HY20630   1.513   1.908   2.176  0.3544  1.6974 -1.3456
  181SLPC   O3120631   1.607   1.922   2.373 -0.4995 -0.4572  0.4682
  181SLPC   C3120632   1.553   1.822   2.432 -0.0634  0.1516  0.6864
  181SLPC   O3220633   1.452   1.764   2.408  0.1330  0.2673  0.5354
  181SLPC   C3220634   1.643   1.777   2.546 -0.8059  0.3399 -0.0993
  181SLPC   H2X20635   1.752   1.788   2.524 -0.0731 -0.4626  2.6761
  181SLPC   H2Y20636   1.640   1.666   2.556  0.9222  0.0292 -2.3130
  181SLPC   C2320637   1.533   2.235   2.654 -0.4688  0.4231  0.2604
  181SLPC   H3R20638   1.607   2.210   2.575 -1.5714 -0.5112 -0.5080
  181SLPC   H3S20639   1.488   2.142   2.694 -0.5214 -0.3875 -1.5789
  181SLPC   C2420640   1.592   2.334   2.749  0.2730 -0.0269 -0.0603
  181SLPC   H4R20641   1.602   2.434   2.703 -1.3087 -0.7980 -2.2603
  181SLPC   H4S20642   1.693   2.304   2.785 -1.1920 -2.1781  2.7249
  181SLPC   C2520643   1.512   2.343   2.886 -0.0653 -0.0447  0.6312
  181SLPC   H5R20644   1.453   2.249   2.892 -0.8972  0.4403  0.1899
  181SLPC   H5S20645   1.439   2.425   2.873  1.4884  1.2555 -0.2615
  181SLPC   C2620646   1.596   2.355   3.015  0.2151  0.1721 -0.6757
  181SLPC   H6R20647   1.527   2.374   3.100 -1.3616 -4.1880 -0.7548
  181SLPC   H6S20648   1.669   2.439   3.006 -0.2390  0.5121 -1.1723
  181SLPC   C2720649   1.690   2.231   3.054  0.3487  0.0780  0.1685
  181SLPC   H7R20650   1.768   2.230   2.975  1.7947  0.5918  1.5353
  181SLPC   H7S20651   1.630   2.138   3.064  1.7547 -0.8149  0.5344
  181SLPC   C2820652   1.763   2.246   3.189  0.5772 -0.2182 -0.8830
  181SLPC   H8R20653   1.832   2.332   3.175  1.5363 -0.3187  2.3350
  181SLPC   H8S20654   1.817   2.149   3.202  0.5493 -0.3735 -1.8594
  181SLPC   C2920655   1.669   2.280   3.302  0.1362  0.6252  0.7570
  181SLPC   H9R20656   1.561   2.295   3.285 -0.7720 -4.3664  0.6354
  181SLPC  C21020657   1.703   2.281   3.431  0.5099 -0.4632  0.4578
  181SLPC  H10R20658   1.624   2.316   3.500  1.2845  0.4640  0.9022
  181SLPC  C21120659   1.846   2.257   3.489  1.0605 -0.2331 -0.1245
  181SLPC  H11R20660   1.881   2.345   3.546  0.2873  0.2691 -0.4069
  181SLPC  H11S20661   1.926   2.247   3.413  0.3019  1.4155 -1.2068
  181SLPC  C21220662   1.837   2.141   3.583 -0.4914  0.7339  0.1029
  181SLPC  H12R20663   1.815   2.048   3.527 -1.9172  0.4416  1.0956
  181SLPC  C21320664   1.851   2.135   3.718 -0.1671 -0.6549  0.2594
  181SLPC  H13R20665   1.865   2.033   3.758  1.3200  0.2826  2.3415
  181SLPC  C21420666   1.874   2.239   3.820 -0.5136 -0.3725  0.2312
  181SLPC  H14R20667   1.858   2.339   3.775  2.0502  0.1201  0.2394
  181SLPC  H14S20668   1.961   2.236   3.889 -0.1993  2.8833  0.1030
  181SLPC  C21520669   1.752   2.239   3.911  0.0998 -0.0374 -0.0169
  181SLPC  H15R20670   1.661   2.248   3.848  1.5950  1.2139 -2.1669
  181SLPC  H15S20671   1.755   2.328   3.978 -2.6098 -0.7080  1.0970
  181SLPC  C21620672   1.746   2.110   4.004  0.4078 -1.3857 -0.0021
  181SLPC  H16R20673   1.846   2.085   4.045 -0.0933 -0.5688  1.7707
  181SLPC  H16S20674   1.700   2.032   3.939 -2.8776  1.8228 -1.9183
  181SLPC  C21720675   1.647   2.129   4.124 -0.2254  0.2685  0.3346
  181SLPC  H17R20676   1.553   2.185   4.109 -0.7569 -0.0845  2.1724
  181SLPC  H17S20677   1.704   2.196   4.192  2.8453 -0.3561 -1.4050
  181SLPC  C21820678   1.630   1.995   4.196  0.5120 -0.1095 -0.5046
  181SLPC  H18R20679   1.564   1.924   4.141  0.4893  0.3481 -1.0709
  181SLPC  H18S20680   1.589   2.013   4.298  0.4545  0.9686 -0.7069
  181SLPC  H18T20681   1.728   1.947   4.215  0.7613  0.4703 -0.3072
  181SLPC   C3320682   1.614   1.834   2.692 -0.0061  0.9264  0.4159
  181SLPC   H3X20683   1.508   1.825   2.722  0.6405  1.9944  3.3926
  181SLPC   H3Y20684   1.628   1.945   2.692 -0.1620  0.9943  2.4449
  181SLPC   C3420685   1.693   1.770   2.813  1.2520  0.0408 -0.0325
  181SLPC   H4X20686   1.667   1.662   2.819 -0.6790  0.5204  1.7305
  181SLPC   H4Y20687   1.667   1.822   2.908 -2.9642  0.7024 -1.3251
  181SLPC   C3520688   1.841   1.774   2.807 -0.7630  0.7899 -0.7476
  181SLPC   H5X20689   1.884   1.725   2.718  2.3130 -0.1377  1.0784
  181SLPC   H5Y20690   1.888   1.724   2.895 -1.0229  1.3044 -0.3075
  181SLPC   C3620691   1.892   1.919   2.795  0.5775 -0.3232  0.0618
  181SLPC   H6X20692   1.835   1.988   2.862  0.6741 -0.3388  0.1611
  181SLPC   H6Y20693   1.869   1.968   2.698  0.9135  2.9810  1.5093
  181SLPC   C3720694   2.033   1.943   2.846 -0.6917  0.0669 -0.2323
  181SLPC   H7X20695   2.112   1.920   2.771 -0.9065 -1.1383 -0.1076
  181SLPC   H7Y20696   2.053   1.868   2.926 -0.5138 -1.5428 -1.7207
  181SLPC   C3820697   2.043   2.087   2.894  0.2096 -0.2195 -0.3526
  181SLPC   H8X20698   1.982   2.109   2.984  0.3230  0.6525 -0.4758
  181SLPC   H8Y20699   2.004   2.160   2.819 -0.2640 -0.1692 -0.0631
  181SLPC   C3920700   2.183   2.131   2.942  0.5940 -0.8378 -0.1604
  181SLPC   H9X20701   2.196   2.242   2.942 -0.6770 -0.6684 -0.8748
  181SLPC   H9Y20702   2.262   2.097   2.872  1.1891  0.0930  0.0456
  181SLPC  C31020703   2.216   2.093   3.091 -0.4008  0.2306  0.5197
  181SLPC  H10X20704   2.326   2.105   3.095 -0.1571 -1.5131  0.1296
  181SLPC  H10Y20705   2.196   1.984   3.098  0.1089  0.1613  1.0271
  181SLPC  C31120706   2.139   2.173   3.199 -0.5123 -0.1264  1.4629
  181SLPC  H11X20707   2.029   2.159   3.190 -0.3410 -0.2673 -1.1262
  181SLPC  H11Y20708   2.156   2.279   3.169  0.6312 -0.6210  0.2353
  181SLPC  C31220709   2.203   2.158   3.334 -0.8763 -0.7211 -1.2305
  181SLPC  H12X20710   2.169   2.242   3.399  1.4905 -0.2338 -0.5270
  181SLPC  H12Y20711   2.314   2.167   3.328 -0.9382 -0.0376 -1.4592
  181SLPC  C31320712   2.174   2.031   3.408  0.2017  0.4377 -0.4243
  181SLPC  H13X20713   2.214   1.947   3.347 -0.8830 -0.4624  0.0756
  181SLPC  H13Y20714   2.064   2.023   3.420  0.2496  0.5066  0.0526
  181SLPC  C31420715   2.251   2.023   3.539 -0.7229 -0.4428  0.4362
  181SLPC  H14X20716   2.221   2.116   3.593  0.1818  1.2273 -1.7749
  181SLPC  H14Y20717   2.360   2.028   3.520 -0.5097 -2.6587  0.8887
  181SLPC  C31520718   2.207   1.890   3.609 -0.5996  0.5319 -0.3202
  181SLPC  H15X20719   2.232   1.802   3.546  0.3057  0.9596 -0.5833
  181SLPC  H15Y20720   2.097   1.887   3.625 -0.1860 -1.7808  2.9484
  181SLPC  C31620721   2.285   1.878   3.742  0.1187 -0.2862  0.7616
  181SLPC  H16X20722   2.393   1.901   3.742  0.1505 -0.2211 -1.3645
  181SLPC  H16Y20723   2.279   1.769   3.764 -0.8230 -0.4088 -0.0331
  181SLPC  C31720724   2.224   1.950   3.860  0.3504 -0.6253 -0.8031
  181SLPC  H17X20725   2.119   1.914   3.863 -0.1409  0.6878 -1.6580
  181SLPC  H17Y20726   2.218   2.056   3.830 -0.7470 -0.4882 -0.1605
  181SLPC  C31820727   2.304   1.919   3.988 -0.1647  0.1998  0.0110
  181SLPC  H18X20728   2.398   1.976   3.998 -0.0825  0.0139  0.3073
  181SLPC  H18Y20729   2.317   1.808   3.984  1.1055  0.2923  0.8931
  181SLPC  H18Z20730   2.229   1.938   4.068  0.3132 -0.5496  0.6584
  182SLPC     N20731   2.491   6.799   1.880  0.4442 -0.4425  0.5658
  182SLPC   C1320732   2.474   6.864   2.011  0.1054  0.6443 -0.7395
  182SLPC  H13A20733   2.401   6.814   2.072  1.4230  0.2663  0.6117
  182SLPC  H13B20734   2.563   6.871   2.073  0.6896  1.1948 -1.6180
  182SLPC  H13C20735   2.444   6.967   2.001 -0.2161  0.5360 -0.8820
  182SLPC   C1420736   2.593   6.869   1.800  0.3212  0.4057 -0.8706
  182SLPC  H14A20737   2.692   6.848   1.839  0.3443 -1.3736 -1.7801
  182SLPC  H14B20738   2.582   6.833   1.699 -2.0452 -1.7803  0.0638
  182SLPC  H14C20739   2.572   6.975   1.798  0.2874  0.3908 -2.1547
  182SLPC   C1520740   2.359   6.819   1.809 -0.4401 -0.0663  0.1981
  182SLPC  H15A20741   2.332   6.924   1.806  1.0881  0.4292  2.0751
  182SLPC  H15B20742   2.368   6.789   1.705 -0.5744  0.0792  0.1439
  182SLPC  H15C20743   2.279   6.762   1.853 -0.8146  0.4274  0.1612
  182SLPC   C1220744   2.527   6.652   1.893  0.0954  0.3892 -0.7987
  182SLPC  H12A20745   2.447   6.612   1.954  0.9370  0.0243  0.1040
  182SLPC  H12B20746   2.622   6.647   1.945  0.3245  0.3807 -1.2117
  182SLPC   C1120747   2.541   6.568   1.757  0.1673  0.2603  0.4864
  182SLPC  H11A20748   2.458   6.577   1.684  0.2989  0.5794  0.3741
  182SLPC  H11B20749   2.534   6.459   1.779 -2.2013 -0.2796 -2.3847
  182SLPC     P20750   2.804   6.552   1.724 -0.0045 -0.0691  0.0158
  182SLPC   O1320751   2.817   6.402   1.703  0.1610  0.6868 -0.4398
  182SLPC   O1420752   2.912   6.643   1.666  0.3013 -0.1491  0.1261
  182SLPC   O1220753   2.658   6.603   1.680  0.6836  0.2698  0.0223
  182SLPC   O1120754   2.798   6.566   1.881 -0.4698  0.3124  0.1653
  182SLPC    C120755   2.932   6.586   1.943  0.1661 -0.0743  0.2854
  182SLPC    HA20756   2.997   6.496   1.935  1.6543  0.9876  0.2999
  182SLPC    HB20757   2.986   6.669   1.895  0.9515 -1.5886 -1.5837
  182SLPC    C220758   2.911   6.622   2.096 -0.3729  1.2410  0.5325
  182SLPC    HS20759   2.997   6.576   2.149 -0.9576  0.5610  0.9054
  182SLPC   O2120760   2.784   6.572   2.151 -0.0666  0.4724 -0.2436
  182SLPC   C2120761   2.775   6.438   2.154  0.3077 -0.4778 -0.5052
  182SLPC   O2220762   2.872   6.366   2.133  0.0901  0.2130 -0.7327
  182SLPC   C2220763   2.629   6.395   2.158 -0.3280 -0.2492 -0.4090
  182SLPC   H2R20764   2.565   6.481   2.131 -1.5019 -0.6794  0.9240
  182SLPC   H2S20765   2.622   6.315   2.081 -0.1703 -0.8685  0.2108
  182SLPC    C320766   2.921   6.777   2.121 -0.2856  0.1916 -0.2183
  182SLPC    HX20767   2.853   6.828   2.050  0.1288 -1.4599 -1.8883
  182SLPC    HY20768   3.023   6.809   2.094  0.4160 -1.9156 -0.2688
  182SLPC   O3120769   2.904   6.814   2.258  0.5463 -0.3859  0.0925
  182SLPC   C3120770   2.781   6.845   2.287  0.7690 -0.0112 -0.1134
  182SLPC   O3220771   2.701   6.892   2.210 -0.1093  0.3470  0.1275
  182SLPC   C3220772   2.761   6.811   2.435  0.6904  0.2477 -0.1840
  182SLPC   H2X20773   2.855   6.844   2.485  0.6987  1.6548 -1.0702
  182SLPC   H2Y20774   2.744   6.702   2.440  0.2381  0.3358  0.3822
  182SLPC   C2320775   2.606   6.335   2.300 -0.3718  0.9690 -0.5252
  182SLPC   H3R20776   2.679   6.261   2.339 -2.0110 -0.2073  0.4692
  182SLPC   H3S20777   2.517   6.269   2.290  1.4301 -1.4271 -1.7747
  182SLPC   C2420778   2.552   6.444   2.401  0.1360 -0.2124  0.3317
  182SLPC   H4R20779   2.464   6.486   2.348  0.7653 -0.5775 -1.0277
  182SLPC   H4S20780   2.638   6.514   2.405 -0.4095  0.4846  0.0458
  182SLPC   C2520781   2.518   6.410   2.543 -0.4441 -0.0328 -0.0735
  182SLPC   H5R20782   2.440   6.331   2.529 -1.6906  1.2873 -0.8551
  182SLPC   H5S20783   2.478   6.503   2.588  1.1441  0.0778  1.2151
  182SLPC   C2620784   2.633   6.357   2.627  0.6130  0.0153  0.4571
  182SLPC   H6R20785   2.729   6.407   2.598  2.2410 -1.6116  2.7466
  182SLPC   H6S20786   2.655   6.251   2.603  1.8320 -0.3823  2.9996
  182SLPC   C2720787   2.628   6.379   2.778  0.2411 -0.1459 -0.1515
  182SLPC   H7R20788   2.624   6.489   2.791 -0.1732 -0.3646  1.7836
  182SLPC   H7S20789   2.725   6.343   2.820  0.6612 -0.2090 -1.1300
  182SLPC   C2820790   2.507   6.326   2.856 -0.2340 -0.3810 -0.6663
  182SLPC   H8R20791   2.504   6.218   2.830  2.4036 -0.5340 -0.6406
  182SLPC   H8S20792   2.416   6.373   2.812 -0.1423 -0.1390 -0.5999
  182SLPC   C2920793   2.510   6.335   3.010  0.2882 -0.0673  0.3469
  182SLPC   H9R20794   2.437   6.407   3.049  0.5202  1.3029 -1.6023
  182SLPC  C21020795   2.590   6.265   3.093 -0.2174 -0.6062 -0.2356
  182SLPC  H10R20796   2.568   6.272   3.201 -1.3002 -2.3865 -0.2924
  182SLPC  C21120797   2.684   6.159   3.051  0.0867  0.5731 -0.9262
  182SLPC  H11R20798   2.698   6.144   2.942  1.8398 -0.6753 -0.5825
  182SLPC  H11S20799   2.637   6.068   3.095  1.0976 -0.1358 -1.2747
  182SLPC  C21220800   2.829   6.170   3.100 -0.3454  0.3449 -0.5016
  182SLPC  H12R20801   2.903   6.213   3.031 -0.8390  0.6811 -0.8235
  182SLPC  C21320802   2.862   6.126   3.225 -0.0680  0.1645  0.2209
  182SLPC  H13R20803   2.966   6.106   3.257  0.5096  0.3551 -1.4244
  182SLPC  C21420804   2.771   6.058   3.320 -0.1445  0.3839 -0.0367
  182SLPC  H14R20805   2.811   5.954   3.328 -0.5739  0.3836  3.2189
  182SLPC  H14S20806   2.670   6.045   3.276  0.6924 -0.7115 -1.7463
  182SLPC  C21520807   2.764   6.109   3.464 -0.1910 -0.0638  0.3632
  182SLPC  H15R20808   2.703   6.029   3.511 -0.0181  0.4644  1.5178
  182SLPC  H15S20809   2.716   6.209   3.471  2.0236  0.9679  1.5745
  182SLPC  C21620810   2.902   6.112   3.532  0.1614 -0.2485  0.5230
  182SLPC  H16R20811   2.943   6.215   3.517  0.3942 -0.4096  0.0453
  182SLPC  H16S20812   2.965   6.040   3.476  0.2964  0.6545 -0.5095
  182SLPC  C21720813   2.905   6.076   3.676 -0.1459 -0.1651  0.1972
  182SLPC  H17R20814   2.881   5.969   3.692 -0.0316 -0.7018 -2.6203
  182SLPC  H17S20815   2.822   6.134   3.722  0.2057  1.5083 -1.1463
  182SLPC  C21820816   3.037   6.109   3.740 -0.5460 -1.0059  0.0128
  182SLPC  H18R20817   3.127   6.095   3.676  1.0949 -0.8037  2.1469
  182SLPC  H18S20818   3.049   6.070   3.843 -1.1215 -0.4643  0.2900
  182SLPC  H18T20819   3.041   6.219   3.757 -1.0893 -0.9330 -0.3094
  182SLPC   C3320820   2.630   6.886   2.482  0.1401 -0.4459  0.6265
  182SLPC   H3X20821   2.541   6.860   2.421 -0.3420  0.0768  1.1049
  182SLPC   H3Y20822   2.649   6.995   2.489  1.6657 -0.7898  3.0619
  182SLPC   C3420823   2.598   6.839   2.624 -0.3774 -0.3246  0.2143
  182SLPC   H4X20824   2.681   6.878   2.687 -0.4274 -1.1236  0.7969
  182SLPC   H4Y20825   2.593   6.728   2.623 -1.8213 -0.2686 -0.1841
  182SLPC   C3520826   2.463   6.879   2.686 -0.4571  0.1655  0.3437
  182SLPC   H5X20827   2.396   6.830   2.612 -0.5372 -3.0437  2.3363
  182SLPC   H5Y20828   2.440   6.988   2.676  0.3788  0.1206 -3.5664
  182SLPC   C3620829   2.443   6.831   2.827  0.2470  0.7486 -0.2398
  182SLPC   H6X20830   2.446   6.720   2.815 -3.5800  0.6983 -2.0188
  182SLPC   H6Y20831   2.348   6.871   2.866 -1.1245 -1.0402 -1.5637
  182SLPC   C3720832   2.550   6.867   2.928 -1.1195 -0.4268 -0.9803
  182SLPC   H7X20833   2.566   6.977   2.921  0.8627 -0.6321 -0.3714
  182SLPC   H7Y20834   2.643   6.810   2.908 -2.6577 -2.8298 -1.7533
  182SLPC   C3820835   2.519   6.843   3.076 -0.8382 -0.7880 -0.3623
  182SLPC   H8X20836   2.442   6.916   3.109  0.3699  1.0945 -1.5426
  182SLPC   H8Y20837   2.613   6.865   3.130 -1.2941  0.2940  0.0100
  182SLPC   C3920838   2.489   6.690   3.109  0.3008  0.5884  0.0015
  182SLPC   H9X20839   2.574   6.627   3.075 -1.2159 -0.8369 -1.3000
  182SLPC   H9Y20840   2.403   6.641   3.057  1.1288 -4.6887  2.8512
  182SLPC  C31020841   2.470   6.673   3.261  0.3337  0.4314  0.0470
  182SLPC  H10X20842   2.372   6.713   3.293 -0.2646 -0.7969 -0.1709
  182SLPC  H10Y20843   2.531   6.747   3.317 -0.7455  1.2976  0.1177
  182SLPC  C31120844   2.485   6.533   3.321 -0.4094  0.1034 -0.9525
  182SLPC  H11X20845   2.591   6.512   3.348 -0.7012 -0.1680  0.0114
  182SLPC  H11Y20846   2.444   6.454   3.256  0.6283  0.6287 -2.3079
  182SLPC  C31220847   2.406   6.526   3.447  1.0221 -0.5361 -0.0723
  182SLPC  H12X20848   2.307   6.489   3.410  0.4186  1.1502 -0.2459
  182SLPC  H12Y20849   2.395   6.628   3.491 -0.8400 -1.0500  0.7736
  182SLPC  C31320850   2.459   6.429   3.550  0.0430  0.0352 -0.4904
  182SLPC  H13X20851   2.482   6.325   3.517 -0.9700  0.1176 -1.4976
  182SLPC  H13Y20852   2.380   6.427   3.628  1.3303 -0.6895  0.8487
  182SLPC  C31420853   2.591   6.487   3.616  0.1284 -0.5167  0.1867
  182SLPC  H14X20854   2.592   6.595   3.591  2.1030 -0.6574 -0.5398
  182SLPC  H14Y20855   2.674   6.436   3.562 -1.4621 -0.1128 -2.8405
  182SLPC  C31520856   2.598   6.474   3.765  0.5126 -0.3480 -0.6471
  182SLPC  H15X20857   2.590   6.366   3.789  0.8339 -0.0164  1.0619
  182SLPC  H15Y20858   2.514   6.525   3.817  2.1525  0.2267  1.5711
  182SLPC  C31620859   2.730   6.535   3.819 -0.7340 -0.4810  0.1529
  182SLPC  H16X20860   2.760   6.628   3.766 -0.2491 -0.5964  0.2182
  182SLPC  H16Y20861   2.805   6.459   3.787 -1.2647 -0.7196 -0.5664
  182SLPC  C31720862   2.729   6.575   3.965  0.4257  0.1961  0.0722
  182SLPC  H17X20863   2.643   6.639   3.993 -0.0066 -0.2851 -0.1212
  182SLPC  H17Y20864   2.815   6.637   3.997 -0.6767  2.1629 -0.5818
  182SLPC  C31820865   2.708   6.447   4.047 -0.3971 -0.1563  0.4560
  182SLPC  H18X20866   2.778   6.370   4.009 -1.4028 -1.4475  1.1520
  182SLPC  H18Y20867   2.610   6.397   4.029 -0.0445 -0.2699 -1.3322
  182SLPC  H18Z20868   2.716   6.459   4.157 -0.6332 -1.4889  0.6338
  183SLPC     N20869   0.188   4.025   2.230 -0.4703 -0.3445 -0.1757
  183SLPC   C1320870   0.175   4.161   2.169  0.2761 -1.3630  0.8957
  183SLPC  H13A20871   0.120   4.229   2.233  2.1997 -1.0489  2.3166
  183SLPC  H13B20872   0.270   4.202   2.135  0.7393 -2.9065  0.2286
  183SLPC  H13C20873   0.122   4.160   2.075  1.5164  2.3789 -0.0439
  183SLPC   C1420874   0.303   4.027   2.327  0.4212 -0.6337  0.5696
  183SLPC  H14A20875   0.324   3.925   2.358 -0.1713 -1.0888 -0.4598
  183SLPC  H14B20876   0.386   4.078   2.280  0.2271 -0.9154 -0.1024
  183SLPC  H14C20877   0.278   4.082   2.416 -2.9348  1.4694 -1.4570
  183SLPC   C1520878   0.220   3.930   2.121 -0.7971  0.2541  0.6804
  183SLPC  H15A20879   0.215   3.830   2.161 -1.1742  0.2965  0.7432
  183SLPC  H15B20880   0.149   3.928   2.039 -1.2447 -0.5206  1.0715
  183SLPC  H15C20881   0.314   3.952   2.074 -2.2645  2.1117 -1.6117
  183SLPC   C1220882   0.063   3.990   2.305 -0.0548 -0.4885 -0.8012
  183SLPC  H12A20883   0.031   4.073   2.366 -0.0551  0.3777 -1.9536
  183SLPC  H12B20884   0.078   3.909   2.375  2.8842 -0.5893 -1.4309
  183SLPC   C1120885  -0.057   3.949   2.223  0.7148  0.2503  0.6295
  183SLPC  H11A20886  -0.121   3.919   2.309  2.0055 -1.1627  1.1451
  183SLPC  H11B20887  -0.034   3.864   2.156 -4.0277 -0.0417 -1.0389
  183SLPC     P20888  -0.193   4.164   2.247  0.0579  0.2510  0.0107
  183SLPC   O1320889  -0.114   4.204   2.364 -0.4375  0.0351  0.3502
  183SLPC   O1420890  -0.262   4.262   2.161  0.9607  0.0966  0.0598
  183SLPC   O1220891  -0.109   4.065   2.154  0.0906 -0.1127  0.6265
  183SLPC   O1120892  -0.318   4.079   2.300 -0.3996  0.1021  0.3189
  183SLPC    C120893  -0.383   4.157   2.404 -0.2169  0.2196 -1.5589
  183SLPC    HA20894  -0.317   4.186   2.488  0.1558 -1.2595 -1.3006
  183SLPC    HB20895  -0.429   4.251   2.367  1.6435  2.6623  1.7897
  183SLPC    C220896  -0.488   4.074   2.474  0.9937  0.2173 -0.5687
  183SLPC    HS20897  -0.552   4.147   2.528  1.2320 -0.1401  0.2114
  183SLPC   O2120898  -0.424   3.975   2.547 -0.1032 -0.1616  0.4621
  183SLPC   C2120899  -0.371   4.010   2.664  0.0810  0.1182  0.1457
  183SLPC   O2220900  -0.390   4.116   2.721  0.3223  0.2158  0.3336
  183SLPC   C2220901  -0.284   3.894   2.713 -0.4388 -0.2014 -0.2061
  183SLPC   H2R20902  -0.267   3.821   2.631 -3.2497 -0.0409 -1.0315
  183SLPC   H2S20903  -0.191   3.948   2.740 -0.2706 -0.7564  0.3709
  183SLPC    C320904  -0.596   3.999   2.384 -0.1313  0.0643 -0.4310
  183SLPC    HX20905  -0.560   3.927   2.308 -2.0986  1.6240 -3.0133
  183SLPC    HY20906  -0.625   4.087   2.322  0.4307  0.3087 -0.3506
  183SLPC   O3120907  -0.705   3.947   2.463 -0.2595  0.0864  0.1981
  183SLPC   C3120908  -0.802   3.886   2.385 -0.3621 -0.7340 -0.3205
  183SLPC   O3220909  -0.804   3.901   2.264  0.5568  0.4202 -0.2917
  183SLPC   C3220910  -0.898   3.814   2.473  0.1758  0.3352 -1.0145
  183SLPC   H2X20911  -0.989   3.807   2.410  0.6946 -0.9433 -1.6580
  183SLPC   H2Y20912  -0.914   3.878   2.562  0.3128 -2.1274  0.8745
  183SLPC   C2320913  -0.341   3.831   2.834  1.5152  0.1135 -0.1180
  183SLPC   H3R20914  -0.438   3.779   2.815  1.2787  0.5049 -0.0040
  183SLPC   H3S20915  -0.367   3.914   2.903  0.1841  1.2908 -1.9214
  183SLPC   C2420916  -0.235   3.737   2.897 -1.2884  0.6432  0.2747
  183SLPC   H4R20917  -0.135   3.785   2.891  1.3676 -4.3522 -1.3415
  183SLPC   H4S20918  -0.239   3.648   2.831 -0.1461 -0.4978  1.6982
  183SLPC   C2520919  -0.254   3.701   3.042 -0.3090  0.3065 -0.4706
  183SLPC   H5R20920  -0.197   3.607   3.056  0.0407  0.1663 -2.4761
  183SLPC   H5S20921  -0.359   3.677   3.069  0.7256 -1.1972  2.6160
  183SLPC   C2620922  -0.204   3.811   3.138 -0.3698 -0.1028  0.1240
  183SLPC   H6R20923  -0.267   3.899   3.116  0.7633  0.8019  0.3897
  183SLPC   H6S20924  -0.106   3.854   3.107 -1.5438  1.8879 -0.9529
  183SLPC   C2720925  -0.203   3.766   3.281 -0.0315 -0.0350 -0.2774
  183SLPC   H7R20926  -0.141   3.674   3.281  1.0343  0.6792 -0.8232
  183SLPC   H7S20927  -0.305   3.758   3.326  0.6157  0.9620  1.4931
  183SLPC   C2820928  -0.136   3.874   3.380  0.1250 -0.3962  0.4338
  183SLPC   H8R20929  -0.187   3.970   3.357 -1.6395 -1.2327  0.6404
  183SLPC   H8S20930  -0.029   3.887   3.353 -0.2302  1.0950 -0.3497
  183SLPC   C2920931  -0.167   3.834   3.523 -0.1710 -0.0404 -0.2240
  183SLPC   H9R20932  -0.146   3.729   3.548  2.4449  0.5218  0.1796
  183SLPC  C21020933  -0.226   3.910   3.612  0.0647  0.9300 -0.8619
  183SLPC  H10R20934  -0.237   3.864   3.712  0.8549  0.3746 -1.0181
  183SLPC  C21120935  -0.269   4.049   3.602 -0.4328  0.4142 -0.6070
  183SLPC  H11R20936  -0.341   4.064   3.519  0.7402  0.9644 -1.5397
  183SLPC  H11S20937  -0.172   4.100   3.585 -0.2956  1.2764  2.2060
  183SLPC  C21220938  -0.340   4.116   3.717 -0.2991  0.3304  0.5503
  183SLPC  H12R20939  -0.424   4.059   3.760 -0.1239 -0.4397 -0.1156
  183SLPC  C21320940  -0.312   4.238   3.771 -0.5614  0.4598  0.7236
  183SLPC  H13R20941  -0.372   4.268   3.859 -1.6946 -1.4163  0.6504
  183SLPC  C21420942  -0.203   4.336   3.728  0.1622 -0.1911  0.7209
  183SLPC  H14R20943  -0.194   4.330   3.617  1.0722  2.7316  0.5647
  183SLPC  H14S20944  -0.108   4.326   3.784  1.1605 -0.4820 -0.9656
  183SLPC  C21520945  -0.259   4.476   3.747  0.2362  0.4308  0.3883
  183SLPC  H15R20946  -0.285   4.486   3.855  1.2857  2.2451  0.5156
  183SLPC  H15S20947  -0.353   4.476   3.688  0.4712 -1.6496 -0.0556
  183SLPC  C21620948  -0.158   4.581   3.706 -0.1026 -0.6078  0.2886
  183SLPC  H16R20949  -0.131   4.578   3.598 -0.5821 -0.9325  0.1744
  183SLPC  H16S20950  -0.063   4.558   3.759 -0.9950 -1.8692  1.4014
  183SLPC  C21720951  -0.203   4.726   3.747 -0.0788 -0.3149 -0.3888
  183SLPC  H17R20952  -0.268   4.767   3.667  1.6457  3.8068  0.0682
  183SLPC  H17S20953  -0.114   4.792   3.751 -1.2991  1.3347  1.1095
  183SLPC  C21820954  -0.267   4.737   3.889  0.1641 -0.3172 -0.5424
  183SLPC  H18R20955  -0.279   4.839   3.931  0.7277 -0.5104  0.1131
  183SLPC  H18S20956  -0.199   4.689   3.963  1.2467  0.9897 -0.6509
  183SLPC  H18T20957  -0.360   4.677   3.896  0.2397 -0.2944  1.2592
  183SLPC   C3320958  -0.849   3.675   2.521 -0.2375 -0.7923 -0.1561
  183SLPC   H3X20959  -0.804   3.612   2.442 -0.2490 -0.7413 -0.2036
  183SLPC   H3Y20960  -0.929   3.610   2.564 -0.2676 -0.3689  0.4332
  183SLPC   C3420961  -0.758   3.684   2.649  0.0809  0.3848 -0.4063
  183SLPC   H4X20962  -0.803   3.761   2.716 -1.9578 -0.6671 -0.4806
  183SLPC   H4Y20963  -0.660   3.715   2.608 -0.7343 -1.0922 -3.7420
  183SLPC   C3520964  -0.744   3.548   2.716 -0.8425 -0.0550  0.2790
  183SLPC   H5X20965  -0.711   3.467   2.648  0.6119  1.7022 -1.2647
  183SLPC   H5Y20966  -0.843   3.517   2.754 -0.5003 -2.9619 -0.9913
  183SLPC   C3620967  -0.647   3.557   2.835  0.2494 -0.5071  0.6275
  183SLPC   H6X20968  -0.681   3.638   2.902  1.2883 -1.0020  1.8087
  183SLPC   H6Y20969  -0.550   3.595   2.796 -0.9964 -0.4127 -2.6365
  183SLPC   C3720970  -0.643   3.425   2.912 -0.1608 -0.4236 -0.0378
  183SLPC   H7X20971  -0.604   3.346   2.844 -1.8683 -0.3991 -1.1082
  183SLPC   H7Y20972  -0.744   3.391   2.944  0.2196 -1.9346 -0.3715
  183SLPC   C3820973  -0.555   3.441   3.038  1.0046 -0.3381 -0.1322
  183SLPC   H8X20974  -0.603   3.515   3.106  1.5546  0.5024 -0.6364
  183SLPC   H8Y20975  -0.457   3.480   3.004 -0.2956  2.8319 -0.6051
  183SLPC   C3920976  -0.516   3.308   3.103  0.2344  0.8207 -0.2553
  183SLPC   H9X20977  -0.499   3.230   3.026  1.5354  0.0578  0.7528
  183SLPC   H9Y20978  -0.595   3.272   3.172 -0.8138  1.5453 -1.0419
  183SLPC  C31020979  -0.392   3.319   3.191 -0.7954 -0.5776  0.1672
  183SLPC  H10X20980  -0.309   3.347   3.122  0.2395 -0.7477  1.3057
  183SLPC  H10Y20981  -0.375   3.223   3.244  0.5673 -1.0528 -1.0516
  183SLPC  C31120982  -0.405   3.421   3.297  0.8433 -0.3963  0.0767
  183SLPC  H11X20983  -0.509   3.420   3.336  0.5803  3.1143 -0.1892
  183SLPC  H11Y20984  -0.403   3.522   3.249  1.6075  0.1647  1.2311
  183SLPC  C31220985  -0.306   3.428   3.417 -0.4502 -0.1591 -0.0917
  183SLPC  H12X20986  -0.339   3.512   3.481 -0.3856 -1.3167  1.5440
  183SLPC  H12Y20987  -0.202   3.450   3.385  0.7745 -0.3126  3.4133
  183SLPC  C31320988  -0.295   3.303   3.511  0.2763 -0.3458  0.1692
  183SLPC  H13X20989  -0.329   3.215   3.452  1.2309  0.2755 -1.3592
  183SLPC  H13Y20990  -0.354   3.335   3.599 -0.1187  0.2307 -0.3023
  183SLPC  C31420991  -0.148   3.272   3.556  0.1878 -0.2834  0.2536
  183SLPC  H14X20992  -0.109   3.371   3.588  0.4517 -0.6555  1.1316
  183SLPC  H14Y20993  -0.084   3.245   3.469 -0.1149 -1.1694  0.2989
  183SLPC  C31520994  -0.129   3.183   3.681 -0.2046 -0.6292 -0.0878
  183SLPC  H15X20995  -0.196   3.221   3.761  0.7146  5.1526 -1.5962
  183SLPC  H15Y20996  -0.025   3.203   3.713 -0.1947 -3.3206  1.9162
  183SLPC  C31620997  -0.145   3.031   3.656  0.5354  0.4279  0.5228
  183SLPC  H16X20998  -0.107   3.010   3.554  0.7122 -0.0781  0.6911
  183SLPC  H16Y20999  -0.255   3.014   3.645  0.7226 -0.7722  0.4544
  183SLPC  C31721000  -0.087   2.944   3.767  0.0407 -0.5012  0.2202
  183SLPC  H17X21001  -0.117   2.981   3.867 -2.0817 -1.3136 -0.0657
  183SLPC  H17Y21002   0.024   2.950   3.763  0.0866 -1.5073 -0.6151
  183SLPC  C31821003  -0.116   2.796   3.743  0.3494  0.6431  0.0841
  183SLPC  H18X21004  -0.082   2.743   3.834 -0.3823 -2.5716 -1.3834
  183SLPC  H18Y21005  -0.054   2.749   3.663 -0.1779 -0.3057  0.2223
  183SLPC  H18Z21006  -0.223   2.778   3.721  0.6165  0.3773 -1.1129
  184SLPC     N21007   6.786   5.497   1.613 -0.7941 -1.1295 -0.0150
  184SLPC   C1321008   6.666   5.578   1.654  0.5191  0.8276 -0.1491
  184SLPC  H13A21009   6.701   5.651   1.724  0.2435  0.8465 -0.0309
  184SLPC  H13B21010   6.633   5.634   1.567  0.2565 -0.8652 -1.1910
  184SLPC  H13C21011   6.577   5.533   1.694 -0.9012  2.7337 -1.0203
  184SLPC   C1421012   6.891   5.590   1.557 -0.4766  0.2670 -0.0496
  184SLPC  H14A21013   6.979   5.532   1.535 -0.6470 -1.0777  2.4986
  184SLPC  H14B21014   6.856   5.647   1.472 -2.1261 -0.9618 -0.2492
  184SLPC  H14C21015   6.935   5.642   1.641 -2.8707 -2.3443  3.0936
  184SLPC   C1521016   6.746   5.414   1.494 -0.4067  0.1855  0.0351
  184SLPC  H15A21017   6.834   5.368   1.451  1.6230  0.7265  3.2257
  184SLPC  H15B21018   6.672   5.342   1.527 -1.4220  1.6359  1.0812
  184SLPC  H15C21019   6.695   5.483   1.430  0.4315  2.3700  1.6090
  184SLPC   C1221020   6.845   5.406   1.724  0.7268 -0.7512 -0.0116
  184SLPC  H12A21021   6.763   5.346   1.761  1.7920 -1.6057  1.0351
  184SLPC  H12B21022   6.875   5.457   1.815  0.9707  0.4539 -0.7476
  184SLPC   C1121023   6.956   5.309   1.692 -0.0624  0.2138  0.3524
  184SLPC  H11A21024   6.922   5.244   1.609  2.1543 -3.6536  2.1944
  184SLPC  H11B21025   6.974   5.242   1.779 -0.9878  1.9983  2.0106
  184SLPC     P21026   7.172   5.443   1.761  0.5772 -0.1617  0.0316
  184SLPC   O1321027   7.249   5.333   1.822  0.0322 -0.1987  0.1436
  184SLPC   O1421028   7.247   5.560   1.708  0.6263 -0.1409 -0.3849
  184SLPC   O1221029   7.076   5.387   1.650 -0.0706 -0.0230  0.3552
  184SLPC   O1121030   7.064   5.509   1.865 -0.2558  0.1415  0.5091
  184SLPC    C121031   7.042   5.442   1.996 -0.0038 -0.0199 -0.4046
  184SLPC    HA21032   7.019   5.333   1.989 -1.3550  0.3066 -1.2171
  184SLPC    HB21033   7.133   5.454   2.058 -0.9753  0.4600  0.9566
  184SLPC    C221034   6.927   5.506   2.075  0.4962 -0.4291  0.5016
  184SLPC    HS21035   6.825   5.498   2.031 -0.0539 -0.3653  1.7113
  184SLPC   O2121036   6.952   5.650   2.078 -0.0085  0.0556  0.7382
  184SLPC   C2121037   6.854   5.731   2.083  0.1142  0.1794 -0.3927
  184SLPC   O2221038   6.734   5.702   2.092  0.2827 -0.4805 -0.2702
  184SLPC   C2221039   6.899   5.874   2.068  0.9571  0.0734  0.1548
  184SLPC   H2R21040   7.003   5.876   2.030  0.3986  0.7571 -1.3944
  184SLPC   H2S21041   6.839   5.917   1.985 -0.6519  1.4420  1.9016
  184SLPC    C321042   6.905   5.451   2.217 -0.1148 -0.2640 -0.3728
  184SLPC    HX21043   6.873   5.345   2.205  1.6427 -0.6873 -1.6355
  184SLPC    HY21044   6.815   5.501   2.259  0.3255  0.5182 -0.3338
  184SLPC   O3121045   7.015   5.459   2.315  0.4314 -0.4124  0.4555
  184SLPC   C3121046   7.034   5.567   2.380 -0.0255  0.8385  0.4315
  184SLPC   O3221047   6.946   5.653   2.404 -0.7801  0.4185 -0.2844
  184SLPC   C3221048   7.167   5.559   2.446  0.0412 -0.1850  0.0041
  184SLPC   H2X21049   7.235   5.510   2.372 -1.0574  0.3799 -1.4284
  184SLPC   H2Y21050   7.158   5.500   2.539  1.6914  2.6006  2.0739
  184SLPC   C2321051   6.879   5.970   2.189 -0.6042  0.7050  0.0738
  184SLPC   H3R21052   6.953   6.051   2.168 -1.6057  1.0198 -2.7553
  184SLPC   H3S21053   6.912   5.922   2.283  1.3126  2.8109  0.5804
  184SLPC   C2421054   6.743   6.034   2.210  0.0173 -0.3428 -0.3487
  184SLPC   H4R21055   6.658   5.974   2.171 -1.8991  1.9107  0.1364
  184SLPC   H4S21056   6.751   6.130   2.155  0.9063 -0.2305 -0.0509
  184SLPC   C2521057   6.712   6.064   2.361 -0.7468  0.6410  1.2038
  184SLPC   H5R21058   6.621   6.126   2.371 -0.9187  0.6986 -0.4310
  184SLPC   H5S21059   6.792   6.129   2.402 -0.9536  2.6095 -1.2234
  184SLPC   C2621060   6.693   5.940   2.456  0.1657  0.2094  0.4858
  184SLPC   H6R21061   6.792   5.889   2.452  0.8393  1.2197  2.7587
  184SLPC   H6S21062   6.607   5.875   2.430 -0.7650 -0.9697  5.4240
  184SLPC   C2721063   6.690   5.995   2.599  0.7136  0.0502  0.1272
  184SLPC   H7R21064   6.609   6.072   2.599 -1.8801 -2.5233 -0.2242
  184SLPC   H7S21065   6.789   6.043   2.618  1.6839 -1.6718 -0.3482
  184SLPC   C2821066   6.647   5.887   2.712 -0.1503  0.2061  0.5423
  184SLPC   H8R21067   6.539   5.866   2.700 -0.3379 -1.6257  4.1749
  184SLPC   H8S21068   6.662   5.941   2.808  3.0017  1.8332 -0.7252
  184SLPC   C2921069   6.714   5.754   2.698 -0.4760  0.3510 -0.4050
  184SLPC   H9R21070   6.766   5.739   2.602 -1.9546  2.6543 -1.6575
  184SLPC  C21021071   6.746   5.684   2.807  0.4456 -0.7045 -0.2796
  184SLPC  H10R21072   6.796   5.587   2.795  1.0994 -0.2935 -0.9734
  184SLPC  C21121073   6.705   5.721   2.952  0.0430  0.2117  0.5954
  184SLPC  H11R21074   6.598   5.749   2.956  0.3396  1.3781  0.9065
  184SLPC  H11S21075   6.741   5.823   2.981 -1.5717  1.0850 -0.3091
  184SLPC  C21221076   6.744   5.626   3.056 -0.0724 -0.3599 -0.7130
  184SLPC  H12R21077   6.831   5.564   3.030 -1.0314 -0.5876 -3.6639
  184SLPC  C21321078   6.676   5.597   3.173  0.3314  0.4286 -0.3811
  184SLPC  H13R21079   6.716   5.520   3.241  0.5801  1.4236  0.6185
  184SLPC  C21421080   6.546   5.661   3.221  0.8289 -0.4361 -0.4988
  184SLPC  H14R21081   6.475   5.586   3.263 -0.6831  0.8105 -0.7484
  184SLPC  H14S21082   6.498   5.715   3.136 -0.9853  0.1565  0.8403
  184SLPC  C21521083   6.576   5.769   3.327  0.5981 -0.2591 -0.2237
  184SLPC  H15R21084   6.620   5.706   3.407 -0.5273  0.0110  0.6400
  184SLPC  H15S21085   6.477   5.805   3.361  1.0591  0.2960  0.5657
  184SLPC  C21621086   6.672   5.892   3.300  0.1973  0.1742 -0.0758
  184SLPC  H16R21087   6.610   5.983   3.284  2.5115  2.4324  2.7680
  184SLPC  H16S21088   6.748   5.877   3.221  2.2983  0.5100  1.7994
  184SLPC  C21721089   6.746   5.924   3.429 -0.3799  0.4572  0.1883
  184SLPC  H17R21090   6.823   5.848   3.454 -0.1577  0.1990 -1.1939
  184SLPC  H17S21091   6.667   5.917   3.507 -2.1658  2.1997 -1.3260
  184SLPC  C21821092   6.797   6.071   3.436 -0.7102 -0.0985  0.5024
  184SLPC  H18R21093   6.865   6.092   3.351  2.0334 -0.9564  2.3406
  184SLPC  H18S21094   6.853   6.098   3.528  0.8035  1.4640 -0.8246
  184SLPC  H18T21095   6.704   6.133   3.434 -1.6225 -1.4242  0.7900
  184SLPC   C3321096   7.235   5.690   2.481  0.5263  0.2997  0.0177
  184SLPC   H3X21097   7.172   5.754   2.547 -1.2149  0.7668 -1.9928
  184SLPC   H3Y21098   7.253   5.751   2.390  1.9458 -0.9890 -0.6116
  184SLPC   C3421099   7.369   5.670   2.554 -1.0172 -0.2686 -0.0612
  184SLPC   H4X21100   7.423   5.765   2.575 -1.3342 -0.5799  2.5149
  184SLPC   H4Y21101   7.427   5.603   2.486 -2.4889 -2.7919  1.0261
  184SLPC   C3521102   7.360   5.605   2.689 -0.2822 -0.1169 -0.1254
  184SLPC   H5X21103   7.462   5.609   2.733 -0.4220  2.7233  0.1445
  184SLPC   H5Y21104   7.333   5.498   2.691 -2.5166  0.3203 -2.4032
  184SLPC   C3621105   7.286   5.683   2.800  0.0409 -0.8508  0.0089
  184SLPC   H6X21106   7.177   5.680   2.780 -0.6689 -0.6389  3.2231
  184SLPC   H6Y21107   7.320   5.789   2.801 -1.3468 -0.3625  2.3003
  184SLPC   C3721108   7.312   5.608   2.932 -0.1539 -0.0406  0.2184
  184SLPC   H7X21109   7.392   5.666   2.983  0.5845 -0.6462 -0.2317
  184SLPC   H7Y21110   7.342   5.502   2.922 -0.1831  0.0378 -0.8941
  184SLPC   C3821111   7.196   5.617   3.034 -0.0093 -0.0902 -0.1807
  184SLPC   H8X21112   7.115   5.555   2.989 -0.4994  1.2583 -1.2028
  184SLPC   H8Y21113   7.163   5.722   3.042 -0.9078 -0.3953  0.2916
  184SLPC   C3921114   7.242   5.586   3.177 -0.0853  0.0855  0.0705
  184SLPC   H9X21115   7.325   5.650   3.213 -1.5875  1.5533  1.0786
  184SLPC   H9Y21116   7.280   5.482   3.172 -1.5236 -0.4107 -1.9148
  184SLPC  C31021117   7.126   5.582   3.280  0.4279  0.5181 -0.1206
  184SLPC  H10X21118   7.064   5.494   3.252  0.8893  0.3223 -0.5468
  184SLPC  H10Y21119   7.072   5.678   3.265 -1.2198 -0.1660  1.1836
  184SLPC  C31121120   7.182   5.562   3.415  0.0379  0.5342 -0.3278
  184SLPC  H11X21121   7.249   5.644   3.450 -4.0860  3.6307  1.1963
  184SLPC  H11Y21122   7.246   5.473   3.398 -1.3412 -0.3603 -0.9220
  184SLPC  C31221123   7.076   5.530   3.528  0.3330 -0.0044  0.8830
  184SLPC  H12X21124   7.021   5.435   3.511 -0.2477  0.7071 -1.6497
  184SLPC  H12Y21125   7.008   5.617   3.520 -0.5574 -0.8851 -3.8226
  184SLPC  C31321126   7.130   5.537   3.674  0.0090  0.2150  0.0373
  184SLPC  H13X21127   7.234   5.501   3.682 -0.6689 -1.7334  0.6804
  184SLPC  H13Y21128   7.069   5.482   3.749 -0.4946 -1.8013 -1.7461
  184SLPC  C31421129   7.135   5.684   3.725 -0.3573 -0.2315  0.1512
  184SLPC  H14X21130   7.038   5.737   3.732  0.1004  0.5232  0.9206
  184SLPC  H14Y21131   7.202   5.743   3.659  2.8567 -3.9498 -0.3023
  184SLPC  C31521132   7.200   5.697   3.870 -1.0497  0.2597 -0.1805
  184SLPC  H15X21133   7.289   5.631   3.875  0.4167  1.9907 -1.6470
  184SLPC  H15Y21134   7.129   5.641   3.934  3.1657 -2.3405  2.7293
  184SLPC  C31621135   7.219   5.846   3.898 -0.2115  0.8914 -0.1659
  184SLPC  H16X21136   7.126   5.893   3.859 -1.0855 -0.8905 -0.3437
  184SLPC  H16Y21137   7.313   5.875   3.846  0.8798  0.2438  1.3880
  184SLPC  C31721138   7.239   5.889   4.040  0.3324 -0.9469 -0.3089
  184SLPC  H17X21139   7.328   5.836   4.081 -0.3732 -0.2234  2.3887
  184SLPC  H17Y21140   7.162   5.851   4.110  1.2402 -1.5398  0.4027
  184SLPC  C31821141   7.268   6.034   4.070  0.0476  0.4329  0.5095
  184SLPC  H18X21142   7.211   6.109   4.011 -2.4458  0.9993  3.3392
  184SLPC  H18Y21143   7.376   6.050   4.050  0.1946 -0.9460  0.0976
  184SLPC  H18Z21144   7.253   6.060   4.177 -1.9550 -2.0167  0.9287
  185POPC     N21145   4.570   5.686   6.349  0.3263  0.3489  0.0900
  185POPC   C1221146   4.669   5.565   6.364 -0.1768  0.3328 -0.0469
  185POPC  H12A21147   4.684   5.532   6.465  0.5651  2.8548  0.7479
  185POPC  H12B21148   4.766   5.603   6.335  0.2273 -0.5014  0.1813
  185POPC   C1321149   4.434   5.629   6.372 -0.0477 -0.0101  0.0323
  185POPC  H13A21150   4.413   5.540   6.315  0.1662 -1.0320  1.4988
  185POPC  H13B21151   4.424   5.595   6.474  1.8272 -1.5485 -0.2558
  185POPC  H13C21152   4.355   5.697   6.344 -0.4325  0.2728  1.7005
  185POPC   C1421153   4.596   5.800   6.441  1.0157  0.5352 -0.8334
  185POPC  H14A21154   4.590   5.778   6.546  1.0281  1.3344 -0.6539
  185POPC  H14B21155   4.695   5.840   6.424  0.7184  1.4990 -0.3698
  185POPC  H14C21156   4.534   5.886   6.419  2.1375  1.6328  0.1014
  185POPC   C1521157   4.579   5.744   6.208  0.4263  0.5939  0.4218
  185POPC  H15A21158   4.506   5.822   6.193  0.0381  0.5374  1.8887
  185POPC  H15B21159   4.567   5.667   6.133 -1.0566  1.4292 -0.2520
  185POPC  H15C21160   4.679   5.779   6.189  0.4173  0.3576 -0.0781
  185POPC   C1121161   4.651   5.438   6.275  0.3811 -0.3278  0.4729
  185POPC  H11A21162   4.741   5.377   6.298  0.4988  0.3955  2.0471
  185POPC  H11B21163   4.665   5.468   6.169 -1.1215  1.3819  0.6953
  185POPC     P21164   4.434   5.312   6.191  0.4427  0.2329  0.6897
  185POPC   O1321165   4.337   5.422   6.159  0.2187  0.3811 -0.3777
  185POPC   O1421166   4.376   5.183   6.219 -0.2442 -0.1047  0.6454
  185POPC   O1221167   4.528   5.360   6.310  0.2446 -0.0756  0.0770
  185POPC   O1121168   4.527   5.298   6.064 -0.1201 -1.0033  0.3120
  185POPC    C121169   4.620   5.190   6.045  0.0174  0.3316  0.2526
  185POPC    HA21170   4.602   5.108   6.117  1.6976 -2.3070 -2.0950
  185POPC    HB21171   4.723   5.219   6.075 -0.1069 -0.3151  1.3725
  185POPC    C221172   4.603   5.129   5.901 -0.2053 -0.0394 -0.6853
  185POPC    HS21173   4.681   5.050   5.894  0.8311  1.0839 -2.4693
  185POPC   O2121174   4.634   5.223   5.804  0.6609 -0.0573 -0.8388
  185POPC   C2121175   4.764   5.246   5.788  0.5559  0.5162 -0.1053
  185POPC   O2221176   4.854   5.183   5.835 -0.2196  0.0033 -0.7497
  185POPC   C2221177   4.773   5.361   5.700  0.8362 -0.6406 -0.6136
  185POPC   H2R21178   4.881   5.381   5.686  0.9602 -0.5626  0.3861
  185POPC   H2S21179   4.723   5.451   5.742  0.1189 -0.2554 -2.2294
  185POPC    C321180   4.463   5.059   5.872 -0.0861 -0.2456  0.1857
  185POPC    HX21181   4.443   4.999   5.963  1.8767 -2.1386 -0.5419
  185POPC    HY21182   4.477   4.994   5.782 -0.7114 -1.8676  1.2217
  185POPC   O3121183   4.366   5.166   5.857  0.1586  0.6370  0.4347
  185POPC   C3121184   4.355   5.205   5.727  0.7295  0.0143  0.6165
  185POPC   O3221185   4.408   5.146   5.631  0.2537  0.4014 -0.0377
  185POPC   C3221186   4.255   5.316   5.716  0.2441 -0.6614  0.0021
  185POPC   H2X21187   4.211   5.334   5.817 -0.2809 -3.3172  0.3183
  185POPC   H2Y21188   4.166   5.280   5.661  0.2744  1.5709 -1.6278
  185POPC   C2321189   4.727   5.339   5.558  0.4151 -0.4528 -0.0204
  185POPC   H3R21190   4.619   5.311   5.568  0.0609  0.8264 -0.1174
  185POPC   H3S21191   4.781   5.252   5.516 -1.2013 -1.1356 -0.8072
  185POPC   C2421192   4.745   5.465   5.471  0.1809  0.2173 -0.7307
  185POPC   H4R21193   4.846   5.509   5.491  0.9065 -1.1690 -1.2124
  185POPC   H4S21194   4.661   5.533   5.496  1.2146  1.1177  0.4158
  185POPC   C2521195   4.732   5.445   5.318  0.0691  0.3778  0.0756
  185POPC   H5R21196   4.634   5.398   5.295  0.3682  0.0041 -0.4637
  185POPC   H5S21197   4.801   5.361   5.295  0.5252  0.6104  0.5802
  185POPC   C2621198   4.758   5.564   5.227  0.3995  0.1790  0.3747
  185POPC   H6R21199   4.865   5.594   5.227  0.6069 -0.5185  0.7221
  185POPC   H6S21200   4.692   5.648   5.255  1.2889  0.4451  1.8112
  185POPC   C2721201   4.722   5.530   5.081 -0.5567 -0.5159 -0.3236
  185POPC   H7R21202   4.612   5.520   5.074 -0.8192  2.0619 -0.8865
  185POPC   H7S21203   4.766   5.437   5.040  2.6029 -0.3426  2.2612
  185POPC   C2821204   4.771   5.629   4.976 -0.8712 -0.1896 -0.1652
  185POPC   H8R21205   4.879   5.650   4.994 -0.7535 -1.6489  1.0028
  185POPC   H8S21206   4.732   5.729   5.006 -1.3182 -0.8986  1.7324
  185POPC   C2921207   4.718   5.615   4.833  0.2465 -0.1412 -0.0271
  185POPC   H9121208   4.622   5.562   4.822  1.3661 -1.8945 -2.1126
  185POPC  C21021209   4.788   5.636   4.715  0.1678 -0.7998  0.1283
  185POPC  H10121210   4.727   5.620   4.624 -1.0348 -1.5841  1.0322
  185POPC  C21121211   4.928   5.699   4.687  0.0972  0.4638 -0.0572
  185POPC  H11R21212   4.999   5.621   4.654 -1.1369 -1.2500  1.1892
  185POPC  H11S21213   4.956   5.743   4.785 -0.7530  2.1885 -0.5508
  185POPC  C21221214   4.932   5.820   4.588 -0.0401 -0.0555  0.0352
  185POPC  H12R21215   5.032   5.867   4.593 -1.3927  3.1115  0.1193
  185POPC  H12S21216   4.864   5.904   4.615 -1.5777 -1.0408 -0.5916
  185POPC  C21321217   4.912   5.781   4.439  0.6004  0.2598  0.2504
  185POPC  H13R21218   4.817   5.724   4.435  0.7895 -0.2338  1.7890
  185POPC  H13S21219   4.992   5.711   4.407 -1.4416 -0.9832 -2.5580
  185POPC  C21421220   4.914   5.897   4.333 -0.3204 -0.0016 -0.5614
  185POPC  H14R21221   5.021   5.926   4.323  0.1206 -0.1387  2.5756
  185POPC  H14S21222   4.851   5.980   4.371  0.6818  1.0739 -1.2144
  185POPC  C21521223   4.868   5.844   4.197 -0.9151  0.6866 -0.1737
  185POPC  H15R21224   4.873   5.937   4.137  2.3324  0.6410 -0.1478
  185POPC  H15S21225   4.770   5.793   4.187  0.4534 -1.7285 -2.6772
  185POPC  C21621226   4.971   5.763   4.108 -0.6532  0.7439 -0.2995
  185POPC  H16R21227   4.990   5.667   4.162  0.3797  0.5690 -0.9467
  185POPC  H16S21228   5.066   5.818   4.095 -0.3784  0.6751  1.2340
  185POPC  C21721229   4.913   5.722   3.961 -0.3705  1.3805  0.6243
  185POPC  H17R21230   4.806   5.692   3.972  0.0407  0.2092  1.7087
  185POPC  H17S21231   4.973   5.649   3.902 -1.7048  1.3072 -0.7010
  185POPC  C21821232   4.922   5.848   3.878 -0.0409  0.6023 -0.3368
  185POPC  H18R21233   4.888   5.841   3.773  1.1356  0.1911 -0.7072
  185POPC  H18S21234   5.028   5.880   3.870 -0.6652  2.4645 -2.3436
  185POPC  H18T21235   4.860   5.930   3.921  0.0775  0.2074  0.5996
  185POPC   C3321236   4.320   5.447   5.677  0.1930  0.1330  0.3448
  185POPC   H3X21237   4.425   5.452   5.712  1.6240 -1.3634 -3.2163
  185POPC   H3Y21238   4.253   5.523   5.723 -0.8267  0.4764 -1.5642
  185POPC   C3421239   4.340   5.458   5.526 -0.1858 -1.0583 -0.2007
  185POPC   H4X21240   4.243   5.423   5.484 -0.8657  1.1271 -0.5759
  185POPC   H4Y21241   4.421   5.393   5.489  0.9137 -0.2351  0.6804
  185POPC   C3521242   4.361   5.603   5.473 -0.5454  1.0158  0.7218
  185POPC   H5X21243   4.459   5.644   5.507  0.8286 -2.4653  1.3681
  185POPC   H5Y21244   4.282   5.670   5.515 -2.8909 -0.1834 -1.4889
  185POPC   C3621245   4.332   5.609   5.321  0.4486  0.9109 -0.5808
  185POPC   H6X21246   4.224   5.589   5.304  0.7140 -2.1658  0.5939
  185POPC   H6Y21247   4.383   5.527   5.266 -0.0333  0.6030 -0.5739
  185POPC   C3721248   4.384   5.742   5.271 -0.1264 -0.5294 -0.1960
  185POPC   H7X21249   4.494   5.738   5.284 -0.0687 -0.9574 -0.7555
  185POPC   H7Y21250   4.344   5.831   5.323 -0.2441 -1.3646  1.1866
  185POPC   C3821251   4.370   5.761   5.117  0.0664 -0.0005 -0.1269
  185POPC   H8X21252   4.263   5.765   5.086  0.4799  0.3375 -1.6342
  185POPC   H8Y21253   4.412   5.674   5.061 -0.3697 -0.5458  0.3773
  185POPC   C3921254   4.447   5.884   5.072 -0.2739  0.1499  0.3545
  185POPC   H9X21255   4.542   5.905   5.126  0.1588  1.3337 -0.8140
  185POPC   H9Y21256   4.381   5.966   5.107 -0.9104  0.6374 -1.8574
  185POPC  C31021257   4.465   5.906   4.920  0.2731 -0.7561 -0.1533
  185POPC  H10X21258   4.369   5.911   4.864 -0.5519 -1.6055  1.1220
  185POPC  H10Y21259   4.512   5.811   4.885 -1.3725 -1.3402 -0.8924
  185POPC  C31121260   4.542   6.037   4.894  0.5181 -0.3169  0.0860
  185POPC  H11X21261   4.642   6.035   4.941  1.4435  1.8237 -1.6273
  185POPC  H11Y21262   4.488   6.120   4.945  0.5651 -0.2460  0.0213
  185POPC  C31221263   4.535   6.062   4.739 -0.0908  0.0639  0.0649
  185POPC  H12X21264   4.428   6.067   4.710  0.4460  1.0488 -1.8848
  185POPC  H12Y21265   4.593   5.976   4.698 -0.8182  0.0218 -0.9201
  185POPC  C31321266   4.589   6.196   4.689 -0.2639  0.7065 -0.2249
  185POPC  H13X21267   4.696   6.198   4.718 -0.6005  0.3004  1.1613
  185POPC  H13Y21268   4.549   6.280   4.750 -1.8515  0.5574 -0.9894
  185POPC  C31421269   4.566   6.225   4.542 -0.5252 -0.2043 -0.7844
  185POPC  H14X21270   4.598   6.149   4.467 -0.5997 -0.4047 -0.6130
  185POPC  H14Y21271   4.625   6.312   4.507  1.1559 -1.4753 -1.2724
  185POPC  C31521272   4.420   6.267   4.504 -0.9302 -0.4549  0.3947
  185POPC  H15X21273   4.396   6.362   4.557 -0.9401  0.0272 -0.4582
  185POPC  H15Y21274   4.362   6.182   4.547  0.5336 -0.6131  2.2075
  185POPC  C31621275   4.420   6.304   4.354  0.5653  0.4131 -0.4377
  185POPC  H16X21276   4.437   6.213   4.292 -0.7418 -0.8424  0.9669
  185POPC  H16Y21277   4.496   6.382   4.331  1.5891 -0.6582 -0.8280
  185POPC  H16Z21278   4.321   6.340   4.320  0.3542 -2.1671 -2.8972
  186POPC     N21279   2.004   0.943   6.590  0.5567 -0.3385 -0.2135
  186POPC   C1221280   1.976   0.977   6.449 -0.0000  0.9843 -0.6228
  186POPC  H12A21281   1.951   0.889   6.392  1.0407  0.2901 -0.0372
  186POPC  H12B21282   2.068   1.002   6.400  0.7348 -1.1190 -0.4327
  186POPC   C1321283   2.065   1.056   6.672 -0.2504 -0.0815 -0.4569
  186POPC  H13A21284   2.018   1.151   6.651  0.3038  0.0069 -1.3817
  186POPC  H13B21285   2.072   1.043   6.779 -0.8832  0.0093 -0.3957
  186POPC  H13C21286   2.162   1.077   6.630  0.1360  0.2140  0.5715
  186POPC   C1421287   1.884   0.887   6.662 -0.2714  0.3853 -0.4075
  186POPC  H14A21288   1.807   0.963   6.670  0.1083  0.9857 -1.9583
  186POPC  H14B21289   1.844   0.798   6.616 -1.3750 -0.4658  2.0372
  186POPC  H14C21290   1.914   0.850   6.758 -0.4918 -3.2582 -1.6008
  186POPC   C1521291   2.102   0.832   6.599 -0.1165  0.8537 -0.0292
  186POPC  H15A21292   2.201   0.846   6.558  0.3771  1.0172  1.1661
  186POPC  H15B21293   2.074   0.746   6.541  1.6053  1.5865 -2.1142
  186POPC  H15C21294   2.119   0.807   6.703  0.5924 -0.1453 -0.3718
  186POPC   C1121295   1.878   1.097   6.431  0.4182 -0.0288 -0.6254
  186POPC  H11A21296   1.908   1.197   6.470 -0.5040  0.3773 -0.9319
  186POPC  H11B21297   1.791   1.071   6.495  0.8142 -0.7244 -0.3544
  186POPC     P21298   1.696   1.140   6.254 -0.0018 -0.1160  0.2119
  186POPC   O1321299   1.694   1.279   6.208 -0.2042  0.7744  0.0006
  186POPC   O1421300   1.605   1.108   6.370  1.0146  0.3501  0.5200
  186POPC   O1221301   1.848   1.113   6.292 -0.2321  0.8626  0.2672
  186POPC   O1121302   1.655   1.053   6.129 -0.2730 -0.2244  0.5305
  186POPC    C121303   1.719   0.929   6.099  0.1003 -0.6043  0.0503
  186POPC    HA21304   1.814   0.911   6.154  0.1193 -0.3567  0.0997
  186POPC    HB21305   1.740   0.927   5.990  0.4691 -0.7550  0.1216
  186POPC    C221306   1.640   0.802   6.129  0.1445  0.0336  0.1988
  186POPC    HS21307   1.639   0.795   6.240 -1.1147  2.9264  0.4627
  186POPC   O2121308   1.701   0.695   6.060  0.1140 -0.1344  0.0781
  186POPC   C2121309   1.671   0.573   6.099  0.2206 -0.3504 -0.3928
  186POPC   O2221310   1.603   0.535   6.196  0.1893 -0.4435  0.6773
  186POPC   C2221311   1.757   0.479   6.017 -0.2803  0.1405 -0.4516
  186POPC   H2R21312   1.700   0.384   6.017  1.0757 -0.6996 -0.5541
  186POPC   H2S21313   1.853   0.465   6.071 -0.4784  1.9742  0.4716
  186POPC    C321314   1.489   0.820   6.092  0.5381 -0.2365  0.6221
  186POPC    HX21315   1.460   0.909   6.152 -0.0807  0.7239 -1.0101
  186POPC    HY21316   1.424   0.739   6.131  0.5119 -0.1586  0.7398
  186POPC   O3121317   1.474   0.844   5.951  0.5185 -0.1548 -0.6694
  186POPC   C3121318   1.457   0.743   5.873  0.3978  0.3378 -0.1693
  186POPC   O3221319   1.443   0.625   5.905  0.0285 -0.1141  0.2616
  186POPC   C3221320   1.438   0.781   5.724  0.0705  0.2262 -0.2314
  186POPC   H2X21321   1.541   0.782   5.682  0.9979  0.4550  1.8958
  186POPC   H2Y21322   1.390   0.880   5.736 -1.4801 -0.6708  1.4352
  186POPC   C2321323   1.788   0.524   5.874 -0.6589  0.0804 -0.1304
  186POPC   H3R21324   1.853   0.613   5.888 -2.4779  1.4571 -0.0681
  186POPC   H3S21325   1.693   0.562   5.830  0.9329  2.9100 -1.4291
  186POPC   C2421326   1.839   0.406   5.790  0.1775 -0.2191 -0.2030
  186POPC   H4R21327   1.771   0.320   5.810  1.8449 -1.7516 -0.9225
  186POPC   H4S21328   1.940   0.377   5.825  0.5659  1.7833  0.4495
  186POPC   C2521329   1.849   0.430   5.641  0.1544  0.7235  0.0199
  186POPC   H5R21330   1.902   0.342   5.600 -0.6138  0.1446  0.2344
  186POPC   H5S21331   1.903   0.523   5.613  0.4415 -0.0930 -2.3452
  186POPC   C2621332   1.723   0.438   5.566  0.1874  0.0106  0.4642
  186POPC   H6R21333   1.665   0.529   5.594 -2.2490 -1.1107 -0.6528
  186POPC   H6S21334   1.663   0.348   5.588 -0.0728 -0.2458 -1.1353
  186POPC   C2721335   1.756   0.427   5.416 -0.2675  0.2227 -0.4129
  186POPC   H7R21336   1.772   0.317   5.417  0.4290  0.3253  0.1686
  186POPC   H7S21337   1.850   0.476   5.383  0.3996 -0.3183  0.6268
  186POPC   C2821338   1.640   0.473   5.323  0.5782  0.1143  0.7662
  186POPC   H8R21339   1.635   0.582   5.345  0.7292  0.1750  0.4982
  186POPC   H8S21340   1.548   0.422   5.359  0.5423 -2.0008 -2.0192
  186POPC   C2921341   1.657   0.455   5.175  0.1626 -0.4207 -1.0588
  186POPC   H9121342   1.758   0.422   5.146  0.1084 -0.6049 -1.0361
  186POPC  C21021343   1.569   0.493   5.077  0.1561  0.1214 -0.3901
  186POPC  H10121344   1.592   0.468   4.973  2.0603 -1.0027  0.2469
  186POPC  C21121345   1.429   0.556   5.102 -0.0881 -0.4059 -1.1321
  186POPC  H11R21346   1.439   0.666   5.112  1.5281 -0.7137  1.6903
  186POPC  H11S21347   1.389   0.522   5.201 -0.8741  1.0374 -0.9267
  186POPC  C21221348   1.322   0.524   4.994 -0.2352  0.2318 -0.2188
  186POPC  H12R21349   1.220   0.530   5.038 -0.0374  0.8279  0.1682
  186POPC  H12S21350   1.326   0.425   4.945 -2.3147  0.3170 -0.6549
  186POPC  C21321351   1.329   0.626   4.879  0.7348  0.0924 -0.0211
  186POPC  H13R21352   1.428   0.676   4.882 -0.1522  1.9429  1.7964
  186POPC  H13S21353   1.261   0.709   4.909  1.2714  0.5429 -0.0410
  186POPC  C21421354   1.295   0.559   4.741 -0.2190  0.1026 -0.6298
  186POPC  H14R21355   1.347   0.462   4.723 -0.4987  0.1700 -1.8242
  186POPC  H14S21356   1.333   0.627   4.662 -0.9035  0.9806 -0.2156
  186POPC  C21521357   1.143   0.547   4.720  0.6423  0.6836 -0.3682
  186POPC  H15R21358   1.097   0.648   4.722  0.6230  0.6759 -0.4356
  186POPC  H15S21359   1.096   0.493   4.804  2.0358  0.3759  0.2407
  186POPC  C21621360   1.106   0.475   4.591  0.1371 -0.3804 -0.2093
  186POPC  H16R21361   1.156   0.376   4.594  1.4424  0.1984 -1.7947
  186POPC  H16S21362   1.167   0.536   4.521 -0.1022  0.3719  0.2218
  186POPC  C21721363   0.957   0.460   4.556 -0.5379  0.8703 -0.4759
  186POPC  H17R21364   0.923   0.562   4.526 -0.1146  0.7115 -1.5622
  186POPC  H17S21365   0.896   0.434   4.645 -1.9797 -3.3106 -2.4009
  186POPC  C21821366   0.928   0.365   4.442  0.3294 -0.2915 -0.5286
  186POPC  H18R21367   0.963   0.260   4.456  1.5756 -0.3772 -3.6183
  186POPC  H18S21368   0.979   0.404   4.352 -2.3444  0.0458 -1.9920
  186POPC  H18T21369   0.821   0.369   4.414  0.7044  1.4687 -1.8452
  186POPC   C3321370   1.349   0.683   5.637 -0.0199  0.2348 -0.5846
  186POPC   H3X21371   1.241   0.672   5.662 -0.1820 -3.1784 -2.2345
  186POPC   H3Y21372   1.392   0.581   5.653  0.0516  0.0623 -1.7913
  186POPC   C3421373   1.356   0.712   5.485 -0.1350  0.2830  0.4622
  186POPC   H4X21374   1.277   0.655   5.431 -0.6122 -0.3448  1.7715
  186POPC   H4Y21375   1.453   0.672   5.449 -0.3306 -1.4997  1.7976
  186POPC   C3521376   1.341   0.861   5.428 -0.5011 -0.3522  0.1791
  186POPC   H5X21377   1.391   0.852   5.329  4.6398 -2.3016  2.5716
  186POPC   H5Y21378   1.409   0.928   5.485 -0.2231 -0.2468 -0.2655
  186POPC   C3621379   1.197   0.904   5.431  0.6234  0.2319 -0.0137
  186POPC   H6X21380   1.165   0.892   5.536  0.5065  2.0384  0.1896
  186POPC   H6Y21381   1.133   0.839   5.367 -3.3768  1.6427  2.2376
  186POPC   C3721382   1.173   1.050   5.385 -0.3335  0.0130 -0.2952
  186POPC   H7X21383   1.219   1.116   5.462 -0.0654  1.3742 -1.5772
  186POPC   H7Y21384   1.063   1.066   5.382 -0.3122  0.2393  0.1229
  186POPC   C3821385   1.214   1.086   5.245  0.2693 -0.1870 -0.0442
  186POPC   H8X21386   1.324   1.068   5.243  0.1430 -1.1711  1.0478
  186POPC   H8Y21387   1.209   1.195   5.225 -2.4845 -0.2391  0.0261
  186POPC   C3921388   1.141   1.012   5.129 -0.1695  0.2033 -0.5853
  186POPC   H9X21389   1.046   1.062   5.103 -1.8289 -2.6629 -0.4091
  186POPC   H9Y21390   1.115   0.910   5.165  1.2444 -0.1099 -0.3794
  186POPC  C31021391   1.238   0.996   5.006  0.1010  0.1792  0.2176
  186POPC  H10X21392   1.184   0.939   4.928 -2.1360 -0.1445  1.9035
  186POPC  H10Y21393   1.323   0.935   5.042 -0.4327 -1.0756 -0.5932
  186POPC  C31121394   1.291   1.122   4.936 -0.8602 -0.3602  0.4315
  186POPC  H11X21395   1.369   1.172   4.997  0.1439 -2.0876  0.6413
  186POPC  H11Y21396   1.203   1.189   4.926 -0.8285 -0.5350 -1.3640
  186POPC  C31221397   1.363   1.103   4.798 -0.0679 -0.4711  0.1801
  186POPC  H12X21398   1.299   1.071   4.712 -1.8097  0.4012  1.0897
  186POPC  H12Y21399   1.441   1.025   4.811  0.4724  0.0093 -0.1376
  186POPC  C31321400   1.438   1.232   4.754  0.4488  0.4601 -0.5212
  186POPC  H13X21401   1.483   1.209   4.655 -0.4994  1.3541 -1.1797
  186POPC  H13Y21402   1.516   1.256   4.830 -0.0629 -3.2359  1.3505
  186POPC  C31421403   1.347   1.357   4.728 -0.6660  0.3919  0.2059
  186POPC  H14X21404   1.300   1.401   4.818 -1.3580 -0.7565  0.4186
  186POPC  H14Y21405   1.272   1.318   4.656  1.0923 -0.5061 -1.2308
  186POPC  C31521406   1.433   1.472   4.663  0.0328 -0.0890 -0.5827
  186POPC  H15X21407   1.476   1.425   4.572 -0.0542  2.3102 -1.9413
  186POPC  H15Y21408   1.514   1.489   4.737 -0.3395  0.8543 -0.3766
  186POPC  C31621409   1.357   1.597   4.627  0.7811  0.6141  0.5403
  186POPC  H16X21410   1.307   1.640   4.717 -0.4910 -1.7414  1.0328
  186POPC  H16Y21411   1.283   1.594   4.544 -1.3048  2.3412  2.1916
  186POPC  H16Z21412   1.436   1.667   4.592  2.4428 -1.0508  0.8016
  187POPC     N21413   5.183   6.933   2.352  0.1111  0.2076 -0.2279
  187POPC   C1221414   5.320   6.887   2.304 -0.8928  0.4258 -0.4087
  187POPC  H12A21415   5.392   6.903   2.383 -0.7622  1.0762 -0.6563
  187POPC  H12B21416   5.369   6.948   2.230  1.3525 -0.8869 -0.1236
  187POPC   C1321417   5.196   7.071   2.415  0.1116 -0.3293 -0.4243
  187POPC  H13A21418   5.251   7.138   2.351 -0.1859  0.1707 -0.1694
  187POPC  H13B21419   5.098   7.114   2.428 -0.1801 -0.5269 -1.8217
  187POPC  H13C21420   5.244   7.075   2.512 -1.7501  0.8559  0.4926
  187POPC   C1421421   5.092   6.941   2.237  0.0504  0.6588  0.3183
  187POPC  H14A21422   5.138   7.001   2.160  0.5919  0.6658  0.6404
  187POPC  H14B21423   5.081   6.842   2.195 -1.2858  0.6287  0.7073
  187POPC  H14C21424   4.997   6.975   2.275 -0.1781 -0.3346  0.6708
  187POPC   C1521425   5.126   6.844   2.448  0.5782 -0.1080 -0.5835
  187POPC  H15A21426   5.137   6.742   2.411 -0.0166 -0.1027 -0.7865
  187POPC  H15B21427   5.023   6.872   2.460  0.2095 -1.7252  0.3183
  187POPC  H15C21428   5.165   6.857   2.547  0.1689  0.1951 -0.4631
  187POPC   C1121429   5.338   6.744   2.265 -0.8867  0.0540  0.3081
  187POPC  H11A21430   5.441   6.740   2.225 -1.2176  0.9874 -0.6983
  187POPC  H11B21431   5.276   6.717   2.177  2.6484 -0.0444 -2.3515
  187POPC     P21432   5.422   6.642   2.492  0.4188  0.5911  0.2841
  187POPC   O1321433   5.449   6.771   2.556  0.4648 -0.2965 -0.0344
  187POPC   O1421434   5.548   6.578   2.447  0.1620  0.1016 -0.3707
  187POPC   O1221435   5.319   6.652   2.374  0.4067  0.5013 -0.0959
  187POPC   O1121436   5.340   6.543   2.590  0.1549  0.1089 -0.0138
  187POPC    C121437   5.318   6.404   2.565  0.3875  0.0047  0.0154
  187POPC    HA21438   5.360   6.353   2.654  0.8456  0.6333  0.1654
  187POPC    HB21439   5.364   6.357   2.475  0.6754 -1.0948  0.7114
  187POPC    C221440   5.167   6.357   2.573 -0.3945  0.1877  0.1922
  187POPC    HS21441   5.109   6.416   2.498 -0.9100  0.0511  0.4853
  187POPC   O2121442   5.115   6.390   2.704  0.0992 -0.0259 -0.0292
  187POPC   C2121443   5.104   6.516   2.738 -0.0811  0.3219 -0.2262
  187POPC   O2221444   5.082   6.603   2.655 -0.2131 -0.3393 -0.0543
  187POPC   C2221445   5.104   6.528   2.891 -0.5273 -0.2636  0.2963
  187POPC   H2R21446   4.998   6.548   2.920 -1.4303  0.7086 -3.2208
  187POPC   H2S21447   5.164   6.619   2.909  1.2886 -0.8678 -2.1400
  187POPC    C321448   5.157   6.211   2.539 -0.7065 -0.0986 -0.2123
  187POPC    HX21449   5.207   6.191   2.442 -0.3778  0.2242 -0.1143
  187POPC    HY21450   5.048   6.191   2.533 -0.7834  0.5409 -1.0714
  187POPC   O3121451   5.227   6.136   2.643  0.3404 -0.0777 -0.0882
  187POPC   C3121452   5.159   6.052   2.721 -0.2389 -0.7832 -0.1155
  187POPC   O3221453   5.038   6.039   2.716  0.0696 -0.1980 -0.1133
  187POPC   C3221454   5.242   5.965   2.818 -0.1196  0.6374  1.2118
  187POPC   H2X21455   5.342   6.014   2.814  1.7745 -2.8587  1.2549
  187POPC   H2Y21456   5.256   5.866   2.769  3.5589  1.1352  0.9769
  187POPC   C2321457   5.152   6.395   2.955 -0.0516 -0.4869 -0.3971
  187POPC   H3R21458   5.257   6.378   2.923  1.2113  1.0689  2.5024
  187POPC   H3S21459   5.088   6.309   2.927 -1.2210  0.4613 -0.7226
  187POPC   C2421460   5.142   6.413   3.109 -0.1299  0.0448  0.0970
  187POPC   H4R21461   5.040   6.440   3.142 -0.5235  3.0343 -2.9898
  187POPC   H4S21462   5.199   6.506   3.129  0.2844 -0.5198  1.6476
  187POPC   C2521463   5.200   6.294   3.190 -0.4477 -0.3624 -0.2568
  187POPC   H5R21464   5.303   6.263   3.162  0.3055 -1.0158  2.8646
  187POPC   H5S21465   5.144   6.204   3.158 -1.1167  0.1430 -0.5252
  187POPC   C2621466   5.201   6.313   3.349 -0.1876 -0.2981 -0.1940
  187POPC   H6R21467   5.111   6.372   3.377  1.4867  2.0472  0.6653
  187POPC   H6S21468   5.288   6.377   3.374  1.3070 -2.7239  1.2208
  187POPC   C2721469   5.209   6.173   3.413 -0.1185 -0.1998 -0.2806
  187POPC   H7R21470   5.294   6.113   3.375  0.2242  0.6647 -0.9221
  187POPC   H7S21471   5.111   6.124   3.393 -1.0583  0.8747  1.4871
  187POPC   C2821472   5.217   6.193   3.568 -0.4050 -0.2399  0.4113
  187POPC   H8R21473   5.136   6.262   3.601 -0.7741 -0.9169  0.9561
  187POPC   H8S21474   5.306   6.254   3.592 -0.3990 -0.0446 -0.0972
  187POPC   C2921475   5.210   6.058   3.632 -0.0473  0.2836 -0.2770
  187POPC   H9121476   5.164   5.977   3.573  0.8967  0.8835 -1.9054
  187POPC  C21021477   5.267   6.020   3.746  0.3218  0.2619 -0.2847
  187POPC  H10121478   5.243   5.922   3.791  0.8973  1.1278  2.0424
  187POPC  C21121479   5.335   6.110   3.847  0.1614  0.5059 -0.2574
  187POPC  H11R21480   5.329   6.220   3.829 -1.1729  0.7150  1.1853
  187POPC  H11S21481   5.439   6.074   3.861  0.1294  0.2008 -0.8080
  187POPC  C21221482   5.264   6.091   3.981 -0.1700 -0.2470 -0.2146
  187POPC  H12R21483   5.325   6.124   4.068 -0.2877  0.4401 -0.3902
  187POPC  H12S21484   5.252   5.983   4.005  0.2048 -0.3007 -0.2736
  187POPC  C21321485   5.128   6.148   3.990 -0.6348 -0.1131 -1.0478
  187POPC  H13R21486   5.054   6.073   3.957 -0.1384 -2.2573  2.2702
  187POPC  H13S21487   5.118   6.237   3.924 -2.3849  0.1055 -0.5445
  187POPC  C21421488   5.081   6.196   4.131 -0.4486  0.0920 -0.0065
  187POPC  H14R21489   5.157   6.268   4.170 -1.0873  0.5166  0.4862
  187POPC  H14S21490   5.080   6.110   4.201  1.2151 -2.6581 -3.1120
  187POPC  C21521491   4.948   6.267   4.114 -0.3112 -0.4109 -0.2414
  187POPC  H15R21492   4.864   6.206   4.073  1.2537 -0.6469 -3.3581
  187POPC  H15S21493   4.940   6.355   4.048 -1.5664  1.2469  1.9712
  187POPC  C21621494   4.891   6.302   4.250  0.4235 -0.3407  0.4431
  187POPC  H16R21495   4.858   6.209   4.302  1.3087 -0.6158  0.5300
  187POPC  H16S21496   4.788   6.344   4.244  1.9002  3.6723  0.5677
  187POPC  C21721497   4.960   6.405   4.347  0.0225  0.1874 -0.4181
  187POPC  H17R21498   5.054   6.353   4.377 -0.5016 -0.1052  0.7887
  187POPC  H17S21499   4.898   6.418   4.438  0.2194 -0.6738 -0.1453
  187POPC  C21821500   4.989   6.544   4.292  0.0381  0.2651  0.3751
  187POPC  H18R21501   5.042   6.609   4.364 -0.2180  0.1778  0.6436
  187POPC  H18S21502   4.898   6.606   4.284 -0.5877 -0.7741 -0.9854
  187POPC  H18T21503   5.049   6.545   4.198 -0.0135  1.8913  0.3349
  187POPC   C3321504   5.199   5.960   2.964  0.2058 -0.0225 -0.5880
  187POPC   H3X21505   5.096   5.920   2.960  1.1773 -2.9881  0.8886
  187POPC   H3Y21506   5.184   6.062   3.006 -0.9691 -0.6866  0.6610
  187POPC   C3421507   5.292   5.871   3.048  0.7061  0.4885  0.2639
  187POPC   H4X21508   5.390   5.922   3.058  1.5802 -0.6780 -1.8221
  187POPC   H4Y21509   5.314   5.776   2.995 -0.8715 -0.7432  1.6986
  187POPC   C3521510   5.227   5.831   3.176  0.0091  0.7685 -0.2457
  187POPC   H5X21511   5.159   5.744   3.159  0.1171  0.1940  1.9491
  187POPC   H5Y21512   5.163   5.915   3.210 -0.2269  0.6017 -0.2718
  187POPC   C3621513   5.332   5.775   3.271  0.2049 -0.1364  0.1595
  187POPC   H6X21514   5.425   5.836   3.268  0.5860 -0.4206  3.3935
  187POPC   H6Y21515   5.367   5.673   3.244  0.8926  0.2942 -0.6512
  187POPC   C3721516   5.291   5.772   3.420  0.5077  0.0095  0.2005
  187POPC   H7X21517   5.197   5.714   3.431  1.7733 -1.7907  2.4086
  187POPC   H7Y21518   5.279   5.879   3.448  0.4011 -0.3283  1.5143
  187POPC   C3821519   5.394   5.715   3.519 -0.1919 -0.0590  0.3098
  187POPC   H8X21520   5.427   5.612   3.493 -1.1837 -0.1232 -0.7785
  187POPC   H8Y21521   5.343   5.714   3.617  2.8738  2.8234  2.1540
  187POPC   C3921522   5.518   5.808   3.529  0.2133  0.6879  0.1693
  187POPC   H9X21523   5.475   5.907   3.554 -1.0010  0.9591 -2.6497
  187POPC   H9Y21524   5.570   5.810   3.431 -0.9515 -1.3288 -0.5432
  187POPC  C31021525   5.618   5.771   3.637 -0.7947 -0.0574  0.1734
  187POPC  H10X21526   5.692   5.853   3.637 -2.6027  1.6529  0.5977
  187POPC  H10Y21527   5.675   5.681   3.605 -2.1653 -0.8488 -0.1674
  187POPC  C31121528   5.551   5.762   3.778  0.1052  0.0592  0.4932
  187POPC  H11X21529   5.496   5.666   3.777 -0.6292  0.4463 -1.5382
  187POPC  H11Y21530   5.465   5.829   3.801 -1.2119 -0.7032 -1.9614
  187POPC  C31221531   5.657   5.769   3.891  0.0903 -0.1160  0.1995
  187POPC  H12X21532   5.728   5.852   3.871 -0.3841  0.7655  1.9820
  187POPC  H12Y21533   5.715   5.675   3.891 -1.8596 -1.3772  1.4400
  187POPC  C31321534   5.581   5.789   4.025 -0.2899  0.9652  0.7530
  187POPC  H13X21535   5.509   5.873   4.028 -0.5663  0.7453  0.3441
  187POPC  H13Y21536   5.647   5.819   4.109  0.9958  0.2954  0.0178
  187POPC  C31421537   5.497   5.669   4.075 -0.3583  0.5958  0.4128
  187POPC  H14X21538   5.570   5.593   4.109 -0.6425 -0.1936 -0.6911
  187POPC  H14Y21539   5.436   5.627   3.993 -0.5158  1.6037 -0.0054
  187POPC  C31521540   5.402   5.705   4.189  1.1062  0.0844  0.7294
  187POPC  H15X21541   5.317   5.757   4.140  1.3897 -1.3318 -1.4540
  187POPC  H15Y21542   5.455   5.764   4.267  1.3896  1.5342 -0.5006
  187POPC  C31621543   5.351   5.582   4.258 -0.3488  0.6880  0.6307
  187POPC  H16X21544   5.313   5.612   4.358  1.3625  2.1816  0.8868
  187POPC  H16Y21545   5.424   5.501   4.274 -2.0036 -0.3085  4.2235
  187POPC  H16Z21546   5.270   5.539   4.196  0.6794  1.2760 -1.1966
  188POPC     N21547   6.055   5.750   2.111 -0.3179  0.4456 -0.0589
  188POPC   C1221548   5.933   5.794   2.027 -0.4621 -1.1650 -0.3250
  188POPC  H12A21549   5.857   5.821   2.098 -0.8617 -1.1836 -0.7420
  188POPC  H12B21550   5.897   5.717   1.961 -1.6462 -0.0087 -1.0752
  188POPC   C1321551   6.136   5.859   2.171  0.1508 -1.1090 -0.2848
  188POPC  H13A21552   6.191   5.903   2.089  1.2152 -0.4531  0.7591
  188POPC  H13B21553   6.065   5.932   2.208  0.8158 -0.6449  0.0909
  188POPC  H13C21554   6.207   5.825   2.244 -0.8569  0.5746  1.5751
  188POPC   C1421555   6.015   5.664   2.221  0.2745  0.5209  0.3218
  188POPC  H14A21556   5.939   5.711   2.281 -0.1849  1.6863 -1.1321
  188POPC  H14B21557   5.982   5.569   2.182  1.8305 -0.6802  1.7568
  188POPC  H14C21558   6.108   5.639   2.271  0.3798  4.1520  2.3055
  188POPC   C1521559   6.151   5.670   2.016 -0.0829  0.5345  0.7188
  188POPC  H15A21560   6.247   5.641   2.056 -0.3138  0.6905  1.4026
  188POPC  H15B21561   6.172   5.730   1.929  0.5533 -2.4164 -1.3238
  188POPC  H15C21562   6.106   5.579   1.980 -0.4167  0.4673  1.2894
  188POPC   C1121563   5.965   5.927   1.945 -0.1209  0.0886 -0.3805
  188POPC  H11A21564   5.884   5.933   1.869 -1.2268 -0.0042  0.7719
  188POPC  H11B21565   6.053   5.912   1.879 -0.4129 -1.2269 -0.4951
  188POPC     P21566   5.864   6.142   2.062  0.0950 -0.1422 -0.6727
  188POPC   O1321567   5.732   6.082   2.040  1.1833  0.8536 -0.4346
  188POPC   O1421568   5.884   6.276   2.000 -1.1441 -0.2893 -1.0788
  188POPC   O1221569   5.983   6.047   2.017  0.2095  0.4163  0.0037
  188POPC   O1121570   5.887   6.149   2.220 -0.3262 -0.3089  0.0249
  188POPC    C121571   5.816   6.061   2.302 -0.4199  0.4164 -0.3819
  188POPC    HA21572   5.822   5.954   2.276  1.0167  1.2423 -4.0517
  188POPC    HB21573   5.708   6.086   2.302 -1.0560 -2.0151 -1.7791
  188POPC    C221574   5.859   6.064   2.459  0.6374 -0.2691 -0.0195
  188POPC    HS21575   5.836   6.167   2.494 -0.6328 -0.9187  1.1222
  188POPC   O2121576   6.000   6.040   2.474 -0.9215 -0.4463 -0.6384
  188POPC   C2121577   6.066   6.117   2.557 -0.3101 -0.3848 -0.6087
  188POPC   O2221578   6.027   6.222   2.601 -0.4519 -0.2276  0.8650
  188POPC   C2221579   6.203   6.052   2.602  0.1437  0.2921 -0.1576
  188POPC   H2R21580   6.271   6.137   2.622  0.4212 -0.3059  1.5575
  188POPC   H2S21581   6.241   5.983   2.524 -2.3155 -0.1457 -1.0819
  188POPC    C321582   5.770   5.966   2.537  0.6792  0.0903  0.0510
  188POPC    HX21583   5.805   5.862   2.517 -1.3211 -0.3895 -1.2342
  188POPC    HY21584   5.667   5.976   2.497  0.2681 -2.0726  0.3999
  188POPC   O3121585   5.774   5.981   2.681 -0.2112 -0.1288  0.2550
  188POPC   C3121586   5.700   5.894   2.755 -0.4093 -0.5197  0.5363
  188POPC   O3221587   5.609   5.830   2.707  0.1559 -0.0440  0.3644
  188POPC   C3221588   5.740   5.899   2.898 -0.1690  0.4583 -0.4550
  188POPC   H2X21589   5.691   5.991   2.937 -2.1572 -0.2725 -1.1032
  188POPC   H2Y21590   5.849   5.920   2.903 -0.0611 -0.2546  0.3292
  188POPC   C2321591   6.183   5.968   2.734 -0.0214  0.5130 -0.1388
  188POPC   H3R21592   6.107   6.010   2.803  1.0910  0.2200  1.3171
  188POPC   H3S21593   6.276   5.957   2.795 -0.4217  0.5979  0.4924
  188POPC   C2421594   6.165   5.821   2.688 -0.1756 -0.7315 -0.2522
  188POPC   H4R21595   6.268   5.796   2.655  0.9544  1.9711  0.9116
  188POPC   H4S21596   6.099   5.818   2.599 -0.1604  1.4923 -0.4100
  188POPC   C2521597   6.110   5.724   2.797  0.2798  0.4695 -0.6281
  188POPC   H5R21598   6.107   5.619   2.760 -1.4997  0.1802  0.2061
  188POPC   H5S21599   6.004   5.759   2.806  0.0666  0.4598 -2.7012
  188POPC   C2621600   6.170   5.736   2.939 -1.0746  0.2465  0.4400
  188POPC   H6R21601   6.178   5.841   2.974  0.1130 -0.3868  2.1980
  188POPC   H6S21602   6.276   5.705   2.927 -1.3750 -0.2744 -1.1624
  188POPC   C2721603   6.099   5.647   3.041 -0.1929 -0.6456 -0.0601
  188POPC   H7R21604   6.106   5.543   3.002 -0.2945 -0.8299  0.4071
  188POPC   H7S21605   5.989   5.658   3.034  0.0959  1.8144 -2.3491
  188POPC   C2821606   6.157   5.639   3.185 -0.0995 -0.3898  0.0307
  188POPC   H8R21607   6.204   5.735   3.216 -0.9406 -1.3039  4.8635
  188POPC   H8S21608   6.239   5.565   3.179 -1.5863 -2.0009 -2.3136
  188POPC   C2921609   6.068   5.590   3.301 -0.0399  0.6129  0.1023
  188POPC   H9121610   6.030   5.486   3.298 -1.8137  1.1554  1.5700
  188POPC  C21021611   6.011   5.675   3.398  0.3037  0.6104 -0.0204
  188POPC  H10121612   5.936   5.635   3.467  0.2018  0.1636 -0.3904
  188POPC  C21121613   6.005   5.827   3.401 -0.3226  0.1930 -0.1935
  188POPC  H11R21614   5.901   5.864   3.400 -0.2422  0.5604  1.8765
  188POPC  H11S21615   6.063   5.861   3.312 -0.8740 -0.4530 -0.8163
  188POPC  C21221616   6.063   5.894   3.533  0.9709 -0.0523  0.0422
  188POPC  H12R21617   5.988   5.884   3.615  2.1116  1.5192  1.3395
  188POPC  H12S21618   6.095   5.998   3.510  2.3897 -0.0898  1.6055
  188POPC  C21321619   6.190   5.820   3.573  0.4067 -0.2077 -0.0766
  188POPC  H13R21620   6.248   5.821   3.478 -0.3085 -0.6004 -0.5273
  188POPC  H13S21621   6.167   5.716   3.605 -0.0347 -0.2742 -0.6091
  188POPC  C21421622   6.260   5.899   3.685 -0.1592  0.2598 -0.7407
  188POPC  H14R21623   6.276   6.003   3.649 -1.9792  0.3502 -1.3813
  188POPC  H14S21624   6.358   5.854   3.712 -0.0353  2.2541  2.8825
  188POPC  C21521625   6.182   5.915   3.819 -0.2407  0.5397 -0.2248
  188POPC  H15R21626   6.085   5.963   3.799  0.5386  2.8816  1.2539
  188POPC  H15S21627   6.240   5.987   3.881 -1.1771  0.3566  0.9061
  188POPC  C21621628   6.155   5.776   3.889  0.9807 -0.5280  0.2673
  188POPC  H16R21629   6.248   5.719   3.910  0.5099 -1.3647  0.0927
  188POPC  H16S21630   6.098   5.723   3.810  2.2737 -0.8414 -0.4860
  188POPC  C21721631   6.083   5.787   4.027  0.7121 -0.7697 -0.1686
  188POPC  H17R21632   5.993   5.842   3.992 -0.8207 -1.0178  3.0603
  188POPC  H17S21633   6.145   5.847   4.096 -2.0032  1.3586  0.5943
  188POPC  C21821634   6.037   5.659   4.090  0.4418  0.3746 -0.0959
  188POPC  H18R21635   6.119   5.593   4.125  0.3526  1.2203  1.8559
  188POPC  H18S21636   5.977   5.609   4.010  0.9685 -1.4907  0.6079
  188POPC  H18T21637   5.968   5.666   4.177  0.0886  0.6803 -0.3979
  188POPC   C3321638   5.694   5.775   2.979 -0.1307 -0.3227 -0.3744
  188POPC   H3X21639   5.750   5.685   2.945  0.5889  0.4992 -1.4750
  188POPC   H3Y21640   5.588   5.749   2.957 -0.5805  0.1617  1.0930
  188POPC   C3421641   5.719   5.784   3.133  0.1817 -0.2384 -0.3551
  188POPC   H4X21642   5.664   5.871   3.175  1.8442 -0.0711  1.6141
  188POPC   H4Y21643   5.827   5.799   3.155  0.2778 -0.8440 -0.3970
  188POPC   C3521644   5.671   5.667   3.217 -0.2208  0.4772  0.0700
  188POPC   H5X21645   5.561   5.659   3.226 -0.1140  0.2587  1.2812
  188POPC   H5Y21646   5.711   5.681   3.319  2.1499 -0.5823 -0.6400
  188POPC   C3621647   5.729   5.530   3.166 -0.1810 -0.8712 -0.2888
  188POPC   H6X21648   5.834   5.531   3.131 -0.2400 -0.6741 -0.4636
  188POPC   H6Y21649   5.665   5.491   3.083 -0.5785 -2.3315  0.6730
  188POPC   C3721650   5.697   5.422   3.270 -0.4231 -0.5400  0.0013
  188POPC   H7X21651   5.588   5.416   3.291 -0.5288  2.7642  0.9329
  188POPC   H7Y21652   5.743   5.441   3.370  1.7447 -0.6423 -0.9248
  188POPC   C3821653   5.723   5.285   3.215 -0.2942  0.3209  0.0808
  188POPC   H8X21654   5.668   5.281   3.119 -1.2283 -0.0204  0.6115
  188POPC   H8Y21655   5.719   5.200   3.286  0.5161  0.2629  0.0722
  188POPC   C3921656   5.863   5.265   3.158  0.6708 -0.5190  0.6227
  188POPC   H9X21657   5.932   5.296   3.239 -1.1327  3.4673  0.8931
  188POPC   H9Y21658   5.876   5.330   3.069 -2.6932  0.9916  1.0621
  188POPC  C31021659   5.896   5.119   3.124 -0.1994  0.1561  0.7182
  188POPC  H10X21660   5.883   5.062   3.219  1.1883  0.0743  0.8727
  188POPC  H10Y21661   6.002   5.113   3.094 -1.0794 -2.8969 -2.2661
  188POPC  C31121662   5.813   5.049   3.011 -0.0170 -0.6335  0.4997
  188POPC  H11X21663   5.826   5.117   2.924 -1.4857 -1.5479 -0.4686
  188POPC  H11Y21664   5.705   5.037   3.033  0.1182 -4.0770 -0.1892
  188POPC  C31221665   5.859   4.901   2.976  0.0692 -0.0111  0.7976
  188POPC  H12X21666   5.772   4.855   2.925 -1.1100  0.7582  2.0385
  188POPC  H12Y21667   5.859   4.852   3.076 -2.5009  0.0598  0.8908
  188POPC  C31321668   5.982   4.882   2.892 -0.1654 -0.1259  0.0023
  188POPC  H13X21669   6.057   4.952   2.936  0.3704 -0.5391 -0.2520
  188POPC  H13Y21670   5.962   4.923   2.790  0.2479  2.4529  0.8638
  188POPC  C31421671   6.034   4.741   2.898  0.2393  0.1917 -0.2509
  188POPC  H14X21672   5.983   4.691   2.813  2.7331 -1.2651 -1.0022
  188POPC  H14Y21673   6.012   4.682   2.990  0.3840  1.2426  0.4766
  188POPC  C31521674   6.191   4.727   2.886 -0.2527 -0.2414 -0.3507
  188POPC  H15X21675   6.211   4.777   2.789 -3.1248  1.9335  0.0758
  188POPC  H15Y21676   6.209   4.617   2.874  0.8579  0.1594 -3.2315
  188POPC  C31621677   6.270   4.780   3.006 -0.8600  0.7352  0.5859
  188POPC  H16X21678   6.380   4.763   2.998 -0.9904 -0.4148  0.9818
  188POPC  H16Y21679   6.245   4.729   3.101  1.6205 -2.1536 -0.1584
  188POPC  H16Z21680   6.254   4.889   3.015  0.0429  0.8917  0.3464
  189SAPI   C1221681   5.526   6.027   6.654 -0.1334 -0.3984  0.4141
  189SAPI    H221682   5.613   5.960   6.671  0.0004 -0.4005 -0.2246
  189SAPI    O221683   5.410   5.975   6.726 -0.3971 -0.3118  0.6315
  189SAPI   HO221684   5.453   5.896   6.760  2.7189  1.8155  2.1421
  189SAPI   C1321685   5.570   6.163   6.709  0.0470  0.2307  0.1056
  189SAPI    H321686   5.659   6.188   6.648  0.8376 -0.7346  0.8321
  189SAPI    O321687   5.616   6.153   6.845 -0.0690 -0.5820 -0.1276
  189SAPI   HO321688   5.554   6.115   6.907  1.4319 -0.8967  1.2430
  189SAPI   C1421689   5.461   6.272   6.701  0.3749  0.1121  0.3531
  189SAPI    H421690   5.378   6.237   6.765 -0.1068 -2.0024 -1.3262
  189SAPI    O421691   5.499   6.393   6.761 -0.4032 -0.0543  0.3353
  189SAPI   HO421692   5.584   6.421   6.727 -0.9871  1.1506 -0.1960
  189SAPI   C1521693   5.398   6.282   6.556  0.2766 -0.7936  0.4103
  189SAPI    H521694   5.467   6.349   6.500 -0.9168  0.4228  0.3751
  189SAPI    O521695   5.279   6.354   6.553 -0.1694 -0.0618  0.0942
  189SAPI   HO521696   5.252   6.376   6.463 -0.8653  1.4459  0.6438
  189SAPI   C1621697   5.393   6.151   6.475  0.1203  0.6914 -0.7488
  189SAPI    H621698   5.305   6.098   6.518 -0.5356  2.8493  0.6873
  189SAPI    O621699   5.367   6.178   6.341 -0.4642 -0.1801  0.0315
  189SAPI   HO621700   5.442   6.225   6.302 -2.3038  1.3947 -1.8530
  189SAPI   C1121701   5.511   6.047   6.498 -0.8161  0.2745  0.0470
  189SAPI    H121702   5.605   6.100   6.469 -0.0316  0.3390  2.5115
  189SAPI     P21703   5.611   5.820   6.382 -0.1989  0.0687 -0.4766
  189SAPI   O1321704   5.571   5.678   6.415 -0.1892 -0.4953  0.7638
  189SAPI   O1421705   5.744   5.872   6.438 -0.4019  0.0593  0.1905
  189SAPI   O1221706   5.489   5.918   6.437  0.0417 -0.3463  0.0006
  189SAPI   O1121707   5.619   5.843   6.226 -0.1992 -0.5279 -0.3359
  189SAPI    C121708   5.506   5.806   6.140 -0.0999  0.1506 -0.9425
  189SAPI    HA21709   5.552   5.738   6.065  0.9042  1.7922 -1.8750
  189SAPI    HB21710   5.422   5.758   6.194 -0.1022  2.6189  1.4349
  189SAPI    C221711   5.441   5.934   6.077  0.3315  0.1797 -0.0978
  189SAPI    HS21712   5.376   5.976   6.158 -1.2151  2.4484 -2.3719
  189SAPI   O2121713   5.363   5.908   5.962 -0.1727  0.3183  0.3400
  189SAPI   C2121714   5.260   5.826   5.964 -0.4476  0.3845 -0.4352
  189SAPI   O2221715   5.217   5.775   6.067  0.4865  0.1520 -0.2642
  189SAPI   C2221716   5.199   5.815   5.827  0.2065  0.0165  0.1518
  189SAPI   H2R21717   5.197   5.923   5.804 -0.6289  0.0661  0.4445
  189SAPI   H2S21718   5.271   5.752   5.769  0.4553  1.3538 -1.0487
  189SAPI    C321719   5.546   6.042   6.045  0.9237 -0.2625 -0.3659
  189SAPI    HX21720   5.608   6.058   6.136 -1.3008 -0.8194  1.3500
  189SAPI    HY21721   5.487   6.134   6.027  2.2048  0.1028 -3.2495
  189SAPI   O3121722   5.630   6.002   5.936 -0.1449 -0.0962 -0.3344
  189SAPI   C3121723   5.690   6.103   5.892  0.3289  0.4264  1.2425
  189SAPI   O3221724   5.677   6.219   5.926  0.1865 -0.3100  1.3693
  189SAPI   C3221725   5.799   6.057   5.784  0.6695 -1.0278 -0.4302
  189SAPI   H2X21726   5.833   5.959   5.824 -0.4401 -1.7380 -1.1583
  189SAPI   H2Y21727   5.877   6.135   5.797 -1.5176  1.6226 -1.9870
  189SAPI   C2321728   5.064   5.745   5.808 -0.3512 -0.0285  0.1509
  189SAPI   H3R21729   4.999   5.798   5.882  0.2462  0.3100  0.4449
  189SAPI   H3S21730   5.059   5.640   5.843 -0.7901  1.0002  3.6099
  189SAPI   C2421731   5.001   5.779   5.673  0.7509  0.1910  0.2410
  189SAPI   H4R21732   5.011   5.885   5.641  1.1588  0.1038  0.0658
  189SAPI   H4S21733   4.892   5.761   5.684  0.6034  0.6807 -0.3937
  189SAPI   C2521734   5.057   5.703   5.559 -0.4483  0.3204 -0.1379
  189SAPI   H5R21735   5.098   5.605   5.588 -0.0985  0.0012 -1.6371
  189SAPI   C2621736   5.029   5.723   5.434  0.6913  0.7965  0.1312
  189SAPI   H6R21737   5.038   5.641   5.361 -4.2674  0.9947 -1.0177
  189SAPI   C2721738   4.946   5.842   5.381 -0.3858  0.2560 -0.8752
  189SAPI   H7R21739   4.895   5.882   5.471 -0.5968  1.3892 -1.4812
  189SAPI   H7S21740   4.869   5.808   5.308  1.0215 -1.5567 -1.6120
  189SAPI   C2821741   5.029   5.946   5.310 -0.0424  0.2765 -0.1405
  189SAPI   H8R21742   5.118   5.984   5.362  1.8270 -0.1375 -2.8164
  189SAPI   C2921743   5.003   6.007   5.199 -0.6553  0.3364  1.1540
  189SAPI   H9R21744   5.074   6.076   5.151 -1.0467 -1.5339 -2.4682
  189SAPI  C21021745   4.887   5.997   5.106  0.1173 -0.7042 -0.0328
  189SAPI  H10R21746   4.838   6.096   5.115 -0.6047 -1.1080  0.5969
  189SAPI  H10S21747   4.797   5.939   5.136 -0.6421 -0.7879 -2.2835
  189SAPI  C21121748   4.913   5.999   4.958  0.6042 -0.3014  0.1259
  189SAPI  H11R21749   4.875   5.904   4.917  0.2835 -0.0046 -0.2660
  189SAPI  C21221750   4.973   6.080   4.877 -0.5356 -0.0388  0.2247
  189SAPI  H12R21751   4.990   6.048   4.773  0.0171 -1.2427  0.6699
  189SAPI  C21321752   5.026   6.221   4.910  0.3790  0.2219  0.8268
  189SAPI  H13R21753   5.136   6.209   4.915  0.7743  1.8071 -2.0613
  189SAPI  H13S21754   4.985   6.249   5.009 -1.9276  1.2686 -0.3248
  189SAPI  C21421755   5.000   6.319   4.800 -0.4793  0.0560  0.5495
  189SAPI  H14R21756   4.895   6.329   4.770 -0.2037  2.1225  0.1129
  189SAPI  C21521757   5.092   6.389   4.727  0.8072 -0.4374 -0.0167
  189SAPI  H15R21758   5.062   6.446   4.638  3.1695 -0.3854 -0.8627
  189SAPI  C21621759   5.245   6.385   4.746 -0.2801 -0.2933 -0.2530
  189SAPI  H16R21760   5.276   6.290   4.796  0.8427 -0.1048 -0.5773
  189SAPI  H16S21761   5.277   6.474   4.804  0.7618  0.5352 -2.0140
  189SAPI  C21721762   5.329   6.401   4.615 -0.1839  0.5674  0.1711
  189SAPI  H17R21763   5.296   6.320   4.547  0.5289 -2.0458  2.7157
  189SAPI  H17S21764   5.435   6.386   4.644 -0.4062 -0.4623  0.4636
  189SAPI  C21821765   5.312   6.539   4.546 -0.8788  0.1781 -1.1353
  189SAPI  H18R21766   5.338   6.609   4.628  1.2918  0.1048 -1.6998
  189SAPI  H18S21767   5.205   6.561   4.526 -1.5208 -1.4741  0.2273
  189SAPI  C21921768   5.414   6.557   4.431 -0.0122 -0.3775 -0.0513
  189SAPI  H19R21769   5.375   6.493   4.348 -2.0620 -0.6674  1.0587
  189SAPI  H19S21770   5.517   6.529   4.461 -0.4027 -0.8800  0.8681
  189SAPI  C22021771   5.424   6.700   4.379 -0.7369 -0.2041 -0.0328
  189SAPI  H20R21772   5.472   6.761   4.458  4.9443 -1.6367 -1.9211
  189SAPI  H20S21773   5.320   6.737   4.365  0.2341  1.9150 -2.2371
  189SAPI  H20T21774   5.488   6.702   4.289 -0.2954 -1.1068  0.2429
  189SAPI   C3321775   5.736   6.068   5.642 -0.2626 -0.2144  0.3086
  189SAPI   H3X21776   5.822   6.045   5.576 -0.3059 -1.6269  0.7063
  189SAPI   H3Y21777   5.698   6.170   5.622  1.9989  0.3480 -1.4727
  189SAPI   C3421778   5.630   5.963   5.597  0.3637  0.2148  0.1487
  189SAPI   H4X21779   5.625   5.972   5.486  1.0803  2.9336  0.2499
  189SAPI   H4Y21780   5.528   5.992   5.632 -0.9868 -1.6993 -1.9311
  189SAPI   C3521781   5.671   5.826   5.650  0.2452  0.4517 -0.1955
  189SAPI   H5X21782   5.639   5.813   5.756 -1.0082  0.0819 -0.5942
  189SAPI   H5Y21783   5.780   5.820   5.631 -0.0554 -0.9656 -1.6551
  189SAPI   C3621784   5.612   5.710   5.559  0.1941  0.2623  0.0227
  189SAPI   H6X21785   5.648   5.609   5.589  0.0821 -0.0286 -0.7909
  189SAPI   H6Y21786   5.659   5.725   5.460  2.5766 -1.8527  0.7224
  189SAPI   C3721787   5.457   5.698   5.564  0.0246  0.9884  0.1634
  189SAPI   H7X21788   5.422   5.803   5.565 -0.3993  0.9179 -2.2705
  189SAPI   H7Y21789   5.426   5.650   5.660  0.9155 -0.3274 -0.1859
  189SAPI   C3821790   5.396   5.608   5.464  0.0714  0.2292  0.8146
  189SAPI   H8X21791   5.285   5.616   5.460  0.2022  1.8755 -0.4021
  189SAPI   H8Y21792   5.423   5.501   5.482  1.4038  0.5689  0.9078
  189SAPI   C3921793   5.436   5.639   5.318  0.2679 -0.8442 -0.7166
  189SAPI   H9X21794   5.387   5.567   5.249  0.2935 -1.9669  0.4111
  189SAPI   H9Y21795   5.546   5.625   5.307  1.0612  0.8502  3.3405
  189SAPI  C31021796   5.390   5.785   5.281  0.5661 -0.3526 -0.3395
  189SAPI  H10X21797   5.463   5.853   5.330 -0.3734 -0.1677  0.8522
  189SAPI  H10Y21798   5.291   5.813   5.322  1.0029 -2.9783  2.8576
  189SAPI  C31121799   5.397   5.826   5.132 -0.1294 -0.3292  0.0178
  189SAPI  H11X21800   5.505   5.817   5.103  0.0768  2.6418 -0.4954
  189SAPI  H11Y21801   5.370   5.934   5.131  0.4120 -0.1685  1.0901
  189SAPI  C31221802   5.289   5.749   5.054 -0.7900 -0.8489 -0.4935
  189SAPI  H12X21803   5.193   5.750   5.111 -0.2805  1.0327  0.4231
  189SAPI  H12Y21804   5.325   5.644   5.053 -1.8890 -1.2517  0.0233
  189SAPI  C31321805   5.270   5.797   4.914  0.6563 -0.4030  0.0263
  189SAPI  H13X21806   5.229   5.899   4.926 -0.3772 -0.8006  0.0143
  189SAPI  H13Y21807   5.189   5.733   4.872 -0.6177  1.0876  0.1319
  189SAPI  C31421808   5.400   5.813   4.835  0.6550 -0.1717  1.0633
  189SAPI  H14X21809   5.458   5.718   4.842  1.4849  0.4354  2.6951
  189SAPI  H14Y21810   5.468   5.890   4.878  0.6619  1.4552 -1.6257
  189SAPI  C31521811   5.382   5.835   4.678 -0.0774  0.0730  0.8238
  189SAPI  H15X21812   5.314   5.752   4.650 -0.8360  0.7244  0.7171
  189SAPI  H15Y21813   5.485   5.829   4.637  1.2930  0.9459  3.8158
  189SAPI  C31621814   5.310   5.969   4.649  0.3132  0.4888  0.4598
  189SAPI  H16X21815   5.378   6.044   4.693  0.8589 -2.0586  4.4459
  189SAPI  H16Y21816   5.212   5.972   4.702  0.8403  0.7410  1.4310
  189SAPI  C31721817   5.294   6.007   4.496 -0.2414  0.3321 -0.4610
  189SAPI  H17X21818   5.228   6.094   4.475  1.2585  1.4091 -0.8980
  189SAPI  H17Y21819   5.235   5.926   4.447 -3.2991  1.4720  1.0844
  189SAPI  C31821820   5.426   6.044   4.421 -0.1787 -0.2780 -0.0908
  189SAPI  H18X21821   5.507   5.967   4.429  0.9765  0.8229 -0.7955
  189SAPI  H18Y21822   5.453   6.145   4.457 -2.2948  0.7717 -1.3071
  189SAPI  H18Z21823   5.393   6.042   4.315 -0.3263 -0.1614 -0.0455
  190SAPI   C1221824   0.773   1.261   6.475  0.3100  0.2567  0.0871
  190SAPI    H221825   0.804   1.307   6.379 -0.5062  2.1190  0.6817
  190SAPI    O221826   0.804   1.117   6.469  0.4542 -0.3860 -0.6604
  190SAPI   HO221827   0.872   1.106   6.402  1.1554  0.8299 -0.1930
  190SAPI   C1321828   0.851   1.334   6.586 -0.0321  0.2990 -0.3161
  190SAPI    H321829   0.827   1.442   6.581  2.6813  0.9378 -1.2518
  190SAPI    O321830   0.993   1.327   6.565 -0.1409  0.2070 -0.8601
  190SAPI   HO321831   1.035   1.242   6.581 -0.5271  0.1139 -0.2805
  190SAPI   C1421832   0.809   1.279   6.722  0.1545 -0.2346 -0.2238
  190SAPI    H421833   0.869   1.187   6.740 -0.8861 -0.7584  0.7047
  190SAPI    O421834   0.836   1.370   6.829  0.4206  0.1340  0.2357
  190SAPI   HO421835   0.930   1.378   6.849  0.4483 -1.1505  0.6861
  190SAPI   C1521836   0.660   1.225   6.747 -0.6599  0.0582 -0.1817
  190SAPI    H521837   0.606   1.310   6.796  0.4483 -0.1327  1.4692
  190SAPI    O521838   0.652   1.119   6.849  0.3538 -0.6311 -0.2096
  190SAPI   HO521839   0.557   1.104   6.857 -0.2221  0.7986 -2.9884
  190SAPI   C1621840   0.580   1.195   6.624  0.4764  0.0811 -0.7952
  190SAPI    H621841   0.594   1.086   6.605 -3.8219 -0.5415 -1.3663
  190SAPI    O621842   0.444   1.202   6.653 -0.0847  0.3432 -0.4949
  190SAPI   HO621843   0.390   1.158   6.587 -3.1189  0.0428  1.9670
  190SAPI   C1121844   0.620   1.270   6.494  0.1246  0.0251  0.1089
  190SAPI    H121845   0.600   1.377   6.512  0.8233 -0.2407  2.9965
  190SAPI     P21846   0.444   1.316   6.303  0.0671 -0.2426 -0.0061
  190SAPI   O1321847   0.367   1.400   6.392 -0.4037 -0.1891 -0.7646
  190SAPI   O1421848   0.370   1.236   6.207 -0.9436  0.3240 -0.1740
  190SAPI   O1221849   0.545   1.217   6.381 -0.5091 -0.6395 -0.8839
  190SAPI   O1121850   0.544   1.410   6.223  0.2032  0.2453 -0.0176
  190SAPI    C121851   0.631   1.366   6.118 -0.1597  0.3926 -0.3644
  190SAPI    HA21852   0.695   1.283   6.155 -1.0207  0.0525  0.4107
  190SAPI    HB21853   0.576   1.320   6.033 -1.7302  0.6082  0.4899
  190SAPI    C221854   0.700   1.489   6.060  0.3728  0.6478 -0.3581
  190SAPI    HS21855   0.731   1.545   6.151 -0.7481 -0.3409  0.6705
  190SAPI   O2121856   0.605   1.567   5.978 -0.3550  0.0070 -0.1535
  190SAPI   C2121857   0.639   1.683   5.942 -0.2435  0.1909 -0.4346
  190SAPI   O2221858   0.743   1.748   5.970  0.0128 -0.3965 -0.6141
  190SAPI   C2221859   0.533   1.733   5.841 -0.1147  0.3421 -0.2190
  190SAPI   H2R21860   0.435   1.687   5.865 -0.9640  0.0701 -3.6248
  190SAPI   H2S21861   0.537   1.839   5.873 -0.1406 -0.4078  2.5214
  190SAPI    C321862   0.826   1.451   5.977  0.6159 -0.2574 -0.2480
  190SAPI    HX21863   0.902   1.410   6.047  1.5297  0.8100 -0.5917
  190SAPI    HY21864   0.869   1.545   5.936  1.3333 -1.3727 -2.1484
  190SAPI   O3121865   0.801   1.380   5.860  0.8285 -0.0255 -0.9172
  190SAPI   C3121866   0.806   1.250   5.866 -0.1666 -0.5334  0.2085
  190SAPI   O3221867   0.828   1.183   5.967  0.4390 -0.4160  0.1526
  190SAPI   C3221868   0.769   1.193   5.731 -0.3890  0.1587  0.3019
  190SAPI   H2X21869   0.850   1.233   5.667 -0.0892 -2.9522 -1.4868
  190SAPI   H2Y21870   0.662   1.221   5.714 -0.0542  0.4460 -1.5000
  190SAPI   C2321871   0.578   1.723   5.697 -0.6555  0.8960 -0.2017
  190SAPI   H3R21872   0.685   1.752   5.690  0.0712 -1.0210  1.6868
  190SAPI   H3S21873   0.518   1.787   5.629  0.2054  1.0069 -0.8785
  190SAPI   C2421874   0.594   1.579   5.640  0.3562  0.0927 -0.4558
  190SAPI   H4R21875   0.626   1.506   5.718  0.4151 -0.4256 -0.9576
  190SAPI   H4S21876   0.677   1.580   5.567  0.2710  0.9726 -0.5527
  190SAPI   C2521877   0.464   1.525   5.576  0.0337 -0.0676  0.3172
  190SAPI   H5R21878   0.383   1.535   5.650  0.5895  2.3028  0.6860
  190SAPI   C2621879   0.439   1.493   5.446  0.5267 -0.7996  0.1500
  190SAPI   H6R21880   0.334   1.471   5.420  0.3305  0.4352 -0.1904
  190SAPI   C2721881   0.538   1.505   5.336  0.4076  1.1477 -0.1749
  190SAPI   H7R21882   0.498   1.446   5.250  2.4606 -0.2820 -0.2188
  190SAPI   H7S21883   0.625   1.441   5.364 -0.8159  0.1425  1.4745
  190SAPI   C2821884   0.587   1.637   5.294 -0.5171  0.3991 -0.9950
  190SAPI   H8R21885   0.590   1.709   5.378 -2.5672 -1.9333  1.2572
  190SAPI   C2921886   0.618   1.681   5.172 -0.3050  0.1944  0.0727
  190SAPI   H9R21887   0.661   1.781   5.158  2.0365 -1.0220 -2.2404
  190SAPI  C21021888   0.613   1.600   5.043 -0.5998  0.5156 -0.0702
  190SAPI  H10R21889   0.582   1.496   5.069  0.1970  0.5246  0.9573
  190SAPI  H10S21890   0.712   1.595   4.994  0.5651  0.7608  2.1548
  190SAPI  C21121891   0.499   1.653   4.964  0.0797 -0.8124  0.2172
  190SAPI  H11R21892   0.403   1.657   5.017 -1.0377  1.5033 -1.8156
  190SAPI  C21221893   0.501   1.693   4.834  0.0608 -0.2162 -0.6622
  190SAPI  H12R21894   0.407   1.716   4.782  1.7204  2.0877 -2.9058
  190SAPI  C21321895   0.620   1.689   4.737  1.0377  0.4105  1.0944
  190SAPI  H13R21896   0.595   1.614   4.659  2.1769  0.1650  0.9604
  190SAPI  H13S21897   0.713   1.638   4.771  0.9875 -0.2227  0.3090
  190SAPI  C21421898   0.665   1.820   4.688 -0.5573  0.3627  0.4670
  190SAPI  H14R21899   0.713   1.881   4.767  4.9335 -2.3708 -0.2402
  190SAPI  C21521900   0.650   1.866   4.567  0.3463  0.3142 -0.1858
  190SAPI  H15R21901   0.690   1.965   4.542  1.0408  0.4634  1.3517
  190SAPI  C21621902   0.581   1.803   4.449  0.8973 -0.1901  1.3669
  190SAPI  H16R21903   0.485   1.853   4.428  0.7805 -0.8289  0.2885
  190SAPI  H16S21904   0.538   1.703   4.472 -1.2309  0.6625  1.2691
  190SAPI  C21721905   0.673   1.794   4.327  0.7408  0.3151  0.6582
  190SAPI  H17R21906   0.770   1.742   4.345  2.3135  2.4535 -1.0650
  190SAPI  H17S21907   0.709   1.891   4.286 -0.5615  1.0281  1.1608
  190SAPI  C21821908   0.619   1.698   4.221 -0.3655 -0.5424 -0.4000
  190SAPI  H18R21909   0.558   1.750   4.144  1.6288  1.8354 -0.4858
  190SAPI  H18S21910   0.560   1.633   4.289 -0.1326  0.2765  0.6165
  190SAPI  C21921911   0.730   1.619   4.151  0.2234 -0.4902 -0.2644
  190SAPI  H19R21912   0.689   1.550   4.074  0.0464  0.3546 -0.9478
  190SAPI  H19S21913   0.781   1.545   4.216  0.9671 -0.8106 -1.1837
  190SAPI  C22021914   0.841   1.707   4.090  0.2039  0.0789  0.4020
  190SAPI  H20R21915   0.800   1.785   4.022 -0.5608 -0.1696  0.5783
  190SAPI  H20S21916   0.906   1.639   4.031  0.1893 -0.0873  0.5805
  190SAPI  H20T21917   0.902   1.753   4.171 -0.4917  1.5536  0.1182
  190SAPI   C3321918   0.786   1.036   5.727  0.0014 -0.5182  0.1806
  190SAPI   H3X21919   0.695   0.982   5.761  1.0890 -1.8370  1.0608
  190SAPI   H3Y21920   0.864   1.006   5.799  0.8880  1.3254  0.0471
  190SAPI   C3421921   0.833   1.008   5.583 -0.1091  0.2642 -0.0377
  190SAPI   H4X21922   0.856   0.900   5.578 -2.1122 -0.2530  1.0184
  190SAPI   H4Y21923   0.932   1.052   5.556  0.0411  0.3222  0.5905
  190SAPI   C3521924   0.719   1.028   5.479 -0.5395  0.2451  0.1935
  190SAPI   H5X21925   0.700   1.137   5.474 -0.3267  0.2190 -1.6525
  190SAPI   H5Y21926   0.625   0.976   5.510 -0.7167  0.3018 -0.2469
  190SAPI   C3621927   0.765   0.974   5.341  0.5569  0.2928  0.3765
  190SAPI   H6X21928   0.812   0.873   5.348 -0.2848 -0.1557 -0.3125
  190SAPI   H6Y21929   0.844   1.042   5.302  0.3221 -0.6260 -1.8490
  190SAPI   C3721930   0.650   0.969   5.241  0.6720  0.5123 -0.1432
  190SAPI   H7X21931   0.566   0.921   5.296 -0.8786  3.3291  0.1813
  190SAPI   H7Y21932   0.676   0.909   5.151 -3.5212  0.7555 -1.7469
  190SAPI   C3821933   0.608   1.106   5.185 -0.2610  0.1917  0.3762
  190SAPI   H8X21934   0.700   1.168   5.181 -0.9432  1.1621 -1.5761
  190SAPI   H8Y21935   0.533   1.167   5.242 -2.6497 -2.0633 -0.1527
  190SAPI   C3921936   0.556   1.098   5.041 -0.2800 -1.3561  0.4682
  190SAPI   H9X21937   0.447   1.077   5.043 -0.4532 -1.4057 -2.8877
  190SAPI   H9Y21938   0.602   1.012   4.987 -0.1586 -0.2999 -1.1892
  190SAPI  C31021939   0.577   1.219   4.958  0.0981 -0.6358  0.4495
  190SAPI  H10X21940   0.682   1.254   4.954  0.1298 -0.8044 -2.0493
  190SAPI  H10Y21941   0.515   1.298   5.005 -2.4644 -2.5666  0.5508
  190SAPI  C31121942   0.538   1.203   4.811 -0.9964 -0.3013  0.6341
  190SAPI  H11X21943   0.444   1.148   4.791  0.0533 -1.7400 -0.5288
  190SAPI  H11Y21944   0.623   1.151   4.762 -1.0429  1.6007 -1.6147
  190SAPI  C31221945   0.532   1.343   4.738  0.1622  0.5060 -0.1916
  190SAPI  H12X21946   0.608   1.421   4.760 -1.4066  2.3744 -1.0387
  190SAPI  H12Y21947   0.439   1.395   4.769 -0.7667 -1.3953  0.3745
  190SAPI  C31321948   0.508   1.327   4.581 -0.3761 -0.2286  0.1661
  190SAPI  H13X21949   0.442   1.408   4.544  2.7375  2.5229  0.1833
  190SAPI  H13Y21950   0.457   1.230   4.564  2.4466 -1.3131 -3.4466
  190SAPI  C31421951   0.634   1.326   4.498 -0.3674 -0.1498  0.4261
  190SAPI  H14X21952   0.722   1.303   4.561 -0.1772 -1.5425 -0.3038
  190SAPI  H14Y21953   0.649   1.435   4.482  0.7322 -0.1807  1.1450
  190SAPI  C31521954   0.621   1.263   4.359 -0.8086 -0.3881  0.3652
  190SAPI  H15X21955   0.702   1.311   4.300 -0.0785 -0.2119  1.4883
  190SAPI  H15Y21956   0.529   1.296   4.306 -0.6479 -2.5543 -1.4430
  190SAPI  C31621957   0.644   1.108   4.367 -1.7387  0.2451  0.4500
  190SAPI  H16X21958   0.570   1.053   4.429 -1.4021 -4.1438 -2.5498
  190SAPI  H16Y21959   0.745   1.096   4.411 -2.2106 -0.1855  1.4379
  190SAPI  C31721960   0.639   1.041   4.230 -0.1251  0.2882 -0.2635
  190SAPI  H17X21961   0.651   0.934   4.254  0.5198  0.9495  2.7378
  190SAPI  H17Y21962   0.723   1.078   4.167 -0.7065 -2.0279 -2.5875
  190SAPI  C31821963   0.513   1.049   4.142 -0.2140 -0.5072 -0.1606
  190SAPI  H18X21964   0.486   1.155   4.124 -0.0348 -0.4914 -0.3390
  190SAPI  H18Y21965   0.436   0.986   4.191 -1.4492  1.4128  0.4819
  190SAPI  H18Z21966   0.535   1.003   4.043  1.8285 -1.8373  0.8349
  191SAPI   C1221967   4.268   3.504   1.359 -0.6809  0.3915  0.0909
  191SAPI    H221968   4.378   3.508   1.374 -0.2019  3.6932 -2.9385
  191SAPI    O221969   4.242   3.579   1.244 -0.3003 -0.1953  0.3452
  191SAPI   HO221970   4.288   3.662   1.258 -0.8824  0.4079 -1.1413
  191SAPI   C1321971   4.215   3.365   1.360  0.6220  0.4131  0.9510
  191SAPI    H321972   4.227   3.325   1.463 -0.7037 -0.7843  0.6696
  191SAPI    O321973   4.293   3.285   1.269 -0.1901 -0.0003 -0.0977
  191SAPI   HO321974   4.260   3.305   1.181  0.1100  0.6048 -0.0811
  191SAPI   C1421975   4.072   3.365   1.317 -0.4439 -0.1728 -0.3378
  191SAPI    H421976   4.077   3.407   1.214 -1.4516  2.7158  0.6774
  191SAPI    O421977   4.020   3.235   1.319  0.0351  0.3893 -0.2548
  191SAPI   HO421978   4.067   3.180   1.256 -0.6026  0.1356 -0.5216
  191SAPI   C1521979   3.979   3.468   1.383  0.1394  0.0392 -0.6087
  191SAPI    H521980   3.921   3.408   1.457  0.2059  0.9844  0.2257
  191SAPI    O521981   3.864   3.508   1.295  0.4937 -0.5290 -0.0644
  191SAPI   HO521982   3.785   3.468   1.332 -0.7245 -1.0168 -2.9329
  191SAPI   C1621983   4.049   3.581   1.458  0.4596  0.3846  0.3675
  191SAPI    H621984   4.027   3.667   1.391  0.3010 -0.9612 -1.4190
  191SAPI    O621985   3.976   3.600   1.581 -0.2745  0.1178 -0.1938
  191SAPI   HO621986   3.995   3.531   1.645 -1.9160 -1.2122 -1.0634
  191SAPI   C1121987   4.191   3.573   1.478 -0.2227  0.4041  0.0192
  191SAPI    H121988   4.202   3.502   1.562 -0.9239 -0.9403 -0.9963
  191SAPI     P21989   4.373   3.716   1.607 -0.4903  0.6025  0.2135
  191SAPI   O1321990   4.386   3.860   1.626 -0.2929  0.1373 -0.3951
  191SAPI   O1421991   4.487   3.641   1.544  0.6371  1.0547 -0.0058
  191SAPI   O1221992   4.242   3.698   1.513 -0.0665 -0.0804  0.4102
  191SAPI   O1121993   4.337   3.658   1.745  0.5437 -0.1746 -0.2809
  191SAPI    C121994   4.203   3.675   1.803  0.5295 -0.3498  0.6647
  191SAPI    HA21995   4.138   3.747   1.748  0.5920 -0.8660 -0.1047
  191SAPI    HB21996   4.144   3.581   1.796 -1.2681  0.7895 -0.5005
  191SAPI    C221997   4.203   3.728   1.942 -0.0357  0.2388  0.4889
  191SAPI    HS21998   4.234   3.834   1.939 -1.8486  0.8171  1.3479
  191SAPI   O2121999   4.298   3.653   2.015  0.4653 -0.1768 -0.3398
  191SAPI   C2122000   4.346   3.715   2.127 -0.5158  0.2920 -0.4016
  191SAPI   O2222001   4.327   3.831   2.159 -0.2318 -0.2976  0.6538
  191SAPI   C2222002   4.440   3.621   2.197 -0.1117 -0.1087  0.6254
  191SAPI   H2R22003   4.447   3.524   2.143 -1.2510  0.1928 -0.0962
  191SAPI   H2S22004   4.543   3.664   2.196 -0.4404  0.7200 -0.9111
  191SAPI    C322005   4.052   3.725   2.004 -0.2032 -0.5582 -0.3722
  191SAPI    HX22006   4.008   3.630   1.969  1.7103 -1.6352  0.0345
  191SAPI    HY22007   3.987   3.800   1.953  0.6639  0.0055 -0.6752
  191SAPI   O3122008   4.052   3.742   2.150 -0.5660 -0.3819  0.0026
  191SAPI   C3122009   4.062   3.869   2.184  0.2103 -0.3064  0.1613
  191SAPI   O3222010   4.069   3.966   2.110 -0.1316 -0.8758  0.0253
  191SAPI   C3222011   4.059   3.876   2.333  0.4110 -0.0645  1.0276
  191SAPI   H2X22012   4.091   3.779   2.375 -0.6213 -1.0831 -0.4542
  191SAPI   H2Y22013   3.952   3.900   2.356 -0.1612  1.0261 -2.2524
  191SAPI   C2322014   4.395   3.605   2.343  0.4698 -0.3116  0.3285
  191SAPI   H3R22015   4.284   3.607   2.357  0.6080 -2.3307  2.3087
  191SAPI   H3S22016   4.413   3.703   2.390 -0.2822  0.0121 -0.0317
  191SAPI   C2422017   4.474   3.500   2.414  0.3419  0.0015 -0.5423
  191SAPI   H4R22018   4.489   3.415   2.343 -0.9491 -1.9775  1.4233
  191SAPI   H4S22019   4.416   3.468   2.503 -0.4669  1.6493 -0.4426
  191SAPI   C2522020   4.613   3.542   2.461 -0.4254  0.1156 -0.6865
  191SAPI   H5R22021   4.669   3.602   2.387 -0.8349  1.0769 -0.2287
  191SAPI   C2622022   4.675   3.528   2.585 -0.1300  0.2358  0.2922
  191SAPI   H6R22023   4.777   3.567   2.603 -0.4289  0.9304  0.5277
  191SAPI   C2722024   4.623   3.456   2.709 -0.0389 -0.0816  0.2363
  191SAPI   H7R22025   4.706   3.401   2.759 -0.6817  0.8224  2.4478
  191SAPI   H7S22026   4.538   3.385   2.701  0.5995 -1.4545  3.8862
  191SAPI   C2822027   4.586   3.559   2.816  0.4237  0.2167  0.3520
  191SAPI   H8R22028   4.485   3.602   2.807 -0.1603 -0.9005  1.3230
  191SAPI   C2922029   4.655   3.587   2.928  0.4004 -0.8567  0.1581
  191SAPI   H9R22030   4.604   3.653   2.999  0.8469 -0.7789  0.4085
  191SAPI  C21022031   4.794   3.543   2.967  0.0074  0.0043 -0.1263
  191SAPI  H10R22032   4.848   3.627   3.015 -0.6362 -0.4157  1.4298
  191SAPI  H10S22033   4.847   3.509   2.876 -0.0780 -2.9517  0.8009
  191SAPI  C21122034   4.776   3.425   3.059 -0.8230 -0.3554 -0.3089
  191SAPI  H11R22035   4.745   3.336   3.003 -1.6033 -2.0733  2.6453
  191SAPI  C21222036   4.833   3.387   3.180  0.1762  0.9251 -0.1036
  191SAPI  H12R22037   4.802   3.293   3.229  0.1713  0.0205 -1.7735
  191SAPI  C21322038   4.939   3.470   3.252 -0.5985  0.3408 -0.0564
  191SAPI  H13R22039   4.895   3.529   3.335  0.9944  1.1164  0.2858
  191SAPI  H13S22040   4.984   3.554   3.196  0.1517  0.4508  0.6864
  191SAPI  C21422041   5.050   3.380   3.288  0.0399 -0.0850 -0.3582
  191SAPI  H14R22042   5.114   3.336   3.210  0.2240  0.1224 -0.3280
  191SAPI  C21522043   5.071   3.339   3.418  0.0208 -0.0957  1.1887
  191SAPI  H15R22044   5.160   3.280   3.443 -0.2363 -0.0933  2.1730
  191SAPI  C21622045   4.998   3.376   3.542 -1.2733  0.2665  0.6783
  191SAPI  H16R22046   4.892   3.407   3.527 -1.9425 -0.6553  3.1190
  191SAPI  H16S22047   5.042   3.471   3.579  1.9683  0.3333 -2.7093
  191SAPI  C21722048   5.002   3.263   3.644  0.0481 -1.0120  0.6571
  191SAPI  H17R22049   4.985   3.299   3.748 -2.4437  0.7700 -0.2849
  191SAPI  H17S22050   5.106   3.223   3.645  0.0545 -1.3288 -2.5473
  191SAPI  C21822051   4.906   3.154   3.594 -0.5151  0.5182  0.1420
  191SAPI  H18R22052   4.951   3.093   3.513  1.8656 -2.3057  3.3078
  191SAPI  H18S22053   4.812   3.203   3.560 -0.2595  1.3730  0.6176
  191SAPI  C21922054   4.863   3.050   3.706  0.4232  0.4920  0.3176
  191SAPI  H19R22055   4.771   3.001   3.668  1.8336 -0.9704 -1.4309
  191SAPI  H19S22056   4.838   3.108   3.796 -0.9565  0.5361 -0.0723
  191SAPI  C22022057   4.963   2.932   3.724  0.0912 -0.0871 -1.1501
  191SAPI  H20R22058   4.908   2.854   3.781  0.5923  1.0763  1.0392
  191SAPI  H20S22059   5.038   2.963   3.801  2.3716 -3.3168 -1.8582
  191SAPI  H20T22060   5.015   2.894   3.633  0.5312 -2.5918  0.0619
  191SAPI   C3322061   4.156   3.982   2.388  0.3873  0.0751  0.3697
  191SAPI   H3X22062   4.136   4.080   2.341 -0.4355 -0.2596 -0.0057
  191SAPI   H3Y22063   4.260   3.954   2.359 -0.5604 -2.1328 -1.2006
  191SAPI   C3422064   4.159   3.990   2.538 -0.5194  0.6419  0.1244
  191SAPI   H4X22065   4.057   4.024   2.568 -0.9118 -0.9949  0.7211
  191SAPI   H4Y22066   4.212   4.077   2.581 -0.5350 -0.2033  1.9457
  191SAPI   C3522067   4.186   3.848   2.597  0.2269  0.0113 -0.0791
  191SAPI   H5X22068   4.274   3.811   2.541  0.2483 -0.3040  0.1636
  191SAPI   H5Y22069   4.099   3.779   2.586  2.8238 -3.1116 -3.4799
  191SAPI   C3622070   4.224   3.856   2.748  0.2430 -0.0790 -0.0624
  191SAPI   H6X22071   4.176   3.934   2.811  0.7137 -1.2433  1.7990
  191SAPI   H6Y22072   4.333   3.876   2.751  0.1356  0.3284  1.6999
  191SAPI   C3722073   4.187   3.723   2.819 -0.2282  0.6224  0.2548
  191SAPI   H7X22074   4.229   3.641   2.756 -1.7736 -0.1662  0.2115
  191SAPI   H7Y22075   4.076   3.716   2.819 -0.1498 -1.5339  1.8150
  191SAPI   C3822076   4.239   3.726   2.966 -0.3176  0.2152  0.0567
  191SAPI   H8X22077   4.233   3.833   2.995  1.7503  0.6134 -0.7944
  191SAPI   H8Y22078   4.345   3.693   2.966 -0.0232  1.0871 -1.1493
  191SAPI   C3922079   4.171   3.642   3.070  0.4992  0.1658 -0.7655
  191SAPI   H9X22080   4.173   3.535   3.043 -1.1978  0.1752 -1.0117
  191SAPI   H9Y22081   4.063   3.669   3.064  0.6078  1.3908  1.5043
  191SAPI  C31022082   4.219   3.666   3.216 -0.3952 -0.5357  0.9194
  191SAPI  H10X22083   4.228   3.773   3.245 -0.5207  0.0211 -0.9615
  191SAPI  H10Y22084   4.322   3.625   3.226 -0.9165 -1.7517  1.4962
  191SAPI  C31122085   4.130   3.604   3.326 -0.4905  0.3815 -0.0528
  191SAPI  H11X22086   4.122   3.496   3.299  1.4870 -0.1049  1.0691
  191SAPI  H11Y22087   4.035   3.661   3.330 -1.8219 -1.7465  0.1304
  191SAPI  C31222088   4.194   3.605   3.471 -0.4798  0.0371 -0.4561
  191SAPI  H12X22089   4.205   3.711   3.502  0.2753 -0.3942  0.8563
  191SAPI  H12Y22090   4.298   3.565   3.466 -0.3690  0.2995 -0.2657
  191SAPI  C31322091   4.115   3.532   3.578  0.0426 -0.1011  0.9876
  191SAPI  H13X22092   4.091   3.427   3.550 -0.2691 -0.1271  1.3485
  191SAPI  H13Y22093   4.023   3.588   3.606 -1.9755 -1.6084 -2.0495
  191SAPI  C31422094   4.204   3.511   3.698  0.7622  0.9297  0.1648
  191SAPI  H14X22095   4.248   3.603   3.742  1.0765 -0.2652  2.4788
  191SAPI  H14Y22096   4.283   3.439   3.670  0.0965 -0.0224  0.6676
  191SAPI  C31522097   4.133   3.446   3.818 -0.0521 -0.3013  0.2953
  191SAPI  H15X22098   4.216   3.417   3.887  0.9849  0.5006 -0.5784
  191SAPI  H15Y22099   4.085   3.352   3.785 -1.4525  1.1506 -2.0352
  191SAPI  C31622100   4.027   3.536   3.887 -0.5738 -0.2415  0.0442
  191SAPI  H16X22101   3.969   3.586   3.806 -0.5335  0.5727  0.5041
  191SAPI  H16Y22102   4.091   3.611   3.938  0.9564 -2.8750  2.2673
  191SAPI  C31722103   3.943   3.457   3.994 -0.9775 -0.2379 -0.3718
  191SAPI  H17X22104   4.016   3.395   4.049 -0.9829  0.1058  0.0318
  191SAPI  H17Y22105   3.872   3.387   3.945 -0.1920 -0.5994 -1.0151
  191SAPI  C31822106   3.867   3.553   4.088  0.2251  0.1728 -0.1050
  191SAPI  H18X22107   3.793   3.503   4.155  0.7394 -1.8077 -0.9365
  191SAPI  H18Y22108   3.813   3.634   4.035 -0.4140 -0.4932 -0.4763
  191SAPI  H18Z22109   3.935   3.602   4.162  0.8306  0.7995 -1.0611
  192SAPI   C1222110   0.329   1.647   1.666 -0.4030  0.4931 -0.5544
  192SAPI    H222111   0.359   1.747   1.629  0.3082 -0.4760 -2.8204
  192SAPI    O222112   0.224   1.604   1.585  0.4768 -0.6644  0.2040
  192SAPI   HO222113   0.243   1.647   1.502  1.7051  0.2834  0.9447
  192SAPI   C1322114   0.450   1.565   1.636  1.0116 -0.7340  0.0474
  192SAPI    H322115   0.536   1.598   1.698  1.5713  0.4875 -1.3095
  192SAPI    O322116   0.483   1.599   1.500 -0.3598  0.0558 -0.5020
  192SAPI   HO322117   0.576   1.580   1.482 -0.5201  0.3186 -1.6945
  192SAPI   C1422118   0.412   1.413   1.653 -0.3101 -0.2765 -0.5376
  192SAPI    H422119   0.342   1.392   1.570 -2.4025 -0.5968  1.2143
  192SAPI    O422120   0.532   1.337   1.636 -0.0687 -0.5554 -0.0502
  192SAPI   HO422121   0.512   1.244   1.650 -1.1057 -0.2490  0.7010
  192SAPI   C1522122   0.344   1.383   1.784  0.4319  1.0452  0.1412
  192SAPI    H522123   0.431   1.356   1.846  0.8380  1.9262 -0.0264
  192SAPI    O522124   0.268   1.259   1.768 -0.7980  0.0371 -0.0774
  192SAPI   HO522125   0.336   1.194   1.750  0.7769  0.6332  3.0344
  192SAPI   C1622126   0.270   1.504   1.854 -0.3859 -0.0525 -0.3745
  192SAPI    H622127   0.164   1.498   1.821 -0.3396 -1.9775 -0.2710
  192SAPI    O622128   0.268   1.495   1.999  0.0702  0.2653  0.4206
  192SAPI   HO622129   0.181   1.525   2.025 -0.4140 -1.0097  0.3365
  192SAPI   C1122130   0.301   1.648   1.816  0.2689  0.0227  0.3543
  192SAPI    H122131   0.398   1.668   1.867  0.7200 -3.4586  1.1358
  192SAPI     P22132   0.244   1.913   1.884 -0.2917 -0.1660 -0.3525
  192SAPI   O1322133   0.117   1.992   1.896 -0.0966  0.2850 -0.2827
  192SAPI   O1422134   0.342   1.955   1.782  0.1608  0.2272  0.3459
  192SAPI   O1222135   0.207   1.753   1.856  0.5257 -0.6487 -0.2415
  192SAPI   O1122136   0.301   1.903   2.035 -0.1310  0.0704 -0.1194
  192SAPI    C122137   0.335   2.030   2.098 -0.2950 -0.1042 -0.5058
  192SAPI    HA22138   0.446   2.040   2.099 -0.3650  0.7091  0.3391
  192SAPI    HB22139   0.304   2.122   2.044 -0.1648  0.8919  1.0658
  192SAPI    C222140   0.273   2.045   2.237 -0.3066 -0.1785  0.3853
  192SAPI    HS22141   0.304   2.142   2.282  1.1069 -0.7500  0.7004
  192SAPI   O2122142   0.312   1.934   2.324  0.3247 -0.0400 -0.1131
  192SAPI   C2122143   0.434   1.956   2.373  0.3481  0.2392  0.1430
  192SAPI   O2222144   0.510   2.047   2.350  0.0004  0.1155 -0.4566
  192SAPI   C2222145   0.463   1.841   2.471  0.0765 -0.0367  0.2286
  192SAPI   H2R22146   0.401   1.856   2.562  1.7760  1.5658  1.2185
  192SAPI   H2S22147   0.446   1.749   2.413  1.7071 -1.1849  1.4466
  192SAPI    C322148   0.116   2.039   2.237  0.0084 -0.7101  0.3080
  192SAPI    HX22149   0.074   1.940   2.209 -2.9548 -0.1396  2.3228
  192SAPI    HY22150   0.089   2.111   2.157  0.1063  0.9084  1.6788
  192SAPI   O3122151   0.079   2.100   2.360  0.6222 -0.5535  0.2756
  192SAPI   C3122152  -0.041   2.066   2.408 -0.5292 -0.3958  0.0318
  192SAPI   O3222153  -0.122   1.986   2.356  0.2796 -0.7848  0.2880
  192SAPI   C3222154  -0.060   2.143   2.540 -0.2540  0.5803 -0.8051
  192SAPI   H2X22155  -0.156   2.097   2.569 -0.7236  2.2415  0.3863
  192SAPI   H2Y22156  -0.083   2.248   2.511 -1.0566  0.0479 -2.1877
  192SAPI   C2322157   0.614   1.833   2.528  0.0159 -0.5090  0.1118
  192SAPI   H3R22158   0.635   1.918   2.596 -2.2156 -0.8225  1.2629
  192SAPI   H3S22159   0.675   1.850   2.436  0.6200 -4.3871 -0.3466
  192SAPI   C2422160   0.647   1.705   2.604 -0.0058 -0.1123  0.0866
  192SAPI   H4R22161   0.596   1.614   2.565 -1.8498  0.7462  0.3783
  192SAPI   H4S22162   0.602   1.719   2.705 -0.2087  0.8455 -0.1230
  192SAPI   C2522163   0.797   1.689   2.609  0.4034 -0.8884  0.3093
  192SAPI   H5R22164   0.845   1.692   2.510  0.6298 -1.5455  0.3958
  192SAPI   C2622165   0.866   1.658   2.717  0.5192  0.9404  0.2228
  192SAPI   H6R22166   0.973   1.644   2.691  0.0443  1.7718 -2.5112
  192SAPI   C2722167   0.824   1.625   2.860 -1.0161 -0.9391  0.6568
  192SAPI   H7R22168   0.905   1.575   2.916 -1.0800 -0.3374  1.2984
  192SAPI   H7S22169   0.743   1.548   2.861 -0.5232 -1.4612  1.0682
  192SAPI   C2822170   0.793   1.755   2.933  0.1351  0.2844 -0.3152
  192SAPI   H8R22171   0.724   1.821   2.878 -1.2438 -2.6573 -2.4057
  192SAPI   C2922172   0.836   1.791   3.055  0.5701 -0.6280 -0.1091
  192SAPI   H9R22173   0.815   1.896   3.082 -6.6494 -1.8465  1.2095
  192SAPI  C21022174   0.936   1.717   3.140  0.2733 -0.4011  0.0915
  192SAPI  H10R22175   0.998   1.779   3.208  0.6234  0.4297 -0.9500
  192SAPI  H10S22176   1.008   1.658   3.079  1.1436 -0.3218  1.0024
  192SAPI  C21122177   0.845   1.624   3.209  0.1727 -0.4983  0.5011
  192SAPI  H11R22178   0.784   1.564   3.141  1.6056  0.4952 -1.7849
  192SAPI  C21222179   0.838   1.586   3.342  0.1349 -0.8881  0.3701
  192SAPI  H12R22180   0.755   1.521   3.373  0.7123 -0.6728  2.5938
  192SAPI  C21322181   0.922   1.645   3.451 -0.3079  0.0774 -0.8991
  192SAPI  H13R22182   1.007   1.699   3.404 -1.8323  2.7509 -0.7998
  192SAPI  H13S22183   0.965   1.560   3.509  1.3835 -0.4662 -2.8394
  192SAPI  C21422184   0.842   1.728   3.550  0.2824  0.5359  0.6199
  192SAPI  H14R22185   0.747   1.685   3.586  0.4436 -0.0470  0.3717
  192SAPI  C21522186   0.884   1.840   3.607  0.3733  0.4102 -0.2889
  192SAPI  H15R22187   0.826   1.890   3.685 -2.8110  0.3999 -2.4708
  192SAPI  C21622188   1.011   1.911   3.579  0.4784  0.2792  0.4442
  192SAPI  H16R22189   0.996   2.008   3.526  0.4272  1.9706  3.3420
  192SAPI  H16S22190   1.080   1.852   3.514 -1.9757 -1.7172 -0.5075
  192SAPI  C21722191   1.080   1.929   3.720  0.3000 -0.7549  0.4068
  192SAPI  H17R22192   1.093   1.832   3.772  1.9448 -0.2994  0.9248
  192SAPI  H17S22193   1.017   2.001   3.776 -0.9998 -0.2484 -1.5882
  192SAPI  C21822194   1.217   1.989   3.703 -0.0223  0.1449  0.5672
  192SAPI  H18R22195   1.205   2.095   3.670 -0.8148 -0.6793 -2.0966
  192SAPI  H18S22196   1.261   1.942   3.613 -1.9994  2.1321 -1.5765
  192SAPI  C21922197   1.303   1.969   3.828 -0.1626 -0.0868  0.4308
  192SAPI  H19R22198   1.341   1.865   3.828  0.6714  0.1798 -1.4240
  192SAPI  H19S22199   1.259   2.001   3.925  0.2011 -0.4390  0.7153
  192SAPI  C22022200   1.423   2.065   3.811  0.8340  0.3027  0.5282
  192SAPI  H20R22201   1.396   2.155   3.751  0.9320 -0.7063 -1.0871
  192SAPI  H20S22202   1.504   2.012   3.756  1.4201 -1.3674  2.8481
  192SAPI  H20T22203   1.470   2.088   3.909  0.8509  0.2169  0.5407
  192SAPI   C3322204   0.047   2.114   2.649  0.8235  0.3253 -0.6284
  192SAPI   H3X22205   0.093   2.013   2.643 -1.2377 -0.8569  1.5620
  192SAPI   H3Y22206  -0.011   2.109   2.743  1.1485 -0.3999 -0.4632
  192SAPI   C3422207   0.154   2.217   2.657 -0.1943 -0.2610  0.3045
  192SAPI   H4X22208   0.136   2.311   2.713  0.4458  0.6943 -1.0275
  192SAPI   H4Y22209   0.179   2.243   2.552  0.3576  1.3835  0.8120
  192SAPI   C3522210   0.282   2.147   2.702 -0.0425 -0.7268  0.8455
  192SAPI   H5X22211   0.293   2.045   2.658  0.1842 -0.8814  1.2580
  192SAPI   H5Y22212   0.264   2.133   2.810 -0.7702  0.4673  0.8883
  192SAPI   C3622213   0.418   2.214   2.661  0.6677 -0.1597 -0.5289
  192SAPI   H6X22214   0.413   2.318   2.698 -1.3359 -0.8640  1.4321
  192SAPI   H6Y22215   0.442   2.194   2.554  0.8910 -3.2762 -0.0057
  192SAPI   C3722216   0.541   2.156   2.741 -0.6190  0.0762  0.0120
  192SAPI   H7X22217   0.530   2.045   2.734  0.7688 -0.0729 -0.0691
  192SAPI   H7Y22218   0.544   2.185   2.848 -0.2923  3.4720 -0.8232
  192SAPI   C3822219   0.677   2.203   2.681  0.1668 -0.2511  0.3281
  192SAPI   H8X22220   0.678   2.314   2.678 -0.5653 -0.0346  3.8300
  192SAPI   H8Y22221   0.692   2.169   2.576 -2.0426  3.7721 -1.5172
  192SAPI   C3922222   0.790   2.163   2.774 -0.5657  0.3143  0.0285
  192SAPI   H9X22223   0.804   2.053   2.757  1.9868  0.5133  0.3585
  192SAPI   H9Y22224   0.755   2.178   2.878  1.0744  1.6772  0.4203
  192SAPI  C31022225   0.924   2.230   2.750  0.0527 -0.7003 -0.0592
  192SAPI  H10X22226   0.919   2.331   2.795  1.0346 -0.9857  0.7219
  192SAPI  H10Y22227   0.958   2.232   2.644 -0.2616  0.3673 -0.1454
  192SAPI  C31122228   1.037   2.162   2.832  0.3236 -0.1387 -0.1090
  192SAPI  H11X22229   1.007   2.166   2.939  2.4839  0.2727  0.5300
  192SAPI  H11Y22230   1.134   2.215   2.824  2.0420 -2.9427  0.9268
  192SAPI  C31222231   1.072   2.025   2.776 -0.8095 -0.7487 -1.0894
  192SAPI  H12X22232   1.076   2.030   2.665 -1.5556 -0.9135 -1.1251
  192SAPI  H12Y22233   1.005   1.942   2.809 -1.8168 -0.3703 -2.1163
  192SAPI  C31322234   1.217   1.981   2.818  0.4732  0.9733  0.3027
  192SAPI  H13X22235   1.293   2.049   2.775  1.2116  0.2850  0.4999
  192SAPI  H13Y22236   1.252   1.886   2.771 -0.9860  0.3549  0.3954
  192SAPI  C31422237   1.249   1.969   2.968 -0.1163 -0.1784  0.1618
  192SAPI  H14X22238   1.201   1.877   3.008  0.1382 -1.2352 -1.7875
  192SAPI  H14Y22239   1.216   2.052   3.033 -1.0923 -1.4281  1.3227
  192SAPI  C31522240   1.397   1.948   2.993 -0.5724  0.7492  0.0462
  192SAPI  H15X22241   1.441   2.050   2.987 -0.7143  0.7512 -1.3395
  192SAPI  H15Y22242   1.457   1.883   2.926  0.2077 -0.1614  1.5576
  192SAPI  C31622243   1.423   1.889   3.133 -0.5653 -0.0458 -0.1176
  192SAPI  H16X22244   1.524   1.845   3.126 -0.9991 -0.8401 -2.2461
  192SAPI  H16Y22245   1.353   1.809   3.165  0.7222 -0.1907  2.5278
  192SAPI  C31722246   1.412   1.988   3.247  0.0040 -0.0116  0.2000
  192SAPI  H17X22247   1.308   2.029   3.248 -0.5548 -1.3818  0.1280
  192SAPI  H17Y22248   1.472   2.080   3.230  4.3278 -2.8928 -1.9329
  192SAPI  C31822249   1.434   1.937   3.385 -0.2056 -0.0814 -0.2054
  192SAPI  H18X22250   1.357   1.857   3.399 -1.6877  0.9300 -2.1828
  192SAPI  H18Y22251   1.413   2.024   3.450 -0.8630  0.7187 -1.4561
  192SAPI  H18Z22252   1.534   1.891   3.402 -0.9154 -1.4007  0.6229
  193SOD    SOD22253   1.484   0.097   6.396 -0.2500  0.1915 -0.0542
  194SOD    SOD22254   2.018   0.040   6.820  0.2030 -0.1076 -0.3134
  195SOD    SOD22255   6.075   6.335   1.464 -0.0262 -0.0642 -0.3124
  196SOD    SOD22256   1.534   0.465   6.408 -0.1228 -0.5111  0.1809
  197SOD    SOD22257   6.257   6.593   6.941 -0.0454 -0.2121  0.1698
  198SOD    SOD22258   3.105   7.011   0.941  0.3262 -0.1945 -0.2095
  199SOD    SOD22259   1.916   4.540   0.364  0.1897  0.4673 -0.3439
  200SOD    SOD22260   6.760   5.522   8.116 -0.1272 -0.2343 -0.0242
  201SOD    SOD22261   6.466   0.619   8.259  0.2130  0.0883 -0.3202
  202SOD    SOD22262   0.844   5.972   0.179  0.3987 -0.0236 -0.2186
  203SOD    SOD22263   6.785   1.983   2.161 -0.1672 -0.7368 -0.4955
  204SOD    SOD22264   4.798   2.999   7.746  0.1447 -0.0205  0.3250
  205SOD    SOD22265   2.830   5.537   0.610 -0.0395 -0.3604 -0.0890
  206SOD    SOD22266   2.919   5.516   6.190 -0.2449 -0.4862 -0.4022
  207SOD    SOD22267   6.178   2.378   7.511 -0.0329  0.3070 -0.1247
  208SOD    SOD22268   6.104   4.770   0.238 -0.3955 -0.0592  0.0942
  209SOD    SOD22269   3.059   2.137   1.889 -0.1667 -0.6538  0.0996
  210SOD    SOD22270   0.086   4.010   1.741 -0.3153 -0.7676 -0.1710
  211SOD    SOD22271   2.428   6.624   0.424  0.1967 -0.6194 -0.1119
  212SOD    SOD22272   2.071   6.177   1.296 -0.7597  0.4021 -0.5027
  213SOD    SOD22273   2.563   0.022   7.530 -0.3028  0.2199 -0.2940
  214SOD    SOD22274   5.614   1.826   2.297  0.5337  0.1214 -0.5549
  215SOD    SOD22275   0.231   4.329   6.831  0.2541  0.2356 -0.2184
  216SOD    SOD22276   3.448   4.281   6.151 -0.2280  0.4039 -0.0560
  217SOD    SOD22277   3.327   4.945   0.100  0.2240  0.0984 -0.0671
  218SOD    SOD22278   6.555   6.214   1.709 -0.0580 -0.1241  0.0359
  219SOD    SOD22279   6.336   5.289   6.839  0.1188  0.1208 -0.8369
  220SOD    SOD22280   4.095   1.387   1.594  0.0272  0.4542  0.1592
  221SOD    SOD22281   4.910   4.396   1.519  0.0504  0.2047 -0.1216
  222SOD    SOD22282   3.030   4.019   7.699 -0.3709  0.2634  0.5548
  223SOD    SOD22283   5.653   1.671   7.758  0.1061 -0.5523  0.1443
  224SOD    SOD22284   1.248   1.937   6.843  0.3006  0.4516  0.0929
  225SOD    SOD22285   2.580   3.939   1.651 -0.0543 -0.7292  0.3144
  226SOD    SOD22286   6.221   3.182   1.037 -0.2228  0.6908  0.3261
  227SOD    SOD22287   5.612   3.438   7.629  0.0301  0.6226 -0.4509
  228SOD    SOD22288   2.382   0.842   0.408 -0.1739 -0.0491  0.3521
  229SOD    SOD22289   2.126   3.086   0.377  0.0664  0.0929 -0.0811
  230SOD    SOD22290   2.530   0.759   6.897  0.2232  0.0382 -0.3146
  231SOD    SOD22291   5.925   3.174   2.001 -0.2322  0.6570 -0.1037
  232SOD    SOD22292   1.500   3.226   6.023 -0.3833 -0.1497  0.5261
  233SOD    SOD22293   0.144   2.362   1.220 -0.1994 -0.2856  0.0106
  234CLA    CLA22294   1.409   5.875   0.894  0.1950 -0.1420 -0.3614
  235CLA    CLA22295   3.344   6.579   0.240  0.4866 -0.3085 -0.2938
  236CLA    CLA22296   1.167   4.927   7.980 -0.1514 -0.2293  0.1051
  237CLA    CLA22297   5.464   1.674   7.033  0.0474 -0.4439 -0.0500
  238CLA    CLA22298   0.904   5.373   0.710 -0.0963  0.1428  0.3057
  239CLA    CLA22299   5.517   1.130   1.649 -0.2495  0.1080 -0.1170
  240CLA    CLA22300   3.631   3.687   7.860  0.1230 -0.2986 -0.5015
  241CLA    CLA22301   3.651   1.270   7.768  0.0212  0.0680 -0.1501
  242CLA    CLA22302   2.495   5.073   8.169  0.4042  0.0267 -0.3829
  243CLA    CLA22303   6.157   6.636   0.352  0.0379 -0.1399  0.2904
  244CLA    CLA22304   6.448   2.539   7.848 -0.3273 -0.2402 -0.0540
  245CLA    CLA22305   2.176   1.200   6.943  0.1657 -0.0543 -0.1199
  246CLA    CLA22306   0.089   1.147   7.984  0.0733 -0.1095  0.0911
  247CLA    CLA22307   0.089   2.501   0.114  0.1389  0.2443  0.1815
  248CLA    CLA22308   1.363   1.202   7.607 -0.0088 -0.5371  0.3161
  249CLA    CLA22309   2.756   6.682   7.631  0.5729  0.1057 -0.3483
  250CLA    CLA22310   0.358   3.503   0.892  0.1368  0.2066  0.1087
  251TIP3   OH222311   1.845   2.317   2.079  0.9570  0.7271 -0.0650
  251TIP3    H122312   1.804   2.313   2.166 -0.7051 -0.5057 -0.8416
  251TIP3    H222313   1.928   2.362   2.094  1.3627 -0.6409  2.3978
  252TIP3   OH222314   4.774   1.996   7.498  0.4839  0.3138 -0.0706
  252TIP3    H122315   4.692   1.992   7.547  1.0453  0.1921  0.8971
  252TIP3    H222316   4.755   2.052   7.423 -0.1072  1.5160  0.9225
  253TIP3   OH222317   6.718   1.742   1.747  0.0463  0.2480  0.0252
  253TIP3    H122318   6.780   1.703   1.809 -1.6944  1.0434  2.3574
  253TIP3    H222319   6.774   1.792   1.686  1.7964 -0.3870  1.0348
  254TIP3   OH222320   0.627   2.499   0.959  0.4453  0.2631 -0.1323
  254TIP3    H122321   0.695   2.567   0.959  0.5647  0.1576  1.0719
  254TIP3    H222322   0.620   2.472   1.050 -0.7797 -0.1752 -0.3387
  255TIP3   OH222323   6.973   0.727   0.924 -0.0107  0.0394  0.3037
  255TIP3    H122324   6.935   0.652   0.970  0.3011 -1.6188 -2.0047
  255TIP3    H222325   6.903   0.758   0.867  0.5460  0.1336 -0.3293
  256TIP3   OH222326   1.792   3.652   7.485 -0.5048  0.6319  0.1764
  256TIP3    H122327   1.789   3.615   7.397 -0.4252 -0.5050  0.6292
  256TIP3    H222328   1.706   3.632   7.522 -1.1904  2.6493 -0.2126
  257TIP3   OH222329   6.052   2.451   6.362  0.5510  0.0550 -0.0851
  257TIP3    H122330   6.031   2.359   6.347  2.5375 -0.3719 -0.5660
  257TIP3    H222331   6.027   2.496   6.281  2.0772 -0.5591 -0.9367
  258TIP3   OH222332   5.870   4.253   7.226 -0.1821 -0.0859 -0.9395
  258TIP3    H122333   5.893   4.265   7.134  2.5008 -0.6385 -0.4222
  258TIP3    H222334   5.854   4.159   7.235 -0.2500 -0.0621 -0.8035
  259TIP3   OH222335   2.774   1.341   0.648  0.0445 -0.4861 -0.1544
  259TIP3    H122336   2.780   1.280   0.574  2.0122 -1.8335  1.0107
  259TIP3    H222337   2.862   1.340   0.687 -0.6503  0.9750  1.5916
  260TIP3   OH222338   0.651   2.111   0.582  0.4082 -0.0352  0.1131
  260TIP3    H122339   0.611   2.031   0.616 -1.6658  1.2488  0.9633
  260TIP3    H222340   0.687   2.154   0.659 -1.3124  1.2866  0.2581
  261TIP3   OH222341   3.153   2.132   1.495 -0.0973  0.5960 -0.3006
  261TIP3    H122342   3.078   2.180   1.459 -1.6444  0.2694  2.2091
  261TIP3    H222343   3.175   2.068   1.427 -1.6602  1.1603 -1.4022
  262TIP3   OH222344   1.955   6.080   7.064  0.4734 -0.1492  0.0418
  262TIP3    H122345   2.047   6.100   7.080  0.5627 -0.4643 -0.0569
  262TIP3    H222346   1.942   5.993   7.101  0.1934 -0.0725  0.1303
  263TIP3   OH222347   5.835   6.046   8.164 -0.0197 -0.4828 -0.0462
  263TIP3    H122348   5.840   5.965   8.215 -0.8412 -0.3343  0.2822
  263TIP3    H222349   5.892   6.107   8.211  0.4887 -0.8190 -0.2143
  264TIP3   OH222350   4.029   1.218   2.043  0.1666  0.1830  0.0039
  264TIP3    H122351   4.103   1.162   2.067 -0.1385  0.2694  1.2285
  264TIP3    H222352   3.952   1.164   2.061 -0.0951 -0.2314 -2.0962
  265TIP3   OH222353   1.080   5.918   1.137  0.3707 -0.4484  0.3383
  265TIP3    H122354   1.063   5.964   1.055 -0.3033 -0.2440  0.5872
  265TIP3    H222355   1.128   5.982   1.191  1.9486 -1.0142 -0.3525
  266TIP3   OH222356   4.777   4.912   1.288 -0.4659  0.8088  0.0800
  266TIP3    H122357   4.786   4.965   1.208  2.8217  1.2626  0.6160
  266TIP3    H222358   4.773   4.976   1.358  4.0251  0.6435  0.7839
  267TIP3   OH222359   1.096   0.691   6.246  0.3984 -0.6787  0.0348
  267TIP3    H122360   1.148   0.648   6.178  0.3067  1.0472 -1.1924
  267TIP3    H222361   1.021   0.728   6.199 -0.1706 -0.2574  1.2419
  268TIP3   OH222362   6.013   0.980   7.645  0.1691 -0.3769 -0.3071
  268TIP3    H122363   5.925   0.948   7.664  1.2119 -3.4211 -0.1325
  268TIP3    H222364   6.023   1.058   7.699 -2.3965  0.0635 -0.3690
  269TIP3   OH222365   5.026   1.797   0.846  0.2218 -0.6149 -0.8604
  269TIP3    H122366   5.045   1.886   0.876  0.1157 -0.7451 -0.3992
  269TIP3    H222367   4.931   1.796   0.835  0.0706 -1.0066  0.2737
  270TIP3   OH222368   1.029   2.721   6.097 -0.7951 -0.0363 -0.1708
  270TIP3    H122369   1.050   2.812   6.076 -0.5272 -0.1614 -0.4459
  270TIP3    H222370   1.105   2.689   6.146 -0.7499 -0.2065 -0.3510
  271TIP3   OH222371   0.511   3.550   1.178 -0.4291 -0.1971 -0.0305
  271TIP3    H122372   0.448   3.531   1.248 -0.8031 -0.8104 -0.5256
  271TIP3    H222373   0.461   3.541   1.097  0.0210  0.4443 -0.3858
  272TIP3   OH222374   1.555   3.431   0.849 -0.0402  0.1338  0.9973
  272TIP3    H122375   1.488   3.479   0.801  0.5578 -0.6183 -0.6672
  272TIP3    H222376   1.613   3.498   0.885 -0.8411  0.7285  1.2094
  273TIP3   OH222377   1.205   1.982   7.643 -0.6850  0.4416  0.3739
  273TIP3    H122378   1.237   2.017   7.560  0.0456  1.5189  1.0762
  273TIP3    H222379   1.167   1.897   7.621  2.3949 -0.8249 -0.5839
  274TIP3   OH222380   1.672   3.936   0.211 -0.2891  0.2674 -0.3674
  274TIP3    H122381   1.588   3.898   0.188 -0.5617  1.3168 -1.2158
  274TIP3    H222382   1.713   3.872   0.269 -0.6684 -1.3415 -1.7868
  275TIP3   OH222383   1.297   0.476   8.158  0.3712 -0.0208 -0.5468
  275TIP3    H122384   1.275   0.561   8.196  0.6167  0.3008 -1.1139
  275TIP3    H222385   1.244   0.414   8.208 -0.6208  0.5735 -0.8289
  276TIP3   OH222386   5.517   4.697   1.544  0.2744  0.3790  0.3035
  276TIP3    H122387   5.592   4.699   1.603  1.0792  0.0024 -0.6779
  276TIP3    H222388   5.555   4.690   1.457 -0.9058 -0.5141 -0.1771
  277TIP3   OH222389   1.245   1.251   1.085 -0.3049 -0.5250  0.3793
  277TIP3    H122390   1.169   1.242   1.027 -0.8157  0.3635  0.8891
  277TIP3    H222391   1.223   1.325   1.142  0.2022 -1.3584  1.6856
  278TIP3   OH222392   4.404   5.554   7.533 -0.0355  0.3945  0.2650
  278TIP3    H122393   4.497   5.551   7.508  0.3512  0.0374  1.6667
  278TIP3    H222394   4.397   5.492   7.605 -1.6949 -0.6804 -0.7692
  279TIP3   OH222395   4.156   0.985   0.715  0.0707 -0.3582  0.1869
  279TIP3    H122396   4.140   0.992   0.621  0.8922 -0.3453  0.0411
  279TIP3    H222397   4.241   1.026   0.728  0.1601 -0.7465  0.8769
  280TIP3   OH222398   5.893   3.575   6.758 -0.6106 -0.1348  0.1576
  280TIP3    H122399   5.869   3.599   6.848  1.1728  0.7146  0.4669
  280TIP3    H222400   5.989   3.582   6.757 -0.3922 -2.4242 -1.1920
  281TIP3   OH222401   4.979   2.390   1.040 -0.4060 -0.0279 -0.2816
  281TIP3    H122402   4.895   2.414   1.080  0.7530  1.1217  1.6296
  281TIP3    H222403   5.007   2.311   1.087 -0.9561 -1.1368 -1.7644
  282TIP3   OH222404   5.158   2.715   0.636  0.2640  0.1588 -0.6172
  282TIP3    H122405   5.184   2.799   0.599 -0.0590  1.3469  1.7167
  282TIP3    H222406   5.229   2.693   0.697 -0.9091  0.0876  0.7621
  283TIP3   OH222407   1.796   1.200   0.732 -0.0457  0.4870  0.3371
  283TIP3    H122408   1.712   1.165   0.762  0.2737  1.6273  2.8190
  283TIP3    H222409   1.772   1.264   0.664 -0.9574 -0.9768 -0.7676
  284TIP3   OH222410   1.272   0.933   7.756 -0.2299 -0.0959 -0.0722
  284TIP3    H122411   1.232   0.948   7.842  3.7248 -0.1740  1.9891
  284TIP3    H222412   1.275   1.019   7.715  0.4245  0.4811  1.1506
  285TIP3   OH222413   2.214   5.557   1.641 -0.5224  0.2348 -0.3355
  285TIP3    H122414   2.135   5.534   1.690  0.5492  1.0118  1.8998
  285TIP3    H222415   2.278   5.489   1.667  0.3833  1.2787  0.2546
  286TIP3   OH222416   4.858   4.267   7.509 -0.1671 -0.3537 -0.0624
  286TIP3    H122417   4.890   4.315   7.585  1.7743 -0.5187 -0.7160
  286TIP3    H222418   4.837   4.335   7.445  1.1202 -0.2853 -0.4399
  287TIP3   OH222419   5.836   5.178   6.446 -0.4212 -0.1847 -0.0536
  287TIP3    H122420   5.928   5.176   6.474 -0.5601  0.2221  0.4515
  287TIP3    H222421   5.816   5.271   6.434 -0.4528 -0.3303 -1.2629
  288TIP3   OH222422   6.627   0.278   6.528 -0.6760  0.2023  0.0933
  288TIP3    H122423   6.641   0.283   6.623 -1.0300  0.3026  0.1382
  288TIP3    H222424   6.533   0.284   6.517 -0.6767 -0.3323 -0.2339
  289TIP3   OH222425   5.091   6.915   1.887  0.7647 -0.1189  1.1137
  289TIP3    H122426   5.181   6.882   1.882  0.1085 -1.9584  0.3711
  289TIP3    H222427   5.046   6.852   1.944 -0.4831 -0.3720 -0.0932
  290TIP3   OH222428   2.301   3.656   1.386 -0.2618 -0.6076 -0.0139
  290TIP3    H122429   2.245   3.593   1.342 -0.7642 -0.0399 -0.2001
  290TIP3    H222430   2.328   3.717   1.317 -0.2762 -0.2681  0.2749
  291TIP3   OH222431   6.663   3.547   1.367 -0.5782  0.3032  0.5137
  291TIP3    H122432   6.734   3.486   1.350 -0.4331  0.6734 -0.2610
  291TIP3    H222433   6.702   3.617   1.420 -0.7102 -0.1802  1.2742
  292TIP3   OH222434   5.076   0.996   8.173 -0.3849 -0.2674  0.7942
  292TIP3    H122435   5.127   1.011   8.093 -0.9554 -0.0370  0.4680
  292TIP3    H222436   5.097   1.070   8.230 -1.8828  0.9229 -0.1359
  293TIP3   OH222437   3.315   5.760   7.558  0.6522 -0.3205 -0.2217
  293TIP3    H122438   3.247   5.822   7.585  0.4932 -0.2294 -0.8153
  293TIP3    H222439   3.274   5.674   7.567  0.2666 -0.2358 -1.1022
  294TIP3   OH222440   2.188   3.781   5.919 -0.1676  0.5011 -0.0783
  294TIP3    H122441   2.188   3.842   5.993  1.6537  1.0226 -0.4580
  294TIP3    H222442   2.239   3.825   5.851 -1.0001 -0.3703 -1.3188
  295TIP3   OH222443   5.740   4.485   6.526 -0.0598 -0.0963 -0.2020
  295TIP3    H122444   5.675   4.482   6.456 -0.6479 -1.5991  0.3722
  295TIP3    H222445   5.807   4.422   6.499  0.3550  0.2643 -0.0186
  296TIP3   OH222446   4.130   3.911   7.926 -0.7587  0.0328 -0.2018
  296TIP3    H122447   4.107   3.984   7.982 -0.4872  1.3457 -1.7363
  296TIP3    H222448   4.051   3.857   7.923 -0.7628 -0.0944  1.4155
  297TIP3   OH222449   6.652   4.956   6.750 -0.3457  0.7128  0.1470
  297TIP3    H122450   6.565   4.918   6.765  0.7159 -1.7230  0.7190
  297TIP3    H222451   6.651   4.983   6.658 -1.2114 -0.7906 -0.3163
  298TIP3   OH222452   4.650   1.806   8.033  0.7292 -0.2754  0.0525
  298TIP3    H122453   4.687   1.719   8.044  2.4608  0.2631 -1.0233
  298TIP3    H222454   4.616   1.807   7.943  0.0536 -0.0494  0.2968
  299TIP3   OH222455   3.329   5.884   7.172  0.5125  0.2616 -0.3212
  299TIP3    H122456   3.247   5.885   7.122 -0.4112  2.1324  1.0963
  299TIP3    H222457   3.311   5.826   7.246  0.6970  0.1202 -0.3887
  300TIP3   OH222458   1.494   2.466   1.102  0.9899  0.1760 -0.0404
  300TIP3    H122459   1.532   2.380   1.081  1.3588  0.2718  0.2341
  300TIP3    H222460   1.532   2.489   1.187 -0.2153 -0.0421  0.5813
  301TIP3   OH222461   0.765   4.005   0.050 -0.1405 -0.6073 -0.1180
  301TIP3    H122462   0.763   4.053   0.132  1.2125 -0.9473  0.1402
  301TIP3    H222463   0.715   4.059  -0.011  0.3944  0.5593  0.4503
  302TIP3   OH222464   4.191   3.937   0.380  0.2338 -0.6811 -0.0624
  302TIP3    H122465   4.154   3.881   0.448 -1.1961 -1.1850 -1.1800
  302TIP3    H222466   4.285   3.936   0.395  0.2507 -3.2373  0.0903
  303TIP3   OH222467   5.647   4.504   7.725  0.7589 -0.4711  0.4620
  303TIP3    H122468   5.669   4.590   7.691  0.4747  0.1359  1.7558
  303TIP3    H222469   5.678   4.443   7.658 -0.9781  0.6791 -1.5243
  304TIP3   OH222470   2.735   3.630   7.598 -0.2771  0.1074  0.4689
  304TIP3    H122471   2.655   3.678   7.622  0.1929  1.4585 -0.5309
  304TIP3    H222472   2.719   3.600   7.508 -0.0888 -0.5757  0.6617
  305TIP3   OH222473   5.093   4.567   0.788  0.1984  0.4885  0.2530
  305TIP3    H122474   5.017   4.587   0.734  0.2300  0.6607  0.2733
  305TIP3    H222475   5.111   4.648   0.836 -1.0148 -0.1945  1.9642
  306TIP3   OH222476   7.027   0.971   6.742 -0.0241 -0.1361 -0.3118
  306TIP3    H122477   6.949   0.966   6.798 -1.5329  1.5388 -2.1045
  306TIP3    H222478   7.030   0.886   6.698 -1.5075  0.0911 -0.9461
  307TIP3   OH222479   1.320   2.615   1.396 -0.0094  0.1857  0.1491
  307TIP3    H122480   1.285   2.529   1.374 -0.5325  0.2345  0.7790
  307TIP3    H222481   1.415   2.605   1.389  0.0513 -0.9846  2.0998
  308TIP3   OH222482   5.544   4.391   7.951 -0.1290 -0.6049 -0.2074
  308TIP3    H122483   5.555   4.435   7.867 -0.6682 -1.9629 -1.0238
  308TIP3    H222484   5.531   4.299   7.928 -0.0749 -1.0359  1.3815
  309TIP3   OH222485   4.873   5.159   0.600 -0.3120  0.4181 -0.3011
  309TIP3    H122486   4.809   5.089   0.594 -0.5086  0.2915  2.1604
  309TIP3    H222487   4.954   5.121   0.565 -0.8511 -0.3983 -0.6881
  310TIP3   OH222488   6.598   6.917   1.409 -0.0800  0.2453 -0.5263
  310TIP3    H122489   6.647   6.989   1.448  1.4033 -1.0722  0.1503
  310TIP3    H222490   6.520   6.909   1.463  0.9654 -0.2483  0.9843
  311TIP3   OH222491   6.963   6.334   1.224 -0.1261  0.2261 -0.2209
  311TIP3    H122492   6.960   6.396   1.150 -0.5774 -0.1329 -0.5089
  311TIP3    H222493   7.028   6.269   1.198  1.4633  1.3602  0.7243
  312TIP3   OH222494   6.586   4.505   1.910 -0.0282  0.4664  0.2208
  312TIP3    H122495   6.541   4.542   1.986  0.5119 -0.2046  0.8858
  312TIP3    H222496   6.653   4.570   1.888 -0.4678  0.8661  0.0333
  313TIP3   OH222497   2.750   1.091   1.258  0.2353 -0.0217 -0.6130
  313TIP3    H122498   2.793   1.123   1.179  2.2151  0.2227  0.4943
  313TIP3    H222499   2.715   1.170   1.300  0.2231 -0.0109 -0.6435
  314TIP3   OH222500   2.751   4.550   1.012 -0.5830 -0.3076  0.0568
  314TIP3    H122501   2.666   4.594   1.008  0.3041  1.3957 -3.1274
  314TIP3    H222502   2.812   4.617   1.043 -0.3595 -1.6691  2.8606
  315TIP3   OH222503   2.654   5.873   6.358 -0.1513  0.0856  0.2871
  315TIP3    H122504   2.701   5.860   6.440  0.1260  0.7761  0.2474
  315TIP3    H222505   2.567   5.902   6.384  0.3324  1.6147  0.3580
  316TIP3   OH222506   1.574   5.586   6.643  0.1148 -0.2226 -0.0806
  316TIP3    H122507   1.636   5.658   6.657  0.7590 -0.5373 -1.2035
  316TIP3    H222508   1.523   5.612   6.566 -2.2281  0.7220  1.6463
  317TIP3   OH222509   1.048   5.435   1.277  0.2769  0.2165 -0.1860
  317TIP3    H122510   1.141   5.417   1.291  0.2498  0.7426  0.7080
  317TIP3    H222511   1.028   5.394   1.193  1.0476 -0.8968  0.1566
  318TIP3   OH222512   4.614   4.927   0.308  0.2612  0.2729  0.2623
  318TIP3    H122513   4.573   4.856   0.259  0.0107  0.4596  0.1998
  318TIP3    H222514   4.542   4.987   0.329  0.6771  1.2488 -0.9409
  319TIP3   OH222515   3.303   2.385   1.404  0.2531  0.4437  0.3116
  319TIP3    H122516   3.392   2.378   1.438 -0.0644 -0.2268  1.0153
  319TIP3    H222517   3.268   2.296   1.408 -0.0480  0.4678 -1.1076
  320TIP3   OH222518   2.395   5.568   6.170  0.1791  1.1977 -0.3500
  320TIP3    H122519   2.409   5.552   6.263  1.6973  0.7251 -0.6245
  320TIP3    H222520   2.386   5.481   6.131 -1.3791  1.4170 -0.5494
  321TIP3   OH222521   0.767   2.756   0.898 -0.5423 -0.3828  0.3873
  321TIP3    H122522   0.857   2.787   0.910 -1.0254  1.8535 -1.1516
  321TIP3    H222523   0.713   2.828   0.930 -1.7846 -1.0674 -0.1325
  322TIP3   OH222524   5.836   1.972   1.644 -0.0360 -0.0460 -0.2726
  322TIP3    H122525   5.824   2.059   1.682  0.1201 -0.0639 -0.1812
  322TIP3    H222526   5.782   1.915   1.697 -0.6575  0.0989 -0.7410
  323TIP3   OH222527   6.408   5.796   0.508  0.1640  0.1221  0.1752
  323TIP3    H122528   6.427   5.787   0.601  0.3653  1.4981  0.2887
  323TIP3    H222529   6.316   5.774   0.500 -0.6002  2.5464  1.1870
  324TIP3   OH222530   2.383   4.028   5.691 -0.0301 -0.3080 -0.3147
  324TIP3    H122531   2.472   4.063   5.683  0.2569 -1.0154 -0.3098
  324TIP3    H222532   2.335   4.096   5.739  0.8226 -0.4447  0.7825
  325TIP3   OH222533   5.694   4.186   7.519 -0.4352  0.7497 -0.2671
  325TIP3    H122534   5.674   4.132   7.442  0.4817 -1.2536  0.8285
  325TIP3    H222535   5.694   4.275   7.485  0.6892 -0.1027 -2.7798
  326TIP3   OH222536   0.311   4.657   0.124  0.4758 -0.1825  0.0488
  326TIP3    H122537   0.364   4.736   0.122 -0.1379  0.2493  0.4534
  326TIP3    H222538   0.227   4.685   0.162  0.0297 -0.8895 -0.3941
  327TIP3   OH222539   5.900   3.317   1.597 -0.2675  0.2876 -0.2447
  327TIP3    H122540   5.839   3.371   1.547  0.4019  0.4104 -0.9377
  327TIP3    H222541   5.883   3.228   1.568 -0.6486  0.2314  0.1360
  328TIP3   OH222542   2.934   2.520   1.090  0.5348  0.0543  0.0606
  328TIP3    H122543   2.870   2.474   1.035 -0.9790 -0.5614  2.2091
  328TIP3    H222544   2.948   2.603   1.045 -1.0030 -0.2266 -1.0325
  329TIP3   OH222545   3.209   2.440   0.180  0.7510 -0.0621  0.1986
  329TIP3    H122546   3.158   2.520   0.165  1.3561  0.1451 -0.8973
  329TIP3    H222547   3.277   2.442   0.112  1.9105 -0.5844  1.3017
  330TIP3   OH222548   6.026   0.495   0.567  0.4306 -0.3036  0.0443
  330TIP3    H122549   6.095   0.557   0.592  0.5452 -0.5416  0.3276
  330TIP3    H222550   6.021   0.434   0.641 -0.7570  0.2800  0.4737
  331TIP3   OH222551   6.635   4.114   1.699 -0.1388 -0.4199  0.4415
  331TIP3    H122552   6.681   4.030   1.696  2.0910  0.7451  0.1489
  331TIP3    H222553   6.667   4.156   1.778 -0.5948  0.5082  0.1505
  332TIP3   OH222554   1.328   0.565   6.378  0.3865  0.2571 -0.0079
  332TIP3    H122555   1.259   0.506   6.407  1.4867 -0.4743  1.2802
  332TIP3    H222556   1.297   0.652   6.402 -0.4901  0.0470 -0.3314
  333TIP3   OH222557   4.292   4.963   1.392 -0.0902 -0.0361  0.3432
  333TIP3    H122558   4.199   4.988   1.393  0.2296  1.2263  0.3700
  333TIP3    H222559   4.332   5.019   1.458  0.8860  0.2494 -0.4747
  334TIP3   OH222560   5.766   5.918   0.451  0.2743 -0.5585 -0.0798
  334TIP3    H122561   5.816   5.841   0.426  1.7872 -0.0378  1.1647
  334TIP3    H222562   5.793   5.936   0.541 -0.8789  0.7699  0.0384
  335TIP3   OH222563   5.692   1.822   1.094 -0.1095 -0.0255 -0.2816
  335TIP3    H122564   5.739   1.791   1.171 -0.2616 -0.9064 -0.5268
  335TIP3    H222565   5.614   1.866   1.129  0.3408  0.4933  0.0883
  336TIP3   OH222566   3.842   6.906   6.958  0.3647  0.3659  0.3273
  336TIP3    H122567   3.826   6.976   7.021 -1.3845  0.9145 -0.6873
  336TIP3    H222568   3.891   6.948   6.887  1.2687  0.0193  0.7243
  337TIP3   OH222569   3.136   4.984   0.239 -0.4865 -0.2146 -0.4616
  337TIP3    H122570   3.117   5.000   0.331 -1.0217  2.0539 -0.9190
  337TIP3    H222571   3.053   4.951   0.203 -0.2820 -1.0848 -0.1692
  338TIP3   OH222572   2.949   6.958   6.494  0.5048  0.0006  0.0661
  338TIP3    H122573   2.970   7.026   6.430  0.3860  1.0903  1.1545
  338TIP3    H222574   3.034   6.927   6.525  0.5912 -1.0923 -1.1323
  339TIP3   OH222575   6.613   0.942   6.800  0.5819  0.1489 -0.0541
  339TIP3    H122576   6.668   0.969   6.726  0.3321 -0.2611 -0.3951
  339TIP3    H222577   6.524   0.967   6.774  0.4506 -0.2924 -0.0411
  340TIP3   OH222578   4.232   7.034   8.031  0.3639  0.8915  0.2002
  340TIP3    H122579   4.163   6.969   8.041  0.1051  1.4163  2.3758
  340TIP3    H222580   4.312   6.988   8.056  0.8771  0.3066 -2.2429
  341TIP3   OH222581   0.137   6.715   6.957  0.1645  0.2702 -0.1839
  341TIP3    H122582   0.219   6.673   6.931  0.1694 -0.5427  1.0520
  341TIP3    H222583   0.075   6.691   6.888  0.7627  0.2324 -0.7170
  342TIP3   OH222584   2.854   6.087   0.560  0.1632  0.4997 -0.1226
  342TIP3    H122585   2.857   6.059   0.652  0.8665 -0.7367 -0.5048
  342TIP3    H222586   2.922   6.155   0.554 -0.9384  1.7305  0.5966
  343TIP3   OH222587   6.631   0.768   7.018  0.1511 -0.1612  0.0793
  343TIP3    H122588   6.560   0.758   7.082  0.2659 -2.2886 -0.0728
  343TIP3    H222589   6.603   0.842   6.964 -1.9431 -0.8985  0.0552
  344TIP3   OH222590   4.038   2.034   0.975  0.4571 -0.0466 -0.0102
  344TIP3    H122591   4.128   2.064   0.986  0.4900  0.2414 -1.0274
  344TIP3    H222592   4.045   1.944   0.945  0.3636 -0.7146  1.8005
  345TIP3   OH222593   1.165   0.914   0.074  0.3353 -0.2417 -0.3290
  345TIP3    H122594   1.152   0.852   0.146  1.4510  0.6631  0.7088
  345TIP3    H222595   1.239   0.878   0.024  0.1907 -0.3757 -0.4458
  346TIP3   OH222596   5.165   2.483   6.487  0.7184 -0.0945 -0.1474
  346TIP3    H122597   5.136   2.481   6.396  1.0713  0.0644 -0.2668
  346TIP3    H222598   5.153   2.394   6.519 -0.0714  0.0109 -0.1374
  347TIP3   OH222599   1.946   4.767   7.885  0.2334 -0.4827  0.1256
  347TIP3    H122600   1.851   4.763   7.878  0.3445 -1.0211 -1.6858
  347TIP3    H222601   1.975   4.678   7.867  1.1911  0.3616 -3.4390
  348TIP3   OH222602   5.087   0.227   0.848  0.5911 -0.0067  0.3234
  348TIP3    H122603   5.025   0.171   0.800  0.2913  0.5102  0.1008
  348TIP3    H222604   5.048   0.239   0.934  1.6386 -1.8286  1.1375
  349TIP3   OH222605   1.388   2.091   0.967 -0.1183 -0.1642  0.9836
  349TIP3    H122606   1.443   2.017   0.941  1.0373  0.1964  2.3153
  349TIP3    H222607   1.439   2.168   0.943 -0.0668  0.1728  2.1291
  350TIP3   OH222608   2.596   2.233   6.384 -0.3031 -0.9517  0.0823
  350TIP3    H122609   2.546   2.295   6.330  0.9876  0.4672  0.4309
  350TIP3    H222610   2.647   2.289   6.443  1.5571 -2.3179 -0.1597
  351TIP3   OH222611   5.363   3.458   0.603 -0.3005 -0.4737 -0.0367
  351TIP3    H122612   5.343   3.477   0.511  0.3160 -0.4113 -0.1621
  351TIP3    H222613   5.279   3.470   0.648 -0.8244 -1.4142 -0.7237
  352TIP3   OH222614   1.019   7.054   1.430 -0.0703  0.0898  0.4417
  352TIP3    H122615   1.020   6.981   1.368 -1.3576  0.7770 -0.4170
  352TIP3    H222616   1.047   7.130   1.379  0.5116  0.3544  1.1366
  353TIP3   OH222617   1.481   6.420   6.865 -0.4167  0.1303 -0.7854
  353TIP3    H122618   1.519   6.479   6.930  0.0754  0.2541 -1.1828
  353TIP3    H222619   1.437   6.353   6.917 -1.7212  1.2976 -0.3148
  354TIP3   OH222620   4.866   0.130   6.628 -0.3009  0.1186 -0.3962
  354TIP3    H122621   4.931   0.068   6.594 -1.1650 -0.3529 -1.2716
  354TIP3    H222622   4.782   0.094   6.598 -1.0092  0.4811  1.0530
  355TIP3   OH222623   4.165   1.469   6.853  0.4966  0.2597  0.5034
  355TIP3    H122624   4.069   1.478   6.857  0.5534  0.5137  1.6677
  355TIP3    H222625   4.185   1.474   6.760 -0.6245  0.2377  0.2399
  356TIP3   OH222626   3.360   4.654   0.927  0.2850  0.0660  0.3024
  356TIP3    H122627   3.405   4.633   0.845  0.8332  0.6755  0.4413
  356TIP3    H222628   3.294   4.585   0.936  0.7826 -0.4930 -0.2140
  357TIP3   OH222629   0.037   3.502   6.394  0.3966 -0.0986  0.6450
  357TIP3    H122630   0.022   3.547   6.311  0.7144  0.4199  0.8644
  357TIP3    H222631   0.073   3.417   6.369 -1.5015 -0.8198  0.1602
  358TIP3   OH222632   6.701   5.276   2.033 -0.0103  0.1345 -0.0049
  358TIP3    H122633   6.635   5.246   2.096  0.6059 -1.0775  0.0943
  358TIP3    H222634   6.730   5.196   1.990  0.8572  0.7485 -0.5815
  359TIP3   OH222635   5.420   0.704   0.287 -0.7593 -0.4819 -0.3029
  359TIP3    H122636   5.490   0.656   0.241  0.2626  1.8172 -1.3335
  359TIP3    H222637   5.467   0.761   0.348 -1.8445  0.0059  0.0936
  360TIP3   OH222638   6.095   6.698   1.784  0.6297 -0.2068 -0.0225
  360TIP3    H122639   6.170   6.700   1.844 -1.7987  2.3464  3.3775
  360TIP3    H222640   6.039   6.629   1.818 -0.5904  0.9871  0.4967
  361TIP3   OH222641   5.930   0.754   7.036  0.7516 -0.4686 -0.1802
  361TIP3    H122642   5.850   0.706   7.016 -0.0433  1.1366 -1.0882
  361TIP3    H222643   6.000   0.688   7.033 -0.2325 -1.4973 -1.7725
  362TIP3   OH222644   6.509   3.571   7.167 -0.5365  0.0777 -0.2291
  362TIP3    H122645   6.502   3.628   7.091 -0.5777  0.6677  0.2059
  362TIP3    H222646   6.558   3.495   7.136 -0.9670  0.0968 -0.9581
  363TIP3   OH222647   1.526   0.223   0.962 -0.9956 -0.5509 -0.3003
  363TIP3    H122648   1.584   0.148   0.949 -1.0960 -0.3934 -1.9643
  363TIP3    H222649   1.522   0.235   1.057  0.2497 -1.6778 -0.0748
  364TIP3   OH222650   7.032   2.564   7.533 -0.1610 -0.7352 -0.5220
  364TIP3    H122651   7.023   2.504   7.458 -2.2100 -2.6170  1.0519
  364TIP3    H222652   7.105   2.528   7.584  0.8324  0.1803 -1.2714
  365TIP3   OH222653   6.319   0.105   0.099 -0.6488  0.6982 -0.1717
  365TIP3    H122654   6.250   0.104   0.166 -0.0589 -0.4758  0.4313
  365TIP3    H222655   6.353   0.016   0.097 -0.3479  0.8126 -1.7412
  366TIP3   OH222656   3.862   5.629   1.567 -0.1662 -0.0170 -0.0470
  366TIP3    H122657   3.855   5.565   1.638 -0.0568 -0.1585 -0.1625
  366TIP3    H222658   3.902   5.580   1.494  2.6897  0.8980  0.7733
  367TIP3   OH222659   2.080   3.445   8.245 -0.0377 -0.6072  0.2602
  367TIP3    H122660   2.001   3.494   8.271  0.0131 -0.6419  0.4814
  367TIP3    H222661   2.051   3.354   8.242  0.7545 -1.0803  3.5718
  368TIP3   OH222662   5.184   5.065   1.190  0.3351 -0.3799  0.4504
  368TIP3    H122663   5.138   5.119   1.126  1.6596 -0.2437 -0.4419
  368TIP3    H222664   5.165   5.105   1.274  0.7012  1.0796 -0.1237
  369TIP3   OH222665   7.027   6.341   7.297  0.2814 -0.0805 -0.2991
  369TIP3    H122666   7.102   6.296   7.336  0.5624 -0.1323 -0.8927
  369TIP3    H222667   6.976   6.373   7.372  1.6873  1.2834  0.1359
  370TIP3   OH222668   2.541   6.776   8.151  0.3866  0.5303 -0.2389
  370TIP3    H122669   2.456   6.739   8.124  0.3191  1.3800 -1.2488
  370TIP3    H222670   2.605   6.722   8.105  0.4514 -0.5035  0.9989
  371TIP3   OH222671   3.336   0.094   7.954  0.0338  0.1673 -0.5635
  371TIP3    H122672   3.431   0.079   7.946 -0.1552 -1.3142 -0.3231
  371TIP3    H222673   3.312   0.052   8.036 -0.3731  3.1633  0.9958
  372TIP3   OH222674   3.667   0.659   6.702  0.4425 -0.2087 -0.7798
  372TIP3    H122675   3.672   0.563   6.700  2.4307 -0.1411 -2.0564
  372TIP3    H222676   3.694   0.682   6.791 -0.5999 -0.8291 -0.2844
  373TIP3   OH222677   4.108   6.849   0.226 -0.1944  0.0508  0.3344
  373TIP3    H122678   4.044   6.905   0.268 -1.0188 -1.2469  0.8632
  373TIP3    H222679   4.058   6.775   0.192  0.6447  0.3598 -1.7115
  374TIP3   OH222680   3.216   4.489   6.525 -0.3663 -0.5158 -0.6598
  374TIP3    H122681   3.178   4.455   6.606 -1.8292  3.0526  0.3465
  374TIP3    H222682   3.299   4.528   6.552 -1.3144  1.5694 -0.5820
  375TIP3   OH222683   2.311   3.684   0.808  0.1845 -0.1800  0.1648
  375TIP3    H122684   2.367   3.737   0.751 -0.5014  1.0673  0.6236
  375TIP3    H222685   2.363   3.671   0.887  0.0045  0.5893  0.4110
  376TIP3   OH222686   0.664   2.228   7.156  1.0914  0.4374  0.7808
  376TIP3    H122687   0.581   2.271   7.136  0.4871 -0.5992  0.9459
  376TIP3    H222688   0.719   2.296   7.193  0.8967  1.5331 -0.8321
  377TIP3   OH222689   4.950   6.651   7.902  0.1898  0.0214  0.5965
  377TIP3    H122690   4.974   6.743   7.913  1.2989  0.0953 -1.7012
  377TIP3    H222691   5.034   6.605   7.904 -0.0966 -0.6006 -0.6896
  378TIP3   OH222692   0.877   4.892   0.751  0.6890  0.2017  0.0504
  378TIP3    H122693   0.812   4.937   0.804  0.8178  0.1926  0.2172
  378TIP3    H222694   0.915   4.826   0.810  1.6867  0.9897  0.3218
  379TIP3   OH222695   2.523   2.535   6.681  0.5478  0.0382 -0.0132
  379TIP3    H122696   2.556   2.589   6.753 -1.4721 -0.9653  1.7906
  379TIP3    H222697   2.463   2.593   6.634  1.6427  0.6073 -0.7444
  380TIP3   OH222698   6.949   5.437   0.894  0.1067  0.5583  0.3145
  380TIP3    H122699   7.044   5.446   0.883  0.2150  0.9986  1.4486
  380TIP3    H222700   6.918   5.525   0.914 -0.2594  0.1446  1.7400
  381TIP3   OH222701   1.709   2.057   7.674 -0.0014 -0.1979 -0.1194
  381TIP3    H122702   1.724   2.118   7.746 -1.8174 -0.9541  0.9468
  381TIP3    H222703   1.722   2.110   7.595  0.1895  1.1121  0.7618
  382TIP3   OH222704   5.910   5.936   1.098  0.1803  0.6258  0.3777
  382TIP3    H122705   5.987   5.917   1.153  0.8267 -0.9324 -0.9673
  382TIP3    H222706   5.946   5.980   1.021 -0.3275  0.3320 -0.0330
  383TIP3   OH222707   1.053   0.752   0.786  0.0097 -0.0234 -0.0731
  383TIP3    H122708   0.969   0.778   0.749  0.3181  2.3021  0.6661
  383TIP3    H222709   1.109   0.734   0.711 -0.3527  1.2646 -0.6830
  384TIP3   OH222710   6.613   6.991   1.795  0.7178 -0.3821 -0.4873
  384TIP3    H122711   6.619   7.057   1.726  2.1825  0.1802  0.1152
  384TIP3    H222712   6.583   7.040   1.872  1.1449 -0.5506 -0.2085
  385TIP3   OH222713   2.329   0.310   6.765  0.6513 -0.1355 -0.6961
  385TIP3    H122714   2.357   0.307   6.674  1.3352 -0.6616 -0.4765
  385TIP3    H222715   2.338   0.220   6.796  1.0865  0.1671  0.0841
  386TIP3   OH222716   6.746   3.526   0.528  0.0601  0.4833 -0.6279
  386TIP3    H122717   6.816   3.481   0.576 -0.2786  1.1915  0.5740
  386TIP3    H222718   6.665   3.490   0.564 -0.2122  0.3262 -1.3735
  387TIP3   OH222719   5.668   4.978   0.012  0.5866  0.4409  0.1863
  387TIP3    H122720   5.578   4.953  -0.009 -0.0677  1.3005  1.7284
  387TIP3    H222721   5.666   4.994   0.107  2.5295 -0.1587  0.3666
  388TIP3   OH222722   5.556   3.007   8.017  0.0151 -0.3783  0.1845
  388TIP3    H122723   5.505   3.070   8.067 -1.6989 -0.3888 -1.4464
  388TIP3    H222724   5.618   3.060   7.967  0.8542 -0.2851  1.2595
  389TIP3   OH222725   2.642   0.174   1.266 -0.0084 -0.1645 -0.1673
  389TIP3    H122726   2.595   0.143   1.343  0.0418  3.0610  1.3347
  389TIP3    H222727   2.720   0.218   1.302  0.7242  0.2705 -2.1584
  390TIP3   OH222728   3.500   6.357   7.689 -0.0940  0.6009  0.1991
  390TIP3    H122729   3.483   6.321   7.775  0.8122  1.6798  0.8559
  390TIP3    H222730   3.497   6.452   7.701 -0.2678  0.7735 -1.0222
  391TIP3   OH222731   2.460   3.004   7.101 -0.8784 -0.4151 -0.6842
  391TIP3    H122732   2.374   2.995   7.144 -1.2642  2.2372 -0.7338
  391TIP3    H222733   2.441   3.049   7.019  0.4639 -0.7541 -1.1999
  392TIP3   OH222734   4.497   5.284   7.799 -0.5963 -0.5665 -0.2664
  392TIP3    H122735   4.524   5.375   7.812  0.8872 -0.4856 -3.2014
  392TIP3    H222736   4.462   5.281   7.710  0.6872 -3.1150 -0.7841
  393TIP3   OH222737   3.801   4.359   1.936 -0.2862  0.7847  0.3531
  393TIP3    H122738   3.776   4.269   1.913  0.6791  0.2870  1.1734
  393TIP3    H222739   3.860   4.385   1.866 -0.9515  0.9790 -0.1516
  394TIP3   OH222740   3.796   3.219   8.151  0.3008 -0.3750  0.2329
  394TIP3    H122741   3.714   3.198   8.108  0.0837  0.4994  0.1854
  394TIP3    H222742   3.773   3.226   8.244  0.4710 -0.8272  0.3113
  395TIP3   OH222743   6.152   4.225   7.279 -0.1673 -0.0026 -0.2900
  395TIP3    H122744   6.205   4.263   7.208 -1.5534  0.8520 -0.9219
  395TIP3    H222745   6.062   4.246   7.255 -0.7343 -0.4555  1.3089
  396TIP3   OH222746   0.842   5.703   5.798 -0.0317 -0.3209  0.7425
  396TIP3    H122747   0.845   5.643   5.873 -1.6934 -0.9960  0.3137
  396TIP3    H222748   0.800   5.782   5.833  0.7707  0.0339  0.9294
  397TIP3   OH222749   4.513   3.560   7.629 -0.4933 -0.3030 -0.5452
  397TIP3    H122750   4.483   3.554   7.720 -0.3593 -0.5557 -0.5181
  397TIP3    H222751   4.523   3.654   7.614  4.3692 -0.1875  1.3397
  398TIP3   OH222752   4.223   2.719   6.681  0.5331 -0.4971  0.0942
  398TIP3    H122753   4.197   2.633   6.647 -0.4775 -0.1928  0.0626
  398TIP3    H222754   4.256   2.766   6.604  0.5813 -0.6669  0.0097
  399TIP3   OH222755   5.789   4.671   0.552 -0.6026 -0.0714 -0.3723
  399TIP3    H122756   5.698   4.680   0.523 -0.9342 -2.2343 -0.1297
  399TIP3    H222757   5.782   4.640   0.643  0.3873  0.3313 -0.1533
  400TIP3   OH222758   6.508   0.837   0.753  0.1680 -0.1408  0.0172
  400TIP3    H122759   6.451   0.886   0.813  0.4292  0.5008 -0.2525
  400TIP3    H222760   6.596   0.865   0.776  0.3399 -0.7134  0.0574
  401TIP3   OH222761   0.478   2.618   7.481 -0.0976  0.1978  0.7550
  401TIP3    H122762   0.569   2.589   7.483 -0.3536 -1.0298 -1.6732
  401TIP3    H222763   0.428   2.539   7.503 -0.6237  0.8510  2.0274
  402TIP3   OH222764   1.391   1.403   7.206 -0.2352  0.2503  0.6316
  402TIP3    H122765   1.424   1.314   7.217 -0.9296  0.1060  1.6672
  402TIP3    H222766   1.470   1.457   7.195  0.1835 -0.4994 -0.1051
  403TIP3   OH222767   5.120   1.056   7.447 -0.6639  0.0660 -0.2623
  403TIP3    H122768   5.126   1.145   7.482 -3.0715  1.0802 -2.1507
  403TIP3    H222769   5.065   1.009   7.509  0.9403 -0.2806  0.9522
  404TIP3   OH222770   7.004   4.666   6.765  0.8560 -0.1000 -0.2903
  404TIP3    H122771   6.957   4.727   6.821 -0.7344 -1.0095 -0.5715
  404TIP3    H222772   7.088   4.708   6.749 -0.0034  1.8015 -0.1104
  405TIP3   OH222773   2.622   1.306   0.198 -0.0901  0.4687 -0.5478
  405TIP3    H122774   2.715   1.291   0.214 -0.0746  0.0502 -0.9877
  405TIP3    H222775   2.609   1.400   0.214 -0.5689 -0.1886  4.1053
  406TIP3   OH222776   2.346   5.798   7.302 -0.0353 -0.8558  0.0223
  406TIP3    H122777   2.380   5.879   7.339 -1.5478 -1.0892  2.1068
  406TIP3    H222778   2.418   5.735   7.311 -0.2546 -0.8528  2.5433
  407TIP3   OH222779   1.602   0.142   6.724 -0.1639  0.5508 -0.2674
  407TIP3    H122780   1.527   0.200   6.715  0.0081  0.8674  0.2818
  407TIP3    H222781   1.631   0.126   6.634 -1.0043  0.2619 -0.4904
  408TIP3   OH222782   2.261   0.958   0.838  0.0059  0.2664  0.1896
  408TIP3    H122783   2.248   1.016   0.913 -0.6514  1.1296 -0.5647
  408TIP3    H222784   2.191   0.981   0.778 -0.6057 -1.7036  0.0731
  409TIP3   OH222785   1.890   4.186   8.022 -0.3917 -0.0537 -0.0935
  409TIP3    H122786   1.846   4.180   8.107 -2.7860 -1.0818 -1.3126
  409TIP3    H222787   1.968   4.131   8.032 -1.5855 -1.6826  0.9330
  410TIP3   OH222788   3.791   0.648   6.441  0.3270  0.3876 -0.5079
  410TIP3    H122789   3.828   0.735   6.430  0.2967  0.4077 -0.4509
  410TIP3    H222790   3.740   0.653   6.522 -0.6593  0.6626 -1.1278
  411TIP3   OH222791   0.283   3.606   0.458  0.4046 -0.0246  0.3555
  411TIP3    H122792   0.294   3.514   0.481 -1.5727 -0.8093 -1.5303
  411TIP3    H222793   0.316   3.613   0.368  0.9685  1.2340  0.6403
  412TIP3   OH222794   0.914   4.671   0.261  0.2717 -0.0613  0.2786
  412TIP3    H122795   0.932   4.706   0.348  0.6319 -0.6310  0.4347
  412TIP3    H222796   0.924   4.747   0.203 -2.3234  0.8851  0.9637
  413TIP3   OH222797   2.754   2.024   7.011 -0.2174 -0.7030 -0.3978
  413TIP3    H122798   2.729   2.070   6.930  2.1146  0.4948 -0.5133
  413TIP3    H222799   2.847   2.005   7.000  0.6087  1.0068  2.6496
  414TIP3   OH222800   2.430   1.917   0.364  0.7011  0.1502 -0.4594
  414TIP3    H122801   2.509   1.886   0.409 -1.1546 -2.4917  1.3039
  414TIP3    H222802   2.430   2.012   0.379  2.5735 -0.0296  1.1300
  415TIP3   OH222803   1.798   2.265   1.286 -0.3668  0.0354 -0.1507
  415TIP3    H122804   1.709   2.235   1.265 -0.5253  0.2821  0.1659
  415TIP3    H222805   1.814   2.232   1.374  0.0169 -0.3623 -0.3617
  416TIP3   OH222806   1.999   2.823   6.745 -0.3394 -0.6796  0.2225
  416TIP3    H122807   2.060   2.807   6.817  0.3758  0.2686 -0.1631
  416TIP3    H222808   1.981   2.736   6.710  2.5658 -0.8481 -1.1010
  417TIP3   OH222809   2.692   4.847   7.035  0.1319  0.2330 -0.1641
  417TIP3    H122810   2.669   4.777   6.974  0.3310 -0.7859  0.8953
  417TIP3    H222811   2.716   4.921   6.978 -2.3810  0.2757 -1.3087
  418TIP3   OH222812   0.180   1.260   7.567 -0.5077  0.1421  0.1191
  418TIP3    H122813   0.241   1.267   7.494 -0.5932 -2.2655 -0.2609
  418TIP3    H222814   0.110   1.323   7.547  0.7353  1.3599 -0.5303
  419TIP3   OH222815   4.750   5.435   7.153  0.3191 -0.0574  0.3267
  419TIP3    H122816   4.845   5.447   7.155  0.1646  1.4148 -0.0809
  419TIP3    H222817   4.729   5.423   7.060  0.3627 -3.1412  0.6061
  420TIP3   OH222818   0.197   4.683   0.475 -1.0201  0.1765 -0.0792
  420TIP3    H122819   0.265   4.619   0.451 -2.0323 -0.8776 -0.2309
  420TIP3    H222820   0.235   4.768   0.452  0.5572 -0.3197  0.5869
  421TIP3   OH222821   5.347   6.318   1.449 -0.3164  0.2389  0.1659
  421TIP3    H122822   5.349   6.413   1.448  0.2709  0.2389  0.5258
  421TIP3    H222823   5.392   6.294   1.530 -0.4161 -0.3441  0.0555
  422TIP3   OH222824   2.061   6.293   0.667 -0.5578  0.6495  0.7169
  422TIP3    H122825   2.016   6.321   0.746 -0.3232  1.4420  0.5809
  422TIP3    H222826   2.043   6.199   0.661  0.0217  0.4223  2.1010
  423TIP3   OH222827   4.057   0.795   5.556  0.2238 -0.2870 -0.1642
  423TIP3    H122828   4.050   0.709   5.597  1.3647 -0.7423 -0.9071
  423TIP3    H222829   3.979   0.802   5.501  0.4509 -1.1068 -0.5920
  424TIP3   OH222830   3.976   3.620   7.052  0.2783 -0.3893  0.1495
  424TIP3    H122831   3.909   3.685   7.071  1.3890 -0.0019  3.2958
  424TIP3    H222832   3.952   3.543   7.105  1.9102 -0.4563  0.8815
  425TIP3   OH222833   2.774   3.469   1.143  0.0784 -1.0359  0.0026
  425TIP3    H122834   2.792   3.552   1.098 -2.5374 -1.4158 -1.9810
  425TIP3    H222835   2.723   3.419   1.080 -2.2992 -2.3409  2.7725
  426TIP3   OH222836   6.826   4.776   6.280 -0.5268  0.0467 -0.3573
  426TIP3    H122837   6.851   4.866   6.303 -1.6620  0.7388 -1.6843
  426TIP3    H222838   6.731   4.775   6.288 -0.4847 -1.2365  0.2088
  427TIP3   OH222839   3.637   0.155   0.142 -0.2583 -0.1097  0.4966
  427TIP3    H122840   3.668   0.225   0.200 -0.4356  1.4734 -1.2360
  427TIP3    H222841   3.572   0.197   0.087 -1.7210 -2.1217  0.5888
  428TIP3   OH222842   2.942   2.338   1.810  0.0744 -0.3187 -0.5149
  428TIP3    H122843   2.855   2.367   1.835  0.5275  0.1111  0.6078
  428TIP3    H222844   2.991   2.418   1.792  0.4118 -0.5316 -0.5689
  429TIP3   OH222845   1.898   1.820   0.532  0.3434  0.3855 -0.1729
  429TIP3    H122846   1.983   1.853   0.563  0.5876  0.7115 -1.1638
  429TIP3    H222847   1.891   1.732   0.569 -0.0879  1.3083  2.1111
  430TIP3   OH222848   0.396   0.698   7.743 -0.1086  0.0047 -0.2834
  430TIP3    H122849   0.468   0.736   7.794 -1.3501  0.7621  0.9935
  430TIP3    H222850   0.435   0.623   7.699  1.5039  0.4935  0.2135
  431TIP3   OH222851   6.566   1.040   8.013 -0.0955  0.1706  0.0538
  431TIP3    H122852   6.659   1.039   8.037 -0.1649  0.9224  0.3724
  431TIP3    H222853   6.558   1.112   7.951 -0.8975  1.8232  1.9287
  432TIP3   OH222854   4.609   0.499   0.007  0.4578  1.0536  0.5335
  432TIP3    H122855   4.525   0.534  -0.021  1.4507  2.4911 -0.8285
  432TIP3    H222856   4.600   0.404  -0.001 -0.2800  1.2586 -1.9770
  433TIP3   OH222857   1.529   1.894   7.559  0.6230  0.2725 -0.0050
  433TIP3    H122858   1.595   1.949   7.601  0.1988  0.1646  0.8246
  433TIP3    H222859   1.451   1.906   7.612  0.1076  0.0145 -0.6896
  434TIP3   OH222860   6.522   4.757   2.090  0.1032  0.3046  0.0145
  434TIP3    H122861   6.435   4.746   2.051  0.3289  2.5148 -1.2990
  434TIP3    H222862   6.506   4.752   2.184 -1.4519  0.6244 -0.1983
  435TIP3   OH222863   2.655   3.713   1.697  0.4170 -0.1437  0.5523
  435TIP3    H122864   2.604   3.632   1.704  0.2929 -0.5236 -2.9453
  435TIP3    H222865   2.746   3.683   1.700  0.3719 -0.3769 -0.1498
  436TIP3   OH222866   6.871   0.585   7.335 -0.0541  0.0302  0.2847
  436TIP3    H122867   6.874   0.599   7.241 -0.7014  0.2445  0.2905
  436TIP3    H222868   6.958   0.550   7.357 -0.1056 -0.6184 -0.4853
  437TIP3   OH222869   4.186   3.282   0.039  0.1586  0.1716  0.9528
  437TIP3    H122870   4.124   3.278   0.112 -0.0981  2.7628  0.9949
  437TIP3    H222871   4.221   3.371   0.043  2.5477 -0.6239 -0.1914
  438TIP3   OH222872   4.431   0.813   0.056 -0.2540 -0.2627  0.0498
  438TIP3    H122873   4.389   0.732   0.027  0.2104 -0.4071 -0.2340
  438TIP3    H222874   4.361   0.879   0.053 -0.3278 -0.3679 -0.9992
  439TIP3   OH222875   0.281   0.142   6.368 -0.9313  0.0462  0.1057
  439TIP3    H122876   0.284   0.176   6.278 -2.6256  2.4508  0.8546
  439TIP3    H222877   0.194   0.167   6.400 -1.5263 -3.2636  1.5524
  440TIP3   OH222878   0.752   3.434   1.182 -0.1636 -0.2018  0.1020
  440TIP3    H122879   0.763   3.386   1.099 -0.5669  0.0520 -0.0960
  440TIP3    H222880   0.658   3.451   1.188  0.0473  1.1959 -0.1834
  441TIP3   OH222881   6.168   2.390   7.968 -0.1169  0.4924 -0.1802
  441TIP3    H122882   6.200   2.310   8.009  0.3544  0.7860  0.0266
  441TIP3    H222883   6.246   2.436   7.940 -0.2576  1.7605  1.3521
  442TIP3   OH222884   5.935   2.397   2.061 -0.2559 -0.5375  0.0562
  442TIP3    H122885   5.906   2.307   2.047  1.8645 -1.2879  0.1255
  442TIP3    H222886   5.931   2.410   2.155  1.9070 -1.5329  0.3475
  443TIP3   OH222887   3.268   6.570   1.741 -0.1782 -0.4367  0.0003
  443TIP3    H122888   3.343   6.626   1.718  0.9535 -1.9897 -0.2464
  443TIP3    H222889   3.216   6.624   1.801  1.2849  0.6020  0.4138
  444TIP3   OH222890   3.986   7.023   6.275  0.2634 -0.4598 -0.7802
  444TIP3    H122891   4.020   7.112   6.278 -3.0336  0.9040  0.2672
  444TIP3    H222892   3.922   7.024   6.204 -0.7091 -1.6004  0.0304
  445TIP3   OH222893   7.027   0.401   7.089 -0.2614  0.4412  0.3655
  445TIP3    H122894   7.112   0.445   7.093  0.5483 -0.9926 -0.1346
  445TIP3    H222895   6.965   0.469   7.062  1.0133  1.1729 -0.8368
  446TIP3   OH222896   5.298   2.343   6.836  0.6050  0.8803  0.6579
  446TIP3    H122897   5.343   2.349   6.921  1.7546 -1.8507  0.3498
  446TIP3    H222898   5.356   2.290   6.782 -1.8207 -0.7163 -0.5884
  447TIP3   OH222899   3.993   5.062   7.713  0.3485 -0.1807 -0.4971
  447TIP3    H122900   3.952   4.997   7.656 -0.8592  0.0317  0.0893
  447TIP3    H222901   4.067   5.017   7.752  0.3129 -0.7870 -1.1122
  448TIP3   OH222902   6.442   5.288   6.621  0.0855  0.1602 -0.0760
  448TIP3    H122903   6.536   5.293   6.602 -0.0960  1.9575 -0.6599
  448TIP3    H222904   6.408   5.228   6.556  0.3773  1.9125 -1.9614
  449TIP3   OH222905   4.391   5.003   8.091 -0.1970 -0.4097  0.1799
  449TIP3    H122906   4.442   4.997   8.010 -0.2540 -1.5193  0.2114
  449TIP3    H222907   4.456   4.998   8.161 -0.0556  1.4717  0.2285
  450TIP3   OH222908   4.131   3.559   0.994 -0.1307 -0.2990  0.6185
  450TIP3    H122909   4.136   3.581   1.087  1.1676  0.1626  0.4544
  450TIP3    H222910   4.182   3.478   0.986  0.7336  0.2831  0.1288
  451TIP3   OH222911   6.653   3.223   1.204  0.4904  0.0526 -0.1304
  451TIP3    H122912   6.592   3.228   1.277 -0.1973 -1.6771 -0.5453
  451TIP3    H222913   6.668   3.129   1.192  1.5472  0.3658 -1.4198
  452TIP3   OH222914   6.132   1.208   1.295  0.0213 -0.1323  0.6924
  452TIP3    H122915   6.154   1.200   1.388 -2.3827  0.9602  1.4673
  452TIP3    H222916   6.044   1.246   1.296 -0.8774 -1.9136 -2.0294
  453TIP3   OH222917   1.605   5.453   1.436  0.1243  0.3866 -0.1967
  453TIP3    H122918   1.528   5.507   1.457  0.2525  1.0231 -1.2839
  453TIP3    H222919   1.634   5.419   1.520  1.3771  3.8142  0.8994
  454TIP3   OH222920   2.747   3.472   6.749 -0.0947  0.1660 -0.3069
  454TIP3    H122921   2.837   3.494   6.772 -0.5260 -0.7123  2.6642
  454TIP3    H222922   2.695   3.499   6.825 -2.3527  0.4593 -1.8304
  455TIP3   OH222923   6.567   5.569   7.983  0.0356 -0.0102 -0.2094
  455TIP3    H122924   6.596   5.652   7.945  1.7898  1.3878  3.6568
  455TIP3    H222925   6.480   5.587   8.019 -0.1485 -0.2807 -0.5076
  456TIP3   OH222926   1.364   0.786   8.225 -0.5928 -0.3259  0.2311
  456TIP3    H122927   1.454   0.754   8.231 -0.6318 -0.3912  0.4729
  456TIP3    H222928   1.373   0.882   8.223 -0.3587 -0.3295 -2.3065
  457TIP3   OH222929   0.627   6.246   7.708 -0.1129  0.4423  0.2906
  457TIP3    H122930   0.585   6.251   7.794  0.0916  2.2405  0.3309
  457TIP3    H222931   0.587   6.170   7.665  0.1324 -0.7882  2.1334
  458TIP3   OH222932   6.087   3.491   6.016 -0.1981 -0.4468  0.0754
  458TIP3    H122933   6.040   3.485   5.933 -1.0210  1.8102  0.3183
  458TIP3    H222934   6.141   3.412   6.018  0.0756 -0.4331 -2.7295
  459TIP3   OH222935   0.645   3.025   1.681 -0.1786 -0.2459  0.0636
  459TIP3    H122936   0.665   2.937   1.712 -1.8966 -1.3335 -1.6757
  459TIP3    H222937   0.660   3.020   1.586 -1.0964  1.0858 -0.1716
  460TIP3   OH222938   5.126   4.860   0.904 -0.5408 -0.0586  0.1481
  460TIP3    H122939   5.095   4.822   0.986  1.0987  1.4915  1.5689
  460TIP3    H222940   5.191   4.926   0.930  0.2769  0.2874 -2.4116
  461TIP3   OH222941   6.525   0.939   7.353 -0.4466 -0.2237 -0.1559
  461TIP3    H122942   6.532   0.846   7.374 -2.2769 -0.4411 -0.3793
  461TIP3    H222943   6.500   0.940   7.261  0.0705  0.5265 -0.2955
  462TIP3   OH222944   5.693   6.481   0.975 -0.0464  0.5600 -0.4394
  462TIP3    H122945   5.613   6.534   0.985 -0.8158 -0.4282 -1.2273
  462TIP3    H222946   5.663   6.400   0.934  1.0089 -0.7530  1.2660
  463TIP3   OH222947   5.061   4.200   1.148 -0.2356  0.0308 -0.4791
  463TIP3    H122948   5.054   4.237   1.236 -0.3421 -0.3526 -0.3231
  463TIP3    H222949   5.079   4.275   1.092  2.0126  0.0460  0.1570
  464TIP3   OH222950   0.811   0.414   8.129 -0.2866 -0.5106 -0.7448
  464TIP3    H122951   0.747   0.389   8.195 -0.6473  0.1397 -0.8445
  464TIP3    H222952   0.763   0.413   8.047  0.5322 -2.9314 -1.2886
  465TIP3   OH222953   2.882   2.033   7.599 -0.1584  0.7589  0.3424
  465TIP3    H122954   2.885   1.972   7.672  0.8958 -0.5695 -0.7692
  465TIP3    H222955   2.867   1.978   7.522 -1.3082  2.1280 -0.4677
  466TIP3   OH222956   1.972   6.852   6.178  0.4836 -0.0614 -0.2773
  466TIP3    H122957   1.995   6.760   6.163 -0.1627 -0.4126  0.7729
  466TIP3    H222958   1.877   6.853   6.180  0.5009  0.4739  0.6602
  467TIP3   OH222959   0.462   4.114   0.885 -0.5714  0.3143 -0.0879
  467TIP3    H122960   0.477   4.207   0.902  0.9542  0.0108  0.4571
  467TIP3    H222961   0.549   4.074   0.896 -1.1801 -1.1550 -0.4088
  468TIP3   OH222962   2.228   3.984   6.128  0.4205 -0.5986  0.3056
  468TIP3    H122963   2.314   3.960   6.162  0.7006 -0.0153  0.0252
  468TIP3    H222964   2.166   3.947   6.191  0.8506 -1.5773  0.1642
  469TIP3   OH222965   6.599   1.326   0.865 -0.2020  0.4005  0.6654
  469TIP3    H122966   6.605   1.355   0.774  2.2319 -0.8404  0.3392
  469TIP3    H222967   6.535   1.384   0.905 -1.2194  1.0856 -1.7939
  470TIP3   OH222968   5.938   4.599   0.199 -0.2490  0.1631  0.2574
  470TIP3    H122969   5.924   4.617   0.292  0.0448  2.3109 -0.0716
  470TIP3    H222970   5.851   4.607   0.160 -0.8789 -3.2505  0.6171
  471TIP3   OH222971   3.547   4.541   0.329  0.2728  0.3318 -0.0588
  471TIP3    H122972   3.539   4.457   0.373 -0.5928  0.4827  0.0886
  471TIP3    H222973   3.514   4.525   0.240 -0.4417  0.6435  0.1423
  472TIP3   OH222974   1.196   2.435   7.392 -0.4913  0.1713 -0.0216
  472TIP3    H122975   1.264   2.492   7.356  0.1663 -1.0091 -0.7075
  472TIP3    H222976   1.113   2.477   7.366 -0.0395  1.2788  0.2684
  473TIP3   OH222977   3.674   5.025   6.393 -0.2462  0.5932 -0.4195
  473TIP3    H122978   3.597   5.037   6.449 -0.2518 -2.4659  0.4157
  473TIP3    H222979   3.746   5.011   6.455  0.5042  0.9346 -1.1946
  474TIP3   OH222980   6.995   4.353   1.528 -0.9113  0.0159 -0.1965
  474TIP3    H122981   7.021   4.424   1.468  0.5044 -0.8502 -0.6748
  474TIP3    H222982   6.902   4.340   1.510 -0.6552  0.1616 -1.8310
  475TIP3   OH222983   2.138   4.152   1.469  0.2168  0.0639 -0.2009
  475TIP3    H122984   2.097   4.219   1.522  0.9105  0.4159 -0.0979
  475TIP3    H222985   2.097   4.070   1.497 -0.4561  0.4119 -0.1586
  476TIP3   OH222986   1.244   1.503   1.636 -0.0746 -0.2361  0.0158
  476TIP3    H122987   1.221   1.525   1.726 -1.1961  2.3959 -0.8162
  476TIP3    H222988   1.160   1.489   1.592  0.3006  0.9957 -1.1560
  477TIP3   OH222989   0.576   1.342   7.747  0.3019  0.4068  0.2933
  477TIP3    H122990   0.663   1.381   7.733  0.7107 -0.2203  1.0095
  477TIP3    H222991   0.583   1.255   7.708 -0.3646  0.7553 -0.6264
  478TIP3   OH222992   0.181   5.306   6.705 -0.3700 -0.5407 -0.0542
  478TIP3    H122993   0.273   5.308   6.731  0.2577 -1.4841 -2.0262
  478TIP3    H222994   0.141   5.378   6.754  1.1958 -0.6620  1.5308
  479TIP3   OH222995   5.288   3.883   8.083  0.3495 -1.1684 -0.1706
  479TIP3    H122996   5.246   3.814   8.134  0.5386 -0.6770  0.6495
  479TIP3    H222997   5.222   3.910   8.019  0.2616 -2.0755 -0.4752
  480TIP3   OH222998   2.173   4.515   7.265 -0.2630 -0.6840 -0.2423
  480TIP3    H122999   2.234   4.473   7.325  0.6278 -1.6744 -1.7542
  480TIP3    H223000   2.198   4.481   7.179 -2.6554 -0.7612 -0.9765
  481TIP3   OH223001   4.093   6.581   1.340  0.0342 -0.1263 -0.0957
  481TIP3    H123002   4.052   6.600   1.425  0.7753  0.1662  0.2037
  481TIP3    H223003   4.180   6.619   1.346  0.9476 -2.0890 -0.1518
  482TIP3   OH223004   3.385   4.761   0.281  0.2171  0.1722 -0.2033
  482TIP3    H123005   3.434   4.685   0.251 -0.4477 -1.0987  1.6874
  482TIP3    H223006   3.381   4.750   0.376 -1.0223  1.8848 -0.0178
  483TIP3   OH223007   3.097   4.086   6.939  0.2509  0.4537  0.6820
  483TIP3    H123008   3.174   4.043   6.975 -0.2573 -0.2947  0.9138
  483TIP3    H223009   3.043   4.107   7.016 -1.1714 -1.7941  0.3952
  484TIP3   OH223010   1.435   5.951   8.100  0.3810 -0.3575 -0.1865
  484TIP3    H123011   1.485   5.877   8.132 -0.4388 -0.7410  0.2487
  484TIP3    H223012   1.410   5.927   8.010 -0.4271 -0.8991  0.1756
  485TIP3   OH223013   3.621   2.923   1.364  0.0058 -0.0472  0.1652
  485TIP3    H123014   3.622   2.954   1.273 -1.0248  2.5674  0.9301
  485TIP3    H223015   3.577   2.838   1.359  1.5515 -0.8202 -1.9433
  486TIP3   OH223016   2.669   2.044   0.807  0.2731  0.3502  0.9337
  486TIP3    H123017   2.662   1.950   0.825  3.0797 -0.0511  0.3061
  486TIP3    H223018   2.707   2.081   0.887  0.7786  0.6612  0.5543
  487TIP3   OH223019   3.167   5.473   6.532 -0.3004  0.7570  0.3218
  487TIP3    H123020   3.226   5.545   6.509 -1.2501  1.2119 -0.7433
  487TIP3    H223021   3.217   5.394   6.511  0.9374  1.0409  1.9439
  488TIP3   OH223022   4.586   2.571   7.492  0.6247 -0.5503 -0.2699
  488TIP3    H123023   4.575   2.532   7.405  1.5759  0.6737 -0.9797
  488TIP3    H223024   4.566   2.664   7.479 -0.1658 -0.5111  1.0472
  489TIP3   OH223025   5.679   0.972   0.076  0.0441 -0.2586  0.6754
  489TIP3    H123026   5.763   1.003   0.107  0.2025 -1.5630  1.6222
  489TIP3    H223027   5.677   0.879   0.099 -1.8207 -0.1721  1.0662
  490TIP3   OH223028   3.640   3.609   6.801 -0.5462 -0.2938 -0.1322
  490TIP3    H123029   3.600   3.615   6.888 -0.8136 -0.3817 -0.2478
  490TIP3    H223030   3.734   3.597   6.818 -0.3760  1.1893  0.1397
  491TIP3   OH223031   5.083   6.489   1.029  0.5638  0.2161 -0.6991
  491TIP3    H123032   5.110   6.578   1.054 -0.5696 -0.1060  2.0322
  491TIP3    H223033   5.165   6.441   1.022  1.1224  0.2992  3.1119
  492TIP3   OH223034   6.966   6.159   7.074 -0.0925  0.1219 -0.2317
  492TIP3    H123035   7.008   6.217   7.010  1.0400  0.3723  0.6964
  492TIP3    H223036   6.972   6.207   7.157 -0.3792 -0.7272  0.2962
  493TIP3   OH223037   3.130   4.630   7.053  0.9255 -0.3930 -0.5352
  493TIP3    H123038   3.054   4.649   7.108  1.4547 -1.7964  0.7437
  493TIP3    H223039   3.121   4.690   6.979 -2.4804 -1.7993 -1.4565
  494TIP3   OH223040   6.822   7.010   0.847  0.0433 -0.0442  0.1040
  494TIP3    H123041   6.868   6.958   0.782  0.4742 -1.2298  1.3046
  494TIP3    H223042   6.729   6.990   0.833  0.2497 -2.0311  1.2148
  495TIP3   OH223043   0.132   5.555   0.986  0.0952  0.0891 -0.3616
  495TIP3    H123044   0.190   5.529   1.057  2.0225 -1.1684 -2.2687
  495TIP3    H223045   0.077   5.624   1.024  2.3234  0.8214  1.7854
  496TIP3   OH223046   1.151   2.985   0.541 -0.3790 -0.3033  0.4631
  496TIP3    H123047   1.097   2.911   0.567  0.5561 -1.1422  0.0642
  496TIP3    H223048   1.237   2.947   0.521 -0.1642  0.7528 -0.7167
  497TIP3   OH223049   4.177   2.210   7.705  0.2851 -0.3108 -0.1998
  497TIP3    H123050   4.177   2.250   7.618  0.5392  0.0751 -0.0259
  497TIP3    H223051   4.189   2.284   7.765 -0.3194 -0.5164  0.1877
  498TIP3   OH223052   6.534   2.531   1.062 -0.4749  0.5805  0.0355
  498TIP3    H123053   6.518   2.580   1.143 -0.0617  1.4369 -0.3838
  498TIP3    H223054   6.574   2.449   1.091 -0.9808  0.5698  0.7408
  499TIP3   OH223055   2.712   0.025   0.724 -0.3761 -0.3359  0.1838
  499TIP3    H123056   2.736   0.118   0.722  1.4347 -0.7789 -0.8080
  499TIP3    H223057   2.617   0.025   0.735 -0.6546  1.6969 -1.5496
  500TIP3   OH223058   6.551   4.254   7.292  0.2397 -0.8970  0.7667
  500TIP3    H123059   6.548   4.201   7.371  0.8639  0.2753  1.6027
  500TIP3    H223060   6.507   4.335   7.316  0.4770 -0.5125 -0.0678
  501TIP3   OH223061   6.447   1.210   8.252 -0.0452 -0.3853 -0.0385
  501TIP3    H123062   6.499   1.162   8.187  1.6518  0.8738  0.3176
  501TIP3    H223063   6.497   1.290   8.268 -3.5528  2.5290 -1.9838
  502TIP3   OH223064   5.953   1.538   1.257  0.5246  0.1235 -0.4428
  502TIP3    H123065   5.915   1.601   1.319 -0.7881  0.2797 -1.3614
  502TIP3    H223066   5.896   1.461   1.265  1.2151 -0.3926 -0.4288
  503TIP3   OH223067   0.359   2.259   8.071  0.2576 -0.4697 -0.0230
  503TIP3    H123068   0.390   2.246   7.982 -1.1904 -2.6304 -0.3025
  503TIP3    H223069   0.432   2.231   8.126  1.3466  1.3669 -0.4584
  504TIP3   OH223070   1.200   2.279   7.047 -0.5462  0.7785 -0.3214
  504TIP3    H123071   1.262   2.284   7.120 -0.0094 -0.2410 -0.6916
  504TIP3    H223072   1.247   2.230   6.979 -1.2920  1.1095 -1.0957
  505TIP3   OH223073   4.773   6.179   1.965  0.3240  0.1786 -0.1447
  505TIP3    H123074   4.684   6.145   1.973 -0.4407  2.1727  0.4324
  505TIP3    H223075   4.801   6.193   2.055  0.2895  1.7582 -0.3512
  506TIP3   OH223076   4.810   4.521   1.071 -0.3961 -0.4622 -0.5477
  506TIP3    H123077   4.767   4.457   1.128 -1.4821  0.5404 -0.1982
  506TIP3    H223078   4.901   4.493   1.068 -0.6105 -1.3429  0.5397
  507TIP3   OH223079   3.748   4.073   0.505 -0.1160  0.1274  0.1142
  507TIP3    H123080   3.831   4.096   0.546  0.1243  0.7549 -0.6929
  507TIP3    H223081   3.728   4.147   0.447 -1.2227 -0.0183  0.2729
  508TIP3   OH223082   3.411   6.386   2.397 -0.3849 -0.0543  0.0832
  508TIP3    H123083   3.395   6.478   2.418  0.8338  0.1423  0.1936
  508TIP3    H223084   3.356   6.338   2.460 -1.0388  0.5851  0.0173
  509TIP3   OH223085   6.147   5.197   1.001  0.8616  0.1443  0.1829
  509TIP3    H123086   6.165   5.109   1.034  0.0763  0.4727  1.5745
  509TIP3    H223087   6.170   5.193   0.908  2.6815 -0.9650  0.6328
  510TIP3   OH223088   4.187   5.256   7.654  0.2889 -0.0070  0.3244
  510TIP3    H123089   4.123   5.189   7.677  0.1796 -0.0957 -0.2172
  510TIP3    H223090   4.257   5.208   7.610  1.5109 -0.1478  2.3093
  511TIP3   OH223091   6.882   1.312   0.691  0.0804  0.6090  0.2860
  511TIP3    H123092   6.930   1.308   0.608  0.3985 -1.7071  0.4999
  511TIP3    H223093   6.795   1.344   0.667  0.3606  0.5773 -0.8511
  512TIP3   OH223094   0.322   5.094   7.589 -0.1191  0.9107  0.4738
  512TIP3    H123095   0.392   5.029   7.589 -1.3468 -0.4654  0.3555
  512TIP3    H223096   0.344   5.153   7.517  0.9963  0.6100  0.5535
  513TIP3   OH223097   1.234   4.644   7.839 -0.5033  0.0415  0.5597
  513TIP3    H123098   1.213   4.726   7.884 -0.3857 -0.0111  0.7113
  513TIP3    H223099   1.293   4.670   7.768  1.5581 -0.1904  2.0833
  514TIP3   OH223100   6.061   6.574   1.517 -0.2471  0.3332 -0.3992
  514TIP3    H123101   5.999   6.637   1.553  0.1620  0.1825  0.5969
  514TIP3    H223102   6.143   6.591   1.564 -0.4329 -1.7266  0.8209
  515TIP3   OH223103   1.639   6.175   7.455  0.1179  0.0694 -0.1909
  515TIP3    H123104   1.666   6.257   7.414 -2.0559  0.5723 -0.7836
  515TIP3    H223105   1.715   6.147   7.506  0.8946  2.5067  0.1277
  516TIP3   OH223106   3.984   5.056   0.489  0.2231 -0.0565  0.0827
  516TIP3    H123107   3.979   5.056   0.585 -2.6190 -1.6594  0.0507
  516TIP3    H223108   4.031   4.976   0.467  1.5808  0.7084  0.0962
  517TIP3   OH223109   0.489   4.852   0.097 -0.2803 -0.6681 -0.6288
  517TIP3    H123110   0.531   4.849   0.183  1.1498 -4.1115 -1.2907
  517TIP3    H223111   0.553   4.814   0.037 -1.7970  0.2685 -3.0182
  518TIP3   OH223112   6.103   0.331   1.377 -0.1806 -0.2174 -0.7017
  518TIP3    H123113   6.055   0.266   1.324 -1.4149  0.0242  0.0951
  518TIP3    H223114   6.186   0.288   1.396 -1.4336 -2.1622  0.8823
  519TIP3   OH223115   5.956   1.248   7.154  0.2899 -0.4912  0.1598
  519TIP3    H123116   5.996   1.210   7.232  2.7533  0.5753 -0.4900
  519TIP3    H223117   5.965   1.342   7.165 -0.5150 -0.2706 -0.8530
  520TIP3   OH223118   4.160   2.032   6.246  0.7343 -0.1682 -0.1483
  520TIP3    H123119   4.242   2.030   6.295 -0.4381 -0.6281  1.8756
  520TIP3    H223120   4.179   1.983   6.166  2.3890 -0.3781  0.3300
  521TIP3   OH223121   0.198   3.558   6.668  0.3595  0.3065 -0.2064
  521TIP3    H123122   0.206   3.541   6.574  1.0936 -0.5689  0.0067
  521TIP3    H223123   0.112   3.524   6.692  0.6132 -0.4508 -0.3575
  522TIP3   OH223124   0.935   0.256   1.289 -0.5691 -0.7081 -0.3400
  522TIP3    H123125   1.031   0.264   1.285 -0.6889  0.7634 -1.2590
  522TIP3    H223126   0.910   0.311   1.363 -0.7410 -0.4706 -0.5717
  523TIP3   OH223127   2.966   6.097   6.781  0.0607 -0.6653  0.3772
  523TIP3    H123128   2.892   6.135   6.828  0.8410 -0.9657  1.8912
  523TIP3    H223129   3.043   6.121   6.832  1.4529  2.1341 -2.6702
  524TIP3   OH223130   3.044   1.144   6.260  0.1107 -0.2855 -0.6421
  524TIP3    H123131   3.093   1.155   6.342  1.7279 -1.4790 -1.3898
  524TIP3    H223132   3.059   1.225   6.212  1.3859 -0.6106 -0.8409
  525TIP3   OH223133   0.201   4.053   7.367  0.1034  0.2250 -0.0363
  525TIP3    H123134   0.252   3.977   7.396 -1.6224 -0.7775  0.5021
  525TIP3    H223135   0.169   4.028   7.280  0.0420  0.6082 -0.1259
  526TIP3   OH223136   4.290   1.259   6.987 -0.2394  0.1787 -0.3650
  526TIP3    H123137   4.219   1.317   6.961  0.5405  1.8241  0.9579
  526TIP3    H223138   4.364   1.317   7.003  0.8117 -1.2623  0.2899
  527TIP3   OH223139   0.073   0.458   7.677  0.0526 -0.2827  0.1617
  527TIP3    H123140   0.043   0.474   7.767  0.6493 -0.4928  0.3995
  527TIP3    H223141   0.089   0.545   7.641 -1.3774 -0.1302 -0.1615
  528TIP3   OH223142   0.645   2.005   7.773 -0.0252 -0.1628  0.6533
  528TIP3    H123143   0.662   2.040   7.686 -0.0822 -2.2853 -0.2893
  528TIP3    H223144   0.612   1.916   7.757 -0.1124 -0.5923  2.8433
  529TIP3   OH223145   0.859   5.388   7.567  0.2801 -0.6767 -0.1751
  529TIP3    H123146   0.915   5.314   7.545 -2.8428 -3.1128 -0.5436
  529TIP3    H223147   0.783   5.380   7.509 -0.5489  2.4544  0.2684
  530TIP3   OH223148   6.964   5.658   7.636 -0.2898  0.6384  0.0973
  530TIP3    H123149   6.980   5.750   7.658  1.3343  0.8363 -1.7164
  530TIP3    H223150   7.046   5.627   7.598 -0.7427 -1.6395  0.7874
  531TIP3   OH223151   4.030   2.375   6.914  0.2403  0.4875  0.3839
  531TIP3    H123152   3.992   2.434   6.849  0.8064  0.1902 -0.2363
  531TIP3    H223153   3.959   2.357   6.975 -0.0554  1.4843  0.3614
  532TIP3   OH223154   3.823   5.923   0.325 -0.0801 -0.7304  0.1625
  532TIP3    H123155   3.894   5.968   0.279 -1.7622  2.0042  0.0576
  532TIP3    H223156   3.860   5.902   0.411  1.2709 -0.6183 -0.3632
  533TIP3   OH223157   0.838   3.682   6.569 -0.5657 -0.0661  0.2930
  533TIP3    H123158   0.797   3.624   6.506 -0.5205 -0.5292  0.6834
  533TIP3    H223159   0.816   3.644   6.654  0.0820  0.0764  0.5291
  534TIP3   OH223160   5.554   6.325   0.796  0.1179  0.1635  0.2806
  534TIP3    H123161   5.564   6.231   0.787  1.0020  0.2433  0.3171
  534TIP3    H223162   5.480   6.348   0.740 -0.0572 -0.5364  0.2220
  535TIP3   OH223163   6.966   6.821   8.254  0.0650  0.2276 -0.6454
  535TIP3    H123164   6.915   6.880   8.310 -1.7839 -1.7814 -0.0871
  535TIP3    H223165   6.900   6.769   8.208  1.6047 -0.3576 -2.3080
  536TIP3   OH223166   1.437   1.789   6.378 -0.0129 -0.4170  0.1168
  536TIP3    H123167   1.473   1.805   6.291  0.7630 -1.4623  0.2163
  536TIP3    H223168   1.505   1.738   6.422 -1.0141 -1.1739  0.8317
  537TIP3   OH223169   6.746   2.703   6.041  0.2322 -0.0231 -0.0652
  537TIP3    H123170   6.803   2.775   6.068 -0.3854 -0.1889  1.7512
  537TIP3    H223171   6.678   2.699   6.107 -1.4736 -0.3656 -1.7438
  538TIP3   OH223172   0.473   5.327   6.526 -0.0811  0.2392 -0.5337
  538TIP3    H123173   0.416   5.255   6.498  0.5589 -0.7388  0.6003
  538TIP3    H223174   0.462   5.331   6.621  0.7797  0.8862 -0.4527
  539TIP3   OH223175   3.383   2.678   0.614  0.2004  0.5357  0.4316
  539TIP3    H123176   3.464   2.729   0.605  0.4946 -0.1223 -0.7837
  539TIP3    H223177   3.412   2.588   0.625 -0.3649  0.2415 -0.4174
  540TIP3   OH223178   3.106   3.399   7.941 -0.1108 -0.3546 -0.2561
  540TIP3    H123179   3.140   3.317   7.978  2.4685  0.0302 -1.5529
  540TIP3    H223180   3.144   3.403   7.853 -1.6125  1.4072 -0.8762
  541TIP3   OH223181   5.839   3.359   7.603  0.1182 -0.1840  0.5276
  541TIP3    H123182   5.885   3.397   7.678  1.4591 -0.0167 -0.3612
  541TIP3    H223183   5.900   3.367   7.530 -1.2148 -0.2214 -0.6312
  542TIP3   OH223184   4.929   2.618   0.876 -0.0599  0.1071 -0.5504
  542TIP3    H123185   4.921   2.570   0.794 -0.0575  0.0189 -0.4990
  542TIP3    H223186   5.010   2.585   0.915 -0.0384  0.1795 -0.5328
  543TIP3   OH223187   2.332   4.906   7.642 -0.3837  0.2556 -0.0469
  543TIP3    H123188   2.339   4.843   7.714  0.1361  0.6475  0.2523
  543TIP3    H223189   2.301   4.854   7.568  0.3272 -0.4198  0.1092
  544TIP3   OH223190   7.029   4.406   1.201  0.0703  0.3685  0.3666
  544TIP3    H123191   7.124   4.404   1.211  0.2162  2.8793  0.0788
  544TIP3    H223192   7.011   4.489   1.157 -2.0328 -1.5253 -2.7659
  545TIP3   OH223193   6.406   1.496   0.994 -0.0965  0.1609  0.3735
  545TIP3    H123194   6.333   1.459   1.044  0.3696 -0.3221  0.7138
  545TIP3    H223195   6.367   1.566   0.941 -0.4582  1.2965  2.0710
  546TIP3   OH223196   6.321   3.997   0.728  0.0057  0.9322 -0.0958
  546TIP3    H123197   6.387   3.997   0.798 -0.1784 -1.5922  0.1658
  546TIP3    H223198   6.372   4.001   0.647  0.3031  2.1017  0.1334
  547TIP3   OH223199   5.650   0.004   6.916  0.3895 -0.2498 -0.0422
  547TIP3    H123200   5.678   0.088   6.952  0.4602  0.8880 -2.5381
  547TIP3    H223201   5.723  -0.024   6.861  0.1256 -1.6752  0.2917
  548TIP3   OH223202   6.622   2.658   0.584 -0.0617  0.1607  0.1417
  548TIP3    H123203   6.634   2.742   0.628 -1.7635 -0.2300  1.4379
  548TIP3    H223204   6.543   2.669   0.531  0.1413 -0.3887 -0.2862
  549TIP3   OH223205   2.083   1.633   6.660 -0.1216  0.4218 -0.3633
  549TIP3    H123206   2.119   1.704   6.713 -0.8533  0.5732 -0.0618
  549TIP3    H223207   2.032   1.678   6.592  1.2152  0.2525 -1.5255
  550TIP3   OH223208   6.981   3.105   0.594  1.2596  0.2015 -0.2586
  550TIP3    H123209   7.061   3.085   0.644 -0.2293 -1.3342  1.6883
  550TIP3    H223210   6.934   3.167   0.650  0.0385 -0.7104 -0.2544
  551TIP3   OH223211   1.707   0.547   6.993 -0.3820  0.1467  0.4340
  551TIP3    H123212   1.645   0.556   6.920 -0.1148 -0.7435  0.0784
  551TIP3    H223213   1.785   0.596   6.964  0.5880 -2.0653 -0.9200
  552TIP3   OH223214   5.712   5.554   0.323 -0.1236 -0.0998 -0.2492
  552TIP3    H123215   5.800   5.592   0.330 -0.4805  1.0230 -1.4017
  552TIP3    H223216   5.723   5.478   0.265  0.2851 -0.7460  0.6450
  553TIP3   OH223217   2.949   0.151   6.733  0.1027  0.1799 -0.3136
  553TIP3    H123218   3.019   0.189   6.786 -1.4754 -0.2681  2.2237
  553TIP3    H223219   2.935   0.064   6.771 -2.1932  0.4756 -0.3515
  554TIP3   OH223220   2.902   5.082   7.794 -0.1791  0.0222 -0.1711
  554TIP3    H123221   2.859   5.085   7.709  0.6086  0.7037 -0.5600
  554TIP3    H223222   2.832   5.067   7.856 -0.7880 -0.3081 -0.9211
  555TIP3   OH223223   4.762   3.622   0.769  0.2790 -0.1100 -0.8510
  555TIP3    H123224   4.767   3.527   0.776  0.8028  0.0552  1.8224
  555TIP3    H223225   4.813   3.655   0.842 -0.8357  2.2409 -1.0246
  556TIP3   OH223226   5.310   5.029   7.770  1.1165 -0.1387  0.5459
  556TIP3    H123227   5.306   4.935   7.752  2.5576  0.2031 -2.1051
  556TIP3    H223228   5.381   5.038   7.833  0.8937 -0.8367  0.9058
  557TIP3   OH223229   0.081   2.046   6.239  0.2855 -0.4691  0.1896
  557TIP3    H123230   0.040   2.054   6.154 -0.8709  2.9906  0.9084
  557TIP3    H223231   0.175   2.042   6.220  0.0070 -0.5051 -1.2804
  558TIP3   OH223232   0.069   6.752   0.904 -0.6592  0.5714  0.1864
  558TIP3    H123233   0.105   6.669   0.873 -1.8343 -0.1961  0.8162
  558TIP3    H223234   0.034   6.794   0.825  1.3924  1.2709 -0.4215
  559TIP3   OH223235   4.079   4.520   1.176  0.1535 -0.0489 -0.3619
  559TIP3    H123236   3.985   4.505   1.193  0.3486 -0.8595  0.0535
  559TIP3    H223237   4.106   4.580   1.246  0.4245 -1.5554  0.8829
  560TIP3   OH223238   3.785   2.319   8.116 -0.2026  0.1004  0.1221
  560TIP3    H123239   3.692   2.340   8.127 -0.1016  0.7759 -0.2866
  560TIP3    H223240   3.791   2.226   8.140 -1.3166 -0.4812 -1.6393
  561TIP3   OH223241   2.854   2.292   7.650 -1.0556 -0.2435 -0.1626
  561TIP3    H123242   2.862   2.317   7.742  0.6200  0.4142 -0.4554
  561TIP3    H223243   2.893   2.204   7.646  2.0648  1.0369 -0.7508
  562TIP3   OH223244   5.761   6.433   7.539  0.7079 -0.7042 -0.3478
  562TIP3    H123245   5.850   6.468   7.528  0.4471  0.1978  0.2838
  562TIP3    H223246   5.705   6.497   7.497  0.2023 -0.2208  0.9980
  563TIP3   OH223247   6.587   5.013   6.481  0.1310  0.3487  0.3695
  563TIP3    H123248   6.626   5.004   6.395  1.3922  2.6849  0.6000
  563TIP3    H223249   6.494   5.029   6.465  0.5842  2.1585 -0.6958
  564TIP3   OH223250   4.483   4.650   7.489 -0.6122  0.0475 -0.2038
  564TIP3    H123251   4.577   4.663   7.501 -0.1450 -2.2712 -0.9567
  564TIP3    H223252   4.457   4.594   7.562 -1.2068 -0.0994 -0.5210
  565TIP3   OH223253   3.426   4.221   1.572 -0.7426 -0.4701 -0.1322
  565TIP3    H123254   3.408   4.174   1.653  0.2887  0.3992  0.6281
  565TIP3    H223255   3.501   4.175   1.534  0.2157  0.4651  0.5715
  566TIP3   OH223256   0.917   6.462   0.305 -0.2603 -0.5668 -0.6359
  566TIP3    H123257   0.996   6.461   0.251  0.3476 -2.0473  0.2153
  566TIP3    H223258   0.948   6.486   0.392 -0.6891 -1.4295 -0.2340
  567TIP3   OH223259   4.716   0.805   7.528 -0.1460 -0.6471 -0.1939
  567TIP3    H123260   4.679   0.881   7.572  2.4862  0.9895 -0.6132
  567TIP3    H223261   4.786   0.840   7.473 -0.6046 -3.0765 -2.5470
  568TIP3   OH223262   1.450   3.382   1.442 -0.0477  0.0149 -0.0163
  568TIP3    H123263   1.398   3.301   1.446 -0.0173 -0.0559 -0.8162
  568TIP3    H223264   1.506   3.371   1.365  0.4552  0.5097  0.2689
  569TIP3   OH223265   1.583   5.714   7.684 -0.7660  0.5109 -0.2186
  569TIP3    H123266   1.594   5.630   7.729  0.9853  0.3611 -0.8305
  569TIP3    H223267   1.671   5.736   7.653 -1.4498  1.8790 -1.3090
  570TIP3   OH223268   5.101   6.838   8.279  0.0503 -0.2393  0.0312
  570TIP3    H123269   5.150   6.917   8.299 -0.3790  0.1838 -0.5625
  570TIP3    H223270   5.087   6.796   8.364 -0.7310  0.9152  0.4954
  571TIP3   OH223271   2.872   2.020   1.957 -0.5263  0.4257 -0.5281
  571TIP3    H123272   2.912   1.945   2.001 -1.5766  0.2277  0.1295
  571TIP3    H223273   2.826   1.981   1.882  0.6267  0.6749 -1.3996
  572TIP3   OH223274   0.670   2.373   0.521  0.3550 -0.0822  0.1866
  572TIP3    H123275   0.652   2.284   0.553 -0.5395  0.3575  0.9601
  572TIP3    H223276   0.699   2.421   0.599 -1.5010  0.9092  0.3202
  573TIP3   OH223277   0.413   0.840   0.134 -0.0482 -0.2045 -0.5184
  573TIP3    H123278   0.331   0.889   0.126 -1.7721 -2.3352  2.1992
  573TIP3    H223279   0.406   0.771   0.067 -0.0698  0.0949 -0.8300
  574TIP3   OH223280   5.501   6.566   0.165  0.2366  0.1923  0.1303
  574TIP3    H123281   5.502   6.620   0.244 -1.7692 -1.3763  1.3239
  574TIP3    H223282   5.413   6.578   0.129 -0.0233 -1.6722  0.0477
  575TIP3   OH223283   1.491   5.126   0.175 -0.0443 -0.8430  0.4470
  575TIP3    H123284   1.509   5.209   0.218  0.8756 -1.0781  0.5422
  575TIP3    H223285   1.400   5.132   0.147  0.1435  0.3829  0.0495
  576TIP3   OH223286   4.770   4.517   7.398  0.3361 -0.3314  0.1933
  576TIP3    H123287   4.755   4.526   7.304 -0.5164  0.1015  0.3619
  576TIP3    H223288   4.811   4.600   7.423  0.1231 -0.2519  0.2825
  577TIP3   OH223289   6.100   5.227   7.956  0.4388  0.6895  0.6420
  577TIP3    H123290   6.006   5.243   7.950 -0.1401 -2.2114  0.5384
  577TIP3    H223291   6.128   5.211   7.866  0.1682 -2.1868  0.9730
  578TIP3   OH223292   2.205   5.056   6.714  0.2183 -0.4656  0.1932
  578TIP3    H123293   2.128   5.105   6.687  0.5717 -0.2746 -0.5028
  578TIP3    H223294   2.201   5.054   6.810  0.6964  1.7730  0.3170
  579TIP3   OH223295   5.842   5.723   1.465  0.0673  0.0051 -0.6304
  579TIP3    H123296   5.801   5.639   1.444 -0.4255 -0.0712  0.5833
  579TIP3    H223297   5.779   5.789   1.433 -1.0105 -0.1115  1.0775
  580TIP3   OH223298   5.199   4.000   6.683  0.6042  0.0035  0.0699
  580TIP3    H123299   5.245   4.079   6.653 -0.0495  0.3905  0.0515
  580TIP3    H223300   5.211   3.937   6.612 -0.1307  0.5982 -0.6002
  581TIP3   OH223301   2.179   2.976   6.247 -0.6131 -0.2974 -0.0602
  581TIP3    H123302   2.137   2.945   6.327  1.6948 -3.3167  0.2101
  581TIP3    H223303   2.145   2.919   6.178  0.6184 -0.7162 -0.3625
  582TIP3   OH223304   3.016   4.319   0.744  1.0265 -0.5273  0.0439
  582TIP3    H123305   3.051   4.340   0.658  1.7536 -0.9780  0.2289
  582TIP3    H223306   2.925   4.351   0.741  1.0939 -0.4006 -0.8265
  583TIP3   OH223307   6.409   0.356   6.789  0.7417  0.2529 -0.6703
  583TIP3    H123308   6.421   0.443   6.750 -1.3433  0.4151 -1.0964
  583TIP3    H223309   6.334   0.320   6.742  1.2755 -1.6008 -0.1573
  584TIP3   OH223310   6.048   5.840   1.338 -0.1328  0.1354 -0.1186
  584TIP3    H123311   5.994   5.794   1.403 -1.4459  0.0562 -1.2051
  584TIP3    H223312   6.077   5.771   1.279  1.3025  0.1660  0.5029
  585TIP3   OH223313   0.973   4.493   2.362 -0.3834  0.3463 -0.2772
  585TIP3    H123314   0.987   4.407   2.321  1.0934  0.0887  0.7218
  585TIP3    H223315   0.973   4.554   2.288 -0.1454 -0.3582 -0.8798
  586TIP3   OH223316   3.817   1.453   7.971  0.1853 -0.0626  0.0383
  586TIP3    H123317   3.751   1.422   7.909 -0.8836  2.0789 -0.0081
  586TIP3    H223318   3.817   1.548   7.960  0.6099  0.3238  2.6665
  587TIP3   OH223319   1.754   6.934   0.925 -0.6118  0.1501 -0.3075
  587TIP3    H123320   1.733   6.967   1.013 -0.8604  0.7928 -0.6025
  587TIP3    H223321   1.775   7.012   0.874  3.2221 -0.4136  0.1057
  588TIP3   OH223322   3.489   1.175   0.662 -0.2399 -0.3074 -0.9457
  588TIP3    H123323   3.566   1.143   0.615 -1.2316 -1.8085 -1.6165
  588TIP3    H223324   3.455   1.098   0.707 -0.1336  0.8015  1.1491
  589TIP3   OH223325   2.976   4.527   1.681  0.5074  0.0449  0.2629
  589TIP3    H123326   2.966   4.435   1.654  0.8972 -0.3010  1.2421
  589TIP3    H223327   2.910   4.539   1.749  0.1300  0.6383 -0.2053
  590TIP3   OH223328   6.813   0.340   0.109 -0.0754  0.2460 -0.1375
  590TIP3    H123329   6.746   0.274   0.091 -1.3826  0.9301  1.9407
  590TIP3    H223330   6.775   0.396   0.177  2.0988  1.4599  0.1804
  591TIP3   OH223331   1.344   3.865   0.219 -0.5738 -0.5364 -0.0709
  591TIP3    H123332   1.355   3.947   0.268 -2.1366 -0.2518 -0.1453
  591TIP3    H223333   1.372   3.797   0.281 -0.3450 -0.0328  0.3933
  592TIP3   OH223334   4.239   0.211   7.752 -0.1466 -0.0539 -0.0428
  592TIP3    H123335   4.146   0.192   7.748 -0.1307 -0.0881 -3.5389
  592TIP3    H223336   4.281   0.129   7.725  0.8140  0.4167 -0.0036
  593TIP3   OH223337   5.135   0.582   0.689  0.2546  0.2876 -0.1737
  593TIP3    H123338   5.220   0.626   0.677  0.3023 -0.3508 -2.7423
  593TIP3    H223339   5.078   0.651   0.722  1.3216  1.2075 -0.1554
  594TIP3   OH223340   5.978   0.614   0.967 -0.0310 -0.0003 -0.1160
  594TIP3    H123341   6.029   0.540   0.999 -2.6994 -1.7656  0.3838
  594TIP3    H223342   5.985   0.608   0.872 -0.5349 -1.2097 -0.1034
  595TIP3   OH223343   6.172   4.013   0.424 -0.4097  0.8651  0.6830
  595TIP3    H123344   6.228   3.988   0.350  2.3683  1.3673  2.4747
  595TIP3    H223345   6.163   3.932   0.474  1.0666  1.3566  1.8057
  596TIP3   OH223346   6.836   0.862   0.012  0.2291  0.0379  0.1579
  596TIP3    H123347   6.870   0.853  -0.077  0.4858  0.3877  0.2190
  596TIP3    H223348   6.824   0.956   0.023  1.0324  0.0712  0.8067
  597TIP3   OH223349   3.747   3.129   7.114 -0.0282 -0.6799  0.1375
  597TIP3    H123350   3.837   3.142   7.085 -1.1500 -0.1278 -3.6489
  597TIP3    H223351   3.725   3.207   7.164  0.5353  1.0491 -2.1572
  598TIP3   OH223352   1.721   4.013   1.218 -0.4520 -0.0751  0.7430
  598TIP3    H123353   1.800   3.959   1.211 -0.7431 -0.2994 -1.9659
  598TIP3    H223354   1.755   4.102   1.229  0.0558 -0.5044  3.1741
  599TIP3   OH223355   2.017   0.807   7.622 -0.0574  0.4260  0.1995
  599TIP3    H123356   1.922   0.811   7.630 -0.1444  1.3706 -1.1201
  599TIP3    H223357   2.048   0.813   7.713 -1.2270  0.4793  0.6162
  600TIP3   OH223358   2.903   3.862   6.902 -0.4269  0.2315  0.1610
  600TIP3    H123359   2.986   3.910   6.906 -1.5042  2.1188  1.4690
  600TIP3    H223360   2.926   3.772   6.926  1.5349  0.1988 -1.5426
  601TIP3   OH223361   2.933   1.203   7.558 -0.4307 -0.6347  0.0913
  601TIP3    H123362   2.881   1.239   7.629  0.4671  0.2685  0.3163
  601TIP3    H223363   2.925   1.108   7.568 -0.3536 -0.5243  1.3931
  602TIP3   OH223364   3.100   5.086   6.447  0.7290 -0.2572  0.3528
  602TIP3    H123365   3.171   5.149   6.463  0.4742  0.5727 -1.4997
  602TIP3    H223366   3.090   5.085   6.352  0.7649 -3.2157  0.3013
  603TIP3   OH223367   0.352   4.951   6.953 -0.1081  0.2104  0.0493
  603TIP3    H123368   0.402   5.028   6.980  0.2839  0.2434 -0.7477
  603TIP3    H223369   0.379   4.883   7.015  0.8065  0.2723 -0.2670
  604TIP3   OH223370   6.926   2.652   1.144 -0.5637  0.6578 -0.1368
  604TIP3    H123371   6.960   2.740   1.160 -1.8216  1.1546 -0.0916
  604TIP3    H223372   6.940   2.606   1.227  0.0710  0.8132 -0.1498
  605TIP3   OH223373   6.410   6.922   7.324 -0.4361  0.2384  0.4618
  605TIP3    H123374   6.353   6.992   7.292  0.7565  1.2246  0.3977
  605TIP3    H223375   6.470   6.966   7.384  1.2328 -0.4424 -0.6386
  606TIP3   OH223376   3.789   4.430   8.221  0.1987 -0.1045 -0.4868
  606TIP3    H123377   3.727   4.420   8.293  1.2373  1.3511  0.6882
  606TIP3    H223378   3.846   4.354   8.228  1.5787  1.0186  1.6402
  607TIP3   OH223379   1.855   0.041   0.711  0.4214 -0.1585 -0.4138
  607TIP3    H123380   1.809   0.113   0.668 -1.3441 -0.4097  0.9337
  607TIP3    H223381   1.849  -0.032   0.649  1.7304  0.6481 -1.5423
  608TIP3   OH223382   4.130   4.528   7.164  0.6013 -0.0294 -0.2954
  608TIP3    H123383   4.061   4.502   7.102  0.2474 -0.1726  0.1565
  608TIP3    H223384   4.206   4.545   7.108  1.0820 -2.7097 -0.6048
  609TIP3   OH223385   0.782   3.339   1.515 -0.4028 -0.4959 -0.0927
  609TIP3    H123386   0.826   3.352   1.599 -0.9406 -1.6232  0.3988
  609TIP3    H223387   0.851   3.311   1.455 -0.0067  0.3673 -0.0488
  610TIP3   OH223388   2.126   4.771   7.180 -0.0127  0.8379 -0.3794
  610TIP3    H123389   2.210   4.789   7.136 -0.3900  0.6520 -1.1968
  610TIP3    H223390   2.123   4.676   7.188  0.5625  0.9115  1.1076
  611TIP3   OH223391   4.349   6.896   0.090  0.2254  0.2255  0.3398
  611TIP3    H123392   4.407   6.952   0.143  1.8954  0.0435 -1.2021
  611TIP3    H223393   4.277   6.874   0.149  1.1352  1.4092  1.9843
  612TIP3   OH223394   4.327   2.319   0.402  0.1321 -0.8196  0.3312
  612TIP3    H123395   4.301   2.282   0.486 -0.7300 -0.5629  0.1918
  612TIP3    H223396   4.364   2.404   0.423  0.8185 -1.1646  0.5320
  613TIP3   OH223397   0.026   4.435   0.456 -0.4873  0.3282 -0.0976
  613TIP3    H123398   0.108   4.469   0.493 -0.3624  0.1481 -0.2069
  613TIP3    H223399   0.027   4.342   0.477 -1.5202  0.6415  1.4687
  614TIP3   OH223400   5.436   5.106   0.586  0.2581 -0.9706  0.0772
  614TIP3    H123401   5.401   5.145   0.507 -2.3528 -0.0334  1.5816
  614TIP3    H223402   5.463   5.181   0.640  1.1089 -1.5478  0.4838
  615TIP3   OH223403   5.642   6.261   6.309 -0.0722 -0.7544  0.4423
  615TIP3    H123404   5.721   6.223   6.347 -0.0272 -2.2230 -0.9978
  615TIP3    H223405   5.672   6.303   6.228 -0.7304 -1.3257 -0.1153
  616TIP3   OH223406   4.029   3.950   0.156  0.0197 -0.0093  0.3923
  616TIP3    H123407   4.078   3.975   0.234  1.1487 -1.4746  0.1944
  616TIP3    H223408   4.057   4.014   0.089  0.9400 -0.2444  0.5403
  617TIP3   OH223409   3.590   3.081   7.980  0.3309 -0.5975  0.3880
  617TIP3    H123410   3.657   3.069   7.913  0.6531  3.2389 -0.2021
  617TIP3    H223411   3.508   3.086   7.931  0.4991  1.5929  0.2176
  618TIP3   OH223412   5.274   4.005   2.007 -0.1276 -0.6504 -0.2194
  618TIP3    H123413   5.200   4.041   2.055  0.8854  0.6289  0.4438
  618TIP3    H223414   5.315   4.080   1.965  0.7453 -1.3337 -0.6350
  619TIP3   OH223415   2.992   1.334   5.945  0.6772  0.4106  0.3709
  619TIP3    H123416   2.904   1.372   5.942  0.2578 -0.5986 -1.4881
  619TIP3    H223417   3.048   1.403   5.910  0.4382  0.6141  0.3844
  620TIP3   OH223418   5.874   6.522   6.961  0.6611 -0.4332 -0.1540
  620TIP3    H123419   5.858   6.456   7.029 -0.6488 -3.1523 -2.8980
  620TIP3    H223420   5.966   6.510   6.938  0.4506 -1.3029 -0.5850
  621TIP3   OH223421   5.842   4.957   0.770 -0.1752 -0.7128 -0.2364
  621TIP3    H123422   5.833   4.862   0.759 -0.1089 -0.8796  1.0362
  621TIP3    H223423   5.758   4.985   0.805 -0.1383 -0.3250 -0.4597
  622TIP3   OH223424   3.649   5.342   1.308  0.0222 -0.4147  0.6206
  622TIP3    H123425   3.695   5.277   1.361  0.0383 -0.4083  0.6140
  622TIP3    H223426   3.586   5.382   1.368  1.0969  0.6834  1.0722
  623TIP3   OH223427   2.288   5.963   0.512 -0.1463  0.0065  0.0180
  623TIP3    H123428   2.352   5.904   0.552 -2.2084 -2.0343  0.5197
  623TIP3    H223429   2.217   5.968   0.576 -1.4148  0.5090 -1.3757
  624TIP3   OH223430   2.301   0.101   1.668  0.2639 -0.3346  0.7465
  624TIP3    H123431   2.297   0.172   1.604  2.0199 -0.3135  0.6068
  624TIP3    H223432   2.250   0.030   1.629 -0.3981  0.3901  0.2805
  625TIP3   OH223433   2.862   3.400   7.436  0.2594  0.0927  0.6463
  625TIP3    H123434   2.840   3.353   7.516  0.3009  0.3231  0.7921
  625TIP3    H223435   2.803   3.362   7.369 -0.4073  0.5243  0.9757
  626TIP3   OH223436   3.619   0.182   7.690  0.5514  0.3066  0.1275
  626TIP3    H123437   3.623   0.136   7.773 -0.3695  0.8426  0.4905
  626TIP3    H223438   3.536   0.152   7.650  0.7899  0.3512 -0.4157
  627TIP3   OH223439   2.189   2.086   0.608  0.1104  0.1238 -0.1053
  627TIP3    H123440   2.221   2.085   0.699 -1.0554  1.4947  0.3538
  627TIP3    H223441   2.260   2.126   0.558  0.5500 -0.1578  0.2859
  628TIP3   OH223442   2.238   1.625   8.017 -0.1444 -0.2590  0.3891
  628TIP3    H123443   2.154   1.581   8.030  0.1245 -0.5749  1.1483
  628TIP3    H223444   2.283   1.572   7.952 -0.2328 -0.5372  0.5503
  629TIP3   OH223445   5.377   0.977   8.233 -0.4442  0.1283  0.1537
  629TIP3    H123446   5.346   0.940   8.150 -0.4886  0.2824  0.1010
  629TIP3    H223447   5.472   0.985   8.221 -0.6426  1.8115 -0.5649
  630TIP3   OH223448   1.190   2.357   1.354 -0.6409 -0.4308 -0.7576
  630TIP3    H123449   1.115   2.358   1.412 -0.7002 -0.2044 -0.8367
  630TIP3    H223450   1.232   2.273   1.370 -0.5677 -0.3071 -0.2770
  631TIP3   OH223451   4.983   4.008   7.461  0.7176  0.2679  0.2288
  631TIP3    H123452   5.063   4.038   7.419  1.6405 -0.0682  1.6625
  631TIP3    H223453   4.938   4.088   7.488  0.7628  0.4441 -0.2052
  632TIP3   OH223454   0.151   6.001   0.374 -0.5343 -0.3373  0.3075
  632TIP3    H123455   0.112   5.915   0.387  1.2478 -1.1730  0.5409
  632TIP3    H223456   0.222   6.005   0.438 -0.8614  1.5109  0.6053
  633TIP3   OH223457   4.008   4.200   8.262  0.3545  0.3595  0.3968
  633TIP3    H123458   3.943   4.178   8.195 -0.7933  0.8158  1.3444
  633TIP3    H223459   4.091   4.173   8.223 -0.6750 -3.5595  0.5206
  634TIP3   OH223460   3.852   0.807   7.983  0.2768  0.1181  0.1596
  634TIP3    H123461   3.929   0.861   7.966  0.7677 -0.8028 -0.6113
  634TIP3    H223462   3.812   0.846   8.061  2.1868 -0.0919  1.2930
  635TIP3   OH223463   0.018   1.566   8.260  0.2269 -0.4901  0.0330
  635TIP3    H123464   0.073   1.628   8.307 -2.3949  1.0116  1.3981
  635TIP3    H223465   0.045   1.573   8.169  1.7546  0.6937  0.5422
  636TIP3   OH223466   4.131   4.168   6.635  0.3977  0.0488  0.0046
  636TIP3    H123467   4.178   4.183   6.552  1.0096 -2.5993 -0.2006
  636TIP3    H223468   4.039   4.180   6.613  0.6472  0.7305 -0.7156
  637TIP3   OH223469   3.416   4.036   6.109 -0.1854 -0.2258  0.3742
  637TIP3    H123470   3.459   4.003   6.029  2.6350  0.7485  1.3464
  637TIP3    H223471   3.435   3.969   6.175  0.7658  0.6599  1.0413
  638TIP3   OH223472   1.255   0.155   7.467  0.4878 -0.2681 -0.2761
  638TIP3    H123473   1.249   0.195   7.380 -0.0139  0.0726 -0.0870
  638TIP3    H223474   1.236   0.226   7.528  0.6877 -0.5416  0.1059
  639TIP3   OH223475   4.671   0.272   7.470  0.4476  0.4289 -0.0391
  639TIP3    H123476   4.683   0.366   7.481 -0.0087  0.4760  0.0837
  639TIP3    H223477   4.713   0.251   7.387  1.3508  0.5816  0.3632
  640TIP3   OH223478   2.954   3.969   5.916 -0.3365  0.1299 -0.2164
  640TIP3    H123479   3.025   3.908   5.894 -0.3504 -0.2940  0.8598
  640TIP3    H223480   2.993   4.056   5.907  0.2453 -0.0935  0.0840
  641TIP3   OH223481   2.713   1.861   0.210  0.0124  0.2402 -0.9854
  641TIP3    H123482   2.661   1.898   0.139 -1.1925 -0.2470 -0.3879
  641TIP3    H223483   2.691   1.914   0.287  0.9287  0.4601 -0.8636
  642TIP3   OH223484   2.798   6.683   0.314 -0.0960  0.2183 -0.8773
  642TIP3    H123485   2.837   6.686   0.227  0.4929 -1.4735 -0.7106
  642TIP3    H223486   2.753   6.767   0.323 -0.5337  0.2624 -2.9696
  643TIP3   OH223487   2.442   4.557   0.241 -0.1267 -0.1215  0.4997
  643TIP3    H123488   2.517   4.604   0.203 -0.9285  0.1139 -0.8449
  643TIP3    H223489   2.430   4.482   0.184 -0.1348 -0.8634  1.4629
  644TIP3   OH223490   1.863   5.522   0.276 -0.6798 -0.4200 -0.4421
  644TIP3    H123491   1.884   5.554   0.364 -0.1198  0.4354 -0.8787
  644TIP3    H223492   1.810   5.444   0.291  0.6352 -1.1477  0.6796
  645TIP3   OH223493   4.090   4.541   7.509 -0.2630  0.3505 -0.3156
  645TIP3    H123494   4.106   4.464   7.454  0.9106  0.3761 -0.0291
  645TIP3    H223495   4.145   4.609   7.471 -1.2916  1.0614 -0.5657
  646TIP3   OH223496   6.895   3.692   5.525  0.1028  0.3040 -0.2328
  646TIP3    H123497   6.971   3.635   5.523  1.2788  1.7747  0.6510
  646TIP3    H223498   6.823   3.635   5.552  0.9308 -1.0431 -0.7545
  647TIP3   OH223499   5.200   4.801   7.453 -0.1734 -0.1534 -0.5329
  647TIP3    H123500   5.224   4.888   7.420  0.6494 -0.8732 -1.9456
  647TIP3    H223501   5.282   4.767   7.490 -0.9358  0.3935  1.8664
  648TIP3   OH223502   6.537   2.087   7.786  0.0514  0.1909  0.1809
  648TIP3    H123503   6.592   2.162   7.809  0.8914 -0.5702  0.7718
  648TIP3    H223504   6.594   2.033   7.731 -0.6271  0.1080 -0.4380
  649TIP3   OH223505   3.868   1.652   6.298  0.1335 -0.0792  0.2052
  649TIP3    H123506   3.780   1.617   6.287 -0.0165  0.6458 -1.0316
  649TIP3    H223507   3.854   1.745   6.315  0.6657  0.1059 -0.3471
  650TIP3   OH223508   1.066   6.213   1.732  0.1504 -0.2384  0.2719
  650TIP3    H123509   1.062   6.192   1.638 -1.6315 -0.4088  0.3515
  650TIP3    H223510   0.985   6.260   1.749  0.2740 -0.5490  1.8183
  651TIP3   OH223511   2.162   1.540   7.630  0.0750  0.5195 -0.4930
  651TIP3    H123512   2.161   1.636   7.629 -1.6187  0.5656  0.7702
  651TIP3    H223513   2.149   1.515   7.538  1.9598  1.4539 -1.0443
  652TIP3   OH223514   5.222   1.724   0.271  0.4081 -0.2264  0.2854
  652TIP3    H123515   5.133   1.715   0.303 -0.9791  2.6672 -2.1637
  652TIP3    H223516   5.269   1.767   0.342 -0.6339 -0.1862  0.9754
  653TIP3   OH223517   3.420   0.667   7.069 -0.6348 -0.1591  0.0971
  653TIP3    H123518   3.363   0.718   7.127  0.8048  0.2626  1.1898
  653TIP3    H223519   3.469   0.610   7.128  0.6115  0.0177 -0.7504
  654TIP3   OH223520   6.554   1.637   0.336 -0.1469  0.0479 -0.0737
  654TIP3    H123521   6.642   1.604   0.356  0.4315  1.1329 -0.7375
  654TIP3    H223522   6.557   1.729   0.362 -0.6536  0.4425 -1.3416
  655TIP3   OH223523   0.959   3.093   6.574 -0.0605  0.2123  0.1797
  655TIP3    H123524   1.039   3.139   6.600 -0.2731  0.5627  0.2135
  655TIP3    H223525   0.974   3.072   6.481 -0.3293  1.1344 -0.0809
  656TIP3   OH223526   2.206   3.276   0.489 -0.5054  0.5835  0.1847
  656TIP3    H123527   2.271   3.296   0.421  0.1979 -0.3997  0.5343
  656TIP3    H223528   2.151   3.354   0.494 -0.0968  0.9695 -0.9761
  657TIP3   OH223529   2.156   3.517   0.629  0.1455 -0.1541  0.0231
  657TIP3    H123530   2.216   3.442   0.629  0.8797  0.4090 -1.6070
  657TIP3    H223531   2.210   3.591   0.655 -0.2819  0.0519  0.3427
  658TIP3   OH223532   5.333   1.733   0.014 -0.5235 -0.4938  0.1692
  658TIP3    H123533   5.384   1.697   0.086 -0.2722  0.2472  0.3678
  658TIP3    H223534   5.286   1.808   0.052 -0.3322 -0.0467 -0.4457
  659TIP3   OH223535   4.481   2.505   6.985  0.7090  0.3942 -0.7393
  659TIP3    H123536   4.445   2.585   6.946 -1.0827 -0.4056 -0.8222
  659TIP3    H223537   4.438   2.434   6.937  0.5401 -0.6149  0.8386
  660TIP3   OH223538   3.294   5.188   6.177  0.5015  0.2393 -0.1164
  660TIP3    H123539   3.373   5.226   6.215  2.3203 -1.1201 -2.2612
  660TIP3    H223540   3.308   5.093   6.182 -0.8593 -0.0291 -0.7998
  661TIP3   OH223541   0.473   2.929   8.115 -0.1127 -0.2249  0.0315
  661TIP3    H123542   0.514   2.846   8.139 -0.0222 -0.1001  0.3043
  661TIP3    H223543   0.413   2.906   8.043  0.6356 -0.3621 -0.5624
  662TIP3   OH223544   4.205   0.099   5.990  0.1043  0.0026  0.3232
  662TIP3    H123545   4.132   0.075   5.933  1.3726 -1.7100 -0.6618
  662TIP3    H223546   4.254   0.164   5.939  0.0821  0.0562  0.3696
  663TIP3   OH223547   1.839   1.733   8.165 -0.0278  0.4370 -0.6517
  663TIP3    H123548   1.925   1.770   8.182  1.4795 -1.4084 -3.4415
  663TIP3    H223549   1.821   1.678   8.241  1.3998  0.6401 -0.1359
  664TIP3   OH223550   2.439   1.208   6.047 -0.7259 -0.7140 -0.2537
  664TIP3    H123551   2.392   1.126   6.062 -1.4336 -0.1748  0.5743
  664TIP3    H223552   2.389   1.252   5.978 -0.2404 -1.0425 -0.8300
  665TIP3   OH223553   5.936   5.723   0.361  0.5659 -0.3009 -0.3175
  665TIP3    H123554   6.002   5.737   0.428  1.8542 -0.5464 -1.4951
  665TIP3    H223555   5.950   5.794   0.298 -1.2014  0.4600  0.0652
  666TIP3   OH223556   0.604   0.217   6.441 -0.0320  0.3762 -0.4518
  666TIP3    H123557   0.524   0.263   6.464 -0.4441  0.1325 -1.3332
  666TIP3    H223558   0.664   0.285   6.411 -0.1951  0.4797 -0.5447
  667TIP3   OH223559   1.762   4.207   7.216  0.3784 -0.2903  0.4696
  667TIP3    H123560   1.770   4.119   7.177  0.8364  0.1563 -0.4869
  667TIP3    H223561   1.846   4.248   7.198 -0.0017  0.5082  0.4902
  668TIP3   OH223562   4.422   2.983   0.213 -0.2454  0.2444  0.2945
  668TIP3    H123563   4.421   2.941   0.298 -1.1645 -0.5413 -0.0889
  668TIP3    H223564   4.441   2.913   0.151  1.8543  1.0552 -0.0443
  669TIP3   OH223565   3.050   5.000   8.120 -0.3024 -0.0100  0.3601
  669TIP3    H123566   3.003   4.942   8.180 -1.7219 -1.0401 -1.6415
  669TIP3    H223567   2.988   5.016   8.049  0.6691  2.6631  0.0372
  670TIP3   OH223568   2.796   0.399   6.775  0.4173 -0.9084 -0.4063
  670TIP3    H123569   2.869   0.340   6.757 -1.7866 -3.3591 -1.9073
  670TIP3    H223570   2.750   0.408   6.692 -1.6635 -0.4234  0.7224
  671TIP3   OH223571   4.822   5.747   1.246 -0.3471  0.3845  0.8474
  671TIP3    H123572   4.763   5.822   1.239  1.9790  2.2533  0.0573
  671TIP3    H223573   4.821   5.707   1.159 -0.8606  0.0479  1.0018
  672TIP3   OH223574   3.249   3.873   0.942 -0.5912 -0.8668 -1.2241
  672TIP3    H123575   3.308   3.917   0.881 -0.3061  0.6270  0.0639
  672TIP3    H223576   3.301   3.861   1.021 -1.8704  0.1854 -0.1673
  673TIP3   OH223577   3.742   2.402   0.831 -0.6392 -0.6388  0.5204
  673TIP3    H123578   3.669   2.353   0.795 -0.2876 -0.5591 -0.3094
  673TIP3    H223579   3.714   2.494   0.824  0.0507 -0.5182 -1.0035
  674TIP3   OH223580   5.530   3.809   7.765  0.2014  0.0690  0.1544
  674TIP3    H123581   5.553   3.902   7.758  1.1997 -0.2237 -0.6540
  674TIP3    H223582   5.613   3.763   7.752 -0.4058 -0.9541 -0.1917
  675TIP3   OH223583   5.465   2.672   8.030 -0.4993 -0.2156 -0.2731
  675TIP3    H123584   5.498   2.582   8.023 -0.6594 -0.2623 -0.4561
  675TIP3    H223585   5.370   2.661   8.036 -0.6664  0.0061 -1.9637
  676TIP3   OH223586   1.261   0.712   1.528 -0.4940  0.8582 -0.7757
  676TIP3    H123587   1.178   0.667   1.544  0.4269 -1.0625 -1.0917
  676TIP3    H223588   1.293   0.674   1.446  1.4237  0.3852  0.1332
  677TIP3   OH223589   6.431   0.498   0.172  0.0425  0.1635 -0.2800
  677TIP3    H123590   6.383   0.526   0.250 -0.6226  0.2284 -0.7127
  677TIP3    H223591   6.480   0.421   0.201  1.0294  1.0874  0.6223
  678TIP3   OH223592   0.984   5.253   1.734 -0.0043 -0.2688  0.9025
  678TIP3    H123593   0.979   5.344   1.763 -1.0805  0.2933 -0.8513
  678TIP3    H223594   0.894   5.231   1.709  0.6880 -0.8788 -1.2641
  679TIP3   OH223595   0.388   0.617   8.267 -0.2559  0.1605 -0.2746
  679TIP3    H123596   0.369   0.637   8.176 -3.2254 -0.3126  0.1532
  679TIP3    H223597   0.370   0.524   8.276  1.5237 -0.1486  0.4814
  680TIP3   OH223598   0.151   0.747   7.658  0.4520  0.1449 -0.0637
  680TIP3    H123599   0.243   0.741   7.687  0.4760  0.0400 -0.1630
  680TIP3    H223600   0.133   0.840   7.655  1.9106  0.5083 -4.3451
  681TIP3   OH223601   5.927   3.170   6.314 -0.5785 -0.3944 -0.4926
  681TIP3    H123602   6.007   3.223   6.311 -0.5912 -0.2820  0.6932
  681TIP3    H223603   5.865   3.222   6.364 -0.7478 -1.3169  0.2944
  682TIP3   OH223604   0.201   0.019   7.954 -0.1572  0.3289 -0.4317
  682TIP3    H123605   0.294   0.013   7.928 -0.1532  0.2322 -0.3959
  682TIP3    H223606   0.190  -0.051   8.019  0.0246  1.0671  0.4126
  683TIP3   OH223607   5.228   0.910   0.692  0.4445 -0.2782  0.2491
  683TIP3    H123608   5.270   0.957   0.620 -1.7889 -0.6373 -1.3891
  683TIP3    H223609   5.301   0.875   0.743  2.1306  0.1261 -1.7270
  684TIP3   OH223610   6.587   4.789   0.855 -0.0622  1.0386 -0.2532
  684TIP3    H123611   6.670   4.835   0.848  0.3506  0.3397 -0.0925
  684TIP3    H223612   6.610   4.696   0.842 -0.8320  0.8550 -0.3486
  685TIP3   OH223613   6.921   0.070   7.450  0.3434  0.0789 -0.0226
  685TIP3    H123614   6.981   0.145   7.448 -0.5533  0.8618  1.0560
  685TIP3    H223615   6.834   0.110   7.449 -0.1684 -1.0203 -1.0171
  686TIP3   OH223616   3.991   4.833   7.524 -0.0346  0.7442  0.4250
  686TIP3    H123617   4.083   4.845   7.499  0.9938 -2.1414  2.3312
  686TIP3    H223618   3.952   4.786   7.450  0.2416  1.2215 -0.0297
  687TIP3   OH223619   4.312   3.499   7.474 -0.8061 -0.2691  0.2689
  687TIP3    H123620   4.361   3.527   7.551 -1.6428 -1.3913  1.2412
  687TIP3    H223621   4.280   3.580   7.435  1.9832  0.5508 -0.5758
  688TIP3   OH223622   1.861   6.609   7.205 -0.6141 -0.1195  0.3271
  688TIP3    H123623   1.815   6.693   7.202 -0.2779  0.0821  0.7033
  688TIP3    H223624   1.951   6.632   7.228 -0.8147 -0.6956  1.7577
  689TIP3   OH223625   5.044   6.726   0.240  0.3944 -0.6374  0.0367
  689TIP3    H123626   5.015   6.680   0.319 -0.7615 -2.7594 -1.5031
  689TIP3    H223627   4.974   6.789   0.223  1.2745  0.7604  1.3574
  690TIP3   OH223628   6.095   1.816   6.310 -0.3612 -0.1724 -0.3494
  690TIP3    H123629   6.149   1.892   6.288 -0.8051  0.0183 -0.7957
  690TIP3    H223630   6.104   1.757   6.236  0.0458 -0.6008  0.0316
  691TIP3   OH223631   1.490   3.735   1.170  0.7947 -0.3978  0.6986
  691TIP3    H123632   1.453   3.650   1.148  2.1929 -1.2988  1.6502
  691TIP3    H223633   1.560   3.716   1.233  1.8375  1.3426  0.1648
  692TIP3   OH223634   3.635   2.663   7.171 -0.3058 -0.4837 -0.2900
  692TIP3    H123635   3.581   2.586   7.156  0.8269 -1.5418  0.7802
  692TIP3    H223636   3.723   2.628   7.187 -0.0965  0.8645  2.0271
  693TIP3   OH223637   4.320   5.300   7.271  0.1716 -0.3812 -0.4955
  693TIP3    H123638   4.399   5.287   7.219  1.2843  2.6807  0.2714
  693TIP3    H223639   4.309   5.395   7.276 -2.9464 -0.6695  0.3800
  694TIP3   OH223640   5.172   1.506   7.061  0.2735  0.7953  0.1306
  694TIP3    H123641   5.264   1.530   7.072  0.7031 -0.7434  0.1663
  694TIP3    H223642   5.162   1.496   6.966  0.1269  1.0345  0.1217
  695TIP3   OH223643   3.161   1.104   7.106 -0.0375 -0.3317 -0.1251
  695TIP3    H123644   3.144   1.194   7.076 -0.8042 -1.0363 -2.0073
  695TIP3    H223645   3.236   1.075   7.054 -1.6042 -1.7089 -1.7848
  696TIP3   OH223646   3.512   2.935   0.812  0.5824  0.6871 -0.1686
  696TIP3    H123647   3.447   2.865   0.814  0.4665  0.8010  0.1040
  696TIP3    H223648   3.480   3.000   0.874  1.9027 -0.1184  1.4425
  697TIP3   OH223649   6.042   0.321   0.787 -0.2622 -0.1692  0.1102
  697TIP3    H123650   6.116   0.261   0.799 -1.1470 -1.7058 -1.5453
  697TIP3    H223651   5.979   0.294   0.853 -0.7917 -1.3580 -0.8376
  698TIP3   OH223652   5.887   6.120   6.871 -0.3650  0.1074 -0.3086
  698TIP3    H123653   5.799   6.097   6.842  0.8404 -2.7894 -2.1193
  698TIP3    H223654   5.911   6.050   6.933  1.2836 -0.2423 -1.2766
  699TIP3   OH223655   2.831   6.737   1.255  0.4609 -0.0074 -0.0997
  699TIP3    H123656   2.844   6.819   1.302  0.5756 -0.5018  0.7495
  699TIP3    H223657   2.919   6.708   1.233  0.4815 -0.4043  0.4892
  700TIP3   OH223658   0.926   1.113   6.220  0.2681 -0.0142 -0.4219
  700TIP3    H123659   0.866   1.132   6.148  0.8075 -1.0795 -1.1863
  700TIP3    H223660   1.013   1.135   6.186  0.5596 -0.8017 -0.2192
  701TIP3   OH223661   6.230   1.099   6.650  0.5214 -0.0461  0.2635
  701TIP3    H123662   6.177   1.069   6.724  1.0351 -1.1261  0.2004
  701TIP3    H223663   6.277   1.175   6.685 -0.8711  0.8027  0.3835
  702TIP3   OH223664   4.533   5.028   7.854 -0.0112  0.5623  0.2148
  702TIP3    H123665   4.514   5.121   7.847  0.0991  0.6112  0.5692
  702TIP3    H223666   4.605   5.014   7.793  0.9417  0.9911  1.2086
  703TIP3   OH223667   3.981   3.078   7.649  0.2784 -0.1378 -0.4108
  703TIP3    H123668   3.927   3.004   7.620  1.3450 -0.7900 -0.7864
  703TIP3    H223669   4.006   3.122   7.567  0.5898 -0.0377 -0.2627
  704TIP3   OH223670   0.074   3.531   5.583  0.3707  0.3734 -0.5168
  704TIP3    H123671   0.102   3.440   5.591 -1.7351 -0.2707  0.1906
  704TIP3    H223672   0.131   3.579   5.643  0.1692 -0.8127  0.6677
  705TIP3   OH223673   6.425   2.591   7.265 -0.1836 -0.6687 -0.3824
  705TIP3    H123674   6.382   2.676   7.257 -2.2241 -1.4529  1.3382
  705TIP3    H223675   6.499   2.607   7.323 -1.0063 -0.1701  0.5610
  706TIP3   OH223676   2.313   5.689   1.875 -0.0466  0.2299 -0.2648
  706TIP3    H123677   2.279   5.607   1.912 -0.4216  0.5717  0.1664
  706TIP3    H223678   2.287   5.686   1.783 -0.1373 -0.0946 -0.2304
  707TIP3   OH223679   0.563   0.570   0.431 -0.0728  0.1032 -0.2353
  707TIP3    H123680   0.641   0.536   0.388  0.0153 -1.4541  1.0441
  707TIP3    H223681   0.591   0.586   0.522 -0.7956  1.2561 -0.1896
  708TIP3   OH223682   1.499   4.424   8.271 -0.0735 -0.5366  0.2811
  708TIP3    H123683   1.588   4.450   8.251 -0.3157  2.2746  2.2453
  708TIP3    H223684   1.504   4.330   8.287  2.4021 -0.5353 -0.1883
  709TIP3   OH223685   4.255   3.374   6.507  0.0066 -0.1851 -0.3466
  709TIP3    H123686   4.160   3.364   6.510  0.0312 -0.4582 -0.4441
  709TIP3    H223687   4.289   3.307   6.567  0.1207  0.1672 -0.0168
  710TIP3   OH223688   4.063   2.807   8.217 -0.1517  0.1599  0.4615
  710TIP3    H123689   4.135   2.869   8.228  0.2289 -0.4670  1.5991
  710TIP3    H223690   3.987   2.863   8.198  0.4795  0.8685 -0.0723
  711TIP3   OH223691   6.832   4.839   6.912  0.0336  0.0564  0.0743
  711TIP3    H123692   6.779   4.862   6.835  0.2541  0.5510  0.0655
  711TIP3    H223693   6.797   4.755   6.940 -2.3219  1.3828  1.4192
  712TIP3   OH223694   4.072   1.458   7.656 -0.1177  0.0170  0.4619
  712TIP3    H123695   4.068   1.553   7.646 -1.6709  0.0935  1.4329
  712TIP3    H223696   4.119   1.444   7.738  0.5162 -0.0758  0.0855
  713TIP3   OH223697   4.353   4.465   6.215 -0.0532 -0.0643 -0.1571
  713TIP3    H123698   4.328   4.408   6.143  1.7508 -1.2025  0.0636
  713TIP3    H223699   4.432   4.424   6.252  0.3402  1.6889  1.0558
  714TIP3   OH223700   3.442   4.611   7.852 -0.8505  0.2652  0.2360
  714TIP3    H123701   3.389   4.672   7.905 -1.9318 -0.9203  0.5689
  714TIP3    H223702   3.455   4.657   7.769 -0.7980  1.3516  0.8172
  715TIP3   OH223703   4.935   2.271   6.671 -0.1215 -1.2042 -0.1027
  715TIP3    H123704   4.871   2.271   6.599 -0.5690 -1.3046  0.2878
  715TIP3    H223705   5.020   2.273   6.627 -0.3261  2.4996 -0.6737
  716TIP3   OH223706   6.658   3.870   8.098 -0.6098 -0.3860  0.1038
  716TIP3    H123707   6.609   3.949   8.120  2.1925  0.8408  2.7022
  716TIP3    H223708   6.624   3.803   8.157  0.0150  0.1890  1.1634
  717TIP3   OH223709   5.869   2.188   6.576 -0.3357  1.4279  0.0325
  717TIP3    H123710   5.885   2.202   6.483 -2.5375 -0.2141 -0.6804
  717TIP3    H223711   5.923   2.112   6.598 -0.6819  1.1046 -0.2181
  718TIP3   OH223712   4.222   4.845   1.709 -0.3893 -0.0053 -0.1683
  718TIP3    H123713   4.132   4.815   1.716 -0.7145  0.9420 -0.1111
  718TIP3    H223714   4.265   4.814   1.789 -1.1603  1.1453  0.7253
  719TIP3   OH223715   6.550   3.038   6.517  0.3023 -0.1479 -0.1630
  719TIP3    H123716   6.607   3.015   6.443  2.6940  1.0899  1.1749
  719TIP3    H223717   6.567   2.969   6.581 -0.3048 -0.1812 -0.0376
  720TIP3   OH223718   5.764   6.392   6.105 -0.4766 -0.2576 -0.1577
  720TIP3    H123719   5.855   6.364   6.116 -0.6168 -0.5192  0.3555
  720TIP3    H223720   5.730   6.337   6.034 -0.7821 -1.4795  0.9155
  721TIP3   OH223721   3.288   6.371   1.326 -0.4563  0.3088  0.4350
  721TIP3    H123722   3.336   6.292   1.350 -0.8079  0.8375  3.2153
  721TIP3    H223723   3.344   6.443   1.354 -1.4828  0.9818  0.8196
  722TIP3   OH223724   3.241   3.930   6.437 -0.3994 -0.2110 -0.5945
  722TIP3    H123725   3.178   3.957   6.370  0.4431 -1.2317 -1.8354
  722TIP3    H223726   3.187   3.891   6.506 -1.2522  0.5148 -0.8310
  723TIP3   OH223727   5.984   0.231   1.965  0.0255  0.0125  0.5193
  723TIP3    H123728   5.951   0.143   1.947  0.1038 -0.0687  0.7749
  723TIP3    H223729   5.978   0.240   2.060  2.3327 -0.6503  0.7752
  724TIP3   OH223730   0.695   4.372   0.949 -0.1513 -0.1160  0.8631
  724TIP3    H123731   0.611   4.413   0.928  1.4267  2.3651 -1.2890
  724TIP3    H223732   0.723   4.416   1.029 -0.0675  0.4871  0.5123
  725TIP3   OH223733   5.840   3.690   2.520 -0.3372  0.6300  0.0171
  725TIP3    H123734   5.833   3.763   2.458 -0.6225  0.9954  0.4646
  725TIP3    H223735   5.761   3.698   2.575  0.3683  0.8845  1.0323
  726TIP3   OH223736   5.433   1.762   7.308 -0.1703  0.3114 -0.2672
  726TIP3    H123737   5.525   1.747   7.328  0.3533  1.9377 -1.2183
  726TIP3    H223738   5.422   1.731   7.218 -1.4818 -3.1457  0.9530
  727TIP3   OH223739   4.907   5.391   0.740  0.3808  0.0172 -0.0773
  727TIP3    H123740   4.872   5.463   0.687  0.2042  0.3299  0.4562
  727TIP3    H223741   4.864   5.313   0.706  1.1715  0.0438 -1.2093
  728TIP3   OH223742   4.502   2.390   7.253 -0.4172  0.5382  0.0840
  728TIP3    H123743   4.479   2.416   7.164 -0.9596  1.8575  0.5733
  728TIP3    H223744   4.477   2.298   7.259 -1.9078  0.8680 -0.6358
  729TIP3   OH223745   5.170   0.362   7.024  0.0340 -0.3438  0.6495
  729TIP3    H123746   5.097   0.306   7.048  0.0380 -0.7165 -0.1574
  729TIP3    H223747   5.209   0.319   6.948 -0.0811  0.8444 -0.1198
  730TIP3   OH223748   0.965   2.895   7.633 -0.0898 -0.1889 -0.2918
  730TIP3    H123749   0.966   2.986   7.663 -1.3487  0.1675 -1.2248
  730TIP3    H223750   1.040   2.889   7.573 -0.3485  0.4204 -0.6909
  731TIP3   OH223751   3.459   7.025   6.998 -0.1624 -0.4773 -0.8401
  731TIP3    H123752   3.546   6.991   6.977  0.0512 -0.8302  0.4804
  731TIP3    H223753   3.469   7.062   7.086 -1.4562 -0.9587 -0.4677
  732TIP3   OH223754   0.205   5.980   7.867  0.2240  0.4593  0.2379
  732TIP3    H123755   0.292   5.973   7.828  1.2225  2.5682  1.9312
  732TIP3    H223756   0.218   6.026   7.950 -2.4609  0.5016  0.7457
  733TIP3   OH223757   2.361   0.029   7.952  0.2203  0.0626  0.3646
  733TIP3    H123758   2.443   0.015   7.999  0.1264 -0.8586  0.2845
  733TIP3    H223759   2.301  -0.037   7.989  0.3527 -1.1845 -1.5145
  734TIP3   OH223760   4.682   2.049   0.924 -0.2226 -0.1349  0.0513
  734TIP3    H123761   4.704   2.068   0.833  0.4528  0.7194  0.3816
  734TIP3    H223762   4.747   2.097   0.975  0.1002 -1.4814  0.9680
  735TIP3   OH223763   1.342   5.549   6.826  0.2985  0.1588 -0.6212
  735TIP3    H123764   1.251   5.527   6.801  1.0488 -0.1688 -3.4812
  735TIP3    H223765   1.392   5.531   6.746  2.8717  0.5211  0.8408
  736TIP3   OH223766   5.966   1.995   6.832 -0.1945 -0.4608 -0.0868
  736TIP3    H123767   6.060   1.998   6.847  0.2811 -1.6786 -2.4186
  736TIP3    H223768   5.955   1.935   6.758 -2.7315  0.4323 -0.5332
  737TIP3   OH223769   3.614   6.223   8.163 -0.0134  0.0455  0.3095
  737TIP3    H123770   3.563   6.268   8.230  0.2707  0.3751  0.3073
  737TIP3    H223771   3.675   6.168   8.212 -0.7545 -0.8060  0.3138
  738TIP3   OH223772   0.573   3.352   0.369  0.0415 -0.2944  0.2466
  738TIP3    H123773   0.488   3.395   0.368 -0.4743 -1.2705  0.8813
  738TIP3    H223774   0.553   3.259   0.381  1.1561 -0.6459 -0.4832
  739TIP3   OH223775   5.280   0.945   0.226  0.2626  0.1737 -0.2236
  739TIP3    H123776   5.273   0.963   0.133 -2.1070 -0.0391 -0.1325
  739TIP3    H223777   5.336   0.867   0.231  0.9639  0.5785 -1.3860
  740TIP3   OH223778   6.308   4.605   1.955 -0.3224  0.6995  0.2611
  740TIP3    H123779   6.344   4.650   1.879 -0.7475  0.6195  0.0086
  740TIP3    H223780   6.222   4.576   1.926  0.3144 -1.1303  0.0873
  741TIP3   OH223781   3.023   0.840   5.745  0.1340  0.1326 -0.2111
  741TIP3    H123782   3.025   0.903   5.673  1.0761 -0.9469 -1.1789
  741TIP3    H223783   3.014   0.893   5.824 -0.8147  1.3623 -1.0965
  742TIP3   OH223784   6.648   1.548   7.171  0.7712 -0.0598 -0.7816
  742TIP3    H123785   6.645   1.534   7.076  1.0151  1.3988 -1.0343
  742TIP3    H223786   6.586   1.620   7.186  1.4185  0.3516  0.0288
  743TIP3   OH223787   3.025   2.602   1.822  1.1803 -0.1743  0.1114
  743TIP3    H123788   3.093   2.600   1.756  1.3317  2.0823  0.1082
  743TIP3    H223789   3.032   2.689   1.861 -2.7509  0.9001 -1.0598
  744TIP3   OH223790   6.330   4.989   2.230  0.4718  0.7823  0.4548
  744TIP3    H123791   6.334   4.970   2.136 -0.2944  1.6120  0.2319
  744TIP3    H223792   6.265   4.927   2.264  0.7764  0.4564  0.4508
  745TIP3   OH223793   5.341   4.164   7.042  0.1583  0.2355 -0.2681
  745TIP3    H123794   5.298   4.114   7.111 -0.4792  1.2764  0.1213
  745TIP3    H223795   5.270   4.186   6.981 -0.2124  3.0466  1.0182
  746TIP3   OH223796   3.761   2.094   1.015  0.3023  0.4641  0.7752
  746TIP3    H123797   3.836   2.062   0.964 -1.6193 -0.2259 -1.8519
  746TIP3    H223798   3.777   2.062   1.103  1.8235 -1.9573 -0.2569
  747TIP3   OH223799   0.165   0.320   6.854 -1.2242  0.4673 -0.1771
  747TIP3    H123800   0.246   0.335   6.806 -1.2116  0.9646 -0.0069
  747TIP3    H223801   0.193   0.290   6.940 -1.2272  0.4831 -0.1708
  748TIP3   OH223802   5.595   1.546   6.413  0.2024 -0.1418 -0.2811
  748TIP3    H123803   5.508   1.579   6.435  0.5769  0.7780 -0.1331
  748TIP3    H223804   5.655   1.609   6.452  0.9257 -0.3180 -1.0777
  749TIP3   OH223805   0.584   4.072   6.167 -0.0019  0.3752  0.0177
  749TIP3    H123806   0.505   4.020   6.181  1.1110 -1.4221 -0.0295
  749TIP3    H223807   0.623   4.080   6.254 -0.7075  2.0953  0.1980
  750TIP3   OH223808   2.641   6.997   6.394 -0.1331 -0.1286 -0.0121
  750TIP3    H123809   2.663   6.918   6.344  2.1715  1.0354 -0.9918
  750TIP3    H223810   2.615   7.061   6.328 -0.4439  0.4110  0.6160
  751TIP3   OH223811   4.448   0.815   0.595  0.0752 -0.2839 -0.3853
  751TIP3    H123812   4.535   0.786   0.623 -0.8541 -2.9718  0.0015
  751TIP3    H223813   4.424   0.755   0.525 -1.7085  0.0292 -0.0907
  752TIP3   OH223814   6.803   5.512   7.410  1.1532 -0.4477 -0.3701
  752TIP3    H123815   6.884   5.564   7.419  0.4217  0.4889  1.1854
  752TIP3    H223816   6.759   5.523   7.494 -0.8525 -0.5067 -1.3743
  753TIP3   OH223817   3.581   1.729   0.503  0.1534 -0.1439  0.1537
  753TIP3    H123818   3.603   1.659   0.442 -0.4852 -0.4875  0.3051
  753TIP3    H223819   3.563   1.685   0.586  1.4071  0.3542  0.7149
  754TIP3   OH223820   6.896   6.381   6.517 -0.1901  0.0138  0.3787
  754TIP3    H123821   6.889   6.475   6.501 -0.3137  0.0596  0.6904
  754TIP3    H223822   6.990   6.363   6.514 -0.2564 -0.1918 -1.5479
  755TIP3   OH223823   4.901   3.185   8.080 -0.5056 -0.0839  0.3471
  755TIP3    H123824   4.973   3.247   8.070 -0.1600 -0.7820 -1.9789
  755TIP3    H223825   4.822   3.238   8.072 -0.2488 -0.0088 -3.5047
  756TIP3   OH223826   4.534   5.711   0.735  0.5068 -0.4524  0.1262
  756TIP3    H123827   4.523   5.693   0.829  0.3452 -0.3094  0.1329
  756TIP3    H223828   4.476   5.784   0.717  0.2213 -0.7510 -0.1779
  757TIP3   OH223829   2.227   6.124   7.134 -0.4340 -0.2714 -0.7204
  757TIP3    H123830   2.286   6.173   7.191 -0.0014  0.9494 -2.1798
  757TIP3    H223831   2.259   6.034   7.139  0.0123 -0.0655  0.4236
  758TIP3   OH223832   2.242   0.626   0.500  0.1347 -0.0507  0.7435
  758TIP3    H123833   2.272   0.546   0.543  1.8539 -0.2346 -0.7115
  758TIP3    H223834   2.235   0.603   0.407 -2.4635  0.6289  0.6654
  759TIP3   OH223835   1.443   0.914   6.429  0.3608  0.8120  0.4972
  759TIP3    H123836   1.486   0.998   6.415 -0.6635  1.3488  0.4708
  759TIP3    H223837   1.349   0.935   6.428  0.0947 -0.3335  0.4620
  760TIP3   OH223838   6.078   2.375   0.636 -0.3455 -0.3324  0.1768
  760TIP3    H123839   6.151   2.313   0.639  0.1383  0.1613 -0.8776
  760TIP3    H223840   6.072   2.400   0.544 -0.2577  1.4864  0.6288
  761TIP3   OH223841   6.692   0.382   1.489  0.4377  0.5836  0.4362
  761TIP3    H123842   6.664   0.473   1.488 -1.4972  0.0488  0.9208
  761TIP3    H223843   6.731   0.370   1.576  0.6646  0.9520  0.3831
  762TIP3   OH223844   5.923   5.340   6.819  0.2331  0.2974 -0.3165
  762TIP3    H123845   5.845   5.388   6.791  0.4243 -0.0885 -1.5781
  762TIP3    H223846   5.897   5.248   6.817  1.1930 -0.0152 -2.6192
  763TIP3   OH223847   1.357   5.624   7.555  0.4823  0.1730 -0.2354
  763TIP3    H123848   1.432   5.659   7.604 -0.3442 -0.1744  1.3698
  763TIP3    H223849   1.388   5.542   7.517  0.6652 -0.4825  1.2608
  764TIP3   OH223850   6.141   4.055   7.825  0.4322  0.5933 -0.1514
  764TIP3    H123851   6.217   4.087   7.874  1.1623  0.1440 -0.9721
  764TIP3    H223852   6.165   4.068   7.733  0.7394 -2.2025 -0.5518
  765TIP3   OH223853   3.970   6.863   1.149  0.1109  0.7408 -0.6470
  765TIP3    H123854   4.055   6.907   1.150  0.6665 -0.3033  0.5793
  765TIP3    H223855   3.989   6.775   1.116  0.0010 -0.3570  2.0054
  766TIP3   OH223856   3.682   4.450   7.258  0.6968 -0.1722  0.5329
  766TIP3    H123857   3.742   4.375   7.258  0.9834  0.0444 -0.3129
  766TIP3    H223858   3.617   4.429   7.326  0.8342 -1.1347  0.3788
  767TIP3   OH223859   0.602   1.992   1.808 -0.4542  0.5023 -0.1236
  767TIP3    H123860   0.508   1.988   1.788 -0.6089  0.2880  0.6358
  767TIP3    H223861   0.617   1.922   1.871  0.3803  0.0136 -0.8372
  768TIP3   OH223862   4.927   1.003   6.918  0.6562  0.1910  0.0519
  768TIP3    H123863   5.017   0.972   6.923  0.8975  0.9109  0.3745
  768TIP3    H223864   4.889   0.980   7.003  1.4708  2.6005  1.1676
  769TIP3   OH223865   0.641   2.483   7.748 -0.5555  0.0406  0.2662
  769TIP3    H123866   0.685   2.566   7.731 -2.1699  0.7373 -0.7983
  769TIP3    H223867   0.694   2.441   7.815  0.6630  1.6401  0.3697
  770TIP3   OH223868   6.560   1.761   8.062 -0.5204  0.2208 -0.0744
  770TIP3    H123869   6.624   1.757   7.990  0.6595  1.0119  0.9066
  770TIP3    H223870   6.598   1.822   8.125 -1.9214  0.1556  0.8692
  771TIP3   OH223871   1.819   1.003   0.449 -0.3463 -0.0119  0.1311
  771TIP3    H123872   1.766   0.972   0.375  0.4786 -0.8137 -0.1348
  771TIP3    H223873   1.848   1.090   0.421  0.6367 -0.6311 -0.8807
  772TIP3   OH223874   0.761   6.975   7.123  0.1730 -0.1262 -0.3072
  772TIP3    H123875   0.823   6.902   7.130 -0.8112 -1.0487 -0.8801
  772TIP3    H223876   0.693   6.942   7.064 -2.6599 -0.4666  2.8919
  773TIP3   OH223877   0.022   0.927   0.417 -0.0013  0.5235 -0.5693
  773TIP3    H123878  -0.066   0.895   0.400  0.3780  0.0361 -1.7658
  773TIP3    H223879   0.046   0.890   0.501 -1.3573  1.6258  0.3558
  774TIP3   OH223880   0.211   2.469   7.651 -0.3206  0.3906 -0.2727
  774TIP3    H123881   0.272   2.456   7.578 -0.6003 -1.1196 -0.2792
  774TIP3    H223882   0.219   2.388   7.703 -0.7385  1.0849  0.9159
  775TIP3   OH223883   4.917   1.632   1.545  0.0474  0.9140 -0.6245
  775TIP3    H123884   4.867   1.659   1.623  2.2368  1.4031  0.6978
  775TIP3    H223885   4.934   1.539   1.558 -1.0975  0.5658 -1.4522
  776TIP3   OH223886   6.040   3.277   0.928 -0.1705 -0.5235 -0.1945
  776TIP3    H123887   5.952   3.298   0.958  0.8457  1.3648  1.6995
  776TIP3    H223888   6.043   3.309   0.837 -1.4631 -0.8173 -0.3574
  777TIP3   OH223889   6.361   4.436   6.493 -0.2399 -0.5649 -0.3797
  777TIP3    H123890   6.352   4.500   6.422 -0.7217 -0.5259 -0.2853
  777TIP3    H223891   6.287   4.376   6.480  0.2255 -1.1270 -0.4899
  778TIP3   OH223892   1.928   4.747   6.403 -0.4324 -0.0386  0.4449
  778TIP3    H123893   1.977   4.825   6.376 -0.8841  0.0437 -0.1742
  778TIP3    H223894   1.854   4.782   6.454 -0.9454 -0.0111 -0.3009
  779TIP3   OH223895   2.568   3.973   1.414  0.0931  0.1696  0.0386
  779TIP3    H123896   2.645   3.950   1.361  0.0877 -0.2124  0.1891
  779TIP3    H223897   2.496   3.924   1.372  0.3702 -1.4561  1.3473
  780TIP3   OH223898   0.652   5.100   7.789  0.0450 -0.3859  0.0872
  780TIP3    H123899   0.580   5.040   7.772 -0.5739  0.6623 -1.1591
  780TIP3    H223900   0.718   5.046   7.834 -1.2056 -1.5266  0.6249
  781TIP3   OH223901   0.869   0.408   1.521 -0.0867 -0.1419  0.0616
  781TIP3    H123902   0.959   0.436   1.535 -0.8815  2.4564  0.4783
  781TIP3    H223903   0.829   0.413   1.608 -1.0173  0.3297 -0.3833
  782TIP3   OH223904   3.283   0.612   7.490  0.2711  0.1634  0.5870
  782TIP3    H123905   3.294   0.562   7.571  2.8248 -0.6981 -0.1965
  782TIP3    H223906   3.366   0.657   7.477 -0.1656  0.5236 -1.4043
  783TIP3   OH223907   5.470   4.033   1.178  0.7599  0.0396  0.2741
  783TIP3    H123908   5.456   4.028   1.273  0.1305 -1.2769  0.1382
  783TIP3    H223909   5.458   3.943   1.147  2.0967  0.2366 -0.9165
  784TIP3   OH223910   4.678   6.529   7.044  0.0012 -0.0862  0.1466
  784TIP3    H123911   4.691   6.592   6.973 -0.7214 -0.1724 -0.0763
  784TIP3    H223912   4.655   6.447   7.000 -1.1049  0.0252  0.4779
  785TIP3   OH223913   0.324   6.351   1.406 -0.4576 -0.5742 -0.2226
  785TIP3    H123914   0.243   6.301   1.398 -0.0384 -1.1414 -1.0140
  785TIP3    H223915   0.394   6.286   1.401  0.1029  0.0910 -1.4955
  786TIP3   OH223916   5.024   2.174   2.098  0.1565 -0.2076  0.6795
  786TIP3    H123917   4.971   2.117   2.042  1.3983  1.1157 -2.0091
  786TIP3    H223918   4.966   2.248   2.118 -0.4116 -0.8583  1.5245
  787TIP3   OH223919   6.245   1.610   1.861 -0.3516  0.0355  0.2058
  787TIP3    H123920   6.151   1.593   1.863 -0.6030  0.6734 -2.4505
  787TIP3    H223921   6.260   1.673   1.931 -2.0413  0.4453  0.2310
  788TIP3   OH223922   7.017   4.465   2.366 -0.4276  0.8070  0.0052
  788TIP3    H123923   6.931   4.493   2.336 -0.9110 -0.7526 -0.1050
  788TIP3    H223924   7.007   4.372   2.387  0.6875  1.0740  1.9813
  789TIP3   OH223925   3.115   2.697   6.321  0.2146 -0.3961 -0.5121
  789TIP3    H123926   3.049   2.721   6.257  1.8524  0.1842 -2.0526
  789TIP3    H223927   3.147   2.780   6.357  1.2373 -0.5583 -0.9994
  790TIP3   OH223928   2.848   3.595   5.665  0.2337  0.1171  0.1119
  790TIP3    H123929   2.942   3.581   5.673  0.1516  0.1657  1.3922
  790TIP3    H223930   2.839   3.659   5.595  0.9473 -2.1390 -2.2012
  791TIP3   OH223931   1.957   5.680   6.796  0.6417  0.2929  0.0817
  791TIP3    H123932   2.023   5.749   6.784 -0.7597  2.1448  2.1822
  791TIP3    H223933   1.966   5.655   6.888 -0.4639 -0.6366 -0.0466
  792TIP3   OH223934   3.853   6.788   0.010 -0.9218  0.3846 -0.9901
  792TIP3    H123935   3.879   6.701   0.039 -1.5992  0.0658 -1.3205
  792TIP3    H223936   3.912   6.807  -0.064  0.7237  1.1519  0.4306
  793TIP3   OH223937   5.845   4.318   6.760 -0.4799 -0.6434 -0.0842
  793TIP3    H123938   5.884   4.325   6.848  2.9067 -0.8482 -1.4365
  793TIP3    H223939   5.827   4.409   6.736  1.6228 -0.2291 -0.3366
  794TIP3   OH223940   0.554   6.650   0.065 -0.1771 -0.2712  0.1507
  794TIP3    H123941   0.544   6.633   0.158  0.3945 -1.2557  0.0454
  794TIP3    H223942   0.552   6.745   0.057  0.7144 -0.1454  1.2791
  795TIP3   OH223943   1.822   2.896   7.883 -0.4978 -0.1614 -0.0268
  795TIP3    H123944   1.759   2.968   7.886 -1.2050 -0.7933  0.6734
  795TIP3    H223945   1.776   2.826   7.836  0.2839 -0.0881 -0.9499
  796TIP3   OH223946   5.575   6.841   6.711  0.5836  0.4114 -0.0336
  796TIP3    H123947   5.605   6.753   6.730  0.3711  0.5931  1.2062
  796TIP3    H223948   5.495   6.828   6.660  1.6714 -0.0729 -1.6889
  797TIP3   OH223949   3.301   2.146   6.066  0.4720 -0.1313 -0.3423
  797TIP3    H123950   3.314   2.052   6.073  0.9895  0.0441  1.5017
  797TIP3    H223951   3.380   2.178   6.022 -0.5033 -0.7104 -2.6610
  798TIP3   OH223952   4.162   0.085   1.340  0.4106  0.0641  0.1666
  798TIP3    H123953   4.170   0.026   1.415 -0.2084 -0.3476 -0.0839
  798TIP3    H223954   4.148   0.027   1.265 -0.3894  0.5369 -0.0589
  799TIP3   OH223955   6.816   3.401   7.255 -0.3573 -0.5208  0.7381
  799TIP3    H123956   6.904   3.436   7.247 -0.3997 -0.6680 -0.7587
  799TIP3    H223957   6.759   3.477   7.246 -0.3993 -0.6428 -0.1750
  800TIP3   OH223958   3.840   5.117   7.353  0.2553 -0.3229 -0.2235
  800TIP3    H123959   3.868   5.186   7.412  0.9648 -0.7885 -0.0016
  800TIP3    H223960   3.922   5.075   7.325  0.1370  0.9641 -2.8927
  801TIP3   OH223961   6.932   2.055   0.321  0.3698  0.5535 -0.5411
  801TIP3    H123962   6.965   2.099   0.243 -0.6024  2.3451 -0.0146
  801TIP3    H223963   7.000   2.069   0.387  0.5850  0.2318 -0.6942
  802TIP3   OH223964   1.403   3.382   6.659  0.2982  0.1630  0.0683
  802TIP3    H123965   1.413   3.415   6.569 -2.0040  0.3694 -0.1542
  802TIP3    H223966   1.373   3.458   6.708  0.6424 -0.1846  0.8205
  803TIP3   OH223967   1.418   5.940   6.293  0.5165  0.1658  0.3409
  803TIP3    H123968   1.326   5.962   6.308 -0.0827 -2.2133  0.5565
  803TIP3    H223969   1.467   5.999   6.350 -1.1148 -1.1422  3.2763
  804TIP3   OH223970   4.177   4.761   1.242  0.0722  0.2189 -0.1180
  804TIP3    H123971   4.129   4.784   1.163  1.2849  1.7616 -0.4556
  804TIP3    H223972   4.217   4.843   1.271 -1.6218  0.1023  3.0364
  805TIP3   OH223973   4.520   1.689   0.247  0.1156  0.4459  0.0262
  805TIP3    H123974   4.528   1.687   0.343 -2.9859 -0.9502  0.3583
  805TIP3    H223975   4.542   1.600   0.219  0.7783  0.7848 -0.5799
  806TIP3   OH223976   4.461   3.232   0.348  0.3637  0.2031  0.0063
  806TIP3    H123977   4.419   3.168   0.291  0.9431  0.5225 -0.8019
  806TIP3    H223978   4.477   3.307   0.292  1.0705  0.4799  0.5591
  807TIP3   OH223979   3.298   5.787   0.206 -0.1960 -0.3674 -0.4954
  807TIP3    H123980   3.271   5.838   0.282  1.6642  0.8399 -0.5804
  807TIP3    H223981   3.223   5.790   0.147 -1.1042 -0.0219  0.6390
  808TIP3   OH223982   3.615   1.455   0.450 -0.4108  0.2226 -0.0439
  808TIP3    H123983   3.621   1.431   0.543 -3.0107 -1.1176 -0.1371
  808TIP3    H223984   3.667   1.388   0.405 -0.5480 -0.1626  0.3546
  809TIP3   OH223985   1.109   3.002   1.637  0.2303 -0.2536  0.1630
  809TIP3    H123986   1.096   2.959   1.722 -0.8295  0.2013  0.2488
  809TIP3    H223987   1.139   3.090   1.659 -1.7821  0.4977  0.1886
  810TIP3   OH223988   5.902   1.982   1.009  0.2113 -0.2091 -0.1402
  810TIP3    H123989   5.831   1.923   0.983 -0.4882  0.9155 -0.8451
  810TIP3    H223990   5.978   1.952   0.958 -0.0411 -0.7195 -0.2213
  811TIP3   OH223991   4.311   6.195   0.787  0.2067 -0.1254  0.4083
  811TIP3    H123992   4.253   6.153   0.850 -0.1942 -0.3481 -0.0966
  811TIP3    H223993   4.398   6.160   0.807  0.0462 -0.3529  0.7010
  812TIP3   OH223994   0.504   2.725   6.950 -0.3832  0.2328  0.2460
  812TIP3    H123995   0.411   2.704   6.942  0.0542 -1.3270 -1.4053
  812TIP3    H223996   0.524   2.713   7.043 -2.0706  1.8056  0.8526
  813TIP3   OH223997   5.014   2.672   1.470  0.6593 -0.0249  0.0793
  813TIP3    H123998   4.947   2.733   1.438  1.9039  0.9857 -0.7345
  813TIP3    H223999   4.985   2.649   1.558 -1.5603 -0.8815 -0.8050
  814TIP3   OH224000   6.906   5.440   8.274  0.3084 -0.1604 -0.3874
  814TIP3    H124001   6.867   5.359   8.308 -1.6074  0.5553 -0.7484
  814TIP3    H224002   6.980   5.410   8.221 -0.2139 -1.6766 -0.3268
  815TIP3   OH224003   5.289   0.288   7.379 -0.3891 -0.0520  0.1202
  815TIP3    H124004   5.198   0.315   7.376 -0.2677  0.3488 -0.0064
  815TIP3    H224005   5.323   0.309   7.292  0.2838  1.4464  0.7171
  816TIP3   OH224006   3.017   2.759   7.630 -0.1121  0.2408 -0.0604
  816TIP3    H124007   2.976   2.673   7.635  0.6627 -0.1175  0.2757
  816TIP3    H224008   2.947   2.817   7.600 -1.0009 -0.2691  0.9309
  817TIP3   OH224009   1.951   0.195   1.345 -0.4644 -0.1306  0.3421
  817TIP3    H124010   1.998   0.233   1.419  1.6313 -2.6662  0.4404
  817TIP3    H224011   2.000   0.223   1.268 -0.3651 -0.6169  0.2265
  818TIP3   OH224012   6.751   2.680   1.711  0.2909 -0.3468 -0.2060
  818TIP3    H124013   6.683   2.745   1.692  1.1319  0.5200 -0.2597
  818TIP3    H224014   6.831   2.716   1.674  0.5558 -1.9795 -1.3380
  819TIP3   OH224015   5.598   4.810   1.069 -0.4816  0.3900  0.3937
  819TIP3    H124016   5.637   4.897   1.060  0.7434 -0.2584 -1.0436
  819TIP3    H224017   5.511   4.826   1.106 -0.1063  2.1726  0.6060
  820TIP3   OH224018   1.319   2.174   7.473  0.4119  0.6022 -0.0528
  820TIP3    H124019   1.351   2.261   7.452  2.3794 -0.1815 -0.5562
  820TIP3    H224020   1.368   2.116   7.415 -1.8604 -0.7646 -0.7461
  821TIP3   OH224021   6.560   4.958   1.113  0.2535  0.7246  0.4216
  821TIP3    H124022   6.567   4.902   1.035  1.6757 -0.0508  1.0732
  821TIP3    H224023   6.628   4.926   1.172  1.2656  3.2780  0.7588
  822TIP3   OH224024   2.444   6.803   1.485 -0.8837 -0.0870 -0.2755
  822TIP3    H124025   2.373   6.765   1.537 -0.6223 -0.5124 -0.2253
  822TIP3    H224026   2.413   6.799   1.394 -1.4055  0.7996 -0.1443
  823TIP3   OH224027   2.834   4.009   1.323 -0.5598  0.2769 -0.5050
  823TIP3    H124028   2.856   4.101   1.309  0.4162 -0.0245 -1.0092
  823TIP3    H224029   2.817   4.003   1.417 -0.1825  0.8828 -0.3907
  824TIP3   OH224030   6.340   6.100   1.011  0.0948  0.6278  0.1309
  824TIP3    H124031   6.257   6.149   1.013  0.0232  0.5160 -0.1202
  824TIP3    H224032   6.314   6.009   1.020  0.2412  0.6431  0.7839
  825TIP3   OH224033   4.852   6.487   0.147 -0.1918  0.4700  0.5144
  825TIP3    H124034   4.923   6.435   0.183 -0.2104 -0.2247 -0.4116
  825TIP3    H224035   4.893   6.569   0.121  0.8166 -0.7274 -2.0648
  826TIP3   OH224036   0.948   1.191   1.264 -0.0230 -0.2478 -0.0461
  826TIP3    H124037   0.856   1.209   1.286  0.1216  0.1903  0.1943
  826TIP3    H224038   0.999   1.238   1.329  0.3794 -0.4571 -0.2035
  827TIP3   OH224039   6.817   3.579   6.328  0.0416  0.2629 -0.1685
  827TIP3    H124040   6.816   3.486   6.308  0.9592  0.1471  0.2318
  827TIP3    H224041   6.807   3.623   6.244  0.5163 -0.2075 -0.4748
  828TIP3   OH224042   6.224   6.886   7.936 -0.5321 -0.6182 -0.4776
  828TIP3    H124043   6.263   6.973   7.942 -1.2320 -0.3318 -0.0592
  828TIP3    H224044   6.174   6.876   8.017 -1.5812 -0.8570 -1.1444
  829TIP3   OH224045   3.662   0.641   0.463 -0.4072  0.3774  0.1028
  829TIP3    H124046   3.737   0.659   0.406 -0.1765 -0.2531  0.2036
  829TIP3    H224047   3.606   0.583   0.411 -0.3325  0.0292  0.4080
  830TIP3   OH224048   5.743   6.358   1.222 -0.1427 -0.2004  0.5101
  830TIP3    H124049   5.727   6.417   1.148 -0.8428 -2.0355 -0.8716
  830TIP3    H224050   5.657   6.323   1.244  0.5942 -3.0266 -0.7725
  831TIP3   OH224051   7.035   4.388   2.006 -0.3753  0.7732 -0.1631
  831TIP3    H124052   7.008   4.447   1.936  0.2631  1.8555  0.4821
  831TIP3    H224053   6.960   4.329   2.019 -0.1673 -0.0766 -2.3747
  832TIP3   OH224054   5.833   6.321   0.619  0.2355  0.3580  0.6276
  832TIP3    H124055   5.741   6.339   0.598 -0.3780 -2.1202  0.9055
  832TIP3    H224056   5.881   6.349   0.541 -0.9993 -0.3230 -0.4234
  833TIP3   OH224057   2.404   0.098   7.381  0.1544  0.1491  0.1080
  833TIP3    H124058   2.432   0.074   7.293 -0.6728 -0.5772  0.0342
  833TIP3    H224059   2.347   0.174   7.368  0.7670  0.6238  0.1163
  834TIP3   OH224060   5.858   3.498   6.177  0.3258  0.4121 -0.1234
  834TIP3    H124061   5.947   3.499   6.143  1.1015  1.5856  1.7865
  834TIP3    H224062   5.851   3.415   6.224  0.3293  0.2270 -0.4463
  835TIP3   OH224063   2.932   4.234   6.375 -0.1459  0.1086 -0.4014
  835TIP3    H124064   2.861   4.195   6.427  0.5087 -0.6134 -0.0381
  835TIP3    H224065   3.012   4.205   6.418  0.4288 -0.6406 -1.9229
  836TIP3   OH224066   5.070   0.724   0.922 -0.1313 -0.1575 -0.0316
  836TIP3    H124067   5.002   0.658   0.937  0.3938 -0.4552  1.0864
  836TIP3    H224068   5.032   0.805   0.954  0.2086 -0.4111  1.0350
  837TIP3   OH224069   1.234   0.727   7.957 -0.0348  0.3763  0.2085
  837TIP3    H124070   1.164   0.662   7.961 -0.2747  0.6718  1.1480
  837TIP3    H224071   1.214   0.787   8.029  1.1944  0.4455  0.5054
  838TIP3   OH224072   1.383   4.737   1.660  0.0110  0.3310  0.0514
  838TIP3    H124073   1.416   4.659   1.704 -1.5927 -0.1937  0.3949
  838TIP3    H224074   1.317   4.703   1.599  0.6236  1.2553 -1.1652
  839TIP3   OH224075   4.316   6.498   7.036  0.2590 -0.2431 -0.3978
  839TIP3    H124076   4.354   6.571   6.987  0.0799 -0.5976 -1.0704
  839TIP3    H224077   4.359   6.420   7.001 -0.6803 -0.6015 -0.7787
  840TIP3   OH224078   4.671   1.764   2.356  0.1535  0.3179 -0.1318
  840TIP3    H124079   4.651   1.690   2.299 -1.9986  1.4617 -0.9592
  840TIP3    H224080   4.646   1.734   2.444 -0.4627 -0.0410 -0.4249
  841TIP3   OH224081   6.051   1.908   1.221 -0.5169  0.2857  0.0533
  841TIP3    H124082   5.972   1.912   1.167 -0.4659  0.1720 -0.0291
  841TIP3    H224083   6.046   1.986   1.276 -0.4139  0.5630 -0.3299
  842TIP3   OH224084   2.835   2.635   6.418 -0.2384 -0.0170 -0.5329
  842TIP3    H124085   2.854   2.707   6.358  1.0124 -0.8696 -1.2043
  842TIP3    H224086   2.903   2.570   6.400 -1.8708 -1.7722 -0.5968
  843TIP3   OH224087   2.322   1.547   0.869 -0.6607 -0.7364  0.0982
  843TIP3    H124088   2.402   1.503   0.841 -0.6313  0.2489 -1.4773
  843TIP3    H224089   2.261   1.537   0.795 -0.5393  2.0794 -0.4981
  844TIP3   OH224090   0.546   5.351   1.971  0.5814  0.3343  0.0629
  844TIP3    H124091   0.626   5.366   2.020  1.2273 -1.8190 -0.2510
  844TIP3    H224092   0.573   5.349   1.879  0.5587 -2.1333  0.0328
  845TIP3   OH224093   3.315   5.261   0.332  0.0393 -0.0218  0.3913
  845TIP3    H124094   3.334   5.240   0.423 -1.5482  0.9295  0.9729
  845TIP3    H224095   3.271   5.346   0.335 -1.8179 -0.8650 -1.0681
  846TIP3   OH224096   1.615   2.023   6.934  0.1530  0.6275 -0.2209
  846TIP3    H124097   1.677   2.072   6.987  0.5432  0.4233 -0.4874
  846TIP3    H224098   1.666   1.990   6.860 -0.2146  0.2440 -0.3104
  847TIP3   OH224099   1.374   1.762   7.929 -0.2201  0.7160 -0.3837
  847TIP3    H124100   1.455   1.715   7.908  0.1105  0.9018  0.4451
  847TIP3    H224101   1.391   1.852   7.900 -0.1835  0.7209 -0.3477
  848TIP3   OH224102   1.364   2.142   6.876 -0.2724  0.4531 -0.0380
  848TIP3    H124103   1.457   2.126   6.891 -0.3929 -0.5237 -0.2878
  848TIP3    H224104   1.361   2.191   6.793  0.0054  0.3410 -0.1146
  849TIP3   OH224105   6.993   1.399   7.402  0.4841  0.4378  0.2911
  849TIP3    H124106   6.927   1.365   7.462 -0.9244  1.8557 -0.3834
  849TIP3    H224107   6.990   1.340   7.326 -0.5994  0.9394 -0.0703
  850TIP3   OH224108   2.461   0.211   1.846  0.0081  0.2102  0.3697
  850TIP3    H124109   2.527   0.257   1.794  1.8564  0.6344  2.8645
  850TIP3    H224110   2.398   0.178   1.782  1.2528  1.9933 -1.9381
  851TIP3   OH224111   4.950   6.960   6.923 -0.2285  0.0014  0.4345
  851TIP3    H124112   4.967   7.054   6.910 -1.7752  0.1946 -0.5163
  851TIP3    H224113   4.859   6.956   6.953  0.1686 -1.1472  1.5610
  852TIP3   OH224114   0.731   2.424   7.464  0.0920  0.1608 -0.2752
  852TIP3    H124115   0.730   2.440   7.558  1.4992  0.3040 -0.2735
  852TIP3    H224116   0.822   2.402   7.444 -0.2432 -0.1412 -1.5609
  853TIP3   OH224117   4.177   5.234   8.010 -0.5768  0.5139 -0.3578
  853TIP3    H124118   4.183   5.139   8.006 -0.1552  0.5091  0.1530
  853TIP3    H224119   4.091   5.255   7.974 -0.3369  0.0018 -1.2316
  854TIP3   OH224120   2.902   1.368   0.347  0.2818 -0.2617 -0.2666
  854TIP3    H124121   2.878   1.459   0.366  1.1138 -0.2135  0.6234
  854TIP3    H224122   2.962   1.344   0.417 -0.9166 -1.9232  0.2399
  855TIP3   OH224123   2.589   5.198   1.005 -0.0743  0.2019  0.2910
  855TIP3    H124124   2.566   5.105   1.005  0.8419 -0.0448 -0.2580
  855TIP3    H224125   2.557   5.231   0.921 -1.9064  0.8080  1.1832
  856TIP3   OH224126   0.707   4.173   1.640 -0.3081  0.2218 -0.3565
  856TIP3    H124127   0.711   4.157   1.734 -1.8488 -0.8845 -0.4342
  856TIP3    H224128   0.654   4.101   1.605 -0.3200  0.9584 -1.9797
  857TIP3   OH224129   6.297   3.993   2.018  0.0260  0.2578 -0.2699
  857TIP3    H124130   6.282   3.925   2.084  1.2531 -0.1512 -0.3783
  857TIP3    H224131   6.234   4.061   2.039 -1.6773 -1.1702 -0.5527
  858TIP3   OH224132   2.359   0.311   1.486  0.0659 -0.8123  0.0086
  858TIP3    H124133   2.322   0.400   1.487 -0.2183 -0.9292  1.2228
  858TIP3    H224134   2.332   0.275   1.402 -1.2190 -0.3288  0.1923
  859TIP3   OH224135   3.018   5.060   5.668 -0.3260 -0.1899 -0.5658
  859TIP3    H124136   3.107   5.031   5.688  0.5052  2.2233 -0.4863
  859TIP3    H224137   2.988   4.999   5.600  0.0288 -3.1658  1.7515
  860TIP3   OH224138   5.665   1.915   7.030 -1.0349  0.6786 -0.1042
  860TIP3    H124139   5.596   1.848   7.026 -1.6204  1.2600  0.1537
  860TIP3    H224140   5.706   1.912   6.943 -1.6190  0.5727 -0.3809
  861TIP3   OH224141   6.399   4.674   1.704 -0.5231  0.1570 -0.8028
  861TIP3    H124142   6.491   4.655   1.683 -0.4118  0.6937 -0.8219
  861TIP3    H224143   6.380   4.755   1.656 -1.2826 -0.4349 -1.5517
  862TIP3   OH224144   4.520   3.575   0.603 -0.0767 -0.2727  0.3652
  862TIP3    H124145   4.583   3.607   0.667  0.6259  0.6564 -0.7682
  862TIP3    H224146   4.531   3.479   0.604  4.6841 -0.1205 -2.9318
  863TIP3   OH224147   2.071   6.352   2.297  0.3315 -0.4139 -0.3576
  863TIP3    H124148   2.051   6.445   2.298  0.3765 -0.4011 -0.6323
  863TIP3    H224149   2.001   6.313   2.244 -0.8482 -0.8057  1.4004
  864TIP3   OH224150   1.246   6.122   0.330 -0.3365 -0.2625  0.1986
  864TIP3    H124151   1.287   6.084   0.253  0.0588  1.9185 -0.7379
  864TIP3    H224152   1.153   6.102   0.320 -0.3066  0.0733 -0.9313
  865TIP3   OH224153   3.072   3.592   1.140 -0.1305  0.2919 -0.6339
  865TIP3    H124154   2.999   3.620   1.085 -0.3248  2.9260  0.7911
  865TIP3    H224155   3.146   3.646   1.111  0.7325 -0.8875 -0.7010
  866TIP3   OH224156   4.812   4.811   0.942  0.0144  0.1849 -0.1523
  866TIP3    H124157   4.732   4.759   0.936  0.6747 -1.0564  1.2168
  866TIP3    H224158   4.876   4.762   0.892  0.5257 -0.1104  0.7670
  867TIP3   OH224159   4.601   1.169   6.276  0.1636  0.3797 -0.1740
  867TIP3    H124160   4.644   1.091   6.242 -0.9529 -0.5278  0.4052
  867TIP3    H224161   4.660   1.241   6.254 -0.0471 -0.2438 -3.1825
  868TIP3   OH224162   5.622   6.326   0.086 -0.5379  0.1125  0.1467
  868TIP3    H124163   5.568   6.403   0.102 -1.3836 -0.4811  0.2707
  868TIP3    H224164   5.558   6.258   0.062 -0.1741 -1.4255  3.1470
  869TIP3   OH224165   0.377   2.405   0.277  0.0254 -0.1270  0.3049
  869TIP3    H124166   0.371   2.394   0.372 -0.8968 -0.4161  0.2258
  869TIP3    H224167   0.336   2.490   0.261  0.9041  0.2924  0.2364
  870TIP3   OH224168   5.013   6.057   1.787 -0.1464  0.3856  0.0339
  870TIP3    H124169   4.941   6.095   1.737 -0.1446 -0.4763 -0.6744
  870TIP3    H224170   4.987   5.966   1.800  1.2999 -0.2696 -1.2714
  871TIP3   OH224171   6.671   7.048   7.272 -0.7194 -0.8398 -0.2293
  871TIP3    H124172   6.742   7.090   7.224  0.2668 -0.4933  1.4945
  871TIP3    H224173   6.711   6.971   7.312 -1.3439 -0.7028  0.6726
  872TIP3   OH224174   3.267   0.613   6.256 -0.2620 -0.3466 -0.3987
  872TIP3    H124175   3.355   0.641   6.279 -0.5693 -0.6316  1.2181
  872TIP3    H224176   3.279   0.522   6.227  0.2162  0.2196 -2.1005
  873TIP3   OH224177   0.902   0.664   6.974 -0.2925  0.7091  0.4675
  873TIP3    H124178   0.985   0.636   6.934 -0.6807 -1.2447  0.9438
  873TIP3    H224179   0.847   0.689   6.900 -0.2936 -0.8900 -0.0991
  874TIP3   OH224180   3.235   0.801   5.952  0.0430  0.3899 -0.0207
  874TIP3    H124181   3.248   0.793   5.858  2.4224  1.0319  0.1842
  874TIP3    H224182   3.153   0.850   5.961 -1.2210 -1.2753 -1.6696
  875TIP3   OH224183   3.376   2.633   6.759  0.2552 -0.3526  0.0328
  875TIP3    H124184   3.342   2.721   6.743 -2.6306 -0.7840  2.7983
  875TIP3    H224185   3.326   2.577   6.700  0.2298 -0.3941  0.0935
  876TIP3   OH224186   1.889   2.734   8.141  0.2355  0.3686  0.6315
  876TIP3    H124187   1.977   2.742   8.179 -0.6619  1.1357  2.6826
  876TIP3    H224188   1.882   2.808   8.082  0.9259  0.3619  0.5243
  877TIP3   OH224189   4.216   6.816   0.895  0.0849  0.3047  0.3238
  877TIP3    H124190   4.303   6.777   0.908  0.0021 -0.4608 -1.1592
  877TIP3    H224191   4.195   6.796   0.803 -1.1800  1.4534  0.3415
  878TIP3   OH224192   3.657   4.512   2.149  0.1335 -0.4003  0.2615
  878TIP3    H124193   3.578   4.459   2.150 -0.0240 -0.1716  0.1238
  878TIP3    H224194   3.710   4.477   2.077  0.4391 -0.9581  0.7551
  879TIP3   OH224195   5.978   6.456   1.845  0.3013  0.3068 -0.0936
  879TIP3    H124196   5.962   6.384   1.905  0.5785 -0.0956 -0.5014
  879TIP3    H224197   5.897   6.508   1.847  0.8768  1.2348  1.8818
  880TIP3   OH224198   6.473   2.839   0.011  0.6676 -0.4183  0.1770
  880TIP3    H124199   6.429   2.911  -0.035 -0.6429 -1.3414 -0.0946
  880TIP3    H224200   6.522   2.794  -0.057  0.4450 -0.5427  0.0998
  881TIP3   OH224201   1.480   4.903   0.967  0.1133 -0.2241 -0.3351
  881TIP3    H124202   1.557   4.875   0.918 -1.2072 -1.1586 -1.9856
  881TIP3    H224203   1.466   4.994   0.941  1.2539  0.3156  0.8282
  882TIP3   OH224204   3.985   0.945   1.917  0.2476  0.3686 -0.1371
  882TIP3    H124205   4.053   0.952   1.984 -1.2625 -1.1708  1.6826
  882TIP3    H224206   3.907   0.982   1.958 -0.5556  0.0550 -1.3259
  883TIP3   OH224207   6.794   6.559   6.777 -0.3851 -0.1578 -0.5393
  883TIP3    H124208   6.757   6.470   6.775 -0.9101  0.0543 -0.3141
  883TIP3    H224209   6.784   6.588   6.867  1.7607 -0.6736 -0.0844
  884TIP3   OH224210   0.254   4.563   7.586 -0.1552  0.0359 -0.0131
  884TIP3    H124211   0.259   4.468   7.589  0.0608  0.0473  0.0602
  884TIP3    H224212   0.274   4.591   7.676  2.3347  0.2392 -0.5481
  885TIP3   OH224213   4.693   4.166   0.157  0.6042 -0.3436 -0.2386
  885TIP3    H124214   4.609   4.131   0.188 -0.1644  1.5290 -0.0433
  885TIP3    H224215   4.738   4.193   0.237  0.2889  0.9361 -0.4648
  886TIP3   OH224216   2.040   0.775   0.642  0.5122 -0.6011  0.0737
  886TIP3    H124217   2.131   0.749   0.626  0.7607  0.5678 -0.6392
  886TIP3    H224218   1.988   0.703   0.607  1.0899  0.8213 -4.4072
  887TIP3   OH224219   3.396   4.492   5.784  0.8150  0.0767  0.0830
  887TIP3    H124220   3.308   4.480   5.749  2.1307 -1.8440 -2.9466
  887TIP3    H224221   3.407   4.421   5.847  0.1221  0.5616  0.7732
  888TIP3   OH224222   3.845   1.926   6.156  0.8527 -0.2163  0.2004
  888TIP3    H124223   3.931   1.906   6.121  1.1469 -0.9654  1.3178
  888TIP3    H224224   3.860   1.945   6.248 -0.2007 -0.5344  0.4513
  889TIP3   OH224225   4.636   1.061   7.618  0.1972  0.1816  0.1849
  889TIP3    H124226   4.694   1.120   7.570  0.9059  0.6708  1.5861
  889TIP3    H224227   4.549   1.098   7.607  0.3730  0.4168 -0.4959
  890TIP3   OH224228   4.733   0.987   1.279  0.2346 -0.4905 -0.2274
  890TIP3    H124229   4.798   0.988   1.350 -1.9481 -1.1311  1.8818
  890TIP3    H224230   4.728   1.079   1.251 -0.0698  0.1135  1.6535
  891TIP3   OH224231   2.848   0.674   0.247 -0.3015  0.1065  0.3458
  891TIP3    H124232   2.855   0.591   0.199  0.9461  0.3594  0.0571
  891TIP3    H224233   2.931   0.718   0.231 -1.6384  2.2901 -1.1119
  892TIP3   OH224234   0.246   4.408   2.335 -0.0082  0.0312 -0.4505
  892TIP3    H124235   0.312   4.348   2.371 -0.8529 -1.0236 -0.6051
  892TIP3    H224236   0.172   4.400   2.395 -0.1130  0.9766 -0.4477
  893TIP3   OH224237   6.636   3.488   0.294  0.7901  0.0556 -0.4650
  893TIP3    H124238   6.670   3.522   0.376 -0.5174 -0.2084  0.2011
  893TIP3    H224239   6.567   3.549   0.268 -0.5410 -1.2246 -0.0324
  894TIP3   OH224240   2.929   3.182   0.434 -0.2063 -0.6681  0.1113
  894TIP3    H124241   2.915   3.206   0.525  1.4556  0.4322  0.1165
  894TIP3    H224242   2.978   3.099   0.437 -1.2406 -1.2984  0.1684
  895TIP3   OH224243   4.775   5.565   0.565 -0.0004 -0.2358 -0.1670
  895TIP3    H124244   4.852   5.549   0.510  0.5519 -0.7542  0.7327
  895TIP3    H224245   4.701   5.534   0.513  0.4991 -0.5861 -0.6761
  896TIP3   OH224246   7.015   6.425   1.678  0.0380 -0.1473  0.0037
  896TIP3    H124247   6.971   6.365   1.617 -0.9028  0.2474  0.2608
  896TIP3    H224248   6.949   6.442   1.745  1.0272 -0.4772  1.0747
  897TIP3   OH224249   5.586   2.093   1.737  0.4673  0.4458 -0.5223
  897TIP3    H124250   5.609   2.024   1.799  0.1835 -0.7489 -1.7157
  897TIP3    H224251   5.575   2.049   1.653 -0.5265  1.8179 -1.1658
  898TIP3   OH224252   3.792   1.371   0.711 -0.2946 -0.0603  0.1870
  898TIP3    H124253   3.781   1.284   0.750  0.7836  0.2253  1.1635
  898TIP3    H224254   3.881   1.370   0.675  0.2988  1.1449  1.5481
  899TIP3   OH224255   0.021   4.498   6.491 -0.4290 -0.4002 -0.0391
  899TIP3    H124256  -0.067   4.535   6.495 -0.7946 -1.1741 -0.7455
  899TIP3    H224257   0.068   4.554   6.430 -0.5136 -0.1716  0.1027
  900TIP3   OH224258   1.460   6.538   7.122  0.2302 -0.4943  0.0170
  900TIP3    H124259   1.502   6.473   7.179 -1.3028 -1.0717  0.5377
  900TIP3    H224260   1.532   6.574   7.069  1.1514 -2.4537 -0.1339
  901TIP3   OH224261   0.073   5.739   0.429  0.8495  0.5404  0.0383
  901TIP3    H124262   0.106   5.703   0.511  0.7098 -0.8373 -0.4826
  901TIP3    H224263   0.015   5.671   0.395  2.0282  0.4359 -1.9154
  902TIP3   OH224264   5.512   6.062   0.732 -0.5138  0.9075 -0.0458
  902TIP3    H124265   5.427   6.055   0.687 -0.9808 -0.5360  0.9905
  902TIP3    H224266   5.532   5.972   0.759  2.3330  0.8488 -1.9760
  903TIP3   OH224267   0.090   2.813   0.007  0.1954 -0.0882 -0.2645
  903TIP3    H124268   0.067   2.725   0.036 -1.8474  0.3036 -0.5550
  903TIP3    H224269   0.079   2.812  -0.088  1.3222  0.1785 -0.4165
  904TIP3   OH224270   5.650   1.484   7.590  0.1331 -0.3587  0.1575
  904TIP3    H124271   5.730   1.445   7.627  0.4309 -0.4740 -0.5838
  904TIP3    H224272   5.669   1.493   7.496 -1.2088 -1.6491 -0.2876
  905TIP3   OH224273   6.688   5.274   1.200  0.4275  0.0261 -0.2289
  905TIP3    H124274   6.647   5.284   1.114 -1.0242 -1.3781  0.2625
  905TIP3    H224275   6.739   5.354   1.211  1.4556 -0.1952 -2.8004
  906TIP3   OH224276   4.406   6.931   6.636  0.3580 -0.1291 -0.0112
  906TIP3    H124277   4.331   6.901   6.584 -1.2786  1.0017  1.6056
  906TIP3    H224278   4.462   6.854   6.643  0.7261 -0.3635 -3.4235
  907TIP3   OH224279   0.553   0.787   6.672  0.4983  0.3553  0.1826
  907TIP3    H124280   0.586   0.770   6.760 -2.4333 -0.7390  1.1605
  907TIP3    H224281   0.462   0.760   6.674  0.1240  0.9575 -3.0261
  908TIP3   OH224282   0.122   0.456   1.714  0.4692 -0.2299  0.3554
  908TIP3    H124283   0.073   0.382   1.748  0.7447  0.0546  1.4082
  908TIP3    H224284   0.205   0.418   1.684  1.0386 -0.2292  1.8442
  909TIP3   OH224285   4.051   1.940   0.443 -0.3370 -0.2382 -0.0015
  909TIP3    H124286   4.115   1.899   0.385  0.4270 -0.5477  1.0255
  909TIP3    H224287   4.101   2.005   0.492 -1.5375  2.0711 -1.6505
  910TIP3   OH224288   0.939   0.629   0.521  0.1872 -0.1314 -0.1063
  910TIP3    H124289   0.898   0.569   0.459  2.2799 -2.2486  0.4097
  910TIP3    H224290   1.033   0.624   0.502  0.7155  0.6617  1.9465
  911TIP3   OH224291   4.182   6.534   6.314 -0.3409  0.3428  0.0804
  911TIP3    H124292   4.198   6.620   6.276  1.1316  0.0955  0.1036
  911TIP3    H224293   4.089   6.517   6.296 -0.4826  1.6291 -0.5179
  912TIP3   OH224294   4.554   5.536   5.939  0.4700  0.3967 -0.2719
  912TIP3    H124295   4.466   5.570   5.923  0.9245  0.9640 -1.6618
  912TIP3    H224296   4.540   5.447   5.972 -0.6158  0.3802 -0.7496
  913TIP3   OH224297   2.420   3.258   7.325  0.2085  1.2023 -0.0864
  913TIP3    H124298   2.346   3.259   7.263  0.4659  1.2802 -0.3947
  913TIP3    H224299   2.394   3.195   7.392  0.2147  0.6064 -0.6306
  914TIP3   OH224300   5.964   4.288   7.593  0.7859  0.4279  0.3790
  914TIP3    H124301   5.902   4.322   7.529  0.8329  2.6318  1.4410
  914TIP3    H224302   6.050   4.303   7.554  0.7983  1.4203  0.7600
  915TIP3   OH224303   2.621   4.983   7.691 -0.6054 -0.2573 -0.5821
  915TIP3    H124304   2.587   5.037   7.620 -2.5759 -0.1846  0.3633
  915TIP3    H224305   2.548   4.927   7.716  0.8001 -1.9779 -0.1999
  916TIP3   OH224306   5.132   0.877   5.677  0.4739 -0.5994 -0.1966
  916TIP3    H124307   5.154   0.835   5.761 -0.6186 -2.0563 -0.5931
  916TIP3    H224308   5.136   0.970   5.696 -0.0152 -0.8867  1.5726
  917TIP3   OH224309   1.272   4.003   1.030 -0.3062 -0.5776 -0.1908
  917TIP3    H124310   1.291   3.918   1.069  1.2453 -0.2079 -0.0980
  917TIP3    H224311   1.248   4.059   1.104 -0.8055 -0.7899 -0.1898
  918TIP3   OH224312   3.994   6.592   1.077 -0.2315 -0.4241  0.4423
  918TIP3    H124313   4.051   6.580   1.153  1.6477 -0.6803 -0.9228
  918TIP3    H224314   3.935   6.516   1.079 -0.4038 -0.2829  1.7658
  919TIP3   OH224315   2.195   6.514   7.352 -0.2192  0.1436  0.3161
  919TIP3    H124316   2.212   6.604   7.380  0.3747 -0.7498  3.2153
  919TIP3    H224317   2.259   6.497   7.283  0.2439  1.6503  0.3360
  920TIP3   OH224318   1.960   5.939   5.673 -0.5915  0.2012 -0.1471
  920TIP3    H124319   1.954   6.028   5.707 -2.1756  0.2547 -0.4913
  920TIP3    H224320   1.903   5.888   5.731 -0.1466 -0.4797 -0.3055
  921TIP3   OH224321   4.227   0.439   6.103 -0.0359  0.1938 -0.7615
  921TIP3    H124322   4.297   0.381   6.074 -0.7394  0.2777 -2.7834
  921TIP3    H224323   4.245   0.453   6.196  2.7300  0.3568 -1.2245
  922TIP3   OH224324   4.237   0.296   0.904 -0.1941 -0.5025  0.6376
  922TIP3    H124325   4.287   0.224   0.943 -0.2420 -0.0070  1.6356
  922TIP3    H224326   4.281   0.375   0.934 -0.2200 -0.1002 -0.3477
  923TIP3   OH224327   5.827   1.532   7.834 -0.0799  0.1972  0.2043
  923TIP3    H124328   5.824   1.442   7.866  0.0659  0.4740  1.0086
  923TIP3    H224329   5.892   1.575   7.890 -0.6865  0.9919  0.3062
  924TIP3   OH224330   3.890   0.631   0.773 -0.5562  0.6345 -0.2035
  924TIP3    H124331   3.962   0.577   0.741  0.5301  1.2103  1.1312
  924TIP3    H224332   3.933   0.710   0.807 -1.8548  1.1652  0.2715
  925TIP3   OH224333   0.128   2.215   6.698  0.0866 -0.2874  0.7122
  925TIP3    H124334   0.117   2.123   6.719  1.1395 -1.0181 -1.6038
  925TIP3    H224335   0.222   2.224   6.678 -0.2770  0.9030 -0.6522
  926TIP3   OH224336   4.467   2.382   6.584  0.1621 -0.4005 -0.5072
  926TIP3    H124337   4.420   2.298   6.589 -1.7787  0.5771 -1.1079
  926TIP3    H224338   4.508   2.380   6.497 -0.1524 -0.6259 -0.6576
  927TIP3   OH224339   6.901   1.392   1.614 -0.3678 -0.6640 -0.1801
  927TIP3    H124340   6.967   1.327   1.590 -0.6007 -1.2166  0.6587
  927TIP3    H224341   6.915   1.407   1.708  0.1479  1.0235 -0.4942
  928TIP3   OH224342   5.328   3.393   7.313 -0.5495 -0.0608  0.1015
  928TIP3    H124343   5.300   3.400   7.222 -0.6859  1.1890  0.2333
  928TIP3    H224344   5.416   3.432   7.314 -1.1249  1.2499  0.7638
  929TIP3   OH224345   3.514   6.229   1.980  0.5880 -0.6046 -0.0682
  929TIP3    H124346   3.472   6.315   1.972  1.0184 -0.5026 -1.3578
  929TIP3    H224347   3.474   6.191   2.058 -1.9500 -0.5255 -1.2225
  930TIP3   OH224348   2.029   0.157   8.131  0.0164  0.2385 -0.0719
  930TIP3    H124349   2.119   0.172   8.162  0.4186 -0.7003 -0.7566
  930TIP3    H224350   2.022   0.062   8.123 -0.5327  0.3848 -1.5163
  931TIP3   OH224351   1.736   5.424   8.264  0.0630 -0.6548  0.3195
  931TIP3    H124352   1.697   5.476   8.194  0.4425  0.8648  1.1963
  931TIP3    H224353   1.820   5.394   8.228  0.0606 -0.2504 -0.0199
  932TIP3   OH224354   6.195   4.947   1.070  0.2157 -0.2733  0.0870
  932TIP3    H124355   6.172   4.859   1.098  1.4871  0.0226  2.2480
  932TIP3    H224356   6.248   4.935   0.992 -1.5876 -1.2483 -1.0646
  933TIP3   OH224357   0.924   1.760   7.639  0.1362 -0.3987 -0.0261
  933TIP3    H124358   0.996   1.752   7.701  0.0552  0.7074  0.2354
  933TIP3    H224359   0.921   1.675   7.594 -0.3097 -1.5274  2.0226
  934TIP3   OH224360   4.485   1.904   1.048 -0.8854  0.2790 -0.8246
  934TIP3    H124361   4.548   1.947   0.989 -0.2642  0.6257  0.0735
  934TIP3    H224362   4.490   1.811   1.025 -1.8770  0.5703 -2.4470
  935TIP3   OH224363   3.393   0.948   0.760 -0.2151  0.2267  0.3668
  935TIP3    H124364   3.414   0.882   0.694 -1.8184  0.1830 -0.1342
  935TIP3    H224365   3.458   0.935   0.828  1.2873  0.0553 -1.0404
  936TIP3   OH224366   6.316   2.714   6.683  0.7188 -0.1434 -0.5946
  936TIP3    H124367   6.316   2.708   6.588  1.4771  0.7205 -0.6620
  936TIP3    H224368   6.228   2.745   6.705  0.7514  0.2960 -1.0661
  937TIP3   OH224369   3.186   3.838   5.853 -0.0462 -0.4661 -0.2665
  937TIP3    H124370   3.211   3.930   5.851 -0.1445 -0.4273  0.2207
  937TIP3    H224371   3.261   3.794   5.893  0.4764 -0.7620 -1.5035
  938TIP3   OH224372   3.376   5.218   1.651 -0.5422 -0.2600 -0.0965
  938TIP3    H124373   3.348   5.237   1.740 -1.7440 -2.3872  0.0507
  938TIP3    H224374   3.319   5.146   1.623 -0.1286  0.2654 -2.5512
  939TIP3   OH224375   0.922   0.038   7.773  0.0781  0.1339 -0.0905
  939TIP3    H124376   0.870  -0.042   7.781  0.5160 -0.1496 -0.0074
  939TIP3    H224377   1.012   0.006   7.760  0.2747  0.6131  0.0765
  940TIP3   OH224378   6.756   1.530   6.445  0.5893  0.0261  0.3058
  940TIP3    H124379   6.723   1.524   6.356 -0.3663 -0.7888  0.6955
  940TIP3    H224380   6.678   1.546   6.499  1.2996  1.8046  0.8816
  941TIP3   OH224381   5.222   6.518   7.276 -0.2547  0.1804 -0.0319
  941TIP3    H124382   5.165   6.586   7.311 -0.7060 -0.6854  0.9681
  941TIP3    H224383   5.164   6.459   7.228 -0.1226 -0.3769  0.4824
  942TIP3   OH224384   2.576   0.138   1.542 -0.3526  0.5212  0.0082
  942TIP3    H124385   2.486   0.160   1.568 -0.6961 -1.6729  0.8951
  942TIP3    H224386   2.630   0.207   1.582 -1.4911  0.8647  1.0120
  943TIP3   OH224387   4.988   5.513   6.290 -0.3298 -0.2757 -0.2392
  943TIP3    H124388   5.066   5.542   6.243 -0.1955 -0.5606 -0.1947
  943TIP3    H224389   4.997   5.418   6.294 -0.6904 -0.3093 -0.2529
  944TIP3   OH224390   6.298   2.654   0.754 -0.0327  0.4426 -0.2277
  944TIP3    H124391   6.302   2.616   0.666 -1.3393 -0.3440  0.0214
  944TIP3    H224392   6.314   2.580   0.813 -1.0027  0.5909  0.2323
  945TIP3   OH224393   5.277   0.673   7.574 -0.1247 -0.5961  0.4981
  945TIP3    H124394   5.345   0.630   7.522  0.5145  0.0826  0.7427
  945TIP3    H224395   5.300   0.766   7.570 -0.9179 -0.3836  0.7761
  946TIP3   OH224396   6.634   1.890   7.610  0.1561 -0.8862  0.3275
  946TIP3    H124397   6.713   1.858   7.565 -0.0447 -0.3858 -0.3987
  946TIP3    H224398   6.590   1.944   7.545 -0.5977 -0.8545  0.8564
  947TIP3   OH224399   3.328   2.801   1.195 -0.5070  0.6106 -0.3517
  947TIP3    H124400   3.260   2.861   1.227  0.4669  0.8682  1.3440
  947TIP3    H224401   3.297   2.714   1.220 -0.0200  0.7659  0.8465
  948TIP3   OH224402   0.691   4.766   6.898 -0.1081  0.5520  0.1159
  948TIP3    H124403   0.649   4.817   6.829 -0.4339  0.0159 -0.0795
  948TIP3    H224404   0.713   4.831   6.965 -0.9419  0.8894  0.0763
  949TIP3   OH224405   1.907   6.215   7.593  0.4103  0.1234 -0.2324
  949TIP3    H124406   1.898   6.196   7.686 -1.1369 -0.4942 -0.4721
  949TIP3    H224407   1.966   6.290   7.589 -0.0120  0.5626  1.2832
  950TIP3   OH224408   3.180   0.321   6.406  0.5806  0.2966  0.5316
  950TIP3    H124409   3.234   0.274   6.470  0.1513 -0.6059  0.2424
  950TIP3    H224410   3.243   0.365   6.350  1.0392 -0.8632  0.1111
  951TIP3   OH224411   1.389   6.459   8.134 -0.8307  0.1040 -0.3356
  951TIP3    H124412   1.295   6.461   8.116 -1.1495 -1.2707  1.0056
  951TIP3    H224413   1.406   6.371   8.168  0.5501  0.9745  1.4189
  952TIP3   OH224414   6.328   1.870   1.147 -0.3613 -0.6561 -0.2679
  952TIP3    H124415   6.247   1.921   1.144 -0.9798 -1.5721 -3.1194
  952TIP3    H224416   6.332   1.836   1.236  0.0107  4.0159  1.7481
  953TIP3   OH224417   6.364   4.332   1.845 -0.8218 -0.3617  0.0395
  953TIP3    H124418   6.373   4.428   1.842  1.3164 -0.5089 -1.9807
  953TIP3    H224419   6.274   4.317   1.872 -1.0048  2.2009  1.1842
  954TIP3   OH224420   3.881   4.867   1.673 -0.0930  0.3744  0.1273
  954TIP3    H124421   3.877   4.804   1.744  0.8664  0.1823  0.0308
  954TIP3    H224422   3.934   4.939   1.708  0.0152  0.4766 -0.2408
  955TIP3   OH224423   2.925   3.548   6.234 -0.1102  0.2351 -0.7687
  955TIP3    H124424   2.918   3.640   6.210  0.7371  0.9175  1.3542
  955TIP3    H224425   3.009   3.541   6.280  0.7281 -2.0020 -2.3884
  956TIP3   OH224426   0.939   6.164   0.266 -0.3233  0.3302 -0.8877
  956TIP3    H124427   0.882   6.168   0.343 -1.2364 -1.7371 -1.3840
  956TIP3    H224428   0.955   6.256   0.243 -0.3050  0.9994  1.5243
  957TIP3   OH224429   1.824   2.676   7.657  0.7453  0.5920 -0.1910
  957TIP3    H124430   1.746   2.702   7.607  1.1652  0.2152 -1.0686
  957TIP3    H224431   1.897   2.717   7.610  1.0741  0.9356  0.6185
  958TIP3   OH224432   5.921   4.956   7.688 -0.0581 -0.2838  0.6334
  958TIP3    H124433   5.890   4.876   7.729  1.0731 -0.8095  0.4929
  958TIP3    H224434   5.897   4.946   7.595 -0.3092 -0.2552  0.6943
  959TIP3   OH224435   5.002   4.853   1.575  0.0236 -0.9503 -0.1486
  959TIP3    H124436   5.085   4.835   1.619  0.2538 -0.3988 -0.3476
  959TIP3    H224437   4.938   4.861   1.646  0.2345 -0.8821  0.0315
  960TIP3   OH224438   4.348   6.030   0.049 -0.2222  0.2596 -0.1966
  960TIP3    H124439   4.345   5.941   0.084 -2.2604  0.1961 -0.3828
  960TIP3    H224440   4.349   6.086   0.126  0.5409  0.1029 -0.0799
  961TIP3   OH224441   2.061   3.537   6.437 -0.1423  0.2717 -0.1176
  961TIP3    H124442   2.087   3.613   6.489 -2.7544  1.8459 -0.9224
  961TIP3    H224443   2.072   3.565   6.346 -0.4511 -0.5638 -0.4256
  962TIP3   OH224444   1.943   4.414   7.673 -0.1607 -0.2736 -0.1101
  962TIP3    H124445   1.934   4.440   7.581 -0.0252  0.2743  0.0290
  962TIP3    H224446   1.869   4.355   7.688 -2.3836  2.4673  0.4154
  963TIP3   OH224447   0.085   0.880   1.255 -0.5784 -0.2747  0.6594
  963TIP3    H124448   0.124   0.905   1.171  0.2709 -2.3931  0.3447
  963TIP3    H224449   0.091   0.958   1.309 -0.0723  0.7930 -0.8750
  964TIP3   OH224450   4.604   0.233   6.336  0.4630 -0.5504 -0.2561
  964TIP3    H124451   4.699   0.233   6.342  0.4138 -0.7194  0.6566
  964TIP3    H224452   4.585   0.279   6.255  1.3638 -1.6787 -1.1420
  965TIP3   OH224453   3.812   2.047   8.182  0.3532  0.1812  0.0311
  965TIP3    H124454   3.894   2.025   8.137  0.5257  0.8275  0.0056
  965TIP3    H224455   3.747   1.987   8.145  1.5704 -3.3587  3.0386
  966TIP3   OH224456   6.521   4.220   6.866 -0.0123 -0.0676 -0.0730
  966TIP3    H124457   6.611   4.248   6.881  0.7424 -1.7190 -1.2708
  966TIP3    H224458   6.502   4.249   6.777 -0.7534  0.4166  0.2290
  967TIP3   OH224459   6.547   0.549   0.486 -0.3167  0.4022  0.1021
  967TIP3    H124460   6.478   0.615   0.481 -2.7966 -1.4604  4.4582
  967TIP3    H224461   6.510   0.471   0.445  0.4310  0.1617 -0.1420
  968TIP3   OH224462   0.966   5.042   5.976  0.2443  0.2953 -0.0624
  968TIP3    H124463   0.879   5.082   5.981 -0.0672 -0.3369 -0.4024
  968TIP3    H224464   1.020   5.098   6.032  0.1870  2.1246 -1.7490
  969TIP3   OH224465   2.129   5.611   8.151 -0.2363  0.2963  0.2736
  969TIP3    H124466   2.182   5.537   8.118  1.5876  1.1431  1.1504
  969TIP3    H224467   2.114   5.590   8.243 -1.4066  0.1004  0.0456
  970TIP3   OH224468   6.591   3.809   1.978  0.3068 -0.1137 -0.1703
  970TIP3    H124469   6.530   3.788   2.049 -1.0357 -0.1157 -1.2832
  970TIP3    H224470   6.613   3.901   1.992  0.5952 -0.2964  0.6301
  971TIP3   OH224471   4.587   3.763   1.959  0.8583 -0.2198 -1.0037
  971TIP3    H124472   4.607   3.856   1.973  1.5089 -0.3370 -1.1231
  971TIP3    H224473   4.506   3.763   1.908  0.2153  0.2613 -0.0063
  972TIP3   OH224474   3.072   5.301   7.790  1.0524  0.2550 -0.2532
  972TIP3    H124475   3.008   5.345   7.734  0.6680 -0.2945 -0.2587
  972TIP3    H224476   3.032   5.216   7.810  0.7500  0.7939  1.6150
  973TIP3   OH224477   1.446   5.081   7.388 -0.0241  0.1228 -0.2844
  973TIP3    H124478   1.434   5.004   7.443  1.4860 -0.2757 -0.4926
  973TIP3    H224479   1.368   5.134   7.405  0.2313 -0.1413  1.9768
  974TIP3   OH224480   4.405   3.225   6.692 -0.7888  0.6025 -0.1973
  974TIP3    H124481   4.474   3.224   6.758 -2.5104  1.7797  1.7886
  974TIP3    H224482   4.425   3.152   6.634  0.5571 -0.8723  1.9648
  975TIP3   OH224483   5.546   0.475   1.152  0.1231  0.0591  0.2351
  975TIP3    H124484   5.582   0.411   1.089 -1.2252  1.5065 -2.1629
  975TIP3    H224485   5.597   0.554   1.137 -0.8062  0.6896  0.3138
  976TIP3   OH224486   2.863   4.181   0.337 -0.0805  0.0816 -0.6146
  976TIP3    H124487   2.925   4.217   0.273 -0.3381 -0.9728 -1.4876
  976TIP3    H224488   2.912   4.111   0.381  0.9274  2.2876  2.1293
  977TIP3   OH224489   2.317   2.691   6.602  0.0626 -0.1579  0.0855
  977TIP3    H124490   2.248   2.672   6.538  0.4725  2.1020 -1.1236
  977TIP3    H224491   2.270   2.720   6.680 -0.4290 -2.5566  0.7735
  978TIP3   OH224492   6.623   2.758   0.240  0.1717 -0.3311  0.0619
  978TIP3    H124493   6.564   2.790   0.308 -0.2638  0.0206 -0.4733
  978TIP3    H224494   6.573   2.765   0.159  0.8832 -0.2041 -0.3798
  979TIP3   OH224495   1.576   5.101   0.501 -0.4732  0.1167  0.4724
  979TIP3    H124496   1.516   5.097   0.427 -2.3309 -0.3434  1.9171
  979TIP3    H224497   1.630   5.179   0.484 -0.3022 -0.4117 -1.7026
  980TIP3   OH224498   4.651   0.019   6.499 -0.0383 -0.3844 -0.3386
  980TIP3    H124499   4.576  -0.000   6.555  1.0039 -0.7262  0.9749
  980TIP3    H224500   4.620   0.088   6.441 -1.3615 -0.5033  0.1877
  981TIP3   OH224501   5.914   6.940   7.420 -0.3916 -0.4105  0.3738
  981TIP3    H124502   6.004   6.970   7.434  0.1767 -1.1017 -1.5090
  981TIP3    H224503   5.875   6.937   7.508  1.0904  0.8852  1.1158
  982TIP3   OH224504   4.248   6.242   6.354 -0.3606  0.7507 -0.5074
  982TIP3    H124505   4.223   6.334   6.362 -0.0371  0.8211 -0.2896
  982TIP3    H224506   4.177   6.194   6.397  0.2177  0.9897  0.7568
  983TIP3   OH224507   4.032   1.331   6.586 -0.5397 -0.3019  0.3279
  983TIP3    H124508   4.012   1.257   6.643  0.3444  0.5089  1.7674
  983TIP3    H224509   4.086   1.295   6.517  1.6871 -0.7159  2.1602
  984TIP3   OH224510   5.753   1.040   6.141 -0.3539 -0.4355  0.6186
  984TIP3    H124511   5.776   0.955   6.104 -1.3212 -0.9483  1.1649
  984TIP3    H224512   5.665   1.058   6.107 -0.5332 -0.0894  1.2440
  985TIP3   OH224513   6.412   1.097   0.214 -0.1614  0.1893  0.5479
  985TIP3    H124514   6.415   1.148   0.132  1.7275  0.6459  0.8603
  985TIP3    H224515   6.448   1.156   0.280  1.5896 -1.3345  1.0254
  986TIP3   OH224516   2.197   4.513   0.386  0.4628 -0.0768 -0.2074
  986TIP3    H124517   2.287   4.509   0.356 -0.0800 -0.1470 -1.9374
  986TIP3    H224518   2.166   4.422   0.383 -0.4521  0.2408 -2.3483
  987TIP3   OH224519   4.895   6.371   0.591  0.1972 -0.1485 -0.7987
  987TIP3    H124520   4.924   6.432   0.660  0.6563 -2.1677  0.8931
  987TIP3    H224521   4.825   6.320   0.632 -0.6728 -0.3256 -2.4098
  988TIP3   OH224522   2.293   1.530   7.093  0.0063  0.0317 -0.2707
  988TIP3    H124523   2.249   1.451   7.060  0.0915 -0.5164  0.8661
  988TIP3    H224524   2.357   1.552   7.025 -0.5901 -0.3857 -0.9809
  989TIP3   OH224525   3.017   5.107   6.182 -0.4995 -0.2589  0.4187
  989TIP3    H124526   3.019   5.138   6.092 -1.7001 -0.1212  0.4215
  989TIP3    H224527   2.999   5.013   6.174 -0.3059 -0.3046  0.5095
  990TIP3   OH224528   4.033   5.111   2.175  0.1978  0.0340 -0.3276
  990TIP3    H124529   4.054   5.149   2.089  1.2141 -0.6620 -0.4071
  990TIP3    H224530   3.962   5.166   2.208  0.6830  1.1424 -1.0298
  991TIP3   OH224531   6.770   4.022   1.379  0.2710 -0.2924  0.2731
  991TIP3    H124532   6.727   4.096   1.421 -0.7397  0.7429 -2.4251
  991TIP3    H224533   6.748   3.947   1.435 -2.0634  0.7988  0.9228
  992TIP3   OH224534   2.823   1.482   7.057 -0.1752  0.2909 -0.4699
  992TIP3    H124535   2.771   1.559   7.034 -1.8196 -0.9433 -1.0370
  992TIP3    H224536   2.786   1.411   7.004  0.8502 -1.0584  0.5495
  993TIP3   OH224537   5.767   3.228   1.202 -0.3005  0.2700 -0.1081
  993TIP3    H124538   5.700   3.237   1.269  1.4631 -1.4858  2.0588
  993TIP3    H224539   5.749   3.143   1.161  0.3206 -0.0221  0.2040
  994TIP3   OH224540   3.106   0.475   0.288 -0.1043 -0.0478  0.3954
  994TIP3    H124541   3.196   0.460   0.260  0.0731 -0.9562  1.3911
  994TIP3    H224542   3.053   0.450   0.212  0.4225 -1.0059  0.3254
  995TIP3   OH224543   5.854   6.281   7.132  0.4077  0.4037  0.2374
  995TIP3    H124544   5.863   6.238   7.047  0.4940  1.2100 -0.1665
  995TIP3    H224545   5.892   6.219   7.194  0.1146 -0.3043 -0.2701
  996TIP3   OH224546   1.709   0.127   7.831  0.1067  0.0422 -0.1298
  996TIP3    H124547   1.669   0.042   7.815  0.3029 -0.0995  0.1131
  996TIP3    H224548   1.803   0.109   7.835  0.0187 -0.4994  4.0122
  997TIP3   OH224549   2.426   3.426   8.266 -0.1941  0.2422  0.0024
  997TIP3    H124550   2.409   3.331   8.267  1.7189 -0.1627  1.5009
  997TIP3    H224551   2.354   3.464   8.316 -1.8628 -0.1834 -1.9662
  998TIP3   OH224552   1.975   1.369   6.744 -0.0301 -0.0186 -1.0018
  998TIP3    H124553   1.998   1.453   6.705 -0.9788 -0.3715 -2.3828
  998TIP3    H224554   2.041   1.355   6.812  1.4669  0.7793 -2.2390
  999TIP3   OH224555   2.458   3.912   6.241  0.2678  0.3348  0.5330
  999TIP3    H124556   2.488   3.850   6.307 -0.5611 -2.0725 -1.1847
  999TIP3    H224557   2.533   3.969   6.224  2.4104 -2.5466 -0.3821
 1000TIP3   OH224558   4.949   3.962   6.793  0.0199 -0.4080  0.3281
 1000TIP3    H124559   4.909   3.967   6.706 -0.8222 -1.6042  0.6142
 1000TIP3    H224560   5.043   3.955   6.776 -0.1570 -0.9486 -0.5057
 1001TIP3   OH224561   0.093   3.884   1.308  0.1452 -0.0945  0.4567
 1001TIP3    H124562   0.053   3.948   1.250 -2.1409  0.9036  2.9391
 1001TIP3    H224563   0.052   3.801   1.284 -0.0104  0.1245 -0.0377
 1002TIP3   OH224564   0.083   2.229   7.780  0.5539 -0.1087 -0.1240
 1002TIP3    H124565   0.006   2.230   7.838  0.4463 -0.8291 -0.2450
 1002TIP3    H224566   0.108   2.136   7.775  2.2875  0.2428  1.0395
 1003TIP3   OH224567   4.243   0.574   5.842  0.1777  0.0504  0.3296
 1003TIP3    H124568   4.332   0.609   5.846  1.2085 -2.3903  0.6578
 1003TIP3    H224569   4.232   0.529   5.926 -1.2831  0.1088  0.1863
 1004TIP3   OH224570   5.725   2.182   2.001  0.0145  0.3128  0.0502
 1004TIP3    H124571   5.698   2.225   1.920 -0.0975  1.2807  0.5848
 1004TIP3    H224572   5.655   2.202   2.063  0.4167  0.1314  0.5712
 1005TIP3   OH224573   1.110   1.875   2.381 -0.2208  0.3769  0.6777
 1005TIP3    H124574   1.120   1.816   2.456  0.9903 -0.2849  0.0085
 1005TIP3    H224575   1.117   1.963   2.419 -0.8940  0.0884  1.5089
 1006TIP3   OH224576   0.107   3.539   0.698  0.6985  0.2300 -0.4923
 1006TIP3    H124577   0.152   3.552   0.782  0.8393  0.4367 -0.5991
 1006TIP3    H224578   0.178   3.526   0.635  0.6076  0.4858 -0.6488
 1007TIP3   OH224579   4.375   0.668   1.265  0.1414 -0.0392 -0.5773
 1007TIP3    H124580   4.325   0.623   1.333 -0.0821 -0.6025 -1.1107
 1007TIP3    H224581   4.397   0.753   1.304  2.4825 -1.3721  1.3240
 1008TIP3   OH224582   5.219   2.548   7.818 -0.1856  0.0570  0.6832
 1008TIP3    H124583   5.197   2.607   7.890 -0.5739 -0.8246  1.3024
 1008TIP3    H224584   5.159   2.475   7.828  0.3744 -0.5088 -0.0002
 1009TIP3   OH224585   0.396   6.563   1.977 -0.8566 -0.2157  0.4712
 1009TIP3    H124586   0.302   6.568   1.998 -1.0690  0.1362 -0.5055
 1009TIP3    H224587   0.430   6.648   2.003 -0.6594 -0.5784  1.4494
 1010TIP3   OH224588   6.368   2.264   2.048 -0.1079  0.2250  0.4377
 1010TIP3    H124589   6.346   2.192   2.107  2.0278 -0.1337  0.8753
 1010TIP3    H224590   6.288   2.316   2.043 -0.8349 -0.5974  2.4247
 1011TIP3   OH224591   5.038   5.226   8.194 -0.4680 -0.0463  1.0097
 1011TIP3    H124592   4.985   5.148   8.176  0.6551 -0.5328 -0.3283
 1011TIP3    H224593   4.995   5.266   8.269 -0.3969 -2.6164  2.5609
 1012TIP3   OH224594   6.975   3.664   1.329  1.1755  0.1576  0.2830
 1012TIP3    H124595   6.895   3.689   1.375  1.6340  2.4667 -0.0803
 1012TIP3    H224596   6.958   3.575   1.299 -1.3203  0.6257  0.1102
 1013TIP3   OH224597   2.248   4.144   6.480  0.0333  0.1571 -0.0525
 1013TIP3    H124598   2.230   4.165   6.389  2.0518  0.7784 -0.3596
 1013TIP3    H224599   2.285   4.225   6.516  0.7762 -0.5760  0.8658
 1014TIP3   OH224600   4.466   5.602   8.150 -0.1335  0.3374 -0.5698
 1014TIP3    H124601   4.495   5.607   8.058 -1.0893 -0.4139 -0.9232
 1014TIP3    H224602   4.458   5.508   8.168  2.2548  0.3530  1.0222
 1015TIP3   OH224603   6.489   5.267   0.096 -0.1788 -0.4791 -0.0279
 1015TIP3    H124604   6.462   5.177   0.077 -1.4809 -0.7625  2.7363
 1015TIP3    H224605   6.408   5.312   0.118  0.4930  1.3522 -1.1316
 1016TIP3   OH224606   4.972   4.808   0.279  0.0938 -1.1402  0.3135
 1016TIP3    H124607   4.900   4.754   0.312 -0.8633  0.7231  1.4637
 1016TIP3    H224608   4.930   4.888   0.248  1.6699  0.3497  1.7549
 1017TIP3   OH224609   4.027   2.644   0.913 -0.5915 -0.3238  0.0673
 1017TIP3    H124610   4.078   2.578   0.960  1.0814  0.6898 -0.2375
 1017TIP3    H224611   4.062   2.642   0.824 -0.4968  0.9720  0.0647
 1018TIP3   OH224612   3.850   1.915   6.431  0.3221 -0.2202  0.3958
 1018TIP3    H124613   3.859   1.869   6.514  0.3370  0.6986  0.9130
 1018TIP3    H224614   3.799   1.994   6.452  0.2779 -0.0013 -0.4731
 1019TIP3   OH224615   2.035   6.003   6.434  0.9412 -0.0033  0.5846
 1019TIP3    H124616   2.122   5.966   6.419  0.1147 -2.2893  1.0073
 1019TIP3    H224617   1.977   5.952   6.376 -0.3927 -0.0142  1.8763
 1020TIP3   OH224618   0.424   5.752   8.118  0.3184 -0.1363 -0.4773
 1020TIP3    H124619   0.430   5.707   8.202  0.1594  1.9036  0.6914
 1020TIP3    H224620   0.481   5.701   8.059  1.0617 -1.1470  1.0560
 1021TIP3   OH224621   1.181   3.052   5.809 -0.0623  0.7170  0.8636
 1021TIP3    H124622   1.172   2.957   5.807 -1.2320  0.7956  1.4988
 1021TIP3    H224623   1.271   3.067   5.838  0.6784 -0.1791 -0.8514
 1022TIP3   OH224624   3.742   3.827   6.005  0.2298  0.1852  0.2671
 1022TIP3    H124625   3.795   3.905   6.024 -0.6717  1.1293 -0.9492
 1022TIP3    H224626   3.662   3.862   5.967  0.0346 -1.3685 -0.7905
 1023TIP3   OH224627   2.551   3.617   2.020 -0.1189  0.1792 -0.4901
 1023TIP3    H124628   2.568   3.567   1.940  0.3191  1.7529 -1.4173
 1023TIP3    H224629   2.517   3.552   2.082 -0.7017 -1.0316 -2.0198
 1024TIP3   OH224630   2.791   6.302   7.245  0.4424  0.2478 -0.2080
 1024TIP3    H124631   2.772   6.392   7.272  0.8891  1.1549 -2.6092
 1024TIP3    H224632   2.775   6.249   7.323 -1.1612  2.2335  0.9124
 1025TIP3   OH224633   3.425   4.924   6.254 -0.5429  0.6170 -0.1771
 1025TIP3    H124634   3.378   4.854   6.300  0.0002 -0.5026 -1.2730
 1025TIP3    H224635   3.482   4.963   6.320  0.1303 -0.8806  0.1593
 1026TIP3   OH224636   2.179   1.839   1.163 -0.3206  0.5832 -0.1725
 1026TIP3    H124637   2.217   1.921   1.132 -2.6787  1.5719 -0.6763
 1026TIP3    H224638   2.099   1.865   1.208 -0.3536 -1.3554  0.9816
 1027TIP3   OH224639   1.737   5.606   8.031  1.0329  0.4203  0.1892
 1027TIP3    H124640   1.802   5.626   7.963  0.9702 -0.3031 -0.1000
 1027TIP3    H224641   1.675   5.547   7.987  1.2881 -0.4974  1.0140
 1028TIP3   OH224642   1.514   1.123   5.893 -0.0754 -0.8914  0.0389
 1028TIP3    H124643   1.503   1.216   5.913  0.2762 -0.4967 -1.4324
 1028TIP3    H224644   1.569   1.088   5.963  1.1595  0.3923 -0.2587
 1029TIP3   OH224645   0.311   1.797   7.767 -0.2169 -0.2247  0.0227
 1029TIP3    H124646   0.406   1.786   7.756 -0.3051 -1.9028  0.6221
 1029TIP3    H224647   0.284   1.721   7.818 -2.1599 -0.7173 -1.5886
 1030TIP3   OH224648   5.864   3.920   1.616  0.2310  0.0652 -0.1834
 1030TIP3    H124649   5.881   3.838   1.661 -3.4243 -1.0548 -0.4544
 1030TIP3    H224650   5.949   3.963   1.609  1.7527 -2.0808  3.0392
 1031TIP3   OH224651   2.650   3.155   6.012 -0.2130  0.8706  0.0162
 1031TIP3    H124652   2.734   3.160   5.967  1.2575  0.6984  2.5564
 1031TIP3    H224653   2.653   3.224   6.078 -2.4287  1.3781 -0.3207
 1032TIP3   OH224654   4.338   2.400   7.515 -0.6954  0.0510  0.6624
 1032TIP3    H124655   4.426   2.439   7.507  0.1436 -1.7537  0.4976
 1032TIP3    H224656   4.332   2.341   7.439 -2.5473  1.0090  0.0094
 1033TIP3   OH224657   0.863   0.511   6.607  0.2928  0.0930 -0.7759
 1033TIP3    H124658   0.809   0.538   6.533  0.1086  0.4015 -0.5312
 1033TIP3    H224659   0.935   0.575   6.608  2.5022 -2.0927 -3.0597
 1034TIP3   OH224660   3.961   5.815   1.028 -0.1048 -0.0124  0.4355
 1034TIP3    H124661   3.879   5.766   1.029  0.5146 -1.0988  0.2773
 1034TIP3    H224662   4.025   5.753   0.993  0.2970  1.6092 -1.8941
 1035TIP3   OH224663   5.951   4.457   8.237  0.5008  0.0156 -0.3288
 1035TIP3    H124664   6.037   4.499   8.246  0.0837  1.5537 -2.5967
 1035TIP3    H224665   5.899   4.490   8.310  2.1354 -2.0349  1.9383
 1036TIP3   OH224666   1.420   0.442   7.299  0.0949  0.3405 -0.1729
 1036TIP3    H124667   1.405   0.531   7.332 -0.5912  0.4086 -0.6284
 1036TIP3    H224668   1.463   0.396   7.371 -0.6995  0.6823  0.5400
 1037TIP3   OH224669   4.456   2.179   2.034 -0.1129  0.0775  0.2161
 1037TIP3    H124670   4.435   2.112   2.099 -0.7156 -0.6115 -0.6746
 1037TIP3    H224671   4.386   2.243   2.042 -0.9203 -0.6739 -0.6438
 1038TIP3   OH224672   5.232   2.576   1.324 -0.2904 -0.9443 -0.0886
 1038TIP3    H124673   5.150   2.604   1.366 -0.1584 -1.0637  0.2512
 1038TIP3    H224674   5.224   2.607   1.234  0.5999  1.7936  0.6859
 1039TIP3   OH224675   2.146   1.772   0.676  0.8183 -0.0501 -0.8068
 1039TIP3    H124676   2.141   1.734   0.763 -1.9680  0.0196 -0.8551
 1039TIP3    H224677   2.240   1.770   0.654  1.3103 -2.3772  1.1247
 1040TIP3   OH224678   4.270   3.759   7.155 -0.3160 -0.5345 -0.6013
 1040TIP3    H124679   4.206   3.761   7.083 -0.6696  0.5905 -0.2833
 1040TIP3    H224680   4.220   3.787   7.232  0.4896  0.1168 -0.2963
 1041TIP3   OH224681   6.021   1.741   7.369 -0.0435 -0.2690  0.5127
 1041TIP3    H124682   6.072   1.811   7.409  1.1204 -0.2569 -0.8969
 1041TIP3    H224683   5.979   1.697   7.442  1.2441  0.3114  1.6453
 1042TIP3   OH224684   4.114   2.781   1.242  0.0601 -0.0602 -0.2906
 1042TIP3    H124685   4.087   2.846   1.307 -0.6874 -0.7052  0.0556
 1042TIP3    H224686   4.207   2.800   1.227  0.1575  0.3124  0.7034
 1043TIP3   OH224687   0.122   1.523   6.375  0.2448 -0.0960  0.6314
 1043TIP3    H124688   0.183   1.451   6.363  0.0867  0.0408 -1.5289
 1043TIP3    H224689   0.177   1.602   6.370 -0.1247  0.0964 -2.8169
 1044TIP3   OH224690   2.230   6.710   2.148 -0.4889  0.4582  0.0431
 1044TIP3    H124691   2.261   6.642   2.087 -0.2456  1.2374 -0.7337
 1044TIP3    H224692   2.140   6.684   2.169 -0.1983 -0.4329  0.2567
 1045TIP3   OH224693   6.256   6.881   1.975 -0.3162  0.5251 -0.4499
 1045TIP3    H124694   6.187   6.891   2.041 -0.4290  0.7017 -0.5928
 1045TIP3    H224695   6.273   6.787   1.972 -0.8345  0.4363 -0.6999
 1046TIP3   OH224696   2.176   4.245   0.539 -0.0545  0.4723 -0.1190
 1046TIP3    H124697   2.223   4.234   0.621 -0.1881  0.8530  0.0106
 1046TIP3    H224698   2.163   4.156   0.506  0.0773  0.3265  0.2249
 1047TIP3   OH224699   5.626   2.373   6.633 -0.4048  0.0542  0.0464
 1047TIP3    H124700   5.690   2.327   6.687 -0.9356 -0.6645  0.0791
 1047TIP3    H224701   5.541   2.345   6.668 -0.7383  1.2374  0.2031
 1048TIP3   OH224702   6.792   1.863   1.519 -0.0468  0.6963 -0.2787
 1048TIP3    H124703   6.844   1.906   1.451 -0.8071  2.2755  0.0923
 1048TIP3    H224704   6.747   1.792   1.474 -0.2697  1.5072 -1.3749
 1049TIP3   OH224705   3.860   0.496   8.195 -0.3630  0.2179  0.4209
 1049TIP3    H124706   3.777   0.452   8.211 -0.9767  1.4395  0.7094
 1049TIP3    H224707   3.870   0.493   8.100  0.5544 -2.1538  0.5142
 1050TIP3   OH224708   1.113   5.203   0.853  0.1546 -0.5379  0.5900
 1050TIP3    H124709   1.066   5.276   0.813  2.0711  0.6431  0.4181
 1050TIP3    H224710   1.091   5.208   0.946 -0.6335 -0.4746  0.4079
 1051TIP3   OH224711   3.787   0.697   6.941 -0.1725  0.0346  0.5983
 1051TIP3    H124712   3.748   0.714   7.026 -0.8308  0.9061  0.1369
 1051TIP3    H224713   3.819   0.607   6.947  2.6348  1.0255  2.8383
 1052TIP3   OH224714   0.276   2.054   1.548  0.3694  0.5469 -0.6939
 1052TIP3    H124715   0.289   1.998   1.624  1.0801  1.5653 -0.0314
 1052TIP3    H224716   0.265   1.993   1.475  1.1260 -0.4542 -0.0098
 1053TIP3   OH224717   6.721   5.782   1.193 -0.2278  0.2787  0.0814
 1053TIP3    H124718   6.773   5.862   1.197 -1.4539  1.0638  1.3108
 1053TIP3    H224719   6.652   5.795   1.258 -0.0574 -2.0839  0.8260
 1054TIP3   OH224720   2.648   3.863   1.980 -0.2246  0.1701 -0.0893
 1054TIP3    H124721   2.570   3.908   1.948  1.0221  0.0316 -3.6989
 1054TIP3    H224722   2.616   3.776   2.005 -1.5853  0.9456  1.0756
 1055TIP3   OH224723   3.596   2.807   0.482  0.3636 -0.1330 -0.1212
 1055TIP3    H124724   3.659   2.786   0.412 -0.3580 -1.0910 -0.4969
 1055TIP3    H224725   3.585   2.902   0.475  0.5430 -0.1677 -1.1093
 1056TIP3   OH224726   4.635   0.066   0.753 -0.3047 -0.4175  0.1790
 1056TIP3    H124727   4.608   0.051   0.663 -0.7425 -1.9815  0.5409
 1056TIP3    H224728   4.730   0.054   0.752 -0.5284 -2.6355  0.2790
 1057TIP3   OH224729   3.704   1.663   1.376  0.0034 -0.2400 -0.0300
 1057TIP3    H124730   3.680   1.594   1.438 -1.6693  0.9054  0.6652
 1057TIP3    H224731   3.630   1.669   1.316  0.2459  0.7374 -0.2553
 1058TIP3   OH224732   1.499   2.480   0.313 -0.5919 -0.3695 -0.1386
 1058TIP3    H124733   1.554   2.401   0.315  0.2512  0.1648  3.2150
 1058TIP3    H224734   1.537   2.534   0.245  1.6606 -0.9911  0.5547
 1059TIP3   OH224735   2.169   2.543   1.169  0.4359  0.1291 -0.2409
 1059TIP3    H124736   2.173   2.508   1.259 -0.8614  3.7330  1.3913
 1059TIP3    H224737   2.257   2.527   1.134  1.4976 -0.0049  2.2537
 1060TIP3   OH224738   0.198   3.275   5.642  0.4486 -0.1279 -0.2807
 1060TIP3    H124739   0.162   3.245   5.726  0.1156  1.4760  0.1738
 1060TIP3    H224740   0.246   3.199   5.608  0.6974 -0.7623  1.4102
 1061TIP3   OH224741   2.733   6.181   0.316  0.1585  0.0007  0.1842
 1061TIP3    H124742   2.759   6.147   0.402  0.1899 -0.8806 -0.1631
 1061TIP3    H224743   2.642   6.154   0.305 -0.0192  0.5803  0.1596
 1062TIP3   OH224744   3.408   3.540   0.358 -0.4535  0.2759 -0.3433
 1062TIP3    H124745   3.373   3.451   0.368  1.7082 -0.6559 -0.5866
 1062TIP3    H224746   3.486   3.542   0.412  0.5945  1.4035 -1.8092
 1063TIP3   OH224747   5.962   5.589   6.375 -0.2754  0.4549 -0.5855
 1063TIP3    H124748   5.950   5.681   6.354  2.6384  0.8072 -1.1161
 1063TIP3    H224749   6.005   5.552   6.298  1.7762 -0.4774  0.8954
 1064TIP3   OH224750   3.557   7.021   1.458 -0.2863 -0.1224  0.1798
 1064TIP3    H124751   3.574   6.963   1.533 -0.4270 -0.4758 -0.0615
 1064TIP3    H224752   3.643   7.033   1.417 -0.5499 -1.7264 -0.9052
 1065TIP3   OH224753   0.404   1.180   0.738  1.0152  0.1606  0.2282
 1065TIP3    H124754   0.426   1.205   0.828  1.8509  1.2906 -0.2633
 1065TIP3    H224755   0.335   1.241   0.712  0.1190 -0.7535  0.3871
 1066TIP3   OH224756   0.328   0.637   0.311  0.4806 -0.7495 -0.9253
 1066TIP3    H124757   0.372   0.685   0.241  2.8939 -0.6474  0.5498
 1066TIP3    H224758   0.399   0.603   0.366 -1.2887 -1.0571  1.3456
 1067TIP3   OH224759   4.958   4.684   0.586 -0.1774 -0.3080 -0.4328
 1067TIP3    H124760   4.903   4.627   0.533 -0.2362 -0.6284 -0.0288
 1067TIP3    H224761   4.900   4.758   0.609 -1.1088 -1.5972  1.6754
 1068TIP3   OH224762   1.201   6.407   6.184 -0.7052  0.1053 -0.1681
 1068TIP3    H124763   1.198   6.397   6.089 -3.0937 -0.6964 -0.0602
 1068TIP3    H224764   1.114   6.441   6.208 -0.4550 -0.5233  1.8149
 1069TIP3   OH224765   1.170   0.421   7.591 -0.1236  0.1009  0.1375
 1069TIP3    H124766   1.197   0.503   7.631 -0.4860 -0.0230  0.6385
 1069TIP3    H224767   1.087   0.398   7.634 -0.8071  0.2463 -1.0613
 1070TIP3   OH224768   0.316   5.343   7.354  0.1761 -0.0400  0.1284
 1070TIP3    H124769   0.316   5.428   7.310 -0.6418 -0.6269 -1.0928
 1070TIP3    H224770   0.225   5.330   7.380 -0.2178 -1.5254 -1.7960
 1071TIP3   OH224771   2.394   4.784   8.105  0.2953  0.1648  0.1889
 1071TIP3    H124772   2.420   4.874   8.123 -0.8076  0.5250  0.0674
 1071TIP3    H224773   2.298   4.786   8.107  0.2450 -1.3298  1.7726
 1072TIP3   OH224774   5.834   6.687   8.257 -0.1935 -0.5729  0.6793
 1072TIP3    H124775   5.816   6.730   8.340 -0.2745 -3.2960  2.2194
 1072TIP3    H224776   5.765   6.621   8.248 -0.1391 -0.4139 -1.5249
 1073TIP3   OH224777   1.050   5.773   7.094  0.1298  0.3772 -0.0911
 1073TIP3    H124778   1.133   5.809   7.125 -0.4275  1.3462  0.3037
 1073TIP3    H224779   1.015   5.839   7.034 -0.0817 -0.2918 -0.7238
 1074TIP3   OH224780   5.532   2.646   0.372 -0.1015  0.6085  0.2738
 1074TIP3    H124781   5.478   2.724   0.389 -0.4897  0.9795 -2.2574
 1074TIP3    H224782   5.560   2.656   0.282  1.9918 -0.9660  0.6817
 1075TIP3   OH224783   3.110   3.408   5.885 -0.1176  0.3841 -0.5561
 1075TIP3    H124784   3.032   3.384   5.936  0.3604 -0.1713 -0.0792
 1075TIP3    H224785   3.122   3.335   5.825 -0.5398  0.9285 -1.3267
 1076TIP3   OH224786   3.064   4.261   1.588 -0.0838 -0.3034 -0.4627
 1076TIP3    H124787   2.970   4.261   1.606  0.1635  0.2510  0.9665
 1076TIP3    H224788   3.105   4.235   1.670  1.1442  2.5515 -0.0477
 1077TIP3   OH224789   5.871   4.983   7.410 -0.5160  0.0527 -0.6288
 1077TIP3    H124790   5.929   4.992   7.335  1.1470  0.4341  0.6541
 1077TIP3    H224791   5.783   4.980   7.372  0.1449  1.9285 -2.4720
 1078TIP3   OH224792   0.252   2.651   6.965 -0.1319 -0.1750  0.2527
 1078TIP3    H124793   0.202   2.574   6.938  1.9204 -1.1850 -0.8592
 1078TIP3    H224794   0.185   2.716   6.988 -1.9494 -1.3508 -1.4016
 1079TIP3   OH224795   1.732   2.349   0.273  0.3441  0.4836 -0.2439
 1079TIP3    H124796   1.826   2.368   0.265  0.6174 -0.6121  0.1399
 1079TIP3    H224797   1.720   2.325   0.365 -0.1760 -0.0742 -0.4518
 1080TIP3   OH224798   4.012   2.862   6.217  0.1240 -0.2716 -0.8735
 1080TIP3    H124799   4.005   2.879   6.123  0.1074 -0.8197 -0.9716
 1080TIP3    H224800   4.077   2.926   6.248 -0.7318  0.7145 -1.0391
 1081TIP3   OH224801   3.966   5.609   7.348  0.3869 -0.0577 -0.0161
 1081TIP3    H124802   3.971   5.656   7.265 -0.0016  1.2855  0.6780
 1081TIP3    H224803   3.876   5.622   7.378  1.1042  1.4797  1.6835
 1082TIP3   OH224804   0.837   2.395   0.272  0.7555 -0.3560  0.4538
 1082TIP3    H124805   0.914   2.355   0.311  0.6627 -0.3871  0.6067
 1082TIP3    H224806   0.847   2.489   0.289  0.3773 -0.4386  1.1585
 1083TIP3   OH224807   4.405   5.930   1.125  0.0654 -0.0923  0.2242
 1083TIP3    H124808   4.314   5.942   1.096  0.7363 -0.1443 -2.1776
 1083TIP3    H224809   4.428   5.842   1.095  0.1732 -1.1557  3.1496
 1084TIP3   OH224810   5.665   6.033   0.982  0.1958  0.1895 -0.4716
 1084TIP3    H124811   5.623   5.957   0.941 -1.4883  1.2898 -0.8655
 1084TIP3    H224812   5.710   5.996   1.058  1.2140 -1.5032 -1.8020
 1085TIP3   OH224813   1.670   3.469   0.586 -0.5823 -0.1464 -0.0178
 1085TIP3    H124814   1.644   3.555   0.618  0.5471  0.8918 -1.7170
 1085TIP3    H224815   1.592   3.414   0.598 -1.4550  1.2069  0.7056
 1086TIP3   OH224816   0.020   2.118   7.476 -0.0595  0.1151  0.1638
 1086TIP3    H124817   0.079   2.086   7.409 -1.1557  0.5069 -1.0344
 1086TIP3    H224818   0.056   2.084   7.558  1.3540 -0.3063 -0.5948
 1087TIP3   OH224819   0.445   1.060   1.672 -0.4418  0.3022 -0.3950
 1087TIP3    H124820   0.404   0.993   1.618  0.1075  0.4249 -0.9808
 1087TIP3    H224821   0.538   1.051   1.655 -0.2112  0.0235  0.9197
 1088TIP3   OH224822   6.295   2.454   0.940 -0.0468  0.4731  0.6001
 1088TIP3    H124823   6.229   2.385   0.933  0.3666  0.2098 -1.5035
 1088TIP3    H224824   6.371   2.419   0.893  0.1289  2.3827 -0.6804
 1089TIP3   OH224825   3.455   4.406   8.107 -0.0882  0.4460  0.4956
 1089TIP3    H124826   3.483   4.315   8.095 -0.0336  0.7513 -2.6020
 1089TIP3    H224827   3.365   4.408   8.074 -0.6483  1.2535  1.9810
 1090TIP3   OH224828   1.732   6.235   7.040  0.3783 -0.7767 -0.5000
 1090TIP3    H124829   1.706   6.217   6.950  1.2868  0.7897 -1.1212
 1090TIP3    H224830   1.817   6.193   7.049  0.0357 -1.4103 -0.1812
 1091TIP3   OH224831   2.445   2.208   6.676  0.1270 -0.4427  0.3487
 1091TIP3    H124832   2.363   2.169   6.706 -0.8874 -1.1192 -2.8197
 1091TIP3    H224833   2.418   2.292   6.638  1.2197  0.1728  0.8940
 1092TIP3   OH224834   6.338   0.322   1.641 -0.1213 -0.3999  0.5308
 1092TIP3    H124835   6.357   0.246   1.697  0.5183  0.0984  1.0048
 1092TIP3    H224836   6.341   0.287   1.552  0.0909 -0.9547  0.7488
 1093TIP3   OH224837   1.082   3.839   5.918  0.1026  0.2891  0.4111
 1093TIP3    H124838   0.993   3.874   5.920  0.6607  1.8077  1.7214
 1093TIP3    H224839   1.129   3.898   5.858  0.7295  1.0042  1.5507
 1094TIP3   OH224840   3.220   6.096   1.239 -0.0652 -0.8456  0.2487
 1094TIP3    H124841   3.292   6.033   1.252 -0.1894 -1.1146 -0.3366
 1094TIP3    H224842   3.193   6.083   1.149  0.6559  0.8573 -0.2517
 1095TIP3   OH224843   4.366   0.487   6.825 -0.2675  0.5359  0.2831
 1095TIP3    H124844   4.284   0.438   6.834 -0.8401  1.6004  1.0555
 1095TIP3    H224845   4.363   0.551   6.897  1.0446  0.8649  0.0568
 1096TIP3   OH224846   5.560   3.250   1.379  0.6606  0.6584  0.1289
 1096TIP3    H124847   5.480   3.233   1.328  1.8122 -0.9705 -1.2583
 1096TIP3    H224848   5.539   3.328   1.430 -1.1984  1.3556 -1.5307
 1097TIP3   OH224849   0.882   0.714   0.236  0.7627  0.7535  0.0130
 1097TIP3    H124850   0.936   0.784   0.274  0.1196  1.3822 -0.1918
 1097TIP3    H224851   0.802   0.759   0.207  0.3934 -0.0509 -0.2506
 1098TIP3   OH224852   3.852   0.647   1.540 -1.1523 -0.3819  0.2047
 1098TIP3    H124853   3.764   0.680   1.559 -0.6471  0.4185  1.2902
 1098TIP3    H224854   3.899   0.659   1.622  0.7326  1.7001 -1.0702
 1099TIP3   OH224855   2.354   6.133   8.167 -0.3775 -0.3274 -0.1015
 1099TIP3    H124856   2.396   6.052   8.195  2.0813  0.8588 -0.0573
 1099TIP3    H224857   2.321   6.114   8.079  0.2621 -1.3259 -0.1378
 1100TIP3   OH224858   6.694   5.749   0.449  0.0639  0.0062 -0.1471
 1100TIP3    H124859   6.601   5.756   0.430  0.3162  0.4153 -1.3071
 1100TIP3    H224860   6.736   5.733   0.364  0.8825 -2.2567  0.5942
 1101TIP3   OH224861   6.697   0.178   0.415  0.3166 -0.0320 -0.1481
 1101TIP3    H124862   6.786   0.145   0.400  0.2500 -0.5005  0.4666
 1101TIP3    H224863   6.685   0.170   0.509 -0.9057 -1.2954 -0.3904
 1102TIP3   OH224864   0.862   3.736   0.072  0.1028  0.4158 -0.1802
 1102TIP3    H124865   0.777   3.694   0.087  0.1566  0.2448 -0.3594
 1102TIP3    H224866   0.840   3.828   0.057 -0.2499  0.0582 -2.1778
 1103TIP3   OH224867   1.129   2.904   7.191 -0.0679  0.1869 -0.6849
 1103TIP3    H124868   1.062   2.921   7.257  1.8312 -0.5495  1.5571
 1103TIP3    H224869   1.081   2.863   7.118 -2.0354 -0.3251  0.8173
 1104TIP3   OH224870   5.564   5.793   0.584 -0.2487  0.4847 -0.3245
 1104TIP3    H124871   5.471   5.807   0.601  0.0905  0.0670  2.1242
 1104TIP3    H224872   5.584   5.853   0.511 -2.7657 -0.6710 -2.1135
 1105TIP3   OH224873   5.107   1.087   6.071  0.3066  0.2462  0.1551
 1105TIP3    H124874   5.097   1.032   6.150  0.1248 -0.0918 -0.0980
 1105TIP3    H224875   5.018   1.117   6.052  0.4462  0.8742  0.4591
 1106TIP3   OH224876   2.248   6.682   0.556  0.4238  0.3005 -0.5139
 1106TIP3    H124877   2.171   6.625   0.556 -0.5208  1.5260 -0.5729
 1106TIP3    H224878   2.224   6.754   0.613  2.2807 -0.2019  0.9918
 1107TIP3   OH224879   6.334   0.727   6.907  0.5796 -0.4381  0.2105
 1107TIP3    H124880   6.374   0.690   6.829  0.9861  1.3172 -0.4772
 1107TIP3    H224881   6.268   0.664   6.934  1.1456 -1.5545 -0.9386
 1108TIP3   OH224882   0.738   2.197   2.318  0.4002  0.0318  0.0406
 1108TIP3    H124883   0.712   2.289   2.326  0.6185  0.2214 -1.2741
 1108TIP3    H224884   0.658   2.148   2.335 -0.4357  0.5590 -2.0459
 1109TIP3   OH224885   4.560   5.226   7.140 -0.1113  0.0768  0.0951
 1109TIP3    H124886   4.598   5.292   7.198  0.7919 -1.1631  0.9753
 1109TIP3    H224887   4.596   5.247   7.054  1.1671  0.0088  0.5877
 1110TIP3   OH224888   4.455   2.724   0.760  0.0277 -0.0562  0.2512
 1110TIP3    H124889   4.371   2.692   0.726  0.5506 -0.6529 -0.5107
 1110TIP3    H224890   4.452   2.704   0.853 -0.7021 -0.0262  0.2411
 1111TIP3   OH224891   5.356   5.231   7.010  0.3462 -0.1178 -0.5629
 1111TIP3    H124892   5.299   5.299   6.975 -0.0362 -1.2015 -2.1867
 1111TIP3    H224893   5.332   5.152   6.961 -0.6782 -1.9821  2.5874
 1112TIP3   OH224894   5.561   2.479   0.594  0.0813 -0.5182 -0.1696
 1112TIP3    H124895   5.628   2.427   0.551  0.6796  0.5213 -0.5204
 1112TIP3    H224896   5.511   2.518   0.522  1.1657  1.3277  0.0179
 1113TIP3   OH224897   3.002   5.878   0.424 -0.2182  0.3193 -0.2301
 1113TIP3    H124898   2.920   5.916   0.456  0.0316 -1.4872  3.0060
 1113TIP3    H224899   3.070   5.923   0.475  0.5373 -0.3290 -0.6445
 1114TIP3   OH224900   1.025   5.956   6.721  0.4257  0.5451  0.1056
 1114TIP3    H124901   1.006   5.964   6.815 -0.9289 -1.9881  0.1547
 1114TIP3    H224902   0.970   6.022   6.680 -1.1912 -0.2066  0.9535
 1115TIP3   OH224903   3.775   0.343   7.177  0.8044 -0.2038 -0.3488
 1115TIP3    H124904   3.805   0.276   7.239  1.7891 -0.6262 -1.2467
 1115TIP3    H224905   3.830   0.419   7.197 -1.8830  1.2426  2.2700
 1116TIP3   OH224906   5.899   6.209   7.421 -0.1028 -0.1826  0.7399
 1116TIP3    H124907   5.838   6.253   7.480 -1.0480 -0.9245  0.3485
 1116TIP3    H224908   5.852   6.131   7.392 -0.5706  1.1555 -2.6220
 1117TIP3   OH224909   2.543   5.621   0.698  0.2883  0.5112 -0.1877
 1117TIP3    H124910   2.519   5.616   0.790 -2.0147 -0.1202 -0.7595
 1117TIP3    H224911   2.529   5.712   0.673 -0.5892  0.3640 -0.2614
 1118TIP3   OH224912   0.152   4.096   1.523 -0.3138 -0.4296  0.4605
 1118TIP3    H124913   0.149   4.043   1.443 -1.4310 -0.5773  0.5728
 1118TIP3    H224914   0.110   4.178   1.499 -0.6584 -0.4756  0.8898
 1119TIP3   OH224915   6.764   5.956   0.788 -0.0131  0.5081  0.4386
 1119TIP3    H124916   6.745   6.006   0.867 -0.0531  1.9523 -0.4447
 1119TIP3    H224917   6.775   6.023   0.719  2.9849 -0.5068 -0.2087
 1120TIP3   OH224918   2.038   4.700   0.459 -0.6364 -0.5848  0.0011
 1120TIP3    H124919   2.071   4.789   0.444 -0.9525 -0.3201  0.8184
 1120TIP3    H224920   2.117   4.645   0.459 -0.2040 -0.0250  1.4188
 1121TIP3   OH224921   2.133   5.914   8.117  0.3567 -0.4228 -0.9435
 1121TIP3    H124922   2.208   5.942   8.064  0.6219 -0.8240 -0.7857
 1121TIP3    H224923   2.143   5.819   8.125 -0.2531 -0.5028 -1.0504
 1122TIP3   OH224924   1.320   6.818   1.956  0.5182 -0.3338 -0.4104
 1122TIP3    H124925   1.270   6.892   1.991  0.3523 -0.4572 -0.3870
 1122TIP3    H224926   1.256   6.747   1.948  1.1330 -1.2407  1.8494
 1123TIP3   OH224927   4.433   4.855   7.248  0.3809  0.4506 -0.6404
 1123TIP3    H124928   4.445   4.870   7.154 -1.7364  0.0228 -1.0201
 1123TIP3    H224929   4.509   4.898   7.289  0.6054  1.8778 -2.4455
 1124TIP3   OH224930   3.121   4.104   1.097  0.3846 -0.2565 -0.3288
 1124TIP3    H124931   3.197   4.120   1.153  1.2879 -0.0248 -1.5737
 1124TIP3    H224932   3.095   4.014   1.118  1.0652 -0.3707  0.0728
 1125TIP3   OH224933   4.573   0.424   1.016 -0.4012  0.1918  1.0007
 1125TIP3    H124934   4.484   0.453   1.036 -0.8232  1.9311 -2.6472
 1125TIP3    H224935   4.576   0.418   0.921  3.0266 -1.1608  1.0578
 1126TIP3   OH224936   4.170   6.006   1.021 -0.4034 -0.1695 -0.1524
 1126TIP3    H124937   4.131   6.094   1.017 -0.6424 -0.2965 -0.5648
 1126TIP3    H224938   4.096   5.946   1.014 -0.2396 -0.4097  0.1285
 1127TIP3   OH224939   5.481   0.962   1.032  0.5994 -0.3280  0.2330
 1127TIP3    H124940   5.538   0.962   0.955  2.1855 -2.8376  1.2713
 1127TIP3    H224941   5.460   0.869   1.046  0.1820  0.0722  2.6690
 1128TIP3   OH224942   5.346   5.950   0.216 -0.3192  0.7079 -0.0227
 1128TIP3    H124943   5.439   5.943   0.195 -1.0037 -1.8564 -3.0378
 1128TIP3    H224944   5.302   5.942   0.131 -3.3284  0.8827  1.3969
 1129TIP3   OH224945   4.650   0.501   5.987  0.0030 -0.1386 -0.0695
 1129TIP3    H124946   4.658   0.526   5.895 -1.2383  1.4668  0.2256
 1129TIP3    H224947   4.680   0.577   6.036 -1.8959  0.0788  0.8437
 1130TIP3   OH224948   4.329   0.757   7.565  0.2945  0.2888 -0.4832
 1130TIP3    H124949   4.238   0.786   7.565  0.2652  0.4071  2.4027
 1130TIP3    H224950   4.370   0.809   7.496 -1.4502  1.4575 -0.7030
 1131TIP3   OH224951   2.368   6.187   0.943  0.4129 -0.4654  0.0857
 1131TIP3    H124952   2.439   6.155   0.887 -0.8079 -2.2719 -0.5292
 1131TIP3    H224953   2.332   6.262   0.896  1.7323  0.3530  0.3095
 1132TIP3   OH224954   1.262   1.639   0.700  0.0507 -0.3079 -0.2311
 1132TIP3    H124955   1.189   1.655   0.760 -0.8208 -0.6315 -1.1737
 1132TIP3    H224956   1.290   1.726   0.671  0.6710 -0.1331  0.8411
 1133TIP3   OH224957   0.182   6.368   0.564  0.1529 -0.2213  0.6190
 1133TIP3    H124958   0.123   6.351   0.491  0.2259  0.2679  0.4414
 1133TIP3    H224959   0.130   6.421   0.625 -0.2282 -1.4258  1.3845
 1134TIP3   OH224960   4.959   0.183   8.278 -0.2165 -0.0855  0.2270
 1134TIP3    H124961   4.866   0.196   8.262 -0.2702 -1.2190 -0.5563
 1134TIP3    H224962   4.982   0.247   8.345 -1.2448  1.1538 -0.5584
 1135TIP3   OH224963   5.924   0.774   1.171 -0.5466 -0.2411 -0.6592
 1135TIP3    H124964   5.944   0.860   1.134 -1.5967  0.6680  0.8137
 1135TIP3    H224965   5.950   0.712   1.102  2.1440  1.1036 -0.9820
 1136TIP3   OH224966   4.217   2.427   7.878  0.7243 -0.5890 -0.2107
 1136TIP3    H124967   4.223   2.517   7.846  0.8900  0.1013  1.6187
 1136TIP3    H224968   4.128   2.421   7.915  0.1613 -1.6830 -1.6529
 1137TIP3   OH224969   5.062   3.760   7.183  0.6012  0.1948 -0.1187
 1137TIP3    H124970   5.015   3.696   7.236  0.5154 -0.3801 -0.8803
 1137TIP3    H224971   5.125   3.709   7.133  4.0362  1.1229  2.7820
 1138TIP3   OH224972   0.353   4.750   7.144 -0.2004 -1.1846 -0.0291
 1138TIP3    H124973   0.446   4.732   7.157 -0.0167 -2.3301 -2.3052
 1138TIP3    H224974   0.308   4.678   7.187 -0.1911  0.1971  2.4598
 1139TIP3   OH224975   0.715   2.608   2.075  0.9360 -0.2558  0.5806
 1139TIP3    H124976   0.694   2.554   2.151 -0.0235 -1.2549 -0.3665
 1139TIP3    H224977   0.703   2.698   2.105 -1.2843 -0.6776  1.1131
 1140TIP3   OH224978   2.704   5.614   6.187 -0.0511  0.6902  0.1539
 1140TIP3    H124979   2.657   5.611   6.104 -0.1152 -1.4283  0.2211
 1140TIP3    H224980   2.660   5.683   6.237 -0.7176  1.2312 -1.1351
 1141TIP3   OH224981   3.028   3.567   6.810 -0.5248 -0.1086  0.1763
 1141TIP3    H124982   3.100   3.536   6.755  0.1354  0.6082  0.6263
 1141TIP3    H224983   3.036   3.518   6.891 -0.9700 -0.5267 -0.0252
 1142TIP3   OH224984   4.878   6.516   2.519 -0.3355 -0.1349  0.9278
 1142TIP3    H124985   4.958   6.557   2.551 -0.2028  0.0372  0.3803
 1142TIP3    H224986   4.881   6.527   2.424 -2.1994  2.0790  1.0455
 1143TIP3   OH224987   1.785   4.209   7.746 -0.0104 -0.2761 -0.2438
 1143TIP3    H124988   1.828   4.169   7.822 -0.9172 -0.7241  0.0486
 1143TIP3    H224989   1.735   4.137   7.707 -1.7028  0.5471  0.3151
 1144TIP3   OH224990   6.697   6.299   6.704  0.6992 -0.4388  0.2764
 1144TIP3    H124991   6.651   6.221   6.673  1.2366 -1.4920  1.9734
 1144TIP3    H224992   6.757   6.321   6.632  0.8605 -1.8908 -0.0754
 1145TIP3   OH224993   6.642   4.776   7.816  0.4100 -0.3935 -0.4181
 1145TIP3    H124994   6.647   4.869   7.838  1.6688 -0.9134  1.8351
 1145TIP3    H224995   6.562   4.768   7.764  0.9330  2.1164 -1.7798
 1146TIP3   OH224996   2.318   1.914   7.555  0.3889 -0.6566 -0.0178
 1146TIP3    H124997   2.273   1.907   7.639  1.3589  0.2788  0.5968
 1146TIP3    H224998   2.293   2.000   7.521  1.6174 -0.1508  0.2992
 1147TIP3   OH224999   5.880   5.490   8.194  0.3477  0.1941  0.4716
 1147TIP3    H125000   5.803   5.434   8.204  0.0603  0.7423  1.3821
 1147TIP3    H225001   5.857   5.550   8.124  0.2847 -0.1872  0.1586
 1148TIP3   OH225002   2.253   5.126   0.555  0.4053 -0.4629  0.1923
 1148TIP3    H125003   2.167   5.093   0.579 -0.4830 -1.1189 -3.3356
 1148TIP3    H225004   2.238   5.216   0.528  1.1729 -0.0437  1.0955
 1149TIP3   OH225005   6.100   3.427   7.744  0.2894 -0.2991  0.1698
 1149TIP3    H125006   6.130   3.341   7.772  1.1980 -0.4546 -1.2028
 1149TIP3    H225007   6.175   3.465   7.699 -0.8907  0.1753 -1.4774
 1150TIP3   OH225008   2.076   2.973   0.578 -0.0517 -0.3979 -0.0326
 1150TIP3    H125009   2.106   2.887   0.607 -0.7092 -0.4054  0.6662
 1150TIP3    H225010   1.983   2.974   0.599 -0.1397  0.3205 -0.4352
 1151TIP3   OH225011   0.377   6.475   7.626  0.9551 -0.3753 -0.5184
 1151TIP3    H125012   0.423   6.425   7.694  0.6602  1.7814  1.4012
 1151TIP3    H225013   0.447   6.520   7.578  1.0439  0.2800  0.2103
 1152TIP3   OH225014   4.512   3.989   6.116  0.1795 -0.3642  0.4576
 1152TIP3    H125015   4.584   3.931   6.138  1.0491  0.0052 -1.1969
 1152TIP3    H225016   4.548   4.047   6.048 -0.8769  1.5953  1.4778
 1153TIP3   OH225017   5.113   4.221   6.923 -0.4006  0.1628  0.3262
 1153TIP3    H125018   5.059   4.161   6.872  0.4686 -1.1828  0.9356
 1153TIP3    H225019   5.063   4.236   7.003  0.4303 -1.7705  1.2774
 1154TIP3   OH225020   1.514   1.044   1.448 -0.0393  0.4910 -0.3788
 1154TIP3    H125021   1.545   0.957   1.471 -0.0960  0.7093  0.5648
 1154TIP3    H225022   1.439   1.029   1.391  1.4758 -0.0505 -2.3678
 1155TIP3   OH225023   6.049   5.678   1.086 -0.1375  0.1960 -0.1274
 1155TIP3    H125024   6.088   5.594   1.062 -0.1488 -0.1262  0.9277
 1155TIP3    H225025   5.972   5.685   1.031 -0.6266 -0.9168  0.3839
 1156TIP3   OH225026   5.893   5.054   5.792  0.0617  0.0116 -0.1056
 1156TIP3    H125027   5.919   4.962   5.789 -0.3788 -0.2406  2.1535
 1156TIP3    H225028   5.957   5.095   5.850 -0.2184  0.9470 -0.4471
 1157TIP3   OH225029   6.375   2.218   7.120  0.3502 -0.2310 -0.2022
 1157TIP3    H125030   6.461   2.250   7.096  0.1839  2.0981  1.8993
 1157TIP3    H225031   6.316   2.255   7.055  0.4378  2.1113  0.9676
 1158TIP3   OH225032   5.968   1.022   8.048 -0.0764  0.1413 -0.1116
 1158TIP3    H125033   6.052   0.993   8.013 -0.1055  0.3973 -0.3942
 1158TIP3    H225034   5.985   1.109   8.084  0.3596 -0.7581  2.0585
 1159TIP3   OH225035   0.376   2.538   6.245 -0.5440  0.2798 -0.0792
 1159TIP3    H125036   0.328   2.466   6.286  0.1113 -0.3773 -0.4535
 1159TIP3    H225037   0.449   2.555   6.304  0.2923 -0.5384 -0.8515
 1160TIP3   OH225038   5.057   5.967   1.517 -0.7358  0.4189  0.5656
 1160TIP3    H125039   5.139   6.008   1.490 -1.3669  0.9891 -0.5821
 1160TIP3    H225040   5.001   6.040   1.545 -1.5772  0.3200 -0.7185
 1161TIP3   OH225041   1.889   2.991   7.254  0.0723  0.1073  0.1042
 1161TIP3    H125042   1.965   2.937   7.278 -1.0771 -1.5807  0.1322
 1161TIP3    H225043   1.850   2.946   7.180 -0.9347  0.9276  0.1151
 1162TIP3   OH225044   5.534   1.772   1.440  0.3467 -0.0352 -0.2675
 1162TIP3    H125045   5.474   1.725   1.381  0.5598 -0.2188 -0.3386
 1162TIP3    H225046   5.489   1.772   1.525  0.6451 -0.9504 -0.1048
 1163TIP3   OH225047   3.373   6.856   1.220 -0.1249  0.4447  0.4845
 1163TIP3    H125048   3.423   6.777   1.197 -0.4686  0.3655 -0.0095
 1163TIP3    H225049   3.347   6.843   1.311  0.5476  0.3767  0.6680
 1164TIP3   OH225050   5.013   5.740   2.369 -0.2160  0.1662 -0.0132
 1164TIP3    H125051   4.944   5.677   2.350  0.1625 -0.0958 -0.5537
 1164TIP3    H225052   4.970   5.810   2.419 -0.5032 -0.8257  1.1700
 1165TIP3   OH225053   6.966   1.501   0.832  0.0141 -0.2083  0.0447
 1165TIP3    H125054   6.943   1.423   0.782  0.5863  0.3878 -1.2005
 1165TIP3    H225055   6.925   1.574   0.784 -2.4931  0.1132  2.4599
 1166TIP3   OH225056   6.504   1.668   0.697  0.7383 -0.4782 -0.0192
 1166TIP3    H125057   6.453   1.690   0.775 -0.3561 -0.7625 -0.6194
 1166TIP3    H225058   6.525   1.753   0.658 -0.5376 -0.3581 -0.5170
 1167TIP3   OH225059   5.231   2.759   6.430  0.0177  0.1819  0.5140
 1167TIP3    H125060   5.220   2.794   6.341  2.2620  0.4139  0.2694
 1167TIP3    H225061   5.201   2.669   6.424  2.4378 -0.6284 -1.2351
 1168TIP3   OH225062   6.645   3.871   7.572 -0.2392 -0.3398  0.1165
 1168TIP3    H125063   6.683   3.890   7.658 -1.8898 -1.1462  1.0638
 1168TIP3    H225064   6.698   3.798   7.538  0.1482 -0.3093  0.6453
 1169TIP3   OH225065   2.783   4.590   1.925  0.5998  0.6623 -0.1987
 1169TIP3    H125066   2.783   4.495   1.932 -0.0207  0.7809  1.9201
 1169TIP3    H225067   2.695   4.617   1.951  0.3287  1.7901 -2.0397
 1170TIP3   OH225068   1.591   2.547   2.435 -0.2961  0.3964  0.4112
 1170TIP3    H125069   1.498   2.551   2.413 -0.1682 -1.2757 -0.6764
 1170TIP3    H225070   1.633   2.601   2.368 -0.4739  1.3123  1.0183
 1171TIP3   OH225071   3.022   2.734   5.692 -0.6535  0.0163  0.0377
 1171TIP3    H125072   3.088   2.802   5.681 -0.1761 -0.3355  0.6768
 1171TIP3    H225073   3.066   2.654   5.664 -1.3654  0.0290 -1.1731
 1172TIP3   OH225074   3.034   4.509   1.187  0.4798 -0.1504  0.2071
 1172TIP3    H125075   3.100   4.508   1.257  0.8878  0.7264 -0.1414
 1172TIP3    H225076   3.030   4.601   1.160  1.5411 -0.6805 -2.0208
 1173TIP3   OH225077   5.944   1.402   0.080 -0.0610  0.6084 -0.1480
 1173TIP3    H125078   5.938   1.498   0.072 -0.7879  0.5950  0.1768
 1173TIP3    H225079   6.002   1.388   0.154  0.2410  0.7942 -0.3464
 1174TIP3   OH225080   4.940   1.790   0.086 -0.0842 -0.2986  0.4092
 1174TIP3    H125081   4.923   1.707   0.129 -1.9936 -0.4052 -0.4556
 1174TIP3    H225082   4.863   1.843   0.105  0.6418  0.9236  0.0803
 1175TIP3   OH225083   6.924   4.221   2.769  0.0449  0.1093 -0.1791
 1175TIP3    H125084   6.933   4.274   2.848 -0.3043 -2.8165  1.9973
 1175TIP3    H225085   6.831   4.196   2.767  0.8095 -3.6355  1.3567
 1176TIP3   OH225086   2.016   3.897   6.276  0.1091  0.0052  0.1697
 1176TIP3    H125087   2.024   3.808   6.244  0.0492  0.1528 -0.2606
 1176TIP3    H225088   1.924   3.906   6.301  0.4875 -0.6256  1.9417
 1177TIP3   OH225089   4.027   3.930   6.446  0.3298 -0.3112  0.7014
 1177TIP3    H125090   4.018   3.838   6.421  0.2154 -0.5560  1.6217
 1177TIP3    H225091   4.011   3.978   6.365 -0.2403 -1.0776  0.3457
 1178TIP3   OH225092   4.314   1.068   6.157  0.0376 -0.1309 -0.2895
 1178TIP3    H125093   4.326   1.112   6.073  1.7170 -0.0995 -0.0791
 1178TIP3    H225094   4.395   1.017   6.169  0.4324  0.8626  1.8767
 1179TIP3   OH225095   2.924   3.644   1.661  0.5719  1.0194  0.2623
 1179TIP3    H125096   3.005   3.595   1.647 -0.6242 -1.1828  0.5755
 1179TIP3    H225097   2.941   3.699   1.737  1.7036  0.4622  0.4204
 1180TIP3   OH225098   1.602   4.064   6.814  0.0351 -0.4492 -0.2655
 1180TIP3    H125099   1.660   4.028   6.881  0.8272 -0.1283 -0.7613
 1180TIP3    H225100   1.661   4.097   6.747 -0.7203  0.1293 -0.6609
 1181TIP3   OH225101   1.147   2.474   2.084 -0.0652 -0.4029 -0.5108
 1181TIP3    H125102   1.109   2.425   2.157  1.1028 -3.2508 -1.7015
 1181TIP3    H225103   1.155   2.411   2.013  2.0936  1.3607 -1.9951
 1182TIP3   OH225104   2.310   7.046   7.673 -0.7657  0.1952  0.3145
 1182TIP3    H125105   2.233   7.097   7.651 -2.2400 -1.3391  1.6577
 1182TIP3    H225106   2.332   7.073   7.763 -0.7196 -0.5023  0.5210
 1183TIP3   OH225107   1.801   2.217   7.424 -0.5523 -0.1918  0.5474
 1183TIP3    H125108   1.890   2.251   7.424 -0.3700 -0.6674  0.5038
 1183TIP3    H225109   1.752   2.278   7.480 -0.4369  0.6581 -0.2674
 1184TIP3   OH225110   5.629   2.929   7.606  0.1252 -0.9194  0.3117
 1184TIP3    H125111   5.629   2.879   7.688  1.5412 -0.9392  0.3232
 1184TIP3    H225112   5.541   2.917   7.571  0.6394 -4.2180 -0.1638
 1185TIP3   OH225113   3.391   0.966   7.012  0.0357 -0.7297  0.0147
 1185TIP3    H125114   3.469   0.958   6.956 -0.5983 -2.9378 -0.6855
 1185TIP3    H225115   3.416   0.924   7.094 -0.4602 -1.7405 -0.3258
 1186TIP3   OH225116   7.044   1.723   1.662 -0.1241  0.6760  0.1323
 1186TIP3    H125117   6.999   1.716   1.746  0.4372  0.2666  0.4071
 1186TIP3    H225118   7.130   1.683   1.677 -0.6355 -0.9846 -1.0954
 1187TIP3   OH225119   3.136   3.844   1.441  0.3732  0.1154 -0.0076
 1187TIP3    H125120   3.197   3.917   1.435 -0.5616  1.2075  2.4451
 1187TIP3    H225121   3.095   3.854   1.527 -0.6319 -2.6562 -0.0670
 1188TIP3   OH225122   2.878   6.963   0.913  0.0813 -0.6214 -0.4853
 1188TIP3    H125123   2.824   6.985   0.837  1.4697 -0.1543 -1.3680
 1188TIP3    H225124   2.821   6.979   0.988 -0.9106  0.1527 -1.3727
 1189TIP3   OH225125   5.268   6.612   0.562 -0.2851  0.6511  0.2595
 1189TIP3    H125126   5.305   6.524   0.559 -3.1749 -0.6557 -0.0251
 1189TIP3    H225127   5.264   6.634   0.655  0.9181  0.7400  0.3056
 1190TIP3   OH225128   1.449   4.780   8.032 -0.7188 -0.4817  0.0703
 1190TIP3    H125129   1.362   4.818   8.020 -1.7103 -2.8507 -0.8040
 1190TIP3    H225130   1.445   4.738   8.119 -1.3875 -2.7069 -0.9578
 1191TIP3   OH225131   4.576   1.046   6.852  0.1914 -0.2143 -0.4006
 1191TIP3    H125132   4.599   1.099   6.929  0.7897  0.7606 -1.2328
 1191TIP3    H225133   4.656   1.041   6.801 -0.1605 -0.9919 -0.9017
 1192TIP3   OH225134   6.236   3.678   1.802  0.3969  0.7673  0.2791
 1192TIP3    H125135   6.160   3.628   1.770  0.7425  0.7644 -0.5583
 1192TIP3    H225136   6.238   3.660   1.896 -0.9295  1.1463  0.4125
 1193TIP3   OH225137   2.861   4.728   5.757  0.1065  0.0524  0.1728
 1193TIP3    H125138   2.799   4.800   5.749 -1.4360 -1.3499 -1.1946
 1193TIP3    H225139   2.815   4.652   5.722  2.6279 -1.0463 -1.0400
 1194TIP3   OH225140   0.707   4.187   0.250 -0.2296 -0.2712  0.0673
 1194TIP3    H125141   0.702   4.159   0.341  0.4034  0.7562  0.4431
 1194TIP3    H225142   0.751   4.272   0.254 -2.0953  0.8156 -0.9759
 1195TIP3   OH225143   3.962   2.425   7.940 -0.1835  0.4160  0.0714
 1195TIP3    H125144   3.921   2.377   8.012 -0.8848  1.8606  0.6784
 1195TIP3    H225145   3.895   2.488   7.912  0.4725  0.6107 -1.1187
 1196TIP3   OH225146   1.118   3.511   1.707 -0.0122  0.0606 -0.5104
 1196TIP3    H125147   1.033   3.489   1.744 -0.4923 -1.1177 -2.2352
 1196TIP3    H225148   1.162   3.427   1.695  1.9375  0.7104  1.4900
 1197TIP3   OH225149   6.962   5.226   6.661  0.2786 -0.0124 -0.1864
 1197TIP3    H125150   7.056   5.239   6.673  0.6966 -1.2822 -1.7334
 1197TIP3    H225151   6.954   5.137   6.627 -1.4406  0.2540 -0.5864
 1198TIP3   OH225152   0.585   5.342   0.716 -0.7445 -0.3977 -0.5898
 1198TIP3    H125153   0.539   5.372   0.638  0.1744 -1.2684 -1.5041
 1198TIP3    H225154   0.671   5.384   0.710 -0.9870  0.3166  0.5043
 1199TIP3   OH225155   4.770   5.234   7.698 -0.3447 -0.4301  0.1333
 1199TIP3    H125156   4.707   5.266   7.634 -0.4882 -0.5480  0.2169
 1199TIP3    H225157   4.737   5.264   7.783  0.1882  0.2971  0.0993
 1200TIP3   OH225158   4.772   2.086   8.065  0.0186 -0.3562 -0.2940
 1200TIP3    H125159   4.768   2.095   8.160 -1.1716  0.7673 -0.4247
 1200TIP3    H225160   4.719   2.008   8.046 -2.3118  1.1188 -0.2138
 1201TIP3   OH225161   6.032   4.706   0.454 -0.1247 -0.3627 -0.0843
 1201TIP3    H125162   5.949   4.696   0.500  0.0557  3.1862  1.3947
 1201TIP3    H225163   6.091   4.644   0.496 -1.1323 -0.3282  1.4521
 1202TIP3   OH225164   0.616   1.682   8.148  0.0211  0.3210 -0.0099
 1202TIP3    H125165   0.551   1.666   8.079  2.0415 -1.6734 -1.5792
 1202TIP3    H225166   0.585   1.629   8.222 -0.2840 -0.4401 -0.6625
 1203TIP3   OH225167   5.045   3.792   1.972 -0.2985 -0.5223  1.0375
 1203TIP3    H125168   5.095   3.872   1.990 -0.1137 -0.0497 -1.2267
 1203TIP3    H225169   5.107   3.721   1.985  0.3654 -0.0821  0.3397
 1204TIP3   OH225170   2.078   2.913   7.484  0.4288 -0.0210  0.3933
 1204TIP3    H125171   2.075   2.898   7.579  0.5535  0.8851  0.5521
 1204TIP3    H225172   2.053   3.005   7.474  0.4808 -0.0941 -0.4520
 1205TIP3   OH225173   1.379   0.835   0.928  0.0370 -0.3742  0.3069
 1205TIP3    H125174   1.370   0.753   0.880 -1.5501  0.7049 -1.3974
 1205TIP3    H225175   1.347   0.816   1.016  0.7235 -1.8156  0.2635
 1206TIP3   OH225176   7.051   1.191   7.200  0.0231  0.0677 -0.3006
 1206TIP3    H125177   7.146   1.189   7.191  0.0523  1.4677 -0.5242
 1206TIP3    H225178   7.021   1.110   7.158  1.0544  0.0785 -1.0980
 1207TIP3   OH225179   3.018   2.705   6.662  0.0724 -0.3514  1.1589
 1207TIP3    H125180   2.953   2.652   6.616 -0.0112  1.3198 -0.8019
 1207TIP3    H225181   3.028   2.784   6.608  1.5741  0.7809  2.9412
 1208TIP3   OH225182   5.839   2.905   5.944 -0.0836  0.2201 -0.1401
 1208TIP3    H125183   5.865   2.911   6.036  0.4535 -0.5162 -0.2380
 1208TIP3    H225184   5.744   2.914   5.946  0.0582  2.1547  0.2991
 1209TIP3   OH225185   4.271   2.667   8.082  0.0959  0.3440 -0.3656
 1209TIP3    H125186   4.294   2.580   8.116 -1.8747 -0.8961 -1.9636
 1209TIP3    H225187   4.209   2.701   8.147 -0.1124 -0.0049 -0.3782
 1210TIP3   OH225188   5.430   0.567   1.661  0.2116 -0.3643  0.2457
 1210TIP3    H125189   5.499   0.624   1.628 -0.0333 -0.5342 -0.5794
 1210TIP3    H225190   5.461   0.478   1.643 -0.8127 -0.4264 -1.4147
 1211TIP3   OH225191   1.440   2.303   6.236 -0.4877  0.6460 -0.3822
 1211TIP3    H125192   1.367   2.324   6.178 -0.0954 -0.1192 -1.1814
 1211TIP3    H225193   1.507   2.267   6.178 -0.3216 -0.7611  0.6338
 1212TIP3   OH225194   3.348   5.649   6.423  0.3518 -0.4477 -0.3218
 1212TIP3    H125195   3.379   5.623   6.336 -1.4663 -1.5859 -0.6910
 1212TIP3    H225196   3.306   5.734   6.409  0.9588 -0.1483 -0.3426
 1213TIP3   OH225197   6.853   0.180   0.661 -0.7879 -0.1666 -0.1560
 1213TIP3    H125198   6.919   0.143   0.603  0.2909 -0.3000  1.1005
 1213TIP3    H225199   6.860   0.128   0.741 -1.6691  0.5270  0.3890
 1214TIP3   OH225200   1.981   4.245   6.986 -0.9925  0.0719  0.5584
 1214TIP3    H125201   1.947   4.169   6.939 -0.9260  0.6023 -0.3805
 1214TIP3    H225202   2.043   4.209   7.049  0.3089 -0.5563 -1.0014
 1215TIP3   OH225203   4.426   5.319   8.160 -0.3641  0.3159 -0.2661
 1215TIP3    H125204   4.380   5.255   8.107  0.0776 -0.0222 -0.2492
 1215TIP3    H225205   4.433   5.279   8.247 -3.3920  1.9090  0.8661
 1216TIP3   OH225206   1.797   4.246   0.747  0.4408 -0.6229  0.2405
 1216TIP3    H125207   1.823   4.159   0.778  0.6807 -1.0008 -0.9634
 1216TIP3    H225208   1.702   4.248   0.758  0.1388 -1.8660 -1.6116
 1217TIP3   OH225209   5.207   1.191   6.456  0.1646  0.0860  0.0624
 1217TIP3    H125210   5.270   1.248   6.501  0.7953 -0.1968 -0.4318
 1217TIP3    H225211   5.231   1.198   6.363  1.4674 -2.3765  0.1321
 1218TIP3   OH225212   3.563   2.937   7.212  0.4191 -0.2392 -0.5183
 1218TIP3    H125213   3.602   2.850   7.204  0.8806 -0.2217  1.1209
 1218TIP3    H225214   3.630   2.996   7.178  0.2893 -0.4783 -1.2075
 1219TIP3   OH225215   2.967   4.652   0.340  0.2294  0.2002  0.0683
 1219TIP3    H125216   3.034   4.638   0.273  0.5315  0.5598  0.2946
 1219TIP3    H225217   2.889   4.677   0.290  0.8102  1.7992 -0.0959
 1220TIP3   OH225218   4.762   3.118   6.589  0.0974  0.1506 -0.5349
 1220TIP3    H125219   4.747   3.187   6.525 -0.9066  0.2116 -0.2434
 1220TIP3    H225220   4.736   3.037   6.544 -0.2723  0.1517 -0.3223
 1221TIP3   OH225221   0.130   1.702   0.950 -0.0762 -0.4531 -0.2963
 1221TIP3    H125222   0.099   1.787   0.920 -1.5965  0.1464  2.6066
 1221TIP3    H225223   0.221   1.698   0.922 -0.0759  1.9472 -0.8486
 1222TIP3   OH225224   2.746   4.245   5.611  0.4607  0.1320  0.2481
 1222TIP3    H125225   2.807   4.173   5.628  0.9454 -0.0333 -1.9001
 1222TIP3    H225226   2.671   4.226   5.668  0.9202 -1.6251  0.3304
 1223TIP3   OH225227   5.111   5.855   1.080 -0.3142 -0.8400 -0.4617
 1223TIP3    H125228   5.043   5.789   1.068 -0.1779 -1.6767  2.4574
 1223TIP3    H225229   5.190   5.806   1.103  0.5264  0.2493 -0.8839
 1224TIP3   OH225230   2.853   1.831   7.411  0.2461  0.2073 -0.0573
 1224TIP3    H125231   2.813   1.751   7.377 -0.8499  0.6803  0.0910
 1224TIP3    H225232   2.931   1.844   7.357  0.3131 -0.8279 -0.2312
 1225TIP3   OH225233   3.221   6.934   6.600  0.7178 -0.1625 -0.1083
 1225TIP3    H125234   3.311   6.909   6.576 -0.4226 -3.8083 -1.3871
 1225TIP3    H225235   3.215   6.915   6.693  0.4172 -3.6422 -0.6946
 1226TIP3   OH225236   1.307   0.409   7.880 -0.0499  0.1109  0.2021
 1226TIP3    H125237   1.321   0.465   7.957 -2.9738 -1.8409  2.3818
 1226TIP3    H225238   1.217   0.379   7.889  0.7977 -3.5338 -1.7670
 1227TIP3   OH225239   6.450   2.090   0.896  0.1968  0.1918  0.0462
 1227TIP3    H125240   6.380   2.074   0.833 -1.7646  1.0422  1.8737
 1227TIP3    H225241   6.509   2.015   0.888 -2.9284 -2.6074  0.9862
 1228TIP3   OH225242   6.474   6.426   6.605  0.0230  0.0911  0.3679
 1228TIP3    H125243   6.481   6.486   6.531  0.2365  1.3375  1.3704
 1228TIP3    H225244   6.560   6.385   6.612 -0.7500 -2.1608 -1.7512
 1229TIP3   OH225245   4.561   6.837   7.814 -0.6098  0.1080 -0.2552
 1229TIP3    H125246   4.559   6.749   7.775  0.0805 -0.0260  0.0028
 1229TIP3    H225247   4.481   6.841   7.867 -0.0904 -0.7912  0.6326
 1230TIP3   OH225248   1.260   5.539   0.338  0.7231  0.5803 -0.5186
 1230TIP3    H125249   1.253   5.471   0.270 -0.2440  1.2736 -1.1445
 1230TIP3    H225250   1.174   5.541   0.379  1.5374 -0.4212  1.3641
 1231TIP3   OH225251   3.676   2.126   6.474 -0.5131  0.3605  0.0798
 1231TIP3    H125252   3.730   2.166   6.406 -0.5736  0.1913 -0.0665
 1231TIP3    H225253   3.698   2.175   6.554  0.8853 -0.6207  0.3154
 1232TIP3   OH225254   2.857   3.723   1.334 -0.0854 -0.4643 -0.3854
 1232TIP3    H125255   2.953   3.719   1.329 -0.0097  0.3772  0.2128
 1232TIP3    H225256   2.838   3.814   1.359 -1.0489 -0.5782 -0.6554
 1233TIP3   OH225257   0.946   2.643   8.268  0.0520 -0.6208  0.6194
 1233TIP3    H125258   0.979   2.701   8.200 -0.3904  0.4573  1.3054
 1233TIP3    H225259   0.980   2.556   8.244  0.6973 -0.0944 -0.4315
 1234TIP3   OH225260   1.386   5.131   0.895  0.0178  0.1992 -0.3847
 1234TIP3    H125261   1.290   5.134   0.887 -0.0868  1.6256  0.9437
 1234TIP3    H225262   1.416   5.211   0.853  0.5055  0.5087  0.5369
 1235TIP3   OH225263   3.468   0.219   1.056  0.1386  0.1350  0.3081
 1235TIP3    H125264   3.440   0.296   1.007  0.5197  0.8572  1.1876
 1235TIP3    H225265   3.481   0.251   1.146  3.5638 -0.1335  0.0444
 1236TIP3   OH225266   5.069   6.029   7.503 -0.2658 -0.2863  0.3783
 1236TIP3    H125267   5.049   6.116   7.537 -0.5256 -0.3405  0.3679
 1236TIP3    H225268   5.020   6.023   7.421 -1.7103 -1.1200  1.2722
 1237TIP3   OH225269   4.795   3.070   1.148 -0.0016  0.2880 -0.2124
 1237TIP3    H125270   4.783   3.075   1.242  0.1036  1.1311 -0.2359
 1237TIP3    H225271   4.869   3.010   1.136  0.5659  0.8727  0.2966
 1238TIP3   OH225272   5.724   4.037   0.096  0.2510 -0.6391 -0.1258
 1238TIP3    H125273   5.663   4.104   0.068 -2.3330 -1.8700  2.1657
 1238TIP3    H225274   5.696   3.958   0.049  1.5596 -0.7573 -0.7584
 1239TIP3   OH225275   4.342   5.022   2.000 -0.8897 -0.0519  0.0930
 1239TIP3    H125276   4.435   5.005   1.989 -1.0103 -0.2375 -0.6658
 1239TIP3    H225277   4.331   5.114   1.975 -0.6146  0.5411  2.0010
 1240TIP3   OH225278   1.430   1.515   1.419 -0.6609  0.2505  0.6727
 1240TIP3    H125279   1.382   1.492   1.498  0.5259 -0.4747  1.2209
 1240TIP3    H225280   1.368   1.501   1.348 -1.8117  1.1042  1.4749
 1241TIP3   OH225281   4.367   0.804   6.371  0.5090 -0.0535 -0.3404
 1241TIP3    H125282   4.400   0.873   6.428 -1.2816  0.4134  0.2001
 1241TIP3    H225283   4.420   0.811   6.292  1.0554  1.2632  0.1106
 1242TIP3   OH225284   1.634   1.347   7.473 -0.7670 -0.8115  0.0104
 1242TIP3    H125285   1.620   1.436   7.442 -2.1811 -0.1918  2.1891
 1242TIP3    H225286   1.555   1.325   7.523 -0.5095 -3.3458 -0.5288
 1243TIP3   OH225287   6.375   4.025   1.767 -0.3606 -0.1076 -0.6667
 1243TIP3    H125288   6.353   4.010   1.859  0.5328  0.0084 -0.4259
 1243TIP3    H225289   6.426   4.106   1.767 -1.9263  0.9461 -1.4976
 1244TIP3   OH225290   5.608   6.623   0.731  0.0405  0.3818 -0.3677
 1244TIP3    H125291   5.682   6.567   0.754  0.5254  0.6558 -1.2088
 1244TIP3    H225292   5.536   6.590   0.783  0.2124 -1.2901 -1.1143
 1245TIP3   OH225293   2.383   6.772   7.889  0.1685 -0.1606  0.3514
 1245TIP3    H125294   2.359   6.857   7.855 -3.6540 -0.9032  0.8194
 1245TIP3    H225295   2.401   6.719   7.812  0.8585  0.5663 -0.0048
 1246TIP3   OH225296   1.037   4.270   8.129 -0.1287 -0.0385  0.0449
 1246TIP3    H125297   1.056   4.234   8.215 -0.1950 -0.8975 -0.2860
 1246TIP3    H225298   1.092   4.348   8.122 -0.8511  0.6058  1.2410
 1247TIP3   OH225299   4.953   3.774   6.364  0.3842 -0.0892 -0.0142
 1247TIP3    H125300   5.026   3.750   6.421 -1.5595 -2.0668  1.8756
 1247TIP3    H225301   4.963   3.717   6.288  1.3928  0.4418 -0.2890
 1248TIP3   OH225302   1.868   3.750   0.744  0.0423 -0.2578 -0.0984
 1248TIP3    H125303   1.810   3.690   0.790  1.0282 -2.0528 -1.0894
 1248TIP3    H225304   1.947   3.753   0.796 -0.1628  0.5887  0.1882
 1249TIP3   OH225305   2.434   3.347   7.045 -0.4856 -0.4964  0.1793
 1249TIP3    H125306   2.380   3.409   6.995  1.1100  1.2238  0.4603
 1249TIP3    H225307   2.419   3.371   7.136  0.4221 -0.2728  0.2760
 1250TIP3   OH225308   3.422   0.085   7.256  0.1630  0.1031  0.6609
 1250TIP3    H125309   3.382   0.115   7.337 -3.5387  1.2031 -1.3357
 1250TIP3    H225310   3.438   0.165   7.206 -0.7908 -0.6599 -0.9575
 1251TIP3   OH225311   0.071   0.691   1.571 -0.2010  0.1376  0.6385
 1251TIP3    H125312   0.097   0.650   1.488 -1.3186  1.3880 -0.3587
 1251TIP3    H225313   0.102   0.629   1.638  0.1305 -1.2342 -0.7097
 1252TIP3   OH225314   4.097   6.577   6.799  0.0194  0.3164  0.0142
 1252TIP3    H125315   4.184   6.593   6.835  0.8468 -0.6798 -1.4386
 1252TIP3    H225316   4.095   6.627   6.718 -0.5477 -0.1387 -0.2603
 1253TIP3   OH225317   3.912   0.491   1.329  0.1176  0.3108  0.2144
 1253TIP3    H125318   3.907   0.562   1.393  0.3356 -0.2222  0.8228
 1253TIP3    H225319   3.933   0.536   1.247 -2.8336  1.3496 -0.1121
 1254TIP3   OH225320   2.772   0.048   7.418  0.1200 -0.0610  0.2960
 1254TIP3    H125321   2.739   0.108   7.352 -1.3056  0.1906  1.1803
 1254TIP3    H225322   2.852   0.088   7.450 -0.8358  1.4529  0.9203
 1255TIP3   OH225323   6.634   4.832   7.441 -0.0004 -0.5291  0.5825
 1255TIP3    H125324   6.707   4.892   7.455  0.0830 -0.8442  1.5685
 1255TIP3    H225325   6.559   4.874   7.484 -0.5787  0.0876 -0.9409
 1256TIP3   OH225326   6.549   2.182   1.362  0.2070 -0.5209  0.1278
 1256TIP3    H125327   6.543   2.199   1.268  1.8925 -2.0765 -0.3070
 1256TIP3    H225328   6.548   2.086   1.369 -1.4725 -0.4374  1.8498
 1257TIP3   OH225329   6.492   2.512   0.017 -0.0232  0.2553  0.4446
 1257TIP3    H125330   6.407   2.547   0.042 -1.2173 -0.9015 -1.7511
 1257TIP3    H225331   6.529   2.577  -0.042  0.2124  0.3298  0.6712
 1258TIP3   OH225332   6.838   4.907   0.866  0.1312 -0.2100 -0.4391
 1258TIP3    H125333   6.899   4.885   0.937  0.8621  1.0485 -0.6458
 1258TIP3    H225334   6.881   4.873   0.787  1.0672  1.4740 -0.7062
 1259TIP3   OH225335   1.582   4.380   1.082 -0.4603 -0.3656  0.5891
 1259TIP3    H125336   1.593   4.309   1.018 -0.5040 -0.3303  0.5415
 1259TIP3    H225337   1.527   4.444   1.036  0.7972  0.3861  0.0742
 1260TIP3   OH225338   6.243   6.001   8.201  0.8846 -0.1525  0.1146
 1260TIP3    H125339   6.167   6.040   8.244  1.1073 -0.3131  0.6651
 1260TIP3    H225340   6.311   6.067   8.208  0.1975  0.9043 -2.3373
 1261TIP3   OH225341   1.386   3.446   6.381 -0.2779 -0.0499 -0.2089
 1261TIP3    H125342   1.463   3.502   6.386 -0.5871  0.3184  0.5378
 1261TIP3    H225343   1.343   3.472   6.300 -1.5148  2.2599  1.1000
 1262TIP3   OH225344   2.512   5.572   7.315 -0.5300  0.3610 -0.5243
 1262TIP3    H125345   2.534   5.598   7.404 -4.1194 -1.7542  1.2036
 1262TIP3    H225346   2.592   5.589   7.264  0.6747  4.7603  2.2833
 1263TIP3   OH225347   5.282   6.793   6.663 -0.1009  0.1463  0.2215
 1263TIP3    H125348   5.276   6.724   6.729 -0.6267  0.7072  0.7648
 1263TIP3    H225349   5.192   6.826   6.655  0.1065  0.6097 -0.2101
 1264TIP3   OH225350   2.647   5.587   5.925  0.2540  0.1324 -0.2951
 1264TIP3    H125351   2.721   5.642   5.898 -0.6064  0.5960 -1.8302
 1264TIP3    H225352   2.585   5.594   5.853 -1.4789  0.0856  1.1365
 1265TIP3   OH225353   2.063   6.387   1.357  0.0377 -0.3783  0.1661
 1265TIP3    H125354   2.022   6.456   1.305 -2.0397 -0.7394  1.2133
 1265TIP3    H225355   2.094   6.431   1.435 -0.1156 -0.4084  0.2450
 1266TIP3   OH225356   4.000   3.682   0.211 -0.0870 -0.3743  0.4325
 1266TIP3    H125357   4.015   3.777   0.204  0.8179 -0.5768 -0.6453
 1266TIP3    H225358   3.946   3.672   0.289 -0.4684  1.0654  0.3856
 1267TIP3   OH225359   6.918   1.974   1.286  0.6317 -0.4396  0.6039
 1267TIP3    H125360   6.960   1.913   1.227 -1.1208 -1.2359  0.1274
 1267TIP3    H225361   6.875   2.038   1.229 -0.0057 -0.4810  1.0196
 1268TIP3   OH225362   6.527   3.104   0.158 -0.5825 -0.1351  0.3789
 1268TIP3    H125363   6.577   3.131   0.235  2.3662 -0.2565 -1.3230
 1268TIP3    H225364   6.557   3.015   0.140 -2.5781 -0.7885  0.0930
 1269TIP3   OH225365   6.228   3.260   6.042 -0.1311 -0.3346  0.4141
 1269TIP3    H125366   6.268   3.236   5.958 -2.0614 -2.7477  0.0499
 1269TIP3    H225367   6.260   3.193   6.102 -2.2623 -1.3674  0.4706
 1270TIP3   OH225368   6.303   0.081   1.874  0.0652 -0.1892 -0.2622
 1270TIP3    H125369   6.245   0.005   1.863 -1.0148  0.8357 -2.0049
 1270TIP3    H225370   6.357   0.058   1.949 -0.5945 -2.4620 -0.3929
 1271TIP3   OH225371   4.638   2.759   0.340 -0.0794 -0.8521  0.7431
 1271TIP3    H125372   4.643   2.706   0.261  1.1418 -0.9366  0.8501
 1271TIP3    H225373   4.726   2.754   0.378 -0.0162  0.9518  0.9464
 1272TIP3   OH225374   2.229   4.629   6.085 -0.0970  1.3291 -0.1831
 1272TIP3    H125375   2.258   4.628   5.994 -2.3496 -1.4263 -1.0142
 1272TIP3    H225376   2.291   4.572   6.131 -1.2886 -0.6774 -0.9500
 1273TIP3   OH225377   6.459   5.045   7.721  0.2702  0.2428 -0.4880
 1273TIP3    H125378   6.496   5.134   7.719 -1.5284  1.1859  2.2550
 1273TIP3    H225379   6.512   4.998   7.785  0.2260 -0.1752 -0.7533
 1274TIP3   OH225380   1.982   0.097   7.830 -0.3177  0.1273  0.5167
 1274TIP3    H125381   2.048   0.161   7.855 -0.5462  0.4673  0.2438
 1274TIP3    H225382   2.005   0.072   7.740 -1.5863  1.5745 -0.2568
 1275TIP3   OH225383   1.190   6.773   0.373  0.0915 -0.2098  0.3676
 1275TIP3    H125384   1.271   6.734   0.340 -0.5923 -0.1586 -1.4787
 1275TIP3    H225385   1.125   6.755   0.305 -0.4836  3.3180 -0.2297
 1276TIP3   OH225386   1.535   2.163   6.627 -1.2015  0.1263 -0.3954
 1276TIP3    H125387   1.462   2.137   6.572 -1.0889 -0.8741 -0.0893
 1276TIP3    H225388   1.601   2.094   6.615 -0.2099  1.1061 -0.8254
 1277TIP3   OH225389   0.356   1.467   0.398  0.2980 -0.3568  0.0326
 1277TIP3    H125390   0.318   1.402   0.339  0.5629 -1.3800  0.9700
 1277TIP3    H225391   0.448   1.474   0.370  0.0342  0.3679 -0.7027
 1278TIP3   OH225392   0.852   3.708   0.719  0.7331 -0.3737  0.2604
 1278TIP3    H125393   0.869   3.643   0.651  0.8520  0.2318 -0.2895
 1278TIP3    H225394   0.771   3.677   0.761  0.2367 -0.3535 -0.6431
 1279TIP3   OH225395   0.864   2.555   1.855 -0.6147  0.1660 -1.1027
 1279TIP3    H125396   0.827   2.568   1.942 -1.9500  1.3682 -1.8071
 1279TIP3    H225397   0.927   2.484   1.866  1.5650  2.2956  1.4737
 1280TIP3   OH225398   3.677   5.335   7.329 -0.2170  0.8709 -0.1783
 1280TIP3    H125399   3.689   5.359   7.237 -1.5600 -1.5297 -1.0631
 1280TIP3    H225400   3.740   5.265   7.345 -2.8039 -1.7700 -0.6759
 1281TIP3   OH225401   1.388   1.854   6.688  0.1275 -0.8651  0.2079
 1281TIP3    H125402   1.468   1.859   6.636 -0.7445  0.0167 -1.1182
 1281TIP3    H225403   1.350   1.769   6.665 -0.8544 -0.0015 -1.6079
 1282TIP3   OH225404   1.415   7.019   1.801 -0.4091 -0.0925  0.2598
 1282TIP3    H125405   1.394   6.947   1.860 -2.7911 -0.0034 -0.3758
 1282TIP3    H225406   1.503   7.047   1.827 -0.0504 -2.2010  1.5227
 1283TIP3   OH225407   2.560   6.360   0.598 -0.5032 -0.3060 -0.1959
 1283TIP3    H125408   2.622   6.394   0.533 -0.7814  0.8253  0.1075
 1283TIP3    H225409   2.478   6.349   0.550 -0.2895 -1.0355 -0.4078
 1284TIP3   OH225410   5.746   0.684   1.486  0.0203  0.9037  0.3419
 1284TIP3    H125411   5.705   0.705   1.570 -0.3972 -0.6226  0.5360
 1284TIP3    H225412   5.792   0.602   1.501 -0.8942  0.0750 -1.1764
 1285TIP3   OH225413   1.520   4.155   0.049 -0.8360 -0.0422 -0.1372
 1285TIP3    H125414   1.598   4.112   0.014 -0.2162  1.6226 -0.9289
 1285TIP3    H225415   1.491   4.098   0.120 -0.5339 -2.1335 -1.5919
 1286TIP3   OH225416   0.969   6.923   6.896  0.2484  0.7351 -0.0553
 1286TIP3    H125417   0.902   6.924   6.827 -0.8244  1.4690  0.9575
 1286TIP3    H225418   0.997   7.015   6.903 -1.1825  1.0915  1.8682
 1287TIP3   OH225419   4.357   3.235   2.182  0.3198 -0.5572  0.1592
 1287TIP3    H125420   4.301   3.296   2.133  0.2837 -0.6193  0.1231
 1287TIP3    H225421   4.446   3.258   2.156  0.2441 -1.5506 -1.0683
 1288TIP3   OH225422   6.354   2.518   0.471  0.5976  0.0288  0.0469
 1288TIP3    H125423   6.438   2.478   0.451  1.6354  2.6534 -1.2601
 1288TIP3    H225424   6.293   2.478   0.409  0.9857 -1.3648  0.5257
 1289TIP3   OH225425   3.609   5.326   6.949  0.3916  0.1113  0.2543
 1289TIP3    H125426   3.669   5.400   6.961  0.7959  0.3267 -2.5158
 1289TIP3    H225427   3.664   5.254   6.921 -0.3817 -0.2985 -0.2616
 1290TIP3   OH225428   0.594   3.020   1.961 -0.4597 -0.6811  0.5073
 1290TIP3    H125429   0.629   3.058   1.880 -0.8983  0.5503  0.8745
 1290TIP3    H225430   0.561   3.095   2.010  0.1551 -1.3559  2.0115
 1291TIP3   OH225431   0.596   0.532   7.602 -0.2893  0.2090 -0.1661
 1291TIP3    H125432   0.528   0.465   7.610 -0.4524  0.2714 -0.9838
 1291TIP3    H225433   0.604   0.548   7.508 -1.0028  2.1049  0.0384
 1292TIP3   OH225434   0.733   0.375   6.824 -0.0402  0.6496  0.7268
 1292TIP3    H125435   0.774   0.449   6.779  2.3006 -1.4918 -0.9682
 1292TIP3    H225436   0.753   0.300   6.769  1.0364 -1.8677  4.2057
 1293TIP3   OH225437   5.455   0.858   6.962 -1.0586 -0.3381  0.1461
 1293TIP3    H125438   5.538   0.815   6.942 -2.0774 -2.0957 -0.5394
 1293TIP3    H225439   5.448   0.851   7.058  0.3715  1.4430  0.4299
 1294TIP3   OH225440   1.884   5.147   5.848  0.4077  0.0129  0.0218
 1294TIP3    H125441   1.789   5.155   5.842  0.5572  2.1928 -0.5306
 1294TIP3    H225442   1.900   5.058   5.879 -1.7216 -1.0679 -1.7499
 1295TIP3   OH225443   0.737   6.306   6.340 -0.4160  0.3842  0.3850
 1295TIP3    H125444   0.754   6.361   6.264  0.0245  1.5228  1.2680
 1295TIP3    H225445   0.808   6.242   6.341 -0.2657  0.5462  0.0024
 1296TIP3   OH225446   1.913   2.924   1.501  0.6464  0.1802 -0.3500
 1296TIP3    H125447   1.860   2.996   1.538  1.5290  0.9933 -0.6252
 1296TIP3    H225448   1.911   2.856   1.569 -1.9744 -0.4532 -0.9605
 1297TIP3   OH225449   2.181   4.868   1.339  0.3158 -0.2676 -0.1265
 1297TIP3    H125450   2.252   4.860   1.403 -0.4244 -0.4941  0.6914
 1297TIP3    H225451   2.208   4.938   1.281  0.6167  0.5438  0.9745
 1298TIP3   OH225452   2.124   0.284   1.158  0.2280 -0.3411  0.8111
 1298TIP3    H125453   2.122   0.287   1.062  1.6019 -0.3776  0.7643
 1298TIP3    H225454   2.162   0.368   1.184  0.3400 -0.5394  1.3010
 1299TIP3   OH225455   4.714   2.051   0.377  0.4508  0.2650  0.2844
 1299TIP3    H125456   4.798   2.030   0.419  0.0724 -1.7673  0.1183
 1299TIP3    H225457   4.721   2.015   0.289 -1.0855 -1.2876  0.7335
 1300TIP3   OH225458   3.349   4.081   7.141  0.0956  0.2756 -0.2978
 1300TIP3    H125459   3.373   3.992   7.114 -0.8035 -0.4780  1.2463
 1300TIP3    H225460   3.419   4.107   7.200 -0.1037  0.2228 -0.0363
 1301TIP3   OH225461   6.121   2.971   0.991 -0.2546  0.6116 -0.1700
 1301TIP3    H125462   6.105   2.958   0.897  1.4320  0.1856 -0.4318
 1301TIP3    H225463   6.051   2.921   1.034 -0.2592 -0.3111 -1.1991
 1302TIP3   OH225464   1.422   2.297   7.756  0.2914 -0.0250 -0.0820
 1302TIP3    H125465   1.328   2.285   7.761  0.1568  0.7627 -0.6174
 1302TIP3    H225466   1.459   2.213   7.785 -0.5437  0.1862  1.7559
 1303TIP3   OH225467   5.529   3.237   0.983 -0.4332 -0.0981 -0.7032
 1303TIP3    H125468   5.545   3.315   0.929  0.0795 -0.7113 -1.4455
 1303TIP3    H225469   5.559   3.164   0.929 -1.8500 -0.9098 -0.4201
 1304TIP3   OH225470   2.715   5.982   0.064 -0.0791  0.0881 -0.6013
 1304TIP3    H125471   2.784   5.921   0.089 -0.1521  0.3947  0.3904
 1304TIP3    H225472   2.745   6.067   0.096 -0.9514  0.2055 -0.0546
 1305TIP3   OH225473   0.325   3.580   5.966  0.2017  0.1180 -0.0132
 1305TIP3    H125474   0.342   3.623   5.883  0.4160 -0.5619 -0.3306
 1305TIP3    H225475   0.365   3.494   5.957  0.1377 -0.0020  0.7559
 1306TIP3   OH225476   1.433   4.401   0.278  0.2403 -0.3051  0.5179
 1306TIP3    H125477   1.363   4.459   0.249 -0.8105 -1.3851  0.7850
 1306TIP3    H225478   1.404   4.314   0.251  1.9417 -0.6832 -0.1950
 1307TIP3   OH225479   0.174   0.579   1.346  0.9809 -0.2331  0.1778
 1307TIP3    H125480   0.230   0.615   1.277  0.8444 -0.4512 -0.0486
 1307TIP3    H225481   0.086   0.583   1.310  1.0442 -1.4901 -0.1588
 1308TIP3   OH225482   3.474   4.441   0.082  0.6819 -0.1478 -0.2675
 1308TIP3    H125483   3.494   4.349   0.099 -1.7255 -0.5472  0.9854
 1308TIP3    H225484   3.474   4.450  -0.013  0.1012 -1.6948 -0.4341
 1309TIP3   OH225485   0.647   0.870   1.355 -0.1575  0.2416 -0.0572
 1309TIP3    H125486   0.688   0.784   1.346  0.2362  0.4759 -0.5906
 1309TIP3    H225487   0.589   0.877   1.280 -0.0909  0.4922 -0.0875
 1310TIP3   OH225488   0.791   2.344   7.923 -0.0856  0.2139 -0.5596
 1310TIP3    H125489   0.801   2.313   8.013 -0.3688  0.4106 -0.4592
 1310TIP3    H225490   0.872   2.318   7.880 -0.5109 -1.0946 -0.6032
 1311TIP3   OH225491   4.256   0.745   6.108  0.1513  0.0969  0.6090
 1311TIP3    H125492   4.264   0.667   6.163 -1.2601 -1.0457 -0.6988
 1311TIP3    H225493   4.342   0.786   6.112  2.0887 -3.2864 -1.1866
 1312TIP3   OH225494   5.836   0.788   6.120 -0.3396 -0.0600  0.2528
 1312TIP3    H125495   5.752   0.769   6.162 -0.6777  1.1413  0.1524
 1312TIP3    H225496   5.902   0.760   6.184 -0.8272 -0.0085  0.7831
 1313TIP3   OH225497   6.160   1.181   8.222  0.2656  0.3850  0.1103
 1313TIP3    H125498   6.158   1.230   8.139 -0.2669  1.6657  0.8534
 1313TIP3    H225499   6.242   1.207   8.263  0.5110 -0.2199  0.0166
 1314TIP3   OH225500   6.828   2.505   0.091  0.1502  0.8921 -0.6710
 1314TIP3    H125501   6.812   2.483  -0.001  1.3349  1.3821 -1.0118
 1314TIP3    H225502   6.921   2.489   0.104 -0.3823 -1.2407  1.0600
 1315TIP3   OH225503   5.042   6.833   7.619 -0.3222 -0.0678  0.1623
 1315TIP3    H125504   4.988   6.761   7.652 -0.6191  0.9901  2.0993
 1315TIP3    H225505   5.128   6.818   7.658 -0.3638  0.5881  0.5084
 1316TIP3   OH225506   4.329   1.612   1.163  0.1990  0.0110  1.1765
 1316TIP3    H125507   4.357   1.566   1.242  1.3920  1.6351  1.7516
 1316TIP3    H225508   4.280   1.546   1.113  1.2349 -1.6582  2.2567
 1317TIP3   OH225509   0.934   4.021   1.916 -0.1899 -0.0424 -0.2222
 1317TIP3    H125510   0.931   3.943   1.971  0.5706  0.9021  1.2176
 1317TIP3    H225511   0.850   4.064   1.931 -0.0704  0.1031  0.0273
 1318TIP3   OH225512   2.831   3.823   8.107 -0.2878  0.0305  0.0398
 1318TIP3    H125513   2.776   3.857   8.037  0.5447 -1.3144 -1.3216
 1318TIP3    H225514   2.770   3.790   8.172 -1.1587 -1.8495 -1.6475
 1319TIP3   OH225515   5.075   6.201   1.996  0.4584 -0.0332 -0.1444
 1319TIP3    H125516   5.007   6.218   2.061  0.2522  1.0194 -0.6127
 1319TIP3    H225517   5.039   6.133   1.940  0.7166 -1.0989  0.9359
 1320TIP3   OH225518   4.659   2.532   7.803 -0.0505 -0.1920  0.4366
 1320TIP3    H125519   4.610   2.495   7.730 -0.8565  1.2282  0.2118
 1320TIP3    H225520   4.747   2.496   7.794 -0.0311  0.2506 -1.4727
 1321TIP3   OH225521   1.665   6.401   7.235 -0.0434 -1.0285 -0.0004
 1321TIP3    H125522   1.682   6.315   7.197  0.9578 -0.5044 -0.8154
 1321TIP3    H225523   1.745   6.450   7.218 -0.5188  0.0060  0.6410
 1322TIP3   OH225524   4.681   1.605   1.694 -0.0997 -0.2925  0.2996
 1322TIP3    H125525   4.660   1.659   1.618 -0.2551  0.3883  0.8181
 1322TIP3    H225526   4.635   1.647   1.767  0.8640 -0.3409  0.9569
 1323TIP3   OH225527   1.519   1.496   6.286 -0.4785  0.0051  0.0233
 1323TIP3    H125528   1.523   1.567   6.222  1.4383 -0.2425 -0.1855
 1323TIP3    H225529   1.560   1.422   6.242  1.5916  0.0341  1.7539
 1324TIP3   OH225530   0.159   6.661   7.620  0.8809 -0.3980  0.0526
 1324TIP3    H125531   0.235   6.603   7.624  0.3965 -1.0367  0.0517
 1324TIP3    H225532   0.187   6.732   7.562  1.5563 -0.5055  0.2337
 1325TIP3   OH225533   6.037   4.737   1.486  0.3114 -0.0208  0.1196
 1325TIP3    H125534   6.120   4.783   1.475 -0.0224  0.5611  0.0089
 1325TIP3    H225535   6.039   4.706   1.576  0.4593  0.3651  0.2500
 1326TIP3   OH225536   5.971   5.410   7.430 -0.5274 -0.7208  0.3402
 1326TIP3    H125537   6.055   5.367   7.445  1.0054  0.5015 -3.7329
 1326TIP3    H225538   5.973   5.487   7.487  0.8819 -0.9341  0.6085
 1327TIP3   OH225539   0.718   0.403   1.003 -0.4520  0.5199  0.0837
 1327TIP3    H125540   0.670   0.407   0.921 -0.6934  1.7592  0.2737
 1327TIP3    H225541   0.709   0.490   1.041  1.7102  0.7364  0.2500
 1328TIP3   OH225542   6.025   4.328   1.570 -0.0380 -0.1019 -0.2551
 1328TIP3    H125543   5.988   4.264   1.509 -1.8864  1.1260 -0.4947
 1328TIP3    H225544   6.036   4.407   1.518 -0.8247  0.7117  0.7821
 1329TIP3   OH225545   1.463   3.993   1.299 -0.1405 -0.5789 -0.0502
 1329TIP3    H125546   1.418   3.910   1.286  0.4494 -0.5226 -3.4846
 1329TIP3    H225547   1.549   3.980   1.258  0.5522  1.2449  0.7303
 1330TIP3   OH225548   5.383   2.856   0.433 -0.1833  0.0760 -0.0618
 1330TIP3    H125549   5.431   2.930   0.470  0.5838 -1.2131  1.6386
 1330TIP3    H225550   5.342   2.892   0.354  0.7476  2.1116  0.3040
 1331TIP3   OH225551   2.987   3.279   0.753  0.4645 -0.5581  0.3926
 1331TIP3    H125552   3.065   3.229   0.781  1.0915 -0.0375 -0.3899
 1331TIP3    H225553   3.022   3.348   0.697 -0.5988 -0.4903 -0.2069
 1332TIP3   OH225554   3.376   5.220   7.048 -0.3715 -0.5981 -0.1933
 1332TIP3    H125555   3.451   5.275   7.025 -0.0403  0.0239  2.1488
 1332TIP3    H225556   3.310   5.282   7.078 -2.0085 -1.1149 -2.4214
 1333TIP3   OH225557   5.617   1.449   1.673 -0.3236 -0.4693  0.2437
 1333TIP3    H125558   5.607   1.499   1.754  3.0700 -0.3951  0.7409
 1333TIP3    H225559   5.588   1.360   1.695  0.3666 -0.3945  1.5093
 1334TIP3   OH225560   3.528   5.777   6.995 -0.3326 -0.1867 -0.4170
 1334TIP3    H125561   3.480   5.818   7.067 -0.0345 -0.3755 -0.1135
 1334TIP3    H225562   3.511   5.834   6.920 -0.1674  0.3340 -0.0638
 1335TIP3   OH225563   4.985   1.258   1.918 -0.3007  0.4039 -0.5119
 1335TIP3    H125564   4.997   1.170   1.882  1.0576 -0.8275  2.6016
 1335TIP3    H225565   5.070   1.280   1.957 -1.2532  2.1302  0.7214
 1336TIP3   OH225566   0.395   1.673   2.165  0.2146  0.1414  0.4767
 1336TIP3    H125567   0.368   1.755   2.124 -1.9897  0.9960  3.3642
 1336TIP3    H225568   0.362   1.605   2.107 -2.7814  1.2824  0.6995
 1337TIP3   OH225569   1.480   4.672   2.479 -0.1716  0.4704  0.6026
 1337TIP3    H125570   1.427   4.593   2.482  0.8257 -0.3231 -1.1807
 1337TIP3    H225571   1.422   4.741   2.512 -1.5135 -0.7566  0.8962
 1338TIP3   OH225572   3.541   1.700   6.987 -0.7797  0.4833  0.2447
 1338TIP3    H125573   3.624   1.749   6.990  0.1343 -0.7296 -2.1415
 1338TIP3    H225574   3.489   1.747   6.922 -1.4225  0.4493  0.7314
 1339TIP3   OH225575   0.777   4.881   6.410 -0.4084  0.1039  0.0071
 1339TIP3    H125576   0.721   4.955   6.435 -0.3414  0.6416 -1.3634
 1339TIP3    H225577   0.717   4.806   6.407 -0.7599  0.3808  0.0236
 1340TIP3   OH225578   6.021   2.599   8.091 -0.3572  0.0900 -0.0579
 1340TIP3    H125579   6.063   2.516   8.069 -0.5848  0.4825 -2.1701
 1340TIP3    H225580   6.050   2.659   8.023 -2.0926  1.1061  0.0373
 1341TIP3   OH225581   1.172   0.979   6.376 -0.1199 -0.0495  0.4575
 1341TIP3    H125582   1.128   1.055   6.337 -1.5057 -1.1151 -0.1462
 1341TIP3    H225583   1.166   0.911   6.309 -0.6840 -1.2844  1.7069
 1342TIP3   OH225584   6.161   3.083   6.621 -0.3170 -0.0667 -0.5190
 1342TIP3    H125585   6.175   3.160   6.675 -2.5273 -0.6198  0.9819
 1342TIP3    H225586   6.141   3.013   6.683  1.9278 -2.0059 -1.7907
 1343TIP3   OH225587   6.968   0.734   6.630  0.2735 -0.0646  0.3145
 1343TIP3    H125588   7.026   0.759   6.559 -0.5381 -2.1623 -1.1846
 1343TIP3    H225589   7.009   0.657   6.669  0.6594  0.9886  2.1564
 1344TIP3   OH225590   4.991   6.529   0.764  0.0063  0.5899  0.8465
 1344TIP3    H125591   5.027   6.491   0.844 -1.5545 -0.2770  1.1941
 1344TIP3    H225592   4.939   6.604   0.795 -0.6418  0.2219  0.6682
 1345TIP3   OH225593   0.789   4.050   0.474 -0.1488 -0.5401 -0.2064
 1345TIP3    H125594   0.811   3.958   0.462  1.8239 -0.4417  1.8927
 1345TIP3    H225595   0.806   4.066   0.567  1.9477  2.4996 -0.9583
 1346TIP3   OH225596   2.282   2.614   7.926  0.1898 -0.4030 -0.3163
 1346TIP3    H125597   2.238   2.534   7.899 -1.3088  0.1470  0.3835
 1346TIP3    H225598   2.263   2.677   7.856  0.2810 -0.2917 -0.2424
 1347TIP3   OH225599   1.955   0.396   0.046  0.0719 -0.6231 -0.1716
 1347TIP3    H125600   1.951   0.451  -0.033  0.9951  0.7461  0.6809
 1347TIP3    H225601   1.981   0.310   0.014  1.3129  0.1225 -1.2986
 1348TIP3   OH225602   0.402   5.025   1.727  0.0683 -0.0120  0.3256
 1348TIP3    H125603   0.485   5.026   1.680 -0.5135 -0.8434 -0.7429
 1348TIP3    H225604   0.418   4.967   1.802 -0.0135 -1.5715 -0.8101
 1349TIP3   OH225605   1.236   0.600   2.145 -0.0913 -0.1544  0.1845
 1349TIP3    H125606   1.230   0.646   2.229 -0.2594 -0.4591  0.3412
 1349TIP3    H225607   1.146   0.596   2.113 -0.2398 -1.2751  0.6676
 1350TIP3   OH225608   2.026   0.314   1.583  0.3557 -0.2220  0.1544
 1350TIP3    H125609   1.961   0.285   1.647 -1.6453  1.8728 -0.7524
 1350TIP3    H225610   2.059   0.397   1.618  0.7853 -0.1120 -0.5008
 1351TIP3   OH225611   3.840   5.986   6.679  0.2238  0.0624 -0.6283
 1351TIP3    H125612   3.843   5.996   6.584  1.1738  0.9678 -0.5300
 1351TIP3    H225613   3.747   5.980   6.699  0.0421 -0.9989 -1.6824
 1352TIP3   OH225614   2.783   5.726   1.097  0.4514  0.5555  0.2004
 1352TIP3    H125615   2.855   5.685   1.144 -0.3071  0.7217  1.5469
 1352TIP3    H225616   2.757   5.801   1.151 -2.5742 -1.1093  1.3166
 1353TIP3   OH225617   0.428   1.480   7.957  0.2999 -0.5806  0.2871
 1353TIP3    H125618   0.492   1.451   7.893 -0.0546 -0.1495 -0.2716
 1353TIP3    H225619   0.343   1.457   7.919  0.1080 -0.9115  0.9003
 1354TIP3   OH225620   5.158   1.234   8.273  0.0444 -0.5036  0.1669
 1354TIP3    H125621   5.230   1.265   8.219 -0.7197 -1.1481 -1.2711
 1354TIP3    H225622   5.147   1.302   8.340  2.4513 -0.7461  0.9064
 1355TIP3   OH225623   3.817   5.386   6.420 -0.4883 -0.4185  0.3288
 1355TIP3    H125624   3.829   5.293   6.400 -1.6078 -0.5175  0.0475
 1355TIP3    H225625   3.751   5.387   6.490 -0.2833  0.1509  0.5198
 1356TIP3   OH225626   1.589   0.739   1.510 -0.0174 -0.5474  0.5085
 1356TIP3    H125627   1.501   0.713   1.483 -0.6460 -0.5034  2.3900
 1356TIP3    H225628   1.587   0.739   1.606  2.6028 -2.5058  0.6896
 1357TIP3   OH225629   3.769   0.298   5.400 -0.2968 -0.2394  0.1350
 1357TIP3    H125630   3.811   0.375   5.361  1.1824 -0.6657  0.7828
 1357TIP3    H225631   3.706   0.334   5.462  0.7943  0.4921  0.8587
 1358TIP3   OH225632   2.308   2.646   7.338 -0.3677 -0.5235 -0.7110
 1358TIP3    H125633   2.308   2.636   7.243  1.0552 -1.2189 -0.6727
 1358TIP3    H225634   2.392   2.689   7.357 -0.9501  0.2577  0.1850
 1359TIP3   OH225635   5.463   5.464   7.148 -0.1470  0.0265 -0.1700
 1359TIP3    H125636   5.407   5.532   7.184  3.2863  2.6551  0.7053
 1359TIP3    H225637   5.431   5.383   7.187 -0.3704  1.9645  4.2114
 1360TIP3   OH225638   5.824   6.707   7.305  1.0218 -0.4107 -0.2929
 1360TIP3    H125639   5.842   6.799   7.324  1.6450 -0.5184 -0.3171
 1360TIP3    H225640   5.911   6.668   7.297  0.7600 -0.8443 -1.0482
 1361TIP3   OH225641   4.521   2.525   1.555  0.0710 -0.7088  0.2820
 1361TIP3    H125642   4.474   2.444   1.573 -0.2819 -0.1064  2.3801
 1361TIP3    H225643   4.598   2.522   1.613  0.5606  0.0423 -0.3003
 1362TIP3   OH225644   6.165   3.967   8.222 -0.5149 -0.2053 -0.5599
 1362TIP3    H125645   6.087   4.004   8.182 -0.1386 -0.7096 -1.8031
 1362TIP3    H225646   6.234   4.032   8.208 -0.5483 -0.0578 -0.0632
 1363TIP3   OH225647   3.444   4.565   1.299 -0.1460  0.2750  0.0395
 1363TIP3    H125648   3.383   4.509   1.346  0.5159  0.4734  1.1803
 1363TIP3    H225649   3.505   4.596   1.367  0.7220  0.7271 -0.9184
 1364TIP3   OH225650   2.628   1.571   0.248  0.1830  0.2814 -0.0775
 1364TIP3    H125651   2.621   1.649   0.193  0.4507  0.9334  0.7955
 1364TIP3    H225652   2.632   1.605   0.337 -4.2612 -0.7988  0.7869
 1365TIP3   OH225653   2.293   0.555   0.226  0.2282 -0.0157 -0.3524
 1365TIP3    H125654   2.227   0.487   0.230  0.2966 -0.1971 -1.7851
 1365TIP3    H225655   2.288   0.589   0.136 -0.4840  2.5544  0.5565
 1366TIP3   OH225656   2.159   4.240   7.699  0.4459 -0.5700  0.2456
 1366TIP3    H125657   2.211   4.317   7.723 -0.3370  0.1443 -0.3146
 1366TIP3    H225658   2.068   4.269   7.706  0.1514 -0.8222 -1.8728
 1367TIP3   OH225659   3.237   5.672   7.871 -0.0592  0.0190 -0.4277
 1367TIP3    H125660   3.255   5.720   7.952  0.5728  0.7205 -0.9622
 1367TIP3    H225661   3.310   5.611   7.863 -1.3896 -1.8280  0.7869
 1368TIP3   OH225662   6.885   3.671   7.000 -0.7639 -0.2496  0.0801
 1368TIP3    H125663   6.862   3.764   6.997 -0.6650 -0.2244  0.0836
 1368TIP3    H225664   6.805   3.627   7.026 -0.4098 -0.0032  1.7118
 1369TIP3   OH225665   5.869   3.826   1.151 -0.0938 -0.9212 -0.1394
 1369TIP3    H125666   5.810   3.854   1.222  1.5050  1.9204  0.2212
 1369TIP3    H225667   5.954   3.814   1.193  0.2925 -1.9594 -1.1560
 1370TIP3   OH225668   3.495   3.011   6.307  0.4772 -0.2990  0.1920
 1370TIP3    H125669   3.491   3.040   6.398 -0.2543  1.2627 -0.3044
 1370TIP3    H225670   3.581   3.038   6.276  0.2472  0.3294  0.0759
 1371TIP3   OH225671   5.245   5.798   7.753  0.4524  0.2225  0.4128
 1371TIP3    H125672   5.264   5.792   7.660  0.5627  1.3123  0.3529
 1371TIP3    H225673   5.331   5.801   7.795  0.4273  1.2378  0.4248
 1372TIP3   OH225674   1.581   1.572   6.545 -0.5145 -0.0636 -0.0357
 1372TIP3    H125675   1.521   1.529   6.606 -2.6513 -0.0404 -1.9806
 1372TIP3    H225676   1.582   1.516   6.468  2.5049 -0.3481  0.0956
 1373TIP3   OH225677   0.611   6.328   0.360 -0.1032 -0.1990 -0.4982
 1373TIP3    H125678   0.672   6.269   0.404 -0.0301 -0.8285 -1.4172
 1373TIP3    H225679   0.525   6.302   0.393  0.0465  0.1161  0.1493
 1374TIP3   OH225680   5.788   1.525   1.494  0.6209 -0.1069  0.1926
 1374TIP3    H125681   5.731   1.475   1.552  1.3303 -0.8766  0.2508
 1374TIP3    H225682   5.808   1.605   1.544 -0.5297  0.2591  0.0920
 1375TIP3   OH225683   1.852   0.549   1.650  0.6337  0.2870 -0.2067
 1375TIP3    H125684   1.914   0.514   1.714  0.2365 -0.0053  0.0248
 1375TIP3    H225685   1.768   0.511   1.675  0.5872 -0.3938 -1.3314
 1376TIP3   OH225686   6.938   7.003   7.719 -0.3179 -0.6883 -0.3470
 1376TIP3    H125687   6.936   7.041   7.631 -1.2848 -0.4626 -0.2416
 1376TIP3    H225688   7.030   6.999   7.742 -0.1315  0.5126 -0.8354
 1377TIP3   OH225689   1.299   4.665   6.356  0.4208 -0.5041  0.2781
 1377TIP3    H125690   1.233   4.732   6.368  0.1511 -0.9716  1.7131
 1377TIP3    H225691   1.382   4.713   6.355  0.0811  0.2598 -3.1582
 1378TIP3   OH225692   4.977   4.253   0.605 -0.2255  0.5760 -0.9225
 1378TIP3    H125693   5.007   4.341   0.628 -0.8343  1.0747 -2.0352
 1378TIP3    H225694   5.056   4.209   0.574  0.2957  0.3798  0.5795
 1379TIP3   OH225695   6.414   6.583   5.857  0.2651  0.0878  0.1105
 1379TIP3    H125696   6.428   6.494   5.825  1.2072 -0.0727  0.9117
 1379TIP3    H225697   6.464   6.639   5.798  0.7794 -0.0604  0.3949
 1380TIP3   OH225698   3.345   1.421   6.461 -0.2728  0.4691 -0.1510
 1380TIP3    H125699   3.279   1.353   6.445  0.0389  0.7503 -3.4687
 1380TIP3    H225700   3.298   1.503   6.451  0.0777  0.7056  0.1317
 1381TIP3   OH225701   4.191   4.288   0.622  0.1585 -0.1763  0.0383
 1381TIP3    H125702   4.154   4.358   0.674 -0.9901  0.8438 -2.0174
 1381TIP3    H225703   4.284   4.287   0.646  0.2418  2.1464  0.0505
 1382TIP3   OH225704   6.174   5.392   1.422  0.3371  0.2940 -0.0575
 1382TIP3    H125705   6.189   5.419   1.512 -0.3192 -1.0874  0.4954
 1382TIP3    H225706   6.254   5.416   1.376  1.1614 -0.0495  1.1575
 1383TIP3   OH225707   5.999   4.208   0.476 -0.2239 -0.1010 -0.4275
 1383TIP3    H125708   5.911   4.172   0.464 -0.6751 -0.6368  3.3242
 1383TIP3    H225709   6.058   4.135   0.461 -0.8675 -1.3627  2.5126
 1384TIP3   OH225710   0.665   3.063   7.955  0.5552 -0.1737  0.1730
 1384TIP3    H125711   0.614   3.044   7.876 -0.8061  1.7044  0.5320
 1384TIP3    H225712   0.601   3.056   8.027 -0.0942  4.7175  0.4138
 1385TIP3   OH225713   6.838   6.175   0.633  0.2283 -0.2681  0.6027
 1385TIP3    H125714   6.874   6.261   0.611 -0.3963  0.4353  2.1593
 1385TIP3    H225715   6.794   6.146   0.554  1.0171  0.5355 -0.1565
 1386TIP3   OH225716   3.743   1.398   8.222  0.4185  0.1366 -0.2063
 1386TIP3    H125717   3.778   1.373   8.137  1.5531  0.4765  0.1345
 1386TIP3    H225718   3.750   1.494   8.223  0.6083  0.1194  0.3374
 1387TIP3   OH225719   3.290   2.206   7.786  0.1533  0.1363 -0.3045
 1387TIP3    H125720   3.368   2.257   7.764  0.5811 -0.8030 -1.0124
 1387TIP3    H225721   3.221   2.240   7.729 -0.3299  1.8639  1.2245
 1388TIP3   OH225722   5.218   3.568   7.064 -0.2746  0.6666 -0.6226
 1388TIP3    H125723   5.226   3.515   6.984  0.2451  1.3291 -1.0216
 1388TIP3    H225724   5.304   3.608   7.074 -0.3154  0.5330  0.3192
 1389TIP3   OH225725   5.276   4.776   1.672  0.2754  0.2302 -0.1308
 1389TIP3    H125726   5.345   4.757   1.609 -0.4262 -2.0168 -0.2931
 1389TIP3    H225727   5.287   4.711   1.741 -1.3379  0.1746  0.1263
 1390TIP3   OH225728   4.513   1.645   0.966  0.4217 -0.1075  0.1762
 1390TIP3    H125729   4.455   1.636   1.042 -0.2214  2.4189  0.0861
 1390TIP3    H225730   4.457   1.683   0.898  1.6960  0.4773 -0.5782
 1391TIP3   OH225731   2.785   5.790   6.579 -0.6747 -0.0529  0.3970
 1391TIP3    H125732   2.857   5.790   6.642 -0.8044 -1.8425  0.5957
 1391TIP3    H225733   2.706   5.790   6.634 -0.8372  1.0054  0.1861
 1392TIP3   OH225734   6.493   6.230   0.361  0.2405 -0.0541  0.0581
 1392TIP3    H125735   6.558   6.160   0.372  0.1305 -0.1531  0.0802
 1392TIP3    H225736   6.508   6.289   0.435 -0.2161 -0.4939  0.5143
 1393TIP3   OH225737   2.438   6.069   1.448 -0.3460  0.3480  0.4816
 1393TIP3    H125738   2.497   5.994   1.442 -1.1827 -0.6417  3.1475
 1393TIP3    H225739   2.493   6.141   1.478  0.1193  0.3563 -0.3686
 1394TIP3   OH225740   5.492   5.850   7.850  0.1941  0.3887 -0.4421
 1394TIP3    H125741   5.484   5.920   7.915  0.2644  0.2640 -0.2989
 1394TIP3    H225742   5.523   5.895   7.771 -1.5020  0.8126 -0.8992
 1395TIP3   OH225743   1.699   2.307   2.316 -0.1991  0.0799 -0.2714
 1395TIP3    H125744   1.616   2.271   2.285  0.3718 -0.4620 -1.2187
 1395TIP3    H225745   1.675   2.388   2.362 -1.2438 -0.0743 -0.5250
 1396TIP3   OH225746   2.814   2.522   7.863  0.3064  0.0652  0.3283
 1396TIP3    H125747   2.813   2.617   7.870 -1.2434  0.0118  1.4913
 1396TIP3    H225748   2.721   2.498   7.861  0.6774 -1.3974 -0.4617
 1397TIP3   OH225749   6.689   0.996   6.547 -0.1193  0.2331 -0.0627
 1397TIP3    H125750   6.666   1.049   6.471  0.9544  0.5711 -0.1691
 1397TIP3    H225751   6.759   0.938   6.516  0.5801  0.6230  0.7364
 1398TIP3   OH225752   3.448   1.584   0.135  0.2969 -0.0883  0.2790
 1398TIP3    H125753   3.541   1.590   0.155  0.3102  1.6921 -0.0972
 1398TIP3    H225754   3.443   1.584   0.040 -0.0914  0.1746  0.2951
 1399TIP3   OH225755   4.387   5.776   0.184 -0.1294 -0.2138 -0.2616
 1399TIP3    H125756   4.426   5.752   0.268  0.3802 -2.1225 -1.0040
 1399TIP3    H225757   4.461   5.801   0.130 -0.3290 -0.2567 -0.5535
 1400TIP3   OH225758   0.069   0.755   6.954 -0.0020  0.1405 -0.1194
 1400TIP3    H125759   0.083   0.678   6.898  1.1791  1.6465 -2.0073
 1400TIP3    H225760   0.144   0.755   7.013 -0.4745 -0.6236  0.5063
 1401TIP3   OH225761   6.376   4.111   1.328  0.2373  0.1448 -0.2315
 1401TIP3    H125762   6.436   4.168   1.280  1.6126 -0.2140  0.9931
 1401TIP3    H225763   6.349   4.163   1.404 -0.5224  0.0682 -0.4408
 1402TIP3   OH225764   2.203   3.839   0.206 -0.1655 -0.2035 -0.4070
 1402TIP3    H125765   2.214   3.843   0.111 -1.2884  2.5348 -0.5123
 1402TIP3    H225766   2.247   3.917   0.239  0.0559 -1.0161  1.3450
 1403TIP3   OH225767   2.237   5.049   1.119 -0.2159 -0.2801  0.1966
 1403TIP3    H125768   2.279   5.135   1.115  2.6306 -1.5644  0.3065
 1403TIP3    H225769   2.243   5.015   1.030 -1.5510 -0.2954  0.0988
 1404TIP3   OH225770   2.125   4.467   6.955  0.4010 -0.2590 -0.2754
 1404TIP3    H125771   2.083   4.381   6.952  0.6240 -0.3566 -0.5697
 1404TIP3    H225772   2.077   4.519   6.890  1.1940 -0.5765 -1.1264
 1405TIP3   OH225773   2.126   1.508   1.534 -0.4372  0.2727  0.3817
 1405TIP3    H125774   2.086   1.423   1.553 -0.6828  0.0149 -1.1282
 1405TIP3    H225775   2.181   1.526   1.610 -1.7415 -0.3941  1.5256
 1406TIP3   OH225776   1.077   4.899   6.334 -0.2489 -0.0360 -0.1459
 1406TIP3    H125777   0.986   4.926   6.331 -1.4890 -3.2965  2.2007
 1406TIP3    H225778   1.109   4.930   6.419  0.4085 -0.1011 -0.3598
 1407TIP3   OH225779   6.483   5.199   0.985  0.4736  0.8369 -0.1545
 1407TIP3    H125780   6.476   5.155   1.069  2.0810  0.2883 -0.2769
 1407TIP3    H225781   6.457   5.132   0.921 -1.1140  1.3642 -0.1118
 1408TIP3   OH225782   2.434   1.739   6.265 -0.8455 -0.4782 -0.3988
 1408TIP3    H125783   2.404   1.828   6.280  0.9100  0.3348 -1.4310
 1408TIP3    H225784   2.405   1.718   6.177  1.2999  0.2432 -1.3300
 1409TIP3   OH225785   3.485   3.018   6.959 -0.2871  0.2583 -0.2109
 1409TIP3    H125786   3.470   2.972   7.041 -0.8944 -0.4034 -0.6870
 1409TIP3    H225787   3.574   2.993   6.934  0.8495  2.3129  1.3986
 1410TIP3   OH225788   0.409   1.819   7.171  0.7846 -0.1086 -0.0522
 1410TIP3    H125789   0.377   1.793   7.257  0.5550 -0.5877 -0.2797
 1410TIP3    H225790   0.331   1.851   7.125  0.5056 -1.7266 -0.7755
 1411TIP3   OH225791   1.069   4.156   0.800  0.3385 -0.1483  0.3059
 1411TIP3    H125792   1.114   4.097   0.861 -1.3245  0.3108  2.0777
 1411TIP3    H225793   0.990   4.109   0.776 -0.1613  0.6470  0.3735
 1412TIP3   OH225794   6.194   4.237   0.739  0.3419  0.3830  0.5978
 1412TIP3    H125795   6.217   4.150   0.706 -1.8779 -0.3573  0.8394
 1412TIP3    H225796   6.202   4.229   0.834 -2.3387 -0.4080  0.8167
 1413TIP3   OH225797   2.479   0.544   7.777 -0.4131 -0.1846  0.2400
 1413TIP3    H125798   2.468   0.620   7.720 -1.3291  0.4996  1.2762
 1413TIP3    H225799   2.574   0.536   7.788 -0.3231  1.3991  0.8488
 1414TIP3   OH225800   0.342   4.278   7.311  0.3295 -0.2742 -0.1390
 1414TIP3    H125801   0.290   4.199   7.325 -2.2817  1.4090  0.2738
 1414TIP3    H225802   0.430   4.255   7.342 -0.0254 -3.3037 -1.0533
 1415TIP3   OH225803   1.926   4.406   0.559  0.3137 -0.1135  0.2041
 1415TIP3    H125804   1.996   4.341   0.570  0.4843  0.1843  0.9029
 1415TIP3    H225805   1.868   4.390   0.634 -0.0062  0.0869 -0.0039
 1416TIP3   OH225806   6.016   0.660   0.225 -0.1897  0.0658 -0.2093
 1416TIP3    H125807   6.062   0.720   0.284 -0.7353  0.2138  0.0698
 1416TIP3    H225808   6.072   0.582   0.223 -0.0686  0.1341  0.3523
 1417TIP3   OH225809   4.820   3.760   1.799 -0.0515 -0.1393  0.0365
 1417TIP3    H125810   4.898   3.776   1.850 -0.1524  0.3395  0.0466
 1417TIP3    H225811   4.754   3.733   1.863  0.0907 -0.5030  0.0326
 1418TIP3   OH225812   1.124   6.401   0.148  0.1988  0.4098  0.0667
 1418TIP3    H125813   1.218   6.401   0.167  0.3458  1.6447 -0.6293
 1418TIP3    H225814   1.118   6.369   0.058 -0.0618  0.2645  0.1351
 1419TIP3   OH225815   3.635   6.231   0.294  0.4951  0.0257 -0.0707
 1419TIP3    H125816   3.556   6.265   0.336  1.2290 -0.4063  1.7434
 1419TIP3    H225817   3.704   6.245   0.358  1.5814 -1.1434 -0.9354
 1420TIP3   OH225818   5.782   6.096   7.744 -0.4156 -0.8872 -0.8414
 1420TIP3    H125819   5.726   6.045   7.686 -0.9888 -1.4841  0.2142
 1420TIP3    H225820   5.842   6.032   7.783  0.5345 -0.3648 -1.3934
 1421TIP3   OH225821   0.732   2.136   7.530  0.1584 -0.7720  0.2447
 1421TIP3    H125822   0.707   2.069   7.467  1.6982 -0.3271 -0.9234
 1421TIP3    H225823   0.732   2.218   7.479 -0.8343 -0.0057  1.4178
 1422TIP3   OH225824   0.966   3.200   0.656  0.7666 -0.0644 -0.2614
 1422TIP3    H125825   0.989   3.261   0.586 -0.1147  1.9850  1.1417
 1422TIP3    H225826   1.020   3.227   0.730  0.4893 -1.1346  0.3479
 1423TIP3   OH225827   0.900   2.009   7.176  0.3954  0.5236 -0.1045
 1423TIP3    H125828   0.813   1.976   7.198  0.4080  0.7908  0.3615
 1423TIP3    H225829   0.944   2.019   7.261  1.1872 -0.4413 -0.3813
 1424TIP3   OH225830   1.543   3.199   1.013 -0.5312 -0.3807 -0.2435
 1424TIP3    H125831   1.565   3.276   0.962  0.8539 -1.3328 -1.1714
 1424TIP3    H225832   1.554   3.227   1.104 -0.4284  0.6179 -0.5503
 1425TIP3   OH225833   2.272   4.143   0.799  0.4327  0.3576 -0.0007
 1425TIP3    H125834   2.240   4.206   0.863 -0.4690 -0.3107  0.2325
 1425TIP3    H225835   2.358   4.117   0.831  0.2829  0.5446  0.5651
 1426TIP3   OH225836   5.519   5.478   6.235 -0.4806  0.1720 -0.2884
 1426TIP3    H125837   5.499   5.396   6.280 -1.5121  0.9780  0.7854
 1426TIP3    H225838   5.553   5.536   6.303 -0.1934  0.7901 -0.9365
 1427TIP3   OH225839   2.326   3.379   1.159  0.8719 -0.3840 -0.3259
 1427TIP3    H125840   2.294   3.320   1.091 -1.1238 -1.5956  1.5342
 1427TIP3    H225841   2.277   3.460   1.147 -0.6060 -1.1157  0.5278
 1428TIP3   OH225842   1.801   0.842   8.016  0.1972  0.4318  0.0122
 1428TIP3    H125843   1.770   0.754   7.994  1.7635 -0.2409  0.3795
 1428TIP3    H225844   1.721   0.896   8.016 -0.7767 -0.9505 -0.3269
 1429TIP3   OH225845   4.513   3.594   7.169  0.5988 -0.1085 -0.3330
 1429TIP3    H125846   4.423   3.628   7.163  0.3615 -0.7556 -0.5190
 1429TIP3    H225847   4.567   3.672   7.183 -0.0343  0.2428  0.2014
 1430TIP3   OH225848   0.568   4.347   8.084 -0.0600 -0.3175 -0.5345
 1430TIP3    H125849   0.527   4.367   8.168 -2.5047 -1.5545 -1.3155
 1430TIP3    H225850   0.637   4.412   8.074 -1.9239  2.0453  0.8870
 1431TIP3   OH225851   2.472   2.768   7.777 -0.3904  0.1218 -0.5746
 1431TIP3    H125852   2.482   2.772   7.872 -1.2801 -1.0522 -0.4014
 1431TIP3    H225853   2.492   2.857   7.746 -0.6515  0.6627  0.7664
 1432TIP3   OH225854   0.104   5.849   6.662  0.7887  0.1635  0.0382
 1432TIP3    H125855   0.114   5.927   6.608 -1.0320  0.2489 -0.2534
 1432TIP3    H225856   0.172   5.789   6.630 -1.2468 -0.4916 -3.7275
 1433TIP3   OH225857   4.965   0.134   7.471 -0.1208  0.7139  0.5982
 1433TIP3    H125858   4.975   0.045   7.439 -0.2768  0.6522  0.7213
 1433TIP3    H225859   4.923   0.125   7.556 -2.5269  1.0260 -0.4676
 1434TIP3   OH225860   5.191   1.981   7.684 -0.1787 -0.3380  0.5862
 1434TIP3    H125861   5.164   2.009   7.596  4.1952  1.1813 -0.5328
 1434TIP3    H225862   5.174   1.886   7.684 -4.7175  0.2663  0.1002
 1435TIP3   OH225863   0.114   5.577   7.476 -0.6461 -0.2851  0.4398
 1435TIP3    H125864   0.087   5.600   7.387 -2.0375  0.4998  1.0222
 1435TIP3    H225865   0.177   5.645   7.500  1.8486 -1.9966 -0.8483
 1436TIP3   OH225866   6.693   5.595   7.652 -0.4888  0.0697  0.3077
 1436TIP3    H125867   6.656   5.681   7.634  1.4959  1.3973  2.0653
 1436TIP3    H225868   6.786   5.611   7.665 -0.4262 -1.8616  3.2724
 1437TIP3   OH225869   3.386   5.737   1.616 -0.4040 -0.3472 -0.1736
 1437TIP3    H125870   3.334   5.774   1.545 -0.6373 -0.9652 -0.3339
 1437TIP3    H225871   3.477   5.741   1.584 -0.6204 -1.7093 -1.0152
 1438TIP3   OH225872   6.553   6.619   8.275  0.6507  0.1867 -0.0063
 1438TIP3    H125873   6.506   6.578   8.348 -0.4944 -0.0413 -0.8363
 1438TIP3    H225874   6.484   6.657   8.221  1.2634 -1.4892 -2.1018
 1439TIP3   OH225875   4.760   4.371   1.681 -0.1938  0.2455  0.6393
 1439TIP3    H125876   4.769   4.332   1.767  0.7312 -2.4624 -0.5772
 1439TIP3    H225877   4.672   4.346   1.652  0.5542 -1.4188 -0.3137
 1440TIP3   OH225878   3.679   0.104   0.572  0.1064 -0.6278 -0.2821
 1440TIP3    H125879   3.616   0.093   0.644  0.5817 -1.0908  0.0707
 1440TIP3    H225880   3.721   0.188   0.589  0.8925 -1.1714  0.5218
 1441TIP3   OH225881   3.773   1.680   8.253  0.0098  0.1724 -0.5701
 1441TIP3    H125882   3.736   1.706   8.168 -0.6640  1.5972  0.1264
 1441TIP3    H225883   3.829   1.754   8.277 -2.1434  1.2208  1.5957
 1442TIP3   OH225884   6.993   3.326   0.347  0.1824 -0.0269  0.0710
 1442TIP3    H125885   6.915   3.272   0.334  0.2217  0.2280 -1.4137
 1442TIP3    H225886   7.036   3.327   0.261 -0.5652  3.5440 -0.4324
 1443TIP3   OH225887   5.208   3.342   1.956  0.1685  0.0823 -0.7195
 1443TIP3    H125888   5.171   3.260   1.991 -0.0849 -0.2127 -1.6301
 1443TIP3    H225889   5.270   3.313   1.890 -0.0904  0.6307 -1.2096
 1444TIP3   OH225890   6.167   6.483   0.081 -0.1881  0.5730  0.5715
 1444TIP3    H125891   6.150   6.520   0.167  1.8054  1.5826  0.5975
 1444TIP3    H225892   6.214   6.552   0.034  0.1209 -0.5111 -0.7781
 1445TIP3   OH225893   4.556   5.264   0.703  0.0360  0.3081  0.0958
 1445TIP3    H125894   4.465   5.245   0.681 -0.2827  0.6556  1.0432
 1445TIP3    H225895   4.575   5.206   0.777  0.9755 -0.6278 -0.8531
 1446TIP3   OH225896   4.719   2.882   1.539 -0.9322  0.6009 -0.1719
 1446TIP3    H125897   4.751   2.806   1.587 -2.7654 -0.9769 -1.3206
 1446TIP3    H225898   4.783   2.951   1.558  1.5814 -1.5761 -0.1981
 1447TIP3   OH225899   0.346   0.348   1.624  0.2592  0.0607 -0.2212
 1447TIP3    H125900   0.341   0.318   1.534 -1.0865 -1.5971  0.3377
 1447TIP3    H225901   0.400   0.283   1.669  1.5336  1.2639  0.0578
 1448TIP3   OH225902   6.996   4.659   1.047  0.2688 -0.2995 -0.4875
 1448TIP3    H125903   6.904   4.640   1.031  0.2758 -1.8920  0.9800
 1448TIP3    H225904   6.996   4.732   1.109 -0.1688 -1.9052  1.5251
 1449TIP3   OH225905   1.949   5.852   7.259 -0.1678 -0.2670 -0.1456
 1449TIP3    H125906   1.858   5.864   7.285  0.3284 -0.5506  1.8466
 1449TIP3    H225907   2.001   5.884   7.333  1.3191 -1.6600 -0.5075
 1450TIP3   OH225908   0.634   5.992   8.054 -0.4829  0.0407 -0.0527
 1450TIP3    H125909   0.708   5.945   8.093  0.7028 -0.4384 -2.6130
 1450TIP3    H225910   0.583   5.924   8.009 -0.1827  0.8239 -1.6591
 1451TIP3   OH225911   0.022   1.647   0.319  0.7772 -0.1946  0.1801
 1451TIP3    H125912   0.087   1.672   0.253  1.0682 -0.4010  0.3857
 1451TIP3    H225913   0.072   1.595   0.383  0.2581 -1.0093 -0.0606
 1452TIP3   OH225914   5.712   4.512   6.979 -0.0118 -0.5272  0.5392
 1452TIP3    H125915   5.737   4.600   6.953 -2.0071 -0.5653 -1.8200
 1452TIP3    H225916   5.681   4.521   7.069  0.0658  1.1027  0.4193
 1453TIP3   OH225917   5.792   0.717   6.477 -0.1939 -0.0593 -0.1144
 1453TIP3    H125918   5.739   0.687   6.403 -0.5275 -1.2465  0.5782
 1453TIP3    H225919   5.879   0.733   6.439 -0.6238  0.3873 -0.9552
 1454TIP3   OH225920   5.202   1.693   7.700 -0.1354 -0.3092  0.2635
 1454TIP3    H125921   5.226   1.634   7.772 -2.5427 -0.4116  1.0737
 1454TIP3    H225922   5.156   1.636   7.638 -0.3166  0.2617 -0.1285
 1455TIP3   OH225923   6.211   4.413   0.273 -0.0820  0.1518 -0.0603
 1455TIP3    H125924   6.270   4.489   0.272  0.9364 -0.5996  0.6633
 1455TIP3    H225925   6.124   4.451   0.263  0.5315  1.2691 -1.7218
 1456TIP3   OH225926   0.868   6.419   6.942  0.1942 -0.4747 -0.5034
 1456TIP3    H125927   0.903   6.490   6.888 -0.9668  1.1923  0.8265
 1456TIP3    H225928   0.943   6.390   6.995  0.1020  1.8024  1.0068
 1457TIP3   OH225929   3.580   3.975   6.935  0.2545 -0.3776  0.5011
 1457TIP3    H125930   3.588   4.060   6.979  0.4253  0.7746 -1.6482
 1457TIP3    H225931   3.627   3.986   6.852  1.9398 -3.1811  0.9496
 1458TIP3   OH225932   4.498   2.919   0.491 -0.9619 -0.3212 -0.1771
 1458TIP3    H125933   4.547   2.864   0.430 -0.5239 -0.1642  0.0232
 1458TIP3    H225934   4.548   2.914   0.573 -1.3042 -0.1867  0.0416
 1459TIP3   OH225935   2.664   3.193   8.081 -0.5863  0.6673 -0.3443
 1459TIP3    H125936   2.687   3.168   8.171  0.1512 -1.8370 -1.1295
 1459TIP3    H225937   2.709   3.276   8.066  1.4504 -0.1665  0.7781
 1460TIP3   OH225938   5.318   1.385   1.561 -0.0619 -0.1792  0.4694
 1460TIP3    H125939   5.385   1.317   1.564  0.0115 -0.1398 -0.1026
 1460TIP3    H225940   5.355   1.453   1.505 -1.3626 -1.0536 -1.5932
 1461TIP3   OH225941   5.866   5.770   7.501  0.2956  0.3508 -0.0746
 1461TIP3    H125942   5.839   5.775   7.410  1.2283 -3.1650 -0.6998
 1461TIP3    H225943   5.959   5.794   7.499  1.0967 -2.4620 -0.6630
 1462TIP3   OH225944   5.327   4.448   1.813 -0.1116 -0.2291 -0.4083
 1462TIP3    H125945   5.380   4.369   1.822 -1.7506 -1.2635  0.6584
 1462TIP3    H225946   5.357   4.505   1.883 -0.4207 -0.8125  0.2019
 1463TIP3   OH225947   6.011   4.228   1.128  0.0715 -0.2104  0.3662
 1463TIP3    H125948   6.036   4.320   1.123 -1.9802  0.3778 -0.0562
 1463TIP3    H225949   5.938   4.227   1.190 -0.7303 -1.3546 -0.5712
 1464TIP3   OH225950   6.987   6.853   0.695 -1.1111 -0.1937  0.9567
 1464TIP3    H125951   7.029   6.937   0.677  2.1085 -1.8742 -0.2457
 1464TIP3    H225952   6.951   6.826   0.610 -0.7664 -0.6643  0.9536
 1465TIP3   OH225953   2.650   5.843   0.886  0.4139  0.2346  0.0856
 1465TIP3    H125954   2.614   5.912   0.942 -0.7322  0.0010 -0.3299
 1465TIP3    H225955   2.688   5.780   0.948  1.0913  1.0201  0.4833
 1466TIP3   OH225956   0.682   0.242   7.811 -0.1528 -0.0845 -0.6139
 1466TIP3    H125957   0.650   0.230   7.722  0.1486  2.8167 -1.1958
 1466TIP3    H225958   0.771   0.204   7.809 -1.5036 -3.6563 -0.3247
 1467TIP3   OH225959   6.055   1.905   7.862 -0.0664 -0.0486 -0.3133
 1467TIP3    H125960   6.148   1.930   7.863  0.5148 -2.0443 -0.5639
 1467TIP3    H225961   6.016   1.961   7.795  0.9366  0.8045 -0.2205
 1468TIP3   OH225962   2.330   4.675   6.990  0.0686  0.6056  0.6920
 1468TIP3    H125963   2.323   4.709   6.901 -0.7695  1.2246  0.9782
 1468TIP3    H225964   2.267   4.603   6.994  1.7095 -0.9379  0.1420
 1469TIP3   OH225965   4.430   3.959   6.369  0.5642 -0.1716  0.3622
 1469TIP3    H125966   4.370   3.891   6.340  0.4036 -0.3080  0.9819
 1469TIP3    H225967   4.467   3.996   6.289  0.6196 -0.9547  0.0249
 1470TIP3   OH225968   1.138   6.178   7.966  0.3602  0.1914  0.6105
 1470TIP3    H125969   1.233   6.191   7.965  0.5766 -0.4453  3.3195
 1470TIP3    H225970   1.127   6.084   7.955  0.1715  0.0744  1.6818
 1471TIP3   OH225971   2.866   1.878   6.667 -0.0338  0.4271  0.6576
 1471TIP3    H125972   2.915   1.849   6.590 -1.2164  0.1942 -0.0435
 1471TIP3    H225973   2.828   1.962   6.640 -1.3928 -0.1923  0.5425
 1472TIP3   OH225974   6.222   1.485   0.621 -0.4889 -0.3183  0.0596
 1472TIP3    H125975   6.128   1.497   0.610 -0.5048  2.9700  2.2503
 1472TIP3    H225976   6.261   1.539   0.552 -0.3176  0.4779  0.7502
 1473TIP3   OH225977   0.003   0.539   6.773  0.3266  0.4627 -0.3526
 1473TIP3    H125978  -0.092   0.530   6.779 -0.0137  1.5957 -2.9172
 1473TIP3    H225979   0.036   0.452   6.796 -1.4590 -0.5466 -1.3916
 1474TIP3   OH225980   1.524   3.687   6.736  0.4563 -0.0352 -0.5246
 1474TIP3    H125981   1.594   3.722   6.680  0.3120 -0.6830 -1.1197
 1474TIP3    H225982   1.567   3.621   6.790  0.3451 -0.3166 -0.7754
 1475TIP3   OH225983   4.642   6.833   6.308  0.4306  0.8619 -0.0025
 1475TIP3    H125984   4.628   6.928   6.312  1.5230  1.0442  0.0390
 1475TIP3    H225985   4.736   6.823   6.327  0.7800 -0.0829 -1.9828
 1476TIP3   OH225986   5.139   2.626   0.346  0.5778  0.2341 -0.9870
 1476TIP3    H125987   5.207   2.685   0.313  1.5569  0.0593  0.6380
 1476TIP3    H225988   5.172   2.596   0.430 -1.6978  0.4332  0.0337
 1477TIP3   OH225989   5.867   4.925   2.181 -0.0810 -0.0076 -0.1625
 1477TIP3    H125990   5.932   4.878   2.129  1.6931  0.7387  1.2605
 1477TIP3    H225991   5.811   4.857   2.218  1.7246 -0.9605  0.9246
 1478TIP3   OH225992   2.305   5.920   1.052  0.0909  0.1282 -0.0033
 1478TIP3    H125993   2.345   5.985   0.994  0.1984  0.0571 -0.0084
 1478TIP3    H225994   2.377   5.886   1.104 -0.1039  0.6687  0.6405
 1479TIP3   OH225995   5.901   3.465   0.130 -0.2228  0.2303  0.0870
 1479TIP3    H125996   5.962   3.479   0.203  0.9437  1.1257 -1.0129
 1479TIP3    H225997   5.823   3.516   0.155 -0.4740 -0.7520  1.4081
 1480TIP3   OH225998   5.125   5.624   0.721 -0.1433  0.0034 -0.2045
 1480TIP3    H125999   5.194   5.566   0.754  1.5206  1.6102 -0.6455
 1480TIP3    H226000   5.046   5.598   0.768  1.2413 -0.4970  1.9656
 1481TIP3   OH226001   4.407   2.127   7.297 -0.2826 -1.1434  0.2504
 1481TIP3    H126002   4.325   2.086   7.267 -0.4586  0.5867 -1.8724
 1481TIP3    H226003   4.473   2.099   7.234 -0.1403  0.7043 -0.4777
 1482TIP3   OH226004   5.522   1.782   0.864  0.2591  0.3414  0.0652
 1482TIP3    H126005   5.514   1.710   0.927  0.1165  0.7596  0.5289
 1482TIP3    H226006   5.433   1.792   0.829  0.8628 -1.9100 -2.5006
 1483TIP3   OH226007   6.814   1.268   7.645  0.1949  0.1402  0.1984
 1483TIP3    H126008   6.728   1.282   7.686  0.6057  0.4861  0.9675
 1483TIP3    H226009   6.794   1.228   7.561 -0.7190  0.1013  0.4207
 1484TIP3   OH226010   4.822   6.131   1.319 -0.1931  0.1915  0.1375
 1484TIP3    H126011   4.801   6.173   1.402 -3.1982 -0.8632  0.0447
 1484TIP3    H226012   4.910   6.094   1.332 -0.8413 -0.5585  3.1112
 1485TIP3   OH226013   0.816   1.761   6.854  0.3285 -0.1079  0.2241
 1485TIP3    H126014   0.815   1.743   6.948 -0.5879 -1.0190  0.0499
 1485TIP3    H226015   0.743   1.711   6.819  0.6112  0.2890 -0.9724
 1486TIP3   OH226016   1.792   0.742   0.014 -0.5583  0.6102 -0.4111
 1486TIP3    H126017   1.778   0.816  -0.045 -0.8951  0.4886 -0.4881
 1486TIP3    H226018   1.884   0.747   0.039 -0.3777  0.5782 -1.0663
 1487TIP3   OH226019   0.934   6.734   7.172  0.2347 -0.7959  0.5592
 1487TIP3    H126020   0.998   6.663   7.177  1.5812  0.3837  0.6360
 1487TIP3    H226021   0.906   6.747   7.263  1.8824  0.4031  0.9433
 1488TIP3   OH226022   0.095   2.668   6.315 -0.5404 -0.0016 -0.1644
 1488TIP3    H126023   0.131   2.715   6.240 -0.0647 -1.3351 -0.8087
 1488TIP3    H226024   0.107   2.575   6.293 -0.2834 -0.4282  1.6119
 1489TIP3   OH226025   4.158   4.551   7.977  0.0657 -0.1360 -0.4574
 1489TIP3    H126026   4.106   4.621   7.937  0.0770 -0.6555 -1.4124
 1489TIP3    H226027   4.107   4.472   7.962 -0.4200 -0.2390  1.4677
 1490TIP3   OH226028   0.534   1.490   6.963  0.0902  0.1783 -0.4949
 1490TIP3    H126029   0.570   1.410   7.002 -0.5811 -0.4088 -1.0342
 1490TIP3    H226030   0.441   1.489   6.988 -0.8190 -1.1285 -3.3608
 1491TIP3   OH226031   6.923   2.159   7.942  0.2692  0.1448  0.1978
 1491TIP3    H126032   6.890   2.069   7.939  0.4359  0.1039 -0.6438
 1491TIP3    H226033   6.844   2.213   7.948  0.1537 -0.0400  0.3734
 1492TIP3   OH226034   5.553   4.309   1.429 -0.3840 -0.1085 -0.1574
 1492TIP3    H126035   5.515   4.315   1.342  0.0053  0.1779 -0.3085
 1492TIP3    H226036   5.537   4.218   1.456  0.1568 -0.4137 -0.8338
 1493TIP3   OH226037   1.662   6.325   8.072  0.0300 -0.7013 -0.0159
 1493TIP3    H126038   1.713   6.244   8.070  1.3954  0.1263 -0.7815
 1493TIP3    H226039   1.654   6.345   8.165  0.8044 -1.0668  0.1441
 1494TIP3   OH226040   4.215   1.798   0.292  0.1711  0.4687 -0.5786
 1494TIP3    H126041   4.227   1.707   0.266  1.0464  0.5338 -0.4147
 1494TIP3    H226042   4.302   1.837   0.287  0.4660  0.4621  2.5658
 1495TIP3   OH226043   5.567   4.984   0.811 -0.2878  0.0875 -0.4228
 1495TIP3    H126044   5.537   4.893   0.803 -1.1193  0.4056 -1.0340
 1495TIP3    H226045   5.505   5.035   0.759  0.3303  0.9818 -0.3132
 1496TIP3   OH226046   4.033   5.905   8.243 -0.3235  0.2224  0.1390
 1496TIP3    H126047   4.026   5.957   8.162  2.5441  1.7763  0.7407
 1496TIP3    H226048   4.091   5.833   8.219 -0.8984 -0.3260  0.3866
 1497TIP3   OH226049   3.536   0.960   6.475  0.0949  0.2340  0.8116
 1497TIP3    H126050   3.556   0.866   6.480 -0.7628  0.0438  0.8210
 1497TIP3    H226051   3.542   0.990   6.566  0.3291  0.1849  0.8139
 1498TIP3   OH226052   6.231   4.887   7.744 -0.0550 -0.0950  0.1724
 1498TIP3    H126053   6.289   4.963   7.755  0.3097 -0.6542  2.9073
 1498TIP3    H226054   6.144   4.925   7.734  0.5645  0.7324 -3.1426
 1499TIP3   OH226055   0.638   6.986   6.875 -0.0560  0.1429 -0.2251
 1499TIP3    H126056   0.683   6.910   6.838 -1.0708 -0.3492 -0.4747
 1499TIP3    H226057   0.660   7.058   6.816  1.6944  0.2972  0.5319
 1500TIP3   OH226058   3.196   2.555   1.196 -0.1348  0.4883 -0.3261
 1500TIP3    H126059   3.228   2.500   1.267  0.6407  0.0145 -1.0132
 1500TIP3    H226060   3.112   2.516   1.171  0.2845 -0.2523 -0.6295
 1501TIP3   OH226061   5.380   1.483   7.415 -0.1937 -0.6274  0.2887
 1501TIP3    H126062   5.453   1.457   7.358  0.6323 -0.3507  1.1863
 1501TIP3    H226063   5.360   1.572   7.388  1.7671  0.3952  1.9070
 1502TIP3   OH226064   3.268   5.990   5.937  0.4033  0.7147  0.6540
 1502TIP3    H126065   3.286   5.902   5.969  1.2200  1.2788  1.7969
 1502TIP3    H226066   3.352   6.034   5.939  0.3562  1.0459 -1.5547
 1503TIP3   OH226067   5.028   5.133   7.212  0.9970  0.1320  0.0607
 1503TIP3    H126068   5.119   5.103   7.216  0.6006 -1.0779  0.3850
 1503TIP3    H226069   4.981   5.075   7.272 -0.0953  0.3365 -0.5727
 1504TIP3   OH226070   1.571   2.636   0.074 -0.0428  0.4587 -0.0005
 1504TIP3    H126071   1.485   2.628   0.032 -0.0623  1.4901 -0.1946
 1504TIP3    H226072   1.587   2.730   0.075 -0.1226  0.4944  2.4805
 1505TIP3   OH226073   6.121   3.920   1.720  0.5203 -0.1283  0.1081
 1505TIP3    H126074   6.140   3.830   1.747  0.9735 -0.8816 -2.4739
 1505TIP3    H226075   6.207   3.963   1.717  0.3165  0.4047  1.2270
 1506TIP3   OH226076   0.205   5.692   0.065  0.4582  0.0347 -0.6707
 1506TIP3    H126077   0.119   5.734   0.071 -0.1951 -1.4015  0.4319
 1506TIP3    H226078   0.266   5.758   0.100 -0.3385  0.6258 -0.3651
 1507TIP3   OH226079   6.084   5.789   7.773 -0.0939  0.2699 -0.3752
 1507TIP3    H126080   6.179   5.775   7.771 -0.1966 -0.5762  0.1505
 1507TIP3    H226081   6.071   5.858   7.837  0.1009 -0.2721  0.2567
 1508TIP3   OH226082   5.649   2.029   2.233  0.4175 -0.6390 -0.6302
 1508TIP3    H126083   5.584   2.085   2.275  0.4631  0.4463 -1.9255
 1508TIP3    H226084   5.733   2.068   2.255  0.4241  0.1709 -1.9841
 1509TIP3   OH226085   3.061   1.760   0.129 -0.2075  0.0235  0.0866
 1509TIP3    H126086   3.114   1.787   0.055  2.1048 -0.2958  1.5046
 1509TIP3    H226087   3.051   1.665   0.118 -0.4134  0.0741 -0.1529
 1510TIP3   OH226088   3.995   0.700   6.705  0.5499  0.4027  1.1038
 1510TIP3    H126089   3.963   0.623   6.752 -0.4613 -0.3623 -0.7569
 1510TIP3    H226090   3.916   0.745   6.676  1.1467  0.7708  0.0119
 1511TIP3   OH226091   2.685   1.199   5.899 -0.3976  0.1550 -0.5067
 1511TIP3    H126092   2.621   1.194   5.970  1.4558 -2.0288  1.1446
 1511TIP3    H226093   2.716   1.290   5.900  0.2540 -0.0227  2.1753
 1512TIP3   OH226094   3.803   4.152   8.115  0.1478 -0.1931 -0.1004
 1512TIP3    H126095   3.760   4.221   8.063 -0.0767 -0.8002 -0.7380
 1512TIP3    H226096   3.764   4.071   8.083  1.0971 -0.6900 -0.0186
 1513TIP3   OH226097   0.718   1.018   1.596 -0.1595 -0.4563  0.2531
 1513TIP3    H126098   0.703   0.980   1.509  0.4070  0.4622 -0.2564
 1513TIP3    H226099   0.804   0.984   1.622  0.0122 -0.1308  0.1189
 1514TIP3   OH226100   4.771   4.974   7.718 -0.4473 -0.3112 -0.2469
 1514TIP3    H126101   4.851   4.936   7.753 -1.1660 -0.7242  1.0025
 1514TIP3    H226102   4.797   5.061   7.686  1.0000 -1.3807 -2.2223
 1515TIP3   OH226103   4.809   6.979   1.911 -0.3346 -0.3939 -0.3033
 1515TIP3    H126104   4.904   6.988   1.899 -0.1701 -0.4098  0.8544
 1515TIP3    H226105   4.771   7.041   1.849  0.4332 -0.2460 -0.6421
 1516TIP3   OH226106   5.407   3.345   7.025  0.9025  0.0433 -0.0802
 1516TIP3    H126107   5.399   3.260   6.983  0.8812 -0.1115  0.2417
 1516TIP3    H226108   5.419   3.406   6.952  0.0432 -0.1230 -0.3634
 1517TIP3   OH226109   3.824   2.749   0.642  0.2489 -0.3423 -0.5718
 1517TIP3    H126110   3.736   2.773   0.612 -0.1948 -1.1460  0.0386
 1517TIP3    H226111   3.814   2.734   0.736  1.9494  3.7860  0.4838
 1518TIP3   OH226112   3.894   1.299   6.266  0.3031  0.2633 -0.6604
 1518TIP3    H126113   3.846   1.376   6.298  0.5942  0.9695 -1.8783
 1518TIP3    H226114   3.918   1.321   6.176  1.4372 -0.7785 -0.6374
 1519TIP3   OH226115   3.428   3.492   8.019  0.1713 -0.6766 -0.5716
 1519TIP3    H126116   3.460   3.572   7.978 -1.9795  1.2332  1.2352
 1519TIP3    H226117   3.468   3.491   8.106 -2.7848  0.6787  0.9436
 1520TIP3   OH226118   3.435   6.183   6.972 -0.6166  0.1644  0.1348
 1520TIP3    H126119   3.450   6.161   7.064 -0.3943 -1.0321 -0.1688
 1520TIP3    H226120   3.476   6.269   6.962 -1.5341  0.7828  1.3806
 1521TIP3   OH226121   6.929   3.085   8.004 -0.3160  0.3494  0.1913
 1521TIP3    H126122   6.901   3.118   8.090 -1.3323  1.9682 -0.6972
 1521TIP3    H226123   6.975   3.159   7.965  3.1257 -1.4169  0.5611
 1522TIP3   OH226124   1.141   6.610   8.222 -0.0129  0.2676 -0.9712
 1522TIP3    H126125   1.073   6.629   8.287 -0.4434 -1.3117 -0.9163
 1522TIP3    H226126   1.127   6.518   8.199  0.3288  0.7110 -3.0925
 1523TIP3   OH226127   5.683   5.456   1.740 -0.0574 -0.4349  0.4142
 1523TIP3    H126128   5.749   5.476   1.807 -0.1014  0.2011  0.2743
 1523TIP3    H226129   5.601   5.450   1.789  0.0157 -0.6673  0.5111
 1524TIP3   OH226130   2.808   5.484   0.108  0.2821 -0.0844 -0.2094
 1524TIP3    H126131   2.879   5.512   0.167 -0.7966 -0.5905  1.4030
 1524TIP3    H226132   2.853   5.444   0.034  1.7339  1.6942 -0.3525
 1525TIP3   OH226133   6.705   2.114   1.976  0.2376  0.3694  0.0024
 1525TIP3    H126134   6.753   2.117   1.894  2.9502  0.6835  1.4971
 1525TIP3    H226135   6.687   2.205   1.997  2.2882  0.5699  1.1721
 1526TIP3   OH226136   6.091   5.803   0.137  0.1017 -0.0486  0.0072
 1526TIP3    H126137   6.182   5.773   0.141  0.3047  0.4592 -0.5750
 1526TIP3    H226138   6.091   5.885   0.187 -0.0761 -0.1493  0.1699
 1527TIP3   OH226139   5.484   5.220   7.355  0.0446 -0.4495 -0.5015
 1527TIP3    H126140   5.443   5.279   7.418 -0.9173  0.2376 -1.7206
 1527TIP3    H226141   5.576   5.249   7.352 -0.5174  1.4062 -1.4715
 1528TIP3   OH226142   6.592   2.967   5.998  0.5263  0.0237 -0.0338
 1528TIP3    H126143   6.574   2.881   5.961 -1.2823  0.5000 -0.3866
 1528TIP3    H226144   6.571   3.029   5.928 -0.7094  0.8404  0.9966
 1529TIP3   OH226145   1.941   5.988   0.029  0.2686 -0.0340 -0.5893
 1529TIP3    H126146   1.951   6.020   0.118  1.5323 -0.7154 -0.4655
 1529TIP3    H226147   2.028   5.958   0.004 -0.3170 -0.9433 -1.6343
 1530TIP3   OH226148   5.751   5.583   5.874  0.7433 -0.5158 -0.2186
 1530TIP3    H126149   5.759   5.631   5.791 -0.5392  0.3789  0.1456
 1530TIP3    H226150   5.803   5.634   5.936  1.8151 -1.2596 -0.4757
 1531TIP3   OH226151   1.675   3.118   6.105 -0.5526 -0.5249 -0.4840
 1531TIP3    H126152   1.735   3.113   6.031  0.0091  2.7781 -0.3928
 1531TIP3    H226153   1.718   3.066   6.174 -0.4380 -2.5151 -1.9619
 1532TIP3   OH226154   4.486   3.153   6.334 -0.2827 -0.3477  0.1607
 1532TIP3    H126155   4.570   3.181   6.370  0.3598 -2.2585  0.3097
 1532TIP3    H226156   4.490   3.178   6.241 -0.0906  0.6706  0.4345
 1533TIP3   OH226157   5.331   1.608   6.256 -0.5616 -0.6995  0.6697
 1533TIP3    H126158   5.273   1.646   6.190 -0.4189  1.1118  1.5207
 1533TIP3    H226159   5.407   1.666   6.258 -1.4822  0.6548  3.8545
 1534TIP3   OH226160   3.292   5.100   6.772 -0.4295 -0.0521 -0.1802
 1534TIP3    H126161   3.342   5.139   6.844  0.7806 -1.2453 -0.3378
 1534TIP3    H226162   3.201   5.113   6.797 -0.0497  1.0838  0.7213
 1535TIP3   OH226163   2.140   3.563   0.230 -0.2758  0.1185  0.1005
 1535TIP3    H126164   2.173   3.650   0.253  0.9070 -0.2798  0.0086
 1535TIP3    H226165   2.114   3.570   0.139 -0.3465  0.4182  0.1416
 1536TIP3   OH226166   1.211   4.114   6.091  0.1450 -0.8427  0.1140
 1536TIP3    H126167   1.264   4.193   6.076  1.8226 -1.4527  2.2386
 1536TIP3    H226168   1.123   4.140   6.065  0.8456  1.3822 -0.3218
 1537TIP3   OH226169   3.882   1.662   0.953  0.0849  0.1060 -0.2830
 1537TIP3    H126170   3.897   1.648   1.047 -1.2479 -2.9567 -0.3993
 1537TIP3    H226171   3.796   1.704   0.949 -1.3408 -2.5573 -0.0770
 1538TIP3   OH226172   2.097   0.430   7.714 -0.7133  0.7987 -0.5093
 1538TIP3    H126173   2.162   0.478   7.765 -0.6772 -0.8738  1.1370
 1538TIP3    H226174   2.017   0.435   7.768 -1.4737  1.3054 -1.6464
 1539TIP3   OH226175   5.832   4.511   1.974 -0.1695 -0.9171  0.0202
 1539TIP3    H126176   5.808   4.545   2.060  2.1988 -0.1977  0.4704
 1539TIP3    H226177   5.770   4.552   1.914 -0.4753  0.3488  1.1430
 1540TIP3   OH226178   6.436   1.040   0.927 -0.4185  0.6813  0.1590
 1540TIP3    H126179   6.376   1.113   0.917 -0.2849  0.4758 -3.0863
 1540TIP3    H226180   6.522   1.075   0.905 -0.2357 -0.2633 -0.7144
 1541TIP3   OH226181   2.134   0.527   7.456  0.4302 -0.1788  0.1154
 1541TIP3    H126182   2.064   0.491   7.402 -0.3016  1.1394  0.1272
 1541TIP3    H226183   2.105   0.514   7.546  1.9338 -2.9332  0.2970
 1542TIP3   OH226184   4.075   3.178   7.409 -0.4773 -0.2762 -0.1941
 1542TIP3    H126185   4.121   3.251   7.368  0.7278 -0.5162  0.6671
 1542TIP3    H226186   4.114   3.100   7.369 -2.6626 -0.4784 -2.0688
 1543TIP3   OH226187   2.540   4.541   7.090  0.0610  0.1418  0.4917
 1543TIP3    H126188   2.464   4.598   7.082  0.2834  0.3760 -0.0580
 1543TIP3    H226189   2.584   4.548   7.005  1.2171  0.7692  1.1099
 1544TIP3   OH226190   2.468   0.546   6.833 -0.1908 -0.2976  0.4374
 1544TIP3    H126191   2.510   0.461   6.816 -0.3306 -0.4343  0.7652
 1544TIP3    H226192   2.375   0.525   6.844 -0.3301 -0.0123 -0.1510
 1545TIP3   OH226193   1.599   6.904   0.108  0.2115 -0.1036 -0.5098
 1545TIP3    H126194   1.631   6.833   0.053 -0.9874  0.3215 -1.8034
 1545TIP3    H226195   1.504   6.891   0.113  0.1136  0.7359  0.2108
 1546TIP3   OH226196   5.539   2.402   7.933 -0.6837 -0.8341 -0.1570
 1546TIP3    H126197   5.455   2.373   7.970 -1.3376  0.3646 -0.6487
 1546TIP3    H226198   5.546   2.354   7.851 -0.4893 -1.5312  0.2550
 1547TIP3   OH226199   3.652   0.071   6.758  0.3157  0.5379 -0.0557
 1547TIP3    H126200   3.582   0.012   6.732 -0.8967  1.9737 -0.1391
 1547TIP3    H226201   3.732   0.024   6.735 -0.6144 -0.7120 -0.8719
 1548TIP3   OH226202   3.319   5.229   6.502 -0.0626  0.1003  0.3179
 1548TIP3    H126203   3.396   5.231   6.446  0.2521 -0.1443  0.7363
 1548TIP3    H226204   3.350   5.194   6.586 -0.6649 -0.1922  0.4302
 1549TIP3   OH226205   2.442   0.404   7.134 -0.2240  0.0240 -0.2083
 1549TIP3    H126206   2.401   0.437   7.215  0.7791  0.4492  0.1451
 1549TIP3    H226207   2.444   0.309   7.145 -2.0694 -0.1183 -0.7114
 1550TIP3   OH226208   0.042   4.689   0.228  0.1799 -0.1187  0.1339
 1550TIP3    H126209   0.021   4.601   0.196  1.7696 -0.3837 -0.2819
 1550TIP3    H226210   0.053   4.678   0.323  0.9066 -0.5006  0.0134
 1551TIP3   OH226211   5.002   6.971   1.581 -0.5068 -0.1394 -0.1223
 1551TIP3    H126212   5.098   6.960   1.580 -0.4706 -0.0075  1.1007
 1551TIP3    H226213   4.981   6.995   1.671 -1.5766  1.0497 -0.6552
 1552TIP3   OH226214   0.440   1.957   1.171 -0.2700  0.5718 -0.8635
 1552TIP3    H126215   0.461   1.956   1.078 -0.1474 -0.5176 -0.8366
 1552TIP3    H226216   0.453   1.867   1.199 -1.1945  0.6932  0.0067
 1553TIP3   OH226217   0.207   6.273   7.458 -0.0132 -0.3779 -0.0056
 1553TIP3    H126218   0.292   6.245   7.423  1.4065  4.1560 -0.8393
 1553TIP3    H226219   0.229   6.335   7.527 -2.6995  0.2477  0.3901
 1554TIP3   OH226220   5.633   1.646   8.211  0.4740  0.0531  0.2131
 1554TIP3    H126221   5.557   1.647   8.269  0.2664 -2.5783  0.1116
 1554TIP3    H226222   5.683   1.723   8.236 -0.7867  0.2970  2.2556
 1555TIP3   OH226223   0.169   6.326   6.831  0.0981 -0.3036 -0.3282
 1555TIP3    H126224   0.252   6.305   6.875  0.2989  1.3799  0.1879
 1555TIP3    H226225   0.118   6.245   6.836  2.6156 -2.2681 -2.9648
 1556TIP3   OH226226   4.083   1.968   6.645 -0.1037 -0.0599 -0.0144
 1556TIP3    H126227   4.144   1.907   6.603  0.0566  0.5733 -0.7288
 1556TIP3    H226228   4.087   2.047   6.591  1.1444  1.3051  1.9278
 1557TIP3   OH226229   5.901   2.821   7.244 -0.6401  0.2694 -0.5476
 1557TIP3    H126230   5.930   2.798   7.333 -2.1670 -1.6611 -0.4677
 1557TIP3    H226231   5.948   2.759   7.187 -0.5125  0.7524 -0.9742
 1558TIP3   OH226232   0.771   0.043   0.056  0.1254 -0.3406 -0.1549
 1558TIP3    H126233   0.774   0.017   0.148  0.1364 -0.3679 -0.1630
 1558TIP3    H226234   0.862   0.039   0.026  0.0588 -0.8193 -0.3038
 1559TIP3   OH226235   3.289   1.614   0.387 -0.5940  0.0462 -0.2364
 1559TIP3    H126236   3.313   1.533   0.431  0.6061  0.5862  0.1409
 1559TIP3    H226237   3.337   1.613   0.305 -1.1087  0.0665 -0.5433
 1560TIP3   OH226238   5.056   5.238   1.020  0.2952  0.3722 -0.0120
 1560TIP3    H126239   5.092   5.257   0.933 -2.5761 -2.0663 -1.9468
 1560TIP3    H226240   5.030   5.323   1.054  1.3841  1.3998 -1.6048
 1561TIP3   OH226241   2.416   6.686   7.609  0.2358  0.2554 -0.0367
 1561TIP3    H126242   2.393   6.611   7.554 -0.3507  0.0619  0.4709
 1561TIP3    H226243   2.504   6.666   7.640  0.4488  0.2162 -0.6422
 1562TIP3   OH226244   4.991   6.913   7.932 -0.0075  0.0579 -0.5124
 1562TIP3    H126245   4.984   6.984   7.995 -1.3901 -1.0942  0.7041
 1562TIP3    H226246   5.052   6.946   7.865  0.0002  2.0464  0.4065
 1563TIP3   OH226247   6.781   2.433   6.804 -0.7922 -0.2633  0.0856
 1563TIP3    H126248   6.775   2.526   6.782  0.6122 -0.0954  0.3088
 1563TIP3    H226249   6.847   2.398   6.743  0.0175 -0.7092  1.1831
 1564TIP3   OH226250   2.865   3.923   7.530  0.2844  0.1892 -0.5434
 1564TIP3    H126251   2.914   3.856   7.483  1.6266  0.3136  0.6170
 1564TIP3    H226252   2.778   3.885   7.542  1.3993 -2.0444  1.3519
 1565TIP3   OH226253   4.196   3.003   7.805 -0.6629  0.9273  0.2042
 1565TIP3    H126254   4.122   2.956   7.767  0.4513  0.6613 -1.7461
 1565TIP3    H226255   4.192   3.090   7.764 -0.0304  0.9774  0.2399
 1566TIP3   OH226256   6.208   0.785   1.809 -0.2026  0.1588 -0.3867
 1566TIP3    H126257   6.252   0.700   1.808  1.4595  0.9614  0.4653
 1566TIP3    H226258   6.266   0.843   1.760 -0.7580  1.0517 -0.0234
 1567TIP3   OH226259   3.829   4.485   6.612 -0.2106 -0.0722  0.2606
 1567TIP3    H126260   3.915   4.504   6.649  0.7389 -1.3977 -1.1676
 1567TIP3    H226261   3.783   4.569   6.614  1.0933  0.6551  1.0505
 1568TIP3   OH226262   3.155   3.464   1.747  0.0089 -0.4006 -0.7562
 1568TIP3    H126263   3.224   3.483   1.684  0.5049 -1.9044 -0.7170
 1568TIP3    H226264   3.200   3.462   1.832 -0.0588 -1.3345 -0.7251
 1569TIP3   OH226265   3.572   5.437   7.562 -0.2341 -0.3200 -0.3028
 1569TIP3    H126266   3.599   5.445   7.470 -0.6797 -1.8277 -0.6057
 1569TIP3    H226267   3.643   5.387   7.603 -0.6375 -0.7663 -0.1405
 1570TIP3   OH226268   0.714   6.700   7.014  0.2262  0.5959 -0.1823
 1570TIP3    H126269   0.735   6.728   6.925  0.1945  2.2618  0.2920
 1570TIP3    H226270   0.797   6.709   7.062  0.1436  0.1310  0.0533
 1571TIP3   OH226271   2.360   4.081   1.122  0.0405 -0.2481 -0.8859
 1571TIP3    H126272   2.422   4.151   1.101 -1.0840  1.1935  0.4218
 1571TIP3    H226273   2.293   4.123   1.176 -0.6427 -2.3438  0.0099
 1572TIP3   OH226274   1.018   4.837   7.589  0.0857 -0.3426  0.7943
 1572TIP3    H126275   0.950   4.820   7.654 -1.5891 -0.3937 -0.8990
 1572TIP3    H226276   1.047   4.926   7.608  0.4051 -0.7189  2.2354
 1573TIP3   OH226277   5.271   6.997   0.749 -0.1337 -0.0760  0.2166
 1573TIP3    H126278   5.275   7.029   0.839 -1.2326 -0.5102  0.4320
 1573TIP3    H226279   5.208   7.054   0.705  0.5165  0.2394 -0.3365
 1574TIP3   OH226280   6.508   6.418   1.795 -0.1889 -0.3628 -0.4340
 1574TIP3    H126281   6.492   6.504   1.756 -0.5246 -0.0691  0.3371
 1574TIP3    H226282   6.432   6.402   1.852 -0.9792 -1.9160 -1.8192
 1575TIP3   OH226283   6.420   0.509   0.897  0.2733  0.4636 -0.4393
 1575TIP3    H126284   6.482   0.526   0.967  2.0065 -0.3374 -1.7104
 1575TIP3    H226285   6.370   0.432   0.927  0.3733  0.6743  0.2831
 1576TIP3   OH226286   1.522   6.185   1.784 -0.0515  0.2839  0.1435
 1576TIP3    H126287   1.554   6.176   1.874 -0.7339  0.2095  0.3827
 1576TIP3    H226288   1.445   6.128   1.781  0.8475 -0.9437 -0.9347
 1577TIP3   OH226289   6.995   2.291   1.248  0.3954  0.3041 -0.5242
 1577TIP3    H126290   6.932   2.281   1.176  1.8685  0.5508 -1.9024
 1577TIP3    H226291   6.943   2.327   1.320 -1.1932 -0.2367 -1.3394
 1578TIP3   OH226292   3.579   1.696   7.507 -0.7794 -0.2635  0.0971
 1578TIP3    H126293   3.567   1.741   7.591  0.5218  0.6966 -0.2222
 1578TIP3    H226294   3.608   1.608   7.532 -0.3071  0.0417  0.6561
 1579TIP3   OH226295   1.210   6.745   7.486 -0.2062  0.2690  0.4679
 1579TIP3    H126296   1.116   6.738   7.471 -0.6068  1.5859  2.1349
 1579TIP3    H226297   1.230   6.673   7.545 -0.3637  0.5939  0.9199
 1580TIP3   OH226298   5.960   5.296   5.946  0.1032 -0.0348 -0.3453
 1580TIP3    H126299   5.948   5.344   6.028  1.1204 -1.1620  0.5251
 1580TIP3    H226300   5.991   5.209   5.974 -0.4517 -0.7725 -1.8918
 1581TIP3   OH226301   4.375   6.396   6.721 -0.0778 -0.2969 -0.6818
 1581TIP3    H126302   4.396   6.304   6.708  0.3607 -0.1037 -1.4103
 1581TIP3    H226303   4.279   6.398   6.730 -0.0107 -0.9182  0.2940
 1582TIP3   OH226304   3.223   5.397   2.293  0.7438 -0.0786 -0.1732
 1582TIP3    H126305   3.270   5.441   2.364  2.6363  0.1428 -1.5014
 1582TIP3    H226306   3.291   5.358   2.239 -0.6187 -0.1750 -1.9282
 1583TIP3   OH226307   2.721   2.045   1.089 -0.2503  0.1323  0.1911
 1583TIP3    H126308   2.815   2.030   1.075 -0.0891  0.3816  0.9451
 1583TIP3    H226309   2.717   2.117   1.151 -0.8796 -1.2928  1.9105
 1584TIP3   OH226310   1.736   3.986   7.051  0.1740  0.3458 -0.1578
 1584TIP3    H126311   1.660   3.947   7.094  0.1601  1.4222  0.8669
 1584TIP3    H226312   1.786   3.912   7.019 -0.3657 -0.4710  0.8066
 1585TIP3   OH226313   1.848   2.026   1.999  0.2463 -0.5755  0.3477
 1585TIP3    H126314   1.944   2.030   1.995  0.4042 -2.9246 -0.0238
 1585TIP3    H226315   1.822   2.107   2.042  2.3051  0.6760 -0.6045
 1586TIP3   OH226316   0.334   2.954   0.998  0.3080 -0.0387  0.0274
 1586TIP3    H126317   0.384   3.030   0.968  0.0276  0.7827  1.5264
 1586TIP3    H226318   0.347   2.888   0.930 -0.1471  1.6258 -1.7891
 1587TIP3   OH226319   2.348   1.923   2.181  0.2131  0.1286  0.6193
 1587TIP3    H126320   2.396   1.910   2.099  1.0376 -0.2593  1.1514
 1587TIP3    H226321   2.285   1.851   2.184 -1.3102  1.3258 -0.6807
 1588TIP3   OH226322   0.078   3.131   2.450  0.1847  0.2550 -0.2081
 1588TIP3    H126323   0.137   3.073   2.403 -0.4891  0.2761 -1.1051
 1588TIP3    H226324   0.013   3.157   2.385 -1.5312 -0.7354  1.0417
 1589TIP3   OH226325   0.944   4.416   0.290 -0.1028 -0.3466  0.5975
 1589TIP3    H126326   0.982   4.416   0.377  1.9711  0.8016 -0.2380
 1589TIP3    H226327   0.951   4.507   0.260  0.7499 -0.9977 -1.3659
 1590TIP3   OH226328   6.969   5.961   1.464  0.0409  0.4967 -0.8116
 1590TIP3    H126329   7.053   5.981   1.507  0.4024  0.3051 -1.4272
 1590TIP3    H226330   6.993   5.922   1.380 -0.6050 -3.0787  0.4973
 1591TIP3   OH226331   1.054   3.336   7.487 -0.2207  0.0329  0.0606
 1591TIP3    H126332   1.073   3.256   7.439 -0.9636 -0.1605  0.0781
 1591TIP3    H226333   1.102   3.405   7.440  1.9032 -0.6564  1.0829
 1592TIP3   OH226334   5.524   6.957   0.266 -0.0541 -0.2389 -0.1773
 1592TIP3    H126335   5.526   7.035   0.321 -0.1207  0.5606 -1.2878
 1592TIP3    H226336   5.456   6.902   0.305 -1.0540  0.9124 -0.2467
 1593TIP3   OH226337   1.378   2.952   7.320  0.1067  0.0092 -0.1482
 1593TIP3    H126338   1.314   2.952   7.249  0.8905 -0.2037 -0.8682
 1593TIP3    H226339   1.344   2.890   7.384 -0.1022 -0.5621 -0.8072
 1594TIP3   OH226340   4.683   4.253   7.185  0.3365 -0.3890 -0.1905
 1594TIP3    H126341   4.600   4.214   7.212  0.9678 -1.5840  0.0822
 1594TIP3    H226342   4.665   4.347   7.180 -1.0282 -0.6300 -0.1509
 1595TIP3   OH226343   3.329   3.565   5.955  0.3205  0.1372  0.2023
 1595TIP3    H126344   3.262   3.513   5.912  2.3670 -1.9836 -0.6602
 1595TIP3    H226345   3.388   3.590   5.884  2.3356 -1.1387  1.3184
 1596TIP3   OH226346   5.425   6.620   6.473  0.2272  0.2274  0.1605
 1596TIP3    H126347   5.354   6.597   6.412  1.0910  1.6751 -1.4927
 1596TIP3    H226348   5.385   6.686   6.531 -0.5156 -0.9354  1.0102
 1597TIP3   OH226349   1.921   2.759   1.061  0.0006  0.2842 -0.2184
 1597TIP3    H126350   2.014   2.747   1.043 -0.1924  0.3499 -1.3275
 1597TIP3    H226351   1.878   2.687   1.015 -0.5710  0.7939 -0.4992
 1598TIP3   OH226352   3.568   3.590   7.095 -1.0228  0.4739 -0.0457
 1598TIP3    H126353   3.640   3.652   7.104 -0.0466 -0.5481 -0.6108
 1598TIP3    H226354   3.495   3.642   7.062  0.2330  1.0573 -2.0411
 1599TIP3   OH226355   5.349   0.677   8.255 -0.3326 -0.1236  0.3029
 1599TIP3    H126356   5.321   0.668   8.164  1.2299 -1.4474 -0.1036
 1599TIP3    H226357   5.380   0.768   8.262 -0.9946  0.1538 -0.3195
 1600TIP3   OH226358   6.183   2.057   0.773  0.5735  0.5090 -0.1272
 1600TIP3    H126359   6.138   1.973   0.787  0.6320  0.6526  1.0443
 1600TIP3    H226360   6.127   2.121   0.817  0.0187  1.2518 -1.8556
 1601TIP3   OH226361   1.674   5.722   0.202  0.2612  0.4494  0.7930
 1601TIP3    H126362   1.652   5.723   0.109 -0.0989  1.3567  0.8816
 1601TIP3    H226363   1.750   5.664   0.208  0.1763  0.2354 -0.0364
 1602TIP3   OH226364   1.673   3.122   7.928  0.9203  0.0003 -0.6858
 1602TIP3    H126365   1.676   3.214   7.899  0.6804  0.8493  1.7578
 1602TIP3    H226366   1.580   3.101   7.934  0.8077  0.9266  2.3636
 1603TIP3   OH226367   5.221   0.031   0.093  0.2565  0.3833  0.0115
 1603TIP3    H126368   5.154   0.091   0.060 -1.9689 -1.2709  1.2457
 1603TIP3    H226369   5.262   0.079   0.165  1.3399  1.8967 -1.5464
 1604TIP3   OH226370   2.411   5.471   6.453  0.3538 -0.1629 -0.4311
 1604TIP3    H126371   2.392   5.386   6.494  0.5705 -1.6443 -3.1743
 1604TIP3    H226372   2.506   5.471   6.440  0.4883  0.9524  0.3710
 1605TIP3   OH226373   1.900   3.270   6.400  0.3556 -0.9641  0.2041
 1605TIP3    H126374   1.823   3.216   6.420  0.0825 -0.2348  1.2363
 1605TIP3    H226375   1.973   3.224   6.440  0.4525 -1.6011 -0.6806
 1606TIP3   OH226376   2.989   6.096   1.385  0.0024 -0.7316 -0.1051
 1606TIP3    H126377   2.945   6.181   1.377 -0.4795 -0.5087  3.3897
 1606TIP3    H226378   3.073   6.108   1.340 -0.6071  1.1022 -0.8843
 1607TIP3   OH226379   6.629   1.409   0.607  0.0176 -0.0835 -0.1192
 1607TIP3    H126380   6.574   1.389   0.531 -0.1307 -0.5495  0.1042
 1607TIP3    H226381   6.602   1.497   0.634 -0.9986 -0.4956  0.2941
 1608TIP3   OH226382   6.393   5.628   1.306 -0.2321  0.3661  0.2066
 1608TIP3    H126383   6.401   5.647   1.212 -0.1746 -0.8282 -0.0501
 1608TIP3    H226384   6.435   5.543   1.317  0.6784  0.9557  1.5139
 1609TIP3   OH226385   4.083   6.038   6.322  0.0677  0.3299 -0.7664
 1609TIP3    H126386   4.133   5.959   6.339 -0.6976  0.1674  0.9133
 1609TIP3    H226387   3.995   6.019   6.353 -0.2606  1.6713 -0.7959
 1610TIP3   OH226388   0.818   3.965   1.251  0.1227  0.1405 -0.1825
 1610TIP3    H126389   0.773   4.031   1.198 -1.9023 -0.7175  0.3641
 1610TIP3    H226390   0.782   3.882   1.222  2.2900 -0.7460 -0.5266
 1611TIP3   OH226391   3.312   6.551   6.875  0.4570 -0.1586 -0.8977
 1611TIP3    H126392   3.406   6.545   6.890  0.2175 -1.2007  0.3637
 1611TIP3    H226393   3.273   6.530   6.960 -0.9538 -1.9137 -1.9191
 1612TIP3   OH226394   1.998   4.983   7.715  0.0463  0.3900 -0.0094
 1612TIP3    H126395   2.080   4.944   7.687 -0.3295  0.0744 -0.6965
 1612TIP3    H226396   1.976   4.938   7.796 -0.1100 -0.4470 -0.5115
 1613TIP3   OH226397   5.210   3.883   6.429  0.1718  0.5969  0.1027
 1613TIP3    H126398   5.203   3.890   6.334 -2.1438 -1.5880 -0.0015
 1613TIP3    H226399   5.228   3.790   6.445  2.3648  1.2051  1.8084
 1614TIP3   OH226400   1.360   4.155   7.658 -0.2813  0.3838  0.7608
 1614TIP3    H126401   1.333   4.244   7.635  1.6061  1.0381  0.8881
 1614TIP3    H226402   1.336   4.146   7.750 -1.6486  0.2763  0.4058
 1615TIP3   OH226403   6.781   1.788   6.634  0.0437  0.0808 -0.2873
 1615TIP3    H126404   6.760   1.760   6.723 -0.3572  0.3296 -0.2983
 1615TIP3    H226405   6.847   1.726   6.604  1.3630  0.9148  0.7515
 1616TIP3   OH226406   5.328   3.145   8.141  0.5831  0.8043 -0.8633
 1616TIP3    H126407   5.349   3.226   8.095 -0.6595  1.0814 -0.9686
 1616TIP3    H226408   5.246   3.115   8.102  0.8246 -0.3043 -0.5575
 1617TIP3   OH226409   1.259   2.275   0.206 -0.6393  0.4689 -0.0073
 1617TIP3    H126410   1.247   2.363   0.171 -0.1604  0.5423 -0.0003
 1617TIP3    H226411   1.225   2.279   0.295  0.9741  1.1317  0.6070
 1618TIP3   OH226412   2.270   1.238   7.556 -0.3108 -0.1572 -0.0034
 1618TIP3    H126413   2.198   1.207   7.501 -1.2051  0.4393  0.7862
 1618TIP3    H226414   2.265   1.333   7.551  0.9711 -0.0966 -0.6024
 1619TIP3   OH226415   2.752   4.346   0.740 -0.1283  0.3838 -0.1026
 1619TIP3    H126416   2.720   4.287   0.672  0.1341  1.3401 -1.0892
 1619TIP3    H226417   2.716   4.431   0.717  0.7960  0.9211  0.3664
 1620TIP3   OH226418   1.841   2.141   1.533  0.3685 -0.1236 -0.1221
 1620TIP3    H126419   1.919   2.190   1.561 -0.4055  0.9292  0.2809
 1620TIP3    H226420   1.837   2.066   1.593  1.3193 -0.4508 -0.4463
 1621TIP3   OH226421   6.367   4.287   1.563  0.4897 -0.4174 -0.0944
 1621TIP3    H126422   6.340   4.284   1.655 -0.3009  0.1073 -0.3006
 1621TIP3    H226423   6.374   4.380   1.543  0.2490 -0.5190 -0.6787
 1622TIP3   OH226424   4.585   0.822   0.289  0.5448  0.6205  0.0392
 1622TIP3    H126425   4.613   0.731   0.277 -1.3004 -0.0482  0.5548
 1622TIP3    H226426   4.515   0.834   0.225 -0.1066  1.2630  0.8548
 1623TIP3   OH226427   1.702   1.070   7.474  0.5158  0.0043  0.5585
 1623TIP3    H126428   1.794   1.057   7.497  0.8467  0.5723 -0.3660
 1623TIP3    H226429   1.695   1.165   7.458  0.2734 -0.2806 -1.2963
 1624TIP3   OH226430   3.682   4.038   6.358  0.1441 -0.0191 -0.1474
 1624TIP3    H126431   3.615   3.970   6.353  0.0053  0.1737 -1.5850
 1624TIP3    H226432   3.721   4.039   6.270  0.7038  1.1962  0.0906
 1625TIP3   OH226433   4.682   0.712   0.705 -0.0116  0.3938  0.8738
 1625TIP3    H126434   4.710   0.798   0.736  0.9220  1.0886 -1.6756
 1625TIP3    H226435   4.712   0.652   0.772  0.3564  1.9340  2.1574
 1626TIP3   OH226436   6.318   3.917   0.202 -0.0420 -0.8222 -0.3268
 1626TIP3    H126437   6.394   3.975   0.194 -1.9054  2.2653  2.1320
 1626TIP3    H226438   6.268   3.931   0.121 -0.2857  0.7948  0.0806
 1627TIP3   OH226439   6.636   4.530   7.464 -0.1663  0.0518  0.1839
 1627TIP3    H126440   6.691   4.495   7.535 -0.3915  0.7112  0.6891
 1627TIP3    H226441   6.620   4.621   7.489  0.9948  0.7530 -1.4582
 1628TIP3   OH226442   2.559   6.830   6.638  0.0576  0.1454  0.2431
 1628TIP3    H126443   2.644   6.789   6.620  0.3766  0.5233  0.8777
 1628TIP3    H226444   2.552   6.899   6.571  0.5423  0.5328  0.5839
 1629TIP3   OH226445   3.742   4.206   1.268 -0.2139 -0.5432  0.4269
 1629TIP3    H126446   3.770   4.136   1.210  0.2324 -0.0492  0.0393
 1629TIP3    H226447   3.663   4.242   1.226 -0.0400 -0.3563  0.2568
 1630TIP3   OH226448   1.000   5.624   0.038 -0.2447  0.1008 -0.1228
 1630TIP3    H126449   1.034   5.534   0.041 -0.6439 -0.0191  1.8357
 1630TIP3    H226450   1.077   5.679   0.053 -0.2933 -0.0151  0.5944
 1631TIP3   OH226451   2.541   3.327   7.655 -0.5199  0.3238 -0.2977
 1631TIP3    H126452   2.509   3.407   7.613 -1.7918 -0.9909 -1.9605
 1631TIP3    H226453   2.464   3.272   7.664  0.1002 -0.3002  1.9609
 1632TIP3   OH226454   2.252   6.262   0.180  0.4341  0.2581  0.6540
 1632TIP3    H126455   2.270   6.170   0.199 -0.9088 -0.0941  0.3515
 1632TIP3    H226456   2.325   6.289   0.124  0.0174 -1.1121 -0.6298
 1633TIP3   OH226457   6.098   3.953   7.390 -0.3452 -0.1512 -0.8608
 1633TIP3    H126458   6.068   3.997   7.310 -0.2606 -0.0976 -0.8638
 1633TIP3    H226459   6.192   3.942   7.376  0.2460  2.4292  0.4115
 1634TIP3   OH226460   4.221   4.136   7.769  0.8229 -0.5923  0.1918
 1634TIP3    H126461   4.284   4.188   7.818 -0.0941 -0.6793  1.5092
 1634TIP3    H226462   4.275   4.073   7.721  1.9296  1.2412 -1.1033
 1635TIP3   OH226463   5.189   2.138   8.222  0.2790  0.0975 -0.1192
 1635TIP3    H126464   5.214   2.097   8.305  0.4493  0.1028 -0.1683
 1635TIP3    H226465   5.122   2.079   8.186  0.3077  0.0198 -0.0454
 1636TIP3   OH226466   6.658   1.948   8.244 -0.0464 -0.0271 -0.0114
 1636TIP3    H126467   6.652   1.932   8.338  0.0553 -1.0664 -0.1699
 1636TIP3    H226468   6.738   1.998   8.233 -1.5244  2.6649  0.7387
 1637TIP3   OH226469   2.342   4.420   6.428 -0.4373 -0.1916 -0.1505
 1637TIP3    H126470   2.258   4.463   6.411 -0.3200 -0.6188 -2.0119
 1637TIP3    H226471   2.384   4.415   6.342  0.5419 -1.9599  0.3808
 1638TIP3   OH226472   5.968   4.554   2.417  0.4165  0.4529 -0.0690
 1638TIP3    H126473   5.972   4.500   2.496 -0.6227 -1.0375 -0.9652
 1638TIP3    H226474   6.046   4.530   2.368 -0.5355 -1.0932 -0.9282
 1639TIP3   OH226475   4.674   3.197   0.562  0.5589  0.0007 -0.3239
 1639TIP3    H126476   4.589   3.188   0.521  0.7682  0.7155 -0.9295
 1639TIP3    H226477   4.668   3.142   0.641 -0.0396 -0.9100 -0.9806
 1640TIP3   OH226478   6.688   6.343   8.208 -0.1647 -0.4878 -0.5370
 1640TIP3    H126479   6.667   6.437   8.206 -1.1726 -0.6812  0.0753
 1640TIP3    H226480   6.759   6.335   8.272 -0.8178 -0.2674  0.2275
 1641TIP3   OH226481   2.006   3.457   7.644  0.6477 -0.2901 -0.2943
 1641TIP3    H126482   2.016   3.487   7.734 -0.5898 -2.7316  0.7737
 1641TIP3    H226483   1.971   3.532   7.596  1.0511  0.9715  1.3133
 1642TIP3   OH226484   5.170   2.076   7.239 -0.2318 -0.3206 -0.5980
 1642TIP3    H126485   5.120   2.078   7.320  0.5477  0.3059 -0.1119
 1642TIP3    H226486   5.260   2.060   7.267 -0.1506 -1.4924 -1.4589
 1643TIP3   OH226487   1.159   1.180   1.496  0.3055 -1.2024  0.1727
 1643TIP3    H126488   1.085   1.238   1.509 -1.1083 -2.5886 -1.1403
 1643TIP3    H226489   1.215   1.194   1.572 -1.1847  0.0513  1.0991
 1644TIP3   OH226490   4.685   2.148   0.648 -0.0674 -0.1618  0.2565
 1644TIP3    H126491   4.737   2.228   0.645 -0.3879  0.1501  1.9145
 1644TIP3    H226492   4.694   2.110   0.561 -0.6766  2.1624 -0.9218
 1645TIP3   OH226493   4.435   2.561   0.487  0.6136 -0.3641 -0.1225
 1645TIP3    H126494   4.524   2.593   0.502 -0.6871  2.8024  1.9535
 1645TIP3    H226495   4.394   2.629   0.433 -0.7334 -1.4216 -0.4917
 1646TIP3   OH226496   3.135   3.978   6.189  0.2294  0.1085  0.5185
 1646TIP3    H126497   3.211   4.033   6.172  0.6145 -0.1979  1.1822
 1646TIP3    H226498   3.167   3.889   6.178 -0.2143 -0.0025  0.1137
 1647TIP3   OH226499   6.529   0.122   0.666  0.0706  0.2362 -0.1059
 1647TIP3    H126500   6.591   0.193   0.683 -0.9869  1.3377 -0.6180
 1647TIP3    H226501   6.489   0.146   0.582 -0.1098 -1.1319 -0.4213
 1648TIP3   OH226502   5.844   6.208   0.241  0.4970 -0.0736 -0.3864
 1648TIP3    H126503   5.897   6.281   0.274  0.9675 -0.6240  0.1021
 1648TIP3    H226504   5.776   6.250   0.188  1.9214  0.6174 -1.7622
 1649TIP3   OH226505   1.793   1.773   1.983  0.1277 -0.7983  0.1328
 1649TIP3    H126506   1.879   1.742   1.953  0.3812 -1.2753  1.2989
 1649TIP3    H226507   1.799   1.868   1.977 -0.3181 -0.8728 -2.5635
 1650TIP3   OH226508   2.233   1.229   0.956 -0.2646 -0.0150  0.2025
 1650TIP3    H126509   2.283   1.310   0.963 -2.2682  1.3600 -0.5446
 1650TIP3    H226510   2.161   1.250   0.896 -1.7853 -1.8489  1.2631
 1651TIP3   OH226511   2.910   0.812   7.022  0.3120  0.8085 -0.3455
 1651TIP3    H126512   2.901   0.905   7.043  1.0055  0.7421  0.2714
 1651TIP3    H226513   2.913   0.768   7.107  1.2206  0.3390 -0.6124
 1652TIP3   OH226514   5.212   3.453   1.534 -0.1923  0.9784 -0.3619
 1652TIP3    H126515   5.177   3.368   1.560 -0.7633  1.1837 -0.4445
 1652TIP3    H226516   5.307   3.445   1.546 -0.1692  0.0702 -1.1386
 1653TIP3   OH226517   2.031   2.867   6.438 -0.2191 -0.2570 -0.0909
 1653TIP3    H126518   2.060   2.776   6.439  3.8357  0.8256  0.4041
 1653TIP3    H226519   2.029   2.892   6.531 -1.0594  0.2401 -0.2331
 1654TIP3   OH226520   5.634   4.461   0.121 -0.7698  0.5328  0.0962
 1654TIP3    H126521   5.601   4.520   0.054  3.1181  0.8441 -1.8239
 1654TIP3    H226522   5.637   4.375   0.079  0.6918  0.5155  0.1979
 1655TIP3   OH226523   0.924   0.248   7.065  0.2219 -0.4549 -0.5898
 1655TIP3    H126524   0.836   0.214   7.075  0.6172 -1.4614 -0.3991
 1655TIP3    H226525   0.930   0.320   7.128 -0.3411 -0.6170 -0.3464
 1656TIP3   OH226526   3.641   6.355   1.724  0.0269 -0.7355  0.5898
 1656TIP3    H126527   3.584   6.308   1.785  0.2236 -0.2776  1.1339
 1656TIP3    H226528   3.678   6.426   1.776 -1.2479  0.8102 -0.4987
 1657TIP3   OH226529   1.027   3.889   7.082  0.7185  0.2455  0.1640
 1657TIP3    H126530   1.060   3.801   7.101  1.3562  0.5456  0.4902
 1657TIP3    H226531   0.999   3.922   7.168 -0.1454  0.1229 -0.0557
 1658TIP3   OH226532   6.046   1.363   1.573  0.3802  0.4749 -0.0606
 1658TIP3    H126533   5.981   1.410   1.521 -0.1787 -1.7952 -1.5029
 1658TIP3    H226534   6.019   1.272   1.570  2.2491 -0.1921  1.4242
 1659TIP3   OH226535   2.717   2.084   1.408 -0.3565 -0.2246 -0.3769
 1659TIP3    H126536   2.670   2.113   1.487 -0.9534 -1.1641 -0.3641
 1659TIP3    H226537   2.731   2.164   1.358 -2.0616  0.0907 -0.4126
 1660TIP3   OH226538   2.721   0.040   1.973 -0.4837 -0.3407  0.3452
 1660TIP3    H126539   2.720  -0.019   2.049 -0.4597  1.5059  1.8542
 1660TIP3    H226540   2.651   0.103   1.991 -1.2741 -0.5376 -1.7738
 1661TIP3   OH226541   3.392   2.489   8.252 -0.2022 -0.1238  0.5821
 1661TIP3    H126542   3.475   2.521   8.286  0.1673  0.7192 -1.0236
 1661TIP3    H226543   3.416   2.423   8.186 -0.7569  0.4978 -0.2682
 1662TIP3   OH226544   1.585   2.710   0.720  0.8167 -0.4600 -0.1078
 1662TIP3    H126545   1.554   2.704   0.810  1.0249  0.0239 -0.0052
 1662TIP3    H226546   1.507   2.693   0.667  0.6430 -0.4994  0.1606
 1663TIP3   OH226547   5.619   6.466   7.136 -0.2412 -0.4891 -0.4676
 1663TIP3    H126548   5.685   6.401   7.113  0.3666  0.6369 -2.1383
 1663TIP3    H226549   5.662   6.550   7.120 -1.8516  0.2914 -0.9420
 1664TIP3   OH226550   5.190   4.067   7.841 -0.6873  0.3651  0.1981
 1664TIP3    H126551   5.096   4.052   7.838 -0.5656 -0.7009  1.0699
 1664TIP3    H226552   5.227   4.002   7.780 -0.5241  0.8902 -0.2676
 1665TIP3   OH226553   5.175   1.451   6.793  0.3416 -0.0898  0.1701
 1665TIP3    H126554   5.235   1.515   6.756  0.4521 -1.1509 -1.5997
 1665TIP3    H226555   5.094   1.463   6.743  0.0571 -0.6733  0.4800
 1666TIP3   OH226556   3.162   2.492   6.114  0.3996  0.1342  0.7352
 1666TIP3    H126557   3.215   2.563   6.079 -1.0786  0.7531 -0.3969
 1666TIP3    H226558   3.140   2.520   6.203  1.1231  0.3522  0.8479
 1667TIP3   OH226559   5.726   1.053   7.509  0.2658 -0.6171 -0.2623
 1667TIP3    H126560   5.712   0.982   7.572 -1.8222 -1.4558 -1.5502
 1667TIP3    H226561   5.652   1.112   7.522  0.3024 -0.3257 -1.2751
 1668TIP3   OH226562   5.543   6.870   0.631  0.5314  0.1891 -0.1603
 1668TIP3    H126563   5.476   6.858   0.563  1.9512 -0.2949 -1.5343
 1668TIP3    H226564   5.562   6.781   0.660 -0.9396  0.4461  1.8501
 1669TIP3   OH226565   1.858   6.584   6.769 -0.6311  0.2667 -0.1552
 1669TIP3    H126566   1.927   6.529   6.731  1.0960  1.2347  1.4286
 1669TIP3    H226567   1.899   6.670   6.780 -2.3146  1.0524  0.2566
 1670TIP3   OH226568   2.951   6.906   1.575 -0.3251  0.1931 -0.0737
 1670TIP3    H126569   2.942   6.815   1.604  0.1716 -0.0644 -0.6944
 1670TIP3    H226570   2.864   6.928   1.541 -0.5846  0.1162  0.5321
 1671TIP3   OH226571   1.207   2.802   7.517  0.0921  0.3656  0.4550
 1671TIP3    H126572   1.266   2.768   7.584 -0.6677  0.6496  1.2965
 1671TIP3    H226573   1.173   2.724   7.473 -0.6716  0.0602  1.5294
 1672TIP3   OH226574   1.932   5.527   7.562 -0.9727 -0.0883 -0.2084
 1672TIP3    H126575   1.944   5.437   7.591 -2.8144 -0.5478 -0.7991
 1672TIP3    H226576   1.869   5.523   7.491 -1.6536  1.7300  0.2165
 1673TIP3   OH226577   2.893   4.253   1.256  0.2079 -0.2425 -0.3740
 1673TIP3    H126578   2.951   4.329   1.262 -2.5700  2.0412 -0.1304
 1673TIP3    H226579   2.866   4.250   1.165 -1.2467  0.4109 -0.0055
 1674TIP3   OH226580   5.363   0.436   1.368  0.3501 -0.1491 -0.3571
 1674TIP3    H126581   5.318   0.495   1.428 -2.5591 -0.6772 -1.8135
 1674TIP3    H226582   5.413   0.494   1.310 -0.7883  0.7565 -0.4655
 1675TIP3   OH226583   0.848   4.927   7.070 -0.5764  0.0408 -0.3395
 1675TIP3    H126584   0.899   4.972   7.003 -1.1980  1.2193 -0.0407
 1675TIP3    H226585   0.901   4.851   7.093  0.2793  0.3603 -1.1810
 1676TIP3   OH226586   3.520   0.559   7.306  0.1496 -0.3472 -0.3536
 1676TIP3    H126587   3.521   0.480   7.361 -0.5213  0.7698  1.3120
 1676TIP3    H226588   3.602   0.603   7.327 -0.7496  0.7982  0.8530
 1677TIP3   OH226589   1.905   3.821   1.335 -0.2965  0.3861 -0.5895
 1677TIP3    H126590   1.829   3.774   1.368 -1.4856  2.4238 -0.3068
 1677TIP3    H226591   1.950   3.852   1.413  0.2012  0.1753 -0.7853
 1678TIP3   OH226592   5.199   1.304   7.525  0.1376 -0.0286  0.9290
 1678TIP3    H126593   5.181   1.326   7.617  3.5824 -4.1366  2.9387
 1678TIP3    H226594   5.273   1.360   7.501 -1.9076  2.3835 -0.2029
 1679TIP3   OH226595   4.894   6.225   2.202  0.3168 -0.3968 -0.5956
 1679TIP3    H126596   4.857   6.183   2.280 -1.0930  0.1938 -0.9354
 1679TIP3    H226597   4.884   6.319   2.217 -0.7332 -0.2867 -1.8352
 1680TIP3   OH226598   1.581   3.643   6.398 -0.3417  0.4876  0.2450
 1680TIP3    H126599   1.582   3.726   6.350  1.1677 -0.4396 -1.4940
 1680TIP3    H226600   1.643   3.587   6.350 -2.2716 -2.0919  0.5170
 1681TIP3   OH226601   1.228   3.951   8.001  0.1765  0.3153  0.5263
 1681TIP3    H126602   1.186   3.972   8.084 -0.1692  1.0302  0.1790
 1681TIP3    H226603   1.298   3.890   8.024 -0.9520 -0.7693  1.1297
 1682TIP3   OH226604   2.342   2.685   0.754  0.6535  0.2828  0.0775
 1682TIP3    H126605   2.379   2.700   0.667  0.8005  0.6646  0.2043
 1682TIP3    H226606   2.248   2.689   0.741  0.6498 -0.5346 -0.2193
 1683TIP3   OH226607   4.511   5.700   0.440 -0.1727 -0.1454 -0.6142
 1683TIP3    H126608   4.528   5.606   0.443 -0.8834 -0.3038 -1.3196
 1683TIP3    H226609   4.542   5.733   0.524  0.7198 -0.8981 -0.6326
 1684TIP3   OH226610   2.369   4.702   7.825  0.4099  0.3811 -0.6402
 1684TIP3    H126611   2.389   4.706   7.919  1.6067 -0.6253 -0.8376
 1684TIP3    H226612   2.321   4.620   7.815 -0.1073  0.7043 -0.8531
 1685TIP3   OH226613   2.305   3.376   6.406  0.1638 -0.4007  0.0267
 1685TIP3    H126614   2.237   3.434   6.441  1.0492  1.0457 -0.5934
 1685TIP3    H226615   2.343   3.424   6.333  1.5501 -1.3823  0.0631
 1686TIP3   OH226616   6.281   1.611   7.935  0.2083 -0.0368 -0.2052
 1686TIP3    H126617   6.353   1.629   7.874  0.9111 -0.9050  0.3293
 1686TIP3    H226618   6.325   1.584   8.016 -0.5984  2.9035  1.3954
 1687TIP3   OH226619   4.989   6.530   7.569 -0.1321  0.1404 -0.7313
 1687TIP3    H126620   4.909   6.576   7.543 -0.6730  0.6663  1.5976
 1687TIP3    H226621   4.968   6.491   7.653  1.2701 -1.9817 -1.2873
 1688TIP3   OH226622   6.754   2.129   6.271 -0.9375 -0.6054  0.2430
 1688TIP3    H126623   6.811   2.123   6.194 -0.6256  0.2564  0.3921
 1688TIP3    H226624   6.681   2.070   6.251 -0.5908 -0.8132 -0.4731
 1689TIP3   OH226625   4.687   3.156   7.303 -0.4610  0.0456 -0.3305
 1689TIP3    H126626   4.780   3.174   7.290 -0.2088 -0.9272  0.0072
 1689TIP3    H226627   4.647   3.242   7.317  0.7627  0.3413  1.8197
 1690TIP3   OH226628   1.330   4.367   6.839 -0.1760  0.1427 -0.7761
 1690TIP3    H126629   1.270   4.381   6.766 -1.1911  0.4877  0.0958
 1690TIP3    H226630   1.415   4.353   6.798 -0.6752  0.5774 -2.0077
 1691TIP3   OH226631   6.464   3.700   0.259  0.2026  0.0405 -0.1822
 1691TIP3    H126632   6.390   3.646   0.231 -0.2000  0.8760 -0.7598
 1691TIP3    H226633   6.431   3.790   0.255  1.8450  0.6188 -2.4949
 1692TIP3   OH226634   3.297   5.983   6.631 -0.7358 -0.7979  0.4630
 1692TIP3    H126635   3.226   5.927   6.659  1.1225 -3.1319  0.7906
 1692TIP3    H226636   3.310   5.961   6.538 -1.1429  0.4811  0.0688
 1693TIP3   OH226637   2.222   5.600   1.186 -0.0552 -0.5180  0.4438
 1693TIP3    H126638   2.136   5.642   1.188  0.5277  0.9122 -1.5247
 1693TIP3    H226639   2.267   5.634   1.262 -0.8155 -0.3438  0.8292
 1694TIP3   OH226640   1.815   4.767   7.037  0.1976 -0.0199 -0.0782
 1694TIP3    H126641   1.720   4.778   7.041  0.3410  1.2736  2.7755
 1694TIP3    H226642   1.829   4.673   7.049 -0.7346 -0.1864 -0.2548
 1695TIP3   OH226643   1.295   0.986   0.466  0.6320 -0.2191  0.5673
 1695TIP3    H126644   1.344   0.916   0.508  0.3243 -0.6876  0.1660
 1695TIP3    H226645   1.359   1.031   0.412  0.8184 -0.2408  0.7714
 1696TIP3   OH226646   4.828   3.969   5.937 -0.7126  0.2139  0.2567
 1696TIP3    H126647   4.798   3.952   6.027  0.7678  0.7319  0.8752
 1696TIP3    H226648   4.783   3.902   5.884 -3.8446  1.6397  0.8913
 1697TIP3   OH226649   2.422   3.143   5.871  0.2952  0.2528 -0.3884
 1697TIP3    H126650   2.427   3.079   5.800  0.3107 -1.6062  1.1858
 1697TIP3    H226651   2.511   3.148   5.905  0.1324  0.4930  0.0077
 1698TIP3   OH226652   3.598   3.312   1.137  0.2107 -0.8002 -0.4440
 1698TIP3    H126653   3.628   3.222   1.132  0.3930 -0.7576 -0.1493
 1698TIP3    H226654   3.591   3.330   1.231 -0.5361 -0.7429 -0.5059
 1699TIP3   OH226655   2.882   0.560   8.039 -0.0199 -0.0838 -0.6190
 1699TIP3    H126656   2.977   0.566   8.049 -0.1490  0.5563  0.5072
 1699TIP3    H226657   2.868   0.487   7.979  1.1808 -0.1574 -0.8356
 1700TIP3   OH226658   6.584   3.637   6.064  0.0265  0.0824 -0.0898
 1700TIP3    H126659   6.515   3.703   6.064  0.6733  0.8205 -1.3593
 1700TIP3    H226660   6.657   3.679   6.017  0.3934 -1.5848 -1.1102
 1701TIP3   OH226661   6.225   6.151   7.878  0.0578  0.3250  0.6067
 1701TIP3    H126662   6.211   6.217   7.946 -1.3582 -0.0555  0.7145
 1701TIP3    H226663   6.177   6.184   7.803  0.6413  0.1669  0.1597
 1702TIP3   OH226664   3.951   6.084   8.053 -0.0586 -0.4269 -0.2784
 1702TIP3    H126665   3.963   6.049   7.965 -1.4914 -0.7092 -0.3887
 1702TIP3    H226666   4.030   6.134   8.071  0.7175 -1.2607 -1.2995
 1703TIP3   OH226667   4.249   5.480   0.880 -0.1077 -0.0957  0.2498
 1703TIP3    H126668   4.157   5.503   0.868 -0.6913 -2.3341  0.0830
 1703TIP3    H226669   4.286   5.484   0.791  0.4475  2.4306  0.5071
 1704TIP3   OH226670   6.753   1.016   2.202  0.2699  0.3839 -0.3115
 1704TIP3    H126671   6.717   0.928   2.213  1.2693  0.0970  0.9482
 1704TIP3    H226672   6.844   1.001   2.175  0.0570  1.0721 -1.5051
 1705TIP3   OH226673   2.727   3.728   0.337 -0.1044 -0.5052 -0.1246
 1705TIP3    H126674   2.781   3.653   0.364 -0.1047 -0.5937 -0.3686
 1705TIP3    H226675   2.734   3.730   0.242 -0.3807 -0.4003 -0.1441
 1706TIP3   OH226676   0.235   4.558   6.833 -0.1425  0.0618 -0.7191
 1706TIP3    H126677   0.278   4.637   6.801 -2.3499  0.9218 -1.7570
 1706TIP3    H226678   0.148   4.587   6.860  0.1492 -1.4111  2.2281
 1707TIP3   OH226679   5.751   7.002   0.090 -0.8242 -0.2429  1.0840
 1707TIP3    H126680   5.708   7.074   0.137  0.0932  0.2665  1.1719
 1707TIP3    H226681   5.773   6.938   0.158  0.9193  0.7020  1.4632
 1708TIP3   OH226682   4.489   5.089   0.980  0.0921 -0.5063  0.1726
 1708TIP3    H126683   4.486   5.020   0.914 -1.1736 -1.5645  1.2814
 1708TIP3    H226684   4.398   5.102   1.006  0.2166  2.1051 -0.4897
 1709TIP3   OH226685   0.676   2.886   2.184 -0.0276 -0.0895 -0.1708
 1709TIP3    H126686   0.640   2.949   2.247  0.0403 -0.0560 -0.1659
 1709TIP3    H226687   0.660   2.925   2.098 -0.2202 -0.1858 -0.1796
 1710TIP3   OH226688   5.864   3.740   7.339 -0.4372 -0.4369 -0.0743
 1710TIP3    H126689   5.930   3.808   7.328 -0.0339 -0.5782  1.2030
 1710TIP3    H226690   5.913   3.667   7.379 -1.2747 -0.6893  0.5104
 1711TIP3   OH226691   2.606   0.632   7.087  0.6036 -0.0424  0.6099
 1711TIP3    H126692   2.605   0.699   7.157  1.6789  1.5084 -0.7838
 1711TIP3    H226693   2.542   0.567   7.116  0.5257  0.8764  2.7202
 1712TIP3   OH226694   5.718   2.808   5.652 -0.7424 -0.4846 -0.4470
 1712TIP3    H126695   5.636   2.765   5.627 -1.4553 -1.1701  2.6696
 1712TIP3    H226696   5.694   2.861   5.728  1.5363  0.1423 -0.1112
 1713TIP3   OH226697   3.055   2.982   0.783 -0.2715  0.0271  0.1930
 1713TIP3    H126698   3.121   2.970   0.851  0.1992  1.9645  0.1229
 1713TIP3    H226699   3.066   2.905   0.726  1.7930  0.1800  0.3000
 1714TIP3   OH226700   1.038   0.079   1.680 -0.0713  0.1792 -0.0056
 1714TIP3    H126701   1.045   0.043   1.592  2.9096  0.1877  0.1135
 1714TIP3    H226702   0.944   0.084   1.697 -0.7235 -2.6118 -2.0203
 1715TIP3   OH226703   3.520   3.394   6.627  0.0627 -0.2335 -0.4331
 1715TIP3    H126704   3.538   3.440   6.708  0.7382  0.2724 -0.8563
 1715TIP3    H226705   3.590   3.421   6.568  0.2077 -1.4468 -0.8431
 1716TIP3   OH226706   0.771   3.861   1.492  0.4261  0.8073 -0.6742
 1716TIP3    H126707   0.820   3.905   1.423  1.6863  0.7493  0.1550
 1716TIP3    H226708   0.685   3.844   1.453  0.5857  2.1557 -1.6936
 1717TIP3   OH226709   2.808   0.886   0.505 -0.0056  0.2491 -0.4575
 1717TIP3    H126710   2.726   0.837   0.496 -0.4504  0.8011  0.4096
 1717TIP3    H226711   2.876   0.819   0.510 -0.4867 -0.2442 -0.4506
 1718TIP3   OH226712   1.623   1.632   7.410 -0.0051  0.4746  0.5125
 1718TIP3    H126713   1.558   1.702   7.411 -0.1171  0.4323  2.9798
 1718TIP3    H226714   1.668   1.640   7.494  1.0096 -1.4751  0.2186
 1719TIP3   OH226715   1.401   6.959   0.461 -0.3015  0.3584  0.3230
 1719TIP3    H126716   1.405   6.908   0.542 -1.5558  0.3390  0.3884
 1719TIP3    H226717   1.335   6.915   0.408 -0.0794  0.8508 -0.3777
 1720TIP3   OH226718   1.678   3.451   1.590  0.2568 -0.7300 -0.3903
 1720TIP3    H126719   1.604   3.410   1.544  1.0321 -0.6726 -1.7216
 1720TIP3    H226720   1.746   3.383   1.591  0.6297 -0.3561 -0.3026
 1721TIP3   OH226721   4.127   2.768   7.645  0.2540  0.5944  0.4034
 1721TIP3    H126722   4.198   2.739   7.704 -0.1390  0.4857  0.8271
 1721TIP3    H226723   4.150   2.730   7.560  0.8124  0.7258  0.4911
 1722TIP3   OH226724   1.532   6.516   7.430  0.0115 -0.2477 -0.1380
 1722TIP3    H126725   1.577   6.484   7.352 -0.3878  0.7442 -0.7843
 1722TIP3    H226726   1.450   6.468   7.432 -0.6924  0.8530 -1.2399
 1723TIP3   OH226727   3.445   6.528   0.780  0.1468 -0.0209  0.1212
 1723TIP3    H126728   3.362   6.523   0.732  0.1167  1.1763  0.0254
 1723TIP3    H226729   3.431   6.474   0.857 -0.3118 -0.7815 -0.4711
 1724TIP3   OH226730   1.330   4.898   1.902  0.1339 -0.0103 -0.5154
 1724TIP3    H126731   1.395   4.907   1.971  1.6432  2.2973 -2.1137
 1724TIP3    H226732   1.355   4.818   1.855  1.0704  0.1922 -0.3703
 1725TIP3   OH226733   3.799   4.845   6.224 -0.5222 -0.1467  0.2579
 1725TIP3    H126734   3.880   4.864   6.177 -0.7600 -1.8799 -0.9774
 1725TIP3    H226735   3.782   4.923   6.276 -0.1045  1.7990 -2.3708
 1726TIP3   OH226736   2.976   6.897   8.080 -0.8132  0.6718  0.3287
 1726TIP3    H126737   2.914   6.904   8.152  0.8400  1.4032  1.7488
 1726TIP3    H226738   3.054   6.856   8.119 -0.3078 -0.0523 -1.3481
 1727TIP3   OH226739   2.840   1.876   7.845 -0.5689  0.3603  0.3180
 1727TIP3    H126740   2.895   1.807   7.809  1.1243  0.7658  1.9989
 1727TIP3    H226741   2.758   1.832   7.868 -0.1972 -0.6870 -0.3303
 1728TIP3   OH226742   3.149   3.187   7.200  0.2681  0.0950 -0.3954
 1728TIP3    H126743   3.120   3.209   7.288  0.6567 -0.5203 -0.1073
 1728TIP3    H226744   3.157   3.092   7.200  0.1948  0.0799 -1.1206
 1729TIP3   OH226745   5.845   2.175   0.095  0.6401  0.2289 -0.8603
 1729TIP3    H126746   5.922   2.119   0.103  0.0429 -0.6789 -1.2210
 1729TIP3    H226747   5.857   2.243   0.161  1.5782 -0.0948 -0.6828
 1730TIP3   OH226748   3.792   4.514   1.276 -0.0809  0.0877 -0.5911
 1730TIP3    H126749   3.738   4.541   1.349 -0.1357  0.3556 -0.7300
 1730TIP3    H226750   3.796   4.418   1.283  0.1173  0.1292 -0.0989
 1731TIP3   OH226751   4.361   2.931   1.226  0.0993 -0.3949  0.0549
 1731TIP3    H126752   4.383   2.880   1.149  2.1589 -0.9219  0.9369
 1731TIP3    H226753   4.417   3.009   1.220 -1.7342  0.9558 -0.3729
 1732TIP3   OH226754   0.540   3.248   1.419  0.0150  0.1510  0.0175
 1732TIP3    H126755   0.616   3.284   1.464  0.1619  0.8139 -0.7374
 1732TIP3    H226756   0.571   3.166   1.380  0.1901  0.1444  0.1736
 1733TIP3   OH226757   3.630   6.779   0.893  0.1107  0.2237  0.0298
 1733TIP3    H126758   3.676   6.849   0.938  0.3626 -0.2652  0.5477
 1733TIP3    H226759   3.647   6.794   0.800  1.1728  0.1537  0.2016
 1734TIP3   OH226760   4.267   0.609   7.039 -0.3786 -0.1818  0.4422
 1734TIP3    H126761   4.244   0.678   7.101 -0.7139 -0.2549  0.4064
 1734TIP3    H226762   4.183   0.565   7.022 -0.2123 -0.4317  0.2686
 1735TIP3   OH226763   6.637   2.944   0.655  0.3386  0.4584 -0.0167
 1735TIP3    H126764   6.651   3.025   0.606  1.0602 -0.0469 -0.6787
 1735TIP3    H226765   6.693   2.953   0.733  0.6181  0.4954 -0.2199
 1736TIP3   OH226766   6.977   0.811   8.020  0.5105  0.6006  1.2427
 1736TIP3    H126767   6.986   0.772   7.933  1.2531 -1.7545  2.2940
 1736TIP3    H226768   7.063   0.850   8.039  1.1114 -0.9247  1.7955
 1737TIP3   OH226769   6.474   1.086   7.566 -0.2061 -0.3097  0.1044
 1737TIP3    H126770   6.448   1.174   7.541 -2.0339 -0.3748  1.5690
 1737TIP3    H226771   6.497   1.044   7.483 -0.6618  1.1162 -0.7872
 1738TIP3   OH226772   6.468   3.141   7.195  0.2498  0.3659 -0.4271
 1738TIP3    H126773   6.516   3.157   7.276  0.4838 -0.3374 -0.4210
 1738TIP3    H226774   6.380   3.177   7.212 -0.6493 -2.3279  1.2329
 1739TIP3   OH226775   2.402   4.197   1.478 -0.1487 -0.6336 -0.4706
 1739TIP3    H126776   2.317   4.156   1.459  1.0306 -3.5498  0.1982
 1739TIP3    H226777   2.467   4.136   1.444  1.7621  0.6002  0.7847
 1740TIP3   OH226778   0.135   0.228   7.533  0.5331  0.2484  0.4042
 1740TIP3    H126779   0.080   0.288   7.582  0.4186  1.6584 -1.3339
 1740TIP3    H226780   0.156   0.158   7.594  1.4433  2.5072  2.8426
 1741TIP3   OH226781   1.939   7.006   0.459  0.5235  0.1789  0.0789
 1741TIP3    H126782   1.980   7.032   0.376  0.3527 -2.2121 -0.8412
 1741TIP3    H226783   1.852   6.974   0.433  0.7533 -1.2960  1.0720
 1742TIP3   OH226784   2.917   3.787   1.922  0.4622  0.6884  0.2514
 1742TIP3    H126785   2.958   3.757   2.003 -0.6464  0.3054  0.6963
 1742TIP3    H226786   2.827   3.808   1.948 -0.2329 -0.5052 -1.1052
 1743TIP3   OH226787   2.768   1.052   5.672 -0.3366 -0.0784  0.2066
 1743TIP3    H126788   2.745   1.086   5.758 -2.6947 -0.4263 -0.2318
 1743TIP3    H226789   2.789   1.129   5.620 -0.4933  0.2614  0.6468
 1744TIP3   OH226790   0.977   6.065   0.934  0.2907 -0.5547  0.1287
 1744TIP3    H126791   1.024   6.067   0.850 -0.3813 -0.9106 -0.2607
 1744TIP3    H226792   0.895   6.021   0.914 -0.8318  1.2866  0.4981
 1745TIP3   OH226793   5.258   1.059   1.166 -0.3372  0.3110 -0.0867
 1745TIP3    H126794   5.311   1.117   1.221  0.5323 -1.5963  1.2127
 1745TIP3    H226795   5.322   1.018   1.107 -0.5638 -0.8246  0.4221
 1746TIP3   OH226796   0.612   6.340   0.066 -0.1127 -0.3835  0.0171
 1746TIP3    H126797   0.583   6.349   0.157 -0.5393  0.3431 -0.1795
 1746TIP3    H226798   0.654   6.254   0.062  0.8997  0.0317  1.1571
 1747TIP3   OH226799   6.597   6.137   0.917  0.1786 -0.5046  0.5161
 1747TIP3    H126800   6.596   6.232   0.932  0.9328 -0.4590  0.3232
 1747TIP3    H226801   6.513   6.106   0.951 -0.2156  0.2787  0.2749
 1748TIP3   OH226802   3.333   4.685   7.227  0.1628 -0.0743 -0.1780
 1748TIP3    H126803   3.262   4.658   7.169 -0.3792  0.2575  0.3158
 1748TIP3    H226804   3.292   4.749   7.287  0.7130 -0.3713  0.5299
 1749TIP3   OH226805   5.864   5.361   0.181  0.1809 -0.4532  0.1620
 1749TIP3    H126806   5.914   5.361   0.100 -0.4393  0.4036 -0.2369
 1749TIP3    H226807   5.862   5.269   0.208  0.3856 -0.7515 -0.8015
 1750TIP3   OH226808   0.677   0.113   6.202  0.0052  0.5844  0.3637
 1750TIP3    H126809   0.649   0.144   6.288 -0.7166 -0.7140  0.6207
 1750TIP3    H226810   0.761   0.069   6.217 -0.0278  0.5254  0.3764
 1751TIP3   OH226811   0.086   3.235   7.388 -0.5775 -0.2846 -0.5141
 1751TIP3    H126812   0.067   3.317   7.434  0.6762  1.0045 -2.1607
 1751TIP3    H226813   0.037   3.169   7.437 -1.1290  1.3225  1.2667
 1752TIP3   OH226814   2.528   4.785   7.257  0.0980  0.7525  0.0298
 1752TIP3    H126815   2.561   4.822   7.175 -1.6728 -0.6126 -1.3876
 1752TIP3    H226816   2.596   4.725   7.285  0.1101  0.1126 -1.2904
 1753TIP3   OH226817   5.837   2.103   6.060 -0.3674  0.2043 -0.2302
 1753TIP3    H126818   5.871   2.193   6.050 -0.3780  0.3547  0.9716
 1753TIP3    H226819   5.891   2.051   6.001 -0.1568  0.9537 -0.7184
 1754TIP3   OH226820   0.275   1.780   6.472 -0.0684 -0.1308 -0.6153
 1754TIP3    H126821   0.206   1.834   6.434  2.9487  2.3232 -3.2413
 1754TIP3    H226822   0.294   1.821   6.557 -1.7109 -0.8158  0.1154
 1755TIP3   OH226823   1.184   1.469   1.264 -0.4113 -0.3970 -0.2084
 1755TIP3    H126824   1.104   1.491   1.217  0.1024  1.6253 -0.2087
 1755TIP3    H226825   1.158   1.466   1.356 -0.9057 -1.9051 -0.3758
 1756TIP3   OH226826   2.657   4.941   0.770 -0.0885 -0.5382 -0.5174
 1756TIP3    H126827   2.714   4.865   0.781 -0.6299 -0.7971  0.6868
 1756TIP3    H226828   2.569   4.905   0.760 -0.2053 -0.1011 -1.1738
 1757TIP3   OH226829   2.656   3.973   6.729  0.0496 -0.4421  0.6907
 1757TIP3    H126830   2.738   3.948   6.771  0.9393  0.4162 -0.4778
 1757TIP3    H226831   2.600   3.895   6.738  0.7072 -0.7744  2.1463
 1758TIP3   OH226832   1.966   7.029   1.787  0.0857 -0.0213 -0.0526
 1758TIP3    H126833   2.023   7.013   1.712 -1.0079 -1.1382 -0.6880
 1758TIP3    H226834   1.920   6.946   1.799  0.5507 -0.0033  2.1469
 1759TIP3   OH226835   1.256   3.631   5.935  0.3530 -0.3318  0.1001
 1759TIP3    H126836   1.287   3.659   5.849  0.9486 -0.2529  0.3337
 1759TIP3    H226837   1.193   3.698   5.962  0.7000  0.0225  0.0345
 1760TIP3   OH226838   1.069   4.306   7.743 -0.6065 -0.4749 -0.2477
 1760TIP3    H126839   1.039   4.220   7.714 -0.8550 -0.5003  0.0817
 1760TIP3    H226840   1.143   4.288   7.800 -0.8196 -0.4816  0.0245
 1761TIP3   OH226841   5.724   2.208   0.924  0.4858 -0.5826  0.2711
 1761TIP3    H126842   5.791   2.153   0.965  0.6064  0.3290  1.3617
 1761TIP3    H226843   5.771   2.287   0.896  0.3419 -1.0576 -1.3918
 1762TIP3   OH226844   3.070   5.873   6.683 -0.2175 -0.5934 -0.3928
 1762TIP3    H126845   3.048   5.958   6.720  1.8775 -0.8794  1.7555
 1762TIP3    H226846   3.063   5.885   6.588  0.1110  1.9900 -0.1551
 1763TIP3   OH226847   5.668   6.349   2.353 -0.2819  0.1857  0.2404
 1763TIP3    H126848   5.624   6.431   2.378 -0.7057  0.2253 -0.6158
 1763TIP3    H226849   5.605   6.281   2.378 -0.0862  0.1425  0.6145
 1764TIP3   OH226850   0.593   3.262   2.110  0.1004 -0.3216 -0.1227
 1764TIP3    H126851   0.568   3.254   2.202  0.9901  0.7796  0.2272
 1764TIP3    H226852   0.522   3.311   2.070 -0.4578 -1.1023 -0.1089
 1765TIP3   OH226853   6.855   0.398   1.710  0.3323  0.0593  0.3208
 1765TIP3    H126854   6.920   0.329   1.723  0.4195  0.3295  1.3630
 1765TIP3    H226855   6.884   0.470   1.765 -1.1257 -0.0145  1.2552
 1766TIP3   OH226856   2.279   4.538   1.137 -0.2293 -0.1957  0.3994
 1766TIP3    H126857   2.189   4.569   1.147 -0.6568 -1.7802  1.7998
 1766TIP3    H226858   2.275   4.444   1.152  1.8063 -0.1669  1.6435
 1767TIP3   OH226859   6.781   6.381   1.937 -0.0353  0.1723  0.1766
 1767TIP3    H126860   6.692   6.402   1.964 -0.2601 -1.1491  0.5366
 1767TIP3    H226861   6.826   6.465   1.937 -0.8867  0.6625  1.4927
 1768TIP3   OH226862   0.213   4.733   1.075  0.1661 -0.2596  0.6647
 1768TIP3    H126863   0.226   4.742   0.981 -0.6809  3.0183  0.7664
 1768TIP3    H226864   0.127   4.691   1.084  1.3354 -3.0172  0.0869
 1769TIP3   OH226865   5.548   5.610   8.057  0.3099 -0.3410 -0.3976
 1769TIP3    H126866   5.560   5.631   7.965  0.5764  1.0023 -0.0799
 1769TIP3    H226867   5.556   5.694   8.102 -0.4048 -0.8832  0.7949
 1770TIP3   OH226868   5.556   6.776   7.756  0.0123 -0.2553 -0.6700
 1770TIP3    H126869   5.507   6.788   7.674  0.0151 -2.1346 -0.9784
 1770TIP3    H226870   5.627   6.841   7.751 -0.4354  0.1722 -1.7908
 1771TIP3   OH226871   0.605   6.157   0.980 -0.4276  0.1351  1.1785
 1771TIP3    H126872   0.593   6.165   0.886 -0.9393  1.8209  1.3577
 1771TIP3    H226873   0.636   6.067   0.993 -0.8051 -0.2676 -0.5315
 1772TIP3   OH226874   3.133   2.092   0.005  0.1376  0.0412  0.5180
 1772TIP3    H126875   3.086   2.011   0.029  0.7622  0.2668  2.6732
 1772TIP3    H226876   3.126   2.095  -0.091 -0.8421 -1.9880  0.4544
 1773TIP3   OH226877   7.023   5.351   7.120  0.5338 -0.1752 -0.2799
 1773TIP3    H126878   7.025   5.362   7.215  2.4601  2.2766 -0.4920
 1773TIP3    H226879   7.107   5.311   7.098 -0.7300 -2.7465 -0.8738
 1774TIP3   OH226880   0.049   2.200   0.922 -0.0093  0.2829  0.0633
 1774TIP3    H126881  -0.034   2.225   0.882  0.6206  1.8569 -0.3236
 1774TIP3    H226882   0.115   2.225   0.857  0.7696 -1.2536  0.2181
 1775TIP3   OH226883   1.665   3.687   1.419 -0.4781  0.4749  0.3054
 1775TIP3    H126884   1.706   3.617   1.469  0.6875  1.6592  1.0652
 1775TIP3    H226885   1.572   3.663   1.417 -0.0011 -1.5130 -0.2088
 1776TIP3   OH226886   0.520   3.135   0.540  0.5046 -0.0642 -0.1644
 1776TIP3    H126887   0.587   3.157   0.605 -1.2052 -0.1345  1.7403
 1776TIP3    H226888   0.499   3.043   0.557 -0.6120  0.1716 -0.1629
 1777TIP3   OH226889   6.823   2.932   0.906  0.6029  0.1640 -0.1697
 1777TIP3    H126890   6.834   3.018   0.864  1.1516  0.5709  0.7763
 1777TIP3    H226891   6.913   2.905   0.928  0.3602 -0.2253  0.3653
 1778TIP3   OH226892   3.076   5.815   7.702 -0.2164 -0.0319  0.4241
 1778TIP3    H126893   3.122   5.748   7.753  0.9201 -0.8428 -1.5660
 1778TIP3    H226894   3.010   5.766   7.653 -0.2809  0.5104 -0.0338
 1779TIP3   OH226895   4.293   2.314   6.869 -0.0553  0.3375 -0.6521
 1779TIP3    H126896   4.202   2.344   6.867  0.1492  1.1040 -3.6324
 1779TIP3    H226897   4.310   2.283   6.780  2.0891 -1.5537  0.2948
 1780TIP3   OH226898   2.234   3.708   7.265  0.4502 -0.7833  0.4252
 1780TIP3    H126899   2.176   3.715   7.340 -0.0190 -0.2757  0.0249
 1780TIP3    H226900   2.292   3.784   7.272 -0.1062 -0.2880 -0.1380
 1781TIP3   OH226901   3.929   4.465   6.975 -0.0156 -0.2427  0.5360
 1781TIP3    H126902   3.961   4.494   6.889  2.0513  0.9380  1.6273
 1781TIP3    H226903   3.850   4.518   6.989 -1.6792 -1.9978 -1.4898
 1782TIP3   OH226904   4.482   3.241   7.669 -0.1310  0.3405 -0.8373
 1782TIP3    H126905   4.388   3.252   7.687  0.3580  0.8926  1.8176
 1782TIP3    H226906   4.513   3.329   7.646  0.1300  0.6477  0.6116
 1783TIP3   OH226907   5.915   2.126   2.191  0.3473 -0.0289  0.6108
 1783TIP3    H126908   5.968   2.050   2.165  1.3713  0.9187 -0.1465
 1783TIP3    H226909   5.844   2.128   2.127  1.0278  0.3759 -0.1483
 1784TIP3   OH226910   5.926   2.413   6.934 -0.5186  0.2515  0.5879
 1784TIP3    H126911   5.870   2.344   6.898 -0.7168  0.2927  0.8211
 1784TIP3    H226912   6.005   2.410   6.879 -0.8551  0.3735  0.0868
 1785TIP3   OH226913   6.665   0.658   0.080  0.4047  0.0801  0.0034
 1785TIP3    H126914   6.678   0.640   0.173 -1.1936  0.2937  0.2855
 1785TIP3    H226915   6.701   0.746   0.067  2.9405 -0.8868 -0.1669
 1786TIP3   OH226916   3.861   6.625   6.365 -0.1693  0.9935  0.8584
 1786TIP3    H126917   3.913   6.674   6.301 -1.1482  1.1506  0.1641
 1786TIP3    H226918   3.884   6.533   6.349 -1.0801  0.9529 -0.3656
 1787TIP3   OH226919   4.984   0.180   7.049 -0.2417  0.4059  0.6129
 1787TIP3    H126920   4.898   0.213   7.074 -1.7543 -1.9533 -1.0280
 1787TIP3    H226921   5.003   0.111   7.114  0.1675  0.5606  0.6590
 1788TIP3   OH226922   5.413   1.998   1.152 -0.4410  0.0790  0.1208
 1788TIP3    H126923   5.491   2.003   1.209 -1.0811  1.6777  0.9306
 1788TIP3    H226924   5.413   2.082   1.106 -2.1323  0.4835  0.7823
 1789TIP3   OH226925   4.375   4.481   6.998 -0.4332 -0.1803 -0.9832
 1789TIP3    H126926   4.336   4.429   6.927  0.8407  0.0751 -1.9079
 1789TIP3    H226927   4.409   4.559   6.954 -0.5114  0.4733  0.0816
 1790TIP3   OH226928   6.631   5.606   2.372 -0.4983  0.4970 -0.3210
 1790TIP3    H126929   6.649   5.650   2.289  0.9522  2.4281  0.9233
 1790TIP3    H226930   6.717   5.594   2.412 -0.7549 -3.8180 -0.6194
 1791TIP3   OH226931   6.404   0.334   1.344  0.2034 -0.0583 -0.2320
 1791TIP3    H126932   6.468   0.355   1.412 -1.7858  0.7268  1.5188
 1791TIP3    H226933   6.426   0.393   1.272  0.0958  1.9119  1.2444
 1792TIP3   OH226934   4.162   6.739   0.625 -0.4362  0.3319 -0.1844
 1792TIP3    H126935   4.211   6.718   0.545  0.8452  0.3835  0.5725
 1792TIP3    H226936   4.089   6.793   0.594 -0.1760  0.0352 -1.3656
 1793TIP3   OH226937   2.663   2.978   7.314 -0.1154 -0.0425 -0.0117
 1793TIP3    H126938   2.657   3.070   7.340 -2.3728 -0.0421 -0.3802
 1793TIP3    H226939   2.601   2.969   7.241  0.3614 -1.7742 -0.2541
 1794TIP3   OH226940   6.674   2.950   1.151  0.2487 -0.0529  0.7078
 1794TIP3    H126941   6.741   2.928   1.087  0.3207 -0.2452  0.8499
 1794TIP3    H226942   6.596   2.904   1.122  0.1221  0.3293  0.4311
 1795TIP3   OH226943   0.166   2.561   1.313 -0.7794  0.1990  0.0435
 1795TIP3    H126944   0.227   2.620   1.269 -0.2585 -1.0936 -1.0346
 1795TIP3    H226945   0.137   2.610   1.390  2.3492  0.5540  1.1525
 1796TIP3   OH226946   5.296   6.565   6.834 -0.4135  0.2372  0.3835
 1796TIP3    H126947   5.356   6.528   6.769  0.5420  3.6009 -0.8186
 1796TIP3    H226948   5.349   6.577   6.912 -0.9016 -1.3694  1.0123
 1797TIP3   OH226949   4.479   5.534   1.248  0.3324 -1.0387  0.8137
 1797TIP3    H126950   4.413   5.466   1.233  1.6257 -2.0915 -0.2694
 1797TIP3    H226951   4.558   5.486   1.274  0.7642  0.1904  1.9052
 1798TIP3   OH226952   4.581   2.676   8.094 -0.4713  0.0729 -0.6462
 1798TIP3    H126953   4.637   2.750   8.117 -0.3546  0.3919 -1.8923
 1798TIP3    H226954   4.497   2.715   8.070 -0.5024 -0.2163 -1.0166
 1799TIP3   OH226955   4.850   1.304   6.307 -0.6601 -0.0216  0.4432
 1799TIP3    H126956   4.849   1.393   6.273  0.1936  1.1230  3.1018
 1799TIP3    H226957   4.885   1.251   6.236 -1.7562  1.6374 -1.4177
 1800TIP3   OH226958   6.734   4.777   8.158  0.2837  0.3702  0.1353
 1800TIP3    H126959   6.715   4.723   8.082 -0.0357  0.3217  0.2485
 1800TIP3    H226960   6.821   4.812   8.141  0.8470 -0.8298  0.4428
 1801TIP3   OH226961   2.873   0.791   1.060 -0.0465  1.3556 -0.2946
 1801TIP3    H126962   2.900   0.721   1.120  0.5075  0.6710 -1.3156
 1801TIP3    H226963   2.931   0.782   0.984  0.8071  3.6299 -0.0032
 1802TIP3   OH226964   6.894   3.360   1.288  0.0755  0.3737  0.4391
 1802TIP3    H126965   6.959   3.292   1.306 -1.1029 -0.2322  2.7275
 1802TIP3    H226966   6.825   3.314   1.240  0.2110  0.4625  0.1536
 1803TIP3   OH226967   5.688   4.375   0.378  0.1325  0.4315  0.1619
 1803TIP3    H126968   5.655   4.412   0.296 -0.2145 -1.4213 -0.5633
 1803TIP3    H226969   5.778   4.409   0.385  0.6856 -0.5404 -1.7432
 1804TIP3   OH226970   5.939   4.033   0.934  0.0277 -0.1107  0.1911
 1804TIP3    H126971   5.974   4.093   0.999 -0.7390  1.1111 -0.4829
 1804TIP3    H226972   5.916   3.954   0.984  4.1864 -1.2993  0.5912
 1805TIP3   OH226973   3.663   5.012   0.972 -0.3987 -0.6337  0.3237
 1805TIP3    H126974   3.757   5.013   0.957 -0.5547  0.2541 -0.7124
 1805TIP3    H226975   3.654   5.009   1.067  0.6690 -0.7483  0.4292
 1806TIP3   OH226976   1.481   3.335   2.336  0.4430 -0.1393  0.0576
 1806TIP3    H126977   1.531   3.416   2.333  0.8790 -0.4180 -2.1866
 1806TIP3    H226978   1.390   3.363   2.324  0.1093  0.2469  2.8003
 1807TIP3   OH226979   0.448   0.922   8.059  0.0318  0.3440  0.5837
 1807TIP3    H126980   0.481   1.012   8.063  1.2456 -0.1255  2.8300
 1807TIP3    H226981   0.362   0.925   8.099  0.1376  0.4745  0.7987
 1808TIP3   OH226982   5.778   1.244   1.314  1.0631  0.3197  0.3309
 1808TIP3    H126983   5.783   1.170   1.253 -0.4123  0.2668  0.2572
 1808TIP3    H226984   5.780   1.204   1.400 -0.9854  0.0441  0.3029
 1809TIP3   OH226985   3.995   3.908   1.565  0.3899  0.4219 -0.0789
 1809TIP3    H126986   4.011   3.818   1.593 -1.9652  0.0717  0.3739
 1809TIP3    H226987   3.919   3.902   1.507  0.9519  1.9990 -1.0377
 1810TIP3   OH226988   3.539   0.478   1.607  0.5195  0.2882 -0.0331
 1810TIP3    H126989   3.586   0.555   1.637  3.1899 -1.2730  0.1148
 1810TIP3    H226990   3.605   0.424   1.564 -1.6335 -1.0682 -1.9125
 1811TIP3   OH226991   5.342   2.747   1.077 -0.1387 -0.1008  0.2883
 1811TIP3    H126992   5.349   2.785   0.989  3.3901  0.2918  0.6198
 1811TIP3    H226993   5.307   2.659   1.062 -1.1052  0.5132 -1.3053
 1812TIP3   OH226994   2.936   5.839   1.812 -0.0068 -0.5231  0.1851
 1812TIP3    H126995   2.844   5.864   1.806 -0.0042 -0.4367  0.4757
 1812TIP3    H226996   2.975   5.870   1.731 -0.2536 -0.6376  0.0224
 1813TIP3   OH226997   4.830   0.978   7.958  0.6033 -0.2014 -0.0949
 1813TIP3    H126998   4.745   1.021   7.972  1.1022  1.2753 -1.2733
 1813TIP3    H226999   4.875   0.988   8.042 -0.2385 -0.6588  0.4249
 1814TIP3   OH227000   3.767   1.141   6.444 -0.0164 -0.1718 -0.5136
 1814TIP3    H127001   3.674   1.162   6.440 -0.4880 -2.0637 -0.4850
 1814TIP3    H227002   3.806   1.190   6.371 -1.3075 -0.5477 -1.4852
 1815TIP3   OH227003   1.123   2.028   7.899  0.3053 -0.7560  0.0413
 1815TIP3    H127004   1.197   2.080   7.929 -0.9887  1.2687 -0.0211
 1815TIP3    H227005   1.142   2.010   7.807  1.2716 -1.3194  0.3469
 1816TIP3   OH227006   1.014   5.044   6.882  1.6575  0.0728 -0.1022
 1816TIP3    H127007   1.039   5.127   6.843 -2.2426  0.4884 -2.2253
 1816TIP3    H227008   0.993   4.988   6.808 -2.3163 -0.4232  1.1550
 1817TIP3   OH227009   6.868   1.548   1.093  0.1300 -0.0264 -0.0608
 1817TIP3    H127010   6.857   1.462   1.134 -3.0020 -0.8319 -2.2085
 1817TIP3    H227011   6.919   1.530   1.014 -0.1397  0.1590 -0.2779
 1818TIP3   OH227012   6.568   5.225   6.904  0.1675  0.0521  0.0586
 1818TIP3    H127013   6.582   5.131   6.904  2.6771  0.2448  3.5126
 1818TIP3    H227014   6.656   5.263   6.905 -0.6901  2.6398 -3.2168
 1819TIP3   OH227015   5.235   5.151   6.257 -0.3221 -0.1044 -0.2779
 1819TIP3    H127016   5.151   5.170   6.298 -0.9381 -0.6866 -1.2306
 1819TIP3    H227017   5.230   5.192   6.171  0.3742 -0.1455 -0.3452
 1820TIP3   OH227018   2.691   4.594   7.389  0.3563 -0.3284 -0.2670
 1820TIP3    H127019   2.681   4.526   7.455 -0.4896  1.7120  1.8799
 1820TIP3    H227020   2.778   4.631   7.405  1.4892 -1.8356 -2.4713
 1821TIP3   OH227021   6.464   2.556   1.754  0.6779  0.1031 -0.0033
 1821TIP3    H127022   6.535   2.596   1.703  1.0776 -1.7063 -0.9659
 1821TIP3    H227023   6.452   2.615   1.828 -0.3445  3.2440 -2.4395
 1822TIP3   OH227024   1.316   6.212   6.695  0.3995 -0.2185  0.0793
 1822TIP3    H127025   1.221   6.208   6.699  0.4226 -0.2291  0.6966
 1822TIP3    H227026   1.346   6.159   6.769  0.8993 -1.0842 -0.7332
 1823TIP3   OH227027   6.930   3.990   6.203 -0.3357  0.0542  0.1637
 1823TIP3    H127028   6.990   4.046   6.251 -0.1275 -0.0523  0.0277
 1823TIP3    H227029   6.964   3.990   6.113 -0.7177  0.2507  0.0165
 1824TIP3   OH227030   4.013   6.532   7.345 -0.4756 -0.1312 -0.6167
 1824TIP3    H127031   4.039   6.587   7.271  1.4305 -0.4741 -0.2325
 1824TIP3    H227032   4.077   6.462   7.347 -0.5658 -0.2078  1.2842
 1825TIP3   OH227033   0.806   2.545   0.702  0.0989  0.3084  0.1215
 1825TIP3    H127034   0.882   2.495   0.731  1.1896  0.0026 -2.8641
 1825TIP3    H227035   0.821   2.634   0.733  1.4705  0.1412 -0.0026
 1826TIP3   OH227036   5.111   5.416   7.371 -0.4967  0.4701  0.1894
 1826TIP3    H127037   5.069   5.335   7.342  1.8972 -0.9730  0.5048
 1826TIP3    H227038   5.106   5.412   7.466  0.2484  0.3265  0.2244
 1827TIP3   OH227039   2.865   6.759   0.035  0.9468 -0.1384 -0.2432
 1827TIP3    H127040   2.814   6.683   0.006  0.3002  0.5851 -1.0179
 1827TIP3    H227041   2.957   6.732   0.023  0.7117 -0.3986 -1.5763
 1828TIP3   OH227042   5.048   1.035   1.777  0.2576 -0.6279 -0.4724
 1828TIP3    H127043   5.118   1.063   1.718  1.7886  1.0070  1.9832
 1828TIP3    H227044   5.074   0.947   1.805  0.6714 -0.5326 -0.5501
 1829TIP3   OH227045   5.446   2.317   1.599  0.4251 -0.6002  0.0329
 1829TIP3    H127046   5.434   2.349   1.509 -0.2344  0.6274  0.5462
 1829TIP3    H227047   5.449   2.222   1.589 -0.5126 -0.5309 -1.2009
 1830TIP3   OH227048   2.186   5.208   7.646  0.0507  0.2475 -0.5705
 1830TIP3    H127049   2.213   5.253   7.726  0.7036  0.2337 -0.7756
 1830TIP3    H227050   2.131   5.136   7.677 -0.9549  1.1358 -0.2378
 1831TIP3   OH227051   6.895   4.642   7.783 -0.2809  0.3877 -0.3008
 1831TIP3    H127052   6.814   4.689   7.803 -0.3736  0.7113 -1.3436
 1831TIP3    H227053   6.917   4.670   7.694  0.4639 -0.4288 -0.3875
 1832TIP3   OH227054   4.022   4.318   7.721  0.5395  0.2041 -0.2669
 1832TIP3    H127055   4.058   4.403   7.696 -2.0807  1.0041 -1.7838
 1832TIP3    H227056   4.098   4.262   7.734  2.3136  2.3025 -0.9561
 1833TIP3   OH227057   5.372   1.905   0.456  0.2582 -0.3548  0.0389
 1833TIP3    H127058   5.365   1.926   0.549 -2.0706 -0.1701 -0.1182
 1833TIP3    H227059   5.410   1.983   0.417 -0.8467  0.4882  0.5626
 1834TIP3   OH227060   5.241   4.036   1.002 -0.0887 -0.9024 -0.5910
 1834TIP3    H127061   5.314   4.026   1.063  0.9315  2.7196 -0.9389
 1834TIP3    H227062   5.171   4.075   1.054 -0.6109 -1.3675 -0.9369
 1835TIP3   OH227063   5.152   5.901   6.714  0.0813  0.0312  0.7335
 1835TIP3    H127064   5.158   5.811   6.682  0.2375 -0.1719  1.3127
 1835TIP3    H227065   5.242   5.934   6.709 -0.0109  0.2339  0.3187
 1836TIP3   OH227066   4.313   5.538   0.622 -0.1534 -0.6993  0.2391
 1836TIP3    H127067   4.399   5.521   0.585  0.1976 -2.0947  1.6159
 1836TIP3    H227068   4.255   5.547   0.546  1.0272 -0.5977 -0.6744
 1837TIP3   OH227069   4.324   6.977   6.166  0.2328  0.1588  0.0708
 1837TIP3    H127070   4.277   7.034   6.105  3.1903  1.4742 -1.1546
 1837TIP3    H227071   4.363   7.036   6.229 -0.1068 -0.9355  1.3521
 1838TIP3   OH227072   4.770   1.522   7.579 -0.3570 -0.2093 -0.4719
 1838TIP3    H127073   4.864   1.514   7.594 -0.5511 -2.2617 -0.0424
 1838TIP3    H227074   4.760   1.603   7.528  1.6678 -0.1770 -0.8888
 1839TIP3   OH227075   5.704   5.890   1.266 -0.1048  0.4346 -0.4040
 1839TIP3    H127076   5.693   5.807   1.220 -2.1455  0.7325 -0.5388
 1839TIP3    H227077   5.794   5.916   1.248  0.6016 -1.7593 -0.3147
 1840TIP3   OH227078   2.177   5.790   7.088 -0.0051  0.0438  0.0056
 1840TIP3    H127079   2.227   5.796   7.169  0.2433  0.3677 -0.1726
 1840TIP3    H227080   2.087   5.773   7.117  0.2028 -0.5636  0.3245
 1841TIP3   OH227081   5.761   3.630   7.772  0.5796  0.2402 -0.3613
 1841TIP3    H127082   5.800   3.582   7.845  1.6846 -0.9255 -1.6641
 1841TIP3    H227083   5.836   3.669   7.726  0.0318 -0.1078 -1.5993
 1842TIP3   OH227084   4.891   3.336   7.495  0.2875  0.8137  0.3237
 1842TIP3    H127085   4.912   3.416   7.543 -1.9118  0.6022  1.7949
 1842TIP3    H227086   4.796   3.328   7.503  0.3474 -1.4786 -0.5581
 1843TIP3   OH227087   4.461   0.528   7.427 -0.0774  0.1951 -0.1221
 1843TIP3    H127088   4.381   0.579   7.440  0.1711  0.1185  1.9815
 1843TIP3    H227089   4.518   0.587   7.377 -1.2642  0.3783 -1.3503
 1844TIP3   OH227090   4.610   5.038   7.357  0.1260  0.3006 -0.5427
 1844TIP3    H127091   4.644   5.100   7.292 -0.9480  1.3126 -0.1897
 1844TIP3    H227092   4.677   4.971   7.364  2.5773  2.6783  0.8323
 1845TIP3   OH227093   1.499   1.239   1.640  0.2246  0.4798 -0.2217
 1845TIP3    H127094   1.409   1.236   1.672  1.2746  0.8751  3.1543
 1845TIP3    H227095   1.510   1.159   1.590 -1.8019  0.0966 -0.1207
 1846TIP3   OH227096   2.370   0.877   2.056  0.1290 -0.8808 -0.1244
 1846TIP3    H127097   2.286   0.874   2.103 -0.9288 -4.5035 -1.8255
 1846TIP3    H227098   2.347   0.906   1.968  1.1801  0.6925  0.0899
 1847TIP3   OH227099   1.565   0.288   7.454  0.2073 -0.0236  0.0100
 1847TIP3    H127100   1.615   0.215   7.418  2.3048  0.5422  1.5686
 1847TIP3    H227101   1.517   0.250   7.528  0.8488  0.0469  0.4677
 1848TIP3   OH227102   0.741   6.864   7.691 -0.4807 -0.1732 -0.0399
 1848TIP3    H127103   0.680   6.929   7.727 -0.6330  0.2079 -0.9635
 1848TIP3    H227104   0.737   6.791   7.753 -1.3370  0.1416  0.2966
 1849TIP3   OH227105   6.041   4.088   5.590 -0.5914  0.6516 -0.0996
 1849TIP3    H127106   6.018   4.173   5.626  0.1108  0.7139  0.2014
 1849TIP3    H227107   5.987   4.026   5.640 -0.1730  0.8060  0.5576
 1850TIP3   OH227108   4.437   1.970   6.308  0.5102 -0.2076  0.2567
 1850TIP3    H127109   4.513   2.011   6.350  0.7335 -2.0270  1.7347
 1850TIP3    H227110   4.472   1.929   6.229  0.6866  0.5816 -0.0826
 1851TIP3   OH227111   3.201   5.241   1.944  0.3893 -0.4304  0.0549
 1851TIP3    H127112   3.230   5.326   1.911 -1.4091  0.0143 -0.4881
 1851TIP3    H227113   3.133   5.213   1.882  0.3645 -1.8802  0.6891
 1852TIP3   OH227114   2.555   1.402   8.231  0.1888  0.2168 -0.2992
 1852TIP3    H127115   2.549   1.368   8.320 -0.1265 -1.0445 -0.7770
 1852TIP3    H227116   2.645   1.384   8.204  0.4835  1.1992 -0.0262
 1853TIP3   OH227117   3.235   6.143   0.039  0.2906  0.2346 -0.2214
 1853TIP3    H127118   3.250   6.164   0.132 -1.8719  0.6255  0.0981
 1853TIP3    H227119   3.312   6.093   0.013 -0.5230 -2.9996  2.7808
 1854TIP3   OH227120   4.084   0.347   0.090 -0.0126  0.5753 -0.4882
 1854TIP3    H127121   4.003   0.356   0.040 -0.7375  0.0784  0.5583
 1854TIP3    H227122   4.123   0.266   0.058  0.0209  0.7504 -0.9035
 1855TIP3   OH227123   1.041   5.695   7.396 -0.0743 -0.0271  0.0636
 1855TIP3    H127124   1.035   5.634   7.322  1.1263  1.2672 -1.1565
 1855TIP3    H227125   1.008   5.778   7.361 -0.7608  0.2880  1.4009
 1856TIP3   OH227126   4.316   0.454   1.099 -0.3859  0.6333 -0.3931
 1856TIP3    H127127   4.320   0.534   1.151  0.8626  0.2171  0.1954
 1856TIP3    H227128   4.239   0.407   1.131  2.2203 -1.3242  3.7422
 1857TIP3   OH227129   0.370   1.066   6.920 -0.0300 -0.0550  0.1477
 1857TIP3    H127130   0.341   0.983   6.883  0.3382  0.3266 -1.0732
 1857TIP3    H227131   0.369   1.126   6.845 -1.9216  1.4849  1.3024
 1858TIP3   OH227132   6.425   4.804   6.750 -0.2570 -0.0753  0.1133
 1858TIP3    H127133   6.373   4.815   6.830 -0.8661 -0.3666 -0.2317
 1858TIP3    H227134   6.373   4.846   6.682 -0.3138 -0.8554 -0.3400
 1859TIP3   OH227135   1.970   0.526   8.069 -0.2579  0.2588 -0.2346
 1859TIP3    H127136   1.993   0.447   8.020  0.0906 -0.3517  0.8819
 1859TIP3    H227137   1.875   0.533   8.059 -0.2787 -0.2401 -0.4291
 1860TIP3   OH227138   3.287   4.179   6.542  0.5514 -0.1329  0.6002
 1860TIP3    H127139   3.206   4.201   6.588  0.3866  1.3599 -0.3469
 1860TIP3    H227140   3.278   4.086   6.521 -1.2387  0.1581 -0.0835
 1861TIP3   OH227141   6.160   2.889   7.068 -0.1887  0.6251 -0.2113
 1861TIP3    H127142   6.146   2.794   7.073  1.3721  0.3590 -0.4261
 1861TIP3    H227143   6.204   2.911   7.150 -0.3305  1.1298 -0.2701
 1862TIP3   OH227144   4.112   5.412   0.047 -0.3433 -0.0969 -0.4007
 1862TIP3    H127145   4.169   5.470  -0.003 -0.3589  2.1625  2.0483
 1862TIP3    H227146   4.026   5.454   0.045 -1.4494 -2.1811 -1.9168
 1863TIP3   OH227147   6.033   4.349   5.695  0.4699 -0.3446 -0.2074
 1863TIP3    H127148   6.084   4.344   5.776 -1.1136 -2.8824  0.7414
 1863TIP3    H227149   5.977   4.425   5.707  0.7736 -0.2586  0.7864
 1864TIP3   OH227150   4.709   0.509   1.456  0.6422  0.1555  0.0255
 1864TIP3    H127151   4.760   0.437   1.420  1.6233  1.0413 -0.3989
 1864TIP3    H227152   4.658   0.542   1.382 -1.2273 -1.2315  0.6134
 1865TIP3   OH227153   3.760   3.997   1.095  0.2303  0.0956 -0.3483
 1865TIP3    H127154   3.770   3.990   1.000  2.4165  0.6221 -0.2088
 1865TIP3    H227155   3.757   3.906   1.125 -1.3673 -0.0903 -0.9408
 1866TIP3   OH227156   3.423   0.878   7.875  0.1185 -0.4276 -0.1231
 1866TIP3    H127157   3.474   0.800   7.854  1.4326  0.2101  0.5389
 1866TIP3    H227158   3.340   0.866   7.830  0.2650 -2.2300  0.0290
 1867TIP3   OH227159   6.175   3.626   0.868  0.0635 -0.0871  0.4402
 1867TIP3    H127160   6.153   3.672   0.949  3.2844 -0.1169  1.4674
 1867TIP3    H227161   6.131   3.676   0.800  0.7479  2.5818  1.8255
 1868TIP3   OH227162   5.672   4.735   1.942 -0.1814 -0.5942 -0.0289
 1868TIP3    H127163   5.596   4.695   1.899  1.4365 -2.7917 -1.0083
 1868TIP3    H227164   5.658   4.719   2.036 -1.6464  0.4069 -0.0526
 1869TIP3   OH227165   0.927   4.824   7.328 -0.0501 -0.1223 -0.3747
 1869TIP3    H127166   0.963   4.826   7.417 -0.8815 -1.0091  0.0040
 1869TIP3    H227167   0.942   4.735   7.298  0.8723  0.3713 -1.4204
 1870TIP3   OH227168   0.843   6.257   0.555 -0.3883  0.5439 -0.0734
 1870TIP3    H127169   0.831   6.345   0.519  1.6571  0.1145 -2.0029
 1870TIP3    H227170   0.927   6.261   0.601  0.7599 -0.8345 -1.9095
 1871TIP3   OH227171   6.658   0.827   7.660 -0.0967 -0.4287  0.0439
 1871TIP3    H127172   6.652   0.804   7.568  0.3906  1.5047 -0.5062
 1871TIP3    H227173   6.749   0.854   7.673 -0.6054  1.0902  0.6331
 1872TIP3   OH227174   5.721   7.017   7.607 -0.9324  0.4092  0.1666
 1872TIP3    H127175   5.632   7.019   7.573 -2.1807 -0.4091  3.0730
 1872TIP3    H227176   5.727   7.095   7.663  0.1206  0.3409  0.1684
 1873TIP3   OH227177   3.122   0.884   6.840 -0.4026  0.3161 -0.6254
 1873TIP3    H127178   3.050   0.832   6.875  1.0708 -1.5980 -0.2472
 1873TIP3    H227179   3.173   0.910   6.917  0.6128 -0.4097 -1.0325
 1874TIP3   OH227180   0.450   0.341   8.106 -0.0022 -0.4708 -0.1895
 1874TIP3    H127181   0.363   0.336   8.066  0.2905  1.0843 -1.1090
 1874TIP3    H227182   0.501   0.394   8.044  1.5458 -1.2037  0.4285
 1875TIP3   OH227183   1.930   1.546   0.637  0.2161  0.1201 -0.1872
 1875TIP3    H127184   1.952   1.578   0.725  0.0396  2.1641 -0.8325
 1875TIP3    H227185   1.852   1.492   0.650  0.4438  0.0425  0.9537
 1876TIP3   OH227186   7.045   2.163   0.545  0.8045  0.0297  0.5395
 1876TIP3    H127187   7.009   2.231   0.488  1.0633 -1.0682 -0.9965
 1876TIP3    H227188   7.096   2.211   0.610  1.6028  1.2917 -0.9499
 1877TIP3   OH227189   6.819   4.533   6.599  0.2510 -0.3393 -0.9514
 1877TIP3    H127190   6.875   4.586   6.656 -1.1455 -0.1170  0.3031
 1877TIP3    H227191   6.759   4.596   6.559 -0.0537 -0.7288 -1.1177
 1878TIP3   OH227192   5.925   1.197   7.819 -0.2499 -0.5826 -0.2486
 1878TIP3    H127193   5.838   1.208   7.857 -0.0716 -0.3004  0.0762
 1878TIP3    H227194   5.985   1.234   7.883  0.0772 -0.3538 -0.6787
 1879TIP3   OH227195   3.207   2.159   6.339  0.0699 -0.3037 -0.1358
 1879TIP3    H127196   3.176   2.079   6.297  0.5657 -0.6083  0.0763
 1879TIP3    H227197   3.278   2.190   6.283 -0.8064  0.5665 -0.7906
 1880TIP3   OH227198   5.961   5.849   6.297 -0.1424 -0.3499  0.1131
 1880TIP3    H127199   6.001   5.936   6.294  0.6848 -0.7048  0.4736
 1880TIP3    H227200   5.887   5.859   6.357  0.8001 -0.2110  1.3001
 1881TIP3   OH227201   0.651   4.251   5.936  0.0902 -0.1992  0.8905
 1881TIP3    H127202   0.687   4.311   6.002  0.7440 -0.8349  1.1249
 1881TIP3    H227203   0.622   4.175   5.986  0.6494 -0.7111  0.4397
 1882TIP3   OH227204   2.904   3.330   6.060 -0.1767  0.6231 -0.4732
 1882TIP3    H127205   2.942   3.302   6.144  2.0060 -0.3327 -1.6911
 1882TIP3    H227206   2.859   3.412   6.080  0.0382  0.2773  1.6720
 1883TIP3   OH227207   6.750   6.948   8.042 -0.5845  0.6638 -0.0242
 1883TIP3    H127208   6.821   6.995   8.085 -1.3573  1.5411  0.3464
 1883TIP3    H227209   6.725   7.003   7.968 -0.6506  0.2012 -0.3486
 1884TIP3   OH227210   4.524   6.053   1.989 -0.2447 -0.2213 -0.4566
 1884TIP3    H127211   4.586   5.981   1.989 -0.7222 -0.6987 -2.6893
 1884TIP3    H227212   4.461   6.031   2.058  1.9854  0.3150  1.9166
 1885TIP3   OH227213   2.060   0.919   7.007  0.0021 -0.0041  1.0893
 1885TIP3    H127214   1.983   0.932   7.064  0.0449  1.1992  0.8997
 1885TIP3    H227215   2.094   1.007   6.992  0.7093 -0.4138  0.1715
 1886TIP3   OH227216   3.474   3.083   6.645 -0.1836 -0.0699  0.0051
 1886TIP3    H127217   3.462   3.174   6.673 -2.1458 -0.2727 -0.0081
 1886TIP3    H227218   3.460   3.032   6.724 -0.5769 -0.4146 -0.2849
 1887TIP3   OH227219   0.008   2.293   8.184  0.5274  0.1766  0.6376
 1887TIP3    H127220   0.069   2.283   8.111  0.2640 -0.3013  0.4758
 1887TIP3    H227221   0.060   2.334   8.253  0.9218  0.1523  0.3602
 1888TIP3   OH227222   0.136   3.917   0.326 -0.1145 -0.7408  0.0421
 1888TIP3    H127223   0.142   3.912   0.231 -0.3804  0.6662 -0.0824
 1888TIP3    H227224   0.122   3.827   0.355 -1.8378 -0.9835 -1.3944
 1889TIP3   OH227225   4.901   2.731   0.459 -0.3143 -0.3055  0.2143
 1889TIP3    H127226   4.970   2.695   0.402  1.2433 -1.8721  2.8923
 1889TIP3    H227227   4.932   2.818   0.482  0.5461 -0.8083  1.0003
 1890TIP3   OH227228   3.705   6.558   0.098 -0.1075  0.1170  0.6777
 1890TIP3    H127229   3.715   6.559   0.193  1.6478  1.3890  0.5228
 1890TIP3    H227230   3.615   6.587   0.082  0.3506  2.3552  1.9017
 1891TIP3   OH227231   0.533   1.116   0.052 -0.1329  0.6945  0.5601
 1891TIP3    H127232   0.572   1.038   0.012  0.1666  0.8331  0.5806
 1891TIP3    H227233   0.478   1.153  -0.017  0.3119  0.8815  0.3014
 1892TIP3   OH227234   6.692   3.458   6.809 -0.1813  0.0420 -0.4619
 1892TIP3    H127235   6.763   3.399   6.785 -1.6174 -2.1110  0.3048
 1892TIP3    H227236   6.676   3.441   6.902  0.0165  2.4526  0.1036
 1893TIP3   OH227237   2.633   6.240   1.617 -0.1252  0.3504  0.4190
 1893TIP3    H127238   2.656   6.151   1.645 -1.5722  0.1994  1.2580
 1893TIP3    H227239   2.701   6.296   1.653  1.1547 -0.4573 -0.6468
 1894TIP3   OH227240   2.094   4.408   0.851 -0.7658  0.3764  0.0340
 1894TIP3    H127241   2.037   4.338   0.885 -2.2244  0.4310 -2.1190
 1894TIP3    H227242   2.039   4.487   0.854 -0.5943  0.5790 -1.3823
 1895TIP3   OH227243   6.392   6.101   1.598  0.0348  0.1940 -0.6970
 1895TIP3    H127244   6.364   6.010   1.597  0.5054  0.0200  0.1829
 1895TIP3    H227245   6.322   6.149   1.554 -2.0201 -0.1378  1.9282
 1896TIP3   OH227246   1.010   0.450   6.340 -0.6188 -0.0427  0.1995
 1896TIP3    H127247   1.047   0.537   6.327 -0.7015  0.0615  0.6406
 1896TIP3    H227248   0.917   0.465   6.355 -0.6446 -0.2119  0.2119
 1897TIP3   OH227249   0.109   4.819   7.660 -1.0577  0.1622  0.0748
 1897TIP3    H127250   0.126   4.749   7.596  0.0026  1.2367 -0.8528
 1897TIP3    H227251   0.065   4.887   7.609 -3.5382 -0.4086  1.3133
 1898TIP3   OH227252   6.868   5.118   1.317 -0.0593 -0.4573  0.0518
 1898TIP3    H127253   6.935   5.187   1.315 -1.0751  0.5744  0.3600
 1898TIP3    H227254   6.798   5.152   1.262 -0.1719 -1.7176 -0.6239
 1899TIP3   OH227255   6.894   1.810   1.015  0.1259 -0.1972  0.0636
 1899TIP3    H127256   6.882   1.724   1.055 -1.3444 -0.1744 -0.2493
 1899TIP3    H227257   6.965   1.798   0.953 -2.0349 -2.1039 -2.2854
 1900TIP3   OH227258   1.207   3.192   6.665  0.3245 -0.0113 -0.0010
 1900TIP3    H127259   1.192   3.257   6.733  1.3037 -0.4705  0.6753
 1900TIP3    H227260   1.266   3.235   6.603 -1.8790  1.0214 -1.5204
 1901TIP3   OH227261   6.938   3.181   1.569  0.0615 -0.1953  0.4349
 1901TIP3    H127262   6.954   3.115   1.637 -1.8471  0.0969  1.2448
 1901TIP3    H227263   6.872   3.142   1.512 -0.2473  0.5663  0.2541
 1902TIP3   OH227264   0.194   0.557   6.483 -0.1182  0.2603 -0.2799
 1902TIP3    H127265   0.147   0.638   6.463 -0.0583 -0.0076 -1.6319
 1902TIP3    H227266   0.180   0.502   6.405  2.1706  0.0463 -0.5886
 1903TIP3   OH227267   0.016   4.012   6.603 -0.0372 -0.2332 -0.2600
 1903TIP3    H127268  -0.007   3.950   6.535 -0.6585 -1.4768  1.0458
 1903TIP3    H227269  -0.008   4.098   6.566  2.0873 -0.5405 -2.6261
 1904TIP3   OH227270   6.403   6.735   7.772 -0.6924 -0.2008 -0.0839
 1904TIP3    H127271   6.336   6.675   7.739  0.2428 -0.5098 -1.5415
 1904TIP3    H227272   6.358   6.786   7.839 -2.0732 -1.1486 -0.2308
 1905TIP3   OH227273   6.510   6.114   1.920  0.7398  0.3908  0.3908
 1905TIP3    H127274   6.424   6.088   1.952  0.2802  1.0542 -0.2705
 1905TIP3    H227275   6.547   6.169   1.989 -0.6346  2.6109 -0.5195
 1906TIP3   OH227276   3.035   4.004   8.150  0.4527  0.2800 -0.3717
 1906TIP3    H127277   3.095   3.931   8.135  0.3523 -0.2711  1.5711
 1906TIP3    H227278   2.951   3.973   8.118  0.9703  0.6900 -2.2250
 1907TIP3   OH227279   3.656   0.471   5.579 -0.0568 -0.2497 -0.3338
 1907TIP3    H127280   3.586   0.425   5.625 -0.7721  0.4432 -0.7030
 1907TIP3    H227281   3.691   0.531   5.645 -1.2320  0.9051 -0.7121
 1908TIP3   OH227282   0.109   0.610   7.371  0.2120 -0.0784 -0.0052
 1908TIP3    H127283   0.164   0.651   7.304 -0.3085  0.6853  0.0097
 1908TIP3    H227284   0.127   0.661   7.450 -1.2757  0.8981 -0.2459
 1909TIP3   OH227285   4.904   2.136   0.115  0.2710  0.0161  0.4908
 1909TIP3    H127286   4.819   2.160   0.078  0.1447 -0.0364  0.7376
 1909TIP3    H227287   4.933   2.061   0.063 -0.1404 -0.3774  0.8174
 1910TIP3   OH227288   3.218   3.414   6.682  0.0048  0.2142 -0.3571
 1910TIP3    H127289   3.289   3.363   6.722 -0.5609 -0.8666 -0.6833
 1910TIP3    H227290   3.142   3.356   6.687 -1.1780  1.8005  1.0749
 1911TIP3   OH227291   0.999   2.232   0.078 -0.5775  0.5641 -0.2973
 1911TIP3    H127292   1.055   2.226   0.156 -0.6506 -3.0563 -0.3407
 1911TIP3    H227293   0.913   2.255   0.113 -0.3428  0.2425  0.5280
 1912TIP3   OH227294   5.921   0.369   0.345 -0.0438  0.1679  0.0217
 1912TIP3    H127295   5.972   0.407   0.417 -1.4756 -1.1035  1.7922
 1912TIP3    H227296   5.983   0.364   0.272  2.2364 -0.8055  1.9008
 1913TIP3   OH227297   3.170   2.628   7.145 -0.0607 -0.6420 -0.5656
 1913TIP3    H127298   3.242   2.567   7.157 -0.3241 -1.4012 -2.4865
 1913TIP3    H227299   3.196   2.681   7.069 -0.7961  0.1872 -0.2553
 1914TIP3   OH227300   6.415   4.682   7.997 -0.5196  0.1501  0.4184
 1914TIP3    H127301   6.351   4.626   8.041  1.5108  0.0511  3.5759
 1914TIP3    H227302   6.457   4.625   7.933 -2.9306  0.0217 -1.1817
 1915TIP3   OH227303   3.152   2.967   0.130  0.0564  0.2882 -0.6834
 1915TIP3    H127304   3.201   2.953   0.049 -0.8557  0.7294 -1.3200
 1915TIP3    H227305   3.126   3.059   0.127 -0.5410  0.1402 -0.2050
 1916TIP3   OH227306   4.886   6.831   6.644  0.1602  0.2249  0.1034
 1916TIP3    H127307   4.942   6.903   6.672 -0.4949  0.1187  1.8101
 1916TIP3    H227308   4.869   6.848   6.551  0.7142  1.7896  0.2605
 1917TIP3   OH227309   0.716   0.238   0.442 -0.3347 -0.0287 -0.0973
 1917TIP3    H127310   0.774   0.308   0.411 -1.9305  1.8552  0.9396
 1917TIP3    H227311   0.769   0.188   0.504  0.3791  1.3146  0.4138
 1918TIP3   OH227312   4.040   0.571   7.667  0.5841 -0.1549 -0.1715
 1918TIP3    H127313   4.067   0.656   7.635  0.9753 -1.0749 -2.4821
 1918TIP3    H227314   4.118   0.517   7.663  1.0102 -0.1077  3.6749
 1919TIP3   OH227315   5.637   4.206   6.492 -0.3057 -0.1920 -0.2746
 1919TIP3    H127316   5.691   4.235   6.566 -0.3886 -0.7944  0.0241
 1919TIP3    H227317   5.663   4.263   6.420  0.6154 -0.3674 -0.0902
 1920TIP3   OH227318   4.008   2.417   6.624  0.0141 -0.1708 -0.2085
 1920TIP3    H127319   4.068   2.348   6.597 -0.6625 -1.0813  0.5516
 1920TIP3    H227320   3.928   2.399   6.575 -1.0131 -1.4593  1.7960
 1921TIP3   OH227321   6.683   3.747   7.847 -0.3778 -0.2592 -0.1093
 1921TIP3    H127322   6.660   3.772   7.936 -0.5886 -0.3744 -0.1303
 1921TIP3    H227323   6.778   3.760   7.842 -0.4912  0.6408 -0.1562
 1922TIP3   OH227324   6.720   3.230   6.593  0.4722  0.1487 -0.3622
 1922TIP3    H127325   6.758   3.196   6.674 -0.2562 -1.1698 -0.5460
 1922TIP3    H227326   6.650   3.168   6.571 -0.7508  1.6410 -0.8701
 1923TIP3   OH227327   1.032   5.937   0.004  0.0688 -0.4540  0.0066
 1923TIP3    H127328   0.995   5.898  -0.075  0.0401 -1.1386  0.3449
 1923TIP3    H227329   1.126   5.916   0.000  0.4614  1.2491 -0.8346
 1924TIP3   OH227330   3.313   0.343   8.083  0.0475  0.0155  0.1748
 1924TIP3    H127331   3.241   0.363   8.143 -2.1238 -0.9380 -1.9435
 1924TIP3    H227332   3.289   0.259   8.045  2.1098 -0.1316 -0.9049
 1925TIP3   OH227333   2.404   3.610   8.017 -0.1743  0.0783 -0.4974
 1925TIP3    H127334   2.442   3.587   7.932  1.3321  0.7720 -0.0340
 1925TIP3    H227335   2.406   3.529   8.067 -0.0165 -0.0708 -0.7446
 1926TIP3   OH227336   6.905   5.858   7.936 -0.4093 -0.1239 -0.4216
 1926TIP3    H127337   6.982   5.858   7.993 -0.2671 -2.3692 -0.5206
 1926TIP3    H227338   6.938   5.890   7.852  0.8673 -2.4015 -0.8962
 1927TIP3   OH227339   4.542   1.397   7.647 -0.2539  0.0182  0.4900
 1927TIP3    H127340   4.629   1.435   7.636  0.1307 -0.2408  2.2596
 1927TIP3    H227341   4.484   1.473   7.657  0.1478  0.2144  1.5790
 1928TIP3   OH227342   4.039   6.276   6.588 -0.5137  0.7456 -0.2515
 1928TIP3    H127343   3.981   6.304   6.658  2.2879  1.1156  2.1238
 1928TIP3    H227344   4.071   6.190   6.617  1.2335  1.2131 -0.6711
 1929TIP3   OH227345   5.606   6.919   1.707 -0.1396 -0.7798 -0.6477
 1929TIP3    H127346   5.599   6.870   1.788  0.7242 -1.2068 -0.8169
 1929TIP3    H227347   5.516   6.944   1.685 -0.3523 -0.4085  0.5796
 1930TIP3   OH227348   5.725   1.931   8.242  0.8734 -0.1990 -0.3225
 1930TIP3    H127349   5.671   2.003   8.210  0.7386 -0.9488 -1.8837
 1930TIP3    H227350   5.802   1.974   8.279  0.2223  0.7847 -0.0784
 1931TIP3   OH227351   5.236   5.539   6.177  0.0587  0.4854 -0.6636
 1931TIP3    H127352   5.329   5.519   6.180  0.3687  1.7442 -1.3912
 1931TIP3    H227353   5.229   5.613   6.117 -1.3429  0.7703 -0.1779
 1932TIP3   OH227354   4.127   6.252   7.144 -0.4592  0.2430 -0.3055
 1932TIP3    H127355   4.151   6.189   7.212 -3.5911  0.9528  1.6759
 1932TIP3    H227356   4.211   6.285   7.112  1.2156 -1.9547  1.4326
 1933TIP3   OH227357   1.101   0.977   7.422  0.5828 -0.3464  0.3302
 1933TIP3    H127358   1.087   0.902   7.365  2.4537 -1.0321  0.7056
 1933TIP3    H227359   1.091   0.942   7.511  1.6688 -0.2216  0.5135
 1934TIP3   OH227360   3.881   4.199   6.522  0.1739  0.2783 -0.2100
 1934TIP3    H127361   3.809   4.142   6.497 -0.7592  0.7391  1.3137
 1934TIP3    H227362   3.839   4.276   6.561  1.4668  0.0975  1.6912
 1935TIP3   OH227363   2.973   4.519   7.364  0.3163  0.7102  0.2202
 1935TIP3    H127364   3.003   4.609   7.360  1.7496  0.2430 -0.4118
 1935TIP3    H227365   3.053   4.467   7.378 -0.4231 -0.4722  0.2459
 1936TIP3   OH227366   6.108   6.717   7.728 -0.0325 -0.0671 -0.4866
 1936TIP3    H127367   6.133   6.784   7.792 -0.3651  1.7434 -2.1526
 1936TIP3    H227368   6.037   6.669   7.771  0.9233 -0.0970  1.1644
 1937TIP3   OH227369   2.156   0.696   7.212 -0.0278  0.4952 -0.3022
 1937TIP3    H127370   2.167   0.646   7.293  3.3720 -0.3023 -1.0713
 1937TIP3    H227371   2.107   0.638   7.154  1.8191 -1.0633 -0.3903
 1938TIP3   OH227372   6.253   0.947   6.123 -0.1546 -0.1414  0.1607
 1938TIP3    H127373   6.251   0.851   6.120 -1.7569 -0.0849 -1.5265
 1938TIP3    H227374   6.168   0.972   6.160 -1.0272  0.6690 -2.2558
 1939TIP3   OH227375   4.579   7.040   0.191  0.3169  0.2292  0.3832
 1939TIP3    H127376   4.571   7.091   0.111  1.7072 -0.8860 -0.5209
 1939TIP3    H227377   4.501   7.063   0.243 -0.4454  1.2034 -1.1377
 1940TIP3   OH227378   5.423   1.192   1.332  0.3182 -0.0510 -0.0280
 1940TIP3    H127379   5.477   1.186   1.410  0.2556  0.1935  0.0331
 1940TIP3    H227380   5.443   1.277   1.294 -1.2067  0.7438  0.8672
 1941TIP3   OH227381   3.613   5.051   7.624  0.0643  0.5396 -0.4607
 1941TIP3    H127382   3.662   5.131   7.644 -0.0128  0.7735 -1.1704
 1941TIP3    H227383   3.588   5.061   7.532  1.5501 -1.0753 -1.1009
 1942TIP3   OH227384   3.522   5.451   2.023  0.2649 -0.0034 -0.6536
 1942TIP3    H127385   3.551   5.360   2.024 -1.2615 -0.5198 -0.2475
 1942TIP3    H227386   3.595   5.500   2.059  0.7531 -1.1934  0.0415
 1943TIP3   OH227387   3.385   0.155   6.819 -0.3002  0.4374 -0.5763
 1943TIP3    H127388   3.392   0.089   6.888 -2.5184  0.1146 -0.5996
 1943TIP3    H227389   3.442   0.226   6.849 -0.9297  0.1521  1.4295
 1944TIP3   OH227390   2.793   3.608   0.652 -0.1043 -0.3502 -0.2168
 1944TIP3    H127391   2.885   3.633   0.666 -0.3604  1.6856 -1.7561
 1944TIP3    H227392   2.792   3.571   0.563 -0.5895 -1.5616  0.2708
 1945TIP3   OH227393   4.703   0.496   7.230 -0.1223  0.0284 -0.4463
 1945TIP3    H127394   4.766   0.562   7.259 -0.1045  0.2596 -0.9896
 1945TIP3    H227395   4.660   0.467   7.310 -0.1619  0.7332 -0.2045
 1946TIP3   OH227396   2.993   0.705   7.349  0.4414  0.7017 -0.7971
 1946TIP3    H127397   2.919   0.659   7.389 -0.7371  0.4173 -3.1179
 1946TIP3    H227398   3.051   0.635   7.319 -1.4055  0.5233 -4.4280
 1947TIP3   OH227399   1.713   0.547   7.457  0.6760  0.1738 -0.1056
 1947TIP3    H127400   1.629   0.504   7.475  0.1466  1.2925  0.1711
 1947TIP3    H227401   1.733   0.595   7.537  1.0982  0.6825 -0.5110
 1948TIP3   OH227402   2.304   3.872   7.941 -0.9816  0.0537  0.3495
 1948TIP3    H127403   2.208   3.863   7.941 -0.9529 -0.3944 -1.1151
 1948TIP3    H227404   2.336   3.784   7.962 -0.8805  0.2753  1.1571
 1949TIP3   OH227405   0.459   2.756   7.237  0.4336 -0.0636  0.5229
 1949TIP3    H127406   0.491   2.732   7.324  0.7696  0.1559  0.4621
 1949TIP3    H227407   0.401   2.830   7.253 -1.9218 -1.8884  0.9060
 1950TIP3   OH227408   2.560   7.053   8.150 -0.2373 -0.3814  0.0870
 1950TIP3    H127409   2.570   6.958   8.162 -1.1714 -0.6963 -1.4411
 1950TIP3    H227410   2.598   7.090   8.230 -0.6369 -2.0715  1.1268
 1951TIP3   OH227411   1.073   2.291   1.114 -0.0409 -0.1374  0.3906
 1951TIP3    H127412   1.124   2.319   1.190  0.0675  1.8287 -0.3638
 1951TIP3    H227413   1.135   2.295   1.041 -0.7988  0.4749 -0.2240
 1952TIP3   OH227414   1.720   3.837   6.587 -0.1986  0.0652  0.3565
 1952TIP3    H127415   1.721   3.932   6.603 -0.2108  0.2681 -0.7885
 1952TIP3    H227416   1.740   3.828   6.494 -1.0728 -1.0100  0.2500
 1953TIP3   OH227417   3.414   3.450   6.200  0.1361  0.3314  0.0821
 1953TIP3    H127418   3.407   3.473   6.107 -0.2316 -3.9150 -1.1186
 1953TIP3    H227419   3.506   3.428   6.212 -0.4949 -3.2394 -0.5771
 1954TIP3   OH227420   4.787   4.778   7.539 -0.1803  0.5816  0.0365
 1954TIP3    H127421   4.782   4.705   7.601  0.8548 -1.9789 -2.6642
 1954TIP3    H227422   4.781   4.856   7.594  1.1075 -1.4526  3.3940
 1955TIP3   OH227423   1.710   3.667   5.837  0.4289 -0.2076 -0.2399
 1955TIP3    H127424   1.756   3.748   5.815 -0.3142 -0.0290 -1.2275
 1955TIP3    H227425   1.638   3.696   5.893  0.6374 -0.2933  0.0737
 1956TIP3   OH227426   6.141   3.453   1.656  0.1489 -0.1051 -0.1472
 1956TIP3    H127427   6.062   3.410   1.624 -1.4495  0.8339  2.2564
 1956TIP3    H227428   6.199   3.381   1.683 -1.0454 -0.8023  0.6293
 1957TIP3   OH227429   2.237   4.789   6.762  0.6233  0.4200  0.6247
 1957TIP3    H127430   2.207   4.875   6.735  0.0314  0.5962  1.7522
 1957TIP3    H227431   2.159   4.734   6.758  1.2114 -0.3306 -1.0584
 1958TIP3   OH227432   3.599   3.921   7.668  0.2909 -0.8997  0.3763
 1958TIP3    H127433   3.616   3.837   7.711  0.9239 -0.9289  0.0686
 1958TIP3    H227434   3.685   3.962   7.658  0.1440 -0.8307 -0.7434
 1959TIP3   OH227435   5.188   5.857   0.420  0.1027  0.1801  0.4508
 1959TIP3    H127436   5.230   5.886   0.339 -1.4849  0.2521 -0.3980
 1959TIP3    H227437   5.095   5.873   0.405 -0.3681 -1.1734  1.7324
 1960TIP3   OH227438   2.708   3.397   8.280 -0.1307  0.3703 -0.2566
 1960TIP3    H127439   2.705   3.323   8.341 -1.4386 -0.7194 -1.5644
 1960TIP3    H227440   2.616   3.418   8.264  0.2068  1.3737 -0.9772
 1961TIP3   OH227441   5.120   3.740   7.868  0.2435 -0.4358 -0.8601
 1961TIP3    H127442   5.139   3.649   7.849  0.8364  0.1076 -3.1224
 1961TIP3    H227443   5.168   3.790   7.802 -0.6243  1.4817 -0.1362
 1962TIP3   OH227444   6.601   2.362   6.990 -0.6184  0.1903 -0.1472
 1962TIP3    H127445   6.653   2.355   7.070 -0.4574 -0.7546 -0.3206
 1962TIP3    H227446   6.665   2.374   6.920 -0.8506  3.3261  0.0611
 1963TIP3   OH227447   3.033   6.270   1.635 -0.0578  0.0881  0.3660
 1963TIP3    H127448   2.951   6.313   1.660 -0.2328 -0.1545  0.2138
 1963TIP3    H227449   3.006   6.182   1.608 -0.0396  0.6932 -1.8133
 1964TIP3   OH227450   5.011   5.267   6.977 -0.5144  0.2465 -0.6337
 1964TIP3    H127451   4.926   5.256   6.933 -0.0832  0.8218 -1.6351
 1964TIP3    H227452   5.001   5.220   7.060 -0.7313 -2.5093 -2.1231
 1965TIP3   OH227453   0.844   5.878   0.679 -0.3705  0.3128 -0.5300
 1965TIP3    H127454   0.850   5.813   0.750 -1.9317  0.0233 -0.6275
 1965TIP3    H227455   0.934   5.889   0.650  0.0108 -1.4421 -0.1681
 1966TIP3   OH227456   0.999   2.788   1.785  0.6619  0.3056  0.4194
 1966TIP3    H127457   1.038   2.752   1.704  0.3689  1.2888 -0.1737
 1966TIP3    H227458   0.934   2.723   1.810  1.4993 -0.5364  0.4728
 1967TIP3   OH227459   4.227   5.504   7.045 -0.0030  0.1690  0.1099
 1967TIP3    H127460   4.321   5.503   7.029  0.4777 -1.5323  2.5860
 1967TIP3    H227461   4.217   5.547   7.130 -1.3290 -0.8446  0.4957
 1968TIP3   OH227462   2.932   4.769   7.167  0.0513 -0.4631 -0.0221
 1968TIP3    H127463   2.842   4.785   7.138  0.2530  0.3408 -0.2284
 1968TIP3    H227464   2.965   4.855   7.192  1.0806 -0.5938 -0.8628
 1969TIP3   OH227465   3.042   2.391   7.958 -0.1439 -0.0504 -0.4175
 1969TIP3    H127466   3.001   2.382   8.044  0.9180  0.2939  0.1460
 1969TIP3    H227467   2.975   2.434   7.904 -0.8546 -0.3503  0.2068
 1970TIP3   OH227468   2.268   1.883   6.902  0.6733 -0.1743 -0.0570
 1970TIP3    H127469   2.340   1.899   6.962 -0.0953 -0.2171  0.8954
 1970TIP3    H227470   2.209   1.826   6.950  0.1277 -0.3539 -0.9208
 1971TIP3   OH227471   2.593   6.694   6.900 -0.1592  0.4886 -0.7856
 1971TIP3    H127472   2.553   6.639   6.833 -0.5624  0.2819 -0.3752
 1971TIP3    H227473   2.618   6.774   6.853 -2.2687  1.2015 -0.7923
 1972TIP3   OH227474   2.618   2.884   0.600 -0.5874 -0.0055 -0.0896
 1972TIP3    H127475   2.637   2.939   0.676  2.1878 -0.1838 -0.5637
 1972TIP3    H227476   2.643   2.796   0.627 -0.3665 -0.2109 -0.9367
 1973TIP3   OH227477   6.177   4.727   0.014  0.0891 -0.4560 -0.3166
 1973TIP3    H127478   6.220   4.647  -0.015  0.0528 -0.6368  0.1314
 1973TIP3    H227479   6.142   4.766  -0.067  1.2959 -0.1712 -0.7279
 1974TIP3   OH227480   6.210   4.219   6.809  0.9463  0.0115  0.1617
 1974TIP3    H127481   6.267   4.151   6.773  1.8254  1.0860 -0.5225
 1974TIP3    H227482   6.128   4.209   6.759  1.4130  0.0937 -0.6386
 1975TIP3   OH227483   1.973   4.393   6.612 -0.4054 -0.3505  0.1577
 1975TIP3    H127484   1.991   4.323   6.675 -0.2680 -1.6096 -1.2206
 1975TIP3    H227485   1.878   4.391   6.601 -0.2025 -2.1336 -1.8044
 1976TIP3   OH227486   1.105   2.545   0.485 -0.3185  0.3971 -0.4661
 1976TIP3    H127487   1.051   2.618   0.455  0.2499  0.7662 -0.5968
 1976TIP3    H227488   1.132   2.570   0.573 -0.5188  0.1191 -0.3235
 1977TIP3   OH227489   1.274   0.503   6.085  0.0962 -0.1770  0.0120
 1977TIP3    H127490   1.314   0.495   6.172  1.5038  0.3666 -0.5495
 1977TIP3    H227491   1.335   0.559   6.036 -2.0633  1.8632 -0.5130
 1978TIP3   OH227492   3.740   0.343   1.515 -0.0065 -0.4363 -0.0452
 1978TIP3    H127493   3.779   0.304   1.593  0.4835 -3.1627 -1.5204
 1978TIP3    H227494   3.813   0.385   1.470 -0.3157  1.2641  0.9630
 1979TIP3   OH227495   4.649   4.639   8.000  0.0884  0.8518 -0.4909
 1979TIP3    H127496   4.687   4.643   7.912  0.3745 -0.4426 -0.4334
 1979TIP3    H227497   4.559   4.609   7.986  0.1521  0.5900 -0.3271
 1980TIP3   OH227498   1.627   0.286   8.120 -0.3096 -0.1973 -0.1854
 1980TIP3    H127499   1.683   0.226   8.170  0.2644  1.3044  1.0664
 1980TIP3    H227500   1.554   0.232   8.091  0.6904 -1.7206  0.0009
 1981TIP3   OH227501   4.426   1.626   6.651 -0.4870  0.5189  0.6491
 1981TIP3    H127502   4.515   1.630   6.685 -0.1108  2.2817 -0.4171
 1981TIP3    H227503   4.410   1.533   6.636  0.5095  0.0022  2.4714
 1982TIP3   OH227504   6.250   2.361   6.092 -0.3659  0.1309 -0.0865
 1982TIP3    H127505   6.285   2.276   6.117 -1.5471 -1.6258 -3.6659
 1982TIP3    H227506   6.157   2.345   6.078 -1.5310  3.0986  2.8892
 1983TIP3   OH227507   2.003   2.460   7.136 -0.3760 -0.0798  0.4620
 1983TIP3    H127508   2.032   2.454   7.045 -0.0717 -0.2501  0.5700
 1983TIP3    H227509   1.936   2.529   7.135 -0.5118 -0.2130  0.0770
 1984TIP3   OH227510   4.548   0.173   0.478  0.1551  0.0200 -0.4786
 1984TIP3    H127511   4.610   0.241   0.504  0.5755 -0.4392 -0.2589
 1984TIP3    H227512   4.529   0.192   0.386  0.1500  0.5196 -0.3767
 1985TIP3   OH227513   1.642   3.180   6.461 -0.3816 -0.0370 -0.1943
 1985TIP3    H127514   1.600   3.250   6.411  0.8702 -1.0598 -2.9181
 1985TIP3    H227515   1.628   3.102   6.407  3.2110 -0.7729 -0.2762
 1986TIP3   OH227516   6.819   2.775   0.027  0.3297 -0.0791  0.0630
 1986TIP3    H127517   6.813   2.680   0.032  0.9392 -0.0701  1.4377
 1986TIP3    H227518   6.770   2.807   0.103  1.1166  0.6453  0.2910
 1987TIP3   OH227519   1.091   0.871   0.329  0.1117 -0.6018  0.0451
 1987TIP3    H127520   1.133   0.785   0.327  2.2279  0.3525  0.9138
 1987TIP3    H227521   1.142   0.922   0.392 -0.8994  1.4068 -0.6556
 1988TIP3   OH227522   3.854   5.228   0.790  0.6860 -0.4640  0.1295
 1988TIP3    H127523   3.861   5.321   0.769  1.6800 -0.6773 -0.5416
 1988TIP3    H227524   3.772   5.200   0.749  0.4437  0.0815  0.2291
 1989TIP3   OH227525   7.053   1.651   6.613  0.6524 -0.1810  0.1740
 1989TIP3    H127526   7.128   1.703   6.640  0.4899 -0.0781  0.4307
 1989TIP3    H227527   7.086   1.596   6.542  0.1820  2.0899 -1.9056
 1990TIP3   OH227528   6.531   4.564   0.003 -0.4557  0.1715 -0.4581
 1990TIP3    H127529   6.580   4.506  -0.056  0.9987 -0.7995  1.5687
 1990TIP3    H227530   6.563   4.652  -0.018  1.0800 -0.2942 -0.2081
 1991TIP3   OH227531   6.554   4.563   6.921 -0.3750  0.1996  0.6817
 1991TIP3    H127532   6.486   4.502   6.891 -0.0092 -0.2740  0.8136
 1991TIP3    H227533   6.527   4.648   6.885 -1.8552  0.3281  1.9939
 1992TIP3   OH227534   0.397   2.668   1.676  0.1970  0.4015 -0.2057
 1992TIP3    H127535   0.358   2.721   1.746 -0.5331  0.2949 -0.5257
 1992TIP3    H227536   0.336   2.595   1.665  1.6572 -1.0436  0.8719
 1993TIP3   OH227537   4.720   4.371   0.663  0.1842 -0.7665  0.5398
 1993TIP3    H127538   4.677   4.366   0.577 -0.0622 -0.4822  0.6449
 1993TIP3    H227539   4.793   4.310   0.656  0.5698 -0.2526 -0.0977
 1994TIP3   OH227540   4.810   1.902   7.044  0.2169 -0.7147  0.8770
 1994TIP3    H127541   4.868   1.835   7.078 -1.5419 -2.2506  1.0330
 1994TIP3    H227542   4.724   1.860   7.041 -0.9702  1.5352  0.9698
 1995TIP3   OH227543   3.892   4.536   0.249  0.6152  0.5443 -0.4576
 1995TIP3    H127544   3.864   4.618   0.208 -2.2584  0.4656  1.0419
 1995TIP3    H227545   3.904   4.559   0.342  1.6359 -0.3771 -0.3371
 1996TIP3   OH227546   3.518   5.492   0.116  0.1898  0.0247  0.0681
 1996TIP3    H127547   3.544   5.510   0.025  0.0450 -0.4227 -0.0649
 1996TIP3    H227548   3.422   5.498   0.114  0.2548  2.2697  0.6797
 1997TIP3   OH227549   0.835   5.082   8.214 -0.2802 -0.4446 -0.4851
 1997TIP3    H127550   0.835   4.986   8.219 -0.3934 -0.4267 -0.0976
 1997TIP3    H227551   0.755   5.103   8.165 -0.7496 -0.5159  0.2319
 1998TIP3   OH227552   1.327   4.531   0.595 -0.2677  0.3480 -0.0855
 1998TIP3    H127553   1.233   4.534   0.608 -0.1064 -0.8497  1.7190
 1998TIP3    H227554   1.340   4.477   0.517 -1.0243 -1.0600  0.7460
 1999TIP3   OH227555   0.033   1.658   7.466 -0.3718  0.3947  0.0630
 1999TIP3    H127556   0.012   1.652   7.559  0.0541 -1.5031  0.0734
 1999TIP3    H227557  -0.003   1.578   7.427  0.2212  0.7249 -1.2484
 2000TIP3   OH227558   6.227   1.768   1.402  0.2461 -0.3135  0.0969
 2000TIP3    H127559   6.183   1.751   1.486  0.9335 -1.6817  0.2059
 2000TIP3    H227560   6.163   1.817   1.351 -1.4241 -2.1740  0.2778
 2001TIP3   OH227561   0.809   6.452   8.052 -0.0287 -0.0143 -0.0700
 2001TIP3    H127562   0.782   6.544   8.057 -0.8594 -0.2449 -0.2097
 2001TIP3    H227563   0.740   6.404   8.098 -0.0839 -0.6699 -0.8233
 2002TIP3   OH227564   4.386   2.023   7.981  0.0772  0.2451  0.3977
 2002TIP3    H127565   4.380   2.114   8.011 -1.0092  0.9726 -1.8403
 2002TIP3    H227566   4.305   2.008   7.933  1.1401 -1.2329 -1.0375
 2003TIP3   OH227567   2.542   4.071   0.803  0.0354 -0.3748 -0.9733
 2003TIP3    H127568   2.585   4.120   0.733 -1.9882 -0.7492 -2.6033
 2003TIP3    H227569   2.576   3.982   0.794  1.2370 -0.0047 -0.1844
 2004TIP3   OH227570   1.780   6.473   7.883 -0.0914  0.5735  0.0934
 2004TIP3    H127571   1.713   6.434   7.939  0.0086  0.2770  0.0062
 2004TIP3    H227572   1.839   6.401   7.862 -0.1399  0.6770 -0.4123
 2005TIP3   OH227573   3.786   4.325   7.894 -0.3989 -0.5983 -0.0968
 2005TIP3    H127574   3.773   4.419   7.884 -0.5689 -0.7331 -1.2983
 2005TIP3    H227575   3.869   4.308   7.848 -0.3416 -1.0255  0.1663
 2006TIP3   OH227576   4.041   4.023   5.802 -0.2500  0.2444 -0.1538
 2006TIP3    H127577   4.000   3.939   5.781  0.0568  0.2464 -0.7739
 2006TIP3    H227578   4.112   4.000   5.862  1.1022 -0.1985 -1.8603
 2007TIP3   OH227579   1.867   4.299   6.311  0.1931 -0.5825  0.8750
 2007TIP3    H127580   1.915   4.221   6.338  0.9132 -0.4491 -0.0009
 2007TIP3    H227581   1.926   4.344   6.251 -0.2145  0.6445  1.3716
 2008TIP3   OH227582   1.627   5.751   1.077  0.2825 -0.5113  0.1771
 2008TIP3    H127583   1.593   5.816   1.016  1.6509 -0.7268 -0.8613
 2008TIP3    H227584   1.550   5.719   1.125 -0.6704  0.3918 -0.7220
 2009TIP3   OH227585   1.223   3.532   6.188 -0.7452  0.0324 -0.8207
 2009TIP3    H127586   1.233   3.590   6.112 -2.2764 -0.7007 -1.6159
 2009TIP3    H227587   1.148   3.568   6.236 -0.1515  0.1441  0.0607
 2010TIP3   OH227588   1.423   5.302   7.156  0.2675  0.1124  0.7071
 2010TIP3    H127589   1.497   5.258   7.114 -0.7512 -0.5458 -0.4543
 2010TIP3    H227590   1.441   5.295   7.250  1.2490 -0.7932  0.4710
 2011TIP3   OH227591   0.441   4.219   6.840  1.0334 -0.0638  0.4929
 2011TIP3    H127592   0.450   4.147   6.777  0.0064  0.0845  0.1427
 2011TIP3    H227593   0.513   4.207   6.902  0.8634 -1.4228  0.4622
 2012TIP3   OH227594   3.577   5.632   1.256  0.1158 -0.1251 -0.7587
 2012TIP3    H127595   3.503   5.577   1.284 -0.5959  0.8722 -0.6110
 2012TIP3    H227596   3.610   5.590   1.176  0.4236 -1.4773  0.0597
 2013TIP3   OH227597   2.127   3.184   6.545 -0.2178  0.2039  0.2876
 2013TIP3    H127598   2.173   3.258   6.505 -0.8515  1.4327  1.7370
 2013TIP3    H227599   2.190   3.112   6.541  0.4142  0.7972 -1.1644
 2014TIP3   OH227600   3.513   3.576   7.425  0.5148  0.5801 -0.0800
 2014TIP3    H127601   3.423   3.608   7.416  0.1494 -0.7384 -1.5177
 2014TIP3    H227602   3.504   3.491   7.466  1.0360  0.1393 -0.8520
 2015TIP3   OH227603   4.113   5.134   7.198 -0.1944 -0.2032 -0.2086
 2015TIP3    H127604   4.192   5.165   7.242 -0.9979 -0.2430  1.3374
 2015TIP3    H227605   4.091   5.205   7.137  0.5616  0.1705 -0.0615
 2016TIP3   OH227606   3.049   5.609   0.501  0.3723 -0.5102  0.7353
 2016TIP3    H127607   3.121   5.570   0.452  0.8105 -0.6370  1.4591
 2016TIP3    H227608   3.039   5.697   0.464  1.9577  0.0936  1.6518
 2017TIP3   OH227609   1.446   4.078   2.169  0.1490  0.9339 -0.4306
 2017TIP3    H127610   1.404   4.069   2.083  1.2585  1.0074 -1.0067
 2017TIP3    H227611   1.508   4.151   2.158 -0.4078  1.6127  0.7378
 2018TIP3   OH227612   4.433   0.953   7.148 -0.0951  0.5997  0.1799
 2018TIP3    H127613   4.488   0.877   7.168 -0.9505  0.0670  0.5886
 2018TIP3    H227614   4.403   0.937   7.058 -0.2074  0.4919  0.2354
 2019TIP3   OH227615   6.799   2.999   1.401  0.2275 -0.5537 -0.0619
 2019TIP3    H127616   6.721   3.048   1.424  0.6760 -0.0511  0.4067
 2019TIP3    H227617   6.786   2.976   1.309  0.0497  0.5413 -0.3276
 2020TIP3   OH227618   1.767   0.292   7.086 -0.4436  0.3091 -0.1738
 2020TIP3    H127619   1.722   0.241   7.154  0.8832 -0.4628  0.1699
 2020TIP3    H227620   1.708   0.364   7.067 -2.1151 -1.0268 -0.2301
 2021TIP3   OH227621   0.502   4.215   7.826 -0.3056 -0.1201  0.6797
 2021TIP3    H127622   0.553   4.134   7.828  1.9064  1.0977 -1.2445
 2021TIP3    H227623   0.527   4.262   7.905  0.8428 -0.0027  0.2712
 2022TIP3   OH227624   2.961   1.055   1.062 -0.2719  0.1771  0.3625
 2022TIP3    H127625   2.967   1.064   0.967  0.9641 -0.7131  0.3171
 2022TIP3    H227626   2.928   0.967   1.076  3.1809 -1.2582  0.6715
 2023TIP3   OH227627   2.357   1.380   5.877  0.5544 -0.3259 -0.4557
 2023TIP3    H127628   2.272   1.421   5.859  1.9422  1.4726 -4.1346
 2023TIP3    H227629   2.411   1.452   5.909  1.2876 -0.9124 -0.3635
 2024TIP3   OH227630   3.008   1.365   0.755  0.1703  0.1645 -0.1157
 2024TIP3    H127631   2.993   1.418   0.834 -0.5367  1.4507 -1.0767
 2024TIP3    H227632   3.101   1.378   0.736 -0.0290  1.2373 -0.4338
 2025TIP3   OH227633   0.660   5.143   6.449  0.1232  0.8443  0.2981
 2025TIP3    H127634   0.718   5.199   6.397  0.6448 -1.2586 -1.5422
 2025TIP3    H227635   0.575   5.150   6.406  0.8027 -1.7766 -1.7848
 2026TIP3   OH227636   1.002   0.666   8.156 -0.0814  0.0192 -0.4116
 2026TIP3    H127637   0.996   0.722   8.234  2.9921  0.3679 -0.3260
 2026TIP3    H227638   0.925   0.609   8.162 -2.1033  2.6537  0.7036
 2027TIP3   OH227639   3.963   5.456   1.384 -0.0728  0.0172 -0.5750
 2027TIP3    H127640   3.923   5.390   1.328  1.0962 -0.7599 -0.5191
 2027TIP3    H227641   3.998   5.522   1.324 -2.2879  1.2770 -0.6040
 2028TIP3   OH227642   6.908   4.908   1.594  0.0624 -0.2598 -0.0177
 2028TIP3    H127643   6.931   4.927   1.685 -1.7156  1.4997  0.1271
 2028TIP3    H227644   6.970   4.958   1.542  0.3885 -0.3879  0.2457
 2029TIP3   OH227645   5.166   1.832   7.060  0.3274 -0.4474 -0.1273
 2029TIP3    H127646   5.157   1.916   7.105 -1.1648 -0.9215  0.5328
 2029TIP3    H227647   5.255   1.804   7.080  0.3906  0.3445  0.7897
 2030TIP3   OH227648   3.793   2.633   7.860 -0.1238 -0.4046  0.3421
 2030TIP3    H127649   3.699   2.649   7.868 -0.0194  0.3074  0.2769
 2030TIP3    H227650   3.824   2.705   7.804  0.5759 -0.1986  0.9796
 2031TIP3   OH227651   6.095   5.153   0.009  0.5582 -0.0574  0.1576
 2031TIP3    H127652   6.111   5.061   0.030  0.4771  0.3620  2.2361
 2031TIP3    H227653   6.075   5.153  -0.085  0.2630 -2.1861  0.1784
 2032TIP3   OH227654   6.028   2.217   1.729 -0.5531  0.3444 -0.0379
 2032TIP3    H127655   6.095   2.258   1.674 -0.3368 -1.3198 -1.0793
 2032TIP3    H227656   5.946   2.255   1.700 -0.1864  1.6216  0.5214
 2033TIP3   OH227657   3.656   2.110   7.107  0.0834 -0.5602  0.2214
 2033TIP3    H127658   3.621   2.064   7.183  0.0100  0.3610  0.7647
 2033TIP3    H227659   3.600   2.084   7.034 -0.6190 -0.4975  0.7296
 2034TIP3   OH227660   0.521   6.494   6.730  0.0760  0.2619 -0.3063
 2034TIP3    H127661   0.598   6.456   6.689  0.1136 -0.3978  0.3467
 2034TIP3    H227662   0.457   6.503   6.659  1.1624  2.0072 -1.1252
 2035TIP3   OH227663   4.707   5.268   7.975  0.3544 -0.2668  0.3618
 2035TIP3    H127664   4.717   5.194   8.036 -1.3986  1.0516  2.4030
 2035TIP3    H227665   4.615   5.267   7.951  0.6330  0.3734 -0.7985
 2036TIP3   OH227666   6.691   6.467   7.643 -0.4553 -0.2415 -0.1101
 2036TIP3    H127667   6.661   6.553   7.673  0.8885  0.5162 -0.8952
 2036TIP3    H227668   6.710   6.419   7.724  1.0802  1.0492  0.3424
 2037TIP3   OH227669   3.699   5.431   0.320 -0.0036  0.5738 -0.6516
 2037TIP3    H127670   3.629   5.452   0.258 -0.2780 -0.3842 -0.6893
 2037TIP3    H227671   3.694   5.336   0.330  1.3046  0.4858 -0.6618
 2038TIP3   OH227672   5.839   2.768   7.497 -0.0468 -0.2294 -0.5259
 2038TIP3    H127673   5.869   2.756   7.588  3.1703 -0.2449 -1.4417
 2038TIP3    H227674   5.770   2.833   7.503  0.5746  0.3162  1.8836
 2039TIP3   OH227675   5.744   6.534   0.431 -0.7364  0.4874  0.0934
 2039TIP3    H127676   5.808   6.495   0.371 -1.0884 -2.6116  1.5662
 2039TIP3    H227677   5.796   6.563   0.506 -0.7068  0.9732 -0.1133
 2040TIP3   OH227678   4.657   6.963   7.572 -0.2110  0.5188  0.1145
 2040TIP3    H127679   4.628   6.908   7.644 -0.7843  0.5091 -0.1241
 2040TIP3    H227680   4.743   6.996   7.600 -0.2658  0.2203  0.6373
 2041TIP3   OH227681   5.842   3.122   8.240 -0.3341  0.2042  0.0883
 2041TIP3    H127682   5.905   3.148   8.308  0.8347  0.6062 -1.0948
 2041TIP3    H227683   5.764   3.096   8.289 -0.1798  2.1633  1.5116
 2042TIP3   OH227684   1.559   3.440   6.053  0.3899 -0.1387  0.1172
 2042TIP3    H127685   1.519   3.515   6.009  0.5221 -0.3887 -0.4351
 2042TIP3    H227686   1.618   3.479   6.117 -0.1215  0.2312  0.3736
 2043TIP3   OH227687   3.689   6.053   0.114 -0.2682 -0.3406  0.8201
 2043TIP3    H127688   3.661   6.115   0.181  1.6337 -0.4302  1.7486
 2043TIP3    H227689   3.727   5.980   0.163  0.7328 -0.6214 -0.3376
 2044TIP3   OH227690   1.768   4.689   6.181  0.0001 -1.3801 -0.0892
 2044TIP3    H127691   1.678   4.707   6.210  0.4593  0.4117  0.3058
 2044TIP3    H227692   1.818   4.677   6.261  0.5865  0.1661 -0.1790
 2045TIP3   OH227693   5.614   2.991   0.870  0.0827  0.0574  0.6761
 2045TIP3    H127694   5.619   2.903   0.833 -1.2623 -0.0244  0.6304
 2045TIP3    H227695   5.663   3.046   0.810 -0.0840 -0.4716  0.0444
 2046TIP3   OH227696   0.153   1.935   7.612  0.2564  0.3268 -0.4882
 2046TIP3    H127697   0.076   1.893   7.650  0.2579 -0.0777 -0.9106
 2046TIP3    H227698   0.228   1.890   7.652  0.2585 -0.0498 -0.9023
 2047TIP3   OH227699   1.162   3.542   7.324 -0.6625 -0.2948 -0.0854
 2047TIP3    H127700   1.134   3.503   7.241  0.3713  1.0920 -1.1311
 2047TIP3    H227701   1.236   3.597   7.300 -0.1796 -0.0639  1.8237
 2048TIP3   OH227702   6.095   5.600   0.739  0.2111 -0.2310  0.2352
 2048TIP3    H127703   6.154   5.544   0.788 -0.3225  0.3770  1.6267
 2048TIP3    H227704   6.031   5.540   0.700  1.1861 -0.8043 -0.5320
 2049TIP3   OH227705   2.125   4.196   7.209 -0.6694  0.1137 -0.0324
 2049TIP3    H127706   2.143   4.201   7.303 -0.0098 -1.3199 -0.0577
 2049TIP3    H227707   2.210   4.209   7.168 -1.2017  2.4155 -0.5420
 2050TIP3   OH227708   1.302   0.668   7.680  0.1328  0.2002  0.1814
 2050TIP3    H127709   1.292   0.760   7.703 -2.5511 -0.4218  2.0132
 2050TIP3    H227710   1.375   0.637   7.734 -0.1295  0.8533  0.9308
 2051TIP3   OH227711   5.744   2.321   1.651  0.1732 -0.4542  0.1053
 2051TIP3    H127712   5.682   2.249   1.662 -1.3346  0.5634 -1.1013
 2051TIP3    H227713   5.694   2.399   1.677  1.5014  0.2496  0.6484
 2052TIP3   OH227714   0.240   0.889   6.721 -0.0749  0.1064 -0.5564
 2052TIP3    H127715   0.150   0.905   6.750 -0.6062 -2.3610 -0.6777
 2052TIP3    H227716   0.249   0.940   6.640 -0.9021  1.4055  0.1396
 2053TIP3   OH227717   0.716   4.807   8.190  0.2002  0.1089 -0.3904
 2053TIP3    H127718   0.654   4.801   8.118  0.5411  0.1731 -0.6903
 2053TIP3    H227719   0.784   4.743   8.169  0.4686  0.3610 -0.2896
 2054TIP3   OH227720   4.557   0.688   6.750 -0.0699 -0.2822 -0.9218
 2054TIP3    H127721   4.518   0.611   6.791 -0.2944  0.5040  0.3827
 2054TIP3    H227722   4.647   0.690   6.782 -0.0297 -0.0655 -1.0440
 2055TIP3   OH227723   3.652   1.955   5.975 -0.1500 -0.2946 -0.4062
 2055TIP3    H127724   3.719   1.935   6.041  0.1829  0.0307 -0.6379
 2055TIP3    H227725   3.640   2.050   5.981 -0.7623 -0.3797 -0.2101
 2056TIP3   OH227726   1.658   6.644   6.960 -0.0319 -0.1299 -0.6728
 2056TIP3    H127727   1.651   6.721   6.904 -1.0200 -1.8008 -3.0785
 2056TIP3    H227728   1.739   6.601   6.933 -0.5973 -1.0407 -0.9978
 2057TIP3   OH227729   0.587   2.723   0.121 -0.4160  0.4970  0.5106
 2057TIP3    H127730   0.572   2.689   0.033  0.1628  0.3970  0.4497
 2057TIP3    H227731   0.525   2.675   0.176 -1.2918  1.0770  0.0567
 2058TIP3   OH227732   1.607   5.010   7.167  0.5070  0.1174  0.1709
 2058TIP3    H127733   1.552   5.019   7.244  2.1603 -2.0013  1.7152
 2058TIP3    H227734   1.591   4.921   7.136  0.7204  0.5483 -1.2565
 2059TIP3   OH227735   6.459   2.011   0.215  0.6503 -0.1769 -0.1621
 2059TIP3    H127736   6.431   1.926   0.181 -0.1463 -0.3216  0.8363
 2059TIP3    H227737   6.500   1.991   0.299 -0.3152  0.5119  0.4807
 2060TIP3   OH227738   4.027   5.080   1.329  0.3592 -0.4878  0.1852
 2060TIP3    H127739   4.022   5.130   1.410 -0.5691 -0.6492  0.2319
 2060TIP3    H227740   3.976   5.130   1.266  0.5128 -0.7097 -0.1235
 2061TIP3   OH227741   2.665   2.103   2.131  0.1652 -0.3108  0.0425
 2061TIP3    H127742   2.644   2.197   2.134 -0.8606 -0.4356 -1.9159
 2061TIP3    H227743   2.743   2.098   2.077 -0.0414 -0.6173 -0.2297
 2062TIP3   OH227744   2.579   2.103   8.067  0.2679  0.6308  0.7296
 2062TIP3    H127745   2.599   2.083   8.158  0.9966  0.0603  0.4543
 2062TIP3    H227746   2.664   2.115   8.025 -0.0175  0.1037 -0.0413
 2063TIP3   OH227747   6.552   1.073   6.320 -0.1463  0.2877 -0.0580
 2063TIP3    H127748   6.481   1.022   6.359  0.4809  0.3510  1.2161
 2063TIP3    H227749   6.524   1.089   6.230 -1.7666  0.3727  0.4371
 2064TIP3   OH227750   0.622   4.389   1.491  0.4058  0.8675 -0.2118
 2064TIP3    H127751   0.701   4.434   1.459  0.7270  0.6552  0.2680
 2064TIP3    H227752   0.656   4.317   1.544 -0.0259 -1.2183 -2.5660
 2065TIP3   OH227753   1.953   6.162   5.827  0.0738  0.0037  0.1089
 2065TIP3    H127754   2.040   6.203   5.824  0.4774 -0.8078  0.2193
 2065TIP3    H227755   1.958   6.102   5.901 -0.3714 -0.5152 -0.2759
 2066TIP3   OH227756   4.206   6.416   0.499  0.1727 -0.1488  0.4173
 2066TIP3    H127757   4.299   6.397   0.490  0.0888 -1.0159  1.2696
 2066TIP3    H227758   4.196   6.504   0.462  1.3790  0.0830  0.6095
 2067TIP3   OH227759   5.126   4.983   0.647  0.6282  0.2461  0.2480
 2067TIP3    H127760   5.100   4.967   0.738 -0.3629  1.3184  0.1861
 2067TIP3    H227761   5.216   5.015   0.653  0.2464  1.2477  0.9612
 2068TIP3   OH227762   1.692   1.607   0.077 -0.4912 -0.1827  0.9023
 2068TIP3    H127763   1.613   1.591   0.025 -1.4617  2.5632  1.3783
 2068TIP3    H227764   1.671   1.571   0.164 -1.9523  1.9454  1.5046
 2069TIP3   OH227765   2.565   6.393   1.061  0.0924  0.0566  0.0695
 2069TIP3    H127766   2.475   6.362   1.046  0.5247 -1.3790  0.2441
 2069TIP3    H227767   2.555   6.472   1.114 -1.0673 -0.0924  0.1005
 2070TIP3   OH227768   6.033   3.520   7.447  0.8397  0.5391  0.6384
 2070TIP3    H127769   6.069   3.514   7.536  3.4099  1.0737 -0.2915
 2070TIP3    H227770   6.106   3.499   7.390 -1.3153 -2.1951 -1.3811
 2071TIP3   OH227771   5.593   0.290   0.091  0.3296  0.2048  0.2160
 2071TIP3    H127772   5.616   0.352   0.160 -1.9232 -0.9181  2.1132
 2071TIP3    H227773   5.677   0.269   0.049  1.5277  2.2991  1.4045
 2072TIP3   OH227774   1.242   4.530   2.406 -0.5955  0.2650  0.2993
 2072TIP3    H127775   1.250   4.516   2.311  1.1210 -2.5793  0.7696
 2072TIP3    H227776   1.156   4.494   2.427 -0.1693 -0.9103  0.0822
 2073TIP3   OH227777   3.101   0.188   0.892  0.1139 -0.6296 -0.0647
 2073TIP3    H127778   3.156   0.238   0.953  1.2639 -0.4233 -1.2342
 2073TIP3    H227779   3.011   0.209   0.918  0.5776  1.0378  0.2928
 2074TIP3   OH227780   3.632   5.185   2.011 -0.0251  0.0697 -0.1064
 2074TIP3    H127781   3.554   5.130   2.021 -0.2163  0.5097  0.8483
 2074TIP3    H227782   3.701   5.137   2.058 -0.1381  0.5196  0.5326
 2075TIP3   OH227783   2.609   5.169   6.300  0.2624  0.8673  0.5936
 2075TIP3    H127784   2.605   5.076   6.322 -0.7351  0.9237  0.6948
 2075TIP3    H227785   2.517   5.195   6.289  0.5819  1.1650 -2.2108
 2076TIP3   OH227786   4.489   4.055   6.669 -0.3531 -0.0898 -0.3195
 2076TIP3    H127787   4.404   4.029   6.705  0.0978 -0.2622  0.6516
 2076TIP3    H227788   4.488   4.021   6.580 -0.6141 -1.6578  0.2416
 2077TIP3   OH227789   2.438   3.555   5.918 -0.3466 -0.6970  0.1815
 2077TIP3    H127790   2.437   3.632   5.861 -0.0145 -1.6124 -1.1108
 2077TIP3    H227791   2.493   3.492   5.872  0.0648 -1.4355  1.6101
 2078TIP3   OH227792   0.565   4.666   6.408 -0.0960 -0.0558 -0.2115
 2078TIP3    H127793   0.571   4.578   6.370  0.8909 -0.1713  0.1849
 2078TIP3    H227794   0.487   4.704   6.367  0.5425 -0.4098 -1.8534
 2079TIP3   OH227795   3.964   5.316   7.477 -0.3687 -0.1961  0.0681
 2079TIP3    H127796   4.048   5.285   7.512 -0.2005  0.8481  0.6364
 2079TIP3    H227797   3.980   5.407   7.454 -0.9510 -0.3934 -1.2178
 2080TIP3   OH227798   4.688   3.084   7.564  0.1348 -0.2580  0.2804
 2080TIP3    H127799   4.684   3.114   7.473  0.8398 -0.7487  0.0772
 2080TIP3    H227800   4.612   3.125   7.607  0.1465  0.4669 -0.3781
 2081TIP3   OH227801   3.415   4.497   6.137  0.4041  0.2210  0.6594
 2081TIP3    H127802   3.482   4.564   6.140  0.3051  0.2846  2.1509
 2081TIP3    H227803   3.344   4.536   6.085  1.4227  0.2005 -0.8147
 2082TIP3   OH227804   2.177   6.105   1.493  0.5853 -0.2565  0.4172
 2082TIP3    H127805   2.180   6.143   1.581  2.5395  0.3323  0.1544
 2082TIP3    H227806   2.263   6.064   1.483 -0.5491 -2.6175 -0.2651
 2083TIP3   OH227807   4.907   3.608   7.340 -0.5543 -0.1004 -0.1751
 2083TIP3    H127808   4.838   3.648   7.393 -1.0136  1.2386 -1.7229
 2083TIP3    H227809   4.865   3.534   7.297 -0.8874  0.4105 -0.7268
 2084TIP3   OH227810   5.345   0.476   0.875  0.5165 -0.0377 -0.6743
 2084TIP3    H127811   5.325   0.389   0.910 -0.6273  0.3798 -0.2491
 2084TIP3    H227812   5.289   0.485   0.798  0.1866  0.5496 -0.3707
 2085TIP3   OH227813   1.278   3.790   6.786 -0.2832 -1.1890  0.0328
 2085TIP3    H127814   1.360   3.742   6.775  0.2076 -0.4383  0.2741
 2085TIP3    H227815   1.228   3.773   6.706  1.2741  0.5260 -1.3974
 2086TIP3   OH227816   6.595   0.218   1.724  0.1515  0.2139  0.2667
 2086TIP3    H127817   6.528   0.255   1.666  0.3758 -0.3557 -0.3652
 2086TIP3    H227818   6.605   0.283   1.794 -2.2613 -0.4058  1.3040
 2087TIP3   OH227819   3.488   1.957   1.149 -0.5720  0.9372 -0.0553
 2087TIP3    H127820   3.487   2.043   1.106  0.4213  1.2208  0.4523
 2087TIP3    H227821   3.460   1.976   1.239 -0.8794  0.6305 -0.0834
 2088TIP3   OH227822   2.311   5.300   0.285  1.0316  0.0105  0.2189
 2088TIP3    H127823   2.217   5.291   0.301  0.8387 -0.9597 -1.2117
 2088TIP3    H227824   2.330   5.392   0.301 -0.5158  0.5819 -1.0080
 2089TIP3   OH227825   2.960   6.993   1.838  0.7737  0.1090 -0.2488
 2089TIP3    H127826   2.961   6.993   1.742  1.6886  0.2555 -0.2488
 2089TIP3    H227827   2.890   7.054   1.861 -1.3706 -1.9701 -0.8048
 2090TIP3   OH227828   0.259   5.651   1.443 -0.2856  0.6920 -0.5323
 2090TIP3    H127829   0.244   5.617   1.531 -1.3671 -0.7946 -1.2509
 2090TIP3    H227830   0.277   5.744   1.456  1.1224  0.2074  1.3697
 2091TIP3   OH227831   1.304   1.612   7.380  0.5159 -0.0564 -0.6471
 2091TIP3    H127832   1.257   1.635   7.300  0.9207 -1.5080 -1.3433
 2091TIP3    H227833   1.348   1.529   7.359  0.0458 -0.8656  1.2831
 2092TIP3   OH227834   1.439   4.026   5.937 -0.1494  0.0876  0.2602
 2092TIP3    H127835   1.530   4.030   5.969 -0.1224 -1.3784  0.4319
 2092TIP3    H227836   1.386   4.040   6.015 -0.0675 -0.4684  0.4209
 2093TIP3   OH227837   4.224   0.654   6.578  0.0226  0.2650 -0.1265
 2093TIP3    H127838   4.144   0.683   6.623  0.2474  1.5683 -0.5154
 2093TIP3    H227839   4.293   0.662   6.643 -0.0046  0.0803 -0.0752
 2094TIP3   OH227840   1.602   0.097   1.972  0.5111  0.1227 -0.1388
 2094TIP3    H127841   1.670   0.073   2.036  0.2338  1.7579  0.8270
 2094TIP3    H227842   1.626   0.184   1.943  1.0704 -0.8879 -2.9720
 2095TIP3   OH227843   4.508   3.185   1.382  0.7032 -0.1828  0.0169
 2095TIP3    H127844   4.490   3.207   1.473  1.7181  0.7537  0.0084
 2095TIP3    H227845   4.440   3.230   1.332  0.8877  0.3393  0.2301
 2096TIP3   OH227846   6.223   0.343   1.947  0.0571  0.1950  0.3676
 2096TIP3    H127847   6.133   0.313   1.959 -0.9325  2.7036 -0.3230
 2096TIP3    H227848   6.276   0.263   1.957 -1.9944 -0.9844  3.1400
 2097TIP3   OH227849   2.675   3.979   6.001  0.0349  0.5814  0.2120
 2097TIP3    H127850   2.671   3.884   5.995 -3.1703  0.4700  2.1973
 2097TIP3    H227851   2.649   4.010   5.914  0.5077 -0.3196 -0.2644
 2098TIP3   OH227852   3.162   1.349   7.493 -0.5690 -1.0932 -0.5888
 2098TIP3    H127853   3.222   1.276   7.482 -1.0851 -1.7535  0.7947
 2098TIP3    H227854   3.080   1.310   7.524 -0.6417  0.0942  0.8822
 2099TIP3   OH227855   2.026   3.885   7.912  0.3327 -0.1199 -0.2099
 2099TIP3    H127856   1.977   3.874   7.993  1.4368 -0.4552  0.4307
 2099TIP3    H227857   1.960   3.913   7.848  0.0455  4.3629  1.7130
 2100TIP3   OH227858   1.284   0.205   0.258 -0.3648 -0.3458 -0.6638
 2100TIP3    H127859   1.239   0.125   0.286 -0.8102 -0.3144 -1.2697
 2100TIP3    H227860   1.270   0.267   0.331  2.4863 -1.6752  1.1921
 2101TIP3   OH227861   4.692   6.271   6.887 -0.3755  0.3832 -0.3415
 2101TIP3    H127862   4.674   6.204   6.821  0.7744  0.9746 -1.2934
 2101TIP3    H227863   4.776   6.308   6.861 -0.0835  0.9147  1.2450
 2102TIP3   OH227864   3.472   1.707   5.626  0.3021  0.4153 -0.0409
 2102TIP3    H127865   3.562   1.674   5.615  0.0793 -0.2570  0.1284
 2102TIP3    H227866   3.445   1.673   5.711  0.0894  1.1097  0.1763
 2103TIP3   OH227867   0.266   0.765   7.180  0.1678  0.1413 -1.3950
 2103TIP3    H127868   0.325   0.724   7.117 -0.0256  0.8904 -2.0750
 2103TIP3    H227869   0.325   0.810   7.241  0.4030 -1.3647 -0.4347
 2104TIP3   OH227870   0.515   4.307   5.704 -0.5104 -0.5486 -0.4774
 2104TIP3    H127871   0.550   4.291   5.792 -0.4254 -1.0771 -0.6040
 2104TIP3    H227872   0.528   4.224   5.658 -1.9106 -0.7684 -0.5332
 2105TIP3   OH227873   5.612   5.378   8.216 -0.1414 -0.9844  0.1275
 2105TIP3    H127874   5.535   5.343   8.262 -0.7171 -0.1225 -0.1473
 2105TIP3    H227875   5.585   5.466   8.190  0.5040 -1.1293 -1.0723
 2106TIP3   OH227876   3.121   3.679   5.636  0.1903 -0.1538 -0.7032
 2106TIP3    H127877   3.193   3.619   5.614 -0.0619 -0.4804 -0.6348
 2106TIP3    H227878   3.159   3.740   5.699  0.3436 -0.4669 -0.4923
 2107TIP3   OH227879   4.646   3.240   6.819 -0.4679  0.4346  0.0792
 2107TIP3    H127880   4.682   3.176   6.757 -2.6839  0.7310 -1.6422
 2107TIP3    H227881   4.722   3.292   6.846  1.1523 -1.9056  0.3858
 2108TIP3   OH227882   2.620   6.046   1.085  0.2708  0.0441 -0.4129
 2108TIP3    H127883   2.634   6.136   1.053  0.9522 -0.4314 -1.5086
 2108TIP3    H227884   2.667   6.042   1.168 -1.1960  1.1948  0.5244
 2109TIP3   OH227885   0.299   4.604   1.636 -0.6577  0.2703 -0.4162
 2109TIP3    H127886   0.241   4.641   1.569 -0.7362  0.5944 -0.1710
 2109TIP3    H227887   0.284   4.658   1.713  1.3344  1.5901 -0.8564
 2110TIP3   OH227888   3.347   5.082   7.306 -0.1784 -0.7831 -0.3027
 2110TIP3    H127889   3.421   5.022   7.317  3.2576  2.9136 -0.8505
 2110TIP3    H227890   3.352   5.109   7.214  0.5156  2.5626  0.5879
 2111TIP3   OH227891   4.851   3.211   7.792  0.3030  0.0484  0.8044
 2111TIP3    H127892   4.862   3.203   7.887  0.2716 -1.1644  0.7205
 2111TIP3    H227893   4.803   3.293   7.781 -0.9695 -0.5039  1.9348
 2112TIP3   OH227894   4.637   3.444   1.209  0.0682  0.2420 -0.3229
 2112TIP3    H127895   4.721   3.483   1.187  0.0588 -0.3486 -1.4813
 2112TIP3    H227896   4.581   3.517   1.235  0.5462  0.7888 -0.8277
 2113TIP3   OH227897   6.228   0.304   7.633  0.4429 -0.4103  0.0261
 2113TIP3    H127898   6.162   0.336   7.694 -1.6913 -1.0036 -1.8339
 2113TIP3    H227899   6.293   0.374   7.629 -0.2257  0.3567  1.6513
 2114TIP3   OH227900   0.677   4.507   0.622  0.1238 -0.0704  0.1727
 2114TIP3    H127901   0.709   4.487   0.534 -0.1992  2.2022 -0.5269
 2114TIP3    H227902   0.739   4.465   0.681 -0.1554 -2.3946 -1.0959
 2115TIP3   OH227903   3.284   5.613   1.324  0.5312 -0.3054  0.1654
 2115TIP3    H127904   3.291   5.577   1.412  1.2792 -1.1102 -0.2115
 2115TIP3    H227905   3.260   5.538   1.269 -1.4395  0.4582 -0.1163
 2116TIP3   OH227906   0.339   1.074   6.010  0.6877 -0.1988  0.7683
 2116TIP3    H127907   0.280   1.003   6.038 -2.2406  1.7767  0.1172
 2116TIP3    H227908   0.330   1.140   6.079  0.6704  0.9050 -0.2717
 2117TIP3   OH227909   5.382   5.945   1.281  0.0547 -0.0079 -0.6861
 2117TIP3    H127910   5.424   5.955   1.367  2.7842  0.1475 -1.9304
 2117TIP3    H227911   5.352   5.854   1.280 -1.7666  0.5049  1.0863
 2118TIP3   OH227912   6.397   5.883   0.235  0.3407 -0.3602 -0.3747
 2118TIP3    H127913   6.367   5.973   0.224 -0.5407 -0.7387 -1.1288
 2118TIP3    H227914   6.421   5.878   0.328 -1.2278  0.1681  0.0865
 2119TIP3   OH227915   3.829   6.326   0.446 -0.2762  0.3066 -0.0714
 2119TIP3    H127916   3.810   6.356   0.534  2.4218 -0.6170  0.9474
 2119TIP3    H227917   3.818   6.404   0.391  0.0134  1.4467  1.4233
 2120TIP3   OH227918   0.809   0.780   0.995  0.7510 -0.3696 -0.2098
 2120TIP3    H127919   0.896   0.744   0.979  0.7564 -0.1303 -0.7138
 2120TIP3    H227920   0.825   0.853   1.056  1.0468  0.3898 -1.1694
 2121TIP3   OH227921   6.946   6.218   0.874 -0.3018  0.3309  0.2370
 2121TIP3    H127922   6.914   6.301   0.911 -0.0400 -0.3006  1.9933
 2121TIP3    H227923   6.886   6.199   0.802  0.2491  2.5486 -0.9242
 2122TIP3   OH227924   3.263   0.586   0.718  0.1775 -0.4079 -0.1489
 2122TIP3    H127925   3.240   0.526   0.647  0.2470  0.1520 -0.6530
 2122TIP3    H227926   3.316   0.654   0.675 -0.5528  0.4354  0.2684
 2123TIP3   OH227927   0.728   2.079   6.935 -0.3107  0.4488 -0.4883
 2123TIP3    H127928   0.805   2.028   6.961 -0.3204  0.2378 -0.8758
 2123TIP3    H227929   0.693   2.112   7.018 -1.1862 -1.4139 -0.0613
 2124TIP3   OH227930   3.105   3.120   1.760 -0.3673 -0.1160  0.5673
 2124TIP3    H127931   3.090   3.088   1.671  1.1627  0.2381  0.1393
 2124TIP3    H227932   3.141   3.208   1.748 -1.3267  0.4461  1.5961
 2125TIP3   OH227933   0.892   5.717   6.742 -0.4947 -0.3006 -0.7792
 2125TIP3    H127934   0.826   5.752   6.683 -0.3697  1.1717 -0.0937
 2125TIP3    H227935   0.964   5.779   6.736 -0.3703 -0.2789  0.6891
 2126TIP3   OH227936   6.190   4.947   7.361 -0.5225  0.1016 -0.1409
 2126TIP3    H127937   6.218   5.004   7.289 -1.3924  1.4628  0.5682
 2126TIP3    H227938   6.190   5.003   7.438 -0.5484 -1.0993  0.7629
 2127TIP3   OH227939   5.044   1.534   7.498 -0.5106 -0.8457 -0.1686
 2127TIP3    H127940   5.069   1.450   7.459 -0.2347  0.0733 -2.0881
 2127TIP3    H227941   5.017   1.588   7.423  1.7038  1.5960  0.6380
 2128TIP3   OH227942   1.409   2.627   6.539  0.1534  0.7942 -0.5501
 2128TIP3    H127943   1.441   2.694   6.478  0.4377  2.5277  1.3699
 2128TIP3    H227944   1.325   2.662   6.570 -0.6310 -0.6988 -0.8755
 2129TIP3   OH227945   1.506   1.166   0.652 -0.0809  0.0987 -0.0771
 2129TIP3    H127946   1.511   1.139   0.743 -1.3273 -0.8084 -0.2436
 2129TIP3    H227947   1.416   1.198   0.641  0.2511  0.8189 -0.8263
 2130TIP3   OH227948   6.325   2.263   7.668  0.1345 -0.3348 -0.2738
 2130TIP3    H127949   6.415   2.263   7.634 -0.3724 -2.5524 -1.7671
 2130TIP3    H227950   6.331   2.315   7.748  2.4676  0.6807 -0.9925
 2131TIP3   OH227951   6.831   5.286   8.030 -0.2157  0.8596 -0.0861
 2131TIP3    H127952   6.927   5.288   8.033 -0.2051  0.7977 -0.3605
 2131TIP3    H227953   6.810   5.268   7.939 -0.4847  0.4721  0.0485
 2132TIP3   OH227954   2.568   5.201   7.887 -0.2089  0.4384 -1.1384
 2132TIP3    H127955   2.596   5.130   7.828  0.8124  0.0672 -0.2432
 2132TIP3    H227956   2.539   5.156   7.966  0.0631  0.9998 -0.7117
 2133TIP3   OH227957   2.551   0.443   5.952 -0.1004  0.1072 -0.4831
 2133TIP3    H127958   2.561   0.498   6.030  2.0653 -1.9628  0.8546
 2133TIP3    H227959   2.566   0.502   5.878 -1.5421  1.9950  0.6385
 2134TIP3   OH227960   4.502   0.680   5.773  0.4913  0.5314 -0.1356
 2134TIP3    H127961   4.512   0.774   5.785 -1.4385  1.2490 -2.9958
 2134TIP3    H227962   4.590   0.648   5.751  0.7892  2.1166 -1.3865
 2135TIP3   OH227963   0.043   2.590   6.614 -0.2747 -0.1187  0.9442
 2135TIP3    H127964  -0.009   2.510   6.614 -1.5982  0.6770 -0.5470
 2135TIP3    H227965  -0.020   2.659   6.591  1.2065  1.0683  0.2991
 2136TIP3   OH227966   0.169   2.058   7.071 -0.0336 -0.1495 -0.3494
 2136TIP3    H127967   0.100   2.085   7.011 -1.5917  1.2174  1.8823
 2136TIP3    H227968   0.126   1.998   7.132  0.8785  0.2265  0.7082
 2137TIP3   OH227969   5.225   3.738   0.118  0.3937 -0.1363  0.5474
 2137TIP3    H127970   5.209   3.742   0.212  2.2574  0.1445  0.8891
 2137TIP3    H227971   5.265   3.822   0.096  2.2152 -1.0737  0.0046
 2138TIP3   OH227972   1.562   0.637   0.343 -0.8204  0.4354  0.2403
 2138TIP3    H127973   1.599   0.591   0.268 -1.3230  0.1618  0.1551
 2138TIP3    H227974   1.574   0.730   0.323  0.0639  0.3469  0.3449
 2139TIP3   OH227975   6.561   6.602   1.499  0.5575 -0.6420 -0.0072
 2139TIP3    H127976   6.612   6.657   1.438  1.1619 -1.4519 -0.2450
 2139TIP3    H227977   6.472   6.636   1.492  0.7012 -0.4221 -1.0175
 2140TIP3   OH227978   3.304   2.510   7.947 -0.5679 -0.4611  0.4212
 2140TIP3    H127979   3.289   2.566   8.024  0.1981 -1.8710  1.6460
 2140TIP3    H227980   3.235   2.444   7.952 -1.2128  0.0801 -0.7908
 2141TIP3   OH227981   2.702   0.322   1.722  0.2205  0.6546 -0.0194
 2141TIP3    H127982   2.729   0.402   1.677  0.0290  0.7066 -0.0430
 2141TIP3    H227983   2.779   0.296   1.773  0.1413  1.1037  0.3404
 2142TIP3   OH227984   0.614   4.073   6.471  0.6607 -0.1444  0.4173
 2142TIP3    H127985   0.660   3.992   6.494  2.3043  0.7437  0.3687
 2142TIP3    H227986   0.683   4.136   6.453 -0.5911  1.0292 -0.4785
 2143TIP3   OH227987   4.316   4.047   7.504  0.2296 -0.1044  0.7733
 2143TIP3    H127988   4.374   4.072   7.432  0.5115 -1.2997  0.5626
 2143TIP3    H227989   4.291   4.130   7.544  0.9457  0.5175 -0.0171
 2144TIP3   OH227990   5.405   1.243   0.971 -0.1340  0.0312 -0.1238
 2144TIP3    H127991   5.432   1.155   0.997 -0.8492 -0.4180 -0.8354
 2144TIP3    H227992   5.433   1.250   0.879  0.9214  0.9776  0.2504
 2145TIP3   OH227993   6.759   5.008   7.106 -0.0806 -0.4168  0.9190
 2145TIP3    H127994   6.764   5.100   7.079  1.2523  0.2336  3.1085
 2145TIP3    H227995   6.787   4.959   7.029 -0.9154  0.9836 -0.3390
 2146TIP3   OH227996   0.812   0.886   6.646  0.6658 -0.1938 -0.0494
 2146TIP3    H127997   0.801   0.981   6.647  0.6321 -0.1520 -1.9318
 2146TIP3    H227998   0.724   0.851   6.631  0.6428 -0.5606  0.8370
 2147TIP3   OH227999   6.072   0.364   7.852 -0.0044  0.0598  0.6307
 2147TIP3    H128000   6.149   0.420   7.853 -1.0370  1.5413  0.8224
 2147TIP3    H228001   6.006   0.415   7.804 -0.9880 -0.9978  0.8102
 2148TIP3   OH228002   6.572   0.431   8.182  0.8125  0.2829  0.4262
 2148TIP3    H128003   6.641   0.474   8.231 -0.3856 -0.1981  2.6445
 2148TIP3    H228004   6.614   0.352   8.146  2.0198  1.2762 -0.4168
 2149TIP3   OH228005   1.870   1.210   7.109  0.1077 -0.4379 -0.5613
 2149TIP3    H128006   1.965   1.207   7.100  0.3259 -1.0740  1.3985
 2149TIP3    H228007   1.841   1.121   7.087 -0.0173 -0.2904 -0.9954
 2150TIP3   OH228008   6.766   2.077   1.047 -1.0093 -0.1858 -0.6227
 2150TIP3    H128009   6.803   1.996   1.014 -0.4970 -0.4805  0.6260
 2150TIP3    H228010   6.683   2.051   1.088 -0.3550 -0.2816  0.7100
 2151TIP3   OH228011   1.739   6.119   6.103  0.0961  0.0130  0.1996
 2151TIP3    H128012   1.672   6.187   6.109  0.3946  0.1616  2.6961
 2151TIP3    H228013   1.693   6.037   6.120  0.3480 -0.0163  0.7462
 2152TIP3   OH228014   6.632   1.183   1.113  0.0175  0.6088  0.2349
 2152TIP3    H128015   6.545   1.185   1.152 -0.9413  0.5040 -1.7754
 2152TIP3    H228016   6.620   1.215   1.024  2.1413  1.1089  0.0605
 2153TIP3   OH228017   2.752   0.455   6.358  0.0975  0.4375 -0.6464
 2153TIP3    H128018   2.704   0.416   6.432  1.0655 -0.7872 -0.6400
 2153TIP3    H228019   2.683   0.489   6.300 -0.7166  0.1860  0.1490
 2154TIP3   OH228020   3.156   6.035   0.586  0.2812 -0.4218 -0.5250
 2154TIP3    H128021   3.158   6.101   0.517 -0.0929 -1.7861 -1.9015
 2154TIP3    H228022   3.218   6.067   0.652  2.1644 -0.0133 -2.3828
 2155TIP3   OH228023   2.415   3.045   7.502  0.3433 -0.5772  0.0289
 2155TIP3    H128024   2.437   2.968   7.449 -0.1244 -1.0060  0.4523
 2155TIP3    H228025   2.334   3.021   7.547  1.1862 -0.5617  1.6189
 2156TIP3   OH228026   2.631   2.606   6.219 -0.0544 -0.8705 -0.2660
 2156TIP3    H128027   2.697   2.675   6.214 -0.8746 -0.1449 -2.9297
 2156TIP3    H228028   2.557   2.647   6.265  0.8226 -1.2687  1.5604
 2157TIP3   OH228029   5.751   0.758   6.766  0.0744 -0.1132  0.0088
 2157TIP3    H128030   5.736   0.693   6.697 -1.0210  0.2181 -0.0959
 2157TIP3    H228031   5.795   0.830   6.721  1.1467 -0.6889  0.0910
 2158TIP3   OH228032   1.727   1.375   1.565 -0.5303 -0.1444  0.5291
 2158TIP3    H128033   1.642   1.335   1.582  0.7056 -2.6152  1.3986
 2158TIP3    H228034   1.739   1.438   1.635 -1.3899 -0.2214  0.7541
 2159TIP3   OH228035   4.765   0.539   7.528  0.3702  0.2300  0.2547
 2159TIP3    H128036   4.714   0.619   7.530 -0.6682 -0.2678 -2.1948
 2159TIP3    H228037   4.854   0.567   7.551 -0.2545  1.7818  0.9356
 2160TIP3   OH228038   0.686   1.253   1.316 -0.3679  0.3768  0.2602
 2160TIP3    H128039   0.704   1.322   1.379 -1.5577 -0.4759  1.5963
 2160TIP3    H228040   0.596   1.270   1.286 -0.7043 -0.5938  0.6583
 2161TIP3   OH228041   1.286   5.860   6.683 -0.0967  0.7351  0.5683
 2161TIP3    H128042   1.324   5.848   6.770  1.2261 -1.9474 -0.2685
 2161TIP3    H228043   1.204   5.907   6.699  1.0998  2.2261  2.9830
 2162TIP3   OH228044   5.400   4.644   7.593  0.2747  0.5102 -0.0305
 2162TIP3    H128045   5.492   4.663   7.572  0.2843  0.1242 -0.3351
 2162TIP3    H228046   5.388   4.553   7.567  0.5211 -0.2765  2.3941
 2163TIP3   OH228047   3.126   3.809   7.700  0.1458  0.0183 -0.2716
 2163TIP3    H128048   3.082   3.732   7.736 -1.4300  0.8898 -0.2503
 2163TIP3    H228049   3.165   3.778   7.619  0.2906 -1.0044  0.1677
 2164TIP3   OH228050   2.558   4.257   5.845 -0.0205  0.6462 -0.4012
 2164TIP3    H128051   2.580   4.327   5.907  2.6899 -0.1746 -0.2859
 2164TIP3    H228052   2.473   4.225   5.874 -0.4250  2.5984  0.7335
 2165TIP3   OH228053   1.875   5.898   7.904  1.1457  0.0978 -0.2340
 2165TIP3    H128054   1.917   5.823   7.946  3.0991  1.2612 -0.0003
 2165TIP3    H228055   1.821   5.860   7.834 -0.9194 -1.7759  2.1746
 2166TIP3   OH228056   0.211   2.941   0.455 -0.7718  0.4053  0.1170
 2166TIP3    H128057   0.194   3.008   0.522 -0.6676  0.0961  0.4580
 2166TIP3    H228058   0.198   2.986   0.372 -0.4907  0.9112  0.3388
 2167TIP3   OH228059   6.266   5.450   2.391  0.4679 -0.3221 -0.2940
 2167TIP3    H128060   6.340   5.397   2.421  0.2228 -1.2221 -1.2176
 2167TIP3    H228061   6.199   5.387   2.368  0.5105  0.2958 -2.3608
 2168TIP3   OH228062   3.797   2.803   0.280  0.2387  0.0340  0.5091
 2168TIP3    H128063   3.749   2.886   0.285  0.4907  0.2515 -0.4802
 2168TIP3    H228064   3.833   2.802   0.191  1.2607 -0.5683  0.9178
 2169TIP3   OH228065   0.211   4.183   0.331  0.2946 -0.2380  0.5133
 2169TIP3    H128066   0.146   4.114   0.320 -0.8797  0.9768 -0.4810
 2169TIP3    H228067   0.291   4.147   0.293  0.4590 -2.0219  2.3723
 2170TIP3   OH228068   1.877   4.678   5.711 -0.2063 -0.0284 -0.0291
 2170TIP3    H128069   1.923   4.709   5.789 -0.3684  1.1634 -0.3925
 2170TIP3    H228070   1.854   4.587   5.732  2.2908 -0.6827  0.1484
 2171TIP3   OH228071   5.113   0.662   6.709  0.4479 -0.4972  0.4312
 2171TIP3    H128072   5.128   0.569   6.693 -1.4055 -1.0696  1.6398
 2171TIP3    H228073   5.086   0.666   6.801 -1.3238  0.9717 -0.0972
 2172TIP3   OH228074   1.135   0.993   8.029 -0.1776  0.0153 -0.6067
 2172TIP3    H128075   1.070   0.981   8.098  0.5626  0.6895  0.2270
 2172TIP3    H228076   1.092   1.050   7.965 -1.1859 -1.3286 -1.1683
 2173TIP3   OH228077   5.418   0.236   2.250 -0.3095  0.1651 -0.6921
 2173TIP3    H128078   5.373   0.315   2.219  0.0636  0.4939 -0.4042
 2173TIP3    H228079   5.510   0.262   2.257 -0.1397 -0.3783 -0.8680
 2174TIP3   OH228080   2.843   4.430   0.080  0.2505  0.0094  0.3996
 2174TIP3    H128081   2.936   4.433   0.102 -0.0218  0.2529  1.5813
 2174TIP3    H228082   2.836   4.361   0.015  1.1726 -0.3891  0.7056
 2175TIP3   OH228083   4.697   5.539   0.983  0.3729  0.5654  0.6160
 2175TIP3    H128084   4.669   5.466   1.038  1.2836  1.1181  1.8687
 2175TIP3    H228085   4.686   5.508   0.893 -1.2978 -0.3135  1.0881
 2176TIP3   OH228086   2.639   4.216   7.016 -0.4732  0.0867  0.5183
 2176TIP3    H128087   2.689   4.274   7.074  1.9870  0.8714 -2.1513
 2176TIP3    H228088   2.676   4.129   7.032 -0.6538  0.0834  0.9437
 2177TIP3   OH228089   0.690   2.359   1.498  0.4291 -0.3543  0.4660
 2177TIP3    H128090   0.604   2.345   1.538 -1.0149  0.8095 -1.9741
 2177TIP3    H228091   0.715   2.447   1.528 -0.9130  0.7536 -1.4700
 2178TIP3   OH228092   6.319   6.639   1.274  0.0603 -0.0795 -0.2428
 2178TIP3    H128093   6.379   6.659   1.202  0.7300  1.4751  0.7003
 2178TIP3    H228094   6.232   6.642   1.234  0.4420  0.4135 -1.0571
 2179TIP3   OH228095   5.456   5.573   1.523  0.4038 -0.5463  0.9402
 2179TIP3    H128096   5.475   5.645   1.583  1.0868  0.1353 -0.0792
 2179TIP3    H228097   5.479   5.606   1.437  0.9060 -2.0474  0.4710
 2180TIP3   OH228098   0.881   4.714   0.559  0.2456  0.7000  0.1230
 2180TIP3    H128099   0.902   4.800   0.596 -1.6876  1.2440  0.1113
 2180TIP3    H228100   0.789   4.700   0.584  0.3377 -1.0810 -0.4240
 2181TIP3   OH228101   4.979   1.767   7.949  0.0974  0.3250  0.0853
 2181TIP3    H128102   4.959   1.817   7.869 -1.7476  2.5490  1.7818
 2181TIP3    H228103   4.905   1.707   7.958  0.1974  0.2253  0.2344
 2182TIP3   OH228104   1.885   3.119   0.301  0.2193  0.1216  0.1003
 2182TIP3    H128105   1.804   3.131   0.350 -0.4967 -1.0451 -0.7653
 2182TIP3    H228106   1.881   3.184   0.231 -1.0139 -1.3174 -1.2285
 2183TIP3   OH228107   6.982   1.370   7.814 -0.2609  0.1530  0.1014
 2183TIP3    H128108   7.031   1.297   7.851  2.3604  1.1502 -1.1325
 2183TIP3    H228109   6.920   1.328   7.753  0.9803 -1.0951 -0.3722
 2184TIP3   OH228110   3.431   4.659   6.969 -0.5886 -0.0450  0.2758
 2184TIP3    H128111   3.411   4.699   7.054  0.6768  1.2877 -0.0050
 2184TIP3    H228112   3.378   4.708   6.906 -0.6475 -0.2505  0.1644
 2185TIP3   OH228113   2.314   1.737   5.974  0.4897  0.1973 -0.1811
 2185TIP3    H128114   2.384   1.679   5.943  1.5668  1.6488 -0.5418
 2185TIP3    H228115   2.235   1.702   5.932  1.0390 -1.1991 -0.1235
 2186TIP3   OH228116   0.977   1.546   7.463  0.2349 -0.0815  0.3263
 2186TIP3    H128117   0.985   1.595   7.381  0.5119  0.8820  0.9191
 2186TIP3    H228118   1.061   1.500   7.471  0.5430  0.5014  0.4933
 2187TIP3   OH228119   5.872   2.745   0.812  0.0036 -0.3616 -0.0369
 2187TIP3    H128120   5.882   2.804   0.887  0.1546  0.4500 -0.6784
 2187TIP3    H228121   5.941   2.771   0.752  0.5783 -1.7422  0.0012
 2188TIP3   OH228122   3.599   6.958   5.503  0.4527 -0.7377  0.4623
 2188TIP3    H128123   3.613   6.864   5.513 -1.7973 -1.3658 -1.3455
 2188TIP3    H228124   3.685   6.994   5.483  0.9510 -2.8768 -1.6480
 2189TIP3   OH228125   1.050   6.351   8.160  0.3446  0.1877  0.5444
 2189TIP3    H128126   1.078   6.308   8.079 -0.6282 -0.4330  0.5117
 2189TIP3    H228127   0.970   6.397   8.136  0.1034  0.0795  1.1303
 2190TIP3   OH228128   4.378   1.705   8.240 -0.7632  0.0630  0.2567
 2190TIP3    H128129   4.421   1.789   8.252 -1.1931  0.1953  0.8871
 2190TIP3    H228130   4.429   1.644   8.294  1.4019 -0.7609 -2.4195
 2191TIP3   OH228131   3.980   3.566   0.743 -0.3766  0.4152 -0.0867
 2191TIP3    H128132   3.891   3.541   0.765  0.4376 -2.2599  0.4902
 2191TIP3    H228133   4.018   3.597   0.825 -0.2425 -0.2341  0.1025
 2192TIP3   OH228134   1.994   1.038   8.120 -0.3730  0.1451 -0.0587
 2192TIP3    H128135   2.082   1.003   8.126 -0.0849  0.9224  0.4666
 2192TIP3    H228136   1.937   0.961   8.118  0.3397 -0.3810 -1.1205
 2193TIP3   OH228137   3.517   5.017   7.965 -0.3565  0.7466  0.0806
 2193TIP3    H128138   3.463   4.939   7.967 -1.2204  1.3389  0.5840
 2193TIP3    H228139   3.495   5.059   7.882  2.1378 -0.8965 -1.5351
 2194TIP3   OH228140   3.465   4.430   7.427  0.2440 -0.0846  0.1185
 2194TIP3    H128141   3.508   4.434   7.513  0.5106  0.9456 -0.0553
 2194TIP3    H228142   3.470   4.519   7.393 -2.3655  0.1937  0.2316
 2195TIP3   OH228143   0.234   2.349   6.024  0.4244  0.4541  0.2011
 2195TIP3    H128144   0.231   2.398   6.106  0.4220  0.4972  0.1751
 2195TIP3    H228145   0.322   2.363   5.990  1.8284 -2.7187  2.1370
 2196TIP3   OH228146   3.663   3.362   6.206  0.3138 -0.0339 -0.2612
 2196TIP3    H128147   3.733   3.384   6.145  1.2253  1.9225  1.3605
 2196TIP3    H228148   3.658   3.267   6.204  0.9752 -0.0708 -2.5971
 2197TIP3   OH228149   0.258   0.370   7.308  0.4002  0.4720  0.1509
 2197TIP3    H128150   0.219   0.456   7.325  0.4020  0.8846 -1.7214
 2197TIP3    H228151   0.224   0.314   7.378 -2.5643  1.1182 -0.6652
 2198TIP3   OH228152   6.420   6.893   0.121 -0.2275 -0.1401  0.3156
 2198TIP3    H128153   6.493   6.913   0.180 -0.8996  1.7821  0.5624
 2198TIP3    H228154   6.459   6.894   0.034  0.5553 -1.9246  0.5955
 2199TIP3   OH228155   5.028   1.388   1.486 -0.0847  0.1719 -0.3067
 2199TIP3    H128156   5.020   1.346   1.401  0.1563  0.3937 -0.4446
 2199TIP3    H228157   5.121   1.377   1.509 -0.2946 -0.4849  0.2461
 2200TIP3   OH228158   0.131   5.496   7.879 -0.0623 -0.7014  0.1780
 2200TIP3    H128159   0.206   5.548   7.910  0.4987 -1.3159 -0.1124
 2200TIP3    H228160   0.162   5.458   7.797  0.1738 -2.8728  1.2152
 2201TIP3   OH228161   7.037   2.006   1.620 -0.3968 -0.6401 -0.5344
 2201TIP3    H128162   7.001   1.917   1.619 -2.8243  0.0703  2.8427
 2201TIP3    H228163   7.117   1.999   1.672 -0.7192 -0.8450 -0.0575
 2202TIP3   OH228164   7.009   5.790   0.067 -0.5024  0.2733  0.1002
 2202TIP3    H128165   7.007   5.762  -0.024 -1.1065  0.0959  0.1577
 2202TIP3    H228166   6.984   5.711   0.116  1.3988 -0.0977  0.5544
 2203TIP3   OH228167   3.602   5.400   6.583  0.0433  0.4252 -0.1143
 2203TIP3    H128168   3.509   5.388   6.600 -0.1843  0.4314 -1.2941
 2203TIP3    H228169   3.617   5.493   6.594  0.0069  0.3668  0.4854
 2204TIP3   OH228170   4.350   4.681   2.311  0.7935 -0.3997 -0.1344
 2204TIP3    H128171   4.288   4.753   2.301 -0.4757 -1.5828 -1.2235
 2204TIP3    H228172   4.436   4.724   2.315 -0.0287  1.2507  1.0181
 2205TIP3   OH228173   4.086   3.136   1.033 -0.1980  0.2661 -0.3997
 2205TIP3    H128174   3.997   3.101   1.041 -0.0653  0.1417  0.5590
 2205TIP3    H228175   4.137   3.064   0.996  0.1082 -0.6610  1.6986
 2206TIP3   OH228176   4.439   4.289   2.333 -0.1427 -0.4751  0.4317
 2206TIP3    H128177   4.359   4.284   2.385 -0.0044  0.7033  0.7792
 2206TIP3    H228178   4.490   4.212   2.360 -0.1863 -0.0300  1.8751
 2207TIP3   OH228179   6.492   5.947   7.134  0.0718 -0.5671 -0.1528
 2207TIP3    H128180   6.514   5.969   7.044 -0.5537 -1.7946 -0.6206
 2207TIP3    H228181   6.574   5.914   7.172  0.6051  0.9223  0.0730
 2208TIP3   OH228182   4.888   1.185   7.748 -0.0553 -0.2896  0.6074
 2208TIP3    H128183   4.888   1.266   7.799 -0.2485  0.2968 -0.3014
 2208TIP3    H228184   4.889   1.115   7.814  0.3306  0.4479  1.3991
 2209TIP3   OH228185   4.488   2.148   1.674 -0.1606  0.1943 -0.0112
 2209TIP3    H128186   4.556   2.188   1.727 -0.0724  0.1820 -0.1156
 2209TIP3    H228187   4.411   2.204   1.688  0.1111  0.7113 -0.5807
 2210TIP3   OH228188   6.220   3.880   7.027 -0.1828  0.4010 -0.0757
 2210TIP3    H128189   6.301   3.921   7.056 -0.2386  0.2014  0.3757
 2210TIP3    H228190   6.224   3.883   6.932 -0.2210  1.5370 -0.0639
 2211TIP3   OH228191   0.470   3.282   7.829  0.5153  0.1327  0.2981
 2211TIP3    H128192   0.403   3.323   7.774  0.2076 -0.4453  0.2306
 2211TIP3    H228193   0.456   3.188   7.817  1.7002  0.0059 -0.1416
 2212TIP3   OH228194   6.651   2.093   0.403 -0.0842  0.0557  0.3796
 2212TIP3    H128195   6.626   2.154   0.334  0.3317  0.2125  0.3642
 2212TIP3    H228196   6.741   2.069   0.383 -0.9792 -2.4958 -1.0227
 2213TIP3   OH228197   6.080   2.801   6.162 -0.0534 -0.1028  0.3682
 2213TIP3    H128198   6.026   2.724   6.175 -0.9867  0.2941 -0.9128
 2213TIP3    H228199   6.054   2.861   6.233 -0.2416 -0.4772  0.6167
 2214TIP3   OH228200   5.706   0.745   0.819 -0.4738 -0.1903 -0.2155
 2214TIP3    H128201   5.794   0.771   0.845 -0.5292 -1.1154  0.9800
 2214TIP3    H228202   5.665   0.826   0.789  1.3127 -0.0476 -2.5086
 2215TIP3   OH228203   3.490   3.710   0.701 -0.1944 -0.2588 -0.1662
 2215TIP3    H128204   3.524   3.755   0.778  0.5219 -1.1742  0.0674
 2215TIP3    H228205   3.496   3.775   0.630 -1.3784  0.7759  0.6455
 2216TIP3   OH228206   5.523   0.102   7.806  0.0603 -0.3166  0.0421
 2216TIP3    H128207   5.475   0.065   7.880  0.0530  2.7227  1.7038
 2216TIP3    H228208   5.455   0.130   7.745 -0.1776  0.6646  0.7230
 2217TIP3   OH228209   6.849   2.525   1.429  0.1859 -0.2365 -0.7992
 2217TIP3    H128210   6.813   2.451   1.477  0.3807 -1.0706 -1.8919
 2217TIP3    H228211   6.871   2.590   1.496 -0.5781 -0.9097  0.1174
 2218TIP3   OH228212   4.761   1.780   1.181 -0.6710  0.2175  0.1662
 2218TIP3    H128213   4.830   1.715   1.194 -0.6714  0.4402  1.3987
 2218TIP3    H228214   4.681   1.736   1.212 -1.1151 -0.0462 -1.2598
 2219TIP3   OH228215   5.912   4.012   0.672 -0.0616 -0.0310 -0.1945
 2219TIP3    H128216   5.920   4.095   0.624  0.9774 -0.4364 -0.7336
 2219TIP3    H228217   5.949   4.031   0.758 -0.9090  0.3788  0.0991
 2220TIP3   OH228218   2.801   5.539   0.855 -0.5083 -0.2360 -0.1414
 2220TIP3    H128219   2.810   5.613   0.915  2.1555  0.1257 -0.8365
 2220TIP3    H228220   2.822   5.462   0.908  0.8999 -0.0122 -0.3299
 2221TIP3   OH228221   5.564   5.737   1.724 -0.0960 -0.1757 -0.0835
 2221TIP3    H128222   5.628   5.665   1.725 -2.3561 -2.3208  0.9442
 2221TIP3    H228223   5.570   5.775   1.812  1.6444  1.5163 -0.8673
 2222TIP3   OH228224   6.608   2.879   1.989 -0.6406  0.8789  0.5693
 2222TIP3    H128225   6.602   2.897   1.895 -1.1423  0.6251  0.5486
 2222TIP3    H228226   6.544   2.810   2.004 -0.6275  0.9823  1.1169
 2223TIP3   OH228227   0.796   3.543   0.467 -0.0447 -0.2142  0.3525
 2223TIP3    H128228   0.782   3.515   0.377 -1.1869  1.0230  0.1046
 2223TIP3    H228229   0.713   3.585   0.492  0.9488  1.3330  1.2390
 2224TIP3   OH228230   5.671   7.008   1.431 -0.5369  0.1530  0.0292
 2224TIP3    H128231   5.619   7.082   1.400 -1.0426  0.1254  0.7769
 2224TIP3    H228232   5.662   7.011   1.527  1.9829  1.0049  0.3298
 2225TIP3   OH228233   4.630   2.416   8.133  0.2966  0.6843  0.0807
 2225TIP3    H128234   4.566   2.381   8.071 -0.4408  0.1522  1.1075
 2225TIP3    H228235   4.644   2.507   8.105  2.9843 -0.5414 -3.2480
 2226TIP3   OH228236   6.329   3.184   0.836 -0.4329  0.1539 -0.1447
 2226TIP3    H128237   6.302   3.193   0.744  0.0447  0.9544 -0.2143
 2226TIP3    H228238   6.424   3.176   0.832 -0.4797 -0.7317  0.2292
 2227TIP3   OH228239   5.316   0.069   8.052  0.0038  0.3824  0.1245
 2227TIP3    H128240   5.308   0.002   8.121 -2.5599  1.3720  0.9101
 2227TIP3    H228241   5.320   0.152   8.100  1.7130  0.9414 -0.8881
 2228TIP3   OH228242   6.728   6.810   7.565  0.7006  0.1174 -0.0623
 2228TIP3    H128243   6.735   6.761   7.483 -0.5273  0.0463 -0.1484
 2228TIP3    H228244   6.811   6.856   7.573  0.5818  0.6993 -1.7474
 2229TIP3   OH228245   5.760   3.158   0.691 -0.6397  0.4064  0.2063
 2229TIP3    H128246   5.716   3.214   0.627 -0.6243  0.7120  0.4564
 2229TIP3    H228247   5.789   3.082   0.641 -0.7195  0.5924 -0.1271
 2230TIP3   OH228248   2.396   5.130   1.526 -0.0218 -0.3055  0.7372
 2230TIP3    H128249   2.359   5.046   1.554  0.4629 -0.7662  0.0230
 2230TIP3    H228250   2.486   5.109   1.502 -0.5253 -0.0278 -1.5839
 2231TIP3   OH228251   2.132   0.530   1.288 -0.2437 -0.3087  0.0881
 2231TIP3    H128252   2.052   0.565   1.250 -0.7720  0.1929  1.5933
 2231TIP3    H228253   2.124   0.548   1.381  1.3561 -0.7912  0.3477
 2232TIP3   OH228254   1.572   2.259   1.617  0.3670  0.8057 -0.4085
 2232TIP3    H128255   1.540   2.277   1.705  2.2583 -1.3047  0.8085
 2232TIP3    H228256   1.646   2.320   1.606  1.0826  0.0603  0.1165
 2233TIP3   OH228257   4.262   6.581   1.791 -0.0265  0.3977  0.4535
 2233TIP3    H128258   4.188   6.549   1.843  0.8904  1.2864  2.4219
 2233TIP3    H228259   4.244   6.674   1.778  0.5866  0.5558  0.6979
 2234TIP3   OH228260   4.731   5.115   1.464 -0.3701  0.6510  0.4476
 2234TIP3    H128261   4.652   5.089   1.510 -0.4636  1.0471  0.5179
 2234TIP3    H228262   4.799   5.116   1.530  0.3954 -2.6410 -0.1475
 2235TIP3   OH228263   4.708   3.035   0.787 -0.6235 -0.0796  0.2903
 2235TIP3    H128264   4.655   2.982   0.847 -0.1253  0.0971  0.8983
 2235TIP3    H228265   4.797   3.002   0.799 -0.8774 -2.3031 -2.7504
 2236TIP3   OH228266   0.961   2.284   6.130  0.2251 -0.3678  0.3621
 2236TIP3    H128267   0.903   2.213   6.107  1.3134 -1.6241  1.3355
 2236TIP3    H228268   0.912   2.364   6.109 -0.8567 -1.3834 -1.1124
 2237TIP3   OH228269   3.550   4.256   6.501  0.9582 -0.1250  0.6729
 2237TIP3    H128270   3.580   4.187   6.443  0.1020 -1.9624  2.3087
 2237TIP3    H228271   3.458   4.236   6.518  0.9247  0.8794  1.9029
 2238TIP3   OH228272   3.848   6.748   7.449 -0.0908  0.3749 -0.2969
 2238TIP3    H128273   3.905   6.672   7.436 -0.4530  0.0914 -0.2125
 2238TIP3    H228274   3.834   6.782   7.360 -0.6853 -0.2087 -0.4352
 2239TIP3   OH228275   0.550   2.566   6.044  0.2891 -0.1730  0.7357
 2239TIP3    H128276   0.470   2.568   6.096  0.2519 -3.5999  1.0147
 2239TIP3    H228277   0.552   2.652   6.001 -2.4932  0.7509  2.1759
 2240TIP3   OH228278   1.721   6.790   0.686 -0.0627 -0.6659  0.0727
 2240TIP3    H128279   1.694   6.830   0.768  0.4620  0.8862 -0.4768
 2240TIP3    H228280   1.646   6.800   0.628  0.5965  0.9804 -0.5434
 2241TIP3   OH228281   4.568   3.117   1.807  0.0235  0.3297 -0.1640
 2241TIP3    H128282   4.564   3.164   1.890 -1.6962 -0.5339  0.2866
 2241TIP3    H228283   4.509   3.166   1.749 -0.5620 -0.3642 -0.1645
 2242TIP3   OH228284   1.918   3.775   8.142 -0.2433  0.0824 -0.2401
 2242TIP3    H128285   2.009   3.773   8.171  0.9029 -1.0256 -3.5206
 2242TIP3    H228286   1.876   3.705   8.192  1.2712 -0.8782 -0.2421
 2243TIP3   OH228287   5.728   5.402   1.016  0.1638 -0.6908  0.2381
 2243TIP3    H128288   5.769   5.482   0.985 -0.8960 -0.5484 -0.8722
 2243TIP3    H228289   5.799   5.338   1.021  0.5887 -0.3836 -1.3808
 2244TIP3   OH228290   2.689   1.571   7.490 -0.2404  0.3578  0.0263
 2244TIP3    H128291   2.679   1.513   7.414  1.1587 -0.0352  0.1091
 2244TIP3    H228292   2.601   1.606   7.505 -0.4363  0.9577 -2.1729
 2245TIP3   OH228293   1.198   3.251   1.435  0.0848 -0.0028  0.1394
 2245TIP3    H128294   1.208   3.156   1.430  2.2035  0.2451 -1.3520
 2245TIP3    H228295   1.103   3.264   1.431 -0.4580 -2.0983  2.8021
 2246TIP3   OH228296   1.758   5.552   6.029 -0.1695  0.4354  0.5145
 2246TIP3    H128297   1.736   5.557   6.122  1.3900  1.2038  0.8617
 2246TIP3    H228298   1.849   5.524   6.027 -0.8894 -2.0926 -0.8772
 2247TIP3   OH228299   0.977   1.108   0.207  0.1781  0.6616  0.2370
 2247TIP3    H128300   1.071   1.104   0.187  0.0921 -1.4024  0.0342
 2247TIP3    H228301   0.958   1.023   0.247 -1.4838  1.3160  0.9144
 2248TIP3   OH228302   0.697   4.208   1.157  0.9181  0.2018 -0.3260
 2248TIP3    H128303   0.718   4.260   1.234 -2.8166  2.8802 -0.8565
 2248TIP3    H228304   0.732   4.258   1.083 -1.5580  1.4965 -0.7392
 2249TIP3   OH228305   2.364   1.634   1.133 -0.2312  0.0721 -0.3233
 2249TIP3    H128306   2.307   1.709   1.154  0.1175  0.5610 -1.0756
 2249TIP3    H228307   2.359   1.627   1.038 -0.3933 -0.9794 -0.2419
 2250TIP3   OH228308   0.353   3.196   1.862  0.2112  0.3360 -0.3007
 2250TIP3    H128309   0.362   3.280   1.908  0.3076 -0.0792  0.4620
 2250TIP3    H228310   0.311   3.139   1.926 -0.6966  0.0576 -1.1391
 2251TIP3   OH228311   2.078   3.724   7.502 -0.6354 -0.2208 -0.0230
 2251TIP3    H128312   2.080   3.820   7.502  0.3667 -0.2220  0.6150
 2251TIP3    H228313   1.993   3.702   7.464 -0.3333  0.8964 -1.4549
 2252TIP3   OH228314   4.061   4.552   6.740 -0.4722  0.1222  0.0209
 2252TIP3    H128315   4.102   4.639   6.739  1.5344 -0.7665  0.3467
 2252TIP3    H228316   4.133   4.492   6.758 -1.9119 -1.5795  0.3662
 2253TIP3   OH228317   5.280   0.381   7.950 -0.3170  0.2113 -0.4278
 2253TIP3    H128318   5.213   0.376   8.018  0.7482  1.9526  0.8357
 2253TIP3    H228319   5.356   0.336   7.987  0.1488  0.8316 -0.6091
 2254TIP3   OH228320   1.673   0.178   1.626  0.2398 -0.9083 -0.1148
 2254TIP3    H128321   1.595   0.227   1.653 -1.0632 -2.1176 -1.4906
 2254TIP3    H228322   1.741   0.204   1.688 -1.5318 -0.6049  1.7944
 2255TIP3   OH228323   6.171   5.552   8.126  0.6939 -0.1262  0.0430
 2255TIP3    H128324   6.079   5.531   8.145  0.5657 -1.0354 -1.4248
 2255TIP3    H228325   6.169   5.643   8.096 -0.3995 -1.1833 -3.6689
 2256TIP3   OH228326   1.882   5.864   0.958  0.2998 -0.1488  0.0818
 2256TIP3    H128327   1.835   5.789   0.921 -0.3056 -0.5881  1.6394
 2256TIP3    H228328   1.974   5.847   0.937 -0.0097 -0.3485 -1.2126
 2257TIP3   OH228329   4.598   3.174   8.213 -0.5459 -0.0122 -0.2742
 2257TIP3    H128330   4.648   3.254   8.226 -2.3431  1.1543 -0.2279
 2257TIP3    H228331   4.557   3.158   8.298 -2.0739  0.3715 -0.9118
 2258TIP3   OH228332   6.286   6.359   1.375  0.8957 -0.5791 -0.0743
 2258TIP3    H128333   6.288   6.445   1.332  1.9585  0.5454  2.0876
 2258TIP3    H228334   6.361   6.313   1.338  0.5821 -0.4426 -0.9247
 2259TIP3   OH228335   3.053   3.126   7.466  0.7649 -0.3266  0.3992
 2259TIP3    H128336   2.969   3.153   7.502  0.2422 -0.6072 -0.5837
 2259TIP3    H228337   3.069   3.040   7.504  1.0469  0.1115  1.2863
 2260TIP3   OH228338   0.700   6.219   6.927  0.3009 -0.3663 -0.1161
 2260TIP3    H128339   0.764   6.282   6.895  0.1427 -0.7598 -1.2896
 2260TIP3    H228340   0.691   6.238   7.020  1.0318  0.6448 -0.2346
 2261TIP3   OH228341   6.557   5.084   0.723  0.3167 -0.2253 -0.1609
 2261TIP3    H128342   6.630   5.133   0.760  0.4634 -1.1697  0.8566
 2261TIP3    H228343   6.593   5.044   0.643  1.0703 -1.0718  0.5841
 2262TIP3   OH228344   1.816   3.721   0.297 -0.6307  0.0160 -0.0366
 2262TIP3    H128345   1.779   3.633   0.307 -1.0967  0.3059  0.9479
 2262TIP3    H228346   1.887   3.723   0.362 -0.1981  0.1561 -0.5062
 2263TIP3   OH228347   4.579   2.170   1.421  0.3119 -0.4314 -0.0845
 2263TIP3    H128348   4.546   2.144   1.507  0.0833 -0.8812 -0.2995
 2263TIP3    H228349   4.509   2.225   1.384  0.8499  0.6147  0.4212
 2264TIP3   OH228350   5.231   3.138   7.228  0.4331  0.3267 -0.3952
 2264TIP3    H128351   5.291   3.108   7.160  1.9336  1.1051  0.5263
 2264TIP3    H228352   5.247   3.232   7.235  0.0133  0.3356  0.7366
 2265TIP3   OH228353   4.662   5.908   7.746 -0.0212  0.1452  0.0147
 2265TIP3    H128354   4.750   5.873   7.756 -1.3213 -2.7534  2.9414
 2265TIP3    H228355   4.631   5.872   7.663  1.3904  1.0502 -0.9545
 2266TIP3   OH228356   4.718   2.650   0.058  0.1049  0.1628 -0.1397
 2266TIP3    H128357   4.808   2.648   0.089  0.6442  1.3694 -1.5164
 2266TIP3    H228358   4.710   2.571   0.003  0.7694  0.7432 -1.1050
 2267TIP3   OH228359   4.307   5.206   0.640  0.0440 -0.1851 -0.2551
 2267TIP3    H128360   4.249   5.275   0.674 -0.1073 -0.3898 -0.0900
 2267TIP3    H228361   4.250   5.129   0.633  0.3246 -0.4201  0.0190
 2268TIP3   OH228362   1.477   2.025   7.312  0.0669  0.4309  0.1814
 2268TIP3    H128363   1.514   1.962   7.374 -0.1630  1.6184  1.5873
 2268TIP3    H228364   1.511   1.998   7.227  1.6628 -0.3249  1.0218
 2269TIP3   OH228365   1.962   1.727   1.585 -0.1907  0.7176  0.5875
 2269TIP3    H128366   1.981   1.697   1.674  1.0081  0.5446  0.2891
 2269TIP3    H228367   1.976   1.650   1.530 -1.1356  0.7693  0.2565
 2270TIP3   OH228368   5.475   6.838   1.369 -0.3888 -0.3502 -0.3846
 2270TIP3    H128369   5.549   6.887   1.407 -1.1763 -0.3791  1.2542
 2270TIP3    H228370   5.513   6.754   1.344  0.1229 -0.4288  0.6005
 2271TIP3   OH228371   4.079   1.691   7.463 -0.3421  0.3257 -0.5859
 2271TIP3    H128372   4.099   1.784   7.447  1.0214  0.2688  0.5560
 2271TIP3    H228373   4.164   1.648   7.457 -0.8159 -0.6933 -0.0580
 2272TIP3   OH228374   6.981   6.427   6.921 -0.0035 -0.6208  0.1442
 2272TIP3    H128375   7.074   6.436   6.897  0.1021 -0.0539  0.7362
 2272TIP3    H228376   6.934   6.457   6.843  0.3073 -0.8752 -0.1446
 2273TIP3   OH228377   1.673   0.951   0.656  0.0259  0.4294 -0.3720
 2273TIP3    H128378   1.740   0.959   0.587 -0.2347  1.6673 -0.5037
 2273TIP3    H228379   1.627   1.035   0.654 -0.0462  0.4507  1.2566
 2274TIP3   OH228380   6.799   2.951   7.737 -0.6402 -0.0146  0.3860
 2274TIP3    H128381   6.813   3.025   7.796 -0.5434  0.4746 -0.2379
 2274TIP3    H228382   6.775   2.991   7.653 -0.9691 -0.7022  0.1414
 2275TIP3   OH228383   3.344   3.237   0.011 -0.5064  0.1039  0.0299
 2275TIP3    H128384   3.348   3.215  -0.082  0.7771 -0.4174  0.1769
 2275TIP3    H228385   3.262   3.284   0.022 -0.2837  0.9125 -1.5290
 2276TIP3   OH228386   6.451   0.600   6.645 -0.3061 -0.3166 -0.6424
 2276TIP3    H128387   6.536   0.622   6.607 -0.6774  0.7459 -0.9062
 2276TIP3    H228388   6.388   0.620   6.575 -0.8539 -0.0479 -0.0834
 2277TIP3   OH228389   6.566   4.579   1.421  0.1456 -0.0750  0.3484
 2277TIP3    H128390   6.498   4.542   1.364  1.0219  0.2771 -0.9803
 2277TIP3    H228391   6.550   4.673   1.419  0.0871 -0.0750  0.8213
 2278TIP3   OH228392   5.291   5.092   0.867  0.0923 -0.2713  0.1159
 2278TIP3    H128393   5.346   5.126   0.938  0.9751 -2.2832  0.4898
 2278TIP3    H228394   5.295   5.159   0.799  0.9057  0.7913  1.1611
 2279TIP3   OH228395   2.468   2.919   5.689  0.4600 -0.1827  0.4767
 2279TIP3    H128396   2.437   2.955   5.606  1.5649 -0.6764 -0.1604
 2279TIP3    H228397   2.435   2.829   5.690  0.0292 -0.0240  0.8068
 2280TIP3   OH228398   0.438   4.436   0.888  0.0306 -0.4887 -0.3247
 2280TIP3    H128399   0.424   4.484   0.807 -1.2462 -0.8867 -0.3620
 2280TIP3    H228400   0.351   4.429   0.928  0.9267  2.0065  2.4274
 2281TIP3   OH228401   2.463   1.361   6.494  0.8203 -0.4641  0.1165
 2281TIP3    H128402   2.482   1.364   6.401  0.7450 -1.9197  0.0349
 2281TIP3    H228403   2.431   1.448   6.515  0.1580 -0.3329 -1.3623
 2282TIP3   OH228404   6.126   0.345   6.659  0.4599 -0.7620 -0.5923
 2282TIP3    H128405   6.061   0.405   6.623  1.0068  0.2614  0.0680
 2282TIP3    H228406   6.074   0.282   6.710 -0.0542 -0.1192 -0.2908
 2283TIP3   OH228407   1.006   3.056   0.295 -0.6141  0.0729  0.5588
 2283TIP3    H128408   1.056   3.043   0.376 -0.3829 -0.6337  0.3100
 2283TIP3    H228409   1.066   3.032   0.225 -1.7301 -2.2413  0.3103
 2284TIP3   OH228410   4.456   4.082   1.482  0.0751 -0.7932 -0.0038
 2284TIP3    H128411   4.484   4.005   1.531  1.3756 -0.6165 -0.4223
 2284TIP3    H228412   4.473   4.060   1.390  0.9084  0.1410 -0.0932
 2285TIP3   OH228413   0.613   5.423   1.346 -0.1865 -0.1686  0.0480
 2285TIP3    H128414   0.690   5.404   1.400  0.2837  1.7062  0.1191
 2285TIP3    H228415   0.538   5.400   1.401  0.2898 -1.3299  0.2497
 2286TIP3   OH228416   0.031   1.932   0.858 -0.3643 -0.0563 -0.2005
 2286TIP3    H128417   0.043   2.018   0.897  1.3515 -0.5203  0.3610
 2286TIP3    H228418  -0.025   1.949   0.781  1.6653  1.9402 -1.3774
 2287TIP3   OH228419   3.177   0.606   6.727 -0.0476 -0.4776  0.1987
 2287TIP3    H128420   3.129   0.556   6.661  0.5329 -0.7853 -0.0034
 2287TIP3    H228421   3.143   0.695   6.720  2.6179  0.4754 -3.2506
 2288TIP3   OH228422   6.731   3.487   7.816  0.3455 -0.0219 -0.0145
 2288TIP3    H128423   6.777   3.487   7.900  1.1303 -1.3322 -0.4139
 2288TIP3    H228424   6.696   3.576   7.808  2.0066  0.7518  0.7659
 2289TIP3   OH228425   0.782   0.199   7.529 -0.0793 -0.7097 -0.4846
 2289TIP3    H128426   0.829   0.135   7.476 -0.4998 -1.2244 -0.2447
 2289TIP3    H228427   0.713   0.233   7.472 -0.3764 -1.0828 -0.3530
 2290TIP3   OH228428   6.996   1.428   6.944 -0.1089  0.0443  0.0958
 2290TIP3    H128429   6.961   1.407   6.857  1.4455 -0.0285 -0.5375
 2290TIP3    H228430   7.091   1.426   6.933  0.1369 -0.6659  1.9754
 2291TIP3   OH228431   1.360   2.148   1.446  0.1971 -0.9399 -0.1411
 2291TIP3    H128432   1.412   2.129   1.368  0.4282  0.0195 -0.2327
 2291TIP3    H228433   1.424   2.171   1.513 -0.0993  1.0625 -0.4831
 2292TIP3   OH228434   1.804   4.620   1.345 -0.2175 -0.5868  0.5008
 2292TIP3    H128435   1.847   4.638   1.429  1.6145 -3.1864  0.2260
 2292TIP3    H228436   1.845   4.680   1.284 -1.1066  0.8769  1.2690
 2293TIP3   OH228437   4.430   5.699   0.999  0.0515 -0.1040 -0.2074
 2293TIP3    H128438   4.475   5.644   1.063  1.1468 -1.2770 -1.8931
 2293TIP3    H228439   4.378   5.637   0.947 -0.9294  0.8367 -0.3884
 2294TIP3   OH228440   4.252   0.110   0.680 -0.9530 -0.0618 -0.2008
 2294TIP3    H128441   4.335   0.101   0.726 -1.4724  0.8773  1.0027
 2294TIP3    H228442   4.198   0.163   0.739 -3.1086 -2.3087  0.0179
 2295TIP3   OH228443   6.884   4.673   1.476 -0.3899  0.3713 -0.3009
 2295TIP3    H128444   6.828   4.613   1.526  1.2041 -1.1580 -0.2487
 2295TIP3    H228445   6.893   4.750   1.533 -2.0797  0.5015 -0.1572
 2296TIP3   OH228446   4.154   3.502   0.421  0.0751 -0.1867 -0.1044
 2296TIP3    H128447   4.126   3.410   0.415 -0.0391 -0.3469  1.9776
 2296TIP3    H228448   4.223   3.501   0.487 -0.4373  1.3286  0.4822
 2297TIP3   OH228449   6.805   1.255   7.097 -0.1378 -0.2830  0.2776
 2297TIP3    H128450   6.842   1.316   7.032  0.1458 -1.6436 -0.8903
 2297TIP3    H228451   6.882   1.211   7.134 -0.4459 -2.0031 -1.0247
 2298TIP3   OH228452   3.721   0.821   0.225  0.1864 -0.1178 -0.2594
 2298TIP3    H128453   3.683   0.744   0.183  0.6175 -0.2084 -0.4938
 2298TIP3    H228454   3.652   0.887   0.221  0.4874  0.1465 -1.8613
 2299TIP3   OH228455   2.651   5.595   7.091  0.1360 -0.0482  0.0833
 2299TIP3    H128456   2.601   5.665   7.049  0.8563  1.4903  1.6675
 2299TIP3    H228457   2.651   5.524   7.027 -0.4977  1.4337 -1.6491
 2300TIP3   OH228458   0.632   4.774   7.243  0.0547  0.0454  0.4220
 2300TIP3    H128459   0.676   4.733   7.317  1.4723 -2.4621 -1.6190
 2300TIP3    H228460   0.699   4.831   7.204 -0.4413  0.7948  0.6675
 2301TIP3   OH228461   3.026   2.909   6.493 -0.0466 -0.1922 -0.3735
 2301TIP3    H128462   3.068   2.995   6.495 -1.3373  0.4502  0.0980
 2301TIP3    H228463   2.961   2.915   6.423 -0.4075 -0.6557 -0.0832
 2302TIP3   OH228464   7.001   6.936   1.111  0.1985  0.5726 -0.1365
 2302TIP3    H128465   6.921   6.985   1.128 -0.1762 -0.0596 -0.0490
 2302TIP3    H228466   6.986   6.895   1.026 -0.2011 -0.7925  0.5737
 2303TIP3   OH228467   5.473   4.102   8.036 -0.2764 -0.0950  0.2337
 2303TIP3    H128468   5.408   4.071   7.972  0.7261 -1.4594 -0.1632
 2303TIP3    H228469   5.535   4.030   8.044  0.2585  0.5121  1.9054
 2304TIP3   OH228470   1.723   0.094   0.055 -0.2806  0.4437 -0.1429
 2304TIP3    H128471   1.679   0.165   0.102 -1.0948 -0.0119 -0.2009
 2304TIP3    H228472   1.681   0.014   0.086  0.8622 -0.0619  0.1865
 2305TIP3   OH228473   5.779   4.107   7.903  0.3563 -0.1394  0.1815
 2305TIP3    H128474   5.840   4.166   7.947  1.0825 -0.1188 -0.8124
 2305TIP3    H228475   5.827   4.075   7.827 -0.7627 -0.3838 -0.4461
 2306TIP3   OH228476   6.803   0.028   1.192  0.1987  0.1330  0.4934
 2306TIP3    H128477   6.740   0.071   1.134  1.2003  0.5854 -0.2920
 2306TIP3    H228478   6.778   0.057   1.280 -0.1707  0.9985  0.1167
 2307TIP3   OH228479   3.783   5.515   7.079 -0.1454  0.3693 -0.4224
 2307TIP3    H128480   3.818   5.561   7.156  3.4468 -0.2794 -1.4574
 2307TIP3    H228481   3.763   5.584   7.016 -3.1392  0.9082  0.9316
 2308TIP3   OH228482   1.303   1.719   2.156  0.4335 -0.4469 -0.1594
 2308TIP3    H128483   1.214   1.740   2.182  0.4936  1.6602 -1.4313
 2308TIP3    H228484   1.339   1.670   2.230 -1.1802  0.2729  1.1497
 2309TIP3   OH228485   5.206   5.906   6.979 -0.1493  0.3661  0.3491
 2309TIP3    H128486   5.160   5.873   6.901  0.0609 -0.9250  0.7482
 2309TIP3    H228487   5.295   5.924   6.948 -0.1235  0.0571  0.2355
 2310TIP3   OH228488   2.048   3.215   7.499 -0.8333 -0.3743 -0.6219
 2310TIP3    H128489   2.024   3.293   7.548 -0.5983 -0.2616 -0.6855
 2310TIP3    H228490   2.065   3.246   7.410 -1.4708 -0.6091 -0.8353
 2311TIP3   OH228491   1.854   1.950   1.738 -0.2648 -0.2370  0.7840
 2311TIP3    H128492   1.848   1.966   1.832  0.7473  1.5756  0.5840
 2311TIP3    H228493   1.936   1.903   1.727 -1.5351 -2.6383  1.0027
 2312TIP3   OH228494   0.506   0.209   0.267 -0.3747  0.0383 -0.3470
 2312TIP3    H128495   0.439   0.202   0.335  0.1873 -0.1339  0.2005
 2312TIP3    H228496   0.589   0.212   0.315 -0.0417  1.3954 -0.9480
 2313TIP3   OH228497   0.324   1.726   7.416 -0.3073 -0.0591  0.1391
 2313TIP3    H128498   0.369   1.661   7.471  2.5676  0.0678 -1.8509
 2313TIP3    H228499   0.231   1.718   7.440  0.0918 -3.8904  0.9514
 2314TIP3   OH228500   5.816   6.846   7.044 -0.0558 -0.1427 -0.9045
 2314TIP3    H128501   5.811   6.808   6.956 -1.0858 -0.5260 -0.7059
 2314TIP3    H228502   5.726   6.840   7.077  0.4271 -0.5672  0.4061
 2315TIP3   OH228503   5.922   2.464   0.844  0.6143  0.3550 -0.4488
 2315TIP3    H128504   5.953   2.435   0.758 -0.5358  1.1125 -1.1493
 2315TIP3    H228505   5.937   2.558   0.845  2.3920  0.0984  0.9734
 2316TIP3   OH228506   6.862   2.303   0.804 -0.6204  0.5265 -0.2821
 2316TIP3    H128507   6.804   2.367   0.846 -2.2453 -1.7928  1.3064
 2316TIP3    H228508   6.803   2.241   0.762  0.9158  0.5415 -2.6725
 2317TIP3   OH228509   1.818   5.182   0.696  0.3262  0.0825 -0.5444
 2317TIP3    H128510   1.895   5.234   0.717 -0.1666  2.0723 -3.2160
 2317TIP3    H228511   1.744   5.233   0.730  0.0258 -0.7393  0.0744
 2318TIP3   OH228512   4.139   3.591   8.021  0.3004  0.3948  1.1854
 2318TIP3    H128513   4.115   3.518   8.078 -1.5462  2.0455  2.6656
 2318TIP3    H228514   4.074   3.589   7.951  0.8699  0.0357  0.6577
 2319TIP3   OH228515   1.585   3.711   7.060 -0.4748 -0.5195  0.1757
 2319TIP3    H128516   1.490   3.710   7.052 -0.5436 -0.6145  0.9692
 2319TIP3    H228517   1.605   3.644   7.125  0.1005 -0.1528  0.3855
 2320TIP3   OH228518   4.947   1.032   1.463 -0.1073 -0.5544  0.2259
 2320TIP3    H128519   4.986   0.947   1.442  0.5612  0.7380 -4.8163
 2320TIP3    H228520   5.012   1.075   1.519  2.8662 -0.9321 -2.6591
 2321TIP3   OH228521   4.701   5.229   0.386  0.2074 -0.0704  0.1391
 2321TIP3    H128522   4.676   5.137   0.398 -0.5502  0.0264 -0.6163
 2321TIP3    H228523   4.772   5.242   0.450 -0.5179 -0.8260  1.1506
 2322TIP3   OH228524   6.495   4.390   0.255 -0.0027 -0.5625  0.3128
 2322TIP3    H128525   6.516   4.471   0.207 -1.1113  0.0294  0.7871
 2322TIP3    H228526   6.579   4.348   0.270  0.4974 -0.0381 -0.8960
 2323TIP3   OH228527   3.937   0.959   0.915  0.1209  0.3246  0.0799
 2323TIP3    H128528   3.876   1.027   0.886 -0.9058 -0.8811 -0.7087
 2323TIP3    H228529   3.987   0.937   0.836  0.2166 -0.0568  0.2439
 2324TIP3   OH228530   2.040   1.037   0.685  0.3560 -0.1641  0.6587
 2324TIP3    H128531   2.014   0.945   0.695  0.7568 -0.2364  1.0919
 2324TIP3    H228532   1.965   1.086   0.720 -0.2379 -0.2878 -0.3867
 2325TIP3   OH228533   4.750   3.680   1.537 -0.0367  0.0659  0.1209
 2325TIP3    H128534   4.659   3.652   1.546  0.0785 -0.7424 -1.0625
 2325TIP3    H228535   4.772   3.717   1.623 -0.5925 -2.3343  1.3809
 2326TIP3   OH228536   2.483   3.734   7.662 -0.7750 -0.3418 -0.0643
 2326TIP3    H128537   2.431   3.809   7.691 -1.9591 -1.5655  1.1419
 2326TIP3    H228538   2.419   3.666   7.643  0.2919 -1.2028 -0.6929
 2327TIP3   OH228539   4.975   1.728   2.060 -0.2200 -0.9008 -0.3696
 2327TIP3    H128540   4.977   1.680   1.977 -0.2472 -0.4004 -0.6692
 2327TIP3    H228541   4.885   1.759   2.068 -0.2262 -0.9818 -0.1358
 2328TIP3   OH228542   2.015   1.471   8.024 -0.4864  0.5888  0.7478
 2328TIP3    H128543   1.981   1.442   7.940 -0.0074  2.1669 -0.0210
 2328TIP3    H228544   1.946   1.449   8.087 -1.1204 -0.0200 -0.1447
 2329TIP3   OH228545   5.463   4.202   1.900  0.0049  0.8841  0.2056
 2329TIP3    H128546   5.479   4.151   1.821  0.3084 -1.1070  1.4736
 2329TIP3    H228547   5.547   4.200   1.947 -1.0102 -0.8638  2.1038
 2330TIP3   OH228548   3.921   1.656   1.227 -0.2784  0.2380  0.2994
 2330TIP3    H128549   3.980   1.731   1.238  0.4980 -0.3031 -0.0352
 2330TIP3    H228550   3.848   1.674   1.285  0.4719  0.6886  1.1303
 2331TIP3   OH228551   5.758   0.211   6.585  0.1008  0.3849  0.1392
 2331TIP3    H128552   5.778   0.128   6.627  1.1431  0.5180 -0.0804
 2331TIP3    H228553   5.736   0.187   6.495  0.6612  0.3665  0.0043
 2332TIP3   OH228554   0.984   2.665   7.334  0.0844  0.2199 -0.5615
 2332TIP3    H128555   0.921   2.711   7.389 -0.4048  0.3914 -1.2554
 2332TIP3    H228556   0.939   2.652   7.251  0.8791  0.1333 -0.9922
 2333TIP3   OH228557   0.546   5.360   8.102  0.5434  0.6140 -0.5939
 2333TIP3    H128558   0.454   5.338   8.086  0.4482 -0.1614  0.8210
 2333TIP3    H228559   0.576   5.292   8.162  1.5374  1.8717  0.3826
 2334TIP3   OH228560   4.682   6.102   2.430  0.4818 -0.3097  0.4533
 2334TIP3    H128561   4.733   6.026   2.458  1.1974  0.3627  1.0276
 2334TIP3    H228562   4.692   6.165   2.501  0.6941  0.6867 -0.4343
 2335TIP3   OH228563   3.811   5.555   7.810 -0.1528 -0.5470 -0.3727
 2335TIP3    H128564   3.870   5.561   7.735 -0.6768 -0.8471 -0.8128
 2335TIP3    H228565   3.789   5.646   7.831  1.8470 -0.2964  0.9209
 2336TIP3   OH228566   0.502   1.690   6.290 -0.1454 -0.1428 -0.2111
 2336TIP3    H128567   0.427   1.701   6.348  0.4342 -1.1804  0.7947
 2336TIP3    H228568   0.517   1.595   6.288  1.4542  0.0739  0.0703
 2337TIP3   OH228569   6.461   3.489   6.574  0.0347 -0.0730 -0.2844
 2337TIP3    H128570   6.479   3.428   6.503  0.8231 -0.3359  0.1281
 2337TIP3    H228571   6.536   3.549   6.574  0.2096 -0.2816  0.5331
 2338TIP3   OH228572   2.614   1.796   1.116 -0.3330  0.3584 -0.2851
 2338TIP3    H128573   2.674   1.870   1.108  2.2065 -1.1212  2.6346
 2338TIP3    H228574   2.528   1.836   1.126  0.9514  2.9898  1.3551
 2339TIP3   OH228575   1.190   4.467   6.621 -0.0128 -0.0772 -0.4909
 2339TIP3    H128576   1.164   4.557   6.640  1.7505  0.6861 -1.4509
 2339TIP3    H228577   1.119   4.432   6.567 -1.0632  0.4714  0.4997
 2340TIP3   OH228578   2.681   3.320   7.262 -0.3698  0.4162 -0.4883
 2340TIP3    H128579   2.715   3.281   7.181 -0.8910 -0.8924 -0.0932
 2340TIP3    H228580   2.590   3.289   7.267 -0.1421 -0.0550  0.9423
 2341TIP3   OH228581   0.557   0.162   1.017 -0.0717 -0.6119  0.5939
 2341TIP3    H128582   0.479   0.180   1.069  0.4599  1.7930  0.6602
 2341TIP3    H228583   0.574   0.243   0.970  2.3468 -1.0901  0.5068
 2342TIP3   OH228584   3.490   2.138   0.943  0.2553 -0.1715  0.0588
 2342TIP3    H128585   3.581   2.138   0.973  0.8746 -1.8562 -1.6044
 2342TIP3    H228586   3.493   2.182   0.859 -0.7004  0.7488  0.4855
 2343TIP3   OH228587   4.749   2.239   1.225 -0.5489 -0.2792 -0.1562
 2343TIP3    H128588   4.694   2.199   1.292 -1.0571 -1.7631 -1.4059
 2343TIP3    H228589   4.799   2.166   1.188 -0.0287  0.5555 -1.1537
 2344TIP3   OH228590   2.563   3.845   0.007 -0.0498  0.0688 -0.0799
 2344TIP3    H128591   2.632   3.791   0.045 -0.9530 -2.5886 -1.9004
 2344TIP3    H228592   2.494   3.846   0.074  0.3242 -0.3141  0.3185
 2345TIP3   OH228593   0.546   3.047   2.350 -0.1215  0.4016 -0.5359
 2345TIP3    H128594   0.454   3.022   2.359  0.5660 -1.4730  3.2201
 2345TIP3    H228595   0.549   3.138   2.377 -0.7775  0.2005  0.2551
 2346TIP3   OH228596   3.440   4.914   0.852 -0.5703  0.3636 -0.5486
 2346TIP3    H128597   3.526   4.933   0.891 -0.9716 -1.2402  1.2400
 2346TIP3    H228598   3.398   4.854   0.914 -3.3361  1.7211 -0.9775
 2347TIP3   OH228599   5.275   5.531   8.074 -0.0054  0.4578  0.0665
 2347TIP3    H128600   5.296   5.491   8.159  0.0177 -0.1202 -0.2117
 2347TIP3    H228601   5.360   5.556   8.038 -0.0543  1.2104  0.4579
 2348TIP3   OH228602   2.025   2.371   7.391 -0.4141 -0.3723  0.0666
 2348TIP3    H128603   2.037   2.450   7.443 -1.6935 -0.5573  0.6861
 2348TIP3    H228604   1.997   2.403   7.305 -1.5237 -0.1499  0.4948
 2349TIP3   OH228605   5.864   5.466   0.695  0.1212  0.3769 -1.0243
 2349TIP3    H128606   5.863   5.374   0.669 -0.8138  0.1735 -0.3580
 2349TIP3    H228607   5.796   5.507   0.641 -1.0028  0.1930  0.1725
 2350TIP3   OH228608   4.470   0.069   2.077 -0.3603  0.0840 -0.0446
 2350TIP3    H128609   4.522   0.148   2.065  0.2317 -0.2873  0.0323
 2350TIP3    H228610   4.532   0.003   2.108 -1.1272 -0.0166  1.3634
 2351TIP3   OH228611   4.959   4.355   7.743 -0.1405 -0.0715  0.2261
 2351TIP3    H128612   5.052   4.356   7.765 -0.3636  1.0540  1.2497
 2351TIP3    H228613   4.922   4.283   7.793 -0.0209  0.2546  0.7898
 2352TIP3   OH228614   6.262   6.478   7.935 -0.0778  0.4269 -0.2014
 2352TIP3    H128615   6.173   6.458   7.962 -0.0837 -1.8974 -1.7345
 2352TIP3    H228616   6.267   6.451   7.844  2.3275  0.0647 -0.0357
 2353TIP3   OH228617   0.680   4.727   1.412  0.1153 -0.0012 -0.0005
 2353TIP3    H128618   0.671   4.683   1.497 -1.5793  1.7043  0.7777
 2353TIP3    H228619   0.598   4.710   1.367 -0.5335  2.0825  0.2623
 2354TIP3   OH228620   4.710   0.634   1.137  0.6829 -0.0680 -0.2148
 2354TIP3    H128621   4.658   0.703   1.095  1.2858  0.5604  0.0391
 2354TIP3    H228622   4.669   0.552   1.109 -0.5291  0.4120  0.1091
 2355TIP3   OH228623   6.462   5.502   0.324 -0.2688 -0.2678  0.1584
 2355TIP3    H128624   6.434   5.561   0.254  2.0678  0.3308 -0.3569
 2355TIP3    H228625   6.384   5.449   0.344 -0.9549 -0.7030 -3.1155
 2356TIP3   OH228626   4.199   2.385   0.989  0.7216  0.7620 -0.1375
 2356TIP3    H128627   4.116   2.354   0.953  0.3630  1.9398 -0.3710
 2356TIP3    H228628   4.263   2.319   0.963 -0.1678 -0.2904  0.2526
 2357TIP3   OH228629   0.608   5.469   6.356 -0.5272  0.8650 -0.6018
 2357TIP3    H128630   0.613   5.558   6.390 -1.9830  0.2575  1.4474
 2357TIP3    H228631   0.569   5.419   6.428  0.7807 -1.5484 -1.4606
 2358TIP3   OH228632   6.069   6.408   7.316  0.5816  0.1013  0.5370
 2358TIP3    H128633   6.036   6.324   7.347  0.3328  0.2875  0.7756
 2358TIP3    H228634   6.051   6.470   7.387 -0.7814  0.7097 -0.2962
 2359TIP3   OH228635   3.636   5.990   1.493 -0.1183 -0.7204  0.3235
 2359TIP3    H128636   3.562   6.050   1.480 -0.2902 -0.6623  1.4398
 2359TIP3    H228637   3.601   5.904   1.473  0.0146 -0.5087 -0.8893
 2360TIP3   OH228638   6.190   2.263   1.463  0.2010  0.3133 -0.5796
 2360TIP3    H128639   6.244   2.312   1.401  0.1563  1.7472  0.4825
 2360TIP3    H228640   6.223   2.286   1.549  1.5460 -3.1606  0.0074
 2361TIP3   OH228641   1.959   5.524   6.554 -0.3096 -0.0736 -0.0539
 2361TIP3    H128642   1.939   5.573   6.634  2.0673 -0.2666  0.7169
 2361TIP3    H228643   2.046   5.488   6.569 -0.0491 -0.6152 -2.5112
 2362TIP3   OH228644   1.386   4.983   7.728  0.1918  0.1744 -0.1168
 2362TIP3    H128645   1.323   4.988   7.800  0.3116 -0.6467  0.0580
 2362TIP3    H228646   1.471   4.999   7.769  0.0912  1.5594 -0.3985
 2363TIP3   OH228647   6.236   6.117   2.011 -0.1701 -0.4867 -0.0207
 2363TIP3    H128648   6.144   6.103   1.988 -0.5919  0.7523  0.7856
 2363TIP3    H228649   6.249   6.212   2.000  0.7277 -0.4969  0.8552
 2364TIP3   OH228650   3.762   0.995   7.281  0.1092  0.1194  0.1510
 2364TIP3    H128651   3.790   1.085   7.263  2.4080 -0.6748 -0.6278
 2364TIP3    H228652   3.787   0.980   7.372  0.3936  0.0415  0.0603
 2365TIP3   OH228653   5.525   5.834   8.259  0.3061 -0.5562  0.1051
 2365TIP3    H128654   5.524   5.929   8.258 -0.3542 -0.5593 -0.3884
 2365TIP3    H228655   5.601   5.811   8.312  2.3654  0.2345 -2.3130
 2366TIP3   OH228656   1.877   3.559   7.123 -0.4898  0.0043  0.2075
 2366TIP3    H128657   1.862   3.582   7.032 -0.1777  2.1561  0.6369
 2366TIP3    H228658   1.967   3.525   7.124 -0.9329 -1.2154 -0.4608
 2367TIP3   OH228659   1.702   1.621   1.367 -0.0428  0.3684 -0.5586
 2367TIP3    H128660   1.751   1.585   1.440 -0.8943  1.8236  0.7783
 2367TIP3    H228661   1.619   1.574   1.368 -0.0189  0.3211 -0.6779
 2368TIP3   OH228662   1.661   6.914   0.395 -0.7519 -0.5737  0.8413
 2368TIP3    H128663   1.658   6.915   0.299 -0.2415 -0.7670  0.8198
 2368TIP3    H228664   1.575   6.947   0.422  0.4811  3.7150  0.3077
 2369TIP3   OH228665   4.952   5.713   1.480  0.4516  0.0720 -0.0506
 2369TIP3    H128666   4.893   5.727   1.407 -1.0920  0.5990  1.2281
 2369TIP3    H228667   4.971   5.800   1.514 -2.1110 -0.2410  2.5669
 2370TIP3   OH228668   3.987   3.036   0.553  0.6388 -0.4180  0.2933
 2370TIP3    H128669   3.945   3.035   0.639  2.2332 -0.3143  1.1102
 2370TIP3    H228670   4.079   3.052   0.571  0.9081  0.3628 -1.4997
 2371TIP3   OH228671   1.456   3.768   0.886  0.0752 -0.1027 -0.8858
 2371TIP3    H128672   1.361   3.765   0.884  0.0715 -0.9234  0.0173
 2371TIP3    H228673   1.483   3.684   0.922  1.0897  0.6463  0.1863
 2372TIP3   OH228674   5.546   1.312   7.242  0.3988  0.2380  0.4596
 2372TIP3    H128675   5.488   1.340   7.171  0.4019 -2.1859 -0.5959
 2372TIP3    H228676   5.610   1.256   7.200  2.6978  1.6558  1.8573
 2373TIP3   OH228677   6.517   2.581   2.240 -0.0798 -0.1660 -0.6917
 2373TIP3    H128678   6.529   2.656   2.299  0.1088  0.3569 -1.3861
 2373TIP3    H228679   6.461   2.614   2.170  0.7839 -0.3870 -1.5045
 2374TIP3   OH228680   0.882   5.867   8.028 -0.9786  0.5518 -0.1939
 2374TIP3    H128681   0.860   5.928   7.957  0.6033  1.0413 -0.2913
 2374TIP3    H228682   0.975   5.849   8.016 -1.0859 -0.7262  0.7447
 2375TIP3   OH228683   4.979   5.659   0.179  0.1414  0.2197 -0.3621
 2375TIP3    H128684   4.976   5.699   0.092  0.5526  0.6849 -0.1730
 2375TIP3    H228685   4.901   5.692   0.224  0.1145  0.2571 -0.4366
 2376TIP3   OH228686   0.890   3.813   0.397  0.2219  0.2952 -0.4826
 2376TIP3    H128687   0.852   3.727   0.416 -0.6574  0.5675 -0.9572
 2376TIP3    H228688   0.985   3.798   0.400  0.1239 -0.2428  1.4420
 2377TIP3   OH228689   2.702   1.069   7.703  0.2844 -0.2688  0.3224
 2377TIP3    H128690   2.648   1.049   7.627 -0.4988  0.2405  0.7301
 2377TIP3    H228691   2.641   1.106   7.766  1.1079  0.2683  0.8165
 2378TIP3   OH228692   4.841   1.737   7.410 -0.1694  0.0991 -0.0890
 2378TIP3    H128693   4.892   1.719   7.331 -0.2419  0.4539 -0.2182
 2378TIP3    H228694   4.817   1.829   7.403 -0.6296 -0.0042  0.0909
 2379TIP3   OH228695   1.610   0.458   1.770  0.1129 -0.4106  0.3519
 2379TIP3    H128696   1.599   0.432   1.862  0.2275 -1.1971  0.1536
 2379TIP3    H228697   1.582   0.549   1.767 -2.7948 -1.2162  0.5953
 2380TIP3   OH228698   0.147   6.241   1.129  0.1134  0.0610  0.7305
 2380TIP3    H128699   0.173   6.244   1.038 -2.3918 -2.7662 -0.2663
 2380TIP3    H228700   0.220   6.198   1.174  0.4050 -0.7164 -0.4395
 2381TIP3   OH228701   6.028   3.834   1.359 -0.1372  0.3014 -0.4288
 2381TIP3    H128702   6.097   3.793   1.412  0.2144 -0.0515 -1.1533
 2381TIP3    H228703   5.947   3.799   1.396 -0.0206  1.5760  1.1655
 2382TIP3   OH228704   3.052   0.095   6.324  0.1645  0.9666  0.3851
 2382TIP3    H128705   3.130   0.106   6.270  1.2912 -0.7290  1.5528
 2382TIP3    H228706   3.053   0.171   6.382  0.8308  1.0814  0.2345
 2383TIP3   OH228707   5.086   4.517   6.842 -0.6584  0.0397  0.1811
 2383TIP3    H128708   5.122   4.578   6.777 -0.6492 -0.3077 -0.1422
 2383TIP3    H228709   5.151   4.518   6.913 -0.6513  0.3947  0.1716
 2384TIP3   OH228710   4.766   1.737   0.911 -0.2824  0.6747  0.0883
 2384TIP3    H128711   4.778   1.787   0.992  0.1408  0.6992  0.0125
 2384TIP3    H228712   4.675   1.708   0.914 -0.4656  1.2522  0.2457
 2385TIP3   OH228713   5.911   3.075   7.360  0.2396  0.0344 -0.1351
 2385TIP3    H128714   5.841   3.140   7.348  1.5076  1.5883  0.4024
 2385TIP3    H228715   5.890   3.005   7.299 -1.8149  0.4137  0.0763
 2386TIP3   OH228716   2.467   0.115   7.090  0.4671  0.0596 -0.5154
 2386TIP3    H128717   2.494   0.106   6.998  1.3235  1.2199 -0.4007
 2386TIP3    H228718   2.409   0.041   7.105 -0.6779  0.5103 -2.3503
 2387TIP3   OH228719   3.031   3.730   0.078  0.2092 -0.4731 -0.0639
 2387TIP3    H128720   3.106   3.719   0.137  0.8399 -4.0976 -1.3042
 2387TIP3    H228721   3.068   3.768  -0.002  0.1502  0.3435  0.2830
 2388TIP3   OH228722   6.536   3.431   0.666 -0.1058  0.2767 -0.4634
 2388TIP3    H128723   6.549   3.357   0.725  2.8242  0.4827 -0.7086
 2388TIP3    H228724   6.483   3.493   0.715 -0.9999 -1.1700  0.4570
 2389TIP3   OH228725   6.519   5.703   1.033  0.0387  0.5841 -0.0152
 2389TIP3    H128726   6.609   5.702   1.067  0.6287  0.6585 -1.4957
 2389TIP3    H228727   6.512   5.623   0.980 -1.0989  0.0807  0.8587
 2390TIP3   OH228728   1.057   1.730   1.338  0.5840 -0.5607  0.2569
 2390TIP3    H128729   1.136   1.700   1.382  0.1561 -1.4110  0.4735
 2390TIP3    H228730   0.988   1.724   1.405  0.2099 -0.4457 -0.1081
 2391TIP3   OH228731   1.736   0.094   7.295 -0.2465 -0.0280  0.3103
 2391TIP3    H128732   1.784   0.019   7.330 -0.1839 -0.1716 -0.0780
 2391TIP3    H228733   1.669   0.056   7.238  0.7174  0.2363 -1.0600
 2392TIP3   OH228734   4.891   6.758   1.356 -0.4343  0.5343  0.6871
 2392TIP3    H128735   4.842   6.704   1.417 -0.4501 -0.0070  0.2014
 2392TIP3    H228736   4.908   6.839   1.404 -1.6648  0.6757  0.9155
 2393TIP3   OH228737   2.663   6.565   1.426 -0.5260  0.3052 -0.1313
 2393TIP3    H128738   2.704   6.627   1.366 -0.3313 -0.1247 -0.4479
 2393TIP3    H228739   2.644   6.616   1.505 -1.9578  1.2133 -1.0119
 2394TIP3   OH228740   3.069   2.958   0.403  0.4788  0.5965  0.1638
 2394TIP3    H128741   3.030   2.875   0.430  0.3190  1.1380  1.7307
 2394TIP3    H228742   3.123   2.936   0.327 -0.0927 -0.8041  0.1287
 2395TIP3   OH228743   3.639   1.408   6.565  0.1348 -0.4129 -0.1232
 2395TIP3    H128744   3.648   1.443   6.476 -0.1741 -1.1212 -0.4350
 2395TIP3    H228745   3.720   1.358   6.579 -0.2995 -1.2032 -0.4152
 2396TIP3   OH228746   6.904   5.666   6.473 -0.4482  0.7918 -0.1608
 2396TIP3    H128747   6.903   5.759   6.496 -2.1386  0.7641  0.0708
 2396TIP3    H228748   6.862   5.623   6.548  0.9788 -0.2610  0.0566
 2397TIP3   OH228749   4.473   0.351   0.259  0.4111  0.6842  0.2467
 2397TIP3    H128750   4.479   0.442   0.230 -1.1450  0.7587  0.1189
 2397TIP3    H228751   4.470   0.300   0.178 -0.2510  0.6372  0.2948
 2398TIP3   OH228752   2.508   6.100   6.688 -0.0955  0.0950 -0.0390
 2398TIP3    H128753   2.576   6.130   6.748  1.4687 -0.1956 -1.6064
 2398TIP3    H228754   2.514   6.160   6.614 -1.5300  0.0167 -0.2516
 2399TIP3   OH228755   5.947   6.682   0.599  0.4078  0.0863 -0.5906
 2399TIP3    H128756   6.026   6.669   0.547 -0.4856 -1.8860 -1.5597
 2399TIP3    H228757   5.925   6.774   0.586  2.7794  0.8069  0.1075
 2400TIP3   OH228758   5.075   0.100   1.234 -0.4517 -0.2666  0.3076
 2400TIP3    H128759   4.996   0.050   1.215 -0.7440  0.4776 -0.4797
 2400TIP3    H228760   5.057   0.188   1.201 -0.2861  0.6158  2.4184
 2401TIP3   OH228761   0.723   6.667   1.444  0.3849  0.2027 -0.2363
 2401TIP3    H128762   0.797   6.642   1.390  0.2717 -1.7774  0.4644
 2401TIP3    H228763   0.762   6.708   1.521  0.9483 -2.4835  1.0151
 2402TIP3   OH228764   3.882   6.779   7.818  0.6170  0.1056  0.1610
 2402TIP3    H128765   3.846   6.851   7.767 -0.8211 -1.0874 -0.5643
 2402TIP3    H228766   3.812   6.754   7.878  0.4997 -1.6909 -0.6689
 2403TIP3   OH228767   1.879   3.238   0.659 -0.0517 -0.0103  0.8490
 2403TIP3    H128768   1.807   3.292   0.626  1.7930  0.6654 -2.5011
 2403TIP3    H228769   1.869   3.154   0.614  2.3825  0.8419 -1.5764
 2404TIP3   OH228770   0.898   1.155   7.580 -0.1845 -0.2814  0.1289
 2404TIP3    H128771   0.964   1.095   7.545  1.7110  1.9322 -0.3010
 2404TIP3    H228772   0.859   1.196   7.503  0.4213  0.9379  0.4543
 2405TIP3   OH228773   5.943   5.237   1.435 -0.1500  0.4210  0.2678
 2405TIP3    H128774   5.981   5.151   1.451 -0.0175  0.9487  3.3878
 2405TIP3    H228775   6.016   5.298   1.443 -0.9485  1.1524  2.9105
 2406TIP3   OH228776   1.298   0.511   1.019 -0.0256  0.2560 -0.2743
 2406TIP3    H128777   1.362   0.488   0.952 -0.1587 -0.2850 -0.2266
 2406TIP3    H228778   1.240   0.434   1.024 -0.7739  0.7995 -0.4304
 2407TIP3   OH228779   0.730   7.023   0.977  0.5691 -0.0327 -0.4465
 2407TIP3    H128780   0.651   7.073   1.000  1.7686  1.4059  0.7051
 2407TIP3    H228781   0.801   7.087   0.979  2.1825 -1.7482  1.0960
 2408TIP3   OH228782   2.620   3.594   1.385  0.5583  0.2122  0.2302
 2408TIP3    H128783   2.692   3.629   1.332  0.7966  0.3656  0.6555
 2408TIP3    H228784   2.560   3.668   1.396  1.7652  0.9632  2.3744
 2409TIP3   OH228785   1.921   6.737   0.145 -0.3694 -0.0715  0.0343
 2409TIP3    H128786   1.920   6.667   0.081  0.9576  0.4602 -0.5899
 2409TIP3    H228787   1.917   6.817   0.094 -1.5980  0.3499  0.7298
 2410TIP3   OH228788   4.634   1.403   2.280 -0.2082 -0.6207 -0.0430
 2410TIP3    H128789   4.567   1.428   2.343  0.5693  0.6052  0.3312
 2410TIP3    H228790   4.618   1.460   2.204 -0.7293 -1.6259 -0.7112
 2411TIP3   OH228791   3.270   4.418   1.451  0.1471  0.2511  0.6872
 2411TIP3    H128792   3.197   4.371   1.490  0.8187 -0.0647  1.6054
 2411TIP3    H228793   3.348   4.371   1.482  0.7179  0.1071 -0.8876
 2412TIP3   OH228794   5.321   5.851   0.657 -0.2805 -0.0193  0.6250
 2412TIP3    H128795   5.280   5.860   0.571  0.2939  0.9547  0.4338
 2412TIP3    H228796   5.257   5.803   0.709 -0.7790 -0.3280 -0.2482
 2413TIP3   OH228797   1.769   6.240   0.295  0.2599 -0.7408  0.3854
 2413TIP3    H128798   1.845   6.185   0.275 -0.7162 -2.0739  0.2075
 2413TIP3    H228799   1.786   6.273   0.383  0.5316 -1.9055  0.7775
 2414TIP3   OH228800   6.770   6.542   0.824  0.6606 -0.5866  0.0718
 2414TIP3    H128801   6.694   6.599   0.828 -0.2233 -1.7356  0.3034
 2414TIP3    H228802   6.752   6.482   0.752  1.7319 -0.3636 -0.4070
 2415TIP3   OH228803   4.768   3.737   1.066  0.4258  0.4785  0.7431
 2415TIP3    H128804   4.695   3.764   1.121 -0.7139  0.1467 -0.5672
 2415TIP3    H228805   4.808   3.664   1.113 -0.3320  0.4037  1.2845
 2416TIP3   OH228806   6.979   3.032   0.030  0.2908 -0.0928 -0.1890
 2416TIP3    H128807   6.895   2.985   0.027 -0.2564  0.7058  1.3053
 2416TIP3    H228808   7.045   2.964   0.023 -0.4772 -0.8351 -0.4751
 2417TIP3   OH228809   1.237   2.599   6.967  0.5197  0.2999 -0.3838
 2417TIP3    H128810   1.199   2.517   6.934  0.1836 -0.0281  0.7533
 2417TIP3    H228811   1.218   2.664   6.900  0.9624 -0.5915 -1.4035
 2418TIP3   OH228812   1.134   4.831   6.056  0.8682  0.4874  0.2293
 2418TIP3    H128813   1.184   4.912   6.055  1.4057  0.1631  0.4911
 2418TIP3    H228814   1.096   4.826   6.143 -0.2903  1.1277 -0.2189
 2419TIP3   OH228815   1.665   3.332   7.580 -0.1168 -0.0265 -0.2095
 2419TIP3    H128816   1.730   3.357   7.514 -0.3961  0.3014 -0.3597
 2419TIP3    H228817   1.581   3.339   7.536 -0.3386  0.5728  0.2854
 2420TIP3   OH228818   1.970   4.980   6.080  0.2916 -0.7347  0.2291
 2420TIP3    H128819   1.904   4.925   6.039 -0.7322  0.7858 -0.2480
 2420TIP3    H228820   2.046   4.923   6.091 -1.6571 -3.1203  2.5670
 2421TIP3   OH228821   4.675   1.137   0.221  0.1570 -0.0997  0.3803
 2421TIP3    H128822   4.709   1.064   0.273 -0.1513 -1.6354 -1.4525
 2421TIP3    H228823   4.752   1.189   0.199  1.1669 -2.2849 -1.8092
 2422TIP3   OH228824   4.264   1.241   6.422 -0.0186 -0.2014 -0.1200
 2422TIP3    H128825   4.257   1.333   6.396  0.0715 -0.1728 -0.0427
 2422TIP3    H228826   4.334   1.206   6.368  1.9109  0.4778  1.8006
 2423TIP3   OH228827   2.055   2.323   0.268 -0.2301 -0.4357 -0.5906
 2423TIP3    H128828   2.049   2.240   0.314 -1.5988  0.0278  0.1235
 2423TIP3    H228829   2.025   2.304   0.179  2.5522 -1.3630 -1.4323
 2424TIP3   OH228830   2.716   4.929   1.229  0.3887 -0.1419  0.1401
 2424TIP3    H128831   2.684   4.967   1.311 -0.6904  0.7504 -0.6452
 2424TIP3    H228832   2.639   4.929   1.172  0.3620 -3.4168  0.0014
 2425TIP3   OH228833   3.083   6.348   0.209 -0.2507 -0.2724 -0.3516
 2425TIP3    H128834   3.041   6.434   0.212  0.7097  0.2101  2.8112
 2425TIP3    H228835   3.168   6.361   0.250 -0.2714 -2.8195  0.6691
 2426TIP3   OH228836   1.310   3.963   7.219 -0.5818 -0.4628  0.4676
 2426TIP3    H128837   1.362   4.037   7.188 -0.9620  0.0274  0.9769
 2426TIP3    H228838   1.243   4.002   7.274 -1.5591 -1.0762 -0.2531
 2427TIP3   OH228839   3.791   5.824   7.805 -0.4075  0.1529 -0.0861
 2427TIP3    H128840   3.864   5.885   7.797 -0.0181 -0.1527  0.9856
 2427TIP3    H228841   3.720   5.865   7.756 -0.6379  2.2627  1.8573
 2428TIP3   OH228842   5.030   3.324   5.525  0.4211 -0.1805  0.3268
 2428TIP3    H128843   5.073   3.409   5.518 -0.5354  0.3822  1.0883
 2428TIP3    H228844   4.995   3.321   5.614 -1.1747 -0.5577 -0.2678
 2429TIP3   OH228845   3.639   3.384   7.772 -0.0008  0.5312  0.4838
 2429TIP3    H128846   3.558   3.345   7.803 -1.2335  1.6108 -1.2043
 2429TIP3    H228847   3.635   3.475   7.802  0.8734  0.4487  0.8773
 2430TIP3   OH228848   5.851   5.756   0.010  0.2297  0.4245 -0.2776
 2430TIP3    H128849   5.842   5.664  -0.013  0.8122  0.3923 -0.3737
 2430TIP3    H228850   5.931   5.761   0.062  1.2574  1.1696 -1.8555
 2431TIP3   OH228851   1.710   0.405   6.648 -0.4100  0.1319 -0.3535
 2431TIP3    H128852   1.800   0.405   6.679 -0.8392 -0.2088  0.9761
 2431TIP3    H228853   1.712   0.352   6.568  0.9003  1.8235 -1.5154
 2432TIP3   OH228854   1.005   0.891   6.046  0.4294 -0.1510  0.5321
 2432TIP3    H128855   1.027   0.957   5.981 -0.2202 -0.3845  0.0670
 2432TIP3    H228856   0.942   0.934   6.104  0.1226 -0.3065  0.3186
 2433TIP3   OH228857   0.676   2.787   1.809  0.7866  0.1570 -0.0949
 2433TIP3    H128858   0.693   2.702   1.849 -0.0508  0.3376  0.6808
 2433TIP3    H228859   0.638   2.839   1.879 -2.2162  0.0095 -1.4472
 2434TIP3   OH228860   3.163   4.045   7.473  0.3925  0.2087  0.0782
 2434TIP3    H128861   3.256   4.030   7.461  0.1969 -0.4868 -0.6827
 2434TIP3    H228862   3.151   4.138   7.451  0.7883  0.1113 -0.5767
 2435TIP3   OH228863   0.630   3.466   8.223 -0.4492 -0.0045 -1.1378
 2435TIP3    H128864   0.567   3.397   8.242 -0.9120  0.5171 -0.7338
 2435TIP3    H228865   0.675   3.437   8.144  0.5545 -1.5819 -0.0308
 2436TIP3   OH228866   0.771   5.424   2.142  0.0988  0.7646 -0.1589
 2436TIP3    H128867   0.809   5.344   2.106 -0.0650  0.4354  0.3955
 2436TIP3    H228868   0.832   5.493   2.117  0.1328  0.5001 -0.8272
 2437TIP3   OH228869   5.390   5.722   2.205  0.1561  0.3089 -0.5776
 2437TIP3    H128870   5.368   5.729   2.297  1.5607  1.4374 -0.2904
 2437TIP3    H228871   5.322   5.666   2.168 -0.6178  0.1137  1.0630
 2438TIP3   OH228872   4.925   5.846   6.402  0.0874  0.0907 -0.2343
 2438TIP3    H128873   5.021   5.845   6.399  0.1403  1.8979  0.0767
 2438TIP3    H228874   4.899   5.861   6.311 -0.0243 -2.4010 -0.7072
 2439TIP3   OH228875   6.203   5.111   1.297  0.3703 -0.2007  0.0696
 2439TIP3    H128876   6.193   5.029   1.248  1.2568 -0.9186  1.0472
 2439TIP3    H228877   6.181   5.179   1.233  1.9602 -1.0716 -1.5186
 2440TIP3   OH228878   4.311   6.194   1.825  0.1055 -0.2427  0.2025
 2440TIP3    H128879   4.378   6.153   1.880  1.9118  2.7570  0.4701
 2440TIP3    H228880   4.245   6.225   1.887 -0.4173 -1.2132  0.1501
 2441TIP3   OH228881   0.033   6.819   0.267  0.0200  0.3658  0.1949
 2441TIP3    H128882   0.104   6.882   0.258 -0.4168  1.0127  1.1387
 2441TIP3    H228883  -0.001   6.809   0.178  1.6303 -0.3801 -0.3691
 2442TIP3   OH228884   5.173   4.018   7.251 -0.3995  0.3012  0.3189
 2442TIP3    H128885   5.124   3.940   7.224 -0.4278 -0.2363  1.8129
 2442TIP3    H228886   5.224   3.988   7.326 -0.4879  1.7644  0.9823
 2443TIP3   OH228887   6.305   4.896   1.531  0.5683 -0.0843  0.9765
 2443TIP3    H128888   6.354   4.871   1.452  0.3602 -2.1425  1.4483
 2443TIP3    H228889   6.305   4.991   1.529  1.5880 -0.0628 -0.8869
 2444TIP3   OH228890   6.720   0.326   7.420 -0.4631  0.1537 -0.2383
 2444TIP3    H128891   6.681   0.361   7.340 -0.0647 -0.0101 -0.5061
 2444TIP3    H228892   6.786   0.391   7.445 -0.4727  0.1239 -0.1328
 2445TIP3   OH228893   4.935   1.958   1.840  0.3143 -0.4038  0.6291
 2445TIP3    H128894   4.878   1.884   1.819 -0.0903  0.1142 -0.1521
 2445TIP3    H228895   4.880   2.016   1.894 -0.6536  1.0640 -1.7492
 2446TIP3   OH228896   4.601   5.714   7.055  0.2592  0.2964  0.7887
 2446TIP3    H128897   4.614   5.619   7.052  2.3422  0.4767 -3.1153
 2446TIP3    H228898   4.683   5.748   7.092 -0.1249  0.6198  1.3499
 2447TIP3   OH228899   3.738   3.067   6.238 -1.1706  0.3253 -0.2559
 2447TIP3    H128900   3.801   3.076   6.310 -3.2753 -1.0420  1.9429
 2447TIP3    H228901   3.782   3.010   6.175 -0.3410 -1.0804  1.4651
 2448TIP3   OH228902   2.365   4.524   0.784  0.5068  0.0305 -0.2681
 2448TIP3    H128903   2.281   4.515   0.828  0.6340 -0.1520 -0.0615
 2448TIP3    H228904   2.354   4.479   0.700  0.0308  1.0067 -0.7527
 2449TIP3   OH228905   6.791   1.844   0.203  0.0106  0.5055  0.3373
 2449TIP3    H128906   6.867   1.800   0.241  1.0751  1.5354 -0.5105
 2449TIP3    H228907   6.803   1.936   0.228 -1.5761  0.5331  1.1404
 2450TIP3   OH228908   1.559   6.206   1.515  0.1746 -0.1689  0.8394
 2450TIP3    H128909   1.518   6.139   1.459  0.8133 -0.2119  0.4136
 2450TIP3    H228910   1.538   6.179   1.604 -1.3633  0.2204  0.6242
 2451TIP3   OH228911   2.624   4.634   8.151 -0.2214  0.1116  0.8573
 2451TIP3    H128912   2.636   4.578   8.075 -1.7489 -1.7272  1.8824
 2451TIP3    H228913   2.540   4.677   8.137 -0.9597 -0.9370  1.8594
 2452TIP3   OH228914   3.892   5.284   1.161  0.5160 -0.2625  0.1415
 2452TIP3    H128915   3.929   5.325   1.083  1.7301 -0.2937  0.6808
 2452TIP3    H228916   3.799   5.306   1.158  0.2679 -1.3918 -2.0103
 2453TIP3   OH228917   1.268   5.816   0.012 -0.1279  0.1742  0.5170
 2453TIP3    H128918   1.313   5.875  -0.049 -1.4396  0.0007 -0.6768
 2453TIP3    H228919   1.325   5.813   0.089  0.2660  2.5439  0.4009
 2454TIP3   OH228920   0.562   6.986   0.512  0.0688  0.3908  0.1402
 2454TIP3    H128921   0.541   6.928   0.585  0.2914  0.5214  0.3101
 2454TIP3    H228922   0.538   7.073   0.542 -0.8488  0.3208 -0.3483
 2455TIP3   OH228923   0.168   2.468   1.016 -0.2585  0.1719 -0.0264
 2455TIP3    H128924   0.109   2.486   0.943  0.7130  0.6342 -0.7179
 2455TIP3    H228925   0.254   2.498   0.986  0.4791 -1.1179  0.6793
 2456TIP3   OH228926   3.305   3.559   0.090 -0.0266  0.5868 -0.0656
 2456TIP3    H128927   3.366   3.615   0.043  2.7724 -1.1910  1.1337
 2456TIP3    H228928   3.332   3.567   0.182 -0.7340 -1.2642  0.3510
 2457TIP3   OH228929   1.125   0.751   7.262  0.3230  0.0751  0.3178
 2457TIP3    H128930   1.073   0.673   7.283  1.2068 -0.3625  0.9212
 2457TIP3    H228931   1.208   0.738   7.307  0.8566  0.9072 -0.3858
 2458TIP3   OH228932   5.265   0.024   1.410 -0.0085  0.3154  0.1599
 2458TIP3    H128933   5.198   0.074   1.363  0.3065 -0.1199 -0.7806
 2458TIP3    H228934   5.259  -0.064   1.374 -0.1235 -0.1827  1.3426
 2459TIP3   OH228935   0.174   6.897   8.184  0.0865 -0.4688 -0.6129
 2459TIP3    H128936   0.089   6.897   8.227  0.3471 -2.4505  0.0083
 2459TIP3    H228937   0.233   6.940   8.246 -0.7723  2.9782 -1.9544
 2460TIP3   OH228938   5.725   6.913   0.873 -0.5365  0.3299  0.0157
 2460TIP3    H128939   5.675   6.950   0.946 -0.6409  0.2042  0.0091
 2460TIP3    H228940   5.676   6.834   0.849  1.8605 -2.2675  2.8054
 2461TIP3   OH228941   0.384   2.076   7.418  0.2056  0.1280  0.7162
 2461TIP3    H128942   0.442   2.007   7.385 -0.6371 -0.4704  0.4374
 2461TIP3    H228943   0.331   2.032   7.485  0.3436  0.7634  1.2460
 2462TIP3   OH228944   3.552   2.441   0.504 -0.2426 -0.4526 -0.3882
 2462TIP3    H128945   3.615   2.478   0.442 -0.5341  0.5571 -0.0938
 2462TIP3    H228946   3.476   2.420   0.451 -0.1129 -0.5374 -0.5414
 2463TIP3   OH228947   1.519   4.667   2.184 -0.0248 -0.0734 -0.7366
 2463TIP3    H128948   1.486   4.676   2.273  1.5043 -3.0289  0.2508
 2463TIP3    H228949   1.444   4.632   2.135  0.1094 -2.0643  0.3496
 2464TIP3   OH228950   6.352   6.030   6.195  0.2719 -0.0860 -0.0273
 2464TIP3    H128951   6.268   6.063   6.228  0.2816  0.5855 -0.6448
 2464TIP3    H228952   6.417   6.065   6.257  0.2435  0.7639 -0.4624
 2465TIP3   OH228953   3.713   4.590   7.818 -0.1963  0.6756 -0.1905
 2465TIP3    H128954   3.706   4.677   7.780 -0.3711  1.3115  1.2350
 2465TIP3    H228955   3.667   4.596   7.902  0.9129 -0.4199  0.5427
 2466TIP3   OH228956   6.919   0.878   7.589 -0.2211 -0.0072 -0.7915
 2466TIP3    H128957   6.905   0.868   7.495  3.6718 -1.1993 -1.4331
 2466TIP3    H228958   6.988   0.945   7.597  0.1260 -0.5150  1.1172
 2467TIP3   OH228959   0.446   1.846   6.903  0.1472  0.1671 -0.0530
 2467TIP3    H128960   0.513   1.789   6.866 -0.9371 -0.2396 -1.5262
 2467TIP3    H228961   0.464   1.847   6.997  0.5897 -2.1342 -0.0404
 2468TIP3   OH228962   4.990   3.346   5.787 -0.2207 -0.0547  0.7520
 2468TIP3    H128963   4.950   3.315   5.869 -2.0426 -0.5086 -0.2481
 2468TIP3    H228964   5.034   3.427   5.811 -1.8179  0.5175  1.9515
 2469TIP3   OH228965   6.094   4.706   7.923 -0.0891  0.3408  0.0909
 2469TIP3    H128966   6.015   4.681   7.876  0.2660 -0.6468  0.0035
 2469TIP3    H228967   6.163   4.707   7.856  0.0363  0.9223  0.2185
 2470TIP3   OH228968   1.228   6.893   6.732 -0.1477  0.0320 -0.1777
 2470TIP3    H128969   1.156   6.943   6.771 -0.1467  0.5757 -0.8452
 2470TIP3    H228970   1.228   6.810   6.779 -0.1248  0.6708  0.9978
 2471TIP3   OH228971   3.750   1.172   0.921 -0.1978  0.6532 -0.0678
 2471TIP3    H128972   3.672   1.118   0.931  0.8818 -0.7112  1.4557
 2471TIP3    H228973   3.725   1.257   0.955 -1.1463  0.3754 -0.0392
 2472TIP3   OH228974   0.150   7.025   7.662 -0.3496 -0.3423 -0.1626
 2472TIP3    H128975   0.169   7.010   7.755  1.1330  0.0985 -0.3795
 2472TIP3    H228976   0.234   7.013   7.618 -1.0626 -0.6957 -1.4804
 2473TIP3   OH228977   4.198   0.712   8.099  0.0734  0.2316  0.0957
 2473TIP3    H128978   4.106   0.714   8.125 -0.1248 -0.3499 -0.5324
 2473TIP3    H228979   4.207   0.631   8.048  0.6162  0.9439 -0.9699
 2474TIP3   OH228980   1.844   4.029   0.900  0.0631  0.2794 -0.2638
 2474TIP3    H128981   1.862   3.995   0.988 -0.1604  1.3458  0.2084
 2474TIP3    H228982   1.909   3.986   0.844 -0.2264 -0.9332  0.2906
 2475TIP3   OH228983   1.471   1.265   6.552 -0.1976 -0.2810  1.0118
 2475TIP3    H128984   1.550   1.305   6.589 -0.1362  0.3869  0.1922
 2475TIP3    H228985   1.504   1.204   6.486 -0.3085 -1.4524  2.0060
 2476TIP3   OH228986   3.317   5.087   5.627 -0.2602 -0.3369 -0.2766
 2476TIP3    H128987   3.348   5.158   5.572  0.3797 -2.5303 -2.9524
 2476TIP3    H228988   3.349   5.108   5.715 -0.6479  2.9122 -0.7958
 2477TIP3   OH228989   4.947   6.466   1.284 -0.2020  0.1954  0.1229
 2477TIP3    H128990   5.004   6.408   1.334 -1.0160 -0.0471  0.7879
 2477TIP3    H228991   4.978   6.459   1.194  1.6520  1.0591  0.6571
 2478TIP3   OH228992   5.768   5.337   5.767  0.0210  0.6184 -0.5284
 2478TIP3    H128993   5.833   5.298   5.825 -1.0788 -0.1617  0.2297
 2478TIP3    H228994   5.767   5.430   5.789  0.5781  0.5642 -0.2674
 2479TIP3   OH228995   1.801   4.421   5.804 -0.2861 -0.2522 -0.1566
 2479TIP3    H128996   1.787   4.397   5.896  2.5205 -1.1093  0.1418
 2479TIP3    H228997   1.787   4.340   5.756  0.5750 -0.4081 -0.1689
 2480TIP3   OH228998   1.914   5.664   7.087 -0.0660  0.7244  0.0128
 2480TIP3    H128999   1.898   5.579   7.129 -2.3192  0.6327 -0.9015
 2480TIP3    H229000   1.923   5.725   7.160  2.1559 -0.3130  0.7087
 2481TIP3   OH229001   6.215   2.420   0.234  0.2484 -0.2371  0.2086
 2481TIP3    H129002   6.217   2.491   0.170 -2.4178 -1.4158 -1.3680
 2481TIP3    H229003   6.244   2.343   0.185 -2.6402 -1.3285  0.0073
 2482TIP3   OH229004   3.141   1.707   1.694  1.0890  1.0317 -0.3324
 2482TIP3    H129005   3.174   1.652   1.622 -2.7594  0.2145 -1.6925
 2482TIP3    H229006   3.158   1.655   1.772  1.1359 -0.2836 -1.1725
 2483TIP3   OH229007   6.603   3.942   6.691 -0.3399  0.6616  0.3245
 2483TIP3    H129008   6.640   3.973   6.773 -0.4041  0.5080  0.4119
 2483TIP3    H229009   6.674   3.893   6.650 -0.1903  1.0502  0.1156
 2484TIP3   OH229010   3.826   6.247   7.704 -0.6609  0.6297 -0.4220
 2484TIP3    H129011   3.802   6.318   7.643 -2.0647 -0.1724 -0.8606
 2484TIP3    H229012   3.816   6.168   7.652  2.7474  0.1341 -0.5289
 2485TIP3   OH229013   2.859   5.057   6.548  0.4729  0.4223 -0.0319
 2485TIP3    H129014   2.939   5.089   6.507  0.7206  1.1008  0.9290
 2485TIP3    H229015   2.841   5.121   6.617  0.5131 -1.0771  1.4310
 2486TIP3   OH229016   2.804   6.511   8.204  0.2757 -0.2220 -0.1510
 2486TIP3    H129017   2.772   6.422   8.187 -0.6304  0.3205 -1.4040
 2486TIP3    H229018   2.804   6.554   8.119  1.2307  0.8322  0.3501
 2487TIP3   OH229019   6.363   4.473   1.266 -0.1400 -0.2065 -0.4804
 2487TIP3    H129020   6.273   4.443   1.280 -0.2094 -0.0647 -0.6157
 2487TIP3    H229021   6.393   4.422   1.190 -1.2806  2.1556 -2.6562
 2488TIP3   OH229022   5.487   0.219   7.105 -0.1326  0.5387  0.3323
 2488TIP3    H129023   5.418   0.153   7.106 -0.6807  1.1023 -0.1775
 2488TIP3    H229024   5.568   0.168   7.093 -0.4245 -0.1319  1.0716
 2489TIP3   OH229025   5.212   1.429   1.835  0.0706  0.5942 -0.3108
 2489TIP3    H129026   5.121   1.457   1.845 -0.0926 -0.2147  0.6791
 2489TIP3    H229027   5.220   1.405   1.743 -0.4918  1.4067 -0.5842
 2490TIP3   OH229028   0.454   4.650   1.206 -0.2269 -0.3071  0.1798
 2490TIP3    H129029   0.454   4.698   1.123 -0.9287  2.4428  1.6502
 2490TIP3    H229030   0.362   4.646   1.232 -0.1223 -2.0405  0.3822
 2491TIP3   OH229031   4.926   0.072   0.419  0.2252  0.3505 -0.7889
 2491TIP3    H129032   4.894  -0.018   0.408 -2.1359  1.0933 -0.4422
 2491TIP3    H229033   4.991   0.065   0.489 -0.2017 -1.0214 -0.4894
 2492TIP3   OH229034   1.537   6.752   1.204 -0.4077  0.1743 -0.1560
 2492TIP3    H129035   1.611   6.784   1.153 -0.3062 -1.7288 -1.2679
 2492TIP3    H229036   1.562   6.664   1.232 -1.0956  0.5720  1.9184
 2493TIP3   OH229037   0.564   5.112   8.265  0.5063 -0.0856  0.1992
 2493TIP3    H129038   0.507   5.038   8.287  0.5541 -0.1935 -0.0401
 2493TIP3    H229039   0.618   5.125   8.343  0.4105 -0.2191  0.2887
 2494TIP3   OH229040   4.603   3.239   1.027 -0.5335 -0.0102  0.4980
 2494TIP3    H129041   4.590   3.307   1.094  3.0869  1.1175  0.2852
 2494TIP3    H229042   4.647   3.168   1.073 -0.6705 -0.4887 -0.1006
 2495TIP3   OH229043   5.062   4.003   0.060  0.4856  0.1581  0.0295
 2495TIP3    H129044   5.042   3.926   0.113 -1.6928 -0.3326 -1.3819
 2495TIP3    H229045   4.976   4.039   0.038  1.4341  2.1920 -0.5064
 2496TIP3   OH229046   4.154   1.281   1.387  0.0241 -0.1233 -0.3024
 2496TIP3    H129047   4.216   1.232   1.333 -1.8449 -3.1928  0.0655
 2496TIP3    H229048   4.097   1.326   1.325  0.9788  0.5653 -0.6975
 2497TIP3   OH229049   5.440   2.214   0.407 -0.0180 -0.4444 -0.0594
 2497TIP3    H129050   5.385   2.169   0.343 -0.9503  0.9655 -0.3078
 2497TIP3    H229051   5.509   2.256   0.355 -0.5385  0.3605 -0.1222
 2498TIP3   OH229052   0.241   6.388   7.997 -0.4813  0.2852  0.2467
 2498TIP3    H129053   0.173   6.414   8.059  1.0533 -1.1995  2.7269
 2498TIP3    H229054   0.323   6.395   8.047  1.0035  0.2607 -2.0488
 2499TIP3   OH229055   1.180   4.000   0.001 -0.3348 -0.1914  0.1502
 2499TIP3    H129056   1.247   3.969   0.063  1.5050  2.9704 -0.0573
 2499TIP3    H229057   1.120   4.052   0.054 -1.4235 -1.1824 -0.0562
 2500TIP3   OH229058   1.384   3.456   7.532 -0.5299  0.0099  0.4263
 2500TIP3    H129059   1.363   3.394   7.463 -0.5061 -0.5006  0.8636
 2500TIP3    H229060   1.338   3.422   7.609 -0.8255  0.7504  0.5781
 2501TIP3   OH229061   0.195   4.888   1.379  0.7846  0.1286  0.1723
 2501TIP3    H129062   0.170   4.959   1.437  1.0042  1.2757 -1.0800
 2501TIP3    H229063   0.271   4.922   1.331  1.0693 -1.0541 -0.2575
 2502TIP3   OH229064   3.514   6.695   7.029 -0.0949  0.2175  0.0838
 2502TIP3    H129065   3.598   6.688   7.073 -0.2467  0.7172  0.4680
 2502TIP3    H229066   3.449   6.677   7.097 -0.3090  0.0853 -0.1507
 2503TIP3   OH229067   6.058   6.811   8.158  0.8596 -0.0163 -0.2493
 2503TIP3    H129068   6.079   6.869   8.231  2.4880 -0.1964 -0.5368
 2503TIP3    H229069   5.979   6.765   8.186  2.4745 -1.4964  2.2721
 2504TIP3   OH229070   2.163   3.242   0.200 -0.7993  0.4217 -0.1900
 2504TIP3    H129071   2.104   3.244   0.125  0.3750  0.1007 -1.1485
 2504TIP3    H229072   2.250   3.227   0.163 -0.0239  1.3592  1.1404
 2505TIP3   OH229073   6.604   4.598   0.553  0.4675  0.2319  0.1133
 2505TIP3    H129074   6.677   4.567   0.607  1.4960  0.7987 -0.9031
 2505TIP3    H229075   6.632   4.580   0.463  0.2357  2.2473 -0.4109
 2506TIP3   OH229076   3.313   4.837   7.979  0.1320 -0.4948 -0.9304
 2506TIP3    H129077   3.260   4.757   7.976 -1.9669  0.8390 -3.5487
 2506TIP3    H229078   3.262   4.898   8.031 -0.8298  0.6809 -3.1404
 2507TIP3   OH229079   2.014   4.345   0.249  0.2296  0.5293  0.9655
 2507TIP3    H129080   1.967   4.263   0.260  0.8451  0.3167  2.3153
 2507TIP3    H229081   2.073   4.330   0.175 -1.5490  0.7059 -0.5612
 2508TIP3   OH229082   2.395   2.324   8.112 -0.2391  0.0120  0.5085
 2508TIP3    H129083   2.306   2.298   8.090 -0.3623 -1.7212  2.6321
 2508TIP3    H229084   2.450   2.255   8.075  0.0926  0.3786  0.3125
 2509TIP3   OH229085   1.413   6.209   0.529  0.3217 -0.0234 -0.0295
 2509TIP3    H129086   1.352   6.138   0.551 -0.8183  0.8647 -0.2592
 2509TIP3    H229087   1.396   6.228   0.437  0.5825  0.5862  0.0415
 2510TIP3   OH229088   5.284   4.988   6.856  0.1336  0.5427 -0.1659
 2510TIP3    H129089   5.209   5.000   6.798 -1.3629 -0.6436  1.3965
 2510TIP3    H229090   5.350   4.945   6.802 -1.3541 -0.9141 -0.9332
 2511TIP3   OH229091   4.223   5.662   6.822  0.4175 -0.3516  0.2846
 2511TIP3    H129092   4.274   5.622   6.752  0.7327 -0.4085  0.5469
 2511TIP3    H229093   4.220   5.595   6.890 -0.9890 -0.8078 -0.1834
 2512TIP3   OH229094   0.856   3.779   8.011  0.0545  0.3190 -0.2163
 2512TIP3    H129095   0.791   3.834   8.055 -1.2234  0.1093 -1.7431
 2512TIP3    H229096   0.805   3.727   7.949  1.4399 -1.4657  0.0795
 2513TIP3   OH229097   0.870   4.898   6.668  0.3137 -0.3337 -0.0076
 2513TIP3    H129098   0.786   4.906   6.713 -0.2358 -0.1410 -1.0338
 2513TIP3    H229099   0.848   4.898   6.575  1.4695 -0.0657 -0.3064
 2514TIP3   OH229100   5.843   2.494   0.072 -0.7911 -0.2245 -0.1172
 2514TIP3    H129101   5.862   2.582   0.038 -0.0242 -0.3765 -0.0985
 2514TIP3    H229102   5.811   2.446  -0.004 -0.5165 -0.1335 -0.2921
 2515TIP3   OH229103   5.018   2.911   7.301  0.1118 -0.0121 -1.0100
 2515TIP3    H129104   4.923   2.905   7.293  0.0061  0.5530 -0.3126
 2515TIP3    H229105   5.038   3.004   7.288  0.2183  0.4638  1.7763
 2516TIP3   OH229106   2.639   1.331   1.362 -0.2774 -0.0417  0.3899
 2516TIP3    H129107   2.661   1.401   1.301 -0.4186  1.9110  2.4667
 2516TIP3    H229108   2.549   1.350   1.389 -1.3783 -2.6492 -1.0030
 2517TIP3   OH229109   5.506   4.243   0.544  0.1982  0.0074 -0.3747
 2517TIP3    H129110   5.564   4.289   0.484  0.9372  0.4120  0.6214
 2517TIP3    H229111   5.452   4.312   0.582 -0.8389 -0.3444 -1.1554
 2518TIP3   OH229112   3.299   4.705   6.355  0.6101 -0.1332  0.0099
 2518TIP3    H129113   3.361   4.634   6.370  0.2558 -0.2332  1.0600
 2518TIP3    H229114   3.223   4.682   6.409  0.4626  0.9917  0.2970
 2519TIP3   OH229115   2.022   2.480   8.047  0.2182 -0.4036  0.0278
 2519TIP3    H129116   1.929   2.481   8.071 -0.0317  1.3398 -0.8548
 2519TIP3    H229117   2.064   2.538   8.110  0.0618  1.7069 -1.7000
 2520TIP3   OH229118   2.182   5.468   1.998 -0.2929  0.4148 -0.3356
 2520TIP3    H129119   2.135   5.388   1.976  1.2515 -0.4145 -0.7591
 2520TIP3    H229120   2.154   5.489   2.087  0.9539 -1.9094  0.6922
 2521TIP3   OH229121   1.344   6.526   1.150  0.0395 -0.2205  0.3243
 2521TIP3    H129122   1.297   6.580   1.213 -1.7971 -0.6306 -0.6432
 2521TIP3    H229123   1.436   6.533   1.177 -0.5103  0.8376  2.0914
 2522TIP3   OH229124   0.514   3.997   0.471  0.7010  0.2640 -0.1695
 2522TIP3    H129125   0.455   4.038   0.534 -0.1317 -1.8031  0.4859
 2522TIP3    H229126   0.597   4.045   0.481  0.1185  1.0126  1.3499
 2523TIP3   OH229127   2.771   0.412   7.042 -0.0428 -0.0192 -0.4397
 2523TIP3    H129128   2.719   0.490   7.062 -0.6257 -0.1749 -1.2959
 2523TIP3    H229129   2.775   0.410   6.946 -0.3781 -1.2548 -0.4433
 2524TIP3   OH229130   1.917   1.462   7.220 -0.3887 -0.3544 -0.0200
 2524TIP3    H129131   1.924   1.460   7.315  0.0695  1.7652  0.0528
 2524TIP3    H229132   1.913   1.370   7.193  1.6682 -1.0675  1.8791
 2525TIP3   OH229133   6.044   1.795   1.625  0.7081 -0.2527  0.2437
 2525TIP3    H129134   6.049   1.772   1.718  0.8699 -0.2684  0.2313
 2525TIP3    H229135   5.965   1.848   1.618  1.7977  1.5422  0.7739
 2526TIP3   OH229136   4.373   6.133   6.607 -0.0204  0.1942 -0.2748
 2526TIP3    H129137   4.286   6.095   6.616  0.7339 -1.2719  1.3780
 2526TIP3    H229138   4.369   6.185   6.526 -1.4009 -2.5785 -2.1185
 2527TIP3   OH229139   4.682   0.489   1.732 -0.6853 -0.0804 -0.1359
 2527TIP3    H129140   4.626   0.415   1.753 -0.4755 -0.1730  0.0910
 2527TIP3    H229141   4.671   0.501   1.637 -1.0703 -0.1111 -0.0965
 2528TIP3   OH229142   1.529   1.133   0.372  0.2394 -0.5734  0.0278
 2528TIP3    H129143   1.516   1.186   0.293 -2.4606 -0.9262  0.1437
 2528TIP3    H229144   1.575   1.191   0.432 -1.4566  1.2678 -0.3338
 2529TIP3   OH229145   1.072   5.147   1.170  0.5704  0.0323  0.6389
 2529TIP3    H129146   1.163   5.130   1.194  0.9951  1.3827  0.1028
 2529TIP3    H229147   1.032   5.177   1.251  0.6891 -0.2375  0.8002
 2530TIP3   OH229148   0.486   2.022   0.917 -0.3643  0.8077  0.5480
 2530TIP3    H129149   0.555   2.080   0.884  1.2437 -2.0317 -1.5696
 2530TIP3    H229150   0.459   1.972   0.840 -0.8019 -2.0435  2.4368
 2531TIP3   OH229151   5.987   3.808   2.146  0.0079 -0.0062 -0.2046
 2531TIP3    H129152   5.921   3.816   2.077  1.1321 -1.1500 -1.4611
 2531TIP3    H229153   6.008   3.899   2.168 -1.3571  0.3856 -0.3594
 2532TIP3   OH229154   4.980   6.074   7.043  0.0439 -0.4352  0.1478
 2532TIP3    H129155   5.048   6.010   7.020  1.3242  0.4517  1.3337
 2532TIP3    H229156   5.029   6.150   7.073 -1.4503  1.1147 -1.1611
 2533TIP3   OH229157   1.282   3.472   1.212 -0.0502 -0.5932  0.8258
 2533TIP3    H129158   1.245   3.548   1.257  0.8814  0.2762  0.1753
 2533TIP3    H229159   1.317   3.417   1.282 -0.0582 -0.0500  1.2602
 2534TIP3   OH229160   1.293   0.805   7.008 -0.0964 -0.8737  0.0908
 2534TIP3    H129161   1.242   0.800   6.927 -0.5941 -0.6072  0.3851
 2534TIP3    H229162   1.240   0.859   7.067  0.7624 -0.1605  0.2284
 2535TIP3   OH229163   2.805   4.026   7.830 -0.4785 -0.6320 -0.5052
 2535TIP3    H129164   2.739   4.095   7.835 -0.7286 -0.7133 -2.1487
 2535TIP3    H229165   2.756   3.945   7.823 -0.2616 -0.6563 -2.2335
 2536TIP3   OH229166   5.701   2.347   0.278  0.2575 -0.2050  0.0717
 2536TIP3    H129167   5.754   2.358   0.357  0.1519 -0.8850  0.2380
 2536TIP3    H229168   5.741   2.408   0.215  1.1423 -0.5866  0.2421
 2537TIP3   OH229169   6.414   5.476   0.619  0.2081  0.0081 -0.2074
 2537TIP3    H129170   6.421   5.531   0.540 -0.1754 -1.5699 -1.3861
 2537TIP3    H229171   6.349   5.410   0.597  0.1660 -0.5355  1.4160
 2538TIP3   OH229172   4.435   1.417   0.563  0.1072  0.2262  0.3993
 2538TIP3    H129173   4.414   1.437   0.471 -0.7305 -1.6555  0.1293
 2538TIP3    H229174   4.365   1.459   0.613 -2.3503 -2.7057 -0.2350
 2539TIP3   OH229175   2.820   1.332   8.173  0.0726  0.7549 -0.1671
 2539TIP3    H129176   2.875   1.367   8.103 -0.4045  1.5279 -0.1666
 2539TIP3    H229177   2.811   1.239   8.153 -1.3189  1.2287 -2.0086
 2540TIP3   OH229178   5.761   0.606   8.034 -0.0478  0.3602  0.1411
 2540TIP3    H129179   5.784   0.698   8.029  2.6779 -0.2825 -1.2415
 2540TIP3    H229180   5.791   0.569   7.951  0.0699 -1.9887  1.1414
 2541TIP3   OH229181   3.279   2.526   6.538 -0.2716 -0.3361  0.4260
 2541TIP3    H129182   3.357   2.492   6.493 -1.2932 -1.2805 -0.7085
 2541TIP3    H229183   3.220   2.552   6.467 -1.3798 -0.5763  1.2332
 2542TIP3   OH229184   2.254   6.436   1.586  0.0758  0.1899 -0.1647
 2542TIP3    H129185   2.247   6.369   1.653 -1.1845 -1.0889 -1.5028
 2542TIP3    H229186   2.325   6.406   1.528 -0.4671 -0.0029 -0.7470
 2543TIP3   OH229187   4.736   4.898   0.545 -0.1956  0.4200  0.2577
 2543TIP3    H129188   4.721   4.809   0.576  2.5616  0.5617  2.2928
 2543TIP3    H229189   4.716   4.894   0.451 -0.6208 -2.1775  0.3927
 2544TIP3   OH229190   6.323   6.906   0.476 -0.3886 -0.2760 -0.3394
 2544TIP3    H129191   6.413   6.881   0.459  0.1098  0.0105  1.6687
 2544TIP3    H229192   6.271   6.828   0.455  0.7327 -1.7891  2.0774
 2545TIP3   OH229193   6.149   6.207   6.884  0.1087  0.4740  0.2626
 2545TIP3    H129194   6.054   6.209   6.875  0.1470 -1.2166 -0.9035
 2545TIP3    H229195   6.172   6.114   6.891  1.6607  0.8550  0.8536
 2546TIP3   OH229196   6.452   5.087   0.378 -0.4710  0.2311 -0.3997
 2546TIP3    H129197   6.502   5.169   0.378 -0.8943  0.4995 -1.3256
 2546TIP3    H229198   6.510   5.024   0.420  0.0653  0.8855 -0.1396
 2547TIP3   OH229199   0.070   1.233   1.582  0.5876  0.1570  0.5874
 2547TIP3    H129200   0.131   1.263   1.649  0.0118 -0.0529  1.2181
 2547TIP3    H229201   0.084   1.138   1.578  0.3942  0.1263  0.6387
 2548TIP3   OH229202   1.601   4.348   7.977 -0.0165  0.1595  0.3764
 2548TIP3    H129203   1.633   4.266   7.941  1.6433  0.5276  0.9072
 2548TIP3    H229204   1.509   4.332   7.997 -0.2627 -0.9018 -1.4340
 2549TIP3   OH229205   0.673   4.537   0.321  0.5252  0.2441 -0.3553
 2549TIP3    H129206   0.756   4.569   0.285  0.7397  1.4013  1.0609
 2549TIP3    H229207   0.626   4.616   0.346 -0.6428 -0.4341 -0.3259
 2550TIP3   OH229208   3.170   5.459   0.756 -0.0023 -0.4356  0.2175
 2550TIP3    H129209   3.082   5.479   0.722 -0.2668 -1.2899  0.3531
 2550TIP3    H229210   3.229   5.508   0.700 -0.5873  0.4396  0.3541
 2551TIP3   OH229211   0.829   1.460   7.788  0.3785  0.3208 -0.0077
 2551TIP3    H129212   0.913   1.448   7.833 -0.3617  0.1718  1.4009
 2551TIP3    H229213   0.851   1.459   7.695  1.8087 -0.7357  0.3047
 2552TIP3   OH229214   0.580   0.421   0.766 -0.0568  0.3283 -0.2480
 2552TIP3    H129215   0.516   0.448   0.831 -0.5859  0.8882 -0.9788
 2552TIP3    H229216   0.594   0.499   0.712  2.0214  0.5558  0.4901
 2553TIP3   OH229217   3.766   4.719   1.935  0.5368  0.3441 -0.0888
 2553TIP3    H129218   3.851   4.691   1.968 -0.1278 -1.4761  0.1889
 2553TIP3    H229219   3.708   4.717   2.011 -0.1102  0.0267 -0.5714
 2554TIP3   OH229220   0.251   4.747   0.786  0.4940  0.0647 -0.7969
 2554TIP3    H129221   0.296   4.804   0.723  0.9182 -0.9913 -1.4660
 2554TIP3    H229222   0.229   4.668   0.737 -1.4176  0.2169 -0.2751
 2555TIP3   OH229223   0.972   4.546   7.893  0.5628 -0.3332 -0.1707
 2555TIP3    H129224   1.036   4.615   7.875  1.2219 -1.4597 -2.6713
 2555TIP3    H229225   1.001   4.472   7.840 -2.4686 -1.1004 -0.9991
 2556TIP3   OH229226   0.226   2.975   0.165  0.2639  0.2358  0.0239
 2556TIP3    H129227   0.292   3.015   0.109  1.6764 -2.7450 -0.6617
 2556TIP3    H229228   0.173   2.922   0.106  0.0843 -0.8680  1.1131
 2557TIP3   OH229229   3.327   0.984   6.286  0.4295  0.1216 -0.2516
 2557TIP3    H129230   3.382   0.940   6.222 -1.3112 -1.6086 -0.6362
 2557TIP3    H229231   3.366   0.961   6.371  1.0143 -0.0121 -0.5508
 2558TIP3   OH229232   4.942   2.894   0.179 -0.3463  0.1035  0.3700
 2558TIP3    H129233   4.923   2.885   0.273 -1.0735 -1.5429  0.1026
 2558TIP3    H229234   4.928   2.806   0.144  1.5995  0.2842 -1.0031
 2559TIP3   OH229235   1.510   1.353   1.082 -0.2716 -0.0695  0.0679
 2559TIP3    H129236   1.561   1.316   1.155  0.2417  0.9572  0.2563
 2559TIP3    H229237   1.419   1.339   1.107 -0.0999 -1.5975 -0.0885
 2560TIP3   OH229238   4.451   6.264   7.065 -0.2722  0.6253  0.4290
 2560TIP3    H129239   4.520   6.295   7.006 -0.5373 -0.2620 -0.3656
 2560TIP3    H229240   4.498   6.212   7.131 -0.1772 -0.1169 -0.2043
 2561TIP3   OH229241   1.752   4.745   2.509 -0.0627  0.2906 -0.5776
 2561TIP3    H129242   1.663   4.711   2.503 -0.0534  0.2804 -0.6615
 2561TIP3    H229243   1.758   4.781   2.598 -0.1609  0.3211 -0.5829
 2562TIP3   OH229244   6.005   4.267   7.001 -0.5279 -0.2835  0.3417
 2562TIP3    H129245   6.036   4.358   7.004  0.8144 -0.7417  0.7611
 2562TIP3    H229246   6.081   4.216   6.972 -1.7201 -1.0928 -1.6327
 2563TIP3   OH229247   5.282   3.457   0.048  0.5302 -0.1688 -0.0637
 2563TIP3    H129248   5.255   3.549   0.058 -0.2441 -0.4550  0.5806
 2563TIP3    H229249   5.221   3.422  -0.018  1.1263 -0.1089 -0.6603
 2564TIP3   OH229250   0.415   5.731   0.697  0.7612  0.1615  0.3669
 2564TIP3    H129251   0.431   5.664   0.763 -1.7716  0.0780  1.0168
 2564TIP3    H229252   0.361   5.796   0.742 -1.8933 -0.3829 -1.7762
 2565TIP3   OH229253   1.952   0.532   0.927 -0.0882 -0.0657 -0.4101
 2565TIP3    H129254   1.871   0.491   0.896  0.1058 -0.2646 -0.6618
 2565TIP3    H229255   1.940   0.625   0.910 -0.8635  0.1075  0.8985
 2566TIP3   OH229256   3.865   3.952   7.472 -0.4008  0.1958 -0.0039
 2566TIP3    H129257   3.835   4.032   7.428 -1.3552 -0.2648 -0.2073
 2566TIP3    H229258   3.874   3.978   7.564 -0.8302  0.5098 -0.0466
 2567TIP3   OH229259   4.681   3.712   7.981  0.1266 -0.2640  0.4224
 2567TIP3    H129260   4.773   3.724   8.004  0.0160 -0.0855  0.7825
 2567TIP3    H229261   4.635   3.709   8.065 -0.3355  0.8001  0.2225
 2568TIP3   OH229262   4.495   6.686   6.483  0.1378 -0.3592 -0.1348
 2568TIP3    H129263   4.562   6.732   6.432  1.0622 -0.8833  0.5853
 2568TIP3    H229264   4.442   6.642   6.417  0.7840 -0.3055 -0.7054
 2569TIP3   OH229265   4.548   0.912   1.089 -0.1166 -0.3674  0.2895
 2569TIP3    H129266   4.599   0.926   1.009 -0.5319  2.2149  0.4106
 2569TIP3    H229267   4.611   0.920   1.160 -0.0145 -1.2039  0.3081
 2570TIP3   OH229268   5.699   5.617   7.686  0.3807  0.3618 -0.1147
 2570TIP3    H129269   5.630   5.608   7.620  0.8877 -0.0498 -0.5890
 2570TIP3    H229270   5.774   5.651   7.638  0.4955  0.8611  0.4152
 2571TIP3   OH229271   6.879   5.081   7.447 -0.1617 -0.2151  1.2536
 2571TIP3    H129272   6.811   5.107   7.510 -2.0223  1.3063 -1.1551
 2571TIP3    H229273   6.854   5.126   7.366  1.9035 -2.2743 -0.6801
 2572TIP3   OH229274   2.650   5.199   5.727 -0.3757 -0.0163 -0.3476
 2572TIP3    H129275   2.556   5.218   5.728 -0.2716  0.5423 -0.4136
 2572TIP3    H229276   2.684   5.245   5.804 -0.2254 -0.6139 -0.0522
 2573TIP3   OH229277   2.065   5.220   1.782  0.1565  0.4216 -0.5265
 2573TIP3    H129278   2.150   5.177   1.790  0.0376 -0.0482 -1.6020
 2573TIP3    H229279   2.030   5.221   1.872  0.7228 -0.5649 -0.2785
 2574TIP3   OH229280   2.971   0.415   7.497  0.0904  0.8408 -0.0747
 2574TIP3    H129281   2.981   0.334   7.546 -2.1790  0.7624  0.3549
 2574TIP3    H229282   3.020   0.400   7.416  1.4628 -0.1253  0.8893
 2575TIP3   OH229283   5.298   5.837   7.456  0.3921  0.1786  0.0736
 2575TIP3    H129284   5.284   5.851   7.362 -0.4312 -0.2544  0.1272
 2575TIP3    H229285   5.231   5.892   7.498 -1.1548 -1.8098  0.3381
 2576TIP3   OH229286   1.186   4.026   6.885  0.4295 -0.6467  0.3464
 2576TIP3    H129287   1.172   3.956   6.821 -0.0614 -0.7189  0.5277
 2576TIP3    H229288   1.147   3.993   6.966  0.0646 -0.1067  0.3964
 2577TIP3   OH229289   6.941   3.171   2.265  0.1395  0.2988 -0.5539
 2577TIP3    H129290   6.849   3.151   2.249 -0.3885  2.0422  0.1158
 2577TIP3    H229291   6.984   3.157   2.181 -0.5528 -1.3791 -0.6626
 2578TIP3   OH229292   1.795   6.890   7.662 -0.1729 -0.6466 -0.4288
 2578TIP3    H129293   1.804   6.851   7.749  0.7589 -1.0343 -0.6843
 2578TIP3    H229294   1.722   6.843   7.622 -0.0819 -1.0300 -0.1499
 2579TIP3   OH229295   5.084   4.405   7.351 -0.5267 -0.4509 -0.6849
 2579TIP3    H129296   5.067   4.493   7.318  0.5854 -0.3898 -1.1216
 2579TIP3    H229297   5.013   4.352   7.315 -0.8979  0.1579 -0.8619
 2580TIP3   OH229298   1.725   0.422   0.801 -0.1827 -0.2918  0.2189
 2580TIP3    H129299   1.659   0.378   0.855  1.9729 -1.7357  1.8383
 2580TIP3    H229300   1.725   0.374   0.719 -0.6767 -0.7174  0.4589
 2581TIP3   OH229301   2.466   6.094   0.327  0.2691  0.4082 -0.1538
 2581TIP3    H129302   2.415   6.046   0.392  1.0887 -1.6193 -0.9200
 2581TIP3    H229303   2.514   6.026   0.279  0.8668  1.9498 -1.8697
 2582TIP3   OH229304   0.464   5.560   6.964  0.0132 -0.4224 -0.1064
 2582TIP3    H129305   0.559   5.575   6.963 -0.0271 -0.0772 -2.0891
 2582TIP3    H229306   0.426   5.646   6.948 -0.7316 -0.3285  1.8546
 2583TIP3   OH229307   6.516   4.926   1.801 -0.1715 -0.1354 -0.1034
 2583TIP3    H129308   6.568   4.871   1.860 -1.3394 -0.4405  0.6673
 2583TIP3    H229309   6.578   4.952   1.733  1.3230  0.4873  1.4039
 2584TIP3   OH229310   0.046   3.269   0.101  0.3294  0.2162  0.0215
 2584TIP3    H129311   0.091   3.300   0.022  0.3972  1.4004  0.4978
 2584TIP3    H229312  -0.014   3.201   0.070  0.4605  0.5618 -1.0204
 2585TIP3   OH229313   6.816   4.689   1.812  0.2163  0.4443  0.0672
 2585TIP3    H129314   6.885   4.622   1.812 -0.2352 -0.0296  0.6444
 2585TIP3    H229315   6.863   4.772   1.802  0.7527  0.0230 -1.1943
 2586TIP3   OH229316   1.447   3.022   7.029  0.0878 -0.0460 -0.6143
 2586TIP3    H129317   1.471   3.044   7.119 -4.1477 -0.4826  0.8383
 2586TIP3    H229318   1.462   3.103   6.980  3.2049 -0.0155  0.1339
 2587TIP3   OH229319   3.699   4.581   7.015 -0.8345 -0.2325 -0.2545
 2587TIP3    H129320   3.611   4.613   6.993  0.0053  0.8681 -2.2978
 2587TIP3    H229321   3.688   4.537   7.099 -3.1965  0.4917 -0.1055
 2588TIP3   OH229322   3.216   1.706   6.479  0.1238  0.0701 -0.0332
 2588TIP3    H129323   3.121   1.710   6.467  0.1266  0.3467  0.0143
 2588TIP3    H229324   3.240   1.795   6.506  0.4519  0.1142 -0.4632
 2589TIP3   OH229325   6.327   5.529   6.867 -0.1283 -0.4451 -0.0167
 2589TIP3    H129326   6.310   5.620   6.842 -0.9800 -0.8685 -1.0531
 2589TIP3    H229327   6.255   5.507   6.926 -1.2736 -1.1510 -1.6229
 2590TIP3   OH229328   3.136   3.539   6.404  0.3825 -0.2339 -0.4832
 2590TIP3    H129329   3.227   3.510   6.406 -0.0428 -1.6631  1.2152
 2590TIP3    H229330   3.097   3.499   6.482 -2.3528 -1.8252 -2.5028
 2591TIP3   OH229331   6.124   3.230   0.394 -0.0816  0.6021 -0.3202
 2591TIP3    H129332   6.063   3.301   0.415 -0.6151  0.1495 -0.3082
 2591TIP3    H229333   6.200   3.246   0.450  1.0885  2.8199 -2.3597
 2592TIP3   OH229334   3.175   0.318   0.608  0.0381  0.2225  0.2468
 2592TIP3    H129335   3.157   0.272   0.690 -0.2750 -1.1118 -0.5418
 2592TIP3    H229336   3.088   0.340   0.574  0.1619  0.6300  0.1979
 2593TIP3   OH229337   6.812   4.548   6.130  0.0469 -0.8736 -0.1849
 2593TIP3    H129338   6.796   4.607   6.203  0.0217 -1.0888 -0.0159
 2593TIP3    H229339   6.829   4.606   6.055 -0.1090 -0.6540 -0.0502
 2594TIP3   OH229340   1.217   2.213   6.072 -0.4765  0.1909 -0.1740
 2594TIP3    H129341   1.215   2.136   6.015  0.1063  1.4662 -2.0163
 2594TIP3    H229342   1.125   2.239   6.080 -0.5372  0.2308 -0.8976
 2595TIP3   OH229343   3.882   6.960   6.522  0.4606 -0.0859 -0.0505
 2595TIP3    H129344   3.799   6.913   6.507  0.1787  0.6662 -0.9318
 2595TIP3    H229345   3.921   6.967   6.435  1.7201 -0.8875  0.4249
 2596TIP3   OH229346   4.220   3.292   7.766 -0.0805  0.1895 -0.0944
 2596TIP3    H129347   4.189   3.305   7.855  0.4584 -2.0153  0.4973
 2596TIP3    H229348   4.143   3.305   7.711 -1.5124 -2.4214  1.0921
 2597TIP3   OH229349   3.542   5.663   2.262 -0.2651  0.2770 -0.0056
 2597TIP3    H129350   3.498   5.621   2.336 -0.1558  1.2399  0.6367
 2597TIP3    H229351   3.490   5.742   2.246  1.4856  1.7753  1.1765
 2598TIP3   OH229352   5.626   0.404   6.338  0.2229 -0.4332 -0.0481
 2598TIP3    H129353   5.626   0.309   6.352  0.5230 -0.3528  0.5366
 2598TIP3    H229354   5.553   0.436   6.391  0.6312 -0.2513  0.4108
 2599TIP3   OH229355   1.763   1.990   6.590  0.0646  0.4326  0.8669
 2599TIP3    H129356   1.767   2.083   6.568 -0.0136  0.3325  0.4128
 2599TIP3    H229357   1.768   1.945   6.505 -1.7985  0.0743  0.9105
 2600TIP3   OH229358   3.137   5.878   6.969  0.1882  0.1497  0.0175
 2600TIP3    H129359   3.183   5.868   6.886  1.2217  0.0329  0.5968
 2600TIP3    H229360   3.105   5.968   6.968 -0.5573 -0.1005 -0.8646
 2601TIP3   OH229361   1.065   1.900   8.238 -0.4684 -0.3082  0.1732
 2601TIP3    H129362   1.027   1.861   8.159  0.0771 -0.8883  0.1814
 2601TIP3    H229363   1.028   1.849   8.310  1.3245 -1.8336  0.1134
 2602TIP3   OH229364   4.669   6.896   2.129 -0.4922 -0.4405 -0.2839
 2602TIP3    H129365   4.667   6.801   2.115  0.1172 -0.6719  0.9903
 2602TIP3    H229366   4.723   6.930   2.057 -2.0850 -0.8261 -1.7245
 2603TIP3   OH229367   1.571   1.013   8.028  0.0191 -0.4456  0.3671
 2603TIP3    H129368   1.481   1.023   8.061 -0.3055  0.1576 -0.6526
 2603TIP3    H229369   1.593   1.099   7.992  1.1097 -0.5171  0.8219
 2604TIP3   OH229370   4.984   3.247   1.574 -0.3555  0.7113  0.8053
 2604TIP3    H129371   4.914   3.232   1.511  0.0186  0.3416  0.4667
 2604TIP3    H229372   4.944   3.230   1.659 -0.2961 -1.0465  0.5244
 2605TIP3   OH229373   3.414   1.596   8.141 -0.6514  0.7648  0.9621
 2605TIP3    H129374   3.435   1.623   8.052  1.0645 -0.6761  0.8635
 2605TIP3    H229375   3.363   1.516   8.131 -0.3235  0.5137  1.2523
 2606TIP3   OH229376   1.302   6.195   7.243  0.0321  0.1479 -0.7714
 2606TIP3    H129377   1.217   6.156   7.264  0.2655  0.0398  0.0113
 2606TIP3    H229378   1.320   6.253   7.316  1.4035 -1.0867 -0.0672
 2607TIP3   OH229379   1.593   1.908   0.985 -0.8391 -0.1885 -0.4395
 2607TIP3    H129380   1.665   1.970   0.991 -0.3488 -0.8726  1.0872
 2607TIP3    H229381   1.583   1.892   0.891  1.2054 -0.3158 -0.6705
 2608TIP3   OH229382   1.923   5.415   7.221 -0.0727 -0.2605 -0.0531
 2608TIP3    H129383   1.980   5.371   7.284  0.8857  0.0322 -0.6941
 2608TIP3    H229384   1.932   5.364   7.140 -0.1459  0.2218 -0.3722
 2609TIP3   OH229385   6.857   1.290   1.234  0.0264  0.3871  0.7710
 2609TIP3    H129386   6.778   1.242   1.208 -0.8312  1.1313  1.8905
 2609TIP3    H229387   6.928   1.249   1.184 -1.4180  1.4972 -2.4617
 2610TIP3   OH229388   5.046   6.249   8.202  0.0875 -0.6423 -0.2937
 2610TIP3    H129389   5.093   6.315   8.151  1.8681 -2.4427 -1.1044
 2610TIP3    H229390   5.081   6.260   8.291 -0.7337  0.4512 -0.0829
 2611TIP3   OH229391   6.187   3.597   7.034 -0.0266  0.8209 -0.0828
 2611TIP3    H129392   6.199   3.690   7.052  0.5344  0.8752 -0.7004
 2611TIP3    H229393   6.275   3.566   7.012 -0.1452  0.0600  0.4991
 2612TIP3   OH229394   0.103   5.129   0.423  0.4046 -0.2051 -0.1523
 2612TIP3    H129395   0.026   5.144   0.369  0.4831 -0.4921 -0.3453
 2612TIP3    H229396   0.117   5.212   0.468 -0.0067 -0.1489 -0.1286
 2613TIP3   OH229397   0.257   0.025   0.790 -0.0993  0.3956 -0.3915
 2613TIP3    H129398   0.268   0.022   0.885 -0.3821 -0.4256 -0.3719
 2613TIP3    H229399   0.303   0.104   0.762 -0.0591  0.6687  0.4339
 2614TIP3   OH229400   2.897   0.096   0.326 -0.0271 -0.1154 -0.2192
 2614TIP3    H129401   2.966   0.158   0.351  0.2420  0.0983 -1.4366
 2614TIP3    H229402   2.843   0.087   0.404  0.2042  1.2965  0.1174
 2615TIP3   OH229403   5.717   4.137   1.677 -0.2616  0.1872 -0.6726
 2615TIP3    H129404   5.628   4.114   1.650 -0.0924  0.0073 -1.0773
 2615TIP3    H229405   5.766   4.056   1.668  0.2690  0.6180 -1.8066
 2616TIP3   OH229406   1.948   4.437   7.942 -0.2175  0.3132 -0.4599
 2616TIP3    H129407   1.899   4.355   7.948 -0.4629  0.4261 -0.8652
 2616TIP3    H229408   1.967   4.447   7.849 -0.4707  0.8804 -0.4561
 2617TIP3   OH229409   5.360   2.791   7.045  0.2319  0.2878 -0.2356
 2617TIP3    H129410   5.362   2.707   6.999 -0.4910 -0.1780  0.5473
 2617TIP3    H229411   5.293   2.779   7.113 -1.5029  2.2391 -1.5067
 2618TIP3   OH229412   0.350   2.685   0.512 -0.5328  0.3077  0.6835
 2618TIP3    H129413   0.333   2.740   0.436 -2.0252 -1.5842 -0.4473
 2618TIP3    H229414   0.425   2.631   0.486 -1.1583 -0.4671  0.4598
 2619TIP3   OH229415   1.071   4.079   1.237 -0.0386  0.2113  0.1065
 2619TIP3    H129416   1.080   4.111   1.327 -1.0325  0.2093  0.2216
 2619TIP3    H229417   0.977   4.062   1.228  0.2552 -1.1884 -0.4575
 2620TIP3   OH229418   5.160   3.840   6.185  0.0311  0.8021 -0.0148
 2620TIP3    H129419   5.120   3.756   6.162  1.8687  0.2111 -1.2312
 2620TIP3    H229420   5.131   3.900   6.117 -2.1859  1.5256  1.4485
 2621TIP3   OH229421   4.942   2.990   0.471 -0.2442 -0.2123  0.3474
 2621TIP3    H129422   5.013   3.046   0.439 -0.1022 -1.6655 -2.0931
 2621TIP3    H229423   4.866   3.048   0.475  0.4341  0.7067  0.2390
 2622TIP3   OH229424   6.507   5.358   2.458  0.5897 -0.6258  0.2640
 2622TIP3    H129425   6.536   5.449   2.453 -0.3587 -0.3648 -0.9525
 2622TIP3    H229426   6.548   5.316   2.383  1.4072 -1.3446  1.0874
 2623TIP3   OH229427   0.431   5.146   0.484  0.4930 -0.7069  0.5552
 2623TIP3    H129428   0.525   5.142   0.470  0.5595  1.0893  0.2655
 2623TIP3    H229429   0.419   5.208   0.557 -0.4517 -1.0849  0.7473
 2624TIP3   OH229430   5.946   2.338   1.173 -0.2708 -0.1942 -0.0062
 2624TIP3    H129431   5.862   2.344   1.219  0.7588  0.0553  1.9223
 2624TIP3    H229432   6.001   2.405   1.213  1.0926 -0.8249 -0.7470
 2625TIP3   OH229433   6.143   3.331   6.319 -0.2689 -0.7859 -0.0917
 2625TIP3    H129434   6.218   3.289   6.360 -0.4844  0.0943  1.2578
 2625TIP3    H229435   6.179   3.375   6.242  0.6569 -0.2377  0.6314
 2626TIP3   OH229436   4.376   0.190   7.477 -0.0116  0.2467  0.1575
 2626TIP3    H129437   4.436   0.265   7.478 -1.2069  1.2277  0.6096
 2626TIP3    H229438   4.356   0.173   7.569 -1.8928  1.1769 -0.0267
 2627TIP3   OH229439   5.939   0.527   7.665  0.5663  0.2663  0.2443
 2627TIP3    H129440   5.878   0.595   7.639  0.5316  0.3219  0.4696
 2627TIP3    H229441   6.014   0.539   7.607  0.5163  0.4294  0.2125
 2628TIP3   OH229442   3.083   6.408   1.125 -0.2934  0.0822 -0.3605
 2628TIP3    H129443   3.118   6.393   1.212 -1.2757 -0.7124 -0.0870
 2628TIP3    H229444   3.133   6.350   1.068  0.8740  1.1509 -0.4820
 2629TIP3   OH229445   0.758   1.269   0.120 -0.4283  0.6762  0.0028
 2629TIP3    H129446   0.680   1.215   0.106  0.0205  0.0700 -0.2425
 2629TIP3    H229447   0.822   1.208   0.158 -0.1176  1.1961  0.3277
 2630TIP3   OH229448   2.153   4.559   7.572  0.0762 -0.2885 -0.0889
 2630TIP3    H129449   2.112   4.537   7.656  0.5767 -2.4337 -0.3530
 2630TIP3    H229450   2.245   4.539   7.584  0.3014  0.2281 -0.8936
 2631TIP3   OH229451   0.219   5.925   0.691  0.6848  0.2081  0.4703
 2631TIP3    H129452   0.214   6.011   0.733  0.6689  0.1823  0.5216
 2631TIP3    H229453   0.129   5.891   0.695  0.5842  0.4135 -0.0234
 2632TIP3   OH229454   0.922   0.078   8.098 -0.4992  0.0133 -0.2309
 2632TIP3    H129455   0.826   0.085   8.098 -0.5157 -0.0197 -1.7910
 2632TIP3    H229456   0.952   0.155   8.050  0.2542 -0.0842  0.0742
 2633TIP3   OH229457   1.856   6.891   7.060  0.1611 -0.3265 -0.3828
 2633TIP3    H129458   1.782   6.933   7.015  1.3051  0.9653 -1.1319
 2633TIP3    H229459   1.827   6.884   7.151 -0.0570  2.3362 -0.1497
 2634TIP3   OH229460   3.375   2.256   7.023 -0.4771 -0.6712  0.2445
 2634TIP3    H129461   3.366   2.228   6.932 -1.6036  0.2247  0.0578
 2634TIP3    H229462   3.355   2.177   7.074 -0.2663 -1.0670 -0.2711
 2635TIP3   OH229463   0.326   5.037   6.554  0.7715  0.5010 -0.2568
 2635TIP3    H129464   0.278   5.107   6.597  0.3071  0.2795 -0.4050
 2635TIP3    H229465   0.341   5.069   6.465  0.9428  0.5928 -0.1939
 2636TIP3   OH229466   3.850   3.002   0.813 -0.1340 -0.5650 -0.2074
 2636TIP3    H129467   3.925   2.962   0.857  1.0547 -0.3218 -1.9238
 2636TIP3    H229468   3.781   2.936   0.818  1.3268 -2.3155 -1.7162
 2637TIP3   OH229469   2.970   5.425   2.359  0.0563 -0.2775 -0.0224
 2637TIP3    H129470   2.974   5.369   2.437 -0.1917 -0.2121  0.0378
 2637TIP3    H229471   3.062   5.438   2.334  0.1232 -0.5387  0.0866
 2638TIP3   OH229472   0.560   0.642   0.953  0.5366  0.1514 -0.5579
 2638TIP3    H129473   0.638   0.680   0.993  0.5352  1.1294 -1.4153
 2638TIP3    H229474   0.514   0.718   0.916 -1.1471 -0.3194  0.4626
 2639TIP3   OH229475   6.640   3.868   6.384 -0.1202  0.0397  0.6715
 2639TIP3    H129476   6.637   3.822   6.467 -1.6360 -1.6277 -0.2204
 2639TIP3    H229477   6.716   3.831   6.338 -0.9823 -1.2373  0.1995
 2640TIP3   OH229478   5.486   1.738   7.621  0.1147 -0.0165  0.4634
 2640TIP3    H129479   5.398   1.767   7.644 -1.2816 -0.2093 -3.6893
 2640TIP3    H229480   5.473   1.659   7.569  2.9345 -1.0492  1.1119
 2641TIP3   OH229481   0.327   4.042   0.657  0.3169  0.2976  0.0962
 2641TIP3    H129482   0.355   4.060   0.747  1.8885  0.9507 -0.4911
 2641TIP3    H229483   0.325   3.946   0.652 -0.5706  0.2553  1.0502
 2642TIP3   OH229484   4.777   4.005   0.881 -0.0085 -0.1871  0.0245
 2642TIP3    H129485   4.838   4.078   0.870 -0.7896  0.3028 -1.2610
 2642TIP3    H229486   4.804   3.963   0.963 -0.8700  2.7987  1.9852
 2643TIP3   OH229487   0.539   3.848   7.237  0.0758  0.5993 -0.3546
 2643TIP3    H129488   0.546   3.840   7.142  1.4958  2.4058 -0.4556
 2643TIP3    H229489   0.627   3.828   7.269 -0.8723 -2.0560  0.8088
 2644TIP3   OH229490   5.772   6.844   7.928 -0.3737 -0.4059  0.2234
 2644TIP3    H129491   5.812   6.926   7.900 -0.4968 -0.9555 -1.6507
 2644TIP3    H229492   5.733   6.865   8.013  0.3969  1.2129  0.2224
 2645TIP3   OH229493   0.941   4.417   0.809  0.3376 -0.2953 -0.4340
 2645TIP3    H129494   1.009   4.351   0.825  1.6448  0.8224 -1.1179
 2645TIP3    H229495   0.870   4.393   0.868  1.3531 -1.4788  0.3672
 2646TIP3   OH229496   1.485   5.335   1.180 -0.1680  0.1978 -0.2946
 2646TIP3    H129497   1.480   5.381   1.263  0.5745  0.7907 -0.5716
 2646TIP3    H229498   1.416   5.375   1.126 -1.5246 -1.0495  0.4193
 2647TIP3   OH229499   1.294   4.747   7.568  0.2748  0.3043 -0.3066
 2647TIP3    H129500   1.319   4.819   7.626  0.7556  0.1762 -0.3522
 2647TIP3    H229501   1.199   4.741   7.577  0.5259 -1.2300  2.2528
 2648TIP3   OH229502   2.215   0.264   0.284 -0.8236  0.4709  0.8045
 2648TIP3    H129503   2.301   0.239   0.319  0.0333  0.5155 -1.1566
 2648TIP3    H229504   2.154   0.203   0.326  0.5794 -1.7443 -0.1547
 2649TIP3   OH229505   1.269   4.415   8.014 -0.1549 -0.9211  0.2437
 2649TIP3    H129506   1.237   4.471   7.943 -1.0105 -1.2988  0.3216
 2649TIP3    H229507   1.310   4.477   8.076 -0.9090 -0.3934  0.2333
 2650TIP3   OH229508   6.787   4.713   5.894  0.1547 -0.2146 -0.1174
 2650TIP3    H129509   6.795   4.629   5.848  1.2131  0.2717 -0.8807
 2650TIP3    H229510   6.695   4.738   5.883 -0.0856 -1.1000 -0.1807
 2651TIP3   OH229511   0.859   3.269   2.017  0.1612  0.0423  0.3918
 2651TIP3    H129512   0.907   3.229   2.091 -0.7257 -0.4196  0.7346
 2651TIP3    H229513   0.767   3.267   2.044 -0.1598  0.0338 -0.6544
 2652TIP3   OH229514   0.870   5.380   1.043 -0.1994 -0.3510  0.2711
 2652TIP3    H129515   0.808   5.313   1.073 -0.2963  0.2275  1.3926
 2652TIP3    H229516   0.849   5.392   0.950  0.5451 -2.6614 -0.2854
 2653TIP3   OH229517   4.220   4.546   0.215 -0.5197 -0.0511  0.2626
 2653TIP3    H129518   4.238   4.622   0.160 -0.8077 -0.5869 -0.5976
 2653TIP3    H229519   4.161   4.491   0.162  0.2845 -1.2348  0.5492
 2654TIP3   OH229520   3.447   6.386   1.045 -0.1595  0.1432  0.0527
 2654TIP3    H129521   3.365   6.335   1.051  0.0506 -0.3506 -1.0290
 2654TIP3    H229522   3.505   6.345   1.109  0.3989 -1.7805 -1.5846
 2655TIP3   OH229523   3.425   3.467   1.697  0.1193  0.0985  0.2654
 2655TIP3    H129524   3.432   3.425   1.783  1.7783  0.4777  0.3410
 2655TIP3    H229525   3.430   3.395   1.635 -1.0696 -0.1774  0.4506
 2656TIP3   OH229526   2.280   6.256   1.210  0.0098 -0.3122 -0.1093
 2656TIP3    H129527   2.336   6.288   1.280 -0.2243  0.5349 -0.2921
 2656TIP3    H229528   2.340   6.226   1.142  0.2349 -0.5243  0.1835
 2657TIP3   OH229529   5.346   6.356   0.563  0.1731 -0.2314  0.0392
 2657TIP3    H129530   5.271   6.312   0.602  0.0081 -0.1248 -0.1513
 2657TIP3    H229531   5.397   6.286   0.524 -0.4611 -0.2018 -0.8938
 2658TIP3   OH229532   0.702   5.745   7.683  0.3834 -0.2909  0.3324
 2658TIP3    H129533   0.675   5.772   7.595  1.1100 -0.3960  0.0731
 2658TIP3    H229534   0.777   5.687   7.669  0.6960 -0.0679  1.0312
 2659TIP3   OH229535   0.117   1.022   7.679  0.2761 -0.0234 -0.0829
 2659TIP3    H129536   0.151   1.098   7.633 -0.4432  0.2870 -0.1130
 2659TIP3    H229537   0.112   1.050   7.771  3.9341 -1.3788  0.7045
 2660TIP3   OH229538   6.165   5.310   6.689  0.4227 -0.2439 -0.0616
 2660TIP3    H129539   6.156   5.254   6.612 -0.1789 -0.3861  0.1067
 2660TIP3    H229540   6.075   5.326   6.718  0.3674  2.7101 -1.4659
 2661TIP3   OH229541   0.099   2.138   5.908  0.1063 -0.2895  0.4378
 2661TIP3    H129542   0.131   2.069   5.966 -1.1626 -0.8778  0.4537
 2661TIP3    H229543   0.137   2.219   5.944  0.4770 -0.8096  1.2371
 2662TIP3   OH229544   6.139   3.102   7.532  0.3978  0.8503 -0.4710
 2662TIP3    H129545   6.044   3.090   7.531  0.3120  1.0482  1.5133
 2662TIP3    H229546   6.163   3.107   7.439 -1.5612  1.1676 -1.0177
 2663TIP3   OH229547   6.422   3.413   5.551  0.2114 -0.3214  0.5122
 2663TIP3    H129548   6.456   3.331   5.518 -0.8974 -0.8691  0.6699
 2663TIP3    H229549   6.333   3.392   5.581  0.8492  0.3251  3.0849
 2664TIP3   OH229550   3.436   3.306   7.413 -0.5196 -0.1521 -0.5950
 2664TIP3    H129551   3.420   3.211   7.412 -0.7630 -0.1300  0.4721
 2664TIP3    H229552   3.525   3.316   7.380  0.8629 -1.0475  2.5646
 2665TIP3   OH229553   3.507   6.231   1.464 -0.1469  0.2579 -0.4330
 2665TIP3    H129554   3.576   6.247   1.400  0.0450  1.3250  0.0294
 2665TIP3    H229555   3.533   6.280   1.541 -0.7337 -0.4482  0.2353
 2666TIP3   OH229556   4.874   2.391   2.115 -0.4477  0.0379 -0.1961
 2666TIP3    H129557   4.869   2.482   2.084  0.4338  0.1457 -0.0684
 2666TIP3    H229558   4.839   2.394   2.204  0.3744  0.4377  0.1306
 2667TIP3   OH229559   1.171   1.348   7.428 -0.1595  0.0387  0.0075
 2667TIP3    H129560   1.223   1.285   7.477 -0.2257 -1.3771 -1.6054
 2667TIP3    H229561   1.182   1.321   7.336 -0.5129  2.1682 -0.7173
 2668TIP3   OH229562   1.160   5.850   7.649 -0.4812 -0.2273  0.1980
 2668TIP3    H129563   1.214   5.803   7.585  1.3152  1.5986  0.2652
 2668TIP3    H229564   1.084   5.879   7.598 -1.4542 -2.7393  0.0692
 2669TIP3   OH229565   1.678   4.760   7.898  0.0472 -0.9895 -0.7596
 2669TIP3    H129566   1.606   4.758   7.961  0.1263 -0.7305 -0.6601
 2669TIP3    H229567   1.637   4.743   7.814 -0.1589 -0.6508 -0.7285
 2670TIP3   OH229568   4.212   6.366   7.466  0.3952  0.2294 -0.5401
 2670TIP3    H129569   4.244   6.286   7.425 -2.1777 -1.4479  0.5145
 2670TIP3    H229570   4.245   6.361   7.556  0.4042  0.4866 -0.5277
 2671TIP3   OH229571   2.981   3.995   0.521  0.5565  0.1613 -0.2862
 2671TIP3    H129572   2.966   3.901   0.524  0.9382  0.0385 -1.5692
 2671TIP3    H229573   2.955   4.027   0.607 -1.2928 -0.8690 -0.4188
 2672TIP3   OH229574   3.630   2.273   0.254 -0.3682 -0.2225  0.3033
 2672TIP3    H129575   3.648   2.193   0.204 -1.5253 -0.7080  0.6212
 2672TIP3    H229576   3.714   2.319   0.258  0.2414 -1.2671 -0.1548
 2673TIP3   OH229577   1.523   3.034   0.649 -0.1517 -0.2976 -0.5018
 2673TIP3    H129578   1.592   3.020   0.713  0.6052  1.2157 -0.9349
 2673TIP3    H229579   1.457   3.085   0.696 -0.0728 -0.0708 -0.6374
 2674TIP3   OH229580   6.657   3.520   5.690 -0.0927  0.5977 -0.6005
 2674TIP3    H129581   6.584   3.539   5.630 -0.0394  2.8178 -0.0229
 2674TIP3    H229582   6.662   3.596   5.748  2.9975  0.7809 -0.9217
 2675TIP3   OH229583   6.425   5.443   7.695  0.0695  0.7953 -0.4653
 2675TIP3    H129584   6.489   5.514   7.701  0.3859  0.5425 -0.8359
 2675TIP3    H229585   6.388   5.438   7.783 -1.1766  2.5302 -0.8439
 2676TIP3   OH229586   4.990   0.291   0.244 -0.4405  0.0397 -0.2618
 2676TIP3    H129587   4.958   0.215   0.294 -0.5619  0.7424  0.7538
 2676TIP3    H229588   5.063   0.325   0.296 -0.0230  0.3056 -0.9979
 2677TIP3   OH229589   0.166   0.712   2.112 -0.3351  0.2850  0.0694
 2677TIP3    H129590   0.236   0.720   2.048 -0.5614  1.1610 -0.0855
 2677TIP3    H229591   0.202   0.656   2.180  0.7986  1.2973  0.3443
 2678TIP3   OH229592   4.887   5.895   6.789 -0.1482  0.3054  0.5955
 2678TIP3    H129593   4.879   5.980   6.832  1.5392 -0.1482  1.9596
 2678TIP3    H229594   4.980   5.888   6.768 -0.2306 -1.2314  0.6151
 2679TIP3   OH229595   4.331   4.736   1.930  0.5889 -0.4526  0.3416
 2679TIP3    H129596   4.426   4.733   1.920  0.7323  2.2052  0.1919
 2679TIP3    H229597   4.315   4.811   1.987 -1.5347  1.8377 -2.9336
 2680TIP3   OH229598   2.361   5.471   8.074  0.4256 -0.0903  0.3526
 2680TIP3    H129599   2.406   5.442   8.154  0.8352  0.5899  0.3766
 2680TIP3    H229600   2.385   5.564   8.066  1.2400 -0.3985 -1.1198
 2681TIP3   OH229601   4.089   6.766   6.576 -0.3165 -0.2216 -0.0294
 2681TIP3    H129602   4.021   6.834   6.578 -2.9394 -2.6081 -0.7399
 2681TIP3    H229603   4.137   6.782   6.495 -0.6740  0.9533 -0.0288
 2682TIP3   OH229604   1.604   2.315   0.007 -0.0360 -0.0702  0.0464
 2682TIP3    H129605   1.644   2.340   0.090  0.2398 -0.3184 -0.0098
 2682TIP3    H229606   1.582   2.223   0.018  1.2864 -0.4960 -0.6454
 2683TIP3   OH229607   6.288   2.989   6.123  0.2843  0.1408  0.3807
 2683TIP3    H129608   6.203   2.945   6.129 -0.0338  0.7374  0.2763
 2683TIP3    H229609   6.348   2.920   6.093 -0.5842  0.2152 -1.7251
 2684TIP3   OH229610   6.820   0.870   7.292 -0.3365  0.1596 -0.4741
 2684TIP3    H129611   6.787   0.786   7.326  0.0829  0.4664  0.7386
 2684TIP3    H229612   6.742   0.920   7.271 -0.6173  0.0461  0.2826
 2685TIP3   OH229613   2.755   2.971   1.379 -0.3077 -0.0369 -0.1214
 2685TIP3    H129614   2.842   3.005   1.401 -0.2819  0.0857 -0.4088
 2685TIP3    H229615   2.768   2.925   1.296 -0.6411  0.5322 -0.4999
 2686TIP3   OH229616   2.218   5.575   0.334  0.1375 -0.1087  0.5014
 2686TIP3    H129617   2.162   5.540   0.264  0.8208 -0.2407  0.0109
 2686TIP3    H229618   2.158   5.594   0.406 -0.3365 -1.6361  0.5310
 2687TIP3   OH229619   1.065   0.526   1.647  0.0047 -0.1859  0.2049
 2687TIP3    H129620   0.998   0.549   1.711  0.5228 -0.3390  0.8179
 2687TIP3    H229621   1.145   0.518   1.698  0.4372 -0.2868 -0.4718
 2688TIP3   OH229622   5.931   3.261   7.052  0.4643  0.1801 -0.1098
 2688TIP3    H129623   6.025   3.246   7.062  0.4766  0.3749  0.0666
 2688TIP3    H229624   5.918   3.269   6.958  0.7143  0.7298 -0.1008
 2689TIP3   OH229625   2.277   2.911   0.041  0.2503 -0.0895 -0.0007
 2689TIP3    H129626   2.239   2.873  -0.038  0.7889 -0.2200 -0.2023
 2689TIP3    H229627   2.208   2.904   0.107 -0.7733  1.4131 -0.8476
 2690TIP3   OH229628   2.300   6.018   7.917 -0.3433 -0.5747  0.2457
 2690TIP3    H129629   2.307   5.931   7.877 -1.4486 -0.7994  0.5037
 2690TIP3    H229630   2.262   6.073   7.848  1.2586 -0.0408 -0.2445
 2691TIP3   OH229631   3.812   0.327   0.655 -0.8516  0.1940  0.1134
 2691TIP3    H129632   3.898   0.367   0.662 -0.2719 -0.8776 -0.6903
 2691TIP3    H229633   3.754   0.386   0.703  0.0501  1.7318 -0.6431
 2692TIP3   OH229634   3.581   6.344   7.262  0.3803 -0.3389  0.3670
 2692TIP3    H129635   3.516   6.275   7.256  0.3784 -0.2803 -0.4446
 2692TIP3    H229636   3.537   6.414   7.310 -0.4729  0.0301 -0.9001
 2693TIP3   OH229637   5.107   6.760   7.358  0.2084 -0.0297  0.0987
 2693TIP3    H129638   5.020   6.719   7.356  1.4130 -2.7944  0.9194
 2693TIP3    H229639   5.110   6.805   7.442  0.4785 -2.1723  1.2912
 2694TIP3   OH229640   2.819   0.558   0.856  0.9128  0.4824  0.1863
 2694TIP3    H129641   2.912   0.560   0.880  1.1513 -0.7035 -0.5299
 2694TIP3    H229642   2.775   0.523   0.934  0.8507  2.3662  1.0423
 2695TIP3   OH229643   5.194   3.628   6.494  0.1043 -0.3066  0.0559
 2695TIP3    H129644   5.228   3.553   6.445 -1.7997 -0.7626 -0.6817
 2695TIP3    H229645   5.224   3.615   6.583  1.5599 -0.8047 -0.4841
 2696TIP3   OH229646   3.268   1.968   6.909 -0.0246  0.3866 -0.2346
 2696TIP3    H129647   3.273   1.952   7.003  0.6167 -2.5783 -0.6614
 2696TIP3    H229648   3.359   1.978   6.880 -0.2439  1.8379 -0.5055
 2697TIP3   OH229649   3.492   0.323   7.044 -0.8551  0.2046 -0.4084
 2697TIP3    H129650   3.576   0.363   7.066 -0.1687 -0.7680 -1.1677
 2697TIP3    H229651   3.430   0.363   7.105  0.4228 -0.2101  1.2509
 2698TIP3   OH229652   0.000   1.190   1.908  0.9030  0.5911 -0.2955
 2698TIP3    H129653  -0.040   1.277   1.906  1.0898  0.7003  0.4115
 2698TIP3    H229654   0.084   1.203   1.951  1.0969  0.1170 -0.5154
 2699TIP3   OH229655   5.355   4.693   1.949  0.3502  0.1867  0.5807
 2699TIP3    H129656   5.326   4.781   1.925  1.1757  1.3297  3.4487
 2699TIP3    H229657   5.318   4.678   2.036  0.0708 -2.4355  0.1091
 2700TIP3   OH229658   5.900   5.225   1.134 -0.0051 -0.3181  0.9884
 2700TIP3    H129659   5.928   5.204   1.224  1.5692 -1.4474  0.2771
 2700TIP3    H229660   5.981   5.223   1.083 -1.0083 -0.6866 -0.6549
 2701TIP3   OH229661   2.634   4.943   6.482 -0.0973 -0.4936  0.3973
 2701TIP3    H129662   2.580   4.932   6.560 -0.6022  2.7993  0.6681
 2701TIP3    H229663   2.716   4.981   6.514 -0.3806  1.0750 -0.6339
 2702TIP3   OH229664   3.583   0.356   8.205  0.5481  0.2007  0.0361
 2702TIP3    H129665   3.587   0.303   8.125  0.6596  2.6215 -1.6559
 2702TIP3    H229666   3.490   0.362   8.225  0.5798 -1.5395  0.9829
 2703TIP3   OH229667   3.426   2.481   7.703  0.4579 -0.4468  0.1037
 2703TIP3    H129668   3.382   2.498   7.786  1.2133  1.0156  0.2389
 2703TIP3    H229669   3.517   2.508   7.718  0.2345  1.5591 -1.6933
 2704TIP3   OH229670   2.129   3.636   6.189  0.2860  0.2879 -0.0143
 2704TIP3    H129671   2.123   3.632   6.093 -1.3209  2.2433 -0.0583
 2704TIP3    H229672   2.223   3.632   6.207  0.6045 -0.4534 -1.6386
 2705TIP3   OH229673   6.626   4.919   0.501 -0.3153  0.4857  0.9768
 2705TIP3    H129674   6.720   4.915   0.513 -0.2028 -1.2552 -0.1053
 2705TIP3    H229675   6.595   4.832   0.525 -1.1727 -0.1095 -1.9210
 2706TIP3   OH229676   5.549   0.126   0.420 -0.2879  0.2969 -0.7301
 2706TIP3    H129677   5.543   0.178   0.500 -0.0649 -0.2286 -0.3699
 2706TIP3    H229678   5.642   0.126   0.398  0.1372 -2.0441  0.6955
 2707TIP3   OH229679   6.425   0.952   0.492  0.0770  0.1511 -0.2815
 2707TIP3    H129680   6.442   0.899   0.571  1.3591  0.5642 -0.2597
 2707TIP3    H229681   6.348   1.004   0.514  0.4996  0.3562  0.7581
 2708TIP3   OH229682   5.324   4.585   7.008  0.2001 -0.1686 -0.2605
 2708TIP3    H129683   5.411   4.586   6.966  0.6360 -0.5095  0.6211
 2708TIP3    H229684   5.337   4.537   7.089 -0.4752  1.1104  0.6328
 2709TIP3   OH229685   6.539   6.361   0.608  0.2834  0.1172 -0.8181
 2709TIP3    H129686   6.503   6.281   0.644  1.7463 -0.6121 -0.9117
 2709TIP3    H229687   6.490   6.431   0.651  0.5706 -0.7719  1.0580
 2710TIP3   OH229688   2.864   1.002   0.799 -0.9359 -0.3455  0.3293
 2710TIP3    H129689   2.803   0.935   0.768  0.0634 -0.2573 -2.0375
 2710TIP3    H229690   2.946   0.983   0.753  0.2257  0.8050  1.8043
 2711TIP3   OH229691   3.289   2.024   7.177 -0.5029  0.4174 -0.0613
 2711TIP3    H129692   3.264   2.059   7.263  0.4258  1.0014 -0.0174
 2711TIP3    H229693   3.324   1.937   7.195  0.7472  0.9796  0.3034
 2712TIP3   OH229694   3.899   2.550   0.072  0.5575 -0.3001 -0.1473
 2712TIP3    H129695   3.845   2.523  -0.003 -1.1332  2.5137 -0.0776
 2712TIP3    H229696   3.986   2.563   0.035 -0.3402  1.4584 -1.8023
 2713TIP3   OH229697   0.112   4.829   7.930 -0.3256 -0.4128  0.2670
 2713TIP3    H129698   0.174   4.898   7.949 -2.0685  1.5210 -0.6943
 2713TIP3    H229699   0.105   4.828   7.834 -0.0914 -2.1962  0.2290
 2714TIP3   OH229700   3.562   0.621   0.150  0.7932 -0.1899  0.3196
 2714TIP3    H129701   3.490   0.578   0.197  0.9798 -0.6334  0.2101
 2714TIP3    H229702   3.570   0.571   0.069  1.2016 -0.1163  0.3139
 2715TIP3   OH229703   3.726   3.141   6.548  0.0858 -0.7179 -0.2189
 2715TIP3    H129704   3.644   3.147   6.599 -0.5210  2.9791 -1.2917
 2715TIP3    H229705   3.793   3.177   6.607 -0.1255  1.0599 -0.9776
 2716TIP3   OH229706   5.577   2.941   5.878  0.5633  0.0907  0.3911
 2716TIP3    H129707   5.549   3.017   5.827  1.9956  1.2981  1.2969
 2716TIP3    H229708   5.515   2.938   5.951 -0.3714 -0.5242 -0.3995
 2717TIP3   OH229709   5.329   2.863   8.191  0.3118  0.8448 -0.2320
 2717TIP3    H129710   5.397   2.819   8.139 -0.8440 -1.5530  0.1237
 2717TIP3    H229711   5.344   2.956   8.177  1.2566  0.3467 -3.2944
 2718TIP3   OH229712   1.604   0.686   6.485 -0.4165  0.2497 -0.2375
 2718TIP3    H129713   1.689   0.688   6.442  0.3514  2.6843  1.1906
 2718TIP3    H229714   1.566   0.772   6.467 -2.3796 -0.5979 -0.3952
 2719TIP3   OH229715   0.338   3.767   0.689 -0.1453  0.1784  0.6834
 2719TIP3    H129716   0.333   3.707   0.763 -0.1913  0.3908  0.8523
 2719TIP3    H229717   0.328   3.710   0.612  0.7955 -0.1522  0.7969
 2720TIP3   OH229718   0.946   5.646   7.639 -0.5698  0.8055 -0.2891
 2720TIP3    H129719   0.892   5.569   7.619 -2.1709  2.2914 -2.1219
 2720TIP3    H229720   0.995   5.661   7.558  1.0270  0.7672  0.6346
 2721TIP3   OH229721   1.262   2.906   1.404 -0.0512  0.2066  0.0132
 2721TIP3    H129722   1.275   2.821   1.362  1.5560  0.4980 -0.1357
 2721TIP3    H229723   1.197   2.889   1.472  1.9648 -1.7411  1.6087
 2722TIP3   OH229724   4.534   1.165   1.692 -0.3444 -0.0900 -0.0254
 2722TIP3    H129725   4.579   1.080   1.695 -1.8020 -0.8868  0.6075
 2722TIP3    H229726   4.487   1.170   1.775 -1.3170  0.7296 -0.5922
 2723TIP3   OH229727   0.587   1.219   0.493  0.1009 -0.2383 -0.4207
 2723TIP3    H129728   0.625   1.134   0.518  0.1863 -0.0097  0.2404
 2723TIP3    H229729   0.543   1.250   0.572  0.8303  0.7590 -0.3904
 2724TIP3   OH229730   4.009   0.358   7.455  0.0718  0.6551 -0.3387
 2724TIP3    H129731   4.098   0.374   7.488  0.4929  3.1270 -2.3978
 2724TIP3    H229732   3.973   0.445   7.441 -1.1608 -0.2344 -3.3932
 2725TIP3   OH229733   5.806   3.021   0.420 -0.0851  0.5323  0.3188
 2725TIP3    H129734   5.779   3.069   0.341  0.0288 -1.8292 -1.2368
 2725TIP3    H229735   5.882   2.970   0.393 -0.7001 -1.1804  1.6263
 2726TIP3   OH229736   6.412   6.657   1.723 -0.4235 -0.2725 -0.5304
 2726TIP3    H129737   6.376   6.711   1.653  2.1249  3.0864  0.4685
 2726TIP3    H229738   6.356   6.675   1.799  0.6486  1.5576 -0.0875
 2727TIP3   OH229739   6.534   5.995   6.873  0.1529 -0.2023 -0.0418
 2727TIP3    H129740   6.500   5.911   6.842 -3.5550  1.9398 -2.5334
 2727TIP3    H229741   6.529   6.052   6.797  0.2357  2.9134  2.1290
 2728TIP3   OH229742   3.777   7.037   5.768  0.4143  0.5025 -0.6687
 2728TIP3    H129743   3.705   6.975   5.774  0.6021  0.1703 -1.6741
 2728TIP3    H229744   3.796   7.042   5.675  0.1323  2.3815 -0.6633
 2729TIP3   OH229745   4.717   1.219   8.177  0.5574  0.9731 -0.2481
 2729TIP3    H129746   4.627   1.234   8.148  1.0675 -0.0801 -2.6942
 2729TIP3    H229747   4.711   1.143   8.234  0.0276 -0.1836 -1.7648
 2730TIP3   OH229748   3.051   6.345   7.112  0.1992  0.0328  0.4206
 2730TIP3    H129749   3.110   6.313   7.180  0.6436 -1.1893 -0.4965
 2730TIP3    H229750   2.965   6.311   7.136  0.3511 -0.3681  0.4085
 2731TIP3   OH229751   2.791   6.185   6.994  0.3885 -0.2506 -0.2195
 2731TIP3    H129752   2.705   6.196   7.033  0.4541  0.0050 -0.1472
 2731TIP3    H229753   2.822   6.274   6.977  1.7315 -0.1676  2.1727
 2732TIP3   OH229754   1.797   0.077   6.906 -0.4818  0.1229  0.1831
 2732TIP3    H129755   1.727   0.102   6.846  0.4693 -0.1499 -1.0792
 2732TIP3    H229756   1.810   0.155   6.961 -2.4169 -0.1546  1.1266
 2733TIP3   OH229757   3.698   0.907   6.261  0.3499 -0.1357  0.1633
 2733TIP3    H129758   3.647   0.830   6.238 -0.1759  0.0076  0.8051
 2733TIP3    H229759   3.652   0.945   6.337 -0.9656  2.3020 -1.6981
 2734TIP3   OH229760   3.109   0.584   5.673 -0.3575 -1.0524  0.3352
 2734TIP3    H129761   3.068   0.669   5.693  0.3501 -1.1213  2.3314
 2734TIP3    H229762   3.202   0.604   5.667 -0.3847 -1.3117 -1.7615
 2735TIP3   OH229763   4.002   4.985   0.782  0.7871  0.4129  0.4463
 2735TIP3    H129764   3.949   5.063   0.798  0.2786  0.6434 -1.9549
 2735TIP3    H229765   3.944   4.912   0.803  1.2393  0.6193  2.6233
 2736TIP3   OH229766   1.605   6.505   6.639  0.9050 -0.6856  0.0833
 2736TIP3    H129767   1.544   6.473   6.706  0.6006 -1.5855 -0.6044
 2736TIP3    H229768   1.669   6.555   6.689  0.2551 -0.6900  0.9634
 2737TIP3   OH229769   5.099   3.260   0.630 -0.4073 -0.0780  0.1223
 2737TIP3    H129770   5.073   3.326   0.694 -2.1504 -1.1075  0.5359
 2737TIP3    H229771   5.035   3.268   0.559  0.1529 -0.4472 -0.4353
 2738TIP3   OH229772   4.700   6.092   7.128  0.1394  0.1278  0.6024
 2738TIP3    H129773   4.773   6.101   7.066  0.0083  0.0124  0.4326
 2738TIP3    H229774   4.723   6.152   7.200 -0.1326  0.9231  0.0425
 2739TIP3   OH229775   4.711   5.437   8.190  0.2303 -0.5955  0.0076
 2739TIP3    H129776   4.724   5.408   8.099 -1.5007 -0.0513 -0.4627
 2739TIP3    H229777   4.642   5.379   8.224 -1.5183  1.2611 -0.1566
 2740TIP3   OH229778   2.506   3.009   0.864 -0.1524  0.3028  0.6101
 2740TIP3    H129779   2.443   3.075   0.834  0.8850  0.6650 -0.8821
 2740TIP3    H229780   2.542   3.045   0.945  1.6536  2.4835 -1.0526
 2741TIP3   OH229781   4.656   5.467   1.677  0.0309 -0.0930  0.3298
 2741TIP3    H129782   4.700   5.541   1.719  0.6983 -0.2255 -0.1170
 2741TIP3    H229783   4.631   5.410   1.750 -0.7161  0.6826  0.6977
 2742TIP3   OH229784   5.648   5.083   1.064 -0.0907  0.4850  0.5477
 2742TIP3    H129785   5.594   5.113   0.991 -0.9867  0.0544  1.0142
 2742TIP3    H229786   5.733   5.125   1.050 -0.3637  0.7049 -0.5258
 2743TIP3   OH229787   1.273   4.755   0.852  0.0408 -0.2738 -0.4672
 2743TIP3    H129788   1.253   4.822   0.787  1.0984  0.4307 -0.0879
 2743TIP3    H229789   1.340   4.795   0.908 -0.7232 -0.9082  0.9697
 2744TIP3   OH229790   6.970   3.809   6.427 -0.1255 -0.2928  0.3797
 2744TIP3    H129791   6.973   3.714   6.419  2.9103 -0.3526  1.2582
 2744TIP3    H229792   6.971   3.841   6.337 -0.1096 -1.0843  0.0945
 2745TIP3   OH229793   0.425   5.312   6.798  0.5781 -0.6426  0.2299
 2745TIP3    H129794   0.444   5.384   6.858  0.4588 -1.2680  1.0301
 2745TIP3    H229795   0.507   5.262   6.793  0.8414 -0.1364 -0.7830
 2746TIP3   OH229796   6.322   0.541   1.813  0.0423 -0.6210  0.0563
 2746TIP3    H129797   6.263   0.504   1.879 -0.3541 -2.4859 -1.2281
 2746TIP3    H229798   6.318   0.477   1.741  3.2836 -0.5720 -0.2820
 2747TIP3   OH229799   4.582   0.769   1.655  0.0148 -0.1522 -0.0459
 2747TIP3    H129800   4.620   0.686   1.684  1.4945  0.0593 -1.2258
 2747TIP3    H229801   4.644   0.835   1.684 -0.8645  0.4964  0.3836
 2748TIP3   OH229802   0.571   2.785   7.726 -0.3310  0.2670 -0.5492
 2748TIP3    H129803   0.531   2.733   7.657 -0.4978  2.0478 -1.8687
 2748TIP3    H229804   0.653   2.740   7.746 -1.3385 -1.5225 -0.2545
 2749TIP3   OH229805   6.021   6.742   0.877  0.0514 -0.1155  0.1298
 2749TIP3    H129806   6.097   6.777   0.831  1.0365 -0.4679  1.4561
 2749TIP3    H229807   5.956   6.728   0.808  0.0266  3.1112 -0.6343
 2750TIP3   OH229808   0.792   1.457   0.533 -0.4485  0.1088  0.2336
 2750TIP3    H129809   0.740   1.451   0.453 -0.1319  2.2534 -0.1689
 2750TIP3    H229810   0.729   1.478   0.602 -0.1204  3.6983 -0.4155
 2751TIP3   OH229811   0.565   3.784   6.526 -0.6219 -0.1145 -0.9242
 2751TIP3    H129812   0.616   3.777   6.445  1.5553 -1.5450  0.4496
 2751TIP3    H229813   0.567   3.696   6.563  2.4363  1.2502  2.8365
 2752TIP3   OH229814   4.163   5.631   2.391  0.0357  0.0328 -0.1926
 2752TIP3    H129815   4.159   5.692   2.318  1.7224 -0.4919 -0.7733
 2752TIP3    H229816   4.251   5.642   2.427  0.2974 -1.8414 -0.1493
 2753TIP3   OH229817   6.925   2.791   1.524  0.0424 -0.4903  0.2092
 2753TIP3    H129818   6.873   2.863   1.487 -0.5327 -0.8698  0.2505
 2753TIP3    H229819   7.016   2.820   1.516 -0.0102 -0.7760 -2.0181
 2754TIP3   OH229820   3.512   0.356   7.501  0.4291  0.0803 -0.2512
 2754TIP3    H129821   3.576   0.319   7.561 -0.1988 -0.1492  0.2865
 2754TIP3    H229822   3.463   0.281   7.468 -1.0106  0.4145  1.0269
 2755TIP3   OH229823   2.364   2.086   1.778  0.3284  0.0601 -0.0879
 2755TIP3    H129824   2.356   2.144   1.854 -0.8695 -0.8363  0.5063
 2755TIP3    H229825   2.313   2.008   1.802 -2.4185  0.8105 -2.8450
 2756TIP3   OH229826   3.376   1.879   5.941 -0.3488  0.8397 -0.2061
 2756TIP3    H129827   3.373   1.785   5.924  0.3395  0.5856  0.9351
 2756TIP3    H229828   3.460   1.893   5.985 -0.7423  1.8808  0.2555
 2757TIP3   OH229829   6.359   3.030   1.177  0.2818 -0.1017 -0.6235
 2757TIP3    H129830   6.355   2.954   1.120  0.4850 -0.5447 -0.0618
 2757TIP3    H229831   6.307   3.004   1.254  1.3783 -0.1526  0.1173
 2758TIP3   OH229832   6.368   3.259   0.541 -0.0256 -0.7391  0.1973
 2758TIP3    H129833   6.418   3.337   0.568  0.0382 -1.5188  2.4817
 2758TIP3    H229834   6.425   3.217   0.476  1.3331 -0.4550  1.1474
 2759TIP3   OH229835   1.206   6.191   7.677  0.1833  0.2181 -0.2619
 2759TIP3    H129836   1.261   6.118   7.648 -0.7077 -1.0853  1.1864
 2759TIP3    H229837   1.243   6.218   7.761 -0.5677  0.2389  0.0690
 2760TIP3   OH229838   4.090   0.329   1.197 -0.2008  0.2868  0.3116
 2760TIP3    H129839   4.116   0.237   1.204 -0.2514  0.2510  0.0561
 2760TIP3    H229840   4.022   0.340   1.263 -1.4398 -0.3133 -0.8222
 2761TIP3   OH229841   1.927   6.622   1.248 -0.1125  0.3168  0.4330
 2761TIP3    H129842   1.955   6.691   1.187 -0.5019  1.8716  1.9462
 2761TIP3    H229843   1.905   6.668   1.328 -0.3281 -1.6068  1.5399
 2762TIP3   OH229844   3.926   6.487   7.808  0.3566  0.2999 -0.1421
 2762TIP3    H129845   3.889   6.575   7.815  0.8077  0.5498 -0.8347
 2762TIP3    H229846   3.854   6.434   7.774  0.0965  0.3986  0.2409
 2763TIP3   OH229847   1.686   0.544   7.994 -0.3036  0.0444 -0.1556
 2763TIP3    H129848   1.647   0.474   8.046  1.0125  0.1754  1.0663
 2763TIP3    H229849   1.620   0.613   7.994 -0.5650 -0.1873  0.8534
 2764TIP3   OH229850   5.072   0.331   6.389  0.1083 -0.0027  0.3132
 2764TIP3    H129851   4.990   0.285   6.369 -0.2295  0.7179 -0.0164
 2764TIP3    H229852   5.131   0.308   6.317  0.0866 -0.2529  0.3734
 2765TIP3   OH229853   6.222   5.780   6.840  0.0731 -0.1000  0.2193
 2765TIP3    H129854   6.188   5.857   6.794  2.1173  2.5769  2.8771
 2765TIP3    H229855   6.153   5.756   6.901  0.6628  1.9115  1.7896
 2766TIP3   OH229856   4.719   6.119   7.472  0.1011 -0.3930 -0.1734
 2766TIP3    H129857   4.702   6.134   7.565 -2.0292 -0.8444 -0.4481
 2766TIP3    H229858   4.743   6.205   7.438 -0.5335  0.0687  0.5211
 2767TIP3   OH229859   2.376   1.925   6.629 -0.0527 -0.8993 -0.6812
 2767TIP3    H129860   2.318   1.945   6.703 -1.7087  0.1051 -2.1592
 2767TIP3    H229861   2.459   1.901   6.669 -0.6357  0.4315  1.4886
 2768TIP3   OH229862   3.164   2.211   6.630 -0.1361  0.0206  0.2969
 2768TIP3    H129863   3.090   2.260   6.667  1.1963  1.8940  0.6107
 2768TIP3    H229864   3.160   2.230   6.536  1.4279  2.3865  0.6179
 2769TIP3   OH229865   3.070   1.663   8.014 -0.1507 -0.1408  0.8091
 2769TIP3    H129866   2.986   1.698   8.044  0.4395  2.0144  0.0871
 2769TIP3    H229867   3.055   1.569   8.005 -2.0942  0.0125  1.9494
 2770TIP3   OH229868   5.547   2.039   7.641 -0.1214 -0.1248 -0.5536
 2770TIP3    H129869   5.606   2.115   7.638  0.4082 -0.4924  0.3517
 2770TIP3    H229870   5.606   1.963   7.640 -0.5996 -0.5036 -0.1368
 2771TIP3   OH229871   1.005   4.175   0.152  0.7863 -0.2625  0.0047
 2771TIP3    H129872   0.988   4.267   0.176 -3.4163 -0.5945 -0.9493
 2771TIP3    H229873   0.996   4.127   0.234 -1.1969 -0.1641 -0.1158
 2772TIP3   OH229874   4.647   6.786   6.816  0.1802  0.2508 -0.0124
 2772TIP3    H129875   4.683   6.851   6.876  0.0621  0.1553  0.1619
 2772TIP3    H229876   4.706   6.788   6.741 -0.2286  1.0785 -0.3230
 2773TIP3   OH229877   3.758   6.440   7.467  0.0388 -0.0046 -0.0648
 2773TIP3    H129878   3.837   6.480   7.431 -0.4765 -0.2418 -1.5220
 2773TIP3    H229879   3.717   6.397   7.393 -1.3069 -0.1537  0.7299
 2774TIP3   OH229880   5.022   0.383   7.397 -0.3595  0.3189  0.5152
 2774TIP3    H129881   5.002   0.291   7.418  1.3501 -0.0740  0.5258
 2774TIP3    H229882   5.038   0.424   7.482 -0.0857  0.3666  0.4408
 2775TIP3   OH229883   6.513   4.270   0.759 -0.2078  0.4530 -0.1831
 2775TIP3    H129884   6.515   4.179   0.787  1.5932  0.8438  1.1584
 2775TIP3    H229885   6.437   4.276   0.700  1.8886 -2.8298 -3.6258
 2776TIP3   OH229886   0.975   6.768   0.209 -0.3039  0.0976 -0.2238
 2776TIP3    H129887   0.937   6.712   0.141  0.1217 -0.5962  0.0977
 2776TIP3    H229888   0.902   6.819   0.242 -1.0820 -1.5766  0.7378
 2777TIP3   OH229889   1.533   3.415   1.849  0.2887 -0.2541 -0.5871
 2777TIP3    H129890   1.559   3.473   1.778 -0.1101 -2.0206 -2.2428
 2777TIP3    H229891   1.490   3.341   1.806 -1.2532 -0.7420  1.5826
 2778TIP3   OH229892   5.870   3.602   1.496  0.3239 -0.2386  0.0601
 2778TIP3    H129893   5.883   3.633   1.586 -1.7658  0.1487  0.2865
 2778TIP3    H229894   5.794   3.545   1.501  0.0945 -0.1098 -1.4891
 2779TIP3   OH229895   2.443   6.271   7.710  0.3018  0.0356  0.5506
 2779TIP3    H129896   2.486   6.302   7.790  0.4537 -2.1845  1.4048
 2779TIP3    H229897   2.513   6.226   7.662  0.1128  1.0066 -0.6851
 2780TIP3   OH229898   4.192   5.105   8.266 -0.2484  0.1956  0.2155
 2780TIP3    H129899   4.171   5.190   8.229 -4.4639 -0.7939 -0.1270
 2780TIP3    H229900   4.246   5.062   8.199  1.1895  2.1562  0.0175
 2781TIP3   OH229901   6.514   3.210   6.240  0.3014 -0.1562 -0.3180
 2781TIP3    H129902   6.453   3.214   6.314 -1.0441 -0.7725 -1.3511
 2781TIP3    H229903   6.501   3.122   6.203 -1.6843  1.2425 -3.3739
 2782TIP3   OH229904   0.455   0.935   0.668 -0.1939 -0.1832  0.0301
 2782TIP3    H129905   0.444   1.023   0.705  0.9054 -0.2070  0.4473
 2782TIP3    H229906   0.520   0.946   0.599 -0.9796 -0.4585 -0.7723
 2783TIP3   OH229907   2.422   4.969   0.165  0.0309 -0.4751  0.3661
 2783TIP3    H129908   2.462   4.976   0.079 -0.7630  0.8816  0.0791
 2783TIP3    H229909   2.495   4.955   0.225  0.7981  0.5479 -0.3006
 2784TIP3   OH229910   4.313   4.132   2.083 -0.1557 -0.5114 -0.3349
 2784TIP3    H129911   4.298   4.063   2.148 -1.2339  0.2316  0.2289
 2784TIP3    H229912   4.388   4.181   2.117 -1.4322  0.6026  1.0278
 2785TIP3   OH229913   6.239   6.717   6.022  0.0789  0.0571  0.2701
 2785TIP3    H129914   6.303   6.679   5.962  0.9599  0.3604  1.0078
 2785TIP3    H229915   6.154   6.697   5.981  0.6409  0.0566 -0.9489
 2786TIP3   OH229916   2.715   0.065   7.941 -0.0663 -0.2463 -0.2363
 2786TIP3    H129917   2.664   0.062   8.022 -0.0203 -0.5562 -0.2158
 2786TIP3    H229918   2.800   0.028   7.965  0.9196  2.1660  0.2519
 2787TIP3   OH229919   5.152   0.399   6.653  0.6854  0.8918 -0.3050
 2787TIP3    H129920   5.132   0.373   6.563  0.6395  1.6081 -0.5052
 2787TIP3    H229921   5.146   0.318   6.703  1.0550  0.4216 -1.0037
 2788TIP3   OH229922   1.295   2.570   7.674 -0.0764 -0.0635  0.3498
 2788TIP3    H129923   1.237   2.510   7.629 -1.5423  0.4918  1.4198
 2788TIP3    H229924   1.344   2.515   7.734 -1.8474 -0.1768  1.7738
 2789TIP3   OH229925   4.120   6.249   6.092  0.2825  0.2935  0.0838
 2789TIP3    H129926   4.065   6.318   6.128 -1.4955 -1.8838  1.7526
 2789TIP3    H229927   4.159   6.206   6.168  1.1081 -0.7606 -0.8943
 2790TIP3   OH229928   1.426   4.108   0.339 -0.1201 -0.2537 -0.1353
 2790TIP3    H129929   1.518   4.133   0.349 -0.3197  0.5234 -0.1778
 2790TIP3    H229930   1.385   4.136   0.421 -0.5506  0.4961 -0.5997
 2791TIP3   OH229931   4.490   0.872   1.410  0.4286  0.0888 -0.0052
 2791TIP3    H129932   4.504   0.835   1.497  1.2915 -0.3000 -0.3036
 2791TIP3    H229933   4.552   0.944   1.404  1.5200 -0.8906 -0.8849
 2792TIP3   OH229934   4.491   4.485   7.745  0.0503 -0.1761 -0.8776
 2792TIP3    H129935   4.428   4.556   7.731  0.6058  0.5432  0.1257
 2792TIP3    H229936   4.451   4.430   7.812  0.4973  0.3247 -0.1814
 2793TIP3   OH229937   2.299   2.445   7.556  0.2203  0.5087 -0.0515
 2793TIP3    H129938   2.330   2.513   7.496  0.1837  0.7415  0.1862
 2793TIP3    H229939   2.274   2.372   7.500 -0.6470  1.0521 -0.3907
 2794TIP3   OH229940   3.738   4.540   2.418 -0.0296 -0.2616 -0.2090
 2794TIP3    H129941   3.808   4.603   2.403  1.1651 -1.0489  1.6458
 2794TIP3    H229942   3.715   4.509   2.331  3.1431 -1.2086 -0.8562
 2795TIP3   OH229943   3.465   3.068   1.813  0.1314 -0.5819  0.8810
 2795TIP3    H129944   3.410   3.091   1.888 -1.1339  0.6006 -0.3444
 2795TIP3    H229945   3.445   2.976   1.796 -0.4031 -0.5544  1.3350
 2796TIP3   OH229946   5.346   0.939   7.550 -0.1153 -0.3708 -0.3970
 2796TIP3    H129947   5.418   1.002   7.562 -0.8004  0.3440  0.0440
 2796TIP3    H229948   5.277   0.990   7.508 -1.4358 -0.2701  1.7881
 2797TIP3   OH229949   2.114   4.000   0.434  0.3617 -0.1971 -0.0714
 2797TIP3    H129950   2.094   3.912   0.401  0.5744 -0.7896  1.3274
 2797TIP3    H229951   2.051   4.057   0.389  0.4684 -0.9880 -1.2832
 2798TIP3   OH229952   2.950   3.117   1.011 -0.4741  0.3585  0.2341
 2798TIP3    H129953   2.960   3.098   0.917 -0.7684  0.5530  0.1588
 2798TIP3    H229954   2.998   3.199   1.023 -0.3995  0.3102  0.2610
 2799TIP3   OH229955   5.336   0.091   7.598  0.3461 -0.3248  0.2124
 2799TIP3    H129956   5.375   0.025   7.542  1.5254 -1.0037  1.7630
 2799TIP3    H229957   5.306   0.159   7.538  0.1802 -1.7001 -1.3254
 2800TIP3   OH229958   6.609   6.281   7.829 -0.0821  0.4174  0.0348
 2800TIP3    H129959   6.598   6.204   7.884  0.3866  0.8592  0.7652
 2800TIP3    H229960   6.578   6.354   7.883 -0.0888  0.7996 -0.4765
 2801TIP3   OH229961   2.156   3.244   2.097  0.3036  0.9108 -0.0471
 2801TIP3    H129962   2.070   3.241   2.140  0.1506 -0.3304 -0.4047
 2801TIP3    H229963   2.177   3.153   2.079  3.1692  0.8245  2.8513
 2802TIP3   OH229964   6.575   5.924   8.240  0.1440  0.4866  0.0595
 2802TIP3    H129965   6.517   5.994   8.272  0.2152  0.4765  0.2147
 2802TIP3    H229966   6.533   5.892   8.161 -0.9233 -0.6225  1.0320
 2803TIP3   OH229967   6.969   1.901   2.038 -0.2891 -0.1554 -0.3033
 2803TIP3    H129968   7.041   1.935   1.984  0.5268  1.3910  1.6298
 2803TIP3    H229969   6.950   1.814   2.001  0.2736  0.7476 -2.9528
 2804TIP3   OH229970   6.033   3.183   1.238 -0.6221 -0.2826 -0.0637
 2804TIP3    H129971   5.947   3.218   1.215 -1.2388 -1.4934  0.3116
 2804TIP3    H229972   6.018   3.089   1.250  0.6534 -0.4313  0.5174
 2805TIP3   OH229973   5.575   3.700   6.666  0.2787  0.1153  0.1204
 2805TIP3    H129974   5.581   3.788   6.702  1.9274  0.8583 -1.7878
 2805TIP3    H229975   5.657   3.687   6.619 -0.8641 -1.5669 -1.5747
 2806TIP3   OH229976   1.276   6.100   6.092  0.0380 -0.2462  0.1014
 2806TIP3    H129977   1.193   6.073   6.053  0.7357  1.4112 -2.8983
 2806TIP3    H229978   1.343   6.064   6.034  1.4256 -0.9256  2.0279
 2807TIP3   OH229979   5.693   2.341   1.271  0.1182  0.4725  0.1188
 2807TIP3    H129980   5.618   2.312   1.219 -0.1050 -1.2225  1.3047
 2807TIP3    H229981   5.665   2.425   1.308 -0.3678  0.8667 -1.1003
 2808TIP3   OH229982   5.804   1.800   2.150  0.2806  0.2357 -0.2591
 2808TIP3    H129983   5.810   1.732   2.083  1.6002 -1.8020  1.7808
 2808TIP3    H229984   5.888   1.845   2.146  0.3443  0.1397 -0.0094
 2809TIP3   OH229985   1.021   1.149   0.956  0.0578  0.2787 -0.0902
 2809TIP3    H129986   0.980   1.143   0.869  1.0589  1.0065 -0.6356
 2809TIP3    H229987   0.957   1.110   1.015 -0.4958 -0.5859 -1.2035
 2810TIP3   OH229988   1.070   6.310   0.680  0.3083  0.5498  0.5902
 2810TIP3    H129989   1.112   6.245   0.736 -1.4462 -0.6237  0.6023
 2810TIP3    H229990   1.138   6.377   0.667  3.4193 -2.6685 -1.9838
 2811TIP3   OH229991   5.806   2.409   8.088  0.3468  0.7498 -0.4573
 2811TIP3    H129992   5.741   2.414   8.018 -0.3271 -0.0655  0.0993
 2811TIP3    H229993   5.865   2.482   8.071 -0.1500  0.9119 -1.5364
 2812TIP3   OH229994   0.686   6.321   7.202 -0.3700 -0.1263 -0.2025
 2812TIP3    H129995   0.612   6.381   7.194 -0.7261 -0.6347 -0.7666
 2812TIP3    H229996   0.763   6.378   7.212 -0.7740  0.4068 -0.1309
 2813TIP3   OH229997   0.074   5.761   8.105  0.1260 -0.0246  0.2748
 2813TIP3    H129998   0.130   5.691   8.139  1.2008  0.3418 -0.6840
 2813TIP3    H229999   0.134   5.834   8.090 -0.6032  0.3552 -0.8711
 2814TIP3   OH230000   5.310   4.953   1.882  0.7425  0.0362  0.1429
 2814TIP3    H130001   5.313   4.939   1.787 -0.4046  0.2101  0.0756
 2814TIP3    H230002   5.360   5.034   1.895  1.1436 -0.1393 -0.2789
 2815TIP3   OH230003   4.185   4.124   1.475  0.0003 -0.3513 -0.8270
 2815TIP3    H130004   4.115   4.072   1.513 -0.5488  1.7807  1.2722
 2815TIP3    H230005   4.264   4.096   1.522  0.0037 -0.4876 -0.9139
 2816TIP3   OH230006   0.581   1.129   7.547  0.1204  0.1391  0.0240
 2816TIP3    H130007   0.652   1.066   7.539 -0.4064 -0.1669 -4.1871
 2816TIP3    H230008   0.518   1.087   7.606  1.2351 -1.7596 -0.0504
 2817TIP3   OH230009   6.287   0.999   1.624  0.6667  0.1402 -0.2240
 2817TIP3    H130010   6.311   0.946   1.548 -1.0515  0.8261 -1.2776
 2817TIP3    H230011   6.342   1.077   1.617  0.9143 -0.0507 -0.4367
 2818TIP3   OH230012   6.426   3.877   7.337  0.0690  0.4185  0.3511
 2818TIP3    H130013   6.499   3.892   7.397 -1.6989  1.0598  2.4930
 2818TIP3    H230014   6.444   3.934   7.263  0.9964  1.7392  1.5368
 2819TIP3   OH230015   5.097   4.472   1.647  0.2298 -0.1506  0.1667
 2819TIP3    H130016   5.162   4.440   1.710 -0.6602  0.6922  1.5738
 2819TIP3    H230017   5.149   4.504   1.573  1.3134 -0.9717  0.5389
 2820TIP3   OH230018   4.357   2.298   8.070 -0.4346  0.3500 -0.2691
 2820TIP3    H130019   4.298   2.317   8.143 -0.1343  1.3164 -0.2606
 2820TIP3    H230020   4.320   2.345   7.996 -1.2569 -1.3812 -1.0024
 2821TIP3   OH230021   1.873   3.294   1.385 -0.0990  0.1631 -0.0258
 2821TIP3    H130022   1.897   3.254   1.468  0.3249 -1.4244 -0.8692
 2821TIP3    H230023   1.954   3.296   1.335 -0.5607  0.0528 -0.8025
 2822TIP3   OH230024   2.139   6.706   0.867 -0.2627 -0.2739 -0.3627
 2822TIP3    H130025   2.142   6.777   0.931 -0.0684 -1.4401  0.9845
 2822TIP3    H230026   2.226   6.705   0.827 -0.9359  1.6314 -2.0383
 2823TIP3   OH230027   0.210   4.336   1.041  1.0901 -0.1603  0.7106
 2823TIP3    H130028   0.206   4.367   1.132  0.1289  0.4856  0.4586
 2823TIP3    H230029   0.158   4.256   1.042 -1.1906  1.2269  0.2181
 2824TIP3   OH230030   3.538   6.684   0.561 -0.4719 -0.3885 -0.4938
 2824TIP3    H130031   3.529   6.654   0.652  0.3611  0.5559 -0.0803
 2824TIP3    H230032   3.454   6.725   0.542 -0.5603 -0.3531 -0.0477
 2825TIP3   OH230033   5.887   6.607   7.859 -0.1666 -0.5088  0.3330
 2825TIP3    H130034   5.806   6.566   7.830  0.2504 -0.5929 -0.7527
 2825TIP3    H230035   5.860   6.693   7.891 -0.4928  0.2381 -1.7811
 2826TIP3   OH230036   4.116   4.320   7.349 -0.7990 -0.0707  0.6989
 2826TIP3    H130037   4.125   4.378   7.273 -1.2121 -0.6303  0.2147
 2826TIP3    H230038   4.201   4.277   7.356 -1.0567 -0.7172 -0.0318
 2827TIP3   OH230039   6.616   5.495   0.010 -0.0692  0.3059 -0.0877
 2827TIP3    H130040   6.589   5.410   0.044 -0.0635  1.3249  2.8379
 2827TIP3    H230041   6.560   5.558   0.057 -0.5370  1.9330 -2.6295
 2828TIP3   OH230042   4.902   4.169   1.495 -0.3607  0.4785 -0.4407
 2828TIP3    H130043   4.975   4.125   1.451 -0.8949  0.3856 -1.2400
 2828TIP3    H230044   4.898   4.127   1.581 -0.4816 -0.6222 -0.9720
 2829TIP3   OH230045   6.573   3.317   0.913  0.1331  0.2428 -0.1805
 2829TIP3    H130046   6.632   3.390   0.934 -0.6590  0.9833 -0.4711
 2829TIP3    H230047   6.583   3.257   0.987  0.3445  0.9355  0.3707
 2830TIP3   OH230048   1.392   6.219   7.943 -0.5966  0.4152  0.0754
 2830TIP3    H130049   1.421   6.132   7.971  2.4113  0.5752 -2.1446
 2830TIP3    H230050   1.447   6.280   7.992  0.6911  0.8426 -1.8104
 2831TIP3   OH230051   0.716   3.307   7.500 -0.2711  0.1879  0.5366
 2831TIP3    H130052   0.746   3.331   7.412  0.3658  1.2804  1.0351
 2831TIP3    H230053   0.698   3.213   7.494 -1.3054  0.4563 -1.0531
 2832TIP3   OH230054   2.036   3.998   7.501  0.0005 -0.5806 -0.5370
 2832TIP3    H130055   2.073   4.086   7.507 -0.0850 -0.5618 -0.2687
 2832TIP3    H230056   1.943   4.009   7.521  0.2827 -0.9551  1.0722
 2833TIP3   OH230057   5.148   3.981   1.715  0.2856  0.3130  0.2562
 2833TIP3    H130058   5.062   3.975   1.674 -0.9919 -1.1235  2.8682
 2833TIP3    H230059   5.144   4.060   1.768 -0.8141 -1.3969  2.9635
 2834TIP3   OH230060   3.252   5.026   1.254  0.1795 -0.7801 -0.5739
 2834TIP3    H130061   3.177   5.024   1.195  0.4983 -0.6008 -0.9877
 2834TIP3    H230062   3.298   4.944   1.237 -0.4369 -1.3521  0.3720
 2835TIP3   OH230063   6.766   6.801   1.216  0.2129  0.3481 -0.5167
 2835TIP3    H130064   6.839   6.858   1.192 -0.2632  0.6900 -1.1850
 2835TIP3    H230065   6.703   6.860   1.257  0.0028  0.1871 -0.6071
 2836TIP3   OH230066   2.075   5.970   7.501 -0.0383 -0.2502 -0.2570
 2836TIP3    H130067   2.160   5.984   7.544 -0.0987 -0.4160 -0.0831
 2836TIP3    H230068   2.034   6.057   7.501 -0.4845 -0.4364  0.9777
 2837TIP3   OH230069   1.112   5.186   1.496 -0.5346  0.0934  0.3018
 2837TIP3    H130070   1.054   5.191   1.572 -0.3379 -2.1489  0.6866
 2837TIP3    H230071   1.181   5.126   1.523  0.4410  0.5372 -1.1072
 2838TIP3   OH230072   2.280   6.779   6.672 -0.4495  0.4710  0.0344
 2838TIP3    H130073   2.371   6.808   6.664 -0.5196  0.3982 -1.1042
 2838TIP3    H230074   2.237   6.812   6.594 -1.0008 -0.9653 -0.3018
 2839TIP3   OH230075   4.935   1.273   8.012  0.2158 -0.2172  0.3180
 2839TIP3    H130076   4.997   1.290   8.084  0.0946  3.0154 -0.1971
 2839TIP3    H230077   4.852   1.255   8.056 -0.0664  2.5739  1.1323
 2840TIP3   OH230078   1.114   6.280   7.020 -0.0961 -0.5310 -0.4032
 2840TIP3    H130079   1.191   6.249   6.973 -0.5472 -0.3652 -1.2824
 2840TIP3    H230080   1.138   6.276   7.113  0.2953 -2.2815 -0.5471
 2841TIP3   OH230081   3.758   3.789   7.066  0.0112  0.1284  0.4599
 2841TIP3    H130082   3.699   3.830   7.004 -0.6992 -1.7002 -0.1449
 2841TIP3    H230083   3.735   3.828   7.151  0.0118  1.6035 -0.2022
 2842TIP3   OH230084   5.163   5.310   0.733  0.0208  0.0482 -0.4967
 2842TIP3    H130085   5.187   5.315   0.641  1.6896  1.9835 -0.0374
 2842TIP3    H230086   5.073   5.343   0.737 -0.3837 -0.8782 -1.4977
 2843TIP3   OH230087   2.202   1.392   1.265 -0.2757 -0.1377  0.0236
 2843TIP3    H130088   2.253   1.456   1.215 -0.4668  0.2272  0.2910
 2843TIP3    H230089   2.112   1.423   1.258 -0.2441  0.2442  1.0618
 2844TIP3   OH230090   3.809   5.736   8.078 -0.1516  0.0800  0.2822
 2844TIP3    H130091   3.775   5.813   8.123 -0.8585 -0.0626  0.0028
 2844TIP3    H230092   3.825   5.765   7.988  0.9631  0.2793  0.5208
 2845TIP3   OH230093   4.757   2.511   1.209 -0.1069  0.1184  0.7775
 2845TIP3    H130094   4.666   2.528   1.187  0.0057 -1.5182 -1.2392
 2845TIP3    H230095   4.762   2.417   1.223  1.0837  0.3268  2.0492
 2846TIP3   OH230096   2.047   1.522   0.392  0.5943  0.1898  0.1506
 2846TIP3    H130097   2.001   1.481   0.320  1.0263 -1.7625  0.9349
 2846TIP3    H230098   1.981   1.529   0.462  0.4474  1.1601 -0.0584
 2847TIP3   OH230099   0.913   3.010   8.184 -0.6910 -0.0028  0.1866
 2847TIP3    H130100   0.842   3.015   8.120 -0.8250 -0.1332  0.3246
 2847TIP3    H230101   0.882   2.947   8.249 -0.1070 -0.7052 -0.1972
 2848TIP3   OH230102   2.525   5.764   0.285 -0.4884  0.3565 -0.2949
 2848TIP3    H130103   2.441   5.799   0.257 -0.4379 -0.0654 -0.9809
 2848TIP3    H230104   2.546   5.696   0.221 -0.1061 -0.2351  0.4372
 2849TIP3   OH230105   3.246   3.100   0.585  0.4000  0.4751 -0.5907
 2849TIP3    H130106   3.236   3.141   0.671  1.2221 -0.3201 -0.0971
 2849TIP3    H230107   3.179   3.032   0.583  0.7663  0.0990 -0.3240
 2850TIP3   OH230108   6.362   3.825   6.079  0.3466  0.1864 -0.1513
 2850TIP3    H130109   6.370   3.919   6.067 -0.2743  0.2236 -0.2710
 2850TIP3    H230110   6.268   3.807   6.073  0.3146 -0.2515  1.2971
 2851TIP3   OH230111   3.240   1.083   1.055  0.5044  0.4367  0.5876
 2851TIP3    H130112   3.239   0.990   1.080  0.0684  0.0736 -0.6686
 2851TIP3    H230113   3.148   1.109   1.056  0.6108  0.7994  0.7522
 2852TIP3   OH230114   5.391   1.806   1.688  0.3406 -0.6721  0.3118
 2852TIP3    H130115   5.390   1.732   1.749  1.9311  0.3426  1.6439
 2852TIP3    H230116   5.328   1.868   1.725 -0.5858 -1.1026 -0.5060
 2853TIP3   OH230117   2.707   2.149   7.265 -0.0091  0.2491  0.3863
 2853TIP3    H130118   2.791   2.194   7.263  0.6373 -0.8821  0.8608
 2853TIP3    H230119   2.703   2.101   7.182  0.3304 -0.5640  0.8263
 2854TIP3   OH230120   1.851   6.041   6.780  0.1607  0.3298  0.1687
 2854TIP3    H130121   1.785   6.109   6.768  0.0234  0.1110 -0.3693
 2854TIP3    H230122   1.883   6.053   6.869 -0.6267  0.4122  0.4448
 2855TIP3   OH230123   7.022   3.795   8.107  0.0799 -0.4869  0.3615
 2855TIP3    H130124   7.006   3.884   8.139  0.4389 -0.4853  0.5373
 2855TIP3    H230125   7.098   3.765   8.156 -1.1418 -1.5881  1.7044
 2856TIP3   OH230126   2.287   0.983   6.325  0.3842 -0.0055  0.3050
 2856TIP3    H130127   2.227   0.976   6.250 -1.3985  1.9098  1.4479
 2856TIP3    H230128   2.344   0.906   6.317 -2.7345 -2.4942 -0.4170
 2857TIP3   OH230129   3.597   4.381   7.667 -0.8034 -0.3618  0.5548
 2857TIP3    H130130   3.623   4.446   7.732  0.4983  0.1335 -0.4151
 2857TIP3    H230131   3.680   4.348   7.631 -1.4768 -0.7278 -0.7344
 2858TIP3   OH230132   3.450   0.851   6.086  0.2507 -0.6419 -0.0473
 2858TIP3    H130133   3.523   0.805   6.045  0.9474  0.8550 -0.5638
 2858TIP3    H230134   3.373   0.822   6.039  0.7940 -0.5403 -1.0224
 2859TIP3   OH230135   6.847   2.155   7.658  0.1281 -0.0631  0.0349
 2859TIP3    H130136   6.875   2.197   7.739  0.0865 -0.2787  0.1609
 2859TIP3    H230137   6.911   2.184   7.593 -0.3159  0.7893 -0.0448
 2860TIP3   OH230138   6.874   4.039   8.214  0.1587 -0.4007 -0.0583
 2860TIP3    H130139   6.798   4.003   8.169  0.1566 -0.0434 -0.3456
 2860TIP3    H230140   6.844   4.052   8.304 -0.3257  0.3457 -0.3211
 2861TIP3   OH230141   3.930   1.591   6.568 -0.4031 -0.0401 -0.4382
 2861TIP3    H130142   3.955   1.499   6.557  4.5133  1.0666 -1.1281
 2861TIP3    H230143   3.899   1.619   6.482  0.9331 -0.4431 -1.0785
 2862TIP3   OH230144   3.490   3.838   6.353 -0.2917 -0.5915  0.0488
 2862TIP3    H130145   3.404   3.856   6.390  0.0441  0.8352  0.2113
 2862TIP3    H230146   3.528   3.771   6.409 -1.3620 -1.3762 -0.1444
 2863TIP3   OH230147   3.830   0.054   5.502  0.2763 -0.2224 -0.4913
 2863TIP3    H130148   3.923   0.069   5.519  0.1758  1.1234 -1.0157
 2863TIP3    H230149   3.798   0.139   5.471 -1.6683  0.0702  1.9858
 2864TIP3   OH230150   3.853   4.066   7.715  0.1480  0.1534  0.0397
 2864TIP3    H130151   3.902   4.149   7.709  1.4693 -0.6298 -0.3534
 2864TIP3    H230152   3.852   4.046   7.809  0.9316 -0.0096  0.0207
 2865TIP3   OH230153   6.546   1.237   7.815 -0.2757  0.5695  0.1250
 2865TIP3    H130154   6.554   1.167   7.750  1.0774  0.5105  0.3083
 2865TIP3    H230155   6.531   1.316   7.763  1.0479  0.5655 -0.3257
 2866TIP3   OH230156   6.506   6.251   7.084  0.6261  0.3282 -0.0777
 2866TIP3    H130157   6.599   6.234   7.074  0.9614  0.2268  2.6685
 2866TIP3    H230158   6.464   6.175   7.043  1.8193 -0.6774  0.4847
 2867TIP3   OH230159   1.444   6.166   0.004 -0.2714  0.1648  0.3955
 2867TIP3    H130160   1.425   6.094  -0.055 -1.2613  0.8077 -0.1152
 2867TIP3    H230161   1.538   6.178  -0.000 -0.2009 -0.5595 -0.1455
 2868TIP3   OH230162   5.716   5.391   7.833 -0.3871 -0.0500 -0.5074
 2868TIP3    H130163   5.784   5.359   7.773  0.9597  0.9758  0.4017
 2868TIP3    H230164   5.691   5.477   7.798  2.0943  1.6602  1.5159
 2869TIP3   OH230165   6.011   3.811   6.487  0.1063  0.3347  0.2133
 2869TIP3    H130166   6.098   3.777   6.466 -0.3411 -0.6079 -0.1621
 2869TIP3    H230167   6.007   3.897   6.445 -0.0479 -0.6607 -1.9582
 2870TIP3   OH230168   3.871   6.412   7.086  0.2229 -0.3915 -0.0824
 2870TIP3    H130169   3.864   6.321   7.115 -0.2178 -0.1286  0.6567
 2870TIP3    H230170   3.964   6.432   7.091  0.4882 -1.1377 -1.3421
 2871TIP3   OH230171   3.103   2.128   8.032 -0.1418  0.1927 -0.3794
 2871TIP3    H130172   3.168   2.178   7.983  1.3808 -0.5759  0.7678
 2871TIP3    H230173   3.114   2.038   8.000 -0.4192  0.0067  0.0445
 2872TIP3   OH230174   3.497   2.405   6.417  0.3408  0.4828 -0.0938
 2872TIP3    H130175   3.569   2.432   6.360  1.0346  2.4127  1.5534
 2872TIP3    H230176   3.507   2.311   6.426  1.2759  0.3901 -1.6738
 2873TIP3   OH230177   0.164   3.480   6.989  0.1767 -0.0715  0.6116
 2873TIP3    H130178   0.205   3.395   6.978  1.4631  0.5414  0.4015
 2873TIP3    H230179   0.233   3.543   6.967 -1.7921  1.0496 -3.0734
 2874TIP3   OH230180   4.966   1.005   6.317  0.1879  0.4975 -0.1667
 2874TIP3    H130181   4.885   0.980   6.271  1.7033 -1.3814 -2.0342
 2874TIP3    H230182   5.016   0.923   6.322  2.0978  1.6624  0.6701
 2875TIP3   OH230183   2.846   2.553   7.548 -0.2298 -0.3177  0.1864
 2875TIP3    H130184   2.752   2.571   7.549 -0.7090 -2.5413 -0.3158
 2875TIP3    H230185   2.855   2.470   7.595  1.4341 -0.3702 -0.1673
 2876TIP3   OH230186   4.225   6.974   1.117  0.2874  0.4249  0.2028
 2876TIP3    H130187   4.219   6.911   1.045 -0.4177  1.0785 -0.3351
 2876TIP3    H230188   4.319   6.988   1.130  0.4189  0.4487 -0.7332
 2877TIP3   OH230189   0.618   0.790   7.880 -0.5810  0.2465  0.2647
 2877TIP3    H130190   0.691   0.850   7.861 -0.1623 -0.3170  0.0736
 2877TIP3    H230191   0.570   0.833   7.951 -0.2593  0.7840  0.1678
 2878TIP3   OH230192   2.720   3.600   7.016 -0.3763  0.2072  0.0339
 2878TIP3    H130193   2.657   3.604   7.088 -1.6141 -0.5552 -0.9673
 2878TIP3    H230194   2.806   3.605   7.059 -1.0934  0.2925  1.5076
 2879TIP3   OH230195   2.498   1.298   7.091  0.2574  0.5496  0.1230
 2879TIP3    H130196   2.444   1.290   7.169 -0.1823  1.2406 -0.0986
 2879TIP3    H230197   2.435   1.297   7.018  0.6900 -0.6329 -0.2760
 2880TIP3   OH230198   4.660   3.850   0.159  1.0485  0.2257  0.5306
 2880TIP3    H130199   4.609   3.896   0.226  1.1383 -0.4528  1.0860
 2880TIP3    H230200   4.750   3.852   0.192  1.5447  2.1099 -0.8319
 2881TIP3   OH230201   2.262   1.328   8.159  0.1305  0.4844  0.2445
 2881TIP3    H130202   2.352   1.361   8.151  0.5736 -0.2719  1.6640
 2881TIP3    H230203   2.219   1.355   8.079  1.5026  1.2821 -0.2532
 2882TIP3   OH230204   0.656   2.737   6.734  0.1072 -0.3462 -0.5161
 2882TIP3    H130205   0.695   2.823   6.716  0.5300 -0.6512 -1.0774
 2882TIP3    H230206   0.628   2.743   6.825  0.9652  0.0746 -0.2637
 2883TIP3   OH230207   4.010   4.902   7.126  0.2423 -0.2648 -0.0483
 2883TIP3    H130208   4.066   4.973   7.157 -0.3705  0.2341 -0.0810
 2883TIP3    H230209   4.016   4.906   7.031 -1.1010  0.8304 -0.1216
 2884TIP3   OH230210   5.637   3.590   1.274 -0.1623  0.0988 -0.0603
 2884TIP3    H130211   5.718   3.599   1.225  0.1008 -0.1370  0.3269
 2884TIP3    H230212   5.662   3.542   1.353 -0.3180  1.5526  0.9135
 2885TIP3   OH230213   6.866   1.766   6.312  0.0491  0.1439  0.1311
 2885TIP3    H130214   6.837   1.683   6.352  0.4857  0.0100  0.1723
 2885TIP3    H230215   6.889   1.822   6.387 -0.4306  0.3753  0.1108
 2886TIP3   OH230216   0.930   3.950   7.328  0.2998  0.1077  0.0132
 2886TIP3    H130217   0.926   4.046   7.321 -0.8391  0.0749 -0.1009
 2886TIP3    H230218   0.945   3.933   7.421  1.5136  0.3946 -0.1124
 2887TIP3   OH230219   2.983   4.268   7.928 -0.1060  0.3608  0.1280
 2887TIP3    H130220   3.039   4.191   7.931  0.0679  0.4008 -1.2800
 2887TIP3    H230221   2.968   4.283   7.834  0.0510  2.1803  0.3603
 2888TIP3   OH230222   3.550   2.594   1.142 -0.0788 -0.5336 -0.2684
 2888TIP3    H130223   3.517   2.505   1.140 -1.9490  0.1151 -2.0825
 2888TIP3    H230224   3.525   2.627   1.229  0.0094 -1.5451  0.1496
 2889TIP3   OH230225   1.603   3.673   8.166 -0.0403  0.0523  0.2319
 2889TIP3    H130226   1.508   3.683   8.160 -0.3765 -2.5415  0.2649
 2889TIP3    H230227   1.632   3.655   8.077  0.2964 -0.0622  0.3617
 2890TIP3   OH230228   4.456   1.505   7.983 -0.9524 -0.0793 -0.3063
 2890TIP3    H130229   4.419   1.462   7.906 -1.1020  1.6962 -1.2820
 2890TIP3    H230230   4.408   1.587   7.990 -1.2953 -0.4177  2.0325
 2891TIP3   OH230231   4.306   1.334   7.823  0.3062 -0.7853  0.2043
 2891TIP3    H130232   4.351   1.367   7.746  0.4562 -1.2449  0.0896
 2891TIP3    H230233   4.250   1.264   7.790 -1.4978  0.6077  0.1415
 2892TIP3   OH230234   2.117   6.405   5.913  0.3209  0.3186 -0.0136
 2892TIP3    H130235   2.073   6.440   5.835  1.3411  2.5940  0.3470
 2892TIP3    H230236   2.198   6.367   5.879  0.1651  0.1531 -0.2015
 2893TIP3   OH230237   1.298   0.227   0.748 -0.0146  0.3559 -0.0010
 2893TIP3    H130238   1.208   0.200   0.768 -0.2952  1.8523  0.8626
 2893TIP3    H230239   1.330   0.266   0.828 -0.0460  3.5911 -1.4226
 2894TIP3   OH230240   0.913   6.459   7.331  0.0744  0.0472 -0.0143
 2894TIP3    H130241   0.954   6.391   7.384  0.4692 -0.1718 -0.5854
 2894TIP3    H230242   0.985   6.495   7.279 -0.4007 -0.1603 -0.8392
 2895TIP3   OH230243   5.177   1.243   0.704 -0.0611  0.1243  0.1076
 2895TIP3    H130244   5.108   1.185   0.670 -1.5374  2.4327 -1.1002
 2895TIP3    H230245   5.139   1.279   0.784 -0.1062  1.1097 -0.3535
 2896TIP3   OH230246   2.770   2.523   0.227  0.1783 -0.4439  0.5451
 2896TIP3    H130247   2.711   2.597   0.239 -1.8752 -1.5626 -1.7711
 2896TIP3    H230248   2.716   2.446   0.251  1.3271 -1.3809  0.2039
 2897TIP3   OH230249   1.057   0.359   7.971 -0.4394 -0.5588 -0.3156
 2897TIP3    H130250   1.009   0.360   7.888 -0.5087 -2.3170 -0.3519
 2897TIP3    H230251   0.990   0.376   8.038 -0.8644 -1.5221 -0.4750
 2898TIP3   OH230252   1.023   3.323   0.384 -1.4377  0.3301  0.2987
 2898TIP3    H130253   0.991   3.239   0.350  0.4082 -0.0854 -0.5802
 2898TIP3    H230254   0.995   3.388   0.320  0.3990 -0.1965 -1.1430
 2899TIP3   OH230255   2.097   7.036   7.025  0.6592 -0.2658  0.1601
 2899TIP3    H130256   2.176   6.991   7.055 -0.7484 -0.7114  3.5785
 2899TIP3    H230257   2.024   6.988   7.065 -1.2882  1.2860 -1.2622
 2900TIP3   OH230258   6.408   6.744   6.832  0.3792  0.4410 -0.3832
 2900TIP3    H130259   6.481   6.757   6.772  0.0632 -0.2779 -0.9365
 2900TIP3    H230260   6.431   6.795   6.910  0.2232  2.4631 -1.5644
 2901TIP3   OH230261   2.031   2.501   7.777  1.1010 -0.0330 -0.3013
 2901TIP3    H130262   2.013   2.514   7.870 -1.4985  0.7967 -0.8433
 2901TIP3    H230263   1.987   2.574   7.734  1.4156 -0.9466 -2.2648
 2902TIP3   OH230264   2.313   2.278   7.794  0.5045  0.1894 -0.1462
 2902TIP3    H130265   2.383   2.213   7.786 -1.3643 -1.8847 -0.6452
 2902TIP3    H230266   2.317   2.328   7.712  2.5457  1.4235  0.6309
 2903TIP3   OH230267   0.239   0.424   6.223  0.1142 -0.5080  0.0191
 2903TIP3    H130268   0.291   0.350   6.192 -1.5120 -1.1877 -1.1838
 2903TIP3    H230269   0.253   0.492   6.157  0.5226 -0.2024  0.4101
 2904TIP3   OH230270   5.793   2.587   1.082  0.4049 -0.4261 -0.5042
 2904TIP3    H130271   5.710   2.595   1.036  0.9874 -0.6292 -1.6125
 2904TIP3    H230272   5.837   2.514   1.038  2.0169  0.9621 -1.2506
 2905TIP3   OH230273   4.782   6.209   8.188 -0.2424  0.1723 -0.2215
 2905TIP3    H130274   4.868   6.247   8.205 -0.0307 -0.3354 -0.1432
 2905TIP3    H230275   4.737   6.214   8.272  0.4258 -1.3671  0.2632
 2906TIP3   OH230276   5.055   2.051   0.929  0.3334 -0.1173 -0.0662
 2906TIP3    H130277   5.099   2.083   1.007 -2.6754  1.5905  1.1022
 2906TIP3    H230278   5.052   2.127   0.870 -0.2764 -0.4135 -0.4371
 2907TIP3   OH230279   2.395   3.621   6.630  0.7640 -0.4522  0.2856
 2907TIP3    H130280   2.464   3.678   6.663 -0.4580  0.6944  0.9090
 2907TIP3    H230281   2.423   3.533   6.655  2.8332 -0.2312 -0.9648
 2908TIP3   OH230282   1.527   6.562   7.716  0.0835 -0.0168  0.1220
 2908TIP3    H130283   1.546   6.534   7.627  1.6222 -0.1102  0.4456
 2908TIP3    H230284   1.599   6.526   7.768 -1.1277 -0.5214  1.5217
 2909TIP3   OH230285   3.639   5.214   1.727 -0.1678 -0.2017 -0.0708
 2909TIP3    H130286   3.554   5.227   1.684  0.7708  2.6466 -1.2841
 2909TIP3    H230287   3.617   5.188   1.816 -2.2745 -0.9040 -0.7360
 2910TIP3   OH230288   0.957   5.509   7.092 -0.4071  0.0233 -0.1086
 2910TIP3    H130289   1.047   5.479   7.083 -0.4411 -0.0146 -0.3495
 2910TIP3    H230290   0.964   5.605   7.094 -0.1970  0.0038  1.8427
 2911TIP3   OH230291   3.345   0.217   0.065  0.0539  0.1022  0.1512
 2911TIP3    H130292   3.315   0.156  -0.003  1.1221  0.0274 -0.2778
 2911TIP3    H230293   3.335   0.169   0.147 -0.2432 -0.2044 -0.0596
 2912TIP3   OH230294   1.207   7.047   8.141 -0.4859  0.2548 -0.7341
 2912TIP3    H130295   1.132   7.082   8.092 -1.0306  0.6761  0.3673
 2912TIP3    H230296   1.169   7.017   8.224  0.3988 -0.5494 -0.6100
 2913TIP3   OH230297   1.304   3.510   0.748  0.2537  0.0427  0.0065
 2913TIP3    H130298   1.256   3.562   0.813  0.1325 -0.7399  0.5554
 2913TIP3    H230299   1.243   3.502   0.674  0.4560  1.0785 -0.2904
 2914TIP3   OH230300   5.422   1.334   0.414 -0.1712 -0.3677  0.2556
 2914TIP3    H130301   5.441   1.296   0.329  0.0095 -0.0678  0.1589
 2914TIP3    H230302   5.335   1.371   0.405  0.4332  0.9988 -0.2839
 2915TIP3   OH230303   5.139   0.414   0.444 -0.1691  0.5644  0.4378
 2915TIP3    H130304   5.104   0.467   0.516 -0.7654 -1.0456  1.3927
 2915TIP3    H230305   5.223   0.383   0.476  0.2825  1.0873 -0.2110
 2916TIP3   OH230306   5.994   1.521   7.192 -0.0748  0.4480 -0.4031
 2916TIP3    H130307   6.075   1.485   7.155  0.7262  2.1810 -0.4173
 2916TIP3    H230308   6.022   1.589   7.253 -1.4898  2.2688 -1.6309
 2917TIP3   OH230309   3.238   6.631   2.117 -0.5007 -0.8673 -0.3674
 2917TIP3    H130310   3.315   6.581   2.090 -0.0494 -0.3516 -0.0456
 2917TIP3    H230311   3.224   6.694   2.046  0.3602  0.1264  0.3287
 2918TIP3   OH230312   4.535   0.417   7.904  0.2274  0.0038  0.1443
 2918TIP3    H130313   4.605   0.478   7.882  0.3896  0.1488  1.0292
 2918TIP3    H230314   4.545   0.345   7.841 -0.1470  1.0071 -1.0887
 2919TIP3   OH230315   5.950   1.746   0.306  0.0923  0.2669 -0.0434
 2919TIP3    H130316   5.928   1.762   0.214 -1.9963  1.0416  0.5367
 2919TIP3    H230317   6.045   1.737   0.307  0.0648 -1.0893 -2.4665
 2920TIP3   OH230318   6.631   1.294   6.681 -0.5149 -1.1809 -0.1151
 2920TIP3    H130319   6.727   1.290   6.688 -0.2758  2.4077  0.9635
 2920TIP3    H230320   6.611   1.250   6.599  2.0873 -1.8466 -0.4873
 2921TIP3   OH230321   0.325   0.702   0.618 -0.4471 -0.0489 -0.2291
 2921TIP3    H130322   0.294   0.741   0.537 -0.4100 -1.2740 -0.8532
 2921TIP3    H230323   0.378   0.771   0.659  1.5220 -0.1613 -2.3907
 2922TIP3   OH230324   5.038   5.517   7.083 -0.0178 -0.0492 -0.1482
 2922TIP3    H130325   5.116   5.512   7.138 -0.4526  1.4386  0.6632
 2922TIP3    H230326   5.022   5.427   7.054  1.3590 -0.5347  0.5617
 2923TIP3   OH230327   3.694   3.248   0.127  0.5786 -0.0583  0.0200
 2923TIP3    H130328   3.734   3.307   0.190  0.2307 -0.9092  1.0587
 2923TIP3    H230329   3.673   3.169   0.177 -0.9332 -0.2445 -0.8491
 2924TIP3   OH230330   3.236   4.084   7.827 -0.0010  1.0018  0.7630
 2924TIP3    H130331   3.297   4.024   7.870  0.0933  1.7726  1.7570
 2924TIP3    H230332   3.272   4.171   7.844  0.7188  1.3377 -1.9844
 2925TIP3   OH230333   3.685   5.058   8.168  0.0167 -0.2769  0.5440
 2925TIP3    H130334   3.725   5.143   8.151  0.0690 -0.4786 -0.4279
 2925TIP3    H230335   3.627   5.043   8.094  0.0879 -1.1314  0.6428
 2926TIP3   OH230336   5.133   6.211   0.679  0.3795  0.0967 -0.2782
 2926TIP3    H130337   5.155   6.122   0.709 -0.1448  0.1413  0.2301
 2926TIP3    H230338   5.038   6.210   0.669 -0.0167  1.4172  2.4554
 2927TIP3   OH230339   1.642   5.468   7.824  0.3270  0.2570 -0.1749
 2927TIP3    H130340   1.705   5.399   7.800  0.0317  0.0645 -0.4132
 2927TIP3    H230341   1.557   5.433   7.796 -0.1260 -0.2273  1.6692
 2928TIP3   OH230342   4.964   5.661   0.946  0.0525  0.3837 -0.4174
 2928TIP3    H130343   4.870   5.649   0.930  0.1222  0.3859 -0.8184
 2928TIP3    H230344   4.988   5.587   1.001 -0.6073  1.4356  1.3908
 2929TIP3   OH230345   0.435   3.005   7.774 -0.0337 -0.0232 -0.3002
 2929TIP3    H130346   0.476   2.923   7.747 -0.0157 -0.0925 -0.0665
 2929TIP3    H230347   0.342   2.984   7.780  0.2340 -0.9116  2.7647
 2930TIP3   OH230348   3.035   2.230   2.098  0.2180  0.4571 -0.5734
 2930TIP3    H130349   3.042   2.212   2.191  2.1198  0.2993 -0.7196
 2930TIP3    H230350   2.989   2.314   2.093 -0.4402  0.1826  0.4567
 2931TIP3   OH230351   1.182   5.574   7.779  0.5460 -0.3150 -0.3809
 2931TIP3    H130352   1.238   5.583   7.701 -0.8011 -0.6314 -1.4389
 2931TIP3    H230353   1.093   5.586   7.745 -0.5131 -4.6751  0.2438
 2932TIP3   OH230354   2.208   0.999   0.466 -0.5360 -0.5073 -0.2292
 2932TIP3    H130355   2.149   1.003   0.541 -3.1056  0.7155 -2.1589
 2932TIP3    H230356   2.151   1.002   0.390  2.0285  2.2051 -2.3172
 2933TIP3   OH230357   3.043   1.138   0.522 -0.6597  0.9010 -0.3023
 2933TIP3    H130358   3.045   1.052   0.566 -1.8224  0.3342 -1.2955
 2933TIP3    H230359   3.041   1.201   0.594 -0.7137  0.0534  0.4617
 2934TIP3   OH230360   2.170   0.102   0.537 -0.1506 -0.1148 -0.1975
 2934TIP3    H130361   2.081   0.067   0.534  0.2551 -1.1420 -2.0549
 2934TIP3    H230362   2.224   0.028   0.566  0.3441 -0.1899 -1.2351
 2935TIP3   OH230363   5.351   5.288   0.121 -0.3534  0.0731  0.1951
 2935TIP3    H130364   5.355   5.193   0.138  1.9405 -0.0424 -0.6734
 2935TIP3    H230365   5.403   5.326   0.192 -0.0706  0.5403 -0.2600
 2936TIP3   OH230366   5.025   5.349   7.621  0.2618  0.0757  0.0856
 2936TIP3    H130367   5.049   5.408   7.693  0.1085 -0.6539  0.7443
 2936TIP3    H230368   4.935   5.323   7.640 -0.1976  0.7808 -1.0021
 2937TIP3   OH230369   0.260   4.271   8.143 -0.0082  0.4875 -0.3918
 2937TIP3    H130370   0.170   4.261   8.110 -0.3497  2.0448 -0.0151
 2937TIP3    H230371   0.283   4.361   8.123  1.6943 -0.0187 -0.9257
 2938TIP3   OH230372   2.315   1.000   7.839  0.1688 -0.1775  0.4328
 2938TIP3    H130373   2.404   1.023   7.868  0.4696 -1.4228  0.5577
 2938TIP3    H230374   2.325   0.980   7.746 -0.4835  2.1601 -0.1998
 2939TIP3   OH230375   4.191   6.904   6.934  0.6819 -0.3994 -0.6772
 2939TIP3    H130376   4.233   6.934   6.853  0.1378  0.4659 -0.6521
 2939TIP3    H230377   4.103   6.877   6.907 -0.2603  1.8380 -0.1135
 2940TIP3   OH230378   6.180   3.724   8.134  0.7086 -0.8107  0.5743
 2940TIP3    H130379   6.171   3.809   8.177 -1.0756 -0.1767 -0.8814
 2940TIP3    H230380   6.146   3.738   8.045 -1.8731 -3.5289  0.9370
 2941TIP3   OH230381   4.209   1.437   2.026  0.1262 -0.1336  0.5691
 2941TIP3    H130382   4.192   1.454   2.119 -1.3050  2.2852 -0.0698
 2941TIP3    H230383   4.132   1.390   1.996  1.6053 -3.1027  1.0245
 2942TIP3   OH230384   5.507   0.293   6.827 -0.2038  0.0940 -0.2426
 2942TIP3    H130385   5.474   0.226   6.887 -0.6085  2.2110  2.0313
 2942TIP3    H230386   5.601   0.298   6.846 -0.2391  0.4233 -0.1566
 2943TIP3   OH230387   0.246   2.454   2.050  0.1261  0.3691 -0.4068
 2943TIP3    H130388   0.229   2.375   1.998  1.5241 -2.0813  2.5269
 2943TIP3    H230389   0.319   2.496   2.005  0.5499 -1.0048 -1.0699
 2944TIP3   OH230390   3.439   1.567   1.630 -0.6187 -0.4804 -1.1932
 2944TIP3    H130391   3.389   1.487   1.650  1.5855 -1.4598  0.9626
 2944TIP3    H230392   3.518   1.535   1.585  0.5157  0.3724  0.1088
 2945TIP3   OH230393   2.181   6.171   7.716  0.5625 -0.5630 -0.1941
 2945TIP3    H130394   2.120   6.242   7.737  0.3604 -1.0434  0.9410
 2945TIP3    H230395   2.264   6.214   7.699 -0.1517  0.1568 -2.2494
 2946TIP3   OH230396   3.125   1.872   7.585 -0.0093 -0.1903  0.2159
 2946TIP3    H130397   3.110   1.785   7.547  0.5139 -0.7737  1.2998
 2946TIP3    H230398   3.089   1.933   7.520  2.3632 -1.0360 -2.0503
 2947TIP3   OH230399   4.538   3.666   8.272  0.3716 -0.0968  0.4064
 2947TIP3    H130400   4.560   3.750   8.311 -0.1760 -0.6821  2.0558
 2947TIP3    H230401   4.449   3.676   8.240  0.8431  0.4029 -0.8221
 2948TIP3   OH230402   6.870   0.636   7.057 -0.5845 -0.6962  0.3072
 2948TIP3    H130403   6.784   0.674   7.044 -0.1912  0.7541  1.6134
 2948TIP3    H230404   6.931   0.702   7.026  0.0822 -1.7545 -0.7185
 2949TIP3   OH230405   3.203   0.828   1.136 -0.1344 -0.1873 -0.1090
 2949TIP3    H130406   3.188   0.785   1.220  1.4486  0.2616  0.4300
 2949TIP3    H230407   3.297   0.819   1.120 -0.0772  1.4300 -0.8746
 2950TIP3   OH230408   4.127   5.491   2.161 -0.1776 -0.4494 -0.2083
 2950TIP3    H130409   4.127   5.499   2.257 -0.6346  0.1332 -0.2480
 2950TIP3    H230410   4.122   5.581   2.130 -0.3200 -0.6503 -0.7762
 2951TIP3   OH230411   2.246   6.782   7.397 -0.0550 -1.2675  0.2775
 2951TIP3    H130412   2.214   6.799   7.486  0.7190  1.3797  0.1338
 2951TIP3    H230413   2.340   6.797   7.402 -0.1565  0.1766 -1.2186
 2952TIP3   OH230414   2.233   6.511   1.956  0.2344  0.2754 -0.0031
 2952TIP3    H130415   2.259   6.421   1.977 -0.6968  0.3132  1.4158
 2952TIP3    H230416   2.155   6.501   1.902  2.1535  0.2027 -3.0505
 2953TIP3   OH230417   3.778   3.645   0.017  0.1370 -0.1769  0.3895
 2953TIP3    H130418   3.734   3.569  -0.022 -0.5973 -1.0684  2.7943
 2953TIP3    H230419   3.867   3.614   0.035  0.5707  0.3323 -0.7439
 2954TIP3   OH230420   6.405   0.301   7.973  0.2390  0.1989  0.5085
 2954TIP3    H130421   6.441   0.357   8.041 -1.9516  0.4510  1.5321
 2954TIP3    H230422   6.365   0.362   7.911 -1.1474 -0.1374  1.0354
 2955TIP3   OH230423   3.930   0.685   1.807  0.1134 -0.4451 -0.4854
 2955TIP3    H130424   3.945   0.775   1.837 -1.1475 -0.4438  0.2091
 2955TIP3    H230425   3.841   0.666   1.834  1.2528 -2.9566  2.1170
 2956TIP3   OH230426   6.579   2.655   6.249 -0.4094  0.3356  0.6254
 2956TIP3    H130427   6.490   2.661   6.216 -0.1548 -0.2684 -0.2124
 2956TIP3    H230428   6.592   2.562   6.267  0.3163  0.2931 -0.0603
 2957TIP3   OH230429   1.022   6.144   1.442  0.6833 -0.0670  0.1497
 2957TIP3    H130430   1.088   6.175   1.380 -0.2056  1.2795 -0.1768
 2957TIP3    H230431   0.941   6.141   1.391  0.6113 -2.5988  0.2918
 2958TIP3   OH230432   6.136   5.776   0.548  0.1993  0.4002 -0.4973
 2958TIP3    H130433   6.109   5.849   0.604 -1.1772  0.7398 -1.5672
 2958TIP3    H230434   6.122   5.699   0.603 -1.3144  0.7080 -0.3936
 2959TIP3   OH230435   6.706   0.997   0.273 -0.1282  0.2562 -1.1901
 2959TIP3    H130436   6.735   1.035   0.191  0.3205  0.6415 -0.8584
 2959TIP3    H230437   6.611   1.009   0.274 -0.0841  0.6355 -1.4554
 2960TIP3   OH230438   5.350   2.574   0.022 -0.0514  0.0968  0.8608
 2960TIP3    H130439   5.282   2.528   0.072  0.9011 -1.8965  0.4219
 2960TIP3    H230440   5.384   2.508  -0.038  0.0219  1.9504 -1.2805
 2961TIP3   OH230441   0.182   2.191   0.240 -0.4150 -0.5221  0.1293
 2961TIP3    H130442   0.136   2.235   0.312  1.5301 -0.5671  1.4716
 2961TIP3    H230443   0.240   2.258   0.204 -0.9927 -0.6518 -1.0878
 2962TIP3   OH230444   4.181   2.931   0.862 -0.6037  0.2254 -0.0295
 2962TIP3    H130445   4.264   2.977   0.849 -0.8658  1.6288  2.5631
 2962TIP3    H230446   4.206   2.841   0.881  0.4789  0.8299  1.6886
 2963TIP3   OH230447   1.486   0.402   2.068 -0.1059 -0.0123  0.0705
 2963TIP3    H130448   1.450   0.470   2.125 -0.4918 -0.3040  0.1780
 2963TIP3    H230449   1.428   0.327   2.080  0.1354 -0.2606 -0.2834
 2964TIP3   OH230450   0.481   6.269   6.399 -0.1387 -0.3285 -0.0749
 2964TIP3    H130451   0.477   6.365   6.408  0.6277 -0.3465  0.5255
 2964TIP3    H230452   0.573   6.250   6.382  0.0158 -1.0870  1.4805
 2965TIP3   OH230453   1.114   4.539   6.906 -1.3776  0.4326 -0.0679
 2965TIP3    H130454   1.141   4.607   6.844 -0.5434 -0.0377 -0.2405
 2965TIP3    H230455   1.191   4.483   6.914 -1.8797 -0.1872  0.4831
 2966TIP3   OH230456   4.191   1.576   5.790  0.6933  0.1965  0.1904
 2966TIP3    H130457   4.135   1.640   5.747  2.0409  1.5126  0.3257
 2966TIP3    H230458   4.139   1.495   5.790  1.2679 -0.6296 -5.7611
 2967TIP3   OH230459   0.682   3.046   0.794 -0.4096 -0.2051  0.4903
 2967TIP3    H130460   0.607   3.081   0.843 -0.0447  0.4328  0.6082
 2967TIP3    H230461   0.647   2.970   0.748 -0.7612 -0.8493  1.7693
 2968TIP3   OH230462   4.004   6.876   8.075  0.4503  0.4465 -0.6497
 2968TIP3    H130463   3.993   6.784   8.050 -0.5872  0.1195  0.9274
 2968TIP3    H230464   3.958   6.925   8.007 -0.6031 -0.3135 -0.4980
 2969TIP3   OH230465   1.761   6.585   6.162 -0.5781 -0.0902 -0.1973
 2969TIP3    H130466   1.792   6.605   6.251  0.8911 -0.5191 -0.5881
 2969TIP3    H230467   1.686   6.644   6.149 -0.9692 -0.1789  1.3953
 2970TIP3   OH230468   6.170   0.268   8.208  0.0833  0.2096  0.1498
 2970TIP3    H130469   6.162   0.218   8.127  0.9942 -0.7407  0.6200
 2970TIP3    H230470   6.228   0.215   8.263  0.6684  1.5370  0.8612
 2971TIP3   OH230471   0.130   6.023   1.657 -0.0226  0.1356  0.2514
 2971TIP3    H130472   0.217   6.029   1.616 -0.7199 -0.2771 -1.3831
 2971TIP3    H230473   0.140   5.957   1.725  0.9579  0.1062  0.0963
 2972TIP3   OH230474   0.245   4.354   7.061  0.2724 -0.0471 -0.0715
 2972TIP3    H130475   0.289   4.336   7.144  0.0276 -1.5291 -0.2317
 2972TIP3    H230476   0.192   4.432   7.079  1.1302  0.3644  0.7970
 2973TIP3   OH230477   4.691   3.372   0.786 -0.1340  0.0217 -0.1147
 2973TIP3    H130478   4.717   3.306   0.721 -0.7893  0.5648 -0.9538
 2973TIP3    H230479   4.668   3.321   0.863  2.3976 -0.5432  0.3473
 2974TIP3   OH230480   2.873   4.933   0.130 -0.3237 -0.2039  0.5501
 2974TIP3    H130481   2.841   4.882   0.055 -0.5481  0.2845  0.3125
 2974TIP3    H230482   2.834   5.020   0.119  0.3465  0.1309  0.7559
 2975TIP3   OH230483   2.875   4.763   8.152 -0.1669  0.2818  0.2039
 2975TIP3    H130484   2.930   4.745   8.077  0.9906  0.0237  1.0914
 2975TIP3    H230485   2.817   4.686   8.159  1.1927 -0.7230  0.8498
 2976TIP3   OH230486   3.017   3.335   6.992 -0.1024 -0.0108 -0.0344
 2976TIP3    H130487   3.076   3.263   7.015 -0.4480 -0.3895 -0.3167
 2976TIP3    H230488   2.929   3.299   7.004 -0.2804  0.5082  0.2605
 2977TIP3   OH230489   2.491   5.771   1.236 -0.0905 -0.1798  0.2097
 2977TIP3    H130490   2.491   5.694   1.294  0.2137 -1.8336 -1.8564
 2977TIP3    H230491   2.527   5.841   1.290 -0.5173 -1.4143  2.2501
 2978TIP3   OH230492   2.297   1.203   7.239  0.0439 -0.2110  0.2883
 2978TIP3    H130493   2.242   1.195   7.161 -1.6760  1.5818  1.2039
 2978TIP3    H230494   2.334   1.116   7.252  0.6873 -0.4841 -2.6861
 2979TIP3   OH230495   1.671   4.144   6.553  0.2793  0.0046  0.7473
 2979TIP3    H130496   1.604   4.131   6.486  0.5174  0.4601  0.4223
 2979TIP3    H230497   1.716   4.225   6.528  1.3827 -0.6314  0.6034
 2980TIP3   OH230498   4.268   4.820   7.460 -0.0217 -0.3772  0.6593
 2980TIP3    H130499   4.341   4.763   7.482  0.3978 -0.4519 -0.8196
 2980TIP3    H230500   4.283   4.845   7.369 -1.2256  0.5432  0.6797
 2981TIP3   OH230501   6.244   4.164   7.560  0.0526  0.1861  0.4283
 2981TIP3    H130502   6.324   4.112   7.556  2.0059  2.9217  1.0157
 2981TIP3    H230503   6.202   4.151   7.475  0.8185 -1.6627  0.2831
 2982TIP3   OH230504   6.554   2.272   1.088 -0.1009  0.6497  0.1653
 2982TIP3    H130505   6.640   2.230   1.079 -0.4949 -0.3812  0.9997
 2982TIP3    H230506   6.500   2.232   1.020  0.0619  1.3194 -0.3783
 2983TIP3   OH230507   4.067   0.503   0.355  0.1697 -0.4192 -0.1157
 2983TIP3    H130508   4.027   0.529   0.271  1.2468  0.0730 -0.4865
 2983TIP3    H230509   4.115   0.423   0.335  0.6600 -0.1485 -0.0413
 2984TIP3   OH230510   5.348   4.401   7.214 -0.9324  0.3922  0.0860
 2984TIP3    H130511   5.283   4.396   7.284  1.5432  0.3148  2.5896
 2984TIP3    H230512   5.332   4.325   7.159 -1.3531 -1.1028  2.1783
 2985TIP3   OH230513   4.162   3.857   1.280 -0.3664  0.7153  0.2057
 2985TIP3    H130514   4.222   3.930   1.293 -0.3920  0.8628 -0.4627
 2985TIP3    H230515   4.141   3.827   1.368  1.1480  0.2760  0.4324
 2986TIP3   OH230516   4.802   0.343   7.864  0.2884 -0.2359  0.0966
 2986TIP3    H130517   4.808   0.358   7.769  1.7707 -0.5895  0.1049
 2986TIP3    H230518   4.893   0.348   7.894 -0.2723  1.1110  1.7069
 2987TIP3   OH230519   1.282   3.879   6.327  0.3789 -0.2979  0.2725
 2987TIP3    H130520   1.259   3.885   6.234 -2.1129  1.7462  0.9091
 2987TIP3    H230521   1.365   3.830   6.328 -1.0544 -3.2296 -2.7438
 2988TIP3   OH230522   3.701   5.178   0.428 -0.1093 -0.1764  0.1350
 2988TIP3    H130523   3.791   5.145   0.418  0.1304  0.4059  0.3591
 2988TIP3    H230524   3.648   5.116   0.379  0.6220  0.5210 -1.6092
 2989TIP3   OH230525   6.112   6.148   7.595  0.1103  0.2066  0.3009
 2989TIP3    H130526   6.055   6.197   7.535  0.2746  0.8589  0.6639
 2989TIP3    H230527   6.110   6.058   7.563 -0.9221  0.2711  0.1482
 2990TIP3   OH230528   3.769   6.588   1.233  0.5541 -0.1066  0.3736
 2990TIP3    H130529   3.830   6.639   1.179  0.0312  2.0329  1.6921
 2990TIP3    H230530   3.684   6.605   1.194  0.5641 -1.7382 -0.4424
 2991TIP3   OH230531   2.380   3.170   0.046 -0.3997 -0.1708 -0.3561
 2991TIP3    H130532   2.342   3.086   0.020 -0.0328 -0.3392 -0.3618
 2991TIP3    H230533   2.464   3.147   0.085 -0.7470  0.1149  0.5933
 2992TIP3   OH230534   6.135   5.522   0.298  0.1070  0.7084  0.3270
 2992TIP3    H130535   6.079   5.600   0.294 -1.1576 -0.0405  1.9711
 2992TIP3    H230536   6.156   5.502   0.207 -0.1529  2.5339 -0.1702
 2993TIP3   OH230537   4.844   0.324   1.312  0.0602  0.5606  0.0630
 2993TIP3    H130538   4.791   0.249   1.283  2.6151 -1.1791 -0.4807
 2993TIP3    H230539   4.895   0.290   1.385  1.6319  1.6071 -0.4976
 2994TIP3   OH230540   3.578   5.877   7.571  0.3883  0.3228  0.1899
 2994TIP3    H130541   3.541   5.965   7.574 -1.1398 -0.2724 -0.3159
 2994TIP3    H230542   3.503   5.820   7.553  1.5295 -0.9640 -0.6772
 2995TIP3   OH230543   2.334   5.312   6.019 -0.7152  0.2810  0.4065
 2995TIP3    H130544   2.240   5.301   6.005 -0.6673 -1.4419  1.1818
 2995TIP3    H230545   2.371   5.226   5.998  0.6620  0.8440  0.4194
 2996TIP3   OH230546   5.435   3.535   7.740 -0.6030 -0.1003  0.8428
 2996TIP3    H130547   5.361   3.492   7.784 -2.3588  1.1539 -0.6843
 2996TIP3    H230548   5.446   3.618   7.786 -0.9495  0.2298  0.3404
 2997TIP3   OH230549   2.979   3.588   7.730  0.0511 -0.5755  0.5288
 2997TIP3    H130550   2.890   3.580   7.694 -0.1345  1.1240  0.5427
 2997TIP3    H230551   2.968   3.571   7.823 -0.0327 -1.5578  0.3603
 2998TIP3   OH230552   1.658   5.277   6.098 -0.0483 -0.0907  0.4749
 2998TIP3    H130553   1.564   5.296   6.093 -0.4266 -1.9912 -0.7513
 2998TIP3    H230554   1.700   5.353   6.059 -1.1245  0.4550  0.3447
 2999TIP3   OH230555   1.214   7.021   6.223  0.2501 -0.1994  0.1665
 2999TIP3    H130556   1.308   7.022   6.205 -0.1709  1.0665 -2.2940
 2999TIP3    H230557   1.186   7.112   6.210 -1.1983 -0.3910  1.6863
 3000TIP3   OH230558   1.224   1.729   1.068  0.4111 -0.0252  0.2120
 3000TIP3    H130559   1.215   1.735   1.163  1.3877  1.6643  0.2363
 3000TIP3    H230560   1.306   1.683   1.055  0.4767  0.0937  0.2011
 3001TIP3   OH230561   1.751   4.958   7.617  0.1639  0.7733 -0.5507
 3001TIP3    H130562   1.720   4.869   7.633 -0.2557  1.0898  0.4523
 3001TIP3    H230563   1.846   4.954   7.634  0.7986 -0.2081 -3.6695
 3002TIP3   OH230564   1.631   6.212   6.774 -0.0866 -0.0245  0.0755
 3002TIP3    H130565   1.584   6.191   6.693 -0.8603 -0.7599  0.7010
 3002TIP3    H230566   1.579   6.282   6.813 -0.7510 -0.9120  0.8219
 3003TIP3   OH230567   4.824   4.434   6.924 -0.0387  0.3474  0.1547
 3003TIP3    H130568   4.816   4.342   6.903  0.0419 -0.1487  2.0681
 3003TIP3    H230569   4.915   4.456   6.903 -0.3421  0.3070 -1.3045
 3004TIP3   OH230570   1.531   5.451   0.409  0.0754  0.1392 -0.3446
 3004TIP3    H130571   1.496   5.426   0.323  0.4617  0.8690 -0.7253
 3004TIP3    H230572   1.517   5.546   0.413 -2.0297 -0.1691  1.3635
 3005TIP3   OH230573   1.785   5.987   1.623  0.1574  0.0632 -0.4735
 3005TIP3    H130574   1.813   6.047   1.692 -0.4890 -0.0475 -0.1073
 3005TIP3    H230575   1.836   5.907   1.638  0.9751  0.4849 -0.9267
 3006TIP3   OH230576   1.330   5.530   7.996  0.6283 -0.5608  0.5559
 3006TIP3    H130577   1.324   5.435   8.001  0.9011 -0.5458  1.4238
 3006TIP3    H230578   1.266   5.555   7.929  2.1675 -1.5168 -1.3809
 3007TIP3   OH230579   5.743   1.492   7.327 -0.4292  0.7213 -0.4563
 3007TIP3    H130580   5.680   1.433   7.285 -1.1881  1.9152 -1.0542
 3007TIP3    H230581   5.821   1.487   7.271  0.1897 -1.0520  0.4951
 3008TIP3   OH230582   1.710   1.066   0.015 -0.0686 -0.0919  0.0814
 3008TIP3    H130583   1.652   1.066  -0.062 -1.6628  0.2057  1.2256
 3008TIP3    H230584   1.706   1.156   0.047  1.4121  0.0416 -0.0590
 3009TIP3   OH230585   3.820   5.489   0.700 -0.2200  0.1775  0.1803
 3009TIP3    H130586   3.884   5.458   0.636 -0.4920  0.7309 -0.3736
 3009TIP3    H230587   3.747   5.521   0.647 -0.7416  0.0131  0.7932
 3010TIP3   OH230588   1.305   5.662   1.482  0.3866 -0.7374  0.1234
 3010TIP3    H130589   1.300   5.702   1.569 -2.3304  2.0163 -1.1279
 3010TIP3    H230590   1.288   5.569   1.497  2.3448 -0.7709  2.7162
 3011TIP3   OH230591   6.790   5.162   0.026  0.1929  0.1668 -0.0034
 3011TIP3    H130592   6.747   5.198  -0.052  1.0877 -1.8388 -1.5032
 3011TIP3    H230593   6.738   5.086   0.049  1.5206 -0.9079 -0.4090
 3012TIP3   OH230594   2.760   2.553   1.338  0.0780 -0.2655  0.3640
 3012TIP3    H130595   2.805   2.577   1.257 -1.2445  1.4540  0.0817
 3012TIP3    H230596   2.822   2.575   1.408  0.6032 -0.2493 -0.1046
 3013TIP3   OH230597   3.214   4.634   5.989 -0.3440 -0.0168  0.2130
 3013TIP3    H130598   3.222   4.612   5.897  2.4252  0.1150  0.3374
 3013TIP3    H230599   3.251   4.722   5.996  0.5553 -0.4748  1.5874
 3014TIP3   OH230600   5.793   5.453   6.118  0.2405 -0.1119  0.4583
 3014TIP3    H130601   5.718   5.436   6.175 -0.7408  1.3063 -0.3503
 3014TIP3    H230602   5.755   5.462   6.031  1.4069  0.1824 -0.0374
 3015TIP3   OH230603   5.213   6.743   7.816  0.4613 -0.4683  0.7900
 3015TIP3    H130604   5.220   6.776   7.906 -0.0477 -1.2323  1.1141
 3015TIP3    H230605   5.274   6.669   7.813  1.0924  0.0535  0.2563
 3016TIP3   OH230606   4.847   2.665   7.969  0.2107  0.3349  0.2826
 3016TIP3    H130607   4.896   2.593   8.009 -1.1505  0.3076  2.0511
 3016TIP3    H230608   4.766   2.625   7.937  0.4608  0.6967 -0.8355
 3017TIP3   OH230609   3.539   2.246   0.692 -0.1347 -0.0353  0.3325
 3017TIP3    H130610   3.542   2.158   0.656 -1.3038 -0.2434  0.7062
 3017TIP3    H230611   3.557   2.303   0.617 -0.6220 -0.5438 -0.1825
 3018TIP3   OH230612   4.121   2.489   7.347  0.2759 -0.3385  0.0663
 3018TIP3    H130613   4.182   2.550   7.389 -1.7093  0.9764  1.2502
 3018TIP3    H230614   4.173   2.442   7.283  2.1765  1.8367 -0.1065
 3019TIP3   OH230615   3.498   1.150   1.033 -0.0570 -0.8867  0.7946
 3019TIP3    H130616   3.406   1.150   1.061 -1.6590  2.5087 -3.4440
 3019TIP3    H230617   3.532   1.235   1.060 -0.3797  0.6848 -3.1472
 3020TIP3   OH230618   3.206   6.903   0.761 -0.1411 -0.0835 -0.0108
 3020TIP3    H130619   3.240   6.876   0.676 -0.7794  0.5235 -0.4625
 3020TIP3    H230620   3.202   6.822   0.812 -3.5985 -1.2860 -1.8729
 3021TIP3   OH230621   6.796   1.862   7.365  0.5816  0.4722  0.0426
 3021TIP3    H130622   6.889   1.877   7.348  0.5029  1.0264  0.1092
 3021TIP3    H230623   6.751   1.937   7.325  0.0421 -0.4987 -1.2647
 3022TIP3   OH230624   2.069   2.624   7.495  0.7051  0.5403  0.6514
 3022TIP3    H130625   2.130   2.692   7.466  0.2914  1.4649  1.8391
 3022TIP3    H230626   2.123   2.564   7.546  0.9316  0.4382  0.2874
 3023TIP3   OH230627   1.999   5.218   0.073 -0.0391 -0.3271 -0.4763
 3023TIP3    H130628   2.009   5.244  -0.019  0.9060  0.5704 -0.1426
 3023TIP3    H230629   2.063   5.148   0.085  0.0954 -0.1965 -0.4199
 3024TIP3   OH230630   4.440   6.923   0.626  0.4427 -0.2807  0.1479
 3024TIP3    H130631   4.345   6.917   0.623  0.4707 -1.1822  0.6815
 3024TIP3    H230632   4.465   6.867   0.699  1.3961 -0.1930 -0.1002
 3025TIP3   OH230633   6.915   4.833   7.289 -0.7950  0.6753  0.0082
 3025TIP3    H130634   6.991   4.888   7.272 -0.0436 -1.0321 -2.8930
 3025TIP3    H230635   6.844   4.873   7.239 -0.8202  0.2285 -0.3188
 3026TIP3   OH230636   0.989   2.252   2.260 -0.4129 -0.4737 -0.3411
 3026TIP3    H130637   0.902   2.214   2.271 -0.4855 -0.3375 -0.4483
 3026TIP3    H230638   1.042   2.211   2.329 -0.9010  0.4919  0.6289
 3027TIP3   OH230639   0.547   3.706   8.050  0.4482 -0.0787  0.2565
 3027TIP3    H130640   0.516   3.746   8.132 -1.5405 -0.3433 -0.3207
 3027TIP3    H230641   0.588   3.624   8.077 -0.3838 -0.2688  0.9746
 3028TIP3   OH230642   6.340   0.367   6.470 -0.0718  0.1440  0.6569
 3028TIP3    H130643   6.324   0.304   6.400  1.4450  1.4264 -0.9640
 3028TIP3    H230644   6.254   0.385   6.507 -0.7751 -1.3878 -0.1470
 3029TIP3   OH230645   2.592   4.038   8.076  0.4168 -0.2890 -0.0088
 3029TIP3    H130646   2.571   3.991   7.995 -1.1384 -0.2455  0.3548
 3029TIP3    H230647   2.564   3.980   8.146  1.7573 -0.3220  0.5405
 3030TIP3   OH230648   0.260   5.403   0.301 -1.4531 -0.0940  0.1543
 3030TIP3    H130649   0.192   5.437   0.244 -0.4032 -0.4519 -1.3620
 3030TIP3    H230650   0.247   5.308   0.301 -1.4275 -0.1023  0.5077
 3031TIP3   OH230651   3.615   2.012   0.541  0.4626  0.0171  0.3347
 3031TIP3    H130652   3.586   1.923   0.522 -2.1688  1.2213 -1.9922
 3031TIP3    H230653   3.634   2.049   0.455 -0.6214  2.3609  1.0471
 3032TIP3   OH230654   6.736   3.886   1.104 -0.2735  0.2648  0.3836
 3032TIP3    H130655   6.819   3.848   1.076 -0.2781  1.1890 -0.9706
 3032TIP3    H230656   6.757   3.931   1.186  0.0850 -1.2241  1.1329
 3033TIP3   OH230657   3.218   4.029   0.410 -0.2977 -0.5334 -0.7095
 3033TIP3    H130658   3.138   4.009   0.457  0.0612 -1.6055 -0.5273
 3033TIP3    H230659   3.275   3.954   0.426  1.7061  1.2778  1.2406
 3034TIP3   OH230660   3.810   6.537   1.851  0.0922  0.4887 -0.3872
 3034TIP3    H130661   3.897   6.504   1.872  0.0482  0.3830 -0.3740
 3034TIP3    H230662   3.769   6.553   1.936 -1.0666 -2.4333 -0.2860
 3035TIP3   OH230663   3.472   5.250   0.911  0.2214 -0.0199 -0.3191
 3035TIP3    H130664   3.528   5.174   0.922  1.9668  1.1175 -0.9109
 3035TIP3    H230665   3.491   5.282   0.823  0.4621  1.7925  0.3508
 3036TIP3   OH230666   4.693   1.672   6.686 -0.6081  0.9455 -0.1986
 3036TIP3    H130667   4.706   1.630   6.600  0.0239  0.3867  0.1583
 3036TIP3    H230668   4.721   1.605   6.749  1.2208  2.1774  0.3686
 3037TIP3   OH230669   0.502   2.250   7.811 -0.3881  0.0837  0.1448
 3037TIP3    H130670   0.560   2.326   7.819 -0.0517 -0.1254 -0.2386
 3037TIP3    H230671   0.561   2.175   7.810 -0.8077 -0.3301  2.2833
 3038TIP3   OH230672   1.220   4.969   6.566 -1.4286  0.4483 -0.3892
 3038TIP3    H130673   1.209   5.053   6.611  0.8889  1.5932 -1.7577
 3038TIP3    H230674   1.293   4.927   6.610 -2.0194 -0.4816 -0.2762
 3039TIP3   OH230675   4.905   6.435   6.855  1.1404 -0.3658  0.7508
 3039TIP3    H130676   4.964   6.508   6.875 -0.3639  1.8664 -2.2490
 3039TIP3    H230677   4.961   6.371   6.811  1.8337  0.5123  0.3151
 3040TIP3   OH230678   4.832   3.041   6.953 -0.1939  0.0906  0.1819
 3040TIP3    H130679   4.871   3.129   6.948 -0.5071  0.1699 -1.3043
 3040TIP3    H230680   4.907   2.982   6.959  0.0163  0.4627  2.4940
 3041TIP3   OH230681   2.049   6.491   0.446 -0.1641  0.3237 -0.1815
 3041TIP3    H130682   1.966   6.530   0.418 -0.2001 -1.8452 -3.7676
 3041TIP3    H230683   2.026   6.436   0.520 -1.2624  2.1214  0.8973
 3042TIP3   OH230684   4.728   2.915   8.159 -0.1808  0.3812  0.4752
 3042TIP3    H130685   4.719   3.010   8.160 -0.3317  0.3712 -0.1255
 3042TIP3    H230686   4.752   2.893   8.249 -1.1687  0.8876  0.8853
 3043TIP3   OH230687   4.022   2.841   6.801  0.4490 -0.1690  0.4724
 3043TIP3    H130688   3.997   2.752   6.824  0.8125 -0.3711  0.1097
 3043TIP3    H230689   4.104   2.831   6.752 -0.4314  0.2023 -1.1449
 3044TIP3   OH230690   2.842   6.742   6.694  0.1280 -0.0273 -0.1003
 3044TIP3    H130691   2.863   6.663   6.645  2.2753  0.4383 -0.0312
 3044TIP3    H230692   2.864   6.814   6.634 -2.0532  0.5611 -0.2714
 3045TIP3   OH230693   2.685   2.611   0.633 -0.1347 -0.7199  0.1325
 3045TIP3    H130694   2.740   2.532   0.634  2.2433  0.8311 -0.2961
 3045TIP3    H230695   2.616   2.591   0.569 -0.7551 -3.0900  1.3842
 3046TIP3   OH230696   4.878   3.866   7.027 -0.2326 -0.5191 -0.4223
 3046TIP3    H130697   4.926   3.915   6.960 -0.9432 -2.0218 -2.1137
 3046TIP3    H230698   4.945   3.841   7.090  0.7801 -0.4991 -1.4517
 3047TIP3   OH230699   0.041   2.819   6.970 -0.3187 -0.4566 -0.0986
 3047TIP3    H130700  -0.003   2.842   6.888  0.7887 -0.3317 -0.6891
 3047TIP3    H230701   0.042   2.900   7.020 -1.4640 -0.6608  0.2784
 3048TIP3   OH230702   1.072   0.130   6.874  0.2522 -0.1285 -0.1339
 3048TIP3    H130703   1.166   0.136   6.890  0.1845 -0.0659  0.2515
 3048TIP3    H230704   1.034   0.194   6.933  0.0067  0.2680 -0.7076
 3049TIP3   OH230705   6.776   2.675   6.643 -0.0540  0.5578  0.5713
 3049TIP3    H130706   6.685   2.704   6.645 -0.3608 -0.0857 -1.4297
 3049TIP3    H230707   6.795   2.661   6.550  1.5576 -0.9396  1.0624
 3050TIP3   OH230708   0.545   4.923   1.044 -0.0305 -0.0048 -0.6790
 3050TIP3    H130709   0.629   4.941   1.086  0.1272  0.3403 -1.1354
 3050TIP3    H230710   0.568   4.869   0.967  0.0614  2.0521 -2.1650
 3051TIP3   OH230711   0.980   2.829   1.138  0.2712  0.1938 -0.5543
 3051TIP3    H130712   0.973   2.861   1.228 -0.7966 -1.6581  0.0862
 3051TIP3    H230713   0.952   2.737   1.143  1.4613 -0.3468 -2.5548
 3052TIP3   OH230714   6.600   2.672   8.089  0.1916 -0.0781  0.0850
 3052TIP3    H130715   6.564   2.633   8.010  1.1626 -2.0215  0.5350
 3052TIP3    H230716   6.687   2.704   8.063  0.4469 -0.5741  0.3178
 3053TIP3   OH230717   6.518   4.938   7.215  0.0619  0.2883 -0.2998
 3053TIP3    H130718   6.540   4.872   7.281 -0.8433  0.7273  0.4659
 3053TIP3    H230719   6.603   4.969   7.183  0.5544  0.8828  1.4850
 3054TIP3   OH230720   0.972   0.914   1.615  0.0698 -0.4428  0.5972
 3054TIP3    H130721   1.038   0.936   1.682 -0.5798 -1.5722  1.6536
 3054TIP3    H230722   1.021   0.915   1.533  1.2981 -0.7622  1.2936
 3055TIP3   OH230723   2.357   6.092   6.288 -0.5800 -0.2620  0.4828
 3055TIP3    H130724   2.346   5.999   6.308 -1.8882  0.0503  1.2919
 3055TIP3    H230725   2.295   6.109   6.217  0.4793 -0.2354 -0.4763
 3056TIP3   OH230726   6.003   6.383   0.381  0.6593  0.1480  0.4539
 3056TIP3    H130727   6.057   6.457   0.354 -0.4914  0.3106 -1.5674
 3056TIP3    H230728   6.062   6.307   0.376  1.4637  0.7017  1.1787
 3057TIP3   OH230729   6.424   6.114   0.652 -0.2397 -0.3666  0.1120
 3057TIP3    H130730   6.339   6.099   0.694 -0.2409  0.6505  0.4920
 3057TIP3    H230731   6.468   6.029   0.659 -1.5293 -1.1548 -0.8417
 3058TIP3   OH230732   5.110   4.601   7.859 -0.5535  0.0957  1.0250
 3058TIP3    H130733   5.052   4.568   7.927  0.2066 -0.8623  1.2334
 3058TIP3    H230734   5.166   4.527   7.838 -0.3585  0.5718 -0.1998
 3059TIP3   OH230735   5.126   1.376   7.833  0.2520  0.2792 -0.1588
 3059TIP3    H130736   5.141   1.460   7.875 -1.1342  1.1079 -1.2472
 3059TIP3    H230737   5.062   1.332   7.890  0.4813  0.2190  0.0568
 3060TIP3   OH230738   0.461   3.980   6.697  0.4052  0.5203 -0.1811
 3060TIP3    H130739   0.399   3.907   6.702  0.5946  0.3825  0.1661
 3060TIP3    H230740   0.486   3.984   6.605  0.3513  0.1842 -0.2112
 3061TIP3   OH230741   6.128   3.031   7.856  0.3401  0.0254 -1.0489
 3061TIP3    H130742   6.064   3.051   7.787  0.5307  2.7781 -0.5346
 3061TIP3    H230743   6.211   3.064   7.822  0.7966 -0.2873 -0.2551
 3062TIP3   OH230744   3.927   2.022   1.460  0.6768 -0.1048  0.2033
 3062TIP3    H130745   4.011   2.067   1.462 -0.5033  2.3584 -1.2018
 3062TIP3    H230746   3.889   2.039   1.546  1.1490 -0.3064  0.4565
 3063TIP3   OH230747   6.913   5.763   0.679  0.1093 -0.3312 -0.3582
 3063TIP3    H130748   6.862   5.728   0.607 -1.9313 -1.9463  1.7209
 3063TIP3    H230749   6.867   5.843   0.705  0.7051  0.1230 -0.6779
 3064TIP3   OH230750   1.141   2.853   8.159  0.1623  0.4438  0.0063
 3064TIP3    H130751   1.071   2.912   8.188  2.9636  2.7312  2.7582
 3064TIP3    H230752   1.143   2.864   8.064 -1.5735  2.2316  0.1091
 3065TIP3   OH230753   3.479   6.384   0.468  0.5474  0.1956  0.0321
 3065TIP3    H130754   3.523   6.436   0.535  0.3623  0.8943 -0.3756
 3065TIP3    H230755   3.447   6.449   0.404  0.2415 -0.4108 -0.4448
 3066TIP3   OH230756   4.771   6.964   8.195 -0.0183 -0.4832 -0.5055
 3066TIP3    H130757   4.749   6.874   8.170 -1.7968 -0.6002  1.1850
 3066TIP3    H230758   4.748   7.016   8.118 -0.3136 -1.3483 -1.0191
 3067TIP3   OH230759   4.902   6.798   6.340  0.4465  0.6885 -0.1059
 3067TIP3    H130760   4.958   6.730   6.302  1.7802  2.0533 -0.6858
 3067TIP3    H230761   4.930   6.879   6.297 -2.8054  1.3183 -1.3253
 3068TIP3   OH230762   6.418   6.303   8.118 -0.2135 -0.6748 -0.2801
 3068TIP3    H130763   6.510   6.307   8.144 -0.7829 -1.1600  2.0463
 3068TIP3    H230764   6.408   6.375   8.056  1.1194  1.2029  1.5511
 3069TIP3   OH230765   4.179   4.788   0.885  0.2734 -0.4168  0.6139
 3069TIP3    H130766   4.111   4.844   0.847 -0.6686 -2.5129 -0.9986
 3069TIP3    H230767   4.260   4.819   0.846 -0.0987  0.4679  0.5225
 3070TIP3   OH230768   1.282   5.132   8.184 -0.5138 -0.1728 -0.0714
 3070TIP3    H130769   1.236   5.056   8.149  0.3042  0.2671 -2.2530
 3070TIP3    H230770   1.213   5.197   8.198 -1.1062 -0.9906  1.0337
 3071TIP3   OH230771   5.146   2.563   6.762 -0.0646 -0.0031 -0.1516
 3071TIP3    H130772   5.195   2.495   6.808  0.3069  1.2689  1.4368
 3071TIP3    H230773   5.159   2.544   6.670 -1.2907 -2.9931  0.1965
 3072TIP3   OH230774   5.190   3.458   6.775 -0.1669  0.1445  0.0552
 3072TIP3    H130775   5.248   3.422   6.708  0.0468  0.0463  0.2924
 3072TIP3    H230776   5.177   3.387   6.837 -0.0479  0.3559  0.3250
 3073TIP3   OH230777   2.049   2.465   6.854 -0.1736  0.2739  0.4143
 3073TIP3    H130778   2.004   2.521   6.790 -2.7455 -1.5370  0.4536
 3073TIP3    H230779   2.036   2.376   6.820  1.8209 -0.4989  1.4945
 3074TIP3   OH230780   1.272   4.187   7.897  0.3537 -0.9694 -0.1140
 3074TIP3    H130781   1.230   4.116   7.947 -1.3529  0.0360 -0.0445
 3074TIP3    H230782   1.268   4.263   7.955  0.6880 -0.4161 -0.8085
 3075TIP3   OH230783   6.069   0.259   7.147  0.2567  0.3577 -0.0068
 3075TIP3    H130784   6.000   0.205   7.185 -0.5597  0.3483 -1.4187
 3075TIP3    H230785   6.042   0.349   7.167  0.8903  0.3082  1.1430
 3076TIP3   OH230786   5.504   4.587   8.157  0.2396  0.1610 -0.3479
 3076TIP3    H130787   5.493   4.503   8.113 -0.5635  0.0995 -0.0456
 3076TIP3    H230788   5.415   4.613   8.182  0.4670  1.1330 -0.5001
 3077TIP3   OH230789   6.525   1.897   0.557 -0.6974  0.6905 -0.1830
 3077TIP3    H130790   6.432   1.921   0.555 -0.5970  1.0740 -1.1642
 3077TIP3    H230791   6.571   1.977   0.530 -0.1262  0.3304 -0.3038
 3078TIP3   OH230792   1.856   6.764   1.478  0.1310  0.3478  0.1304
 3078TIP3    H130793   1.916   6.729   1.543 -1.4116 -1.2607  0.7799
 3078TIP3    H230794   1.818   6.841   1.521 -0.4999 -0.4050  0.9763
 3079TIP3   OH230795   6.761   6.575   0.301 -0.2467 -0.0066 -0.7193
 3079TIP3    H130796   6.807   6.529   0.231 -1.4756 -0.9033 -0.9796
 3079TIP3    H230797   6.675   6.594   0.263 -1.4763 -1.8081  0.9631
 3080TIP3   OH230798   3.580   6.854   2.194  0.6297  0.3705 -0.5739
 3080TIP3    H130799   3.578   6.946   2.219 -1.9542  0.3253 -0.3484
 3080TIP3    H230800   3.561   6.854   2.100  0.6313  0.0722 -0.5774
 3081TIP3   OH230801   4.357   5.578   1.867  0.3515  0.1044 -0.4714
 3081TIP3    H130802   4.451   5.590   1.882  0.6708 -1.4539 -1.0230
 3081TIP3    H230803   4.319   5.664   1.884  1.7608  0.5551  0.6015
 3082TIP3   OH230804   1.664   2.335   6.814  0.5360  0.4840  0.6655
 3082TIP3    H130805   1.607   2.404   6.847 -0.9995 -1.6547  2.7718
 3082TIP3    H230806   1.618   2.300   6.738  0.2449  0.4011  0.8769
 3083TIP3   OH230807   2.346   3.019   6.472  0.1632 -0.0881 -0.2683
 3083TIP3    H130808   2.441   3.024   6.479  0.1818 -0.1336 -0.4747
 3083TIP3    H230809   2.328   3.039   6.380  0.1978 -3.2496 -1.0679
 3084TIP3   OH230810   3.807   5.151   6.867  0.2755 -0.5981 -0.3434
 3084TIP3    H130811   3.889   5.117   6.904  1.1120  1.9476  0.3378
 3084TIP3    H230812   3.834   5.194   6.785  0.0173  1.7955  0.7334
 3085TIP3   OH230813   5.263   5.995   2.225 -0.8258  0.2648  0.1057
 3085TIP3    H130814   5.170   5.983   2.205 -0.5363 -1.7369 -0.2070
 3085TIP3    H230815   5.292   5.909   2.256  0.2267  1.5663  3.1612
 3086TIP3   OH230816   6.510   6.593   0.844  0.5500 -0.1112  0.8157
 3086TIP3    H130817   6.458   6.518   0.872 -0.2063  0.6201  1.4570
 3086TIP3    H230818   6.452   6.642   0.786  0.1597  1.1529  2.1802
 3087TIP3   OH230819   5.426   4.627   6.479  0.3849 -0.4427  0.3493
 3087TIP3    H130820   5.391   4.707   6.441 -0.1239 -0.4129  0.8584
 3087TIP3    H230821   5.499   4.602   6.422 -0.1270 -0.2064 -0.4123
 3088TIP3   OH230822   0.084   1.734   7.957  0.0839  0.1351  0.8735
 3088TIP3    H130823   0.074   1.829   7.952  0.1843  0.0752 -1.7872
 3088TIP3    H230824   0.002   1.699   7.921  1.6988 -0.6352 -2.4185
 3089TIP3   OH230825   3.871   0.974   0.399 -0.5439  0.5502  0.5245
 3089TIP3    H130826   3.819   0.924   0.336  0.0763  1.8671 -1.1274
 3089TIP3    H230827   3.962   0.960   0.371 -0.2419  1.1070  1.1886
 3090TIP3   OH230828   1.056   3.230   8.217  0.2477 -0.4622 -0.3135
 3090TIP3    H130829   1.043   3.283   8.139  0.4651 -2.5105 -1.8022
 3090TIP3    H230830   0.998   3.155   8.206  0.5345 -0.9752  1.3386
 3091TIP3   OH230831   0.542   1.848   0.190 -0.3141 -0.1413  0.3623
 3091TIP3    H130832   0.505   1.884   0.110  1.3629  1.2549  0.1732
 3091TIP3    H230833   0.564   1.924   0.244 -0.7666 -1.0297  1.8692
 3092TIP3   OH230834   2.501   3.367   6.647  0.2652  0.2794  0.7993
 3092TIP3    H130835   2.586   3.410   6.645  1.3761 -1.6583 -2.7694
 3092TIP3    H230836   2.483   3.345   6.555 -3.8279  0.0087  1.4605
 3093TIP3   OH230837   1.414   6.047   7.557 -0.0663  0.1607  0.6584
 3093TIP3    H130838   1.462   6.111   7.504  0.6790  0.1014  1.2439
 3093TIP3    H230839   1.475   5.974   7.569  0.1523  0.5663  2.3681
 3094TIP3   OH230840   0.504   6.800   7.167 -0.6848  0.3208  0.1398
 3094TIP3    H130841   0.581   6.776   7.117 -0.4913  1.4839 -0.1560
 3094TIP3    H230842   0.435   6.741   7.134 -0.5872  1.0893 -1.5746
 3095TIP3   OH230843   2.672   4.194   0.535 -0.1551 -0.0739 -0.0069
 3095TIP3    H130844   2.634   4.107   0.545 -1.7943  0.5343 -0.6289
 3095TIP3    H230845   2.721   4.190   0.453 -1.8756  0.1164 -1.0925
 3096TIP3   OH230846   3.005   1.630   0.497 -0.9063  0.3034  0.6148
 3096TIP3    H130847   3.001   1.718   0.459  1.2517  0.4023  0.4588
 3096TIP3    H230848   3.087   1.594   0.462 -1.7397 -1.7755  0.6861
 3097TIP3   OH230849   3.915   0.027   0.698  0.1465  0.2001  0.6687
 3097TIP3    H130850   3.863   0.096   0.657  1.1836  0.9567  0.5882
 3097TIP3    H230851   3.864  -0.000   0.774 -0.7019  0.4148  0.1811
 3098TIP3   OH230852   1.023   0.947   7.090  0.0212 -0.1267 -0.2192
 3098TIP3    H130853   1.036   0.881   7.158 -1.5942 -1.1361 -0.8578
 3098TIP3    H230854   0.933   0.976   7.101  0.1620  0.6884 -1.0898
 3099TIP3   OH230855   1.370   3.212   7.400 -0.0534  0.5246 -0.5466
 3099TIP3    H130856   1.388   3.135   7.345  1.2945  1.3212 -1.2666
 3099TIP3    H230857   1.332   3.176   7.480  1.8745 -1.0271 -0.2740
 3100TIP3   OH230858   2.566   6.709   0.604  0.2881 -0.2577 -0.4217
 3100TIP3    H130859   2.518   6.705   0.687 -0.6333  1.7565 -0.7984
 3100TIP3    H230860   2.658   6.713   0.630  0.1676 -1.9646  0.3941
 3101TIP3   OH230861   1.592   1.230   7.860  0.2474  0.0852  0.2370
 3101TIP3    H130862   1.588   1.325   7.864 -0.3189  0.0356  3.1053
 3101TIP3    H230863   1.529   1.206   7.791  0.6829  1.7661 -0.7794
 3102TIP3   OH230864   3.322   3.063   2.061  0.2333  0.5253 -0.3313
 3102TIP3    H130865   3.251   3.127   2.060 -0.8688 -0.6456  0.2595
 3102TIP3    H230866   3.375   3.086   2.137 -0.0729  0.8256 -0.2079
 3103TIP3   OH230867   5.578   2.103   7.180  0.6614  0.0139 -0.1352
 3103TIP3    H130868   5.613   2.031   7.129  1.9028  0.3226  0.2581
 3103TIP3    H230869   5.531   2.061   7.252 -0.5258 -0.4104 -1.1162
 3104TIP3   OH230870   2.750   3.855   6.411 -0.0770 -0.3669  0.2417
 3104TIP3    H130871   2.765   3.840   6.317 -0.7436 -0.4081  0.1359
 3104TIP3    H230872   2.748   3.767   6.448  2.7968 -0.3007  0.7424
 3105TIP3   OH230873   0.873   3.366   1.769 -0.6642  0.1865 -0.3764
 3105TIP3    H130874   0.897   3.324   1.852 -1.2525 -1.7071 -1.1210
 3105TIP3    H230875   0.783   3.337   1.753  0.3116 -1.7767 -3.0127
 3106TIP3   OH230876   2.724   0.652   7.467 -0.2026  0.3984  0.2138
 3106TIP3    H130877   2.659   0.700   7.518  1.4130  0.8209  1.9982
 3106TIP3    H230878   2.680   0.571   7.442 -3.1855  2.7454 -3.2464
 3107TIP3   OH230879   6.210   5.394   0.060  0.1758 -0.0208 -0.3678
 3107TIP3    H130880   6.206   5.441  -0.024 -1.7909 -0.1718 -0.4091
 3107TIP3    H230881   6.162   5.313   0.044  0.1441 -0.2417  0.7939
 3108TIP3   OH230882   4.067   1.809   0.836 -0.0364  0.1880 -0.1610
 3108TIP3    H130883   4.032   1.720   0.840  0.1645  0.1363  0.8859
 3108TIP3    H230884   4.012   1.854   0.772  0.4797 -0.9439 -1.4178
 3109TIP3   OH230885   4.147   0.084   7.082  0.1579 -0.1374  0.3913
 3109TIP3    H130886   4.214   0.075   7.149  1.2605  0.0455 -0.6575
 3109TIP3    H230887   4.169   0.016   7.017  0.5762  1.2608 -0.9836
 3110TIP3   OH230888   2.386   6.550   7.123 -0.1089 -0.6863 -0.2798
 3110TIP3    H130889   2.466   6.552   7.071  0.3279  0.8997  0.3945
 3110TIP3    H230890   2.317   6.575   7.062  0.0779 -0.9087 -0.5831
 3111TIP3   OH230891   4.306   4.736   6.247  0.1949  0.1296 -0.0254
 3111TIP3    H130892   4.324   4.760   6.156  1.9044  0.5410  0.3934
 3111TIP3    H230893   4.289   4.642   6.245  0.0842  0.1598 -0.7751
 3112TIP3   OH230894   2.375   4.061   0.239 -0.3551 -0.5702 -0.3326
 3112TIP3    H130895   2.398   4.138   0.185 -1.3270  1.4527  1.9555
 3112TIP3    H230896   2.458   4.030   0.273 -0.0752  0.4407 -0.0662
 3113TIP3   OH230897   0.709   2.029   0.296 -0.5357  0.2465  0.2121
 3113TIP3    H130898   0.715   2.041   0.391  1.8553 -0.5895  0.2243
 3113TIP3    H230899   0.712   2.118   0.261  2.0328  0.4816  0.8469
 3114TIP3   OH230900   5.610   5.682   7.032 -0.6974 -0.2797 -0.0558
 3114TIP3    H130901   5.574   5.601   7.069 -2.1105  0.2439 -0.2150
 3114TIP3    H230902   5.552   5.702   6.959  0.2503  0.3409 -0.6550
 3115TIP3   OH230903   6.227   0.790   1.089 -0.1882  0.6401 -0.0256
 3115TIP3    H130904   6.210   0.711   1.038 -1.3171 -0.3715  1.8008
 3115TIP3    H230905   6.322   0.792   1.099  0.1242  1.1160 -2.4324
 3116TIP3   OH230906   2.049   3.242   1.173 -0.5208  0.2551 -0.1186
 3116TIP3    H130907   2.103   3.249   1.095  0.5435 -0.3073  0.5466
 3116TIP3    H230908   2.002   3.159   1.163 -3.3910  1.9110 -1.9530
 3117TIP3   OH230909   1.568   5.807   6.971  0.0608  0.1351 -0.5859
 3117TIP3    H130910   1.594   5.753   7.046 -0.1564  0.8977  0.0607
 3117TIP3    H230911   1.616   5.771   6.897  1.7545  0.5303  0.2818
 3118TIP3   OH230912   3.679   1.365   5.989 -0.4407 -0.1715  0.0026
 3118TIP3    H130913   3.774   1.364   6.003 -0.3257  0.3001 -0.6984
 3118TIP3    H230914   3.653   1.456   6.004 -0.7558 -0.2673  0.0401
 3119TIP3   OH230915   1.553   4.493   7.017 -0.1592  0.0008  0.1198
 3119TIP3    H130916   1.462   4.480   6.990  0.2996 -1.7955 -0.6972
 3119TIP3    H230917   1.604   4.471   6.939  1.0251 -0.2887  0.9575
 3120TIP3   OH230918   5.511   6.680   0.422 -0.1768  0.5312  0.5422
 3120TIP3    H130919   5.440   6.639   0.472 -0.0092 -0.4318  0.0316
 3120TIP3    H230920   5.590   6.633   0.449  0.0945  0.8309  0.2835
 3121TIP3   OH230921   0.442   0.322   6.785 -0.5306  0.0601 -0.4271
 3121TIP3    H130922   0.464   0.392   6.723  0.4817  1.2410  1.1773
 3121TIP3    H230923   0.527   0.286   6.811 -0.7856  0.7425  1.5128
 3122TIP3   OH230924   1.942   4.599   2.358  0.2772  0.4975  0.3829
 3122TIP3    H130925   1.919   4.633   2.272  1.1087 -1.8766 -0.8730
 3122TIP3    H230926   1.897   4.656   2.420  0.8614  3.2167 -1.5383
 3123TIP3   OH230927   6.308   3.004   8.122 -0.2575 -0.6458 -0.4306
 3123TIP3    H130928   6.293   3.091   8.087  0.1365  0.5250  2.0785
 3123TIP3    H230929   6.220   2.967   8.133 -0.6453  0.6414  1.1762
 3124TIP3   OH230930   0.888   1.206   0.651  0.5833  0.3949 -0.1720
 3124TIP3    H130931   0.977   1.232   0.627  0.1641 -1.1997 -4.3203
 3124TIP3    H230932   0.832   1.275   0.616  0.0430 -0.7226 -1.6225
 3125TIP3   OH230933   0.425   5.687   0.282 -0.0893 -0.3623 -0.1974
 3125TIP3    H130934   0.413   5.733   0.365  0.3093 -1.6500  0.6042
 3125TIP3    H230935   0.344   5.638   0.269  0.3077 -1.1143  0.0708
 3126TIP3   OH230936   5.768   2.195   7.717 -0.2214 -0.1447  0.2719
 3126TIP3    H130937   5.767   2.185   7.813 -2.9656 -1.4603  0.2155
 3126TIP3    H230938   5.744   2.287   7.703  3.1460  0.9493  0.7490
 3127TIP3   OH230939   4.004   0.205   0.303 -0.3813 -0.0455 -1.0079
 3127TIP3    H130940   4.080   0.235   0.254 -0.8545  0.9966 -1.1418
 3127TIP3    H230941   4.032   0.124   0.345  0.6849  0.1418 -1.3333
 3128TIP3   OH230942   0.357   3.815   7.804 -0.4531  0.0395 -0.2757
 3128TIP3    H130943   0.428   3.772   7.850 -0.1571 -1.1057 -1.7330
 3128TIP3    H230944   0.302   3.744   7.771 -0.0217  0.6895 -2.6446
 3129TIP3   OH230945   1.477   3.261   6.905 -0.3463  0.4603 -0.8149
 3129TIP3    H130946   1.560   3.219   6.886  0.0145  1.5921 -1.8681
 3129TIP3    H230947   1.451   3.302   6.822 -2.1320 -0.1647 -0.6160
 3130TIP3   OH230948   6.983   0.193   6.902 -0.2359  0.3288  0.5398
 3130TIP3    H130949   7.075   0.202   6.877 -0.1379 -0.3539  0.6246
 3130TIP3    H230950   6.971   0.259   6.971  0.1720  0.4665  0.4855
 3131TIP3   OH230951   2.361   1.603   6.528 -0.2833 -0.2330  0.0621
 3131TIP3    H130952   2.384   1.687   6.490 -0.3376  0.3975  1.3635
 3131TIP3    H230953   2.291   1.623   6.591 -0.1096 -1.2025  0.5867
 3132TIP3   OH230954   2.213   2.391   1.396  0.5068 -0.5623 -0.0528
 3132TIP3    H130955   2.304   2.417   1.408  0.2802  0.4214 -0.3546
 3132TIP3    H230956   2.188   2.354   1.481  0.5705  1.1569  0.7601
 3133TIP3   OH230957   2.735   4.196   7.483 -0.1918 -0.0520  0.4274
 3133TIP3    H130958   2.718   4.203   7.389  0.2508  0.8563  0.4054
 3133TIP3    H230959   2.759   4.104   7.496 -0.9222 -0.3473 -0.2299
 3134TIP3   OH230960   3.449   0.878   1.376  0.0238  0.0262 -0.5297
 3134TIP3    H130961   3.445   0.896   1.282 -1.1280  1.0883 -0.3055
 3134TIP3    H230962   3.360   0.892   1.407  0.7527  1.5857  1.0250
 3135TIP3   OH230963   1.218   0.272   7.208 -0.2056 -0.1555  0.0122
 3135TIP3    H130964   1.287   0.338   7.212  0.5359 -0.9282  0.0922
 3135TIP3    H230965   1.231   0.227   7.125 -0.3310 -0.5992  0.2258
 3136TIP3   OH230966   2.267   3.563   7.612  0.2941  0.1780 -0.0307
 3136TIP3    H130967   2.214   3.638   7.584 -0.0843 -0.3588 -0.8086
 3136TIP3    H230968   2.203   3.492   7.622  0.7854 -0.3303 -0.4224
 3137TIP3   OH230969   2.806   6.557   6.467 -0.0386  0.3921 -0.2924
 3137TIP3    H130970   2.718   6.557   6.431 -0.2052 -0.5691  0.0624
 3137TIP3    H230971   2.862   6.584   6.395 -0.6982  1.9126 -0.2671
 3138TIP3   OH230972   4.473   0.416   7.095  0.1946 -0.1072 -0.4025
 3138TIP3    H130973   4.422   0.496   7.079 -0.4050 -0.0180  1.6865
 3138TIP3    H230974   4.547   0.445   7.147  0.8873 -0.6874 -1.0393
 3139TIP3   OH230975   1.058   6.760   7.983  0.6167  0.0430  0.2899
 3139TIP3    H130976   1.069   6.848   7.945  1.1103 -0.2067 -0.1540
 3139TIP3    H230977   1.119   6.758   8.056  0.0156  0.3512  0.8146
 3140TIP3   OH230978   0.665   5.858   1.025 -0.0371  0.6634  0.1156
 3140TIP3    H130979   0.745   5.813   0.995 -0.6642  0.2329 -0.9814
 3140TIP3    H230980   0.635   5.806   1.099 -1.0907 -1.2012 -1.5069
 3141TIP3   OH230981   1.600   2.580   1.388  0.2656  0.4336 -0.2472
 3141TIP3    H130982   1.626   2.535   1.467  0.3777  1.7077  0.4677
 3141TIP3    H230983   1.678   2.580   1.332  0.6306  0.8027  0.2577
 3142TIP3   OH230984   4.540   4.768   1.269  0.2848  0.0605  0.2418
 3142TIP3    H130985   4.620   4.820   1.271 -0.5217  1.3869 -0.4449
 3142TIP3    H230986   4.498   4.791   1.186 -0.6636 -0.8464  0.4434
 3143TIP3   OH230987   6.153   6.212   0.701 -0.3755 -0.1031  0.0852
 3143TIP3    H130988   6.081   6.178   0.754 -2.4450  0.1762 -2.3733
 3143TIP3    H230989   6.138   6.306   0.698 -0.1392 -0.0819 -0.7220
 3144TIP3   OH230990   1.112   4.720   6.695 -0.4243  0.5602 -0.1851
 3144TIP3    H130991   1.192   4.769   6.717 -0.5923  1.7555 -2.0738
 3144TIP3    H230992   1.047   4.787   6.676 -0.9512 -0.3663 -1.8789
 3145TIP3   OH230993   3.898   0.581   7.294 -0.2845  0.6760  1.1598
 3145TIP3    H130994   3.971   0.637   7.264  0.8214 -0.2740  2.0083
 3145TIP3    H230995   3.820   0.634   7.276  0.5146  1.3775 -0.5955
 3146TIP3   OH230996   2.457   1.250   6.812  0.0074  0.8959  0.0419
 3146TIP3    H130997   2.384   1.216   6.862  0.2512  0.6243  0.2144
 3146TIP3    H230998   2.450   1.207   6.726 -0.9840  2.0976 -0.5096
 3147TIP3   OH230999   3.263   0.356   1.427  0.5595  0.3939 -0.4048
 3147TIP3    H131000   3.296   0.398   1.507 -0.5038  0.7556 -0.1364
 3147TIP3    H231001   3.311   0.274   1.421  0.5970  0.3256  0.6620
 3148TIP3   OH231002   4.654   2.790   1.266  0.5987 -0.3112 -0.8074
 3148TIP3    H131003   4.593   2.718   1.280  1.6259 -1.1498 -0.5470
 3148TIP3    H231004   4.671   2.824   1.354 -0.5511  0.8444 -0.9989
 3149TIP3   OH231005   1.090   3.669   8.139 -0.5247 -0.6196 -0.3357
 3149TIP3    H131006   1.026   3.711   8.081 -0.5508 -0.1742  0.0146
 3149TIP3    H231007   1.059   3.688   8.227 -0.0924 -0.6926 -0.1659
 3150TIP3   OH231008   2.596   1.139   0.994  0.1382  0.1657 -0.9869
 3150TIP3    H131009   2.537   1.205   0.957 -0.3845 -0.5612 -1.4870
 3150TIP3    H231010   2.682   1.161   0.959  0.0154  0.7348 -0.9426
 3151TIP3   OH231011   3.519   4.322   1.152 -0.3286 -0.0254 -0.0229
 3151TIP3    H131012   3.494   4.410   1.180  0.4313  0.2291 -0.1087
 3151TIP3    H231013   3.477   4.310   1.067 -0.1112  0.4103 -0.1921
 3152TIP3   OH231014   0.775   4.683   7.710 -0.0495 -0.6771  0.2667
 3152TIP3    H131015   0.820   4.649   7.632 -1.2974  0.2251 -0.8886
 3152TIP3    H231016   0.755   4.604   7.761 -2.9414 -1.8648 -2.3771
 3153TIP3   OH231017   4.228   4.169   6.370 -0.3785  0.1706  0.0903
 3153TIP3    H131018   4.159   4.126   6.320  0.6267  0.0427 -1.2313
 3153TIP3    H231019   4.306   4.116   6.355  0.6701  1.8657 -0.7826
 3154TIP3   OH231020   2.933   4.775   1.119 -0.0056  0.0782 -0.1651
 3154TIP3    H131021   2.880   4.835   1.172 -0.3144  0.2811 -0.7023
 3154TIP3    H231022   2.992   4.831   1.070  0.4131 -0.1231  0.1018
 3155TIP3   OH231023   6.697   2.999   7.459 -0.2854 -0.3213 -0.4049
 3155TIP3    H131024   6.702   2.944   7.380 -2.0208 -0.1545 -0.6894
 3155TIP3    H231025   6.667   3.084   7.427 -0.7137 -0.1641  0.3823
 3156TIP3   OH231026   3.084   3.927   7.241 -0.4430 -0.1583  0.3525
 3156TIP3    H131027   3.084   3.995   7.309  2.2406 -0.1047  0.4135
 3156TIP3    H231028   3.075   3.845   7.289 -0.0028 -0.0394  0.6426
 3157TIP3   OH231029   1.150   0.246   6.191 -0.1741 -0.1324 -0.3510
 3157TIP3    H131030   1.116   0.264   6.103 -0.8866  0.0572 -0.0354
 3157TIP3    H231031   1.099   0.301   6.249 -0.1281 -0.7215  0.2615
 3158TIP3   OH231032   2.169   2.900   0.950 -0.5524  0.8048  0.4000
 3158TIP3    H131033   2.190   2.982   0.906 -0.1978  0.8668  0.6825
 3158TIP3    H231034   2.167   2.835   0.880 -1.1579  1.1055  0.1265
 3159TIP3   OH231035   3.065   2.268   6.012  0.0259  0.5141  0.5109
 3159TIP3    H131036   3.145   2.216   6.022 -0.9592 -0.9845  0.9115
 3159TIP3    H231037   3.086   2.352   6.053  1.3280  0.0945  0.7552
 3160TIP3   OH231038   6.944   6.044   8.229  0.1018 -0.7583  0.3246
 3160TIP3    H131039   7.008   5.980   8.260  2.0743  1.6450  1.5037
 3160TIP3    H231040   6.886   6.059   8.304  0.7592  0.1176  0.6756
 3161TIP3   OH231041   0.178   3.254   5.941 -0.0873 -0.1943 -0.4374
 3161TIP3    H131042   0.138   3.180   5.987  1.9377 -0.9306  0.2640
 3161TIP3    H231043   0.197   3.317   6.011 -0.2844  0.2578 -0.7925
 3162TIP3   OH231044   1.892   5.711   1.591 -0.1678 -0.3171  0.1296
 3162TIP3    H131045   1.898   5.621   1.558 -1.2656 -0.3040 -0.1405
 3162TIP3    H231046   1.898   5.702   1.686 -0.0891 -0.6566  0.0938
 3163TIP3   OH231047   4.714   5.655   7.341  0.1671 -0.6825  0.2013
 3163TIP3    H131048   4.745   5.609   7.263  0.4402  1.3018 -0.9320
 3163TIP3    H231049   4.776   5.728   7.352 -1.5414  0.7884  0.5157
 3164TIP3   OH231050   2.634   3.098   1.077  0.1017  0.5373  0.1213
 3164TIP3    H131051   2.603   3.140   1.157  0.6222  0.8041  0.1868
 3164TIP3    H231052   2.724   3.128   1.067  0.8752 -1.4091  0.7592
 3165TIP3   OH231053   4.870   4.780   7.018  0.1661 -0.2044 -0.3836
 3165TIP3    H131054   4.958   4.769   7.052  0.1402  2.7387  0.9351
 3165TIP3    H231055   4.820   4.709   7.057  1.1532  0.3710  2.1088
 3166TIP3   OH231056   2.578   6.643   1.163 -0.6868 -0.6576  1.0286
 3166TIP3    H131057   2.656   6.698   1.158 -1.3865  0.2277 -1.1158
 3166TIP3    H231058   2.506   6.703   1.180 -0.9949 -1.4430  2.7861
 3167TIP3   OH231059   5.084   5.761   8.133 -0.0654  0.1051 -0.3329
 3167TIP3    H131060   5.149   5.691   8.140  1.1466  1.1524 -0.7350
 3167TIP3    H231061   5.135   5.839   8.110 -1.4059  1.0768 -0.1238
 3168TIP3   OH231062   6.551   1.911   6.548  0.0520  0.7128 -0.4201
 3168TIP3    H131063   6.626   1.873   6.593 -0.5790  0.3754  0.3686
 3168TIP3    H231064   6.554   1.873   6.460  1.5576  1.7203 -0.8524
 3169TIP3   OH231065   4.661   1.815   1.491 -0.2664 -0.6627  0.3415
 3169TIP3    H131066   4.592   1.857   1.439 -0.1363 -1.0179 -0.1215
 3169TIP3    H231067   4.742   1.839   1.447 -0.1204 -0.5912  0.6450
 3170TIP3   OH231068   1.736   4.865   5.925 -0.3216 -0.1438  0.2073
 3170TIP3    H131069   1.700   4.829   5.845 -0.5403 -0.1346  0.3003
 3170TIP3    H231070   1.734   4.793   5.988  2.2747 -0.9637 -0.4965
 3171TIP3   OH231071   3.908   3.585   0.467  0.3443 -0.2992  0.0690
 3171TIP3    H131072   3.900   3.564   0.560 -1.2953  1.1881  0.3010
 3171TIP3    H231073   4.002   3.583   0.451  0.5965 -1.9216  1.4133
 3172TIP3   OH231074   5.221   5.853   6.359 -0.3821  0.3290  0.2899
 3172TIP3    H131075   5.242   5.828   6.269  0.3755  2.9694 -0.3747
 3172TIP3    H231076   5.297   5.903   6.388 -0.9811  0.2488  2.0830
 3173TIP3   OH231077   0.150   4.364   0.107 -0.0803 -0.1096 -0.5839
 3173TIP3    H131078   0.189   4.351   0.021  2.1424  0.7844  0.2144
 3173TIP3    H231079   0.189   4.296   0.162 -1.0637 -0.3341 -0.1325
 3174TIP3   OH231080   1.778   1.471   0.987 -0.3586  0.7554 -0.4534
 3174TIP3    H131081   1.714   1.420   1.036 -0.2403  0.7466 -0.3072
 3174TIP3    H231082   1.803   1.542   1.046  1.6903 -0.6773  0.5491
 3175TIP3   OH231083   0.223   6.983   1.137  0.6174  0.0164 -0.5443
 3175TIP3    H131084   0.290   6.915   1.132  0.2096 -0.3955 -0.5227
 3175TIP3    H231085   0.141   6.934   1.143  0.4616  0.4658  2.0439
 3176TIP3   OH231086   5.159   4.788   7.088  0.4753  0.1504  0.0128
 3176TIP3    H131087   5.196   4.866   7.045 -0.4828 -0.3104 -1.7106
 3176TIP3    H231088   5.214   4.716   7.058 -0.7350 -0.2981 -1.1805
 3177TIP3   OH231089   6.643   4.966   1.570  0.1008  0.6047  0.2275
 3177TIP3    H131090   6.627   4.961   1.476  0.0011 -3.2771  0.2707
 3177TIP3    H231091   6.729   4.924   1.581 -0.1508  0.4734  1.8825
 3178TIP3   OH231092   3.195   6.268   7.342 -0.0017  0.3902  0.1708
 3178TIP3    H131093   3.153   6.238   7.423 -0.0904 -0.9084 -0.3309
 3178TIP3    H231094   3.240   6.349   7.367 -0.1727  0.1085  1.4734
 3179TIP3   OH231095   2.404   2.689   7.079 -0.5743 -0.7571  0.7143
 3179TIP3    H131096   2.409   2.594   7.091 -0.1344 -0.6329  1.6341
 3179TIP3    H231097   2.496   2.718   7.078 -0.7008 -0.3544  0.2704
 3180TIP3   OH231098   3.318   3.511   1.987  0.5028 -1.0645  0.0937
 3180TIP3    H131099   3.284   3.584   2.039 -1.4926 -0.8340 -1.4129
 3180TIP3    H231100   3.405   3.494   2.023  0.2219  0.7439  1.7810
 3181TIP3   OH231101   3.848   5.458   2.052  0.2137  0.2365 -0.0248
 3181TIP3    H131102   3.851   5.509   2.133  1.2793  1.6046 -0.8838
 3181TIP3    H231103   3.912   5.388   2.064 -0.5704 -0.3548  0.7967
 3182TIP3   OH231104   7.042   5.920   7.701 -0.2263  0.0769  0.3618
 3182TIP3    H131105   7.129   5.937   7.738  0.6214 -0.5638 -1.2296
 3182TIP3    H231106   7.010   6.006   7.674 -0.1336  0.3279  1.0302
 3183TIP3   OH231107   3.463   4.134   8.142 -0.5217  0.7767 -0.1274
 3183TIP3    H131108   3.504   4.077   8.077  0.2265 -0.2255  1.1880
 3183TIP3    H231109   3.392   4.082   8.179 -0.7672  1.2327  0.0589
 3184TIP3   OH231110   5.245   3.584   2.065 -0.1124  0.7291 -0.0897
 3184TIP3    H131111   5.207   3.501   2.038 -1.7942  0.9677  1.3440
 3184TIP3    H231112   5.312   3.560   2.130  0.5589  0.4272 -0.8854
 3185TIP3   OH231113   3.280   6.312   1.760 -0.2100 -0.2180 -0.5954
 3185TIP3    H131114   3.279   6.406   1.745 -1.8797 -0.5522 -3.3427
 3185TIP3    H231115   3.214   6.277   1.700  2.2653 -3.3929 -1.8139
 3186TIP3   OH231116   6.803   0.493   0.612  0.0108  0.4071 -0.5430
 3186TIP3    H131117   6.783   0.412   0.566 -0.6396 -0.3444  0.9763
 3186TIP3    H231118   6.718   0.538   0.619  0.4366  1.4748 -1.7758
 3187TIP3   OH231119   0.963   1.521   6.312 -0.1073  0.4579  0.0168
 3187TIP3    H131120   1.056   1.541   6.303  0.3429 -1.4725 -0.1884
 3187TIP3    H231121   0.958   1.465   6.390 -0.8890 -0.4529 -0.6626
 3188TIP3   OH231122   2.797   5.830   8.061  0.1849  0.3606 -0.3072
 3188TIP3    H131123   2.767   5.842   8.151 -2.5113 -0.1194 -1.0505
 3188TIP3    H231124   2.875   5.885   8.055  1.1527 -0.5118  2.6160
 3189TIP3   OH231125   6.279   0.345   0.580  0.4609 -0.3773  0.3375
 3189TIP3    H131126   6.221   0.311   0.649 -2.4966  1.2918 -1.1406
 3189TIP3    H231127   6.295   0.436   0.605  1.2789 -0.4013 -0.0491
 3190TIP3   OH231128   0.142   3.248   6.328 -0.3886  0.0869 -0.0502
 3190TIP3    H131129   0.119   3.165   6.286 -1.0448  0.7361 -1.0249
 3190TIP3    H231130   0.236   3.243   6.343  0.2169  0.4420 -3.0885
 3191TIP3   OH231131   2.886   1.598   7.686 -0.2614 -0.3350  0.2223
 3191TIP3    H131132   2.977   1.614   7.660 -1.0322  1.4441 -1.6766
 3191TIP3    H231133   2.837   1.599   7.603 -2.5253  2.7268  1.4120
 3192TIP3   OH231134   3.225   3.795   8.166 -0.5709 -0.3129 -0.4905
 3192TIP3    H131135   3.247   3.797   8.073 -1.3862  2.9530 -0.7476
 3192TIP3    H231136   3.308   3.783   8.211 -0.2605 -2.8326 -1.5667
 3193TIP3   OH231137   3.589   1.055   8.001 -0.2567 -0.5881 -0.1488
 3193TIP3    H131138   3.540   0.985   7.958 -1.2137 -0.5244  0.8109
 3193TIP3    H231139   3.608   1.117   7.931  1.2389 -2.1040 -1.1906
 3194TIP3   OH231140   5.613   3.325   0.515  0.0579 -0.5707  0.5509
 3194TIP3    H131141   5.555   3.388   0.557 -0.3419 -0.4763 -0.1330
 3194TIP3    H231142   5.560   3.284   0.447 -0.0755 -2.5584  1.7837
 3195TIP3   OH231143   3.324   3.496   0.724 -0.2107 -0.2012  0.3913
 3195TIP3    H131144   3.389   3.566   0.732  1.6916 -1.6262 -1.4706
 3195TIP3    H231145   3.368   3.418   0.756 -0.2170 -1.5900 -2.6359
 3196TIP3   OH231146   3.136   2.741   0.671 -0.5181  0.1899 -0.4465
 3196TIP3    H131147   3.072   2.718   0.603 -0.0306 -0.0865 -0.8247
 3196TIP3    H231148   3.221   2.717   0.632 -0.3094 -0.9462  0.6614
 3197TIP3   OH231149   3.282   5.141   5.913  0.2486 -0.2988 -0.0638
 3197TIP3    H131150   3.312   5.189   5.991 -1.1926 -0.4409  0.6155
 3197TIP3    H231151   3.207   5.192   5.881  1.4042  0.3043 -1.9887
 3198TIP3   OH231152   6.103   0.867   0.387  0.4342 -0.1179  0.0682
 3198TIP3    H131153   6.125   0.950   0.346 -1.4182  0.5135  0.2544
 3198TIP3    H231154   6.025   0.886   0.440  2.7355 -0.8235  4.0970
 3199TIP3   OH231155   3.816   6.992   0.931  0.5048  0.2591 -0.7202
 3199TIP3    H131156   3.875   6.949   0.993  0.2924  0.7502 -0.1718
 3199TIP3    H231157   3.780   7.066   0.979 -0.0046  0.3902 -1.2888
 3200TIP3   OH231158   0.865   2.123   1.101 -0.3228  0.4004  0.0373
 3200TIP3    H131159   0.887   2.075   1.021 -1.1768  1.2062 -0.7230
 3200TIP3    H231160   0.927   2.195   1.103  0.4912 -0.3114  0.7819
 3201TIP3   OH231161   2.063   3.965   6.903  0.0704  0.1210 -0.2162
 3201TIP3    H131162   2.118   3.917   6.842 -1.3266  1.6353 -2.8754
 3201TIP3    H231163   2.045   3.903   6.974  1.8209 -1.7146 -1.2796
 3202TIP3   OH231164   3.629   1.476   6.303 -0.0479  0.2337  0.5308
 3202TIP3    H131165   3.573   1.403   6.278 -0.0676  0.0806  1.0268
 3202TIP3    H231166   3.571   1.552   6.304 -1.2736 -0.4962  4.9788
 3203TIP3   OH231167   3.448   2.462   7.165 -1.2693  0.4700 -0.1903
 3203TIP3    H131168   3.418   2.387   7.114  0.1513 -0.2922  0.0425
 3203TIP3    H231169   3.412   2.447   7.253 -0.8200 -0.0568 -0.0926
 3204TIP3   OH231170   2.037   5.375   0.800 -0.0578 -0.2828  0.2720
 3204TIP3    H131171   2.125   5.410   0.808 -0.3733  0.2836  1.4356
 3204TIP3    H231172   1.994   5.396   0.883 -1.8208  0.9291 -0.8524
 3205TIP3   OH231173   0.236   3.811   1.784 -0.3332 -0.3474 -0.6594
 3205TIP3    H131174   0.272   3.746   1.844 -1.9948 -1.7729 -1.1525
 3205TIP3    H231175   0.248   3.773   1.697 -2.3877 -0.5684 -0.8760
 3206TIP3   OH231176   2.973   4.426   0.473  0.0009 -0.0967 -0.0116
 3206TIP3    H131177   2.924   4.504   0.447 -2.6708 -1.1239  1.4697
 3206TIP3    H231178   2.921   4.353   0.439  1.3696 -1.2683  0.3213
 3207TIP3   OH231179   0.297   5.578   7.202  0.5141  0.3020 -0.0070
 3207TIP3    H131180   0.366   5.565   7.137  0.0782 -1.5746 -0.1457
 3207TIP3    H231181   0.229   5.627   7.155  0.8030  0.2069 -0.5350
 3208TIP3   OH231182   0.521   0.903   7.081 -0.2344  0.4584  0.1245
 3208TIP3    H131183   0.485   0.892   7.169  0.7111  1.4627  0.6788
 3208TIP3    H231184   0.473   0.977   7.044 -0.8278 -0.1461 -0.3185
 3209TIP3   OH231185   5.330   0.206   0.265 -0.0859 -0.1620  0.8044
 3209TIP3    H131186   5.322   0.298   0.240 -1.6567 -0.3033  0.6397
 3209TIP3    H231187   5.421   0.195   0.292  1.0179  0.6701 -2.2367
 3210TIP3   OH231188   0.156   0.951   1.545 -0.0176  0.2509 -0.5333
 3210TIP3    H131189   0.238   0.908   1.569 -0.1151 -0.1068 -0.8517
 3210TIP3    H231190   0.096   0.880   1.524 -1.1979  0.3638  2.1096
 3211TIP3   OH231191   3.248   3.362   7.664 -0.5453  0.2374 -0.9421
 3211TIP3    H131192   3.253   3.349   7.570 -0.8231  0.8416 -1.0473
 3211TIP3    H231193   3.282   3.451   7.678 -0.8813  0.3066 -0.5222
 3212TIP3   OH231194   6.022   5.072   1.672 -0.1047 -0.3401 -0.3680
 3212TIP3    H131195   6.106   5.059   1.628  0.2374 -0.8892  0.4314
 3212TIP3    H231196   6.022   5.164   1.699  0.1592 -0.2929 -0.5334
 3213TIP3   OH231197   2.540   1.801   7.326  0.6462  0.3089 -0.3372
 3213TIP3    H131198   2.482   1.758   7.389  0.2833 -1.1254 -1.6084
 3213TIP3    H231199   2.585   1.868   7.378  1.3530 -1.6719  1.7828
 3214TIP3   OH231200   3.132   3.421   0.532  0.2643  0.0016  0.1810
 3214TIP3    H131201   3.190   3.449   0.604  0.9138  0.9836 -0.6837
 3214TIP3    H231202   3.191   3.378   0.470  0.0964  1.0196 -0.7135
 3215TIP3   OH231203   3.914   0.133   7.332  0.5573 -0.6388 -0.1808
 3215TIP3    H131204   3.942   0.213   7.375 -0.5250 -0.1272 -0.3927
 3215TIP3    H231205   3.961   0.063   7.378 -1.1117 -0.2117  2.4440
 3216TIP3   OH231206   6.246   0.539   8.230 -0.3555  0.5365 -0.2990
 3216TIP3    H131207   6.223   0.446   8.235 -0.3025  0.4724 -1.1746
 3216TIP3    H231208   6.171   0.580   8.188 -0.5316  0.9596  0.4051
 3217TIP3   OH231209   4.376   0.218   8.077  0.5439  0.4077  0.3370
 3217TIP3    H131210   4.314   0.164   8.029 -1.3770  2.0405  0.8621
 3217TIP3    H231211   4.436   0.251   8.010 -2.1149  2.7072 -1.0875
 3218TIP3   OH231212   5.332   4.493   1.478  0.0352 -0.0191  0.5843
 3218TIP3    H131213   5.402   4.429   1.484 -0.3907 -0.5668 -0.1160
 3218TIP3    H231214   5.374   4.578   1.494  1.6511  0.1616 -3.3923
 3219TIP3   OH231215   4.140   5.582   1.217  0.1086  0.0535 -0.1021
 3219TIP3    H131216   4.199   5.508   1.227  2.5391  1.6294 -1.6688
 3219TIP3    H231217   4.197   5.655   1.192 -2.2409  2.2874  0.5743
 3220TIP3   OH231218   5.708   3.164   7.216  0.3732 -0.0365 -0.5404
 3220TIP3    H131219   5.771   3.217   7.168  2.1643 -2.2444 -0.8125
 3220TIP3    H231220   5.629   3.164   7.161  1.1384  0.4570 -1.6654
 3221TIP3   OH231221   6.543   2.685   6.983  0.3305  0.1131  0.1837
 3221TIP3    H131222   6.637   2.690   6.999  0.3167  0.9143  0.0968
 3221TIP3    H231223   6.509   2.628   7.052  1.0200 -1.1403 -0.4862
 3222TIP3   OH231224   0.365   0.081   7.400  0.1368 -0.1428 -0.2124
 3222TIP3    H131225   0.305   0.127   7.458  1.2023  0.3302  0.5361
 3222TIP3    H231226   0.431   0.043   7.458  0.6339 -0.5591 -1.0268
 3223TIP3   OH231227   3.602   4.779   1.711 -0.3663 -0.1023 -0.1653
 3223TIP3    H131228   3.666   4.799   1.779  0.7818  1.3887 -1.6045
 3223TIP3    H231229   3.552   4.860   1.700  0.3790  0.1481 -2.0036
 3224TIP3   OH231230   3.304   6.830   0.507 -0.4112  0.2519  0.2247
 3224TIP3    H131231   3.246   6.797   0.439 -0.1019  0.6869 -0.2614
 3224TIP3    H231232   3.360   6.893   0.462 -1.2860  1.7965  1.2042
 3225TIP3   OH231233   3.739   0.946   8.206 -0.2675  1.0849  0.0663
 3225TIP3    H131234   3.709   1.019   8.150 -0.6902  0.9471  0.1142
 3225TIP3    H231235   3.788   0.989   8.276 -1.0152  1.3778  0.4248
 3226TIP3   OH231236   5.169   5.140   7.564  0.3437  0.3619 -0.1775
 3226TIP3    H131237   5.193   5.124   7.655  0.3937 -1.3046 -0.4507
 3226TIP3    H231238   5.114   5.218   7.567 -0.8701 -0.5008  1.4850
 3227TIP3   OH231239   2.854   5.675   7.815  0.2094 -0.0546 -0.6491
 3227TIP3    H131240   2.874   5.732   7.889 -0.8707 -1.0089  0.4288
 3227TIP3    H231241   2.790   5.613   7.849 -0.8730 -0.0843 -2.5914
 3228TIP3   OH231242   5.023   5.496   1.163  0.2261  0.0467 -0.9269
 3228TIP3    H131243   5.111   5.513   1.197  0.6301 -1.2751 -1.2418
 3228TIP3    H231244   4.967   5.494   1.240  0.4840  0.7966 -0.7142
 3229TIP3   OH231245   0.199   4.339   6.591 -0.2582  0.1521  0.5341
 3229TIP3    H131246   0.248   4.315   6.513 -0.7569  1.7938 -0.3324
 3229TIP3    H231247   0.142   4.411   6.563 -2.8617 -1.3392  1.5938
 3230TIP3   OH231248   0.308   0.587   6.748 -0.4960  0.5691  0.1771
 3230TIP3    H131249   0.269   0.674   6.760  0.7535  1.2245 -0.3469
 3230TIP3    H231250   0.293   0.568   6.655  1.1299  1.2022 -0.2384
 3231TIP3   OH231251   4.631   1.150   7.086 -0.0525 -0.2454 -0.1294
 3231TIP3    H131252   4.547   1.127   7.125 -0.0286 -0.4966 -0.2241
 3231TIP3    H231253   4.696   1.132   7.155 -0.0842  0.0265 -0.0283
 3232TIP3   OH231254   1.706   6.988   1.535 -0.5449  0.2180  0.2669
 3232TIP3    H131255   1.613   6.962   1.536 -0.3700 -0.4498  1.1175
 3232TIP3    H231256   1.708   7.070   1.583 -0.4945 -0.6258  1.7726
 3233TIP3   OH231257   1.199   5.697   1.040  0.2383 -0.5865  0.2310
 3233TIP3    H131258   1.169   5.762   1.103  0.0176 -0.6135  0.1551
 3233TIP3    H231259   1.275   5.738   0.998  0.4184 -0.5926  0.5529
 3234TIP3   OH231260   1.142   5.310   5.826 -0.0525 -0.0124 -0.1907
 3234TIP3    H131261   1.099   5.266   5.752  0.4612  0.0691 -0.5411
 3234TIP3    H231262   1.228   5.269   5.832 -0.1506 -0.1355  0.4770
 3235TIP3   OH231263   2.093   2.105   7.480  0.1634 -0.1055 -0.0243
 3235TIP3    H131264   2.059   2.134   7.565  0.0666 -1.4179  0.4051
 3235TIP3    H231265   2.143   2.180   7.448  0.8535  0.1651  1.5526
 3236TIP3   OH231266   1.338   7.020   6.517  0.1387  0.3106  0.2394
 3236TIP3    H131267   1.245   7.040   6.508 -0.1900 -1.2186 -0.0373
 3236TIP3    H231268   1.344   6.972   6.600  0.3880 -1.0517 -0.5279
 3237TIP3   OH231269   4.879   5.117   1.710 -0.2241  0.0150  0.2246
 3237TIP3    H131270   4.946   5.143   1.773 -0.7227  2.3453 -0.0920
 3237TIP3    H231271   4.830   5.048   1.754  2.0774 -1.4723  0.6175
 3238TIP3   OH231272   4.606   4.636   0.938  0.1604  0.3300 -0.2118
 3238TIP3    H131273   4.675   4.579   0.972  0.8671  2.6697  2.6719
 3238TIP3    H231274   4.527   4.609   0.984  0.3095  1.0270  0.4782
 3239TIP3   OH231275   2.495   1.912   7.086  0.0952  0.0566  0.3115
 3239TIP3    H131276   2.589   1.933   7.089  0.1849 -0.4014  1.9863
 3239TIP3    H231277   2.479   1.865   7.168 -1.8343  1.0931  0.5902
 3240TIP3   OH231278   1.832   5.776   5.845 -0.3495 -0.4638  0.1811
 3240TIP3    H131279   1.744   5.741   5.852 -0.2243 -0.5419  1.7051
 3240TIP3    H231280   1.884   5.726   5.908  0.5724  0.2090 -0.0044
 3241TIP3   OH231281   0.588   4.368   6.263 -0.1784  0.2462 -0.4758
 3241TIP3    H131282   0.657   4.348   6.325  0.6385 -0.3144 -1.5340
 3241TIP3    H231283   0.633   4.410   6.189 -1.2752  2.0168 -0.1990
 3242TIP3   OH231284   3.983   1.484   1.792  0.3892 -0.4498  0.1246
 3242TIP3    H131285   3.902   1.433   1.799  0.1856 -0.1968 -0.3601
 3242TIP3    H231286   3.967   1.562   1.845  1.2194 -1.5136  2.0503
 3243TIP3   OH231287   2.037   5.573   0.543  0.1553  1.0154  0.0970
 3243TIP3    H131288   1.982   5.641   0.581  0.5913  0.8559  1.0553
 3243TIP3    H231289   2.035   5.502   0.607 -0.7244 -0.1093 -1.1405
 3244TIP3   OH231290   5.324   0.855   7.975 -0.2162  0.6404 -0.6445
 3244TIP3    H131291   5.247   0.873   7.920  0.0147  1.0804 -0.8312
 3244TIP3    H231292   5.373   0.790   7.926 -1.0533 -0.5297  0.0300
 3245TIP3   OH231293   2.648   5.868   1.491  0.0760  0.0174  0.5159
 3245TIP3    H131294   2.683   5.890   1.577  0.3472 -0.5519  0.5559
 3245TIP3    H231295   2.649   5.772   1.488 -0.1626  0.0264 -0.0242
 3246TIP3   OH231296   3.364   2.254   0.349  0.3219 -0.0460 -0.0327
 3246TIP3    H131297   3.450   2.250   0.306  0.3640 -0.2363  0.0716
 3246TIP3    H231298   3.306   2.291   0.282  0.6077  0.6561  0.0903
 3247TIP3   OH231299   6.653   0.719   0.957 -0.3770  0.0907  0.1583
 3247TIP3    H131300   6.613   0.727   0.871  0.6175  1.3369 -0.2133
 3247TIP3    H231301   6.606   0.784   1.010 -0.7800 -0.4616  0.4897
 3248TIP3   OH231302   0.401   6.859   0.318 -0.2177 -0.3399  0.6665
 3248TIP3    H131303   0.448   6.888   0.396 -1.2055  0.3247  1.0366
 3248TIP3    H231304   0.387   6.765   0.332  0.2787 -0.3751  0.9321
 3249TIP3   OH231305   1.658   5.256   7.041  0.4609  0.2283  0.2640
 3249TIP3    H131306   1.657   5.170   7.084  0.0318  0.4565  0.7145
 3249TIP3    H231307   1.751   5.274   7.027  0.5462 -1.4962 -2.2649
 3250TIP3   OH231308   6.581   6.821   0.468 -0.3118 -0.0492 -0.5386
 3250TIP3    H131309   6.611   6.751   0.527 -1.8499 -0.6154 -0.3946
 3250TIP3    H231310   6.662   6.854   0.428  1.0248  1.3095  2.8652
 3251TIP3   OH231311   1.271   3.745   7.060  0.7066  0.3158  0.0722
 3251TIP3    H131312   1.302   3.820   7.112  1.5247  0.1508 -0.1576
 3251TIP3    H231313   1.256   3.781   6.973 -1.6195  0.8119  0.6147
 3252TIP3   OH231314   1.632   1.092   2.163  0.3397 -0.0210  0.3114
 3252TIP3    H131315   1.542   1.121   2.177 -0.7084 -3.4760  1.6785
 3252TIP3    H231316   1.680   1.127   2.237 -0.4308 -0.1311  0.8816
 3253TIP3   OH231317   5.494   0.295   1.900  0.0742  0.0810  0.2778
 3253TIP3    H131318   5.402   0.281   1.922 -0.2845  1.5214 -0.2063
 3253TIP3    H231319   5.502   0.259   1.811  0.0524 -0.2701  0.4139
 3254TIP3   OH231320   3.210   6.898   1.548 -0.7178 -0.4644  0.2148
 3254TIP3    H131321   3.122   6.897   1.584 -0.4612  1.8414  1.0864
 3254TIP3    H231322   3.266   6.924   1.621  0.2121  1.4368 -1.0842
 3255TIP3   OH231323   6.624   2.643   7.418  0.2575 -0.2921 -0.3386
 3255TIP3    H131324   6.671   2.701   7.359  0.2275  0.6804  0.5614
 3255TIP3    H231325   6.680   2.636   7.495 -0.0550 -0.9060 -0.1625
 3256TIP3   OH231326   5.624   4.990   7.288  0.8633 -0.8497 -0.1406
 3256TIP3    H131327   5.566   4.918   7.264  0.5823  0.0351 -2.3544
 3256TIP3    H231328   5.566   5.057   7.325  0.9698 -1.2724  0.8238
 3257TIP3   OH231329   6.099   4.584   0.815  0.1108 -0.1407  0.3310
 3257TIP3    H131330   6.178   4.626   0.847  0.5867 -0.9248  0.1935
 3257TIP3    H231331   6.124   4.543   0.733  0.3848 -2.9372  1.6848
 3258TIP3   OH231332   1.098   5.498   6.731  0.4332  0.0809  0.4384
 3258TIP3    H131333   1.043   5.576   6.734  0.7537  0.5118 -2.3665
 3258TIP3    H231334   1.038   5.427   6.708  0.8606  0.4381 -1.9795
 3259TIP3   OH231335   6.672   1.522   6.187 -0.1215 -0.6198  0.6716
 3259TIP3    H131336   6.734   1.471   6.134  1.6846  1.5502  0.5663
 3259TIP3    H231337   6.596   1.535   6.130  0.9785 -0.0001 -0.7003
 3260TIP3   OH231338   2.370   5.384   7.802 -0.0085  0.1442 -0.4189
 3260TIP3    H131339   2.425   5.313   7.834 -2.4155 -1.2472  0.9392
 3260TIP3    H231340   2.374   5.450   7.872 -1.3127 -0.6821  0.4592
 3261TIP3   OH231341   2.501   1.515   7.788  0.1271  0.5919  0.1760
 3261TIP3    H131342   2.427   1.497   7.846  0.6045  1.2348  1.0038
 3261TIP3    H231343   2.465   1.573   7.721 -0.0697  1.1310  0.7347
 3262TIP3   OH231344   2.975   6.971   7.822  0.1062 -0.8256 -0.6305
 3262TIP3    H131345   3.062   6.940   7.796  1.0561 -0.1023  1.4853
 3262TIP3    H231346   2.964   6.940   7.912 -0.2475  2.0823  0.4592
 3263TIP3   OH231347   5.136   0.282   5.917 -0.0452  0.3915  0.3210
 3263TIP3    H131348   5.179   0.309   5.998  3.1023 -2.7584 -0.0610
 3263TIP3    H231349   5.060   0.232   5.946  0.5700  0.0005  1.3221
 3264TIP3   OH231350   5.267   6.322   0.901  0.2718 -0.5678  0.3269
 3264TIP3    H131351   5.219   6.271   0.836 -0.6267 -1.3562  1.5677
 3264TIP3    H231352   5.293   6.259   0.968  0.6477  0.3205  1.0511
 3265TIP3   OH231353   2.858   3.933   1.051 -0.3226  0.2660 -0.0504
 3265TIP3    H131354   2.856   4.017   1.006 -2.1661  0.2120 -0.1509
 3265TIP3    H231355   2.862   3.956   1.144  1.7915  0.3942 -0.1300
 3266TIP3   OH231356   3.399   1.302   1.495 -0.1008 -0.0671  0.0367
 3266TIP3    H131357   3.477   1.356   1.512 -0.3926  0.4071 -0.1140
 3266TIP3    H231358   3.342   1.317   1.570 -0.1084 -0.3078  0.0795
 3267TIP3   OH231359   2.127   4.485   1.373 -0.0270  0.2450 -0.2823
 3267TIP3    H131360   2.177   4.564   1.394 -1.8846  1.4409 -0.1200
 3267TIP3    H231361   2.051   4.489   1.431  0.2569 -2.1366  0.3278
 3268TIP3   OH231362   4.576   6.840   1.784  0.0545  0.0868 -0.3551
 3268TIP3    H131363   4.656   6.849   1.835 -0.4489  1.3423  0.2345
 3268TIP3    H231364   4.604   6.796   1.704  1.0607 -0.8497  0.4770
 3269TIP3   OH231365   1.953   5.363   8.112  0.0836  0.7169  0.2208
 3269TIP3    H131366   1.959   5.457   8.093 -0.6154  0.8190  0.4625
 3269TIP3    H231367   1.947   5.322   8.026  1.2914  0.8053  0.0736
 3270TIP3   OH231368   6.786   3.471   0.979  0.0277  0.6449  0.1790
 3270TIP3    H131369   6.772   3.482   1.073  1.3771 -1.1594  0.6469
 3270TIP3    H231370   6.850   3.539   0.957 -0.6966  1.4330  0.4132
 3271TIP3   OH231371   4.601   3.055   7.861 -0.0615  0.7500 -0.6297
 3271TIP3    H131372   4.540   3.120   7.827  0.9584  1.4781 -1.1329
 3271TIP3    H231373   4.588   3.056   7.955 -1.1430  0.5605 -0.7727
 3272TIP3   OH231374   6.932   2.711   0.644 -0.5876  0.0097  0.6252
 3272TIP3    H131375   6.844   2.685   0.617  0.0815 -0.3676 -1.3648
 3272TIP3    H231376   6.976   2.736   0.563  1.4488 -0.7253  1.4275
 3273TIP3   OH231377   3.525   5.820   0.755 -0.1969  0.1238 -0.0571
 3273TIP3    H131378   3.595   5.876   0.719 -1.5214  1.8728 -0.0498
 3273TIP3    H231379   3.498   5.865   0.835  0.3555 -1.9030  1.3468
 3274TIP3   OH231380   5.056   6.598   1.526 -0.0513  0.3633  0.9318
 3274TIP3    H131381   5.003   6.574   1.451  0.7551  0.1881  0.3984
 3274TIP3    H231382   5.104   6.677   1.498 -1.0631  1.3577  1.8981
 3275TIP3   OH231383   5.025   2.373   7.428  0.0088 -0.2770  0.1192
 3275TIP3    H131384   4.973   2.412   7.357  1.3812 -0.1135 -0.8488
 3275TIP3    H231385   5.113   2.363   7.390  1.5303  2.2352  2.5777
 3276TIP3   OH231386   2.903   0.310   0.134 -0.7384 -0.0413  0.0211
 3276TIP3    H131387   2.886   0.229   0.183 -0.5661 -0.8136 -1.1459
 3276TIP3    H231388   2.816   0.342   0.110 -0.7911 -0.3985 -0.2920
 3277TIP3   OH231389   3.454   0.885   8.243 -0.1978  0.2121  0.3068
 3277TIP3    H131390   3.477   0.914   8.332  0.1559 -0.8409  0.5638
 3277TIP3    H231391   3.515   0.932   8.187 -0.3798  0.8376  0.6196
 3278TIP3   OH231392   2.252   5.213   8.059  0.7599 -0.0521 -0.0647
 3278TIP3    H131393   2.299   5.290   8.090  0.3397 -0.0389  0.5578
 3278TIP3    H231394   2.301   5.139   8.096 -0.0804 -0.0261  1.1856
 3279TIP3   OH231395   4.773   3.250   1.375  0.1696 -0.3962  0.0353
 3279TIP3    H131396   4.682   3.224   1.364  0.4072 -1.4828  0.4763
 3279TIP3    H231397   4.782   3.330   1.323 -0.9854 -0.3668 -0.1440
 3280TIP3   OH231398   3.289   2.958   8.175  0.4056 -0.0391  0.1361
 3280TIP3    H131399   3.251   2.872   8.154  0.6532 -0.0027 -0.4874
 3280TIP3    H231400   3.383   2.941   8.181  0.4841  0.2370 -0.2704
 3281TIP3   OH231401   0.346   3.943   6.160  0.6346  0.1704  0.8253
 3281TIP3    H131402   0.300   3.984   6.088  1.1233  1.2857  1.1278
 3281TIP3    H231403   0.282   3.940   6.231 -0.1310 -1.7407  0.1154
 3282TIP3   OH231404   1.244   4.029   5.739 -0.5672 -0.2010 -0.5216
 3282TIP3    H131405   1.290   3.947   5.720  1.0122  0.9785 -2.1278
 3282TIP3    H231406   1.304   4.077   5.795 -2.1652 -0.7092  1.7559
 3283TIP3   OH231407   1.239   6.094   1.280 -0.4758 -0.0980  0.4010
 3283TIP3    H131408   1.258   6.073   1.371  0.0023 -0.5129  0.2061
 3283TIP3    H231409   1.317   6.068   1.231 -1.0145 -0.5910 -0.2300
 3284TIP3   OH231410   2.895   1.504   0.944 -0.0636  0.0978  0.2756
 3284TIP3    H131411   2.903   1.553   0.862 -0.2955  0.2928  0.3667
 3284TIP3    H231412   2.802   1.483   0.951  0.4667 -3.5092 -1.5589
 3285TIP3   OH231413   5.778   2.813   8.226  0.0244 -0.4676 -0.1905
 3285TIP3    H131414   5.864   2.818   8.185 -0.4671  1.1838 -1.1189
 3285TIP3    H231415   5.718   2.848   8.160 -1.1023  0.1754  1.1350
 3286TIP3   OH231416   4.835   1.165   6.033 -0.0009  0.1603  0.3486
 3286TIP3    H131417   4.803   1.083   6.071 -0.1526  1.0237  2.1596
 3286TIP3    H231418   4.806   1.160   5.941  0.2197 -1.9049  0.3290
 3287TIP3   OH231419   1.422   1.839   7.003 -0.2170 -0.0558  0.2079
 3287TIP3    H131420   1.460   1.792   7.077  0.6453 -0.3915 -0.4318
 3287TIP3    H231421   1.495   1.887   6.965 -0.6793  0.2153 -0.3493
 3288TIP3   OH231422   3.296   5.541   0.995 -0.0783  0.1914 -0.1726
 3288TIP3    H131423   3.251   5.491   0.927  0.2545  0.0737 -0.3127
 3288TIP3    H231424   3.259   5.629   0.989  0.7308  0.4815 -1.2666
 3289TIP3   OH231425   1.327   1.291   6.910 -0.1267  0.2264  0.1884
 3289TIP3    H131426   1.363   1.245   6.834 -0.5348  0.1659  0.0242
 3289TIP3    H231427   1.368   1.250   6.986  1.0820  0.9851 -0.0354
 3290TIP3   OH231428   3.914   5.730   6.454  0.2150  0.2196 -0.1625
 3290TIP3    H131429   3.861   5.809   6.460 -0.7213 -0.5047  2.2435
 3290TIP3    H231430   3.917   5.696   6.544  0.7542 -2.3621 -1.0680
 3291TIP3   OH231431   2.535   3.155   0.555 -0.1575  0.1873 -0.3619
 3291TIP3    H131432   2.550   3.234   0.608 -0.3538  1.8702 -2.6719
 3291TIP3    H231433   2.584   3.086   0.601 -0.5970  1.4198  2.1506
 3292TIP3   OH231434   5.438   1.271   6.586 -0.1595 -0.5865  0.4447
 3292TIP3    H131435   5.504   1.306   6.526  2.2182 -1.4743  2.3899
 3292TIP3    H231436   5.411   1.347   6.639  0.5941 -0.5229  0.7521
 3293TIP3   OH231437   2.338   6.033   5.932  0.0779 -0.5865 -0.3019
 3293TIP3    H131438   2.276   6.005   5.999  0.3078 -0.4536 -0.0296
 3293TIP3    H231439   2.413   5.975   5.942 -0.2627 -1.1594 -1.0532
 3294TIP3   OH231440   1.337   5.054   1.253  0.1095 -0.3472 -0.6731
 3294TIP3    H131441   1.378   5.111   1.187 -0.5075 -1.1756 -1.8069
 3294TIP3    H231442   1.396   4.979   1.259  0.1582 -0.2770 -0.2898
 3295TIP3   OH231443   3.800   1.217   0.302  0.2206  0.3697 -0.3748
 3295TIP3    H131444   3.808   1.195   0.209  1.6585 -0.0434 -0.1712
 3295TIP3    H231445   3.847   1.147   0.347 -1.1180  0.1407  0.7339
 3296TIP3   OH231446   0.488   6.167   7.354  0.3381  0.3433  0.2907
 3296TIP3    H131447   0.566   6.207   7.316  1.5564 -1.3107  0.9355
 3296TIP3    H231448   0.447   6.119   7.281 -1.1406  2.6283 -0.4909
 3297TIP3   OH231449   0.555   2.264   1.909 -0.1837  0.0108  0.2620
 3297TIP3    H131450   0.638   2.286   1.951  0.3291 -1.9865  0.3760
 3297TIP3    H231451   0.566   2.175   1.878 -1.9785  0.0201 -0.5468
 3298TIP3   OH231452   1.311   4.354   7.251  0.1891  0.4202  0.2202
 3298TIP3    H131453   1.393   4.372   7.298 -0.0289  0.7001  0.4993
 3298TIP3    H231454   1.330   4.276   7.199  0.4016  0.0283  0.8685
 3299TIP3   OH231455   6.631   0.677   7.430  0.3945 -0.0281 -0.1984
 3299TIP3    H131456   6.564   0.615   7.458  0.5592 -1.4086 -2.6280
 3299TIP3    H231457   6.713   0.627   7.432  0.5769  0.1481 -1.8990
 3300TIP3   OH231458   6.629   3.316   7.054 -0.0919 -0.3464 -0.1872
 3300TIP3    H131459   6.555   3.262   7.082 -0.1276  0.5224  1.5188
 3300TIP3    H231460   6.691   3.312   7.127  0.9137  0.1039 -0.9849
 3301TIP3   OH231461   6.485   0.204   7.210 -0.1057  0.1877  0.6920
 3301TIP3    H131462   6.555   0.267   7.192  0.7160 -0.9636 -0.3444
 3301TIP3    H231463   6.531   0.128   7.246 -0.7311 -0.8164 -0.5671
 3302TIP3   OH231464   2.467   3.662   6.370  0.1448  0.2161 -0.0200
 3302TIP3    H131465   2.561   3.644   6.375 -0.0641 -1.5753 -1.4767
 3302TIP3    H231466   2.437   3.660   6.461  1.3113 -0.4532  0.3719
 3303TIP3   OH231467   3.374   0.449   0.227  0.4001 -0.8600 -0.3959
 3303TIP3    H131468   3.392   0.409   0.313 -2.0012 -0.1870  0.5057
 3303TIP3    H231469   3.368   0.375   0.167  1.0889 -1.4340  0.2253
 3304TIP3   OH231470   5.871   6.242   1.476  0.1648  0.2935  0.0090
 3304TIP3    H131471   5.845   6.166   1.528  0.5758 -0.6487 -1.0990
 3304TIP3    H231472   5.795   6.261   1.421 -0.1522  1.0761  0.7020
 3305TIP3   OH231473   6.053   1.822   0.838  0.2869  0.2413  0.4106
 3305TIP3    H131474   6.015   1.785   0.758  1.8121 -0.2515 -0.1244
 3305TIP3    H231475   6.052   1.750   0.901 -0.5655  0.5228  0.7401
 3306TIP3   OH231476   6.857   2.488   2.339  0.4126 -0.1081  0.2887
 3306TIP3    H131477   6.811   2.570   2.321  0.5143 -0.0431  0.3242
 3306TIP3    H231478   6.940   2.515   2.379  0.9691 -0.1693 -0.7743
 3307TIP3   OH231479   6.560   4.029   0.191 -0.8244 -0.5633 -0.3028
 3307TIP3    H131480   6.605   3.954   0.153  0.5659 -0.1303  0.4337
 3307TIP3    H231481   6.629   4.094   0.205 -1.7968  0.3852  0.2093
 3308TIP3   OH231482   3.730   5.670   6.837 -0.2770 -0.3760 -0.1723
 3308TIP3    H131483   3.673   5.691   6.911 -0.2718 -2.7848  0.5915
 3308TIP3    H231484   3.681   5.699   6.760  0.1205  3.0894  0.6717
 3309TIP3   OH231485   6.988   3.832   7.840  0.0539  0.9765  0.0407
 3309TIP3    H131486   7.060   3.889   7.816 -0.8479  2.1380  0.0225
 3309TIP3    H231487   7.003   3.811   7.932  0.0057  1.8390  0.2499
 3310TIP3   OH231488   2.454   5.592   1.431  0.5082  0.3490  0.2276
 3310TIP3    H131489   2.378   5.606   1.486  0.7701 -2.0834  1.3064
 3310TIP3    H231490   2.455   5.498   1.413  3.5269  0.1765  0.7278
 3311TIP3   OH231491   2.420   2.774   1.041 -0.1410 -0.5144  0.1695
 3311TIP3    H131492   2.467   2.828   0.978  0.2244  2.4038  2.6872
 3311TIP3    H231493   2.328   2.802   1.034 -0.3589 -1.2660 -0.0779
 3312TIP3   OH231494   2.104   5.930   6.697 -0.3750  0.5473 -0.1740
 3312TIP3    H131495   2.026   5.968   6.738  0.3020  2.5618 -0.6430
 3312TIP3    H231496   2.104   5.965   6.608 -1.2417 -2.9016 -1.6836
 3313TIP3   OH231497   6.982   6.701   7.154 -0.2855  0.1398 -0.4561
 3313TIP3    H131498   7.029   6.679   7.074  1.6770 -0.6331  0.8380
 3313TIP3    H231499   7.037   6.766   7.198 -1.6316  1.0110 -0.0011
 3314TIP3   OH231500   1.573   6.542   0.673  0.0551 -0.1651  0.0473
 3314TIP3    H131501   1.664   6.554   0.647 -0.6552 -0.5312 -2.8969
 3314TIP3    H231502   1.544   6.630   0.698  0.9830  0.0806  0.3023
 3315TIP3   OH231503   0.507   3.796   1.375 -0.0732 -0.2092  0.0369
 3315TIP3    H131504   0.563   3.730   1.335 -2.2447 -1.3539 -1.2878
 3315TIP3    H231505   0.492   3.860   1.305  1.8624  1.7401  1.2458
 3316TIP3   OH231506   6.812   1.078   0.531  0.7103 -0.0122  0.0698
 3316TIP3    H131507   6.891   1.115   0.491 -0.4545  0.0787 -2.3251
 3316TIP3    H231508   6.762   1.043   0.457 -1.0480 -0.9449  1.6261
 3317TIP3   OH231509   4.230   1.487   6.358  0.8150 -0.1938 -0.1774
 3317TIP3    H131510   4.158   1.524   6.307  0.6187  0.5785  0.6478
 3317TIP3    H231511   4.223   1.528   6.444  1.2523 -1.3370  0.4322
 3318TIP3   OH231512   2.292   0.133   6.057 -0.0640 -0.3400  0.1413
 3318TIP3    H131513   2.376   0.155   6.016 -0.2387 -0.0724 -0.0760
 3318TIP3    H231514   2.226   0.173   6.000 -0.2886  0.6131  1.0476
 3319TIP3   OH231515   0.240   1.759   6.762 -0.0571 -0.3356 -0.0787
 3319TIP3    H131516   0.261   1.668   6.784 -1.0418 -0.3932  0.6818
 3319TIP3    H231517   0.304   1.812   6.810  0.9848 -0.6243 -1.0899
 3320TIP3   OH231518   3.094   4.844   6.871  0.4327 -0.6529  0.3003
 3320TIP3    H131519   3.154   4.823   6.799 -1.3684 -0.1477 -1.4339
 3320TIP3    H231520   3.108   4.938   6.886 -2.5470  0.5388 -2.9081
 3321TIP3   OH231521   4.399   6.660   6.838  0.0891  0.4329  0.3257
 3321TIP3    H131522   4.412   6.584   6.781  0.0531  2.3183 -2.4043
 3321TIP3    H231523   4.487   6.694   6.853  0.0922 -0.0315  1.4059
 3322TIP3   OH231524   2.122   2.089   1.984  0.3813 -0.4560 -0.0590
 3322TIP3    H131525   2.142   2.011   1.933  0.8103 -0.6510  0.3942
 3322TIP3    H231526   2.183   2.085   2.058 -1.0706 -0.8796  1.1787
 3323TIP3   OH231527   4.872   1.143   7.217  0.3865  0.2509 -0.3911
 3323TIP3    H131528   4.843   1.183   7.299 -2.0375 -0.8466 -0.6178
 3323TIP3    H231529   4.967   1.137   7.226  0.4550  2.4974  1.2206
 3324TIP3   OH231530   3.249   1.601   6.733  0.0482  0.0508 -0.1253
 3324TIP3    H131531   3.222   1.659   6.804 -2.5147 -2.1802  0.9065
 3324TIP3    H231532   3.238   1.654   6.653 -1.8538  1.1184  0.7746
 3325TIP3   OH231533   5.928   1.645   6.838 -0.2157 -0.1451 -1.4474
 3325TIP3    H131534   5.876   1.575   6.878 -1.3886  2.3924  1.9556
 3325TIP3    H231535   6.018   1.613   6.841 -0.8414 -2.0281 -1.3334
 3326TIP3   OH231536   4.378   2.744   6.910  0.4590 -0.1108 -0.1291
 3326TIP3    H131537   4.415   2.832   6.911  0.1123  0.0454  1.2805
 3326TIP3    H231538   4.300   2.751   6.854  2.1382 -0.3149 -2.6439
 3327TIP3   OH231539   3.757   3.824   1.398 -0.7885  0.0754 -0.7010
 3327TIP3    H131540   3.703   3.746   1.409  1.4970 -1.5087  0.0620
 3327TIP3    H231541   3.786   3.821   1.306 -1.0263  0.2683 -0.7840
 3328TIP3   OH231542   0.404   1.208   8.117  0.2027  0.5539  0.0771
 3328TIP3    H131543   0.313   1.196   8.090  0.1734 -0.1280  0.4460
 3328TIP3    H231544   0.413   1.303   8.130  0.6497  1.2016 -3.7290
 3329TIP3   OH231545   2.247   6.461   6.252  0.9202  0.7409  0.6102
 3329TIP3    H131546   2.306   6.534   6.231  0.6801  1.0387  0.9463
 3329TIP3    H231547   2.160   6.500   6.249  0.8290  0.6234  1.3901
 3330TIP3   OH231548   6.887   5.119   0.306 -0.0566  0.6067 -0.2568
 3330TIP3    H131549   6.863   5.145   0.217 -0.0481 -1.9654 -1.1067
 3330TIP3    H231550   6.850   5.187   0.362  0.3623  2.5658 -2.2216
 3331TIP3   OH231551   6.064   1.518   7.565 -0.3794  0.1399 -0.2871
 3331TIP3    H131552   6.148   1.512   7.519 -0.7833  1.2071 -1.2094
 3331TIP3    H231553   6.015   1.443   7.534  0.4867 -0.9643  0.8739
 3332TIP3   OH231554   4.747   0.289   7.053 -0.0881  0.4281 -0.4853
 3332TIP3    H131555   4.750   0.372   7.101  0.4555 -0.0817  0.3851
 3332TIP3    H231556   4.653   0.267   7.050 -0.2629  1.2237 -0.9983
 3333TIP3   OH231557   0.632   3.254   6.703  0.0222 -0.1792 -0.1401
 3333TIP3    H131558   0.669   3.236   6.616  0.0843 -1.5218  0.1410
 3333TIP3    H231559   0.537   3.249   6.690  0.0036  0.6534 -0.3362
 3334TIP3   OH231560   4.860   4.011   1.710 -0.1721 -0.1895  0.2264
 3334TIP3    H131561   4.820   4.080   1.763  1.2512  0.6943  0.2168
 3334TIP3    H231562   4.830   3.930   1.750 -2.1259  0.3986  0.0540
 3335TIP3   OH231563   3.107   0.390   8.246 -0.3602  0.0618 -0.2282
 3335TIP3    H131564   3.131   0.468   8.296  1.3127 -1.5408  1.6388
 3335TIP3    H231565   3.028   0.357   8.288 -2.0366  1.5496 -2.0404
 3336TIP3   OH231566   5.775   5.459   1.460 -0.6456 -0.5835 -0.4185
 3336TIP3    H131567   5.828   5.380   1.451  0.1830 -0.0208 -0.5250
 3336TIP3    H231568   5.726   5.445   1.541  0.5036 -0.6202  0.2867
 3337TIP3   OH231569   5.408   3.389   8.039 -0.0350 -0.1546 -0.0779
 3337TIP3    H131570   5.410   3.484   8.026 -0.3075  0.3439  2.8051
 3337TIP3    H231571   5.500   3.363   8.045  0.0308  0.3007  1.1299
 3338TIP3   OH231572   2.164   0.261   7.273  0.1348 -0.2401  0.2867
 3338TIP3    H131573   2.167   0.208   7.193 -1.4306 -1.2889  0.8735
 3338TIP3    H231574   2.117   0.340   7.246 -0.3186 -0.5535  0.1453
 3339TIP3   OH231575   1.694   1.862   0.334  0.5709  0.0283 -0.1893
 3339TIP3    H131576   1.765   1.832   0.276 -0.2479 -1.0575 -0.6691
 3339TIP3    H231577   1.721   1.833   0.421  1.1899  0.5032 -0.2197
 3340TIP3   OH231578   0.032   6.782   7.969 -0.0032  0.5656  0.2296
 3340TIP3    H131579  -0.049   6.817   8.004  0.6033  0.3827  1.9031
 3340TIP3    H231580   0.098   6.801   8.036  1.1565 -0.1170 -0.6680
 3341TIP3   OH231581   1.632   0.908   0.282  0.5512  0.5542 -0.0532
 3341TIP3    H131582   1.661   0.926   0.193 -0.9984  0.6864 -0.5555
 3341TIP3    H231583   1.590   0.989   0.311  1.2201  0.5856  0.8947
 3342TIP3   OH231584   5.496   5.715   6.770 -0.4873 -0.4326 -0.0017
 3342TIP3    H131585   5.421   5.701   6.712  0.0399  0.9033 -1.0550
 3342TIP3    H231586   5.559   5.648   6.745 -0.0032  0.5249 -1.4733
 3343TIP3   OH231587   0.395   1.167   0.284 -0.1846 -0.1413 -0.2938
 3343TIP3    H131588   0.437   1.133   0.206  0.3988 -2.0818  0.8002
 3343TIP3    H231589   0.466   1.206   0.335 -0.3904  0.2123 -0.2763
 3344TIP3   OH231590   4.640   5.306   6.576  0.1252 -0.1190 -0.4280
 3344TIP3    H131591   4.551   5.305   6.611  0.0425 -2.7978 -0.5018
 3344TIP3    H231592   4.632   5.346   6.490 -0.5106  2.0134  0.5441
 3345TIP3   OH231593   1.052   0.922   6.810 -1.0285 -0.2512 -0.3176
 3345TIP3    H131594   0.973   0.872   6.791 -1.7699  0.5555  0.5288
 3345TIP3    H231595   1.040   0.952   6.900  1.0702 -1.6336  0.5037
 3346TIP3   OH231596   5.696   1.781   7.369  0.3837 -0.1443 -0.0083
 3346TIP3    H131597   5.726   1.692   7.351  0.8454  0.0457 -0.1979
 3346TIP3    H231598   5.730   1.833   7.296 -0.0864  0.1452 -0.0223
 3347TIP3   OH231599   6.758   3.208   8.189 -0.1729 -0.0741 -0.0077
 3347TIP3    H131600   6.677   3.246   8.221 -1.1890 -2.0412 -0.0622
 3347TIP3    H231601   6.816   3.206   8.265  0.0179  1.7500 -0.0736
 3348TIP3   OH231602   2.994   6.030   8.039  0.0701 -0.3768 -0.0969
 3348TIP3    H131603   3.034   6.106   8.082  0.6907 -0.6067 -0.2458
 3348TIP3    H231604   3.001   6.050   7.945 -1.1424  0.0591 -0.1117
 3349TIP3   OH231605   0.664   0.898   0.229  0.5291  0.0157 -0.3716
 3349TIP3    H131606   0.690   0.912   0.138  0.8651 -0.7977 -0.4086
 3349TIP3    H231607   0.573   0.867   0.222  0.6444 -0.3160 -0.4580
 3350TIP3   OH231608   3.345   3.375   7.139  0.1459 -0.4923 -0.8799
 3350TIP3    H131609   3.262   3.334   7.164 -0.0768  0.4599  0.0057
 3350TIP3    H231610   3.389   3.391   7.222  0.1063  1.3021 -1.1694
 3351TIP3   OH231611   1.807   4.686   0.226  0.2766  0.1503 -0.7075
 3351TIP3    H131612   1.836   4.717   0.140  2.0344  0.4328 -0.0501
 3351TIP3    H231613   1.785   4.765   0.274  0.5638  0.0794 -0.4609
 3352TIP3   OH231614   4.778   1.520   6.888  0.0317 -0.5871 -0.1643
 3352TIP3    H131615   4.779   1.426   6.870  2.1427 -0.6615  0.1819
 3352TIP3    H231616   4.866   1.541   6.917 -0.5172  1.4361  0.2385
 3353TIP3   OH231617   6.544   5.223   1.655  0.8262 -0.1143 -0.0409
 3353TIP3    H131618   6.455   5.191   1.647  0.8138 -0.8303  2.3078
 3353TIP3    H231619   6.599   5.151   1.622  0.5829 -0.3885  0.1458
 3354TIP3   OH231620   3.685   3.237   0.733 -0.1155 -0.2191 -0.2632
 3354TIP3    H131621   3.775   3.219   0.761 -0.0666  1.9811  1.2368
 3354TIP3    H231622   3.650   3.151   0.709  0.7748 -2.0088  3.9644
 3355TIP3   OH231623   3.930   0.783   6.225 -0.0220  0.6910 -0.0684
 3355TIP3    H131624   3.846   0.831   6.222  0.0928  0.9144  0.1657
 3355TIP3    H231625   3.982   0.832   6.289 -0.5916 -0.8645  1.6689
 3356TIP3   OH231626   2.915   3.358   6.544 -0.7530 -0.5197 -0.2590
 3356TIP3    H131627   2.953   3.315   6.468 -0.6451 -2.2064  0.7063
 3356TIP3    H231628   2.946   3.307   6.619 -1.4004  0.6823  0.8814
 3357TIP3   OH231629   3.090   1.611   7.512 -0.0345 -0.3703 -0.2277
 3357TIP3    H131630   3.050   1.590   7.427 -0.3703 -1.2404  0.1307
 3357TIP3    H231631   3.140   1.532   7.535  0.3396 -0.0058  0.2137
 3358TIP3   OH231632   3.447   6.369   7.965 -0.8500 -0.3197  0.1586
 3358TIP3    H131633   3.463   6.442   8.024  0.4639  0.1291 -0.7167
 3358TIP3    H231634   3.494   6.296   8.004 -0.8300 -0.2895  0.1911
 3359TIP3   OH231635   3.404   1.146   7.600  0.0179  0.2996  0.1258
 3359TIP3    H131636   3.435   1.183   7.517 -1.4435  2.5201  0.4648
 3359TIP3    H231637   3.469   1.173   7.665  2.0303 -2.7812 -0.3784
 3360TIP3   OH231638   2.848   2.866   1.139 -0.8241 -0.3602 -0.2819
 3360TIP3    H131639   2.910   2.925   1.096 -2.5163  0.7838 -1.3183
 3360TIP3    H231640   2.800   2.825   1.066 -3.7089  1.5560  0.3384
 3361TIP3   OH231641   1.820   5.712   0.624 -0.0514  1.1287  0.6563
 3361TIP3    H131642   1.765   5.663   0.685 -0.6511  0.3329 -0.4844
 3361TIP3    H231643   1.760   5.774   0.583 -0.0486  0.5268 -0.3066
 3362TIP3   OH231644   4.578   2.920   6.881 -0.7733  0.1109  0.4149
 3362TIP3    H131645   4.652   2.972   6.915 -1.9880  1.4971  1.0514
 3362TIP3    H231646   4.575   2.942   6.788 -0.4483  0.1292  0.4065
 3363TIP3   OH231647   7.041   0.323   0.260 -0.1032  0.1913 -0.0325
 3363TIP3    H131648   7.063   0.413   0.282  0.0769  0.8062 -2.4520
 3363TIP3    H231649   6.959   0.329   0.212  0.1312 -0.8776 -0.6126
 3364TIP3   OH231650   1.556   1.608   7.106 -0.4062 -0.0403 -0.0635
 3364TIP3    H131651   1.603   1.656   7.175 -2.0742  1.3098  0.2060
 3364TIP3    H231652   1.626   1.566   7.055  1.1347  1.9716  0.2220
 3365TIP3   OH231653   2.033   2.912   0.220 -0.0383 -0.5350 -0.2625
 3365TIP3    H131654   1.957   2.970   0.229  0.6980  0.3553  0.3473
 3365TIP3    H231655   1.998   2.824   0.230 -1.1116 -0.1769 -0.7612
 3366TIP3   OH231656   4.742   1.131   0.610 -0.3403  0.4254  0.4206
 3366TIP3    H131657   4.748   1.067   0.539 -1.4953  1.9995 -1.1795
 3366TIP3    H231658   4.812   1.106   0.671 -0.4744 -2.0429 -0.3500
 3367TIP3   OH231659   4.557   0.670   8.000  0.6166 -0.1475 -0.2966
 3367TIP3    H131660   4.518   0.582   7.997  0.9258 -0.3592  1.2438
 3367TIP3    H231661   4.502   0.723   7.942 -0.2546 -1.0907 -0.3546
 3368TIP3   OH231662   4.825   0.856   7.288  0.2123 -0.5794 -0.3146
 3368TIP3    H131663   4.903   0.805   7.267  0.4996 -0.1976 -0.1806
 3368TIP3    H231664   4.790   0.882   7.203 -1.7504 -3.6343 -0.6135
 3369TIP3   OH231665   1.549   5.065   7.945 -0.3094  0.0713  0.1563
 3369TIP3    H131666   1.569   4.973   7.960  2.1927  0.6206  0.6323
 3369TIP3    H231667   1.536   5.101   8.033  0.1757  0.4594  0.0710
 3370TIP3   OH231668   6.294   3.508   7.333  0.0106 -0.3810  0.5497
 3370TIP3    H131669   6.373   3.514   7.279  0.5331  0.1244  1.3379
 3370TIP3    H231670   6.264   3.598   7.343 -0.1554 -0.4809  0.9866
 3371TIP3   OH231671   3.710   4.703   0.538 -0.2693 -0.0326 -0.3594
 3371TIP3    H131672   3.683   4.786   0.498  3.4444  1.2104 -0.6901
 3371TIP3    H231673   3.650   4.638   0.503 -1.8570  2.1552 -1.9585
 3372TIP3   OH231674   2.765   3.665   0.075  0.1804  0.8246 -0.3642
 3372TIP3    H131675   2.754   3.575   0.045 -1.3260  0.7642  0.2911
 3372TIP3    H231676   2.860   3.679   0.076  0.5714 -1.4449  1.4984
 3373TIP3   OH231677   4.246   3.934   5.969 -0.9425 -0.6254  0.3825
 3373TIP3    H131678   4.299   3.973   6.039 -2.5578 -1.1651  1.9704
 3373TIP3    H231679   4.307   3.878   5.921  0.2675 -0.0328  1.1787
 3374TIP3   OH231680   1.323   4.421   7.617  0.1015  0.4016  0.1412
 3374TIP3    H131681   1.399   4.475   7.594 -0.7218  1.2842 -0.6673
 3374TIP3    H231682   1.256   4.485   7.642 -1.2155 -0.1434 -1.7696
 3375TIP3   OH231683   6.775   0.454   2.034  0.0850  0.5931 -0.6565
 3375TIP3    H131684   6.708   0.433   1.968 -0.5369 -0.2889  0.2266
 3375TIP3    H231685   6.834   0.515   1.990 -0.6384  0.4617 -1.8429
 3376TIP3   OH231686   6.925   2.022   6.912 -0.1449 -0.4099  0.8564
 3376TIP3    H131687   6.855   1.960   6.894 -0.6385  0.3740 -0.0271
 3376TIP3    H231688   6.989   2.008   6.843  0.9354 -1.5852  2.0368
 3377TIP3   OH231689   0.151   0.969   0.167 -0.0332  0.2969  0.4460
 3377TIP3    H131690   0.158   1.062   0.147  0.3620  0.1277 -0.2687
 3377TIP3    H231691   0.094   0.964   0.243 -0.2618  1.1043  0.3337
 3378TIP3   OH231692   3.213   3.875   0.668  0.5904  0.6205 -0.9636
 3378TIP3    H131693   3.150   3.941   0.696  0.0287  0.3275 -1.5027
 3378TIP3    H231694   3.293   3.895   0.716  0.3163  1.4712 -0.8518
 3379TIP3   OH231695   3.354   7.030   8.195 -0.9970 -0.3570 -0.3159
 3379TIP3    H131696   3.438   6.987   8.206 -0.9523 -0.5910 -1.4829
 3379TIP3    H231697   3.293   6.976   8.246 -0.8012 -1.3690 -1.1117
 3380TIP3   OH231698   3.982   6.316   0.107  0.4732 -0.3589 -0.0296
 3380TIP3    H131699   3.964   6.224   0.125  2.1527 -0.6969  0.1177
 3380TIP3    H231700   4.035   6.314   0.027 -1.5101  0.6805 -1.4598
 3381TIP3   OH231701   3.741   6.434   0.708  0.2190 -0.5553  0.0748
 3381TIP3    H131702   3.819   6.489   0.707  1.0413 -1.6686 -1.3818
 3381TIP3    H231703   3.680   6.478   0.768  2.2295 -0.0466  1.8593
 3382TIP3   OH231704   4.505   6.268   1.103 -0.6400  0.1027  0.2325
 3382TIP3    H131705   4.475   6.292   1.191  2.2480  0.2166  1.2923
 3382TIP3    H231706   4.459   6.187   1.083 -1.7213  0.3391  1.6437
 3383TIP3   OH231707   3.760   4.996   2.143 -0.6934  0.2168  1.2572
 3383TIP3    H131708   3.819   4.982   2.217 -0.7341 -1.3865  1.0168
 3383TIP3    H231709   3.687   4.936   2.158 -0.1945 -0.9557 -0.5928
 3384TIP3   OH231710   6.159   6.802   7.297 -0.3408  0.0828  0.4238
 3384TIP3    H131711   6.233   6.849   7.337 -0.8498  0.5528  0.8335
 3384TIP3    H231712   6.083   6.856   7.319 -0.7231 -0.0487 -0.5607
 3385TIP3   OH231713   4.268   6.391   1.574  0.1022 -0.1245  0.1540
 3385TIP3    H131714   4.203   6.324   1.596  2.0091 -1.1782  3.1758
 3385TIP3    H231715   4.259   6.456   1.645 -0.0393  1.6194 -1.3860
 3386TIP3   OH231716   6.370   4.316   0.497 -0.4034  0.1117  0.7980
 3386TIP3    H131717   6.284   4.356   0.482  0.3822  1.4349 -0.4948
 3386TIP3    H231718   6.419   4.335   0.417  0.8477 -1.3219  1.1751
 3387TIP3   OH231719   0.154   4.670   6.307 -0.2137 -0.4461  0.6670
 3387TIP3    H131720   0.248   4.690   6.299 -0.0660 -1.3025  0.1841
 3387TIP3    H231721   0.115   4.753   6.335  0.6447  0.0041  0.5850
 3388TIP3   OH231722   2.591   0.333   0.278  0.4349 -0.4653 -0.1323
 3388TIP3    H131723   2.526   0.373   0.220  1.2145 -0.0205 -0.7223
 3388TIP3    H231724   2.573   0.371   0.364  0.3661  0.1989 -0.4356
 3389TIP3   OH231725   6.715   5.502   0.580 -0.0329 -0.7032  0.8343
 3389TIP3    H131726   6.708   5.596   0.564 -0.2618 -0.9834 -0.9189
 3389TIP3    H231727   6.634   5.478   0.624 -0.1477 -0.1532  0.9197
 3390TIP3   OH231728   4.271   4.046   1.781 -0.4242 -0.3858  0.6043
 3390TIP3    H131729   4.283   4.050   1.875  1.7033  1.7345  0.3273
 3390TIP3    H231730   4.353   4.010   1.747 -0.8005 -0.2541 -0.5138
 3391TIP3   OH231731   3.345   2.456   0.923 -0.0073  0.5464  0.0082
 3391TIP3    H131732   3.355   2.430   1.014  0.1095  0.0039 -0.1590
 3391TIP3    H231733   3.286   2.391   0.886  0.4964  0.3606 -0.4799
 3392TIP3   OH231734   3.949   1.396   1.256 -0.1378 -0.3819 -0.0843
 3392TIP3    H131735   3.916   1.370   1.342  0.8975 -2.0773 -0.1597
 3392TIP3    H231736   3.943   1.491   1.256  0.2435 -0.3099  2.0364
 3393TIP3   OH231737   6.217   1.730   0.352 -0.4060 -0.1769  0.2793
 3393TIP3    H131738   6.254   1.767   0.272 -0.0303  0.1187  0.5855
 3393TIP3    H231739   6.215   1.803   0.414  1.4636 -0.9047  1.2846
 3394TIP3   OH231740   6.948   6.536   1.022 -0.1174 -0.2556 -0.3925
 3394TIP3    H131741   6.986   6.623   1.016  0.2938 -0.4216 -0.2754
 3394TIP3    H231742   6.896   6.527   0.942  0.4767 -0.1970 -0.7923
 3395TIP3   OH231743   5.104   6.133   6.314 -0.3908  0.2407  0.0904
 3395TIP3    H131744   5.199   6.145   6.306 -0.4767 -0.3053 -2.4664
 3395TIP3    H231745   5.095   6.049   6.360  0.3946 -0.1534 -0.4366
 3396TIP3   OH231746   4.224   1.524   0.266 -0.5168  0.5503 -0.1460
 3396TIP3    H131747   4.146   1.527   0.322 -1.4866 -1.2940 -1.2769
 3396TIP3    H231748   4.190   1.537   0.177  0.6916  1.2011 -0.5371
 3397TIP3   OH231749   3.515   0.170   6.355  0.3161  0.4751  0.0490
 3397TIP3    H131750   3.475   0.189   6.440 -1.7268  1.3636 -1.0436
 3397TIP3    H231751   3.441   0.141   6.300  1.3288  1.2796 -1.8147
 3398TIP3   OH231752   6.332   1.785   0.105  0.3462  0.1931 -0.8828
 3398TIP3    H131753   6.249   1.757   0.067  0.9298 -0.6345 -1.5868
 3398TIP3    H231754   6.394   1.785   0.031  0.7325  1.9048 -0.6079
 3399TIP3   OH231755   6.788   6.963   0.148  0.3520  0.2067  0.0047
 3399TIP3    H131756   6.740   7.035   0.106 -0.1201 -0.3226 -0.3693
 3399TIP3    H231757   6.837   7.006   0.218  0.8054  1.0436 -0.7927
 3400TIP3   OH231758   3.416   2.111   0.056  0.0699 -0.1229  0.0428
 3400TIP3    H131759   3.449   2.023   0.073 -1.6098 -1.3541 -2.3919
 3400TIP3    H231760   3.321   2.101   0.058 -0.1606  1.7433  0.0626
 3401TIP3   OH231761   4.674   3.449   7.885  0.2755  0.0789  0.2536
 3401TIP3    H131762   4.602   3.392   7.913  1.2106 -1.5035 -0.4273
 3401TIP3    H231763   4.648   3.537   7.914 -0.8849 -0.7861  2.0098
 3402TIP3   OH231764   3.278   0.857   0.337 -0.1328  0.1855 -0.4929
 3402TIP3    H131765   3.284   0.952   0.344  1.7029  0.3177 -2.8430
 3402TIP3    H231766   3.226   0.842   0.258  0.5505 -0.7179 -0.7937
 3403TIP3   OH231767   6.141   0.733   7.684 -0.1778 -0.0601  0.2422
 3403TIP3    H131768   6.227   0.774   7.678 -0.3315  0.1541 -0.6982
 3403TIP3    H231769   6.079   0.806   7.680 -0.4413 -0.3326 -1.1129
 3404TIP3   OH231770   0.290   3.836   6.454 -0.0996  0.0511 -0.0222
 3404TIP3    H131771   0.383   3.823   6.439  0.1598  0.6226  1.0160
 3404TIP3    H231772   0.278   3.827   6.548 -1.3030 -1.1822 -0.2588
 3405TIP3   OH231773   4.799   5.649   5.970 -0.4299  0.2772 -0.0071
 3405TIP3    H131774   4.710   5.615   5.963 -0.4782 -0.2238  2.2773
 3405TIP3    H231775   4.854   5.571   5.979  0.3787  0.5429 -2.2256
 3406TIP3   OH231776   4.695   6.991   7.014  0.1698  0.1657  0.2021
 3406TIP3    H131777   4.642   7.069   7.027 -1.0106 -0.4852 -0.5716
 3406TIP3    H231778   4.706   6.954   7.101  0.1611  0.8284  0.4855
 3407TIP3   OH231779   5.277   0.008   7.111 -0.1239  0.1791  0.4590
 3407TIP3    H131780   5.189   0.045   7.105 -1.3645 -2.4655  0.9881
 3407TIP3    H231781   5.265  -0.078   7.150  2.5809 -0.8096 -0.6289
 3408TIP3   OH231782   6.410   4.121   7.926  0.1634 -0.3310 -0.3674
 3408TIP3    H131783   6.503   4.106   7.909  0.3818  0.0037  0.4765
 3408TIP3    H231784   6.406   4.145   8.018 -0.9264 -1.6103 -0.0541
 3409TIP3   OH231785   2.936   5.337   0.579  0.1652  0.5733 -0.1906
 3409TIP3    H131786   2.943   5.252   0.622 -0.9541 -0.8607 -2.6322
 3409TIP3    H231787   2.962   5.321   0.489 -4.2094  1.7094 -1.9119
 3410TIP3   OH231788   3.548   3.417   8.244  0.0963 -0.4854  0.2472
 3410TIP3    H131789   3.594   3.346   8.288 -0.2938  0.0859  1.6327
 3410TIP3    H231790   3.461   3.417   8.282  0.0929  0.7281  0.2809
 3411TIP3   OH231791   2.880   0.783   7.728  0.2105  0.3497 -0.6816
 3411TIP3    H131792   2.820   0.847   7.691 -0.0612  0.8232  0.5514
 3411TIP3    H231793   2.838   0.698   7.713 -0.1922  0.5832 -0.8741
 3412TIP3   OH231794   2.469   4.653   1.003 -0.1474 -0.5094  0.3762
 3412TIP3    H131795   2.396   4.625   1.058 -0.4062 -1.1902 -0.2948
 3412TIP3    H231796   2.464   4.596   0.926 -0.1247  0.7757 -0.6050
 3413TIP3   OH231797   2.803   5.578   7.304 -0.2507  0.4531 -0.0840
 3413TIP3    H131798   2.793   5.667   7.338  0.1589  0.9145 -1.1344
 3413TIP3    H231799   2.780   5.585   7.211  3.1536  0.2467 -1.0833
 3414TIP3   OH231800   1.013   4.696   0.881 -0.5052 -0.3496  0.1577
 3414TIP3    H131801   1.106   4.717   0.880 -0.2437 -1.3268 -1.5430
 3414TIP3    H231802   1.009   4.607   0.844 -2.2054  0.2956 -1.3710
 3415TIP3   OH231803   4.652   1.371   0.717 -0.3372  0.0303  0.2753
 3415TIP3    H131804   4.587   1.411   0.659  2.0697  3.8615 -0.1439
 3415TIP3    H231805   4.694   1.304   0.663  0.1240  1.7802 -1.7025
 3416TIP3   OH231806   1.557   5.678   7.218 -0.2312 -0.1658 -0.1975
 3416TIP3    H131807   1.465   5.651   7.211 -0.0553 -1.0554  0.7743
 3416TIP3    H231808   1.600   5.607   7.265  0.7415  0.7221  0.3068
 3417TIP3   OH231809   6.903   6.648   1.914  0.4080  0.2444  0.5632
 3417TIP3    H131810   6.820   6.675   1.875  0.6326 -0.8915 -0.8290
 3417TIP3    H231811   6.894   6.668   2.007 -1.5339 -0.0690  0.5001
 3418TIP3   OH231812   1.542   4.768   7.016 -0.3137 -0.5397  0.3954
 3418TIP3    H131813   1.552   4.814   6.932 -0.0649 -0.4531  0.4707
 3418TIP3    H231814   1.522   4.678   6.991 -4.5288  0.2383  0.1777
 3419TIP3   OH231815   6.891   0.156   6.635  0.0912  0.1666  0.1484
 3419TIP3    H131816   6.881   0.243   6.597  1.3977  0.9100  1.3949
 3419TIP3    H231817   6.921   0.172   6.725  0.2151 -1.5626  0.4554
 3420TIP3   OH231818   5.287   0.473   0.153  0.1918 -0.0509  0.2016
 3420TIP3    H131819   5.269   0.538   0.220 -1.1225  0.9860 -1.0867
 3420TIP3    H231820   5.333   0.521   0.084  0.5261 -0.8262 -0.1280
 3421TIP3   OH231821   3.427   3.705   1.812  0.5020 -0.1763 -0.5103
 3421TIP3    H131822   3.404   3.672   1.899 -0.9896 -0.0277 -0.8126
 3421TIP3    H231823   3.442   3.626   1.760  1.2531 -0.2679 -0.1708
 3422TIP3   OH231824   2.311   3.853   0.559  0.0882 -0.1778  0.1212
 3422TIP3    H131825   2.224   3.891   0.543  0.3803  0.8971  0.9716
 3422TIP3    H231826   2.368   3.899   0.497  0.1355 -0.5609 -0.1225
 3423TIP3   OH231827   5.647   5.538   0.576 -0.1662 -0.0388  0.0631
 3423TIP3    H131828   5.677   5.530   0.486 -3.4209 -1.1288 -1.0794
 3423TIP3    H231829   5.615   5.628   0.583  2.2527  0.8504  1.0216
 3424TIP3   OH231830   3.566   3.594   1.071 -0.0818  0.5043 -0.3343
 3424TIP3    H131831   3.479   3.602   1.109 -0.5894  0.7298 -1.5181
 3424TIP3    H231832   3.587   3.501   1.079 -0.3111  0.4929  0.1841
 3425TIP3   OH231833   2.478   5.605   7.570  0.5465  0.0502  0.5948
 3425TIP3    H131834   2.483   5.512   7.593 -0.5067  0.0760  0.9605
 3425TIP3    H231835   2.385   5.623   7.558  0.8899  0.3013 -2.7177
 3426TIP3   OH231836   2.111   0.489   1.793  0.1933  0.3757 -0.6119
 3426TIP3    H131837   2.171   0.434   1.843 -0.4590 -1.0605 -1.3397
 3426TIP3    H231838   2.161   0.514   1.715  0.5312  0.9337 -0.2231
 3427TIP3   OH231839   1.405   5.703   0.495 -0.5996  0.2030 -0.2924
 3427TIP3    H131840   1.337   5.645   0.461 -0.6854  0.2099 -0.1319
 3427TIP3    H231841   1.430   5.664   0.579  0.5027 -0.5379 -0.9297
 3428TIP3   OH231842   5.526   5.318   0.713 -0.0751 -0.1744  0.0738
 3428TIP3    H131843   5.490   5.390   0.763 -0.5173  1.0332 -1.8819
 3428TIP3    H231844   5.621   5.331   0.716 -0.0097 -0.7762  1.4747
 3429TIP3   OH231845   3.248   2.534   1.675 -0.2451 -0.0222  0.8273
 3429TIP3    H131846   3.225   2.487   1.596 -0.1413 -0.3836  1.0094
 3429TIP3    H231847   3.341   2.556   1.665 -0.5339  1.0579  0.2852
 3430TIP3   OH231848   4.577   7.054   1.468 -0.1450  0.0755 -0.1141
 3430TIP3    H131849   4.643   7.059   1.536  0.4204  0.3576 -0.6725
 3430TIP3    H231850   4.533   7.139   1.470  0.7951  0.5999 -1.0049
 3431TIP3   OH231851   2.703   6.261   8.151  0.1764 -0.3620 -0.0430
 3431TIP3    H131852   2.769   6.230   8.213 -0.1130 -0.6462  0.1308
 3431TIP3    H231853   2.672   6.182   8.107 -0.0981 -0.2412 -0.0687
 3432TIP3   OH231854   0.680   4.912   5.678  0.3927 -0.4251 -0.2078
 3432TIP3    H131855   0.774   4.904   5.695  0.4901  1.0496  0.0407
 3432TIP3    H231856   0.641   4.838   5.725  1.5158 -1.7657 -1.3121
 3433TIP3   OH231857   5.707   2.465   7.718 -0.1407 -0.0334  0.3556
 3433TIP3    H131858   5.620   2.480   7.681 -0.7154  1.1985  2.0950
 3433TIP3    H231859   5.742   2.553   7.734  0.3979 -0.5145  1.9659
 3434TIP3   OH231860   2.523   5.565   6.765 -0.8592 -0.2398 -0.5851
 3434TIP3    H131861   2.557   5.633   6.707  1.3543  1.3719  2.3559
 3434TIP3    H231862   2.449   5.606   6.809  0.8846  0.6935  1.6835
 3435TIP3   OH231863   4.969   2.612   0.130 -0.2546 -0.2055 -0.0801
 3435TIP3    H131864   5.027   2.627   0.205 -0.0687  1.2771 -0.4931
 3435TIP3    H231865   4.998   2.529   0.093  0.9995  0.0580  0.2817
 3436TIP3   OH231866   0.854   5.183   2.009  0.0252  0.0053  0.2083
 3436TIP3    H131867   0.799   5.136   1.947 -0.9883  0.0499  1.0393
 3436TIP3    H231868   0.916   5.117   2.041 -1.2663 -0.7714  1.2272
 3437TIP3   OH231869   3.195   4.730   7.609  0.2621 -0.1286  0.5140
 3437TIP3    H131870   3.151   4.797   7.557 -0.9584 -2.2170 -1.3552
 3437TIP3    H231871   3.286   4.760   7.615  0.0456  1.0872 -1.3577
 3438TIP3   OH231872   1.970   0.498   0.307  0.0400 -0.2051  0.2452
 3438TIP3    H131873   1.987   0.481   0.214 -1.2189 -0.4935  0.0364
 3438TIP3    H231874   1.960   0.593   0.312 -1.1876 -0.2825 -0.1939
 3439TIP3   OH231875   1.359   0.375   1.569 -0.5949 -0.3071  0.2089
 3439TIP3    H131876   1.341   0.325   1.649 -0.5432 -0.7792 -0.0657
 3439TIP3    H231877   1.421   0.442   1.596 -1.6720  0.4406  0.8613
 3440TIP3   OH231878   4.259   4.985   7.745 -0.0962  0.3664  0.2896
 3440TIP3    H131879   4.305   4.988   7.661 -0.0314 -1.2149  0.2317
 3440TIP3    H231880   4.329   4.990   7.811  0.1278 -1.1708  0.2054
 3441TIP3   OH231881   6.546   0.755   8.088 -0.1737  0.4552 -0.0037
 3441TIP3    H131882   6.551   0.850   8.079  1.3080  0.5563  1.3987
 3441TIP3    H231883   6.603   0.721   8.018  0.7350  0.6858  0.6127
 3442TIP3   OH231884   0.072   3.710   6.144 -0.0319  0.0411  0.0519
 3442TIP3    H131885   0.155   3.680   6.180 -0.3342 -0.4833  0.3329
 3442TIP3    H231886   0.095   3.784   6.087  0.7872 -1.0008 -1.0206
 3443TIP3   OH231887   2.358   2.955   6.768 -0.0278 -0.1135  0.1095
 3443TIP3    H131888   2.328   2.931   6.680 -0.5717  0.3302  0.1690
 3443TIP3    H231889   2.346   3.049   6.773  0.9507  0.0045  0.3152
 3444TIP3   OH231890   5.606   2.711   0.120 -0.1526 -0.1019  0.5078
 3444TIP3    H131891   5.535   2.667   0.073  1.1148 -2.0826  0.3284
 3444TIP3    H231892   5.659   2.751   0.051 -0.1229 -0.1429  0.5069
 3445TIP3   OH231893   0.622   5.131   1.505  0.0911 -0.1273  0.2873
 3445TIP3    H131894   0.639   5.197   1.437  1.0670 -1.5594 -0.9033
 3445TIP3    H231895   0.658   5.170   1.584 -1.7302  1.9140  0.2344
 3446TIP3   OH231896   5.167   1.929   2.155 -0.3069 -0.2223  0.9457
 3446TIP3    H131897   5.091   1.878   2.128 -0.9035  1.2429 -0.2951
 3446TIP3    H231898   5.147   2.019   2.126  2.2507  0.0488 -0.1904
 3447TIP3   OH231899   2.564   3.580   7.257 -0.6065  0.7824 -0.3127
 3447TIP3    H131900   2.608   3.496   7.268  1.2298  1.5181 -1.5171
 3447TIP3    H231901   2.473   3.562   7.279 -0.2869 -1.5182 -0.5731
 3448TIP3   OH231902   3.397   6.130   7.240  0.1203 -0.5055  0.5657
 3448TIP3    H131903   3.383   6.039   7.215 -0.5862  0.3928 -2.8210
 3448TIP3    H231904   3.312   6.160   7.270 -0.6506 -0.0577 -1.8834
 3449TIP3   OH231905   5.547   6.897   7.138 -0.1263  0.3114  0.1094
 3449TIP3    H131906   5.576   6.944   7.059  2.3715 -2.4624 -0.8349
 3449TIP3    H231907   5.462   6.860   7.114 -0.6850  1.7192 -0.2150
 3450TIP3   OH231908   2.130   6.370   6.727 -0.0918  0.2945  0.1943
 3450TIP3    H131909   2.191   6.327   6.787  0.3238 -1.2302 -1.2524
 3450TIP3    H231910   2.123   6.311   6.653  1.2715  3.1156 -2.4201
 3451TIP3   OH231911   2.005   4.666   1.542 -0.2093  0.2821 -0.0392
 3451TIP3    H131912   1.990   4.612   1.620  1.2592  1.5222  1.1588
 3451TIP3    H231913   2.028   4.752   1.577  1.4727  0.6078 -1.8232
 3452TIP3   OH231914   0.077   1.832   7.200 -0.2080 -0.0574  0.0342
 3452TIP3    H131915   0.056   1.779   7.277 -0.8441  1.3990  0.9109
 3452TIP3    H231916   0.007   1.811   7.138 -0.3671 -0.3625  0.3094
 3453TIP3   OH231917   5.110   3.267   7.688  0.0107 -0.3630 -0.0289
 3453TIP3    H131918   5.164   3.211   7.632  0.1231 -0.8337  0.5409
 3453TIP3    H231919   5.021   3.255   7.655  0.1765 -0.0063 -0.6230
 3454TIP3   OH231920   5.654   3.874   7.130  0.1692 -0.6065 -0.1762
 3454TIP3    H131921   5.669   3.878   7.036 -0.7299 -1.3396 -0.3661
 3454TIP3    H231922   5.740   3.857   7.168  0.8163  1.1880 -0.7222
 3455TIP3   OH231923   4.884   4.541   0.374 -0.3735  0.1818  0.6815
 3455TIP3    H131924   4.850   4.451   0.377 -1.8088  0.4599 -2.8458
 3455TIP3    H231925   4.947   4.540   0.302  1.3382  1.5603  2.0656
 3456TIP3   OH231926   3.874   0.963   6.868 -0.0715 -0.0144  0.3572
 3456TIP3    H131927   3.851   0.871   6.880 -0.9239  0.1480  0.0182
 3456TIP3    H231928   3.947   0.978   6.928  0.6075 -1.1190 -0.1664
 3457TIP3   OH231929   1.450   0.346   6.807  0.3032 -0.2025 -0.2047
 3457TIP3    H131930   1.397   0.426   6.804  1.1839  0.3698 -1.0029
 3457TIP3    H231931   1.539   0.377   6.824  0.2478 -1.2285  2.5340
 3458TIP3   OH231932   5.075   3.425   8.107 -0.0876  0.2291  0.2414
 3458TIP3    H131933   5.123   3.447   8.027 -1.3176 -1.1782 -0.9538
 3458TIP3    H231934   5.008   3.493   8.114 -1.0475 -0.5315 -0.9356
 3459TIP3   OH231935   5.944   4.871   0.090  0.4841 -0.0894  0.1578
 3459TIP3    H131936   5.850   4.876   0.076  0.4205 -0.3582  0.4730
 3459TIP3    H231937   5.983   4.901   0.008  0.1286 -0.7400 -0.2455
 3460TIP3   OH231938   5.950   0.877   0.768  0.0354 -0.2525  0.3344
 3460TIP3    H131939   6.045   0.862   0.772  0.1892  0.1587 -1.0783
 3460TIP3    H231940   5.935   0.954   0.823  0.2245 -1.4200  2.0931
 3461TIP3   OH231941   4.305   6.655   7.430 -0.1620 -0.6410 -0.1220
 3461TIP3    H131942   4.210   6.646   7.421 -0.1491 -1.3696  0.3698
 3461TIP3    H231943   4.339   6.568   7.410  0.3750 -0.4675  0.0291
 3462TIP3   OH231944   3.811   6.015   7.526 -0.2765 -0.7318 -0.1936
 3462TIP3    H131945   3.829   6.021   7.433  1.2623 -2.4504 -0.0580
 3462TIP3    H231946   3.726   5.971   7.531 -0.4864 -0.4001 -0.7823
 3463TIP3   OH231947   4.029   3.627   7.494  0.0611 -0.3642  0.5538
 3463TIP3    H131948   4.074   3.557   7.542  1.9696  0.7755  0.5178
 3463TIP3    H231949   3.936   3.608   7.507  0.5177 -2.1570  1.6315
 3464TIP3   OH231950   2.901   2.070   6.127  0.7956  0.0454  0.0005
 3464TIP3    H131951   2.956   2.133   6.081  2.5700 -0.7624  0.9203
 3464TIP3    H231952   2.953   1.989   6.128 -0.7861 -1.0165  0.1575
 3465TIP3   OH231953   1.210   4.967   1.657 -0.6633 -0.1608  0.1950
 3465TIP3    H131954   1.204   4.878   1.621 -0.1030 -0.0447 -0.1990
 3465TIP3    H231955   1.281   4.962   1.721 -0.8065 -0.0627  0.3597
 3466TIP3   OH231956   0.402   5.592   7.828  0.1605 -0.4357  0.8004
 3466TIP3    H131957   0.468   5.523   7.836  0.4462 -0.0235  2.3409
 3466TIP3    H231958   0.451   5.673   7.836 -0.0819  0.0273 -1.6966
 3467TIP3   OH231959   1.400   5.869   7.829 -0.1235  0.2628 -0.3355
 3467TIP3    H131960   1.476   5.821   7.795 -2.0145 -4.3828  1.2610
 3467TIP3    H231961   1.335   5.864   7.759 -0.1699  1.1308 -0.3707
 3468TIP3   OH231962   1.809   2.644   7.101  0.1081 -0.0463 -0.1981
 3468TIP3    H131963   1.739   2.694   7.144  2.0397  0.8934  2.0677
 3468TIP3    H231964   1.880   2.707   7.091  0.6204 -0.9124 -2.6669
 3469TIP3   OH231965   3.912   0.482   6.843 -0.2795 -0.5419 -0.7710
 3469TIP3    H131966   3.982   0.440   6.893  1.7392  0.6735 -2.3834
 3469TIP3    H231967   3.847   0.413   6.829 -0.6990 -1.0874  2.8577
 3470TIP3   OH231968   6.060   0.666   6.699 -0.1470  0.1415 -0.2619
 3470TIP3    H131969   5.975   0.670   6.656 -0.0781 -0.0512 -0.4188
 3470TIP3    H231970   6.123   0.664   6.627 -0.0597 -0.8915 -0.1779
 3471TIP3   OH231971   5.087   4.200   0.283  0.4305 -0.0917 -1.0476
 3471TIP3    H131972   5.164   4.201   0.225  0.7219 -0.9119 -0.6808
 3471TIP3    H231973   5.123   4.183   0.370 -0.2195 -1.0814 -0.9570
 3472TIP3   OH231974   3.407   2.989   7.427  0.3348 -0.1969  0.4215
 3472TIP3    H131975   3.351   2.912   7.433 -1.9437  1.2922 -0.1559
 3472TIP3    H231976   3.463   2.972   7.352 -0.8784 -0.8827 -0.3691
 3473TIP3   OH231977   6.478   0.451   7.587 -0.3796 -0.4530 -0.4513
 3473TIP3    H131978   6.543   0.382   7.597  0.1810  0.1124 -0.0786
 3473TIP3    H231979   6.495   0.510   7.661 -0.5863  0.2913 -0.9941
 3474TIP3   OH231980   1.136   4.752   0.010  0.0666 -0.2888 -0.3402
 3474TIP3    H131981   1.121   4.788  -0.078  2.6934 -0.7691 -1.0504
 3474TIP3    H231982   1.231   4.747   0.019 -0.0349  0.9050  3.0540
 3475TIP3   OH231983   1.247   6.529   7.673  0.1127 -0.1893 -0.1910
 3475TIP3    H131984   1.182   6.490   7.732  0.3513  0.5024  0.5520
 3475TIP3    H231985   1.322   6.548   7.729  1.1670 -1.4283 -1.1317
 3476TIP3   OH231986   6.034   5.155   0.404  1.1234 -0.0945 -0.3943
 3476TIP3    H131987   5.955   5.155   0.350  1.1996 -0.6282 -0.5119
 3476TIP3    H231988   6.011   5.207   0.481  1.0603  0.7966 -1.0030
 3477TIP3   OH231989   0.218   0.258   0.367 -0.0562 -0.6173 -0.4693
 3477TIP3    H131990   0.132   0.273   0.328  0.1577  1.0813 -0.3547
 3477TIP3    H231991   0.216   0.307   0.449  0.5981 -1.5874  0.1507
 3478TIP3   OH231992   5.449   0.195   1.009 -0.1161 -0.0753 -0.0213
 3478TIP3    H131993   5.459   0.158   0.921  1.2313  1.3904 -0.5421
 3478TIP3    H231994   5.455   0.119   1.067 -0.2759 -0.9934 -1.1507
 3479TIP3   OH231995   2.833   5.307   6.235  0.5432 -0.0358 -0.7268
 3479TIP3    H131996   2.909   5.248   6.230 -0.5466 -1.5198 -0.4415
 3479TIP3    H231997   2.760   5.250   6.259 -1.0607  1.0274 -2.7622
 3480TIP3   OH231998   3.465   0.805   1.095  0.3605  0.2530  0.1453
 3480TIP3    H131999   3.455   0.726   1.147 -2.0098  1.3364  1.5063
 3480TIP3    H232000   3.523   0.780   1.023 -0.3702 -2.7175  0.4718
 3481TIP3   OH232001   2.658   4.115   6.315 -0.6401  0.3472 -0.0709
 3481TIP3    H132002   2.639   4.046   6.378 -0.6438  0.5854  0.1937
 3481TIP3    H232003   2.613   4.192   6.350  0.5084  0.8280  0.3786
 3482TIP3   OH232004   2.331   5.221   6.531 -0.4508  0.0414  0.3285
 3482TIP3    H132005   2.313   5.202   6.439  1.7280  0.4256 -0.2483
 3482TIP3    H232006   2.317   5.138   6.577 -0.5822 -0.4086 -0.5127
 3483TIP3   OH232007   5.062   3.715   1.482  0.4568  0.1477  0.0075
 3483TIP3    H132008   4.984   3.690   1.530 -0.3707  2.1922 -0.1795
 3483TIP3    H232009   5.132   3.663   1.521 -0.8215 -1.0459  0.7967
 3484TIP3   OH232010   4.735   0.284   8.145  0.2944  0.0471  0.0280
 3484TIP3    H132011   4.717   0.271   8.052 -1.6105  2.1636  0.0112
 3484TIP3    H232012   4.775   0.370   8.150  1.6157 -0.5950  1.0893
 3485TIP3   OH232013   0.125   3.968   7.705  0.6145  0.0262 -0.2015
 3485TIP3    H132014   0.135   3.993   7.613  0.0809 -2.5333 -1.0456
 3485TIP3    H232015   0.215   3.956   7.736  0.8662  2.4346  0.1309
 3486TIP3   OH232016   0.432   3.903   1.131 -0.7404  0.1871  0.4406
 3486TIP3    H132017   0.479   3.986   1.119 -1.6693  0.7274  0.4400
 3486TIP3    H232018   0.365   3.903   1.063 -0.7279 -0.5806  0.4220
 3487TIP3   OH232019   2.479   2.823   8.040  0.0024 -0.4544  0.2252
 3487TIP3    H132020   2.510   2.795   8.126  0.6896 -0.2165  0.0600
 3487TIP3    H232021   2.436   2.907   8.056 -1.3952 -1.2073  0.5987
 3488TIP3   OH232022   1.214   4.202   1.654  0.1783 -0.3743 -0.3986
 3488TIP3    H132023   1.235   4.289   1.689  1.5629 -0.5077 -0.8210
 3488TIP3    H232024   1.121   4.207   1.633  0.4327  1.3676 -1.3577
 3489TIP3   OH232025   0.206   0.071   1.492  0.0631 -0.2239  0.1524
 3489TIP3    H132026   0.188   0.048   1.583 -0.3151 -1.7840 -0.2920
 3489TIP3    H232027   0.149   0.146   1.475 -2.3288 -1.8825  0.3089
 3490TIP3   OH232028   5.456   6.137   8.252 -0.0224  0.7228  0.1092
 3490TIP3    H132029   5.494   6.108   8.169  1.0479 -0.3579  0.9448
 3490TIP3    H232030   5.365   6.108   8.250  0.3273 -0.3773 -0.1860
 3491TIP3   OH232031   2.659   5.360   1.217  0.2439 -0.2503 -0.8818
 3491TIP3    H132032   2.564   5.371   1.218  0.1508 -0.8263  0.8564
 3491TIP3    H232033   2.676   5.298   1.146 -0.9840 -2.0666  0.3038
 3492TIP3   OH232034   2.351   1.999   6.112  0.1235 -0.1991  0.4157
 3492TIP3    H132035   2.310   1.923   6.072  0.0895  0.1063 -0.1318
 3492TIP3    H232036   2.425   2.020   6.055  0.9568 -0.6495  1.3089
 3493TIP3   OH232037   3.395   1.366   6.997  0.7265  0.2186 -0.0004
 3493TIP3    H132038   3.436   1.280   7.002  1.4953  0.5003 -1.1761
 3493TIP3    H232039   3.357   1.371   6.909  1.3920  1.3760 -0.2451
 3494TIP3   OH232040   5.895   5.037   6.819  0.6171 -0.1045  0.3465
 3494TIP3    H132041   5.802   5.045   6.797  0.4781  1.6506  1.3675
 3494TIP3    H232042   5.897   5.042   6.915  1.8221  1.0007  0.2908
 3495TIP3   OH232043   2.366   3.945   7.325  0.1510 -0.3909  0.4161
 3495TIP3    H132044   2.354   4.034   7.357  1.0480 -1.0563  2.8817
 3495TIP3    H232045   2.461   3.934   7.319  0.1475 -1.6960  1.9663
 3496TIP3   OH232046   2.473   6.617   0.873 -0.1758 -0.4317 -0.3874
 3496TIP3    H132047   2.535   6.546   0.889  0.5800  0.2909 -0.0524
 3496TIP3    H232048   2.430   6.630   0.957 -1.2175 -1.3113 -0.7569
 3497TIP3   OH232049   0.383   6.477   8.246  0.1202  0.1523 -0.2664
 3497TIP3    H132050   0.453   6.531   8.283 -0.4572 -0.2949  1.6265
 3497TIP3    H232051   0.424   6.393   8.229  0.5384  0.5468 -1.2389
 3498TIP3   OH232052   2.804   2.729   0.907  0.2521 -0.0168 -0.1281
 3498TIP3    H132053   2.765   2.674   0.839  1.1108 -0.2183 -0.4690
 3498TIP3    H232054   2.899   2.721   0.894  0.4027  1.3591 -0.0404
 3499TIP3   OH232055   2.836   4.790   7.878 -0.4346 -0.1240 -0.5209
 3499TIP3    H132056   2.816   4.852   7.808  2.3642  1.6849  0.1429
 3499TIP3    H232057   2.877   4.716   7.834  0.0031  0.3671 -0.9521
 3500TIP3   OH232058   5.389   5.147   1.596  0.4256  0.0904  0.1780
 3500TIP3    H132059   5.412   5.154   1.688 -0.0198  2.0120  0.1791
 3500TIP3    H232060   5.473   5.133   1.551  1.1916  2.7498  0.5855
 3501TIP3   OH232061   3.316   6.064   1.570  0.3268  0.1980 -0.3336
 3501TIP3    H132062   3.358   6.109   1.496 -1.2459 -0.1809 -1.5013
 3501TIP3    H232063   3.326   6.125   1.643 -0.7285  1.9867 -1.5954
 3502TIP3   OH232064   0.445   7.036   7.625 -0.3129 -0.0913 -0.5393
 3502TIP3    H132065   0.490   6.963   7.581  2.0040  0.5746  0.5702
 3502TIP3    H232066   0.488   7.042   7.711 -1.2976  1.8047 -0.1346
 3503TIP3   OH232067   2.516   0.632   0.745 -0.1384  0.0237 -0.1418
 3503TIP3    H132068   2.505   0.564   0.812 -2.8750  0.9815  0.5105
 3503TIP3    H232069   2.581   0.692   0.783  0.3160 -0.8342  0.4670
 3504TIP3   OH232070   4.604   6.268   0.630 -0.1999 -0.3107 -0.6642
 3504TIP3    H132071   4.559   6.312   0.702  0.1510 -1.1919  0.1148
 3504TIP3    H232072   4.666   6.209   0.674  0.4203 -0.4386 -1.6974
 3505TIP3   OH232073   0.408   4.497   0.627  0.1201  0.4615  0.1918
 3505TIP3    H132074   0.384   4.481   0.536  1.8599  0.7601 -0.3547
 3505TIP3    H232075   0.503   4.510   0.625  0.1689  0.6488  2.0264
 3506TIP3   OH232076   1.210   5.166   7.613 -0.2278  0.2860  0.2170
 3506TIP3    H132077   1.278   5.101   7.633 -0.3632  0.6111  1.8314
 3506TIP3    H232078   1.233   5.242   7.666 -2.3481  0.0627  1.5617
 3507TIP3   OH232079   2.263   2.410   0.522 -0.5084 -0.1020 -0.1088
 3507TIP3    H132080   2.178   2.454   0.514 -0.1120  0.7658  0.3585
 3507TIP3    H232081   2.277   2.402   0.616 -0.9021 -1.9184 -0.1630
 3508TIP3   OH232082   2.293   4.219   5.874  0.1411 -0.8997  0.3344
 3508TIP3    H132083   2.249   4.304   5.866  2.1084  0.2512  1.2239
 3508TIP3    H232084   2.238   4.170   5.935  0.2165  0.6249  1.7042
 3509TIP3   OH232085   3.776   6.753   1.464  0.1425  0.4520  0.2839
 3509TIP3    H132086   3.763   6.702   1.384  1.3506  0.0460  0.3187
 3509TIP3    H232087   3.785   6.843   1.434  0.7476  0.2821 -0.0697
 3510TIP3   OH232088   0.331   5.639   6.646 -0.4491  0.0474 -0.0154
 3510TIP3    H132089   0.409   5.649   6.701 -0.5103  1.6541 -0.1667
 3510TIP3    H232090   0.336   5.712   6.585 -1.9150 -0.0095 -0.2359
 3511TIP3   OH232091   3.849   3.898   6.639 -0.1298  0.4227  0.3104
 3511TIP3    H132092   3.893   3.830   6.690 -0.5563  0.1285  0.2857
 3511TIP3    H232093   3.916   3.927   6.576 -0.0727 -0.2557  0.0509
 3512TIP3   OH232094   2.995   1.929   6.914 -0.6659 -0.1883  0.5085
 3512TIP3    H132095   2.964   1.916   6.825 -0.1712 -0.5152  0.3825
 3512TIP3    H232096   3.089   1.944   6.906 -0.8748  1.5492  0.8179
 3513TIP3   OH232097   1.764   5.796   1.359  0.1122  0.2798 -0.0270
 3513TIP3    H132098   1.825   5.736   1.401 -0.0566 -0.5219 -0.8753
 3513TIP3    H232099   1.735   5.749   1.281 -1.9400  0.4282  0.5812
 3514TIP3   OH232100   0.547   4.166   7.486 -0.0072 -0.0685 -0.8093
 3514TIP3    H132101   0.531   4.077   7.517 -0.3641  0.5736  0.9276
 3514TIP3    H232102   0.620   4.198   7.539 -1.6672  1.6186  0.6094
 3515TIP3   OH232103   3.909   1.221   7.178 -0.0880  0.6447  0.1412
 3515TIP3    H132104   3.951   1.286   7.234  0.1215  0.3972  0.2745
 3515TIP3    H232105   3.980   1.187   7.123  0.3391 -1.2223  1.7406
 3516TIP3   OH232106   4.261   0.464   7.619  0.0346 -0.0580  0.3178
 3516TIP3    H132107   4.251   0.391   7.681 -0.1735 -0.7081 -0.4535
 3516TIP3    H232108   4.346   0.449   7.578  0.5662  0.8681  1.0641
 3517TIP3   OH232109   0.016   0.691   0.595  0.6394  0.0491  0.5742
 3517TIP3    H132110  -0.022   0.671   0.680 -0.5900 -0.2897 -0.0268
 3517TIP3    H232111  -0.021   0.625   0.536  1.1983  0.4825 -0.2910
 3518TIP3   OH232112   6.544   2.299   8.123  0.0855  0.1334  0.7461
 3518TIP3    H132113   6.534   2.383   8.168  2.8258  0.5998  0.6219
 3518TIP3    H232114   6.626   2.264   8.156  0.3535 -1.2312 -1.2166
 3519TIP3   OH232115   1.822   3.380   1.849  0.3345 -0.1791 -0.3071
 3519TIP3    H132116   1.736   3.418   1.868  0.1451  0.9508 -2.9791
 3519TIP3    H232117   1.836   3.316   1.919 -3.1791 -1.2261 -0.3428
 3520TIP3   OH232118   6.269   5.070   6.878 -0.1093  0.2984 -0.1692
 3520TIP3    H132119   6.231   5.056   6.791 -1.3749 -0.1143  0.4387
 3520TIP3    H232120   6.248   4.990   6.926 -1.3577  1.4113  1.2026
 3521TIP3   OH232121   2.623   2.828   5.921  0.0992  0.4125 -0.0901
 3521TIP3    H132122   2.596   2.880   5.996 -1.8320 -1.5695  0.6900
 3521TIP3    H232123   2.563   2.853   5.851 -0.7409 -0.6011  0.2457
 3522TIP3   OH232124   4.776   1.422   0.472 -0.0176  0.6544 -0.0733
 3522TIP3    H132125   4.758   1.479   0.547 -0.4355 -0.8914  1.0378
 3522TIP3    H232126   4.784   1.334   0.509 -2.1990 -0.4790 -2.0460
 3523TIP3   OH232127   5.871   3.687   8.068  0.3640  0.1193 -0.0824
 3523TIP3    H132128   5.916   3.621   8.122 -2.7317 -2.0111  0.1806
 3523TIP3    H232129   5.935   3.710   8.001  2.1680 -1.9786  0.7697
 3524TIP3   OH232130   0.116   3.932   0.059 -0.0606 -0.0307 -0.2675
 3524TIP3    H132131   0.100   4.013   0.010 -1.0403  0.5173  0.9126
 3524TIP3    H232132   0.162   3.875  -0.004  0.7668  1.4674 -1.0807
 3525TIP3   OH232133   6.228   6.733   6.290  0.3127 -0.5242 -0.4820
 3525TIP3    H132134   6.261   6.816   6.325 -0.5370  0.6392 -2.3265
 3525TIP3    H232135   6.251   6.735   6.197 -1.6009 -1.3699 -1.0189
 3526TIP3   OH232136   4.233   3.530   0.143  0.3623  0.5997 -0.5231
 3526TIP3    H132137   4.148   3.574   0.146  0.1932  0.4408 -2.1418
 3526TIP3    H232138   4.254   3.513   0.235 -0.6818  1.9070 -0.0017
 3527TIP3   OH232139   0.383   1.480   6.639 -0.4197 -0.3782  0.0128
 3527TIP3    H132140   0.339   1.490   6.554 -0.7094 -0.0804  0.1967
 3527TIP3    H232141   0.420   1.392   6.636  1.6141  0.4434 -1.3740
 3528TIP3   OH232142   3.936   5.760   7.121 -0.2118 -0.7932  0.1549
 3528TIP3    H132143   3.889   5.783   7.040 -0.3870  0.8606  0.6978
 3528TIP3    H232144   4.007   5.825   7.127 -1.0854  0.0480  2.0690
 3529TIP3   OH232145   6.725   0.720   2.179 -0.7484 -0.3083  0.3098
 3529TIP3    H132146   6.681   0.635   2.170  1.3964 -1.3898 -0.7844
 3529TIP3    H232147   6.814   0.698   2.208 -0.2977  1.6168  0.5138
 3530TIP3   OH232148   3.097   6.741   1.288 -0.8148 -0.2501  0.2101
 3530TIP3    H132149   3.113   6.669   1.348 -2.2418  1.8644  3.3894
 3530TIP3    H232150   3.170   6.801   1.301  0.1116 -0.7596 -2.0509
 3531TIP3   OH232151   3.724   2.688   7.480  0.2342 -0.2479  0.0456
 3531TIP3    H132152   3.700   2.596   7.496 -0.5556 -0.2847 -1.2068
 3531TIP3    H232153   3.767   2.687   7.394  0.4640  0.5271  0.1414
 3532TIP3   OH232154   6.503   5.465   0.896  0.1346  0.2604 -0.3439
 3532TIP3    H132155   6.489   5.491   0.805  2.3233  0.9795 -0.5523
 3532TIP3    H232156   6.541   5.377   0.890  1.5793  0.8469 -0.2653
 3533TIP3   OH232157   2.702   0.893   2.090  0.3955  0.0669  0.0775
 3533TIP3    H132158   2.725   0.841   2.013 -0.5212  0.6974 -0.6489
 3533TIP3    H232159   2.623   0.850   2.125  0.3018  0.2949  0.1486
 3534TIP3   OH232160   4.454   2.278   7.749 -0.4636  0.0928  0.2147
 3534TIP3    H132161   4.392   2.278   7.822 -0.6016  1.0073  0.1015
 3534TIP3    H232162   4.409   2.324   7.678 -0.5070 -1.1733 -0.6204
 3535TIP3   OH232163   0.756   6.451   6.615 -0.3095 -0.0188  0.0972
 3535TIP3    H132164   0.760   6.360   6.586 -2.1008 -1.1586  2.9525
 3535TIP3    H232165   0.824   6.457   6.683  0.6599  1.1983 -0.9357
 3536TIP3   OH232166   3.858   4.773   1.412  0.1174  0.3127  0.7802
 3536TIP3    H132167   3.884   4.823   1.490  0.1305  1.7715 -0.1229
 3536TIP3    H232168   3.925   4.794   1.347  0.0938 -0.8726  0.3432
 3537TIP3   OH232169   4.143   4.513   0.771 -0.2873  0.0181 -0.1585
 3537TIP3    H132170   4.133   4.505   0.866 -1.1684  0.6484 -0.1817
 3537TIP3    H232171   4.133   4.607   0.755 -1.0957 -0.2004 -0.9760
 3538TIP3   OH232172   5.401   3.138   6.791 -1.0279  0.4179 -0.5665
 3538TIP3    H132173   5.495   3.145   6.775 -0.8820  0.8543  0.3874
 3538TIP3    H232174   5.377   3.050   6.761 -0.4494  0.5592 -1.4386
 3539TIP3   OH232175   4.297   2.770   0.394 -0.1739  0.2741 -0.4054
 3539TIP3    H132176   4.300   2.814   0.479 -1.0549  0.7438 -0.6137
 3539TIP3    H232177   4.207   2.782   0.363  0.0881 -0.0470 -1.3249
 3540TIP3   OH232178   1.579   1.699   6.117 -0.4293  0.1668  0.3907
 3540TIP3    H132179   1.532   1.776   6.084  0.4613  0.4557 -0.2219
 3540TIP3    H232180   1.671   1.726   6.119  0.0335 -1.1831 -0.8098
 3541TIP3   OH232181   3.863   6.230   1.343  0.6505  0.1550  0.6420
 3541TIP3    H132182   3.956   6.253   1.337  0.4281  1.1711  0.8977
 3541TIP3    H232183   3.857   6.172   1.419  0.9971  0.5160  0.9454
 3542TIP3   OH232184   0.457   6.397   1.008 -0.1077  0.3987 -0.0540
 3542TIP3    H132185   0.495   6.426   1.091 -0.7699 -0.5451  0.6057
 3542TIP3    H232186   0.500   6.314   0.990  0.3535  0.8085 -0.9077
 3543TIP3   OH232187   3.712   4.879   7.110  0.5661 -0.3272 -0.0479
 3543TIP3    H132188   3.722   4.786   7.128 -0.2912 -0.8900 -2.1531
 3543TIP3    H232189   3.801   4.911   7.095  0.6672 -1.8162 -3.4720
 3544TIP3   OH232190   2.302   6.201   2.238  0.0745  0.6029 -0.7438
 3544TIP3    H132191   2.231   6.259   2.266  0.0248  0.3704 -0.3825
 3544TIP3    H232192   2.328   6.234   2.152 -0.2086  0.9282 -0.7046
 3545TIP3   OH232193   1.281   2.786   0.086 -0.8066 -0.0930 -0.2166
 3545TIP3    H132194   1.221   2.804   0.014 -0.7678 -1.3599 -0.5969
 3545TIP3    H232195   1.258   2.697   0.113 -0.3333  0.1011  0.8628
 3546TIP3   OH232196   3.528   2.270   8.141 -0.4539 -0.0068  0.0144
 3546TIP3    H132197   3.500   2.240   8.055  0.1249  0.1401 -0.2296
 3546TIP3    H232198   3.482   2.213   8.203  0.2145 -1.0417 -0.4292
 3547TIP3   OH232199   5.160   4.904   6.074 -0.2619  0.3448 -0.4354
 3547TIP3    H132200   5.107   4.979   6.048 -0.6440  0.3439  0.3253
 3547TIP3    H232201   5.157   4.845   5.998 -0.4671  0.8198 -0.7964
 3548TIP3   OH232202   4.673   0.855   8.176  0.3839  0.2326 -0.2802
 3548TIP3    H132203   4.608   0.838   8.244 -1.7241  0.7276 -2.0535
 3548TIP3    H232204   4.643   0.804   8.100  3.4487 -1.4963 -0.5253
 3549TIP3   OH232205   4.169   6.813   7.750  0.4492 -0.0318  0.1858
 3549TIP3    H132206   4.093   6.862   7.784 -0.2869 -0.7521 -0.3984
 3549TIP3    H232207   4.177   6.738   7.809 -0.3686 -0.8849 -0.7784
 3550TIP3   OH232208   2.878   6.184   1.877  0.2394 -0.2423 -0.5712
 3550TIP3    H132209   2.851   6.268   1.840  1.8526  0.7628  0.4363
 3550TIP3    H232210   2.823   6.119   1.832 -0.7099  1.2928 -1.7049
 3551TIP3   OH232211   4.982   5.242   6.345 -0.5795 -0.2024  0.5494
 3551TIP3    H132212   4.998   5.224   6.437 -0.5959 -0.5389  0.4878
 3551TIP3    H232213   4.936   5.165   6.312 -1.1285  0.1872  0.4026
 3552TIP3   OH232214   6.175   2.445   1.940  0.5221 -0.2755 -0.0225
 3552TIP3    H132215   6.094   2.413   1.981  0.5714 -0.4951 -0.0965
 3552TIP3    H232216   6.177   2.538   1.962 -1.1242  0.3839 -2.2014
 3553TIP3   OH232217   2.114   6.984   1.543  0.4421  0.1217  0.0331
 3553TIP3    H132218   2.074   6.992   1.457 -2.2824 -0.7533  1.1185
 3553TIP3    H232219   2.125   6.890   1.556  0.8811  0.2426  0.6094
 3554TIP3   OH232220   4.743   6.620   7.517 -0.0345 -0.0370  0.7327
 3554TIP3    H132221   4.709   6.642   7.431 -0.3469 -0.2994  0.7836
 3554TIP3    H232222   4.667   6.627   7.575  0.1492  0.0309  0.9653
 3555TIP3   OH232223   6.559   3.257   7.443 -0.3771  0.4180  0.2997
 3555TIP3    H132224   6.571   3.243   7.537  1.1555 -0.7602 -0.0239
 3555TIP3    H232225   6.579   3.350   7.429 -0.8928  0.6656  1.1662
 3556TIP3   OH232226   5.439   1.539   1.021 -0.5161  0.7717  0.4006
 3556TIP3    H132227   5.453   1.445   1.004  0.4970  0.9783  0.0276
 3556TIP3    H232228   5.351   1.543   1.057 -0.8827 -0.2442 -0.3096
 3557TIP3   OH232229   6.890   0.389   6.504 -0.2116 -0.2267  0.1719
 3557TIP3    H132230   6.866   0.470   6.549 -0.5315 -0.7827  1.0147
 3557TIP3    H232231   6.806   0.350   6.479 -0.0342  0.5391 -1.7916
 3558TIP3   OH232232   3.062   5.422   8.053  0.4799 -0.0276  0.7393
 3558TIP3    H132233   3.098   5.414   7.964 -0.6353  1.0818  0.1656
 3558TIP3    H232234   3.003   5.347   8.062  1.0775 -0.5049  0.8056
 3559TIP3   OH232235   2.003   5.066   6.371 -0.0815 -0.3004 -0.8122
 3559TIP3    H132236   2.065   5.013   6.321 -0.9551 -0.9574 -1.2174
 3559TIP3    H232237   2.049   5.149   6.385  0.7590 -0.6535 -1.3838
 3560TIP3   OH232238   3.919   6.174   1.890 -0.1259 -0.0825 -0.1423
 3560TIP3    H132239   3.871   6.214   1.963 -0.2821  1.5571 -1.1132
 3560TIP3    H232240   3.926   6.082   1.915  0.2410  0.5022  2.1728
 3561TIP3   OH232241   1.380   2.830   0.498  0.2456  0.0194 -0.3857
 3561TIP3    H132242   1.421   2.894   0.556  1.3065 -1.1131  0.1457
 3561TIP3    H232243   1.389   2.868   0.410 -0.8658  1.4799  0.0785
 3562TIP3   OH232244   5.305   6.245   7.762 -0.1905  0.2727  0.0879
 3562TIP3    H132245   5.302   6.280   7.673 -0.5742  0.6118  0.2279
 3562TIP3    H232246   5.393   6.265   7.793  1.1368 -2.7858 -1.3547
 3563TIP3   OH232247   4.755   5.870   0.614  0.3464  0.8093  0.2212
 3563TIP3    H132248   4.797   5.796   0.571  2.9606  1.6324  1.1746
 3563TIP3    H232249   4.676   5.832   0.654  0.6819 -1.0623 -0.7543
 3564TIP3   OH232250   6.696   5.033   7.880  0.5920  0.5126 -0.4584
 3564TIP3    H132251   6.767   5.006   7.938  0.8764  1.1210 -0.5150
 3564TIP3    H232252   6.641   5.090   7.935  1.8877  2.6365 -1.2820
 3565TIP3   OH232253   1.627   0.814   2.237  0.5547 -0.1209  0.0448
 3565TIP3    H132254   1.659   0.904   2.229  0.3159 -0.1042 -0.8226
 3565TIP3    H232255   1.671   0.766   2.167  0.1662 -0.5256  0.0701
 3566TIP3   OH232256   0.807   2.990   6.754 -0.1512  0.0651 -0.5346
 3566TIP3    H132257   0.880   3.023   6.702  2.0366 -0.4306  2.0263
 3566TIP3    H232258   0.762   3.069   6.785 -0.0475  0.3862 -1.1744
 3567TIP3   OH232259   4.088   4.327   2.150  0.4076  0.4739 -0.2398
 3567TIP3    H132260   4.080   4.323   2.245 -1.7363 -1.7958 -0.4088
 3567TIP3    H232261   4.118   4.239   2.125 -0.8275  0.4321 -1.7499
 3568TIP3   OH232262   6.769   5.602   6.720  0.1546  0.4009 -0.0149
 3568TIP3    H132263   6.841   5.645   6.765 -0.0527 -2.3181  3.3416
 3568TIP3    H232264   6.695   5.609   6.781 -0.4232 -2.6714 -0.1746
 3569TIP3   OH232265   0.929   2.635   6.631  0.1844 -0.4259  0.1018
 3569TIP3    H132266   0.871   2.687   6.688  2.0820  1.2399  0.6158
 3569TIP3    H232267   0.870   2.599   6.564 -1.3711  1.9206  0.0762
 3570TIP3   OH232268   6.592   1.117   6.994  0.4484  0.6228  0.2859
 3570TIP3    H132269   6.609   1.039   6.940 -0.7655  0.5398 -0.0003
 3570TIP3    H232270   6.678   1.155   7.008  0.9333 -0.1072 -0.5882
 3571TIP3   OH232271   0.699   5.977   6.755 -0.0397  0.3297 -0.1851
 3571TIP3    H132272   0.718   6.067   6.782 -1.4250  1.0820 -1.5559
 3571TIP3    H232273   0.696   5.981   6.660 -2.2496 -0.6706 -0.2189
 3572TIP3   OH232274   5.721   1.251   6.662  0.0254 -0.3939  0.8725
 3572TIP3    H132275   5.779   1.259   6.737  0.9482 -2.4390  0.4438
 3572TIP3    H232276   5.635   1.280   6.694  1.0539  1.8479  1.7571
 3573TIP3   OH232277   6.414   6.142   0.080 -1.0432  0.2829  0.6903
 3573TIP3    H132278   6.436   6.198   0.154 -0.5481 -0.3471  1.0312
 3573TIP3    H232279   6.409   6.202   0.005  1.1957  0.5809  0.7133
 3574TIP3   OH232280   2.380   1.096   6.564 -0.1562 -0.0944  0.3636
 3574TIP3    H132281   2.434   1.165   6.524 -0.1673 -0.2320  0.1114
 3574TIP3    H232282   2.371   1.030   6.496  0.9609 -0.9709  1.0138
 3575TIP3   OH232283   3.062   5.962   1.602 -0.2116 -0.0536 -0.7947
 3575TIP3    H132284   3.156   5.974   1.587 -0.0483 -3.0032 -3.0371
 3575TIP3    H232285   3.021   5.999   1.525 -0.8928  0.5281 -0.1716
 3576TIP3   OH232286   5.961   0.609   8.244  0.0601 -0.3273 -0.7899
 3576TIP3    H132287   5.953   0.614   8.339  0.1346 -1.7088 -0.6831
 3576TIP3    H232288   5.870   0.607   8.212  0.0294 -0.5523 -0.6923
 3577TIP3   OH232289   0.137   1.187   6.721  1.1584 -0.0885  0.8571
 3577TIP3    H132290   0.109   1.182   6.630 -1.0687  2.1159  1.3057
 3577TIP3    H232291   0.092   1.115   6.764  1.1528 -0.3174  0.4742
 3578TIP3   OH232292   3.993   0.183   5.834  0.3933 -0.1082 -0.3051
 3578TIP3    H132293   3.903   0.151   5.822 -0.0132  0.7437  0.3499
 3578TIP3    H232294   4.027   0.193   5.745 -0.6094  0.7588 -0.6101
 3579TIP3   OH232295   1.094   1.746   0.287  0.3108 -0.0811  0.6013
 3579TIP3    H132296   1.108   1.671   0.345 -0.9467 -0.3243  0.6261
 3579TIP3    H232297   1.000   1.746   0.271  0.5735  0.2352 -1.1130
 3580TIP3   OH232298   2.381   3.837   1.564  0.2150  0.0244 -0.1926
 3580TIP3    H132299   2.296   3.847   1.608  0.9377  2.8008  0.7827
 3580TIP3    H232300   2.365   3.771   1.496 -2.3063 -0.6334  0.9156
 3581TIP3   OH232301   3.908   4.189   7.044  0.2781  0.0755 -0.4514
 3581TIP3    H132302   3.937   4.271   7.002 -0.5162 -0.4439 -2.1139
 3581TIP3    H232303   3.814   4.201   7.056 -0.0539 -0.9648 -1.7157
 3582TIP3   OH232304   0.112   0.161   8.244  0.4223  0.4951 -0.2728
 3582TIP3    H132305   0.207   0.163   8.254  0.4216  1.5406 -0.3769
 3582TIP3    H232306   0.079   0.215   8.315 -0.0911  0.2183 -0.2954
 3583TIP3   OH232307   4.232   2.383   7.130 -0.3088 -0.2181  0.0840
 3583TIP3    H132308   4.288   2.383   7.052  0.0815  0.3173  0.3520
 3583TIP3    H232309   4.145   2.359   7.098 -0.1960  0.1976 -0.5504
 3584TIP3   OH232310   5.140   1.945   1.198  0.5689 -0.1693  0.7321
 3584TIP3    H132311   5.134   1.898   1.281  0.4703  0.9927  1.4180
 3584TIP3    H232312   5.227   1.926   1.166  1.4001  0.9660  2.1535
 3585TIP3   OH232313   3.875   2.539   0.365 -0.0710 -0.6285  0.3453
 3585TIP3    H132314   3.834   2.619   0.330 -1.3487 -1.1467  0.5946
 3585TIP3    H232315   3.911   2.495   0.288 -1.1283 -0.7834 -0.0915
 3586TIP3   OH232316   5.076   6.150   6.046  0.0325  0.5395  0.3246
 3586TIP3    H132317   5.086   6.236   6.004  0.5155  1.1852  1.7046
 3586TIP3    H232318   5.057   6.169   6.137 -0.2668 -0.8326  0.5765
 3587TIP3   OH232319   2.421   4.613   6.624 -0.6501  0.0292  0.5403
 3587TIP3    H132320   2.372   4.553   6.569 -0.0225  0.9414 -1.0662
 3587TIP3    H232321   2.364   4.689   6.635 -0.5916  0.0419  0.7717
 3588TIP3   OH232322   2.728   5.171   0.075 -0.0538  0.1582 -0.1604
 3588TIP3    H132323   2.666   5.158   0.004 -1.7645 -1.2127  1.4831
 3588TIP3    H232324   2.686   5.236   0.132  1.7122  1.9612 -0.7808
 3589TIP3   OH232325   5.445   4.399   2.094 -0.4966 -0.4556  0.6809
 3589TIP3    H132326   5.534   4.396   2.130 -0.3632 -0.0151  0.3909
 3589TIP3    H232327   5.445   4.334   2.024 -0.4234 -0.5112  0.7333
 3590TIP3   OH232328   6.937   2.536   7.921  0.7294 -0.7663  0.7347
 3590TIP3    H132329   6.937   2.629   7.943  0.8423 -0.4419 -0.5622
 3590TIP3    H232330   7.026   2.519   7.890  0.3901 -1.0179 -0.1325
 3591TIP3   OH232331   2.024   6.135   0.268  0.3318  0.3398 -0.4711
 3591TIP3    H132332   2.040   6.101   0.356 -2.4615  1.1503  0.4683
 3591TIP3    H232333   2.096   6.195   0.252  2.2220 -1.6457  0.2103
 3592TIP3   OH232334   5.792   1.050   6.912  0.4051  0.0490  0.4103
 3592TIP3    H132335   5.805   1.048   6.817 -0.4419 -0.0269  0.2854
 3592TIP3    H232336   5.783   0.958   6.937 -1.4184  0.1324  0.2356
 3593TIP3   OH232337   5.542   4.068   7.308  0.0793 -0.5207 -0.0163
 3593TIP3    H132338   5.489   3.993   7.334 -0.7472  0.1554  0.2958
 3593TIP3    H232339   5.555   4.056   7.214  1.0895 -1.7334  0.2436
 3594TIP3   OH232340   1.606   5.024   6.846  0.6328 -0.5415  0.0384
 3594TIP3    H132341   1.609   5.117   6.823  2.8431 -0.8409 -1.2149
 3594TIP3    H232342   1.664   5.017   6.922 -1.0561 -0.6507  1.3681
 3595TIP3   OH232343   1.283   6.650   6.860  0.1180 -0.3458 -0.1848
 3595TIP3    H132344   1.349   6.659   6.929  1.6790 -1.5888 -1.4032
 3595TIP3    H232345   1.298   6.562   6.826  0.8489  0.9091 -3.4646
 3596TIP3   OH232346   1.944   0.471   6.734  0.5975 -0.1318  0.0948
 3596TIP3    H132347   1.933   0.559   6.769 -1.1478 -1.0223  2.0820
 3596TIP3    H232348   1.980   0.483   6.647  1.1400  2.4898  0.6100
 3597TIP3   OH232349   1.600   6.504   1.259 -0.3811 -0.0912 -0.1675
 3597TIP3    H132350   1.665   6.463   1.316  0.0264  0.5503 -0.1518
 3597TIP3    H232351   1.590   6.443   1.186  2.4342  1.0433 -1.6795
 3598TIP3   OH232352   0.291   4.284   7.620 -0.2075 -0.1815 -0.5427
 3598TIP3    H132353   0.318   4.261   7.708 -1.6789 -0.2273 -0.0766
 3598TIP3    H232354   0.370   4.274   7.567  0.4855 -0.9877  0.6076
 3599TIP3   OH232355   4.548   5.439   0.506 -0.4971  0.6765 -0.2433
 3599TIP3    H132356   4.570   5.377   0.437 -1.2613  0.4494 -0.2858
 3599TIP3    H232357   4.553   5.389   0.587  0.8848  1.0603 -0.0654
 3600TIP3   OH232358   6.621   0.184   0.955  0.3998 -0.6390  0.2602
 3600TIP3    H132359   6.565   0.113   0.985 -1.4807 -0.9954 -3.4448
 3600TIP3    H232360   6.696   0.141   0.914 -0.0746 -0.4642 -0.8119
 3601TIP3   OH232361   6.753   2.874   7.222  1.1167  0.2495  0.2041
 3601TIP3    H132362   6.751   2.967   7.199  0.4579  0.8302  2.3537
 3601TIP3    H232363   6.803   2.833   7.152  2.1832  2.3547 -0.3556
 3602TIP3   OH232364   5.768   3.229   0.240 -0.4520 -0.0400  0.1393
 3602TIP3    H132365   5.776   3.274   0.324 -1.5204  0.2407  0.1149
 3602TIP3    H232366   5.777   3.299   0.175 -0.7462 -0.0727  0.0607
 3603TIP3   OH232367   1.592   4.638   0.586  0.5827 -0.2284 -0.8370
 3603TIP3    H132368   1.505   4.602   0.598  0.2006  0.6923 -0.7253
 3603TIP3    H232369   1.618   4.611   0.497 -0.2979  0.4564 -1.3182
 3604TIP3   OH232370   5.878   3.470   1.160  0.4836 -0.0939 -0.1361
 3604TIP3    H132371   5.838   3.384   1.175  0.8995 -0.0307  1.4103
 3604TIP3    H232372   5.966   3.463   1.195  0.5768  0.9175 -0.1296
 3605TIP3   OH232373   1.193   6.726   0.642 -0.1740  0.9815  0.2639
 3605TIP3    H132374   1.257   6.663   0.609 -2.9799 -2.1235  0.1882
 3605TIP3    H232375   1.166   6.775   0.564  1.0004  1.2987  0.0376
 3606TIP3   OH232376   2.166   6.779   7.658  0.3234  0.1099 -0.3446
 3606TIP3    H132377   2.254   6.749   7.636 -0.1128 -0.7400 -1.0053
 3606TIP3    H232378   2.180   6.862   7.705  1.3908  1.2762 -2.5417
 3607TIP3   OH232379   3.223   2.154   0.587  0.2939 -0.2968  0.5158
 3607TIP3    H132380   3.280   2.218   0.545 -0.0703  0.1818  0.7508
 3607TIP3    H232381   3.249   2.070   0.548  0.6280  0.0167  0.0561
 3608TIP3   OH232382   1.181   2.070   6.652 -0.0029  0.0813  0.0964
 3608TIP3    H132383   1.180   2.164   6.633 -2.5305  0.0256 -0.3066
 3608TIP3    H232384   1.216   2.030   6.572  1.1618  0.6547  0.3008
 3609TIP3   OH232385   3.872   2.829   1.076 -0.1211 -0.3841 -0.4099
 3609TIP3    H132386   3.896   2.755   1.020  0.2373  0.6683 -1.6881
 3609TIP3    H232387   3.940   2.830   1.144  1.5615  0.4742 -2.0285
 3610TIP3   OH232388   6.303   1.963   7.507  0.0814 -0.2586 -0.1844
 3610TIP3    H132389   6.258   1.881   7.528  1.6135 -1.3863 -1.0828
 3610TIP3    H232390   6.321   2.003   7.592  1.7510 -2.2622  0.4819
 3611TIP3   OH232391   1.942   5.225   6.721 -0.2410 -1.0015 -0.0032
 3611TIP3    H132392   1.893   5.202   6.642  2.6078 -1.7697 -1.6767
 3611TIP3    H232393   1.998   5.298   6.695 -0.9161  0.3322  2.0397
 3612TIP3   OH232394   2.012   2.245   7.704  0.4965 -0.2838  0.5976
 3612TIP3    H132395   1.931   2.220   7.748  1.5100 -1.3598  1.9311
 3612TIP3    H232396   2.033   2.331   7.738 -0.1581  0.0804  0.1097
 3613TIP3   OH232397   3.560   5.499   1.744  0.3730 -0.7595  0.0039
 3613TIP3    H132398   3.524   5.507   1.833  0.2364  0.9669 -0.1718
 3613TIP3    H232399   3.624   5.428   1.751  0.1316 -0.8774  1.4107
 3614TIP3   OH232400   6.771   2.235   2.280  0.2447 -0.4306 -0.1924
 3614TIP3    H132401   6.691   2.271   2.240 -0.3179 -2.4858 -1.0946
 3614TIP3    H232402   6.820   2.312   2.310 -2.3885  0.8850  1.0589
 3615TIP3   OH232403   2.478   4.912   1.080  0.5563 -0.1558 -0.0890
 3615TIP3    H132404   2.385   4.928   1.094  0.4195 -0.0808 -1.0051
 3615TIP3    H232405   2.482   4.824   1.043  0.5893  0.7482 -2.4194
 3616TIP3   OH232406   3.007   3.247   0.181 -0.1837 -0.1877 -0.3240
 3616TIP3    H132407   2.971   3.322   0.133 -1.0915 -0.9502 -0.8628
 3616TIP3    H232408   2.974   3.257   0.270 -2.2125 -1.1276 -0.9093
 3617TIP3   OH232409   5.921   5.230   7.724  0.1191  0.3115  0.3334
 3617TIP3    H132410   5.924   5.139   7.695  0.5906 -0.9341  3.8294
 3617TIP3    H232411   6.007   5.265   7.702  0.3798 -0.4708  0.0723
 3618TIP3   OH232412   6.454   1.709   7.716  0.0144  0.3969 -0.2005
 3618TIP3    H132413   6.524   1.764   7.683 -0.4538  0.3938 -1.2556
 3618TIP3    H232414   6.374   1.761   7.704 -0.4538 -0.5233 -1.3654
 3619TIP3   OH232415   6.108   3.330   6.765 -0.1209 -0.3434  0.0539
 3619TIP3    H132416   6.142   3.413   6.733  0.1160 -0.7955 -0.9176
 3619TIP3    H232417   6.171   3.303   6.832  0.0031  0.0902  0.1112
 3620TIP3   OH232418   6.668   6.702   7.803  1.1737 -0.6444 -0.3832
 3620TIP3    H132419   6.574   6.709   7.785  1.1939 -0.1823 -0.3018
 3620TIP3    H232420   6.709   6.759   7.738  1.4465 -1.3451 -0.8459
 3621TIP3   OH232421   2.156   6.217   6.151 -0.3534 -0.0133 -0.5910
 3621TIP3    H132422   2.071   6.261   6.148  0.0845  0.8740 -0.2378
 3621TIP3    H232423   2.217   6.284   6.181  0.4765 -0.6416 -0.8348
 3622TIP3   OH232424   4.879   5.611   6.568  0.7523 -0.0259  0.2426
 3622TIP3    H132425   4.887   5.704   6.549  0.5673 -0.2739 -1.1164
 3622TIP3    H232426   4.920   5.567   6.494  2.3115 -1.0412  1.6187
 3623TIP3   OH232427   6.397   6.412   6.874 -0.5896 -0.0535 -0.4196
 3623TIP3    H132428   6.448   6.365   6.941 -0.7659 -0.1937 -0.3821
 3623TIP3    H232429   6.456   6.418   6.799 -0.5935 -0.4131 -0.4556
 3624TIP3   OH232430   1.461   0.593   1.309 -0.3277 -0.0042  0.1532
 3624TIP3    H132431   1.408   0.642   1.245 -0.5379 -1.6950 -1.0365
 3624TIP3    H232432   1.534   0.558   1.257 -0.5020 -1.4331  0.8332
 3625TIP3   OH232433   6.165   3.867   6.755 -0.7010  0.8840 -0.1347
 3625TIP3    H132434   6.076   3.896   6.734 -0.9814  0.3196  0.2436
 3625TIP3    H232435   6.180   3.792   6.698 -0.4711  0.9675 -0.1849
 3626TIP3   OH232436   1.271   5.865   7.297  0.2681 -0.2810 -0.4981
 3626TIP3    H132437   1.208   5.926   7.335  0.7339  0.4255 -0.8241
 3626TIP3    H232438   1.275   5.792   7.358 -0.1795  0.1002 -0.0119
 3627TIP3   OH232439   6.373   0.823   1.405  0.5319  0.2475  0.6129
 3627TIP3    H132440   6.370   0.855   1.315  1.2608 -1.3417 -0.0204
 3627TIP3    H232441   6.294   0.770   1.415  1.0466 -0.5625  0.4883
 3628TIP3   OH232442   3.745   4.855   7.763  0.8148  0.4087 -0.4993
 3628TIP3    H132443   3.713   4.913   7.695  0.4064 -0.8922 -1.4529
 3628TIP3    H232444   3.754   4.911   7.840 -1.5359  1.3027 -0.8172
 3629TIP3   OH232445   0.959   2.774   0.436  0.5348  0.2993  0.1559
 3629TIP3    H132446   0.922   2.795   0.350  1.0699  0.1574 -0.1114
 3629TIP3    H232447   0.913   2.832   0.497 -3.0920 -2.5436  0.4843
 3630TIP3   OH232448   1.261   5.190   6.748 -1.3949 -0.7999  0.4166
 3630TIP3    H132449   1.336   5.233   6.706 -1.5940 -2.4352 -1.8568
 3630TIP3    H232450   1.289   5.174   6.838  0.9433 -1.1641 -0.3007
 3631TIP3   OH232451   4.706   3.436   0.376  0.1720  0.3594  0.1224
 3631TIP3    H132452   4.674   3.354   0.413 -0.2860 -0.2189 -1.4371
 3631TIP3    H232453   4.638   3.460   0.312  0.3878  1.8596  0.4374
 3632TIP3   OH232454   2.407   3.410   2.138  0.2088 -0.2278 -0.4455
 3632TIP3    H132455   2.327   3.362   2.117  0.9081 -1.7559  0.1805
 3632TIP3    H232456   2.477   3.346   2.124  1.0806  0.1601  1.7482
 3633TIP3   OH232457   0.459   4.100   8.200  0.1453  0.0429  0.3733
 3633TIP3    H132458   0.435   4.120   8.290 -1.6172 -0.8899  0.1343
 3633TIP3    H232459   0.408   4.162   8.147 -0.8593 -1.1351 -0.0824
 3634TIP3   OH232460   5.639   1.024   0.816 -0.3504  0.4979  0.2070
 3634TIP3    H132461   5.598   1.052   0.734  0.1846 -0.2997 -0.3557
 3634TIP3    H232462   5.710   1.087   0.830 -0.7341  0.9078  0.3010
 3635TIP3   OH232463   5.373   4.894   1.203 -0.1602 -0.0499 -0.2965
 3635TIP3    H132464   5.452   4.922   1.249  0.4756 -3.3223  0.8579
 3635TIP3    H232465   5.315   4.971   1.206  2.7663  2.3635 -0.9136
 3636TIP3   OH232466   1.256   3.762   1.662  0.2589  0.1270  0.0403
 3636TIP3    H132467   1.203   3.834   1.698  0.1881 -0.5554  1.3707
 3636TIP3    H232468   1.195   3.688   1.657  0.8030 -0.3648  0.5475
 3637TIP3   OH232469   0.864   5.830   0.361  0.7752  0.5414 -0.5900
 3637TIP3    H132470   0.831   5.742   0.375  1.1649  0.5273  0.2987
 3637TIP3    H232471   0.934   5.840   0.425  0.8741  1.4253 -0.8204
 3638TIP3   OH232472   0.701   2.810   6.356 -0.3540  0.1974  0.0087
 3638TIP3    H132473   0.721   2.830   6.265 -0.9794  1.0124  0.0370
 3638TIP3    H232474   0.656   2.888   6.389 -1.3280 -0.5878  0.6273
 3639TIP3   OH232475   2.752   5.337   5.982  0.3941  0.0329  0.4947
 3639TIP3    H132476   2.758   5.316   6.075  0.0464  1.2028  0.8072
 3639TIP3    H232477   2.696   5.415   5.979  1.1951  0.6025 -0.5918
 3640TIP3   OH232478   0.062   4.947   6.320  0.6959 -0.0122  0.7652
 3640TIP3    H132479  -0.007   4.970   6.258  0.3204 -0.5371  0.9812
 3640TIP3    H232480   0.143   4.964   6.273  0.4162 -0.4418  0.1091
 3641TIP3   OH232481   3.624   4.184   0.101  0.6876 -0.6386 -0.1299
 3641TIP3    H132482   3.568   4.180   0.023 -1.2559  1.0949  1.0741
 3641TIP3    H232483   3.662   4.096   0.107  1.0672 -0.7960 -3.0810
 3642TIP3   OH232484   1.451   2.562   7.930 -0.0638  0.4052  0.0818
 3642TIP3    H132485   1.546   2.552   7.939 -0.0410 -0.1839 -0.6661
 3642TIP3    H232486   1.416   2.474   7.946 -0.3455  0.2752 -1.1222
 3643TIP3   OH232487   5.446   3.720   7.063 -0.1014 -0.3547  0.5175
 3643TIP3    H132488   5.427   3.749   6.974  2.1896 -2.3424 -0.7344
 3643TIP3    H232489   5.500   3.790   7.101  1.8400 -0.9686 -0.9584
 3644TIP3   OH232490   2.604   1.720   7.925 -0.1965  0.4032 -0.0176
 3644TIP3    H132491   2.601   1.634   7.884 -1.6841 -0.0332  0.9359
 3644TIP3    H232492   2.517   1.757   7.910 -0.8664  0.1936  2.6990
 3645TIP3   OH232493   2.015   1.321   0.838  0.2678  0.1505  0.0537
 3645TIP3    H132494   1.931   1.287   0.807  1.1468 -1.7611 -0.3830
 3645TIP3    H232495   1.993   1.369   0.918 -1.0060 -2.2562  1.2740
 3646TIP3   OH232496   3.407   1.871   0.751  0.2078  0.4125 -0.2038
 3646TIP3    H132497   3.430   1.778   0.752 -1.0871  0.0757 -0.1489
 3646TIP3    H232498   3.350   1.881   0.675  0.5015  1.2068 -0.3237
 3647TIP3   OH232499   2.865   6.501   6.955 -1.1250  0.1192 -0.3578
 3647TIP3    H132500   2.827   6.588   6.969 -0.8620 -0.0019  1.2502
 3647TIP3    H232501   2.908   6.480   7.038 -0.5616 -1.2426 -0.9730
 3648TIP3   OH232502   6.839   1.985   0.676  0.4425  0.2495 -0.1990
 3648TIP3    H132503   6.757   2.032   0.689  1.5670  1.6563  3.1021
 3648TIP3    H232504   6.895   2.046   0.628 -0.1682 -0.4357 -1.8296
 3649TIP3   OH232505   0.241   0.293   7.960 -0.6339 -0.1710  0.2966
 3649TIP3    H132506   0.155   0.336   7.967  0.1630  1.7767 -1.0383
 3649TIP3    H232507   0.223   0.202   7.981 -3.0154  0.1995  0.2219
 3650TIP3   OH232508   0.613   3.934   7.775 -0.0525  0.0467 -0.1946
 3650TIP3    H132509   0.668   3.886   7.713 -0.1314  0.8419 -0.9019
 3650TIP3    H232510   0.555   3.868   7.813  0.0355 -0.4663 -0.9361
 3651TIP3   OH232511   1.447   2.320   0.695  0.3610  0.0210 -0.5102
 3651TIP3    H132512   1.417   2.407   0.667  2.4337  0.9293 -0.1043
 3651TIP3    H232513   1.532   2.310   0.653  1.5220 -0.4995  1.8293
 3652TIP3   OH232514   4.922   2.887   0.782  0.1296  0.2347 -0.3213
 3652TIP3    H132515   4.985   2.880   0.710 -0.0409 -0.8473 -0.3801
 3652TIP3    H232516   4.928   2.803   0.827 -0.4617  0.5458  0.3511
 3653TIP3   OH232517   4.306   3.142   6.011  0.8680  0.1096  0.7486
 3653TIP3    H132518   4.390   3.188   6.017  0.1020  1.8411 -0.9416
 3653TIP3    H232519   4.245   3.198   6.059  0.4799 -0.6658  1.1730
 3654TIP3   OH232520   1.681   1.327   8.233  0.4149 -0.1355  0.0040
 3654TIP3    H132521   1.777   1.324   8.231  0.5638 -0.1540  2.9408
 3654TIP3    H232522   1.658   1.412   8.196  1.6515  0.4020  0.4288
 3655TIP3   OH232523   2.084   2.235   6.019 -0.8295 -0.2697 -0.5913
 3655TIP3    H132524   2.171   2.202   5.994 -1.6346 -1.8003 -1.5156
 3655TIP3    H232525   2.084   2.325   5.987  0.9886  0.3251  0.8907
 3656TIP3   OH232526   1.257   1.488   0.030  0.7338  0.1767 -0.1297
 3656TIP3    H132527   1.245   1.526  -0.057 -2.1881 -0.5581 -0.1755
 3656TIP3    H232528   1.169   1.461   0.056  1.8582 -1.6655  2.1357
 3657TIP3   OH232529   4.368   1.610   7.726  0.0664  0.3241  0.1023
 3657TIP3    H132530   4.308   1.599   7.799 -2.0220 -0.1004 -1.5602
 3657TIP3    H232531   4.402   1.699   7.735 -1.7626  1.0142  0.4806
 3658TIP3   OH232532   6.082   6.219   1.044 -0.5539 -0.1641  0.0159
 3658TIP3    H132533   6.000   6.227   0.994 -0.8813  0.3556  0.6219
 3658TIP3    H232534   6.067   6.272   1.122 -0.0660 -1.0235  0.6967
 3659TIP3   OH232535   0.070   6.064   6.857 -0.3261 -0.2697  0.3698
 3659TIP3    H132536  -0.021   6.049   6.832 -0.4391  1.4118 -0.3785
 3659TIP3    H232537   0.120   6.004   6.803 -0.9852 -1.4764  1.0465
 3660TIP3   OH232538   0.773   3.729   7.277 -0.2837 -0.1008  0.1328
 3660TIP3    H132539   0.793   3.671   7.204 -0.9041 -0.2806  0.0986
 3660TIP3    H232540   0.855   3.772   7.297 -0.2478  0.3960 -1.0627
 3661TIP3   OH232541   2.399   4.086   2.032  0.2963  0.4221 -0.4355
 3661TIP3    H132542   2.317   4.134   2.046  1.2848  1.9158  0.5174
 3661TIP3    H232543   2.432   4.067   2.120  0.2637 -1.4851 -0.8003
 3662TIP3   OH232544   5.463   6.034   7.049 -0.3620  0.2896 -0.5459
 3662TIP3    H132545   5.419   6.104   7.099 -0.9589  0.0426 -0.7194
 3662TIP3    H232546   5.458   5.957   7.106 -4.5022 -1.0890 -2.4035
 3663TIP3   OH232547   4.899   3.274   1.871 -0.0227  0.1813 -0.0269
 3663TIP3    H132548   4.966   3.342   1.876  0.9110 -0.2842 -3.6002
 3663TIP3    H232549   4.820   3.321   1.845  0.6205  0.0581 -2.4862
 3664TIP3   OH232550   5.930   1.125   0.092 -0.1265 -0.1919 -0.2260
 3664TIP3    H132551   6.012   1.080   0.074 -1.4102 -1.8835 -2.2937
 3664TIP3    H232552   5.941   1.212   0.052  0.4173 -0.6561 -1.1119
 3665TIP3   OH232553   6.332   2.215   0.123  0.0945  0.2746  0.4863
 3665TIP3    H132554   6.379   2.245   0.045  2.0676  0.0225  1.5072
 3665TIP3    H232555   6.385   2.142   0.156 -1.4338 -0.4994  1.3271
 3666TIP3   OH232556   4.523   6.615   6.203  0.5021 -0.1829  0.4748
 3666TIP3    H132557   4.563   6.697   6.233 -1.7351  0.9036  0.6792
 3666TIP3    H232558   4.523   6.621   6.108 -0.7243  0.6599  0.5003
 3667TIP3   OH232559   1.362   3.144   0.817  0.6643  0.0419  0.4416
 3667TIP3    H132560   1.416   3.150   0.896 -0.3977  0.6082  1.1370
 3667TIP3    H232561   1.273   3.164   0.847  0.2159  0.0585 -0.8639
 3668TIP3   OH232562   6.414   5.678   0.069  0.1082  0.9594 -0.2643
 3668TIP3    H132563   6.438   5.768   0.092 -0.4862  0.7223  1.4252
 3668TIP3    H232564   6.390   5.683  -0.024  2.8670  1.9336 -1.0288
 3669TIP3   OH232565   4.506   6.084   8.092 -0.1345 -0.8402  0.2320
 3669TIP3    H132566   4.461   6.055   8.171 -0.8984  0.9334  0.4892
 3669TIP3    H232567   4.539   6.171   8.114 -1.3487  0.1859 -1.7480
 3670TIP3   OH232568   5.185   4.646   6.635 -0.0666 -0.4809 -0.6170
 3670TIP3    H132569   5.132   4.680   6.562 -0.8122 -1.4123 -0.5357
 3670TIP3    H232570   5.265   4.614   6.594  0.4240  0.8387 -0.7586
 3671TIP3   OH232571   2.672   6.951   1.487 -0.6269  0.0600 -0.0188
 3671TIP3    H132572   2.592   6.903   1.465 -0.2154  0.2613 -2.0757
 3671TIP3    H232573   2.645   7.042   1.492 -0.3334  0.2999 -2.0443
 3672TIP3   OH232574   5.405   5.212   6.459 -0.1553 -0.7906 -0.5742
 3672TIP3    H132575   5.467   5.140   6.445  0.0162 -0.4888 -1.4103
 3672TIP3    H232576   5.324   5.182   6.417 -0.2832 -0.7764 -0.3376
 3673TIP3   OH232577   5.534   1.577   7.940 -0.0026 -0.0364  0.1274
 3673TIP3    H132578   5.597   1.579   8.013  0.2783  2.7616 -0.1009
 3673TIP3    H232579   5.449   1.563   7.982  0.3034  0.2746  0.8666
 3674TIP3   OH232580   3.315   4.879   5.982 -0.1321 -0.2704  0.1673
 3674TIP3    H132581   3.366   4.900   6.060  0.0749  0.5407 -0.1815
 3674TIP3    H232582   3.312   4.960   5.932 -0.4774 -0.7139 -0.5518
 3675TIP3   OH232583   4.323   4.113   7.146  0.3359 -0.0088 -0.0251
 3675TIP3    H132584   4.268   4.121   7.068 -2.1551 -0.9169  1.5081
 3675TIP3    H232585   4.359   4.025   7.140 -1.0615 -0.6545  0.5062
 3676TIP3   OH232586   3.674   6.734   5.613  0.2171 -0.5499 -0.3823
 3676TIP3    H132587   3.642   6.759   5.700  1.7836  0.7637 -0.1478
 3676TIP3    H232588   3.640   6.646   5.600  0.4342 -1.0154  1.8217
 3677TIP3   OH232589   4.124   3.781   6.662  0.2155 -0.0697  0.1328
 3677TIP3    H132590   4.189   3.834   6.708  0.2956 -0.1379  0.0981
 3677TIP3    H232591   4.103   3.832   6.583 -2.3187  1.6778  1.7516
 3678TIP3   OH232592   4.909   5.246   6.603  0.4113 -0.3334 -0.0284
 3678TIP3    H132593   4.815   5.265   6.595  0.4505 -0.4912 -0.9364
 3678TIP3    H232594   4.914   5.152   6.615  0.4894 -0.4625 -0.9662
 3679TIP3   OH232595   5.756   1.720   6.558 -0.3614  0.2623 -0.2415
 3679TIP3    H132596   5.776   1.698   6.649 -0.3096 -0.8149 -0.4963
 3679TIP3    H232597   5.791   1.809   6.546  0.5966 -0.0052  0.4875
 3680TIP3   OH232598   6.108   2.749   7.864  0.6465 -0.9000 -0.5678
 3680TIP3    H132599   6.123   2.840   7.836  0.7082 -0.4091  0.9602
 3680TIP3    H232600   6.194   2.708   7.859  1.5896  0.3409  2.7203
 3681TIP3   OH232601   0.872   4.955   7.858  0.3470  0.7504  0.3622
 3681TIP3    H132602   0.957   4.968   7.899  0.4154  0.1710  0.4207
 3681TIP3    H232603   0.850   4.864   7.878  0.0386  0.6825 -0.2497
 3682TIP3   OH232604   5.603   6.636   1.241  0.1342  0.4540  0.3542
 3682TIP3    H132605   5.551   6.556   1.241 -0.2010  0.6370 -1.3267
 3682TIP3    H232606   5.693   6.606   1.237 -0.0349  0.0842 -2.8871
 3683TIP3   OH232607   0.841   1.747   0.227 -0.1081  0.1373  0.1921
 3683TIP3    H132608   0.778   1.818   0.218 -1.4590 -1.0153  0.0650
 3683TIP3    H232609   0.858   1.717   0.138  0.5941  0.4036  0.2295
 3684TIP3   OH232610   1.022   0.025   0.824 -0.4053  0.6433  0.4303
 3684TIP3    H132611   0.988  -0.061   0.798  2.6984  0.0059 -2.1427
 3684TIP3    H232612   1.071   0.008   0.905  0.9762 -0.3003 -0.5590
 3685TIP3   OH232613   0.667   6.655   7.846 -0.1704  0.4120  0.3270
 3685TIP3    H132614   0.680   6.720   7.915 -1.5928  0.8022  0.2580
 3685TIP3    H232615   0.581   6.617   7.865 -0.3892  0.2138 -0.9833
 3686TIP3   OH232616   0.951   1.412   1.093  1.0595  0.0753  0.5827
 3686TIP3    H132617   0.969   1.340   1.153 -1.4925 -0.7320  0.4836
 3686TIP3    H232618   0.952   1.372   1.006 -1.8854 -0.2658  0.6303
 3687TIP3   OH232619   4.148   4.693   0.410 -0.1191 -0.0186 -0.5356
 3687TIP3    H132620   4.164   4.636   0.335 -0.5780 -1.7764  0.6301
 3687TIP3    H232621   4.075   4.651   0.457  1.1082  0.1622  1.6657
 3688TIP3   OH232622   5.131   3.479   7.843 -0.2379 -0.1512 -1.1860
 3688TIP3    H132623   5.039   3.493   7.823 -0.2580 -1.5793 -2.2077
 3688TIP3    H232624   5.157   3.406   7.788  0.6971 -1.8775  1.3762
 3689TIP3   OH232625   1.852   2.795   5.587  0.1627 -0.3758 -0.2225
 3689TIP3    H132626   1.852   2.728   5.655 -2.0509  0.3314  0.5676
 3689TIP3    H232627   1.911   2.862   5.620 -0.3635 -0.3508  0.7194
 3690TIP3   OH232628   6.690   6.453   1.149  0.6431 -0.5589 -0.0072
 3690TIP3    H132629   6.779   6.478   1.123  1.5071 -1.0721  2.2093
 3690TIP3    H232630   6.643   6.536   1.157  1.1012 -0.2389 -0.5389
 3691TIP3   OH232631   1.558   1.826   1.259  0.1614  0.0877  0.0267
 3691TIP3    H132632   1.570   1.829   1.164 -1.5125 -1.3199 -0.2957
 3691TIP3    H232633   1.613   1.753   1.288 -0.3655 -0.3694 -0.0924
 3692TIP3   OH232634   0.152   2.906   1.440  0.3337  0.2248 -0.6227
 3692TIP3    H132635   0.212   2.928   1.512 -0.0271 -3.2502  0.9386
 3692TIP3    H232636   0.208   2.865   1.374 -0.0502 -2.4264  0.5588
 3693TIP3   OH232637   5.041   1.926   8.160 -0.3467  0.1708 -0.6312
 3693TIP3    H132638   5.032   1.877   8.078  0.7909 -1.2175  0.0434
 3693TIP3    H232639   5.011   1.866   8.228 -2.7732  1.8318 -0.0963
 3694TIP3   OH232640   0.287   6.125   6.487 -0.3685  0.5392  0.3653
 3694TIP3    H132641   0.362   6.150   6.433 -0.4973 -0.6920 -0.4324
 3694TIP3    H232642   0.222   6.194   6.470 -0.3033  0.3309 -0.8692
 3695TIP3   OH232643   0.872   4.099   6.036 -0.1088  0.1647 -0.3341
 3695TIP3    H132644   0.796   4.156   6.027 -1.6564 -1.4228  1.6366
 3695TIP3    H232645   0.875   4.050   5.953  1.8167  3.5004 -2.4722
 3696TIP3   OH232646   5.986   2.197   6.286 -0.1395  0.8299  0.3974
 3696TIP3    H132647   6.005   2.236   6.201  3.4272 -1.9490 -0.3618
 3696TIP3    H232648   5.928   2.124   6.267 -0.3461  0.9619  0.5262
 3697TIP3   OH232649   4.169   6.837   6.336 -0.3421 -0.0373  0.1094
 3697TIP3    H132650   4.241   6.849   6.273 -0.1404 -0.4229  0.2620
 3697TIP3    H232651   4.101   6.897   6.306 -0.0476  0.1607 -0.1774
 3698TIP3   OH232652   5.459   3.834   7.419 -0.1225 -0.5853 -0.3142
 3698TIP3    H132653   5.372   3.797   7.408 -0.4061 -0.3119  0.8079
 3698TIP3    H232654   5.516   3.758   7.428 -0.3162 -0.7636 -0.5799
 3699TIP3   OH232655   5.402   3.944   0.058 -1.2264 -0.4462  0.4744
 3699TIP3    H132656   5.359   4.030   0.054 -2.2642 -0.9838 -0.1639
 3699TIP3    H232657   5.446   3.936  -0.027 -0.1030 -0.0376  1.0019
 3700TIP3   OH232658   3.775   6.301   2.092  0.5022  0.2849 -0.0616
 3700TIP3    H132659   3.773   6.297   2.188  1.3836 -0.7693 -0.0753
 3700TIP3    H232660   3.684   6.286   2.066  0.0727  1.5134  0.6153
 3701TIP3   OH232661   6.083   6.970   1.022 -0.1351  0.4052 -0.1770
 3701TIP3    H132662   5.996   6.980   1.060  0.9898  0.8920  2.4323
 3701TIP3    H232663   6.067   6.924   0.939 -2.4821 -4.1768  2.4163
 3702TIP3   OH232664   5.520   3.127   1.734 -0.1116 -0.0898 -0.6937
 3702TIP3    H132665   5.505   3.212   1.692  0.0989  1.7515  2.6299
 3702TIP3    H232666   5.433   3.086   1.737 -0.4866  0.6530 -1.0490
 3703TIP3   OH232667   3.352   0.079   1.310 -0.3065 -0.8828  0.2511
 3703TIP3    H132668   3.439   0.093   1.347 -0.7040 -0.4932  1.0755
 3703TIP3    H232669   3.358  -0.004   1.264  0.9751 -0.0520 -1.1790
 3704TIP3   OH232670   1.578   6.943   7.947 -0.4703  0.3352 -0.6168
 3704TIP3    H132671   1.544   7.026   7.981 -0.4100  0.4695 -0.8820
 3704TIP3    H232672   1.619   6.901   8.023 -2.2569 -0.3931  0.0104
 3705TIP3   OH232673   3.885   0.374   6.450  0.2529  0.3903  0.3797
 3705TIP3    H132674   3.883   0.459   6.407  1.3796  0.3366  0.1967
 3705TIP3    H232675   3.935   0.317   6.391 -2.2670 -1.0286 -0.5533
 3706TIP3   OH232676   5.234   6.443   8.126  0.1075 -0.1943  0.1634
 3706TIP3    H132677   5.260   6.468   8.215  0.0155 -0.4353  0.2581
 3706TIP3    H232678   5.296   6.489   8.070  0.8862 -0.9466  0.3970
 3707TIP3   OH232679   0.856   3.870   2.520 -0.1695  0.1590  0.2396
 3707TIP3    H132680   0.776   3.835   2.481 -0.8042  0.2894  1.3708
 3707TIP3    H232681   0.927   3.838   2.464 -1.1086  1.3570 -1.7413
 3708TIP3   OH232682   4.650   5.792   2.645 -0.4739 -0.1712 -0.2525
 3708TIP3    H132683   4.584   5.788   2.576 -0.0324 -2.0253 -0.6274
 3708TIP3    H232684   4.606   5.758   2.723 -0.9666  1.9002  0.4281
 3709TIP3   OH232685   0.319   2.788   0.770  0.3083 -0.4440 -0.1798
 3709TIP3    H132686   0.315   2.767   0.677  0.9334 -3.1459  0.3147
 3709TIP3    H232687   0.228   2.802   0.796  0.1162  0.1508 -1.1403
 3710TIP3   OH232688   4.283   1.549   7.322  0.0417 -0.1070  0.5814
 3710TIP3    H132689   4.379   1.558   7.316  0.0328 -0.2275  0.1979
 3710TIP3    H232690   4.252   1.577   7.236 -0.1528 -1.6101  0.1369
 3711TIP3   OH232691   5.189   4.878   8.152  0.8018 -0.1702  0.4123
 3711TIP3    H132692   5.106   4.840   8.123 -0.0127  0.5643  1.6880
 3711TIP3    H232693   5.194   4.961   8.106  0.5044  0.0766  0.8199
 3712TIP3   OH232694   2.912   0.844   8.040 -0.3781 -0.3668  0.1060
 3712TIP3    H132695   2.875   0.757   8.025  1.0176 -1.0437  0.4226
 3712TIP3    H232696   3.006   0.832   8.028  0.0779  0.6088  2.2507
 3713TIP3   OH232697   5.110   3.368   0.255 -0.8157  0.1660 -0.0848
 3713TIP3    H132698   5.171   3.305   0.216 -1.1146  0.2708 -0.7353
 3713TIP3    H232699   5.159   3.450   0.257 -0.3580 -0.1117  0.9371
 3714TIP3   OH232700   2.417   4.387   0.547 -0.8981  0.5071  0.7140
 3714TIP3    H132701   2.510   4.373   0.528 -0.3812  2.1827  1.8772
 3714TIP3    H232702   2.372   4.326   0.488  0.9121 -0.1993 -0.0167
 3715TIP3   OH232703   6.853   2.697   7.048  0.3236 -0.0002  0.2508
 3715TIP3    H132704   6.921   2.683   6.982  0.0401 -0.5571  0.0696
 3715TIP3    H232705   6.901   2.700   7.131  0.4447 -2.0832  0.3203
 3716TIP3   OH232706   3.791   6.469   8.132  0.2037  0.3792 -0.4076
 3716TIP3    H132707   3.783   6.476   8.227  2.2974  0.5654 -0.2051
 3716TIP3    H232708   3.758   6.381   8.112 -0.8214  0.5580  0.3929
 3717TIP3   OH232709   0.096   5.350   7.627 -0.0558  0.0062 -0.4630
 3717TIP3    H132710   0.101   5.278   7.564 -0.0753 -0.5540  0.1672
 3717TIP3    H232711   0.086   5.428   7.572 -0.1655 -0.4756 -1.1522
 3718TIP3   OH232712   5.023   4.531   6.291 -0.4236  0.2380  0.2313
 3718TIP3    H132713   4.974   4.612   6.280 -0.9633  0.0497  1.0901
 3718TIP3    H232714   4.955   4.465   6.310  0.0420 -0.3231 -0.0277
 3719TIP3   OH232715   6.503   0.191   7.680 -0.3566 -0.2371  0.0910
 3719TIP3    H132716   6.409   0.195   7.694 -0.2130 -0.4183  1.1325
 3719TIP3    H232717   6.516   0.108   7.633 -0.7720  0.0931 -0.6241
 3720TIP3   OH232718   3.892   1.491   6.904  0.7980  0.3538 -0.3467
 3720TIP3    H132719   3.861   1.410   6.863  1.2899  0.8368 -1.7143
 3720TIP3    H232720   3.862   1.484   6.995 -1.6271 -0.0892 -1.0935
 3721TIP3   OH232721   2.177   1.431   0.652 -0.0279  0.0186 -0.0281
 3721TIP3    H132722   2.120   1.489   0.601 -0.2291 -1.2038 -1.2416
 3721TIP3    H232723   2.117   1.383   0.708  0.1393  0.9445  0.9777
 3722TIP3   OH232724   2.393   0.569   1.245 -0.8312 -0.3174  0.4156
 3722TIP3    H132725   2.307   0.582   1.285 -0.8853 -2.2742  1.0331
 3722TIP3    H232726   2.449   0.634   1.287 -2.1423  1.6270 -0.6575
 3723TIP3   OH232727   5.327   2.495   0.727 -0.3949 -0.7076  0.2233
 3723TIP3    H132728   5.419   2.471   0.738 -0.3589 -0.8441 -0.3259
 3723TIP3    H232729   5.297   2.440   0.654  0.1240  2.0508 -2.2290
 3724TIP3   OH232730   0.981   2.266   1.517  0.0092  0.0862 -0.0057
 3724TIP3    H132731   1.022   2.191   1.561  0.1077 -0.0126 -0.2653
 3724TIP3    H232732   0.896   2.274   1.559 -0.0679 -0.2754 -0.0882
 3725TIP3   OH232733   0.910   5.753   0.920 -0.3183 -0.2590  0.8841
 3725TIP3    H132734   0.992   5.803   0.920 -0.4397 -0.0516  1.2721
 3725TIP3    H232735   0.934   5.668   0.955 -0.1680 -0.3724  0.5069
 3726TIP3   OH232736   2.759   2.340   5.865 -0.3454  0.1425  0.5901
 3726TIP3    H132737   2.821   2.390   5.918  0.8470 -2.1040  1.4593
 3726TIP3    H232738   2.804   2.326   5.782 -0.2979 -0.2500  0.6817
 3727TIP3   OH232739   3.784   3.371   0.360  0.0380 -0.1556 -0.5066
 3727TIP3    H132740   3.813   3.442   0.417 -0.8495 -0.5722  0.4909
 3727TIP3    H232741   3.711   3.329   0.407 -0.5874 -0.6502 -1.8410
 3728TIP3   OH232742   0.232   4.531   7.303  0.1877  0.0603 -0.3069
 3728TIP3    H132743   0.271   4.444   7.295  0.7698  0.2537  0.3391
 3728TIP3    H232744   0.226   4.546   7.397 -1.0796  0.2098 -0.3985
 3729TIP3   OH232745   3.533   0.655   6.329  0.3174  0.0930  0.1046
 3729TIP3    H132746   3.626   0.630   6.329  0.4145  0.3746 -1.0654
 3729TIP3    H232747   3.511   0.666   6.421  1.8633  1.4935  0.3556
 3730TIP3   OH232748   6.825   3.478   0.084 -0.3219  0.0223 -0.2302
 3730TIP3    H132749   6.895   3.520   0.132 -0.4670 -1.1926  1.1307
 3730TIP3    H232750   6.747   3.490   0.139 -0.6595 -0.7138 -0.5303
 3731TIP3   OH232751   5.601   1.509   0.732 -0.3324 -0.2280  0.0491
 3731TIP3    H132752   5.518   1.531   0.773 -0.9153  0.7054 -1.5481
 3731TIP3    H232753   5.665   1.515   0.803 -1.2837  1.2755  0.8298
 3732TIP3   OH232754   6.908   2.333   7.061  0.2163 -0.5147 -0.2666
 3732TIP3    H132755   6.854   2.353   6.985  0.7148 -0.9737 -0.7527
 3732TIP3    H232756   6.997   2.326   7.026  0.0261 -4.4320 -0.3696
 3733TIP3   OH232757   6.545   1.212   0.454 -0.1046  0.1473 -0.0403
 3733TIP3    H132758   6.476   1.147   0.442 -0.4810  0.5024  0.1416
 3733TIP3    H232759   6.604   1.173   0.519 -0.8999  0.4238  0.8702
 3734TIP3   OH232760   2.451   2.395   6.209  0.3900 -0.3843 -0.5838
 3734TIP3    H132761   2.358   2.418   6.215  0.2373 -1.0132 -0.4336
 3734TIP3    H232762   2.497   2.479   6.215 -0.0553 -0.2499  2.1282
 3735TIP3   OH232763   4.870   3.289   6.048  0.1713  0.2589  0.2556
 3735TIP3    H132764   4.861   3.334   6.131 -2.0395  0.2973  0.0622
 3735TIP3    H232765   4.816   3.210   6.057  0.3637 -0.0351 -0.9265
 3736TIP3   OH232766   5.444   3.744   1.154 -0.5353 -0.0351 -0.5810
 3736TIP3    H132767   5.468   3.712   1.067  0.4295 -0.8088 -0.0502
 3736TIP3    H232768   5.500   3.694   1.214 -1.1110  0.5640  0.4747
 3737TIP3   OH232769   0.963   6.246   7.535 -0.6175 -0.0587  0.5898
 3737TIP3    H132770   1.044   6.238   7.584 -0.7637 -0.9802  0.6865
 3737TIP3    H232771   0.911   6.309   7.585 -0.2938 -0.0965  0.9726
 3738TIP3   OH232772   6.096   3.821   0.630 -0.1961  0.5798  0.0253
 3738TIP3    H132773   6.013   3.864   0.611 -0.1859  0.3647 -0.5523
 3738TIP3    H232774   6.141   3.880   0.690 -1.2260  0.1728  1.2379
 3739TIP3   OH232775   1.371   3.653   1.445  0.6142  0.1749  0.1993
 3739TIP3    H132776   1.342   3.707   1.518 -1.5050  1.6701 -1.6135
 3739TIP3    H232777   1.369   3.563   1.479 -2.5711  0.5777  1.4076
 3740TIP3   OH232778   4.645   5.225   1.809 -0.1406 -0.0832  0.1625
 3740TIP3    H132779   4.641   5.135   1.842  1.4324 -0.5074 -0.7132
 3740TIP3    H232780   4.734   5.235   1.777  0.0893  2.1949  1.2950
 3741TIP3   OH232781   4.898   3.575   1.250 -0.6255  0.3209  0.3884
 3741TIP3    H132782   4.900   3.648   1.312  0.6261  0.7699 -0.1482
 3741TIP3    H232783   4.980   3.528   1.264  0.0950  0.9104 -1.4327
 3742TIP3   OH232784   2.995   0.048   1.144  0.3445  0.0185  0.2294
 3742TIP3    H132785   2.948   0.124   1.181 -0.0432  0.0039 -0.2282
 3742TIP3    H232786   3.044   0.012   1.218  1.7160  1.5864  0.1596
 3743TIP3   OH232787   3.845   5.417   1.747 -0.4961  0.2747  0.4533
 3743TIP3    H132788   3.841   5.420   1.843  1.0914 -0.9101  0.6053
 3743TIP3    H232789   3.780   5.351   1.722 -0.8744  0.5474  0.7008
 3744TIP3   OH232790   4.064   6.168   0.542 -0.2371 -0.2922  0.0156
 3744TIP3    H132791   3.990   6.199   0.489 -0.1085  0.1113  0.0644
 3744TIP3    H232792   4.123   6.243   0.546 -0.4328 -0.1805  1.0676
 3745TIP3   OH232793   6.607   5.827   1.474 -0.0931  0.4644  0.6186
 3745TIP3    H132794   6.515   5.851   1.462 -0.3121 -0.7862 -0.3340
 3745TIP3    H232795   6.651   5.911   1.491 -0.9009  1.5559 -2.0841
 3746TIP3   OH232796   3.950   4.563   0.537  0.4147  0.3728 -0.0029
 3746TIP3    H132797   3.987   4.521   0.615  2.3817  0.9247 -0.5906
 3746TIP3    H232798   3.858   4.578   0.560  0.5387 -0.9552  1.5724
 3747TIP3   OH232799   0.270   5.216   1.324  0.8351  0.4612  0.2156
 3747TIP3    H132800   0.336   5.149   1.304  1.9173  1.5031  0.1856
 3747TIP3    H232801   0.302   5.258   1.404 -0.7971 -0.2558  1.2833
 3748TIP3   OH232802   0.082   5.173   7.402 -0.0644 -0.4983 -0.1168
 3748TIP3    H132803   0.108   5.111   7.333 -0.6628  0.6785 -1.4655
 3748TIP3    H232804  -0.009   5.149   7.421 -0.5760  0.4409 -1.2448
 3749TIP3   OH232805   6.961   3.049   7.498  0.0014  0.0659  0.5362
 3749TIP3    H132806   6.869   3.026   7.487  0.2128 -0.0596 -1.2392
 3749TIP3    H232807   6.999   2.975   7.545 -0.7963  0.1461  1.3356
 3750TIP3   OH232808   3.028   4.055   0.785  0.0869  0.0413 -0.6003
 3750TIP3    H132809   3.014   4.148   0.799  1.2377  0.1421 -0.0720
 3750TIP3    H232810   3.063   4.022   0.867  3.5116 -0.0485 -1.9399
 3751TIP3   OH232811   2.153   6.665   8.027  0.2252  0.1646 -0.0831
 3751TIP3    H132812   2.077   6.677   7.969  0.1250 -0.8764 -0.1823
 3751TIP3    H232813   2.221   6.721   7.990 -0.3829  0.8467 -0.1943
 3752TIP3   OH232814   0.458   6.447   7.217  0.1282  0.1325 -0.2796
 3752TIP3    H132815   0.483   6.442   7.309 -1.4859 -3.0432  0.1482
 3752TIP3    H232816   0.375   6.496   7.217  0.9053  1.4913 -0.3063
 3753TIP3   OH232817   0.588   6.740   0.976 -0.2717 -0.1439  0.6520
 3753TIP3    H132818   0.537   6.735   1.057 -0.5076 -0.3099  0.4907
 3753TIP3    H232819   0.633   6.824   0.982  0.0447 -0.3442  1.1557
 3754TIP3   OH232820   0.595   4.716   0.851  0.1089 -0.1926 -0.4111
 3754TIP3    H132821   0.530   4.731   0.783  0.6365  0.1530 -0.8444
 3754TIP3    H232822   0.651   4.647   0.816  0.8679  0.5492 -0.6848
 3755TIP3   OH232823   5.382   0.483   6.449  0.4381  0.5669  0.4308
 3755TIP3    H132824   5.328   0.452   6.522 -0.9278 -0.7226 -1.0743
 3755TIP3    H232825   5.320   0.510   6.382  1.5178 -2.1789 -1.8794
 3756TIP3   OH232826   6.058   4.505   6.493  0.1938 -0.1515 -0.2449
 3756TIP3    H132827   5.986   4.442   6.487 -0.5699  0.7997 -1.4038
 3756TIP3    H232828   6.091   4.512   6.404  2.7601 -1.6733  0.4736
 3757TIP3   OH232829   2.412   2.034   6.401  0.3170  0.2145 -0.0098
 3757TIP3    H132830   2.403   1.993   6.487  1.8832 -0.4219 -0.1259
 3757TIP3    H232831   2.488   2.092   6.410 -0.3139  1.1598 -0.5990
 3758TIP3   OH232832   5.768   2.204   6.868  0.0959 -0.1098  0.0368
 3758TIP3    H132833   5.839   2.145   6.846 -0.0727  0.3499 -1.9483
 3758TIP3    H232834   5.689   2.151   6.861  0.0203  0.0967 -0.8490
 3759TIP3   OH232835   6.344   4.932   0.854 -0.2166 -0.4479 -0.8558
 3759TIP3    H132836   6.423   4.975   0.821 -0.8846  0.9198 -0.7192
 3759TIP3    H232837   6.279   4.943   0.785 -0.7666 -0.1218 -0.2929
 3760TIP3   OH232838   4.266   5.822   0.638 -0.5804 -0.1838 -0.5115
 3760TIP3    H132839   4.287   5.729   0.645  1.1132  0.2875  1.5181
 3760TIP3    H232840   4.174   5.824   0.608 -1.2088 -2.5216  1.0537
 3761TIP3   OH232841   1.161   0.366   0.536  0.0455  0.4866  0.4969
 3761TIP3    H132842   1.080   0.356   0.585  0.0807  0.6815  0.5969
 3761TIP3    H232843   1.230   0.348   0.599  0.0636 -0.4940  0.2076
 3762TIP3   OH232844   5.837   5.795   6.035 -0.1810 -0.4772 -0.0596
 3762TIP3    H132845   5.748   5.818   6.061 -0.4498 -1.5605 -0.0103
 3762TIP3    H232846   5.892   5.827   6.107 -0.4052  1.0852 -0.5368
 3763TIP3   OH232847   3.592   0.352   1.267  0.8540  0.5840 -0.2404
 3763TIP3    H132848   3.658   0.407   1.225  2.0863 -1.0821 -0.5789
 3763TIP3    H232849   3.627   0.337   1.355 -0.1915  1.4925  0.3573
 3764TIP3   OH232850   6.073   4.912   8.119 -0.1618  0.1233  0.2341
 3764TIP3    H132851   6.078   4.843   8.052  1.7924 -0.3627  0.8109
 3764TIP3    H232852   5.985   4.948   8.109 -0.5070 -1.0399 -1.4904
 3765TIP3   OH232853   2.393   6.869   0.363  0.2023  0.0190  0.1248
 3765TIP3    H132854   2.326   6.829   0.308  0.6175  1.1161 -1.2568
 3765TIP3    H232855   2.345   6.903   0.438 -0.1811 -2.7667  1.2383
 3766TIP3   OH232856   3.752   6.062   7.243  0.2935  0.4511 -0.0292
 3766TIP3    H132857   3.672   6.114   7.256 -0.4664 -0.4150 -1.0365
 3766TIP3    H232858   3.773   6.075   7.150  0.0036 -1.1220 -0.3357
 3767TIP3   OH232859   6.746   3.069   6.867 -0.5193  0.3784  0.0419
 3767TIP3    H132860   6.792   3.091   6.948 -2.4145  0.4059  1.1572
 3767TIP3    H232861   6.664   3.029   6.895 -1.6914  1.2914 -1.8303
 3768TIP3   OH232862   2.997   2.838   8.087  0.0635  0.9414 -0.1078
 3768TIP3    H132863   3.036   2.760   8.127 -0.0482  2.0592  2.3417
 3768TIP3    H232864   2.957   2.805   8.006 -0.8967 -1.7566  1.3156
 3769TIP3   OH232865   6.671   4.196   7.819 -0.2709  0.0823  0.4516
 3769TIP3    H132866   6.719   4.120   7.786 -0.1598  0.1538  0.4441
 3769TIP3    H232867   6.735   4.267   7.815 -1.2401  0.9151 -2.5355
 3770TIP3   OH232868   0.245   2.183   1.144  0.0343  0.3243  0.0509
 3770TIP3    H132869   0.222   2.152   1.056  0.9431 -0.3711  0.0492
 3770TIP3    H232870   0.321   2.131   1.169 -0.8730 -0.2620  1.7089
 3771TIP3   OH232871   2.339   5.329   1.728 -0.4086  0.4225 -0.8093
 3771TIP3    H132872   2.341   5.257   1.665  0.3830 -0.1949 -0.1017
 3771TIP3    H232873   2.312   5.288   1.810  1.2209  0.6705 -0.1096
 3772TIP3   OH232874   1.040   0.027   6.523 -0.0077 -0.0402  0.9565
 3772TIP3    H132875   1.038   0.119   6.550 -1.9720 -0.0071  0.8136
 3772TIP3    H232876   0.988  -0.019   6.588  0.6897 -1.0140  0.8502
 3773TIP3   OH232877   1.215   1.990   1.182  0.1637 -0.1051  0.2338
 3773TIP3    H132878   1.131   1.983   1.138  0.4408 -0.8806 -0.1889
 3773TIP3    H232879   1.277   2.014   1.113  0.2145  0.9442  0.6289
 3774TIP3   OH232880   4.439   3.339   8.036  0.1019  0.0646 -0.1501
 3774TIP3    H132881   4.379   3.265   8.024 -1.6671  1.5591 -1.0809
 3774TIP3    H232882   4.477   3.325   8.123  2.1738 -3.4671 -1.4201
 3775TIP3   OH232883   2.244   6.484   7.809 -0.1645  0.1380  0.0159
 3775TIP3    H132884   2.276   6.527   7.888  0.9507  0.9775 -0.8660
 3775TIP3    H232885   2.306   6.413   7.793  0.1976  0.5923 -0.6476
 3776TIP3   OH232886   3.764   5.934   0.771 -0.0819  0.3761 -0.0786
 3776TIP3    H132887   3.771   5.872   0.844  1.3290 -0.2571 -0.7114
 3776TIP3    H232888   3.775   6.020   0.813  0.8981  0.0123  0.4519
 3777TIP3   OH232889   0.615   1.303   7.158 -0.3222  0.5498 -0.4628
 3777TIP3    H132890   0.623   1.262   7.244  0.1322  1.1599 -0.2093
 3777TIP3    H232891   0.704   1.332   7.137 -0.8030  2.2779 -0.2060
 3778TIP3   OH232892   6.174   3.584   6.638  0.5808 -0.1143 -0.5041
 3778TIP3    H132893   6.128   3.607   6.557 -1.4099 -0.3571  0.4964
 3778TIP3    H232894   6.256   3.544   6.608 -0.9455 -2.0330 -2.4793
 3779TIP3   OH232895   6.054   2.869   6.789  0.5134 -0.3631  0.5497
 3779TIP3    H132896   6.074   2.905   6.876  1.5958 -0.2358  0.2566
 3779TIP3    H232897   5.961   2.847   6.794  0.5498 -0.3494  1.7406
 3780TIP3   OH232898   3.897   0.010   7.912 -0.1624  0.1651  0.2612
 3780TIP3    H132899   3.946   0.092   7.920  1.0000 -0.1000 -2.7838
 3780TIP3    H232900   3.890  -0.005   7.817 -0.9300 -2.8913  0.6838
 3781TIP3   OH232901   6.891   2.635   6.395  0.1523 -0.2256  0.0287
 3781TIP3    H132902   6.981   2.661   6.379 -0.5188  1.3691 -1.4506
 3781TIP3    H232903   6.863   2.592   6.315 -1.0443  1.3159 -0.4433
 3782TIP3   OH232904   3.034   1.264   2.132  0.5318 -0.2077 -0.0802
 3782TIP3    H132905   2.987   1.341   2.164  0.5706 -0.0221 -0.4671
 3782TIP3    H232906   3.078   1.294   2.053  0.3552 -0.6935 -0.3660
 3783TIP3   OH232907   5.632   5.093   6.787  0.4937 -0.0063  0.2207
 3783TIP3    H132908   5.624   5.159   6.718  4.4687 -0.3339 -0.7844
 3783TIP3    H232909   5.592   5.014   6.750  1.5419  0.1476 -1.3235
 3784TIP3   OH232910   1.272   3.089   7.626  0.0193  0.5082  0.7750
 3784TIP3    H132911   1.253   2.997   7.642 -0.7489  0.4537 -0.3198
 3784TIP3    H232912   1.262   3.132   7.711  0.3831 -0.4067  1.2912
 3785TIP3   OH232913   1.870   2.241   6.191 -0.2310  0.3493 -0.0975
 3785TIP3    H132914   1.872   2.153   6.228  1.3974  0.6979  0.7539
 3785TIP3    H232915   1.915   2.233   6.107 -0.1384  0.3490 -0.0482
 3786TIP3   OH232916   5.149   3.113   7.935 -0.3377  0.8356 -0.1145
 3786TIP3    H132917   5.070   3.066   7.963  0.7828 -1.6894 -0.9459
 3786TIP3    H232918   5.130   3.140   7.846 -0.0120 -0.4701 -0.5982
 3787TIP3   OH232919   5.609   2.586   7.036 -0.2705  0.0051  0.8600
 3787TIP3    H132920   5.689   2.541   7.063 -0.0567 -1.4471 -1.8004
 3787TIP3    H232921   5.539   2.537   7.079  0.1517 -0.2804  1.2360
 3788TIP3   OH232922   4.629   5.290   1.087 -0.2436 -0.0129  0.2403
 3788TIP3    H132923   4.567   5.231   1.044  0.8278 -0.1097 -1.2740
 3788TIP3    H232924   4.695   5.232   1.126 -1.6420  0.0342  2.8610
 3789TIP3   OH232925   5.417   6.634   7.104 -0.0989 -0.3521 -0.6930
 3789TIP3    H132926   5.487   6.569   7.107 -0.2572 -0.5735 -1.4468
 3789TIP3    H232927   5.350   6.601   7.163  0.1905 -0.4211 -0.3975
 3790TIP3   OH232928   5.110   3.176   6.865  0.3104  0.2644 -0.6564
 3790TIP3    H132929   5.083   3.095   6.908  2.0223  1.5269  3.1467
 3790TIP3    H232930   5.193   3.154   6.824 -0.0526 -0.2870 -1.1226
 3791TIP3   OH232931   2.367   1.038   1.115 -0.2948 -0.0118  1.5025
 3791TIP3    H132932   2.322   1.114   1.077  1.3340  0.4065  0.3062
 3791TIP3    H232933   2.451   1.034   1.068 -0.2654 -2.4657  1.6409
 3792TIP3   OH232934   6.760   0.081   1.495  0.5191  1.0177  0.2104
 3792TIP3    H132935   6.835   0.068   1.554 -0.6537 -0.7181  1.4083
 3792TIP3    H232936   6.721   0.163   1.525  0.7831  0.9019  0.9053
 3793TIP3   OH232937   0.850   5.479   6.557  0.2834  0.3346 -0.2552
 3793TIP3    H132938   0.815   5.543   6.619 -3.7903 -0.6099 -1.2376
 3793TIP3    H232939   0.777   5.464   6.496  3.5013  0.2563 -4.5713
 3794TIP3   OH232940   0.678   2.658   0.457 -0.0956  0.4274 -0.1004
 3794TIP3    H132941   0.741   2.689   0.393  1.0605 -0.0580  0.7767
 3794TIP3    H232942   0.702   2.567   0.474 -1.3990  0.0380 -0.1738
 3795TIP3   OH232943   5.336   6.273   7.412 -0.2304  0.2556 -0.1571
 3795TIP3    H132944   5.395   6.336   7.455 -0.0910 -0.6021  0.9565
 3795TIP3    H232945   5.395   6.208   7.373 -0.3960  0.4002 -0.6506
 3796TIP3   OH232946   5.927   2.819   1.097  0.1596 -0.1630  0.4075
 3796TIP3    H132947   5.886   2.848   1.179  2.6051  1.6407  1.1049
 3796TIP3    H232948   5.923   2.723   1.101 -2.5677 -0.1168  1.0615
 3797TIP3   OH232949   0.510   3.531   6.705 -0.1090  0.0636 -0.1188
 3797TIP3    H132950   0.535   3.443   6.733 -2.7454 -0.9877 -0.7927
 3797TIP3    H232951   0.454   3.517   6.629 -1.4963  2.2547  0.4184
 3798TIP3   OH232952   0.953   6.093   6.211 -0.2308 -0.3663  0.7103
 3798TIP3    H132953   0.895   6.020   6.190  0.4484 -0.4750 -0.9754
 3798TIP3    H232954   0.951   6.149   6.133 -0.0067  0.9369  1.5966
 3799TIP3   OH232955   3.139   3.333   1.098  0.3694  0.4897 -0.2559
 3799TIP3    H132956   3.123   3.287   1.181  0.3432  0.5415 -0.2323
 3799TIP3    H232957   3.108   3.422   1.114  1.7582  0.9181  0.1802
 3800TIP3   OH232958   2.705   2.298   1.230  0.5671  0.0257  0.1886
 3800TIP3    H132959   2.750   2.324   1.150  1.3933 -0.3253  0.5274
 3800TIP3    H232960   2.688   2.380   1.276 -0.7643  0.3215 -0.7610
 3801TIP3   OH232961   5.873   1.119   1.572 -0.3882 -0.0285 -0.2111
 3801TIP3    H132962   5.783   1.099   1.596 -1.2240  0.5311 -2.6878
 3801TIP3    H232963   5.923   1.043   1.603 -1.6571 -0.3017  1.2687
 3802TIP3   OH232964   5.958   2.846   0.198  0.3972 -0.4132  0.1755
 3802TIP3    H132965   6.026   2.895   0.152 -0.0817 -0.9740 -1.1537
 3802TIP3    H232966   5.883   2.846   0.138 -0.7815  0.1541  1.5823
 3803TIP3   OH232967   6.473   2.865   0.434 -0.2329 -0.2824 -0.3297
 3803TIP3    H132968   6.493   2.895   0.522  0.0865 -0.8942 -0.1866
 3803TIP3    H232969   6.378   2.874   0.426 -0.4267 -1.3336  0.5078
 3804TIP3   OH232970   6.595   1.420   0.097  0.9155 -0.4086 -0.1521
 3804TIP3    H132971   6.589   1.422   0.192  1.6754 -1.5879 -0.0549
 3804TIP3    H232972   6.671   1.474   0.076  1.4577 -1.0956  0.0086
 3805TIP3   OH232973   6.965   5.502   0.445  0.7967 -0.2888 -0.5228
 3805TIP3    H132974   6.873   5.494   0.470  0.8927 -0.0364 -0.0705
 3805TIP3    H232975   7.011   5.439   0.502  0.8364 -0.8340 -1.1500
 3806TIP3   OH232976   1.156   4.861   0.383 -0.5056 -0.2972 -0.1395
 3806TIP3    H132977   1.159   4.881   0.477  0.2176 -1.0067  0.0079
 3806TIP3    H232978   1.196   4.936   0.340  1.3335 -0.9552  0.3221
 3807TIP3   OH232979   6.472   4.069   0.481 -0.1959  0.2335  0.8482
 3807TIP3    H132980   6.440   4.029   0.400  0.8496 -0.5652  0.8065
 3807TIP3    H232981   6.433   4.157   0.482  0.5852  0.6415 -1.0375
 3808TIP3   OH232982   2.640   0.853   1.360 -0.1602 -0.2270 -0.1124
 3808TIP3    H132983   2.698   0.786   1.323  0.2907 -0.7775  1.4994
 3808TIP3    H232984   2.679   0.936   1.334  0.5264 -0.5973 -0.2954
 3809TIP3   OH232985   6.307   1.743   0.914  0.5599 -0.1241  0.4509
 3809TIP3    H132986   6.323   1.791   0.995  0.6792 -1.8801  1.5194
 3809TIP3    H232987   6.214   1.759   0.894  0.1201 -0.8834  1.7910
 3810TIP3   OH232988   0.586   3.734   0.532  0.7661  0.0496  0.9045
 3810TIP3    H132989   0.525   3.804   0.509  0.1380 -1.2645 -1.7216
 3810TIP3    H232990   0.569   3.717   0.625 -1.6968  0.8288  0.6680
 3811TIP3   OH232991   2.998   4.598   7.710 -0.7295 -0.3232 -0.1272
 3811TIP3    H132992   3.020   4.511   7.675 -1.4103  0.2515 -2.1161
 3811TIP3    H232993   3.051   4.658   7.658 -0.0642  0.4598  1.4234
 3812TIP3   OH232994   5.195   0.943   6.950 -0.2682  0.4697  0.1970
 3812TIP3    H132995   5.191   1.016   6.887  1.7158  1.6363  1.3278
 3812TIP3    H232996   5.285   0.910   6.942 -0.7578 -1.0365  0.6402
 3813TIP3   OH232997   0.696   3.789   6.283 -0.4849 -0.3400 -0.0004
 3813TIP3    H132998   0.765   3.848   6.252 -1.2069  0.3286 -0.3873
 3813TIP3    H232999   0.693   3.719   6.218  0.5110 -0.9329  0.5638
 3814TIP3   OH233000   0.326   5.285   7.957 -0.3640 -0.7664  0.0169
 3814TIP3    H133001   0.379   5.328   7.890  0.0941 -0.7176  0.4086
 3814TIP3    H233002   0.290   5.208   7.913 -1.5564  0.2258 -0.8272
 3815TIP3   OH233003   3.626   4.225   7.043  0.4673 -0.5175 -0.1482
 3815TIP3    H133004   3.596   4.298   7.097  0.7130  0.2592 -1.0555
 3815TIP3    H233005   3.623   4.257   6.953 -1.7454 -2.4036 -0.8395
 3816TIP3   OH233006   0.103   3.856   6.947 -0.2668 -0.3654  0.1204
 3816TIP3    H133007   0.154   3.825   7.021  0.9512 -0.0294 -0.5394
 3816TIP3    H233008   0.030   3.795   6.939  0.7043 -1.5834  0.3633
 3817TIP3   OH233009   1.441   5.272   7.776 -0.0705  0.1113 -0.0979
 3817TIP3    H133010   1.359   5.293   7.820 -0.3135 -0.6684 -0.1629
 3817TIP3    H233011   1.479   5.202   7.829  0.4790  0.3608 -0.1552
 3818TIP3   OH233012   2.021   2.525   0.468 -0.0368 -0.5544 -0.1445
 3818TIP3    H133013   1.927   2.510   0.472  0.1450 -1.9461 -0.5477
 3818TIP3    H233014   2.037   2.555   0.379 -0.1371  0.0988  0.0497
 3819TIP3   OH233015   2.551   0.215   1.005 -0.1137 -0.0598 -0.1238
 3819TIP3    H133016   2.547   0.239   1.097  0.9523  0.4234 -0.1867
 3819TIP3    H233017   2.645   0.212   0.985 -0.3112  1.8639 -1.6843
 3820TIP3   OH233018   3.064   5.790   7.222  0.1467 -0.6175  0.2720
 3820TIP3    H133019   2.983   5.838   7.237 -2.2721 -4.1034 -0.4298
 3820TIP3    H233020   3.083   5.802   7.129 -0.8248 -1.4575 -0.0530
 3821TIP3   OH233021   0.730   1.029   7.800  0.3851  0.6761  0.3612
 3821TIP3    H133022   0.708   1.084   7.875 -0.7143  1.5223 -0.5420
 3821TIP3    H233023   0.783   1.085   7.743  0.6783  0.2529  0.2151
 3822TIP3   OH233024   1.705   2.520   7.869  0.2441 -0.2316 -0.3608
 3822TIP3    H133025   1.757   2.533   7.948  1.3532 -1.4573 -0.8477
 3822TIP3    H233026   1.760   2.552   7.798 -0.0483 -0.6845 -0.8004
 3823TIP3   OH233027   1.301   0.787   1.192  0.2403  0.1306 -0.0134
 3823TIP3    H133028   1.283   0.869   1.238  0.2328 -0.5985  1.3310
 3823TIP3    H233029   1.220   0.767   1.145 -0.0744  0.4193  0.3980
 3824TIP3   OH233030   4.384   5.283   1.879 -0.5676 -0.3915 -0.1615
 3824TIP3    H133031   4.358   5.375   1.878  0.4021 -0.0687  1.4912
 3824TIP3    H233032   4.479   5.285   1.867 -0.4800 -1.1363  0.3781
 3825TIP3   OH233033   1.017   4.485   0.564  0.0581 -0.1077  0.1470
 3825TIP3    H133034   0.981   4.572   0.548 -2.9416 -1.6622 -2.6066
 3825TIP3    H233035   0.977   4.458   0.647  2.0883  1.4997  1.7677
 3826TIP3   OH233036   2.012   3.397   0.854  0.4067 -0.6481  0.3056
 3826TIP3    H133037   1.946   3.348   0.805 -0.4878  0.0505  0.7605
 3826TIP3    H233038   2.026   3.477   0.803  1.5109 -1.1411 -0.1959
 3827TIP3   OH233039   1.130   5.593   0.774  0.0299  0.0110 -0.2027
 3827TIP3    H133040   1.060   5.563   0.716 -0.6103  2.9972 -1.1446
 3827TIP3    H233041   1.100   5.572   0.862 -1.4087  0.0147 -0.6791
 3828TIP3   OH233042   6.542   2.835   6.718  0.3362 -0.6022  0.6736
 3828TIP3    H133043   6.539   2.840   6.813 -4.0868  0.5842  0.6815
 3828TIP3    H233044   6.472   2.775   6.694  0.8092 -0.2807 -1.8609
 3829TIP3   OH233045   6.103   4.481   1.110 -0.2080  0.4215  0.3550
 3829TIP3    H133046   6.040   4.515   1.047 -0.2321 -1.8595 -0.9874
 3829TIP3    H233047   6.188   4.490   1.065 -0.1779 -0.8300  0.1220
 3830TIP3   OH233048   6.325   4.665   0.282 -0.2090 -0.0620  0.5007
 3830TIP3    H133049   6.414   4.671   0.249 -0.1264 -1.1600  0.4824
 3830TIP3    H233050   6.326   4.715   0.364  0.6402 -0.7496  0.9228
 3831TIP3   OH233051   5.978   3.962   7.141  0.0455 -0.4853  0.2257
 3831TIP3    H133052   5.926   3.989   7.065  0.3483 -0.1741  0.1223
 3831TIP3    H233053   6.062   3.934   7.103 -0.4907 -2.2501  0.2708
 3832TIP3   OH233054   5.343   3.548   0.336  0.0892  0.7710  0.0631
 3832TIP3    H133055   5.413   3.489   0.308 -0.6332  0.6966 -1.6861
 3832TIP3    H233056   5.379   3.636   0.324  0.1701  0.7216 -0.0523
 3833TIP3   OH233057   5.203   1.158   6.781 -0.2328  0.7798  0.0256
 3833TIP3    H133058   5.287   1.159   6.734  0.5434 -0.2861  1.3190
 3833TIP3    H233059   5.182   1.250   6.794  1.0558  1.0708  0.2133
 3834TIP3   OH233060   5.634   4.480   0.770  0.7352 -0.0242  0.7182
 3834TIP3    H133061   5.555   4.452   0.724  0.6248  0.2142  0.7652
 3834TIP3    H233062   5.667   4.400   0.810 -0.0216  0.0534  1.5265
 3835TIP3   OH233063   3.382   3.893   1.568 -0.0437 -0.0367 -0.3376
 3835TIP3    H133064   3.413   3.951   1.637  0.4318  1.1390 -1.4901
 3835TIP3    H233065   3.405   3.805   1.597 -0.3202  0.3848  1.2124
 3836TIP3   OH233066   1.949   5.240   6.998 -0.2378  0.6002 -0.2787
 3836TIP3    H133067   1.962   5.150   7.030  2.1872  0.9206 -0.1852
 3836TIP3    H233068   1.931   5.229   6.905 -0.3217 -0.0077 -0.2000
 3837TIP3   OH233069   5.108   0.345   7.743 -0.0215  0.1426 -0.1822
 3837TIP3    H133070   5.112   0.249   7.741 -2.5793 -0.1084  1.7798
 3837TIP3    H233071   5.159   0.369   7.820 -0.0836  0.2929 -0.1881
 3838TIP3   OH233072   4.323   2.637   1.063  0.1336  0.3733 -0.4010
 3838TIP3    H133073   4.359   2.597   1.142 -0.4108 -1.3207 -0.9557
 3838TIP3    H233074   4.287   2.563   1.013  0.6381  1.3629 -2.3294
 3839TIP3   OH233075   5.864   0.305   8.246 -1.0287  0.4526  0.2377
 3839TIP3    H133076   5.866   0.388   8.198  1.6258  0.7744  0.7588
 3839TIP3    H233077   5.956   0.282   8.257 -1.5781 -3.9821 -2.2526
 3840TIP3   OH233078   0.707   1.560   1.207 -0.0249  0.5592 -0.0124
 3840TIP3    H133079   0.717   1.509   1.287 -1.4716 -0.0868 -0.2250
 3840TIP3    H233080   0.781   1.533   1.152 -0.4760 -0.9300  0.0824
 3841TIP3   OH233081   6.893   6.164   1.794  0.8816 -0.0489  0.6275
 3841TIP3    H133082   6.848   6.229   1.850  0.6756  0.1089  0.2813
 3841TIP3    H233083   6.982   6.161   1.829  1.0417  0.8071  0.3268
 3842TIP3   OH233084   3.329   3.182   1.262 -0.6957 -0.1246  0.2329
 3842TIP3    H133085   3.392   3.189   1.333 -1.6139 -0.1488  1.0653
 3842TIP3    H233086   3.243   3.178   1.305 -1.2180 -0.9900 -0.8224
 3843TIP3   OH233087   2.603   6.497   0.345  0.4783  0.1448  0.3409
 3843TIP3    H133088   2.678   6.556   0.345  0.8891 -0.3514 -0.8431
 3843TIP3    H233089   2.630   6.423   0.290  0.3518 -1.6431  2.5173
 3844TIP3   OH233090   6.620   3.203   0.403 -0.5210 -0.7942 -0.0681
 3844TIP3    H133091   6.643   3.288   0.364 -0.3522 -0.3104  1.0585
 3844TIP3    H233092   6.697   3.148   0.388  0.1282 -0.1663  0.8310
 3845TIP3   OH233093   4.907   3.916   8.079 -0.0332  0.1016 -0.5243
 3845TIP3    H133094   4.837   3.974   8.108 -1.3188 -1.2213 -0.8711
 3845TIP3    H233095   4.988   3.963   8.101 -0.9775  0.9423  1.4367
 3846TIP3   OH233096   4.467   2.855   7.580  0.0457 -0.2195 -0.0098
 3846TIP3    H133097   4.416   2.838   7.659 -1.6169 -0.9108 -1.1515
 3846TIP3    H233098   4.451   2.948   7.561 -0.2646 -0.2646  0.0145
 3847TIP3   OH233099   3.223   0.524   6.972  0.1830 -0.4056  0.6276
 3847TIP3    H133100   3.301   0.579   6.985  0.1419 -0.3746  0.7425
 3847TIP3    H233101   3.190   0.550   6.886 -0.4124  0.4677  1.0987
 3848TIP3   OH233102   4.419   5.175   7.527 -0.4953  0.0073  0.3881
 3848TIP3    H133103   4.385   5.231   7.457  0.0070  0.5607  0.5770
 3848TIP3    H233104   4.489   5.125   7.486 -1.3345 -0.9362  0.0669
 3849TIP3   OH233105   1.149   0.608   6.869 -0.3124  0.1889  0.0894
 3849TIP3    H133106   1.211   0.556   6.919 -0.3192  0.0039 -0.0890
 3849TIP3    H233107   1.198   0.636   6.791 -0.6129 -0.4503 -0.3445
 3850TIP3   OH233108   1.459   3.600   7.316 -0.4721  0.2413  0.0887
 3850TIP3    H133109   1.440   3.552   7.397 -0.7396  1.0292  0.5027
 3850TIP3    H233110   1.456   3.533   7.248  0.2707 -0.5282  0.7841
 3851TIP3   OH233111   0.013   3.837   0.737 -0.1105 -0.4042 -0.2080
 3851TIP3    H133112   0.000   3.879   0.652 -0.7695 -1.2613 -0.5530
 3851TIP3    H233113   0.107   3.837   0.750  0.0787 -1.1143 -1.4037
 3852TIP3   OH233114   2.085   2.911   7.766 -0.0855 -0.3148  0.1020
 3852TIP3    H133115   2.013   2.887   7.825  0.4011 -0.3090  0.7014
 3852TIP3    H233116   2.144   2.963   7.819 -0.5293  1.2588 -0.8730
 3853TIP3   OH233117   6.142   4.495   2.188 -0.3986 -0.7754  0.6757
 3853TIP3    H133118   6.135   4.463   2.098  1.5983  0.7139 -0.1013
 3853TIP3    H233119   6.209   4.439   2.228 -1.4931 -1.6229  1.3504
 3854TIP3   OH233120   3.822   2.994   7.880 -0.6377  0.4724 -0.2255
 3854TIP3    H133121   3.826   3.068   7.819 -2.3889  1.8701  1.2874
 3854TIP3    H233122   3.818   2.917   7.823 -1.7327  1.7029 -1.8987
 3855TIP3   OH233123   0.250   4.818   5.931  0.0197  0.9098 -0.3390
 3855TIP3    H133124   0.160   4.817   5.898  0.4485 -0.9471 -1.6119
 3855TIP3    H233125   0.244   4.859   6.017 -2.1429  0.2399 -0.1205
 3856TIP3   OH233126   3.073   1.741   5.993  0.2565  0.1141 -0.0943
 3856TIP3    H133127   3.088   1.652   5.961  0.6102  0.1213  0.0534
 3856TIP3    H233128   3.048   1.729   6.085 -0.8719  0.0846 -0.3821
 3857TIP3   OH233129   5.719   4.197   0.869 -0.2262  0.1264  0.5369
 3857TIP3    H133130   5.729   4.221   0.961 -1.5474 -1.3784  1.1221
 3857TIP3    H233131   5.780   4.125   0.856 -0.2386  0.1580  0.2932
 3858TIP3   OH233132   5.604   0.440   7.728 -0.0833 -0.0755 -0.0333
 3858TIP3    H133133   5.635   0.365   7.779  1.1238  0.9302  0.7788
 3858TIP3    H233134   5.560   0.496   7.793 -0.2980  0.2801 -0.4806
 3859TIP3   OH233135   4.820   0.967   6.649  0.1982  0.4577 -0.5098
 3859TIP3    H133136   4.879   0.931   6.715  0.2368  0.2151 -0.6751
 3859TIP3    H233137   4.870   1.036   6.607  0.0049  0.9374  0.0390
 3860TIP3   OH233138   4.426   3.074   0.892 -0.0634 -0.0017 -0.9123
 3860TIP3    H133139   4.470   3.149   0.932 -0.0674  0.3155 -1.4829
 3860TIP3    H233140   4.467   2.998   0.933  0.7283  0.2945 -1.1246
 3861TIP3   OH233141   2.966   5.012   1.457 -0.0915 -0.2933 -0.1488
 3861TIP3    H133142   2.914   5.060   1.522 -3.4065 -0.8950 -2.1207
 3861TIP3    H233143   2.989   4.930   1.499 -2.2906 -0.7275  0.2840
 3862TIP3   OH233144   0.260   5.421   0.003  0.5619  0.2382 -0.0125
 3862TIP3    H133145   0.338   5.387   0.048 -1.3502  0.3672  3.8380
 3862TIP3    H233146   0.278   5.514  -0.009  1.8132 -0.1327 -1.1985
 3863TIP3   OH233147   0.493   0.472   6.510 -0.2366 -0.3580 -0.3098
 3863TIP3    H133148   0.405   0.504   6.494 -0.3779 -1.7401 -2.8525
 3863TIP3    H233149   0.548   0.520   6.448  0.5135 -0.7443  0.0422
 3864TIP3   OH233150   2.698   0.832   7.269 -0.3179  0.0501  0.6054
 3864TIP3    H133151   2.738   0.768   7.328  0.0449 -0.8946 -0.6103
 3864TIP3    H233152   2.730   0.917   7.300  0.4292 -0.4732  1.3206
 3865TIP3   OH233153   7.041   2.403   0.399  0.3776 -0.2242 -0.0433
 3865TIP3    H133154   6.970   2.467   0.404 -0.5004 -1.2170  0.6648
 3865TIP3    H233155   7.068   2.405   0.307 -0.7368 -0.0065 -0.3842
 3866TIP3   OH233156   3.712   3.908   8.094  0.0847 -0.2255  0.1329
 3866TIP3    H133157   3.767   3.877   8.165  1.4275  0.1162 -0.7219
 3866TIP3    H233158   3.700   3.830   8.038  0.7936 -0.0050 -0.3449
 3867TIP3   OH233159   6.813   3.131   7.202 -0.1672 -0.1179 -0.0609
 3867TIP3    H133160   6.815   3.221   7.234  0.1915  0.4864 -1.7180
 3867TIP3    H233161   6.904   3.102   7.206  0.1713  0.5269 -1.9638
 3868TIP3   OH233162   6.944   4.635   7.502  0.4274  0.5003 -0.2970
 3868TIP3    H133163   6.920   4.552   7.460 -0.4060  0.8415 -0.5110
 3868TIP3    H233164   6.932   4.701   7.433 -2.1041  1.2349  0.7052
 3869TIP3   OH233165   6.203   1.747   7.677 -0.4956 -0.0490  0.0894
 3869TIP3    H133166   6.160   1.670   7.640  0.3995 -0.5310  0.0219
 3869TIP3    H233167   6.163   1.757   7.764 -0.4420 -0.7401  0.2029
 3870TIP3   OH233168   2.716   1.245   6.631 -0.9196  0.0275 -0.6498
 3870TIP3    H133169   2.640   1.299   6.609  0.0806  1.5590 -0.4688
 3870TIP3    H233170   2.788   1.285   6.583 -0.1361 -1.1786 -0.5098
 3871TIP3   OH233171   2.959   4.882   5.985  0.3824  0.2607 -0.2633
 3871TIP3    H133172   2.971   4.814   5.919  0.1438  0.2470 -0.2916
 3871TIP3    H233173   2.984   4.963   5.942 -2.3912  0.6776 -1.2785
 3872TIP3   OH233174   3.397   5.066   2.085 -0.0121 -0.5161 -0.1133
 3872TIP3    H133175   3.356   5.062   2.171 -1.0435  0.1337 -0.5531
 3872TIP3    H233176   3.334   5.113   2.030  1.8132  1.6095 -0.5388
 3873TIP3   OH233177   2.589   0.021   0.187  0.0960  0.1120 -0.3424
 3873TIP3    H133178   2.633   0.102   0.211  0.8109 -0.0630 -0.9859
 3873TIP3    H233179   2.614  -0.041   0.255 -1.8722  0.8523  1.1209
 3874TIP3   OH233180   6.945   6.604   7.795 -0.2413  0.0532 -0.3354
 3874TIP3    H133181   7.008   6.667   7.832  1.8359 -0.7893 -2.1981
 3874TIP3    H233182   6.863   6.622   7.841  1.1518  1.7439  1.6754
 3875TIP3   OH233183   7.007   3.157   1.066 -0.8428  0.0151  0.0628
 3875TIP3    H133184   6.978   3.247   1.049  0.5735  0.5517  0.3661
 3875TIP3    H233185   7.102   3.164   1.077 -0.7562 -1.4682  0.4546
 3876TIP3   OH233186   0.869   1.101   8.098 -0.1043 -0.6646  0.7124
 3876TIP3    H133187   0.917   1.162   8.154 -1.1350 -0.2104  1.1485
 3876TIP3    H233188   0.831   1.156   8.029 -0.5386 -0.9027  0.7560
 3877TIP3   OH233189   3.127   2.901   7.120 -0.1037 -0.6349 -0.1682
 3877TIP3    H133190   3.114   2.836   7.189 -0.2865 -1.0423 -0.5885
 3877TIP3    H233191   3.138   2.850   7.040 -2.2139 -0.0984 -0.8394
 3878TIP3   OH233192   6.127   6.104   1.420 -0.2500 -0.1419  0.4065
 3878TIP3    H133193   6.164   6.106   1.332 -2.2569  0.5718 -0.4838
 3878TIP3    H233194   6.066   6.030   1.418  0.5239 -0.8467  1.5926
 3879TIP3   OH233195   1.193   4.325   2.055 -0.4956 -0.2761  0.2954
 3879TIP3    H133196   1.239   4.403   2.088  0.1695 -0.8662  0.8216
 3879TIP3    H233197   1.129   4.305   2.124 -1.0330  0.1018 -0.0852
 3880TIP3   OH233198   4.258   3.981   6.797  0.3224  0.1788  0.2320
 3880TIP3    H133199   4.198   4.025   6.736 -0.6087 -0.1250  0.9046
 3880TIP3    H233200   4.212   3.983   6.881  0.5982 -1.3882  0.4434
 3881TIP3   OH233201   1.712   4.575   8.091 -0.1892  0.3165 -0.4423
 3881TIP3    H133202   1.732   4.631   8.016  0.9526 -0.4889 -0.7806
 3881TIP3    H233203   1.692   4.490   8.052  1.3465 -0.3622  0.1849
 3882TIP3   OH233204   3.613   3.722   6.553 -0.3891  0.0046 -0.0883
 3882TIP3    H133205   3.605   3.669   6.633 -1.9722  0.3497  0.0136
 3882TIP3    H233206   3.665   3.798   6.580  0.8419 -0.8615  0.0732
 3883TIP3   OH233207   6.131   3.591   0.499  0.4443  0.3592 -0.2225
 3883TIP3    H133208   6.120   3.668   0.555  1.4206  0.3215  0.0508
 3883TIP3    H233209   6.210   3.611   0.448  1.6510 -1.0928  0.9742
 3884TIP3   OH233210   4.903   4.639   1.458 -0.5344  1.1747  0.0326
 3884TIP3    H133211   4.865   4.701   1.395 -0.7369  0.4264 -0.5884
 3884TIP3    H233212   4.953   4.695   1.518 -1.5112  2.0450  0.0697
 3885TIP3   OH233213   0.378   6.157   0.504 -0.1386  0.3003 -0.0041
 3885TIP3    H133214   0.456   6.137   0.555 -1.1515 -0.7962  1.1920
 3885TIP3    H233215   0.345   6.239   0.541  0.0213  0.3560  0.0143
 3886TIP3   OH233216   1.291   4.225   1.363  0.0767  0.0642 -0.2806
 3886TIP3    H133217   1.243   4.254   1.286  0.7197  0.6212 -0.4840
 3886TIP3    H233218   1.323   4.138   1.340  2.6332  1.2949 -1.7881
 3887TIP3   OH233219   1.619   2.250   0.959 -0.2326 -0.0290 -0.0741
 3887TIP3    H133220   1.694   2.209   1.002  1.8980  3.0612 -0.4994
 3887TIP3    H233221   1.658   2.306   0.892 -2.9592  1.5664 -0.4697
 3888TIP3   OH233222   5.141   1.339   0.442  0.1362  0.0234 -0.1881
 3888TIP3    H133223   5.126   1.244   0.439 -0.6121  0.1558 -1.1871
 3888TIP3    H233224   5.152   1.359   0.535  0.0242 -1.0006  0.0549
 3889TIP3   OH233225   2.848   2.148   7.903 -0.1973  0.0343 -0.0027
 3889TIP3    H133226   2.938   2.170   7.927  0.3015 -0.5300 -1.2499
 3889TIP3    H233227   2.852   2.056   7.876 -1.5113 -0.5551  1.6121
 3890TIP3   OH233228   3.399   6.687   2.339 -0.2908  0.6069 -0.1626
 3890TIP3    H133229   3.465   6.739   2.293  1.1222 -1.2428 -0.3765
 3890TIP3    H233230   3.329   6.675   2.276 -0.0590  1.1708 -0.5343
 3891TIP3   OH233231   0.891   2.567   1.180 -0.2872 -0.4329 -0.2010
 3891TIP3    H133232   0.801   2.542   1.198 -0.6475  0.0796 -1.2505
 3891TIP3    H233233   0.940   2.484   1.183 -1.0029 -0.8883 -0.8645
 3892TIP3   OH233234   6.602   4.706   6.564  0.2778 -0.3540  0.8378
 3892TIP3    H133235   6.579   4.743   6.479 -0.0926 -2.1425  0.1115
 3892TIP3    H233236   6.536   4.740   6.624  0.1257  0.3620  0.2841
 3893TIP3   OH233237   6.398   1.732   6.365  0.3060 -0.0570  0.5641
 3893TIP3    H133238   6.409   1.687   6.280 -1.2279 -0.0528  0.3359
 3893TIP3    H233239   6.323   1.789   6.352  1.5228  1.7729  1.2146
 3894TIP3   OH233240   4.149   1.954   7.616  0.3650  0.4862 -0.0718
 3894TIP3    H133241   4.150   2.043   7.651 -0.6871  1.5894 -2.5711
 3894TIP3    H233242   4.212   1.957   7.544  0.6025 -0.9267  0.0570
 3895TIP3   OH233243   6.550   3.709   6.939 -0.4222  0.0982 -0.3806
 3895TIP3    H133244   6.544   3.797   6.902  1.4293 -0.9263 -3.4675
 3895TIP3    H233245   6.525   3.651   6.868  1.4719 -1.9848  0.5200
 3896TIP3   OH233246   1.705   3.968   0.632 -0.0963 -0.2789 -0.6054
 3896TIP3    H133247   1.678   3.876   0.640  1.3405 -0.8745 -2.1107
 3896TIP3    H233248   1.788   3.973   0.680 -0.9808  0.6893  0.9258
 3897TIP3   OH233249   2.832   2.373   0.586 -0.3193 -0.0972 -0.1095
 3897TIP3    H133250   2.902   2.387   0.522  1.0910 -0.2760  1.3153
 3897TIP3    H233251   2.872   2.315   0.651 -1.9353 -0.4892  0.5596
 3898TIP3   OH233252   2.155   0.354   0.887 -0.1976 -0.1494  0.0824
 3898TIP3    H133253   2.081   0.409   0.913  0.4277  1.1822 -0.8488
 3898TIP3    H233254   2.229   0.414   0.883  1.0259 -1.5060  1.2555
 3899TIP3   OH233255   5.054   0.663   6.973  0.0263  0.5155  0.0014
 3899TIP3    H133256   5.055   0.585   7.029 -2.0196  0.9254  0.6958
 3899TIP3    H233257   5.096   0.731   7.026 -0.3694  0.4799  0.3665
 3900TIP3   OH233258   5.062   6.314   7.439  0.7240 -0.3946  0.5348
 3900TIP3    H133259   5.152   6.302   7.410  0.6618 -0.6630  0.4368
 3900TIP3    H233260   5.063   6.392   7.494  0.6248  0.8831 -1.2060
 3901TIP3   OH233261   0.759   5.123   7.281 -0.3010 -0.6544 -0.2164
 3901TIP3    H133262   0.787   5.033   7.267  2.1559  0.0483 -0.3464
 3901TIP3    H233263   0.784   5.169   7.201 -1.0191  0.2452  0.0582
 3902TIP3   OH233264   1.481   0.238   7.710 -0.4284 -0.1981  0.3221
 3902TIP3    H133265   1.438   0.294   7.774 -0.7985 -1.1304  0.9074
 3902TIP3    H233266   1.542   0.186   7.761 -1.3852 -1.6056  0.0884
 3903TIP3   OH233267   6.316   0.410   7.357  0.0664 -0.5700 -0.2260
 3903TIP3    H133268   6.366   0.420   7.438 -1.0363 -1.1279  0.5588
 3903TIP3    H233269   6.347   0.328   7.320  0.9729 -0.0318 -0.6644
 3904TIP3   OH233270   2.776   0.509   7.709  0.2769  0.4081 -0.1347
 3904TIP3    H133271   2.821   0.436   7.750  0.2609 -0.8063 -2.1555
 3904TIP3    H233272   2.809   0.511   7.619 -1.8712  1.0088 -0.9902
 3905TIP3   OH233273   1.757   4.052   8.263 -0.1148  0.3267  0.1132
 3905TIP3    H133274   1.744   4.007   8.346  3.8468 -1.1536  0.1464
 3905TIP3    H233275   1.760   3.982   8.198  0.5891  1.0570 -0.6753
 3906TIP3   OH233276   1.917   1.212   0.264  0.0318 -0.5693  0.6663
 3906TIP3    H133277   2.012   1.222   0.258 -0.0407 -0.6724 -1.1167
 3906TIP3    H233278   1.885   1.226   0.175 -1.5997 -0.8943  1.1595
 3907TIP3   OH233279   4.276   3.339   0.983  0.4934  0.7530 -0.4023
 3907TIP3    H133280   4.207   3.274   0.967  0.0359  0.9328  0.6792
 3907TIP3    H233281   4.341   3.323   0.915 -0.0765 -0.1877 -0.7504
 3908TIP3   OH233282   5.544   2.063   1.468 -0.2435  0.4743  0.2489
 3908TIP3    H133283   5.619   2.096   1.419  0.2239 -0.1582  0.5308
 3908TIP3    H233284   5.531   1.974   1.435 -0.4624  0.3470  0.6677
 3909TIP3   OH233285   0.192   3.330   1.114  0.0914 -0.3545 -0.0669
 3909TIP3    H133286   0.198   3.393   1.042 -0.5446 -0.0132  0.1735
 3909TIP3    H233287   0.267   3.350   1.170 -0.5448  0.7310  0.4249
 3910TIP3   OH233288   5.001   0.775   0.470 -0.3735 -0.5824 -0.2969
 3910TIP3    H133289   4.984   0.695   0.422 -0.6755 -0.1128 -0.9960
 3910TIP3    H233290   5.084   0.759   0.514 -0.1041 -1.0467 -0.9477
 3911TIP3   OH233291   1.370   6.948   7.410 -0.8326 -0.4408  0.0869
 3911TIP3    H133292   1.304   6.885   7.438 -3.7824  0.7094 -3.4973
 3911TIP3    H233293   1.336   7.033   7.438  0.6863 -0.0149  0.7369
 3912TIP3   OH233294   0.429   6.230   6.925 -0.0510  0.2261 -0.0181
 3912TIP3    H133295   0.423   6.262   7.015  1.1242 -0.2030  0.2271
 3912TIP3    H233296   0.522   6.227   6.907 -0.2341 -0.7227 -0.8773
 3913TIP3   OH233297   3.045   3.929   1.700 -0.3903 -0.0029 -0.0589
 3913TIP3    H133298   2.977   3.930   1.767  0.2343 -0.6636  0.5905
 3913TIP3    H233299   3.114   3.985   1.735  0.4563 -1.3128  0.4184
 3914TIP3   OH233300   5.216   4.597   1.231 -0.1463 -0.0003  0.3011
 3914TIP3    H133301   5.168   4.668   1.189 -1.0274 -1.3020 -0.9880
 3914TIP3    H233302   5.306   4.629   1.237 -0.2500  0.7201 -1.4927
 3915TIP3   OH233303   4.837   5.911   7.288  0.5936  0.3110  0.2291
 3915TIP3    H133304   4.789   5.968   7.348  0.6523 -0.1121  0.6941
 3915TIP3    H233305   4.802   5.931   7.201  1.3172  1.7600  0.2446
 3916TIP3   OH233306   6.755   2.736   2.314 -0.1455  0.9520  0.2518
 3916TIP3    H133307   6.823   2.801   2.333 -0.1118  0.7522  0.8474
 3916TIP3    H233308   6.674   2.775   2.346 -0.2038  0.9069  0.1595
 3917TIP3   OH233309   4.075   4.272   0.297  0.0937  0.4452  0.0184
 3917TIP3    H133310   4.032   4.252   0.214 -1.4077  3.1369  0.0155
 3917TIP3    H233311   4.005   4.305   0.353  1.1696 -0.7871  2.2220
 3918TIP3   OH233312   6.201   4.652   7.208 -0.2382  0.6035  0.0148
 3918TIP3    H133313   6.292   4.625   7.221 -0.9872 -1.0360  2.5189
 3918TIP3    H233314   6.192   4.732   7.259 -1.0257 -1.2707  3.0934
 3919TIP3   OH233315   6.295   1.927   6.606  0.0568 -0.4698  0.4377
 3919TIP3    H133316   6.390   1.915   6.617 -0.0521 -2.9440 -0.7381
 3919TIP3    H233317   6.285   1.956   6.515 -0.4226 -3.6220 -0.6362
 3920TIP3   OH233318   3.997   4.684   7.771  0.3039  0.0063  0.3134
 3920TIP3    H133319   4.013   4.738   7.694  0.9623 -1.3230 -0.5216
 3920TIP3    H233320   3.913   4.714   7.805  0.9837  2.0257  0.3182
 3921TIP3   OH233321   0.490   0.980   1.153  0.4909  0.0774  0.1042
 3921TIP3    H133322   0.453   0.929   1.081  4.2817  1.1437 -2.8990
 3921TIP3    H233323   0.437   1.060   1.155 -0.0954 -0.2614 -1.0011
 3922TIP3   OH233324   1.808   2.934   0.628  0.1381  0.0268 -0.2258
 3922TIP3    H133325   1.729   2.910   0.580  1.5324  1.5473 -3.5457
 3922TIP3    H233326   1.776   2.955   0.716 -2.6457 -2.4070 -0.4599
 3923TIP3   OH233327   0.014   6.264   0.350 -0.6634  0.2273 -0.5225
 3923TIP3    H133328   0.063   6.182   0.346 -0.2686  0.3377  1.2381
 3923TIP3    H233329   0.060   6.322   0.290  0.1988 -0.2746 -0.3695
 3924TIP3   OH233330   3.698   6.700   8.019 -0.2120  0.4290 -0.0091
 3924TIP3    H133331   3.719   6.608   8.032 -2.4273 -0.0373  0.7724
 3924TIP3    H233332   3.706   6.739   8.106 -0.7300  0.6305 -0.0480
 3925TIP3   OH233333   1.778   6.876   7.314 -0.7207 -0.1200  0.3325
 3925TIP3    H133334   1.720   6.814   7.357 -1.0330  0.5886  0.9616
 3925TIP3    H233335   1.852   6.886   7.375 -1.0898  0.7690  0.6565
 3926TIP3   OH233336   5.201   6.743   0.852 -0.0650 -0.0011  0.4121
 3926TIP3    H133337   5.130   6.779   0.905 -3.7399 -0.3974 -3.5915
 3926TIP3    H233338   5.234   6.818   0.802  3.8312  0.5237  3.2976
 3927TIP3   OH233339   6.351   2.738   5.878 -0.0077  0.0716 -0.2153
 3927TIP3    H133340   6.444   2.717   5.872  0.1629  1.1781 -2.3230
 3927TIP3    H233341   6.344   2.827   5.842 -1.7705  0.3703  0.7269
 3928TIP3   OH233342   1.390   6.415   0.206  0.4313  0.1780  0.8024
 3928TIP3    H133343   1.408   6.322   0.215 -0.6289 -0.0571  0.6678
 3928TIP3    H233344   1.466   6.459   0.245  1.1704 -0.7286  0.4127
 3929TIP3   OH233345   6.718   6.688   7.026  0.4034 -0.5978 -0.0977
 3929TIP3    H133346   6.782   6.733   7.081 -0.0435 -2.0047  1.6668
 3929TIP3    H233347   6.645   6.750   7.019  1.2214  0.3184 -0.6606
 3930TIP3   OH233348   3.680   4.723   1.077  0.2703 -0.3913  0.2421
 3930TIP3    H133349   3.704   4.672   1.154  0.9515  0.5209  0.6414
 3930TIP3    H233350   3.674   4.813   1.108  0.5052 -0.0206 -0.7512
 3931TIP3   OH233351   3.209   3.090   6.905 -0.3534 -0.3260 -0.3544
 3931TIP3    H133352   3.301   3.070   6.921 -0.4602 -2.1128 -1.6482
 3931TIP3    H233353   3.162   3.046   6.976 -0.2971 -0.7586 -0.5823
 3932TIP3   OH233354   1.258   5.143   7.027 -0.1240 -0.1642  0.3210
 3932TIP3    H133355   1.306   5.206   7.082  0.4136 -1.4935  1.4276
 3932TIP3    H233356   1.180   5.121   7.078 -0.4797 -0.1607 -0.2100
 3933TIP3   OH233357   2.864   5.739   5.809 -0.4510  0.3432  0.1483
 3933TIP3    H133358   2.900   5.664   5.762 -1.0812 -0.0368  0.2515
 3933TIP3    H233359   2.940   5.784   5.846  0.0983  0.8699 -1.5371
 3934TIP3   OH233360   6.810   2.538   7.673 -0.2861 -0.0917 -0.3161
 3934TIP3    H133361   6.900   2.525   7.642 -0.9926 -2.4329 -1.5651
 3934TIP3    H233362   6.819   2.539   7.769  1.0873  0.0915 -0.4168
 3935TIP3   OH233363   5.759   5.460   6.494  0.2348 -0.9570 -0.2958
 3935TIP3    H133364   5.840   5.481   6.449  0.4450 -1.7447 -0.2969
 3935TIP3    H233365   5.697   5.528   6.465  0.9149 -0.2932 -0.2075
 3936TIP3   OH233366   6.064   1.099   7.368 -0.0635  0.4809 -0.0826
 3936TIP3    H133367   6.119   1.023   7.350 -0.8774  0.0100 -0.6256
 3936TIP3    H233368   6.051   1.097   7.463  1.3078  0.9244  0.1280
 3937TIP3   OH233369   5.307   2.160   0.743 -1.0554 -0.6794  0.5551
 3937TIP3    H133370   5.265   2.075   0.751 -0.7195 -1.3632 -3.0375
 3937TIP3    H233371   5.398   2.140   0.720 -0.7664  0.6581  0.4476
 3938TIP3   OH233372   5.840   3.638   0.964  0.0078 -0.0567  0.0854
 3938TIP3    H133373   5.825   3.711   1.024  0.3024  0.2769 -0.2380
 3938TIP3    H233374   5.873   3.568   1.019  1.4703  0.6442  0.1689
 3939TIP3   OH233375   0.178   6.426   0.180 -0.4732  0.6936  0.4292
 3939TIP3    H133376   0.158   6.504   0.128  1.2724  0.5473 -0.5215
 3939TIP3    H233377   0.254   6.387   0.137 -1.2848 -1.5417  0.8780
 3940TIP3   OH233378   1.703   1.834   7.253  0.3168 -0.1533 -0.0429
 3940TIP3    H133379   1.771   1.783   7.297  1.0509  0.8711  0.0363
 3940TIP3    H233380   1.737   1.923   7.250 -1.2932  0.5379  0.5852
 3941TIP3   OH233381   2.771   4.347   7.248 -0.3242 -0.3098 -0.3376
 3941TIP3    H133382   2.843   4.387   7.297 -0.8073 -1.1264  1.1233
 3941TIP3    H233383   2.719   4.421   7.216  0.2469  0.2625  0.0346
 3942TIP3   OH233384   3.023   0.136   7.561  0.4035 -0.2676 -0.6744
 3942TIP3    H133385   2.978   0.077   7.621 -0.0536 -0.9082 -1.6138
 3942TIP3    H233386   3.110   0.148   7.599  0.2002 -0.8475 -0.0135
 3943TIP3   OH233387   1.077   1.803   6.776 -0.3398  0.1122  0.2185
 3943TIP3    H133388   0.983   1.789   6.791 -0.0830 -0.5433  1.3430
 3943TIP3    H233389   1.102   1.737   6.712 -0.2057 -1.2409  1.6125
 3944TIP3   OH233390   2.981   2.250   7.001  0.2800  0.2169  0.1192
 3944TIP3    H133391   2.953   2.288   6.918  1.9180 -0.0201 -0.5837
 3944TIP3    H233392   3.069   2.217   6.984  0.6725  0.1894  1.9614
 3945TIP3   OH233393   1.408   4.790   1.237  0.6054  0.1951 -0.6256
 3945TIP3    H133394   1.471   4.730   1.276  2.1212  3.6144  2.7531
 3945TIP3    H233395   1.447   4.813   1.152  0.4194 -2.6410 -1.6126
 3946TIP3   OH233396   5.549   6.317   1.621  0.2308 -0.5026 -0.2515
 3946TIP3    H133397   5.621   6.378   1.603 -0.9124  1.0925  0.3537
 3946TIP3    H233398   5.578   6.268   1.698  0.6281  0.2316  0.0756
 3947TIP3   OH233399   2.970   2.343   8.231  0.1758  0.1270  0.1819
 3947TIP3    H133400   2.935   2.255   8.217  0.0893  0.0189  1.0410
 3947TIP3    H233401   3.048   2.329   8.285  1.0158  0.4521 -0.8917
 3948TIP3   OH233402   3.995   1.521   0.447  0.3229 -0.5407 -0.2833
 3948TIP3    H133403   3.945   1.593   0.485  2.0375  0.1375  0.7837
 3948TIP3    H233404   3.956   1.508   0.360 -1.3212  0.3092  0.2965
 3949TIP3   OH233405   3.450   6.082   7.659  0.2523 -0.3385  0.7405
 3949TIP3    H133406   3.491   6.162   7.626 -0.2814 -0.3341  0.0621
 3949TIP3    H233407   3.493   6.065   7.743  0.5234  0.5363  0.7832
 3950TIP3   OH233408   4.385   1.124   0.925 -0.3691 -0.0101 -0.1489
 3950TIP3    H133409   4.389   1.030   0.938 -3.6575 -0.1139  0.9715
 3950TIP3    H233410   4.386   1.136   0.830  2.5557 -0.8950 -0.3099
 3951TIP3   OH233411   2.267   5.681   6.544  0.6448 -0.3010  0.3964
 3951TIP3    H133412   2.263   5.701   6.638 -2.0685 -0.0047  0.2736
 3951TIP3    H233413   2.294   5.589   6.541  2.6854  0.1951  1.3356
 3952TIP3   OH233414   3.330   5.902   6.349  0.2917 -0.4479 -0.3558
 3952TIP3    H133415   3.309   5.964   6.279 -1.3559  0.1782  0.5985
 3952TIP3    H233416   3.425   5.898   6.351  0.4446  1.7332 -0.7690
 3953TIP3   OH233417   3.727   2.299   6.710 -0.1753 -0.1436 -0.0070
 3953TIP3    H133418   3.685   2.346   6.782  0.0680  0.1917 -0.0779
 3953TIP3    H233419   3.744   2.212   6.744  0.2476  0.1150  0.4574
 3954TIP3   OH233420   6.832   4.462   5.814 -0.4202  0.5825 -0.3278
 3954TIP3    H133421   6.803   4.397   5.879  2.0604  1.0908  1.4305
 3954TIP3    H233422   6.857   4.409   5.738  1.0388 -0.5681  0.8725
 3955TIP3   OH233423   0.941   2.997   6.307  0.0916 -0.0889 -0.0397
 3955TIP3    H133424   0.994   2.993   6.227 -0.0120  2.0342 -0.2799
 3955TIP3    H233425   0.960   2.915   6.353  2.4417 -0.0511 -0.8266
 3956TIP3   OH233426   6.601   4.965   0.000 -0.3671 -0.2139  0.7424
 3956TIP3    H133427   6.653   4.892  -0.034  1.3176  1.4568 -0.4915
 3956TIP3    H233428   6.518   4.960  -0.047  1.0557  0.6902 -2.1310
 3957TIP3   OH233429   3.582   6.933   0.457  0.0696 -0.1332 -0.1023
 3957TIP3    H133430   3.614   6.860   0.509 -1.1827 -0.6812 -0.0494
 3957TIP3    H233431   3.620   7.011   0.498  3.0013 -0.8065 -1.3326
 3958TIP3   OH233432   4.474   5.263   0.146 -0.3617 -0.0364  0.0459
 3958TIP3    H133433   4.386   5.238   0.174  0.0106 -2.2888 -0.5860
 3958TIP3    H233434   4.532   5.203   0.193  0.7152  0.3435 -0.7627
 3959TIP3   OH233435   3.422   2.265   6.738  0.2058 -0.1833  0.3900
 3959TIP3    H133436   3.345   2.235   6.690 -0.3387 -0.2049  1.2474
 3959TIP3    H233437   3.429   2.358   6.716 -0.3886 -0.0555  0.7161
 3960TIP3   OH233438   5.591   3.193   6.558  0.0319  0.0979  0.0973
 3960TIP3    H133439   5.617   3.172   6.648  0.1028 -0.0889  0.0349
 3960TIP3    H233440   5.582   3.108   6.516 -0.3545  0.1739  0.0244
 3961TIP3   OH233441   6.119   1.450   0.278 -0.0857  0.2476  0.1429
 3961TIP3    H133442   6.133   1.544   0.290 -0.4856  0.5442 -1.5102
 3961TIP3    H233443   6.196   1.409   0.317 -0.0786  1.2185  1.2224
 3962TIP3   OH233444   0.977   2.230   1.900 -0.2627 -0.3487 -0.6244
 3962TIP3    H133445   0.949   2.169   1.967 -0.0311  1.6880  1.4637
 3962TIP3    H233446   1.068   2.250   1.922 -0.2904  0.6442 -1.3117
 3963TIP3   OH233447   0.015   5.279   1.361  0.0974 -0.4522  0.2709
 3963TIP3    H133448   0.019   5.287   1.457  0.2857 -1.4520  0.3566
 3963TIP3    H233449   0.099   5.242   1.336  0.1122 -0.0393 -0.3079
 3964TIP3   OH233450   3.898   6.639   0.799  0.3400 -0.6617  0.0089
 3964TIP3    H133451   3.961   6.578   0.838  1.9078  0.4198 -0.7308
 3964TIP3    H233452   3.898   6.714   0.858 -0.6040 -0.8255  0.2307
 3965TIP3   OH233453   5.848   0.260   7.608  0.0756 -0.1641 -0.1125
 3965TIP3    H133454   5.847   0.214   7.692 -0.3792  1.2371  0.6653
 3965TIP3    H233455   5.844   0.353   7.630  1.3651  0.3004 -1.6417
 3966TIP3   OH233456   5.841   5.646   0.929 -0.6279 -0.0913 -0.2376
 3966TIP3    H133457   5.852   5.590   0.851 -1.0412  0.1549 -0.4817
 3966TIP3    H233458   5.781   5.715   0.899 -0.6247  0.1185  0.2452
 3967TIP3   OH233459   2.457   5.998   7.471 -0.1545  0.7520  0.6325
 3967TIP3    H133460   2.478   6.071   7.414 -0.2534  2.2699  2.4516
 3967TIP3    H233461   2.542   5.968   7.503 -0.0759 -0.2894 -0.4750
 3968TIP3   OH233462   6.902   2.484   6.111  0.2870 -0.8672 -0.3136
 3968TIP3    H133463   6.859   2.564   6.083  0.4414 -1.4062 -2.2519
 3968TIP3    H233464   6.855   2.414   6.067  2.2005 -1.5759 -1.3689
 3969TIP3   OH233465   6.200   2.278   6.913 -0.4805  0.2218  0.1732
 3969TIP3    H133466   6.131   2.311   6.855 -2.7257 -0.2127  2.3725
 3969TIP3    H233467   6.191   2.183   6.909  0.1450  0.1530  0.3224
 3970TIP3   OH233468   7.016   1.994   6.481 -0.7727  0.0438 -0.5107
 3970TIP3    H133469   6.940   2.049   6.502 -1.6998 -0.2173 -2.7864
 3970TIP3    H233470   7.048   2.030   6.398  0.6104 -0.8612 -0.3907
 3971TIP3   OH233471   5.442   2.875   6.675 -0.2739 -0.1646 -0.5814
 3971TIP3    H133472   5.494   2.797   6.695 -0.0832  0.6545  2.5480
 3971TIP3    H233473   5.351   2.844   6.679 -0.1824 -0.3719 -0.0764
 3972TIP3   OH233474   6.521   0.895   1.998  0.0328 -0.1908 -0.4502
 3972TIP3    H133475   6.484   0.860   2.079  0.1179 -1.2114 -0.8490
 3972TIP3    H233476   6.616   0.890   2.012  0.0452 -0.0001 -0.4627
 3973TIP3   OH233477   5.337   2.106   1.988  0.2501 -0.4063 -0.7488
 3973TIP3    H133478   5.419   2.059   1.976  0.8339  0.7318 -1.3588
 3973TIP3    H233479   5.356   2.195   1.960 -1.2124 -0.1394 -0.9699
 3974TIP3   OH233480   1.915   6.592   0.735  0.0640  0.6755 -0.2964
 3974TIP3    H133481   1.855   6.665   0.720 -0.7634 -0.0912 -0.8051
 3974TIP3    H233482   1.982   6.628   0.793 -1.8377  1.0930  1.7648
 3975TIP3   OH233483   4.786   3.792   7.512  0.0504 -0.2536 -0.3397
 3975TIP3    H133484   4.837   3.873   7.512  1.3952 -1.0379  0.8660
 3975TIP3    H233485   4.737   3.795   7.594  1.1842 -1.2621  0.4014
 3976TIP3   OH233486   0.676   6.094   0.693  0.8101  0.1613  0.1871
 3976TIP3    H133487   0.727   6.013   0.694 -1.3547 -1.2881  0.9428
 3976TIP3    H233488   0.731   6.156   0.646  2.4693 -1.8082 -0.6435
 3977TIP3   OH233489   1.551   5.729   5.900  0.3510  0.1074  0.1215
 3977TIP3    H133490   1.461   5.711   5.873  0.4229 -0.4554  0.2581
 3977TIP3    H233491   1.585   5.645   5.932  0.8161  0.3867  0.3849
 3978TIP3   OH233492   3.999   2.250   0.271 -0.2038  0.1401  0.3730
 3978TIP3    H133493   4.008   2.240   0.366 -0.2181  0.8100  0.4519
 3978TIP3    H233494   3.922   2.197   0.248 -1.7280  1.9112  1.1167
 3979TIP3   OH233495   6.916   2.910   2.429  0.0758  0.5910  0.0290
 3979TIP3    H133496   6.989   2.947   2.479  2.1213 -0.7931 -1.7131
 3979TIP3    H233497   6.915   2.960   2.347  2.4399 -2.3933 -2.0646
 3980TIP3   OH233498   6.153   3.161   1.913  0.3070 -0.4280  0.5364
 3980TIP3    H133499   6.214   3.230   1.888 -1.3815 -0.1886 -3.8122
 3980TIP3    H233500   6.208   3.083   1.921  1.4703  0.1107 -1.4604
 3981TIP3   OH233501   2.540   2.317   0.807 -0.0145 -0.0407 -0.3770
 3981TIP3    H133502   2.468   2.361   0.761  0.1628 -0.1137 -0.7344
 3981TIP3    H233503   2.537   2.227   0.775  0.1467 -0.0775 -0.2895
 3982TIP3   OH233504   1.297   5.287   6.480 -0.5045  0.5077 -0.0687
 3982TIP3    H133505   1.203   5.269   6.477 -0.9325  2.6092 -0.4760
 3982TIP3    H233506   1.334   5.234   6.409 -1.0935 -1.5683  1.0739
 3983TIP3   OH233507   0.451   4.998   1.281 -0.1282 -0.1837 -0.1119
 3983TIP3    H133508   0.530   4.991   1.334 -0.8809 -0.8886  0.9554
 3983TIP3    H233509   0.480   4.978   1.192  0.7983 -0.9376  0.3400
 3984TIP3   OH233510   3.563   2.867   8.201 -0.6782  0.4246  0.7506
 3984TIP3    H133511   3.581   2.792   8.144 -0.2311 -0.0397  1.4866
 3984TIP3    H233512   3.613   2.939   8.162 -1.2326  0.3847 -0.0469
 3985TIP3   OH233513   6.471   1.091   6.070  0.1083 -0.1315  0.2759
 3985TIP3    H133514   6.463   1.114   5.978  0.6852 -1.3817 -0.1001
 3985TIP3    H233515   6.398   1.031   6.086 -1.1236  1.5089  1.1366
 3986TIP3   OH233516   6.803   2.549   0.378 -0.0015  0.5383  0.7462
 3986TIP3    H133517   6.783   2.548   0.285  0.6494 -2.0381  0.5518
 3986TIP3    H233518   6.757   2.626   0.412 -3.0410 -0.2811 -1.1199
 3987TIP3   OH233519   4.166   1.948   6.920  0.3905  0.2316  0.0176
 3987TIP3    H133520   4.255   1.915   6.910  1.0887  2.2075 -0.6158
 3987TIP3    H233521   4.126   1.939   6.834 -0.0923 -0.7232  0.3174
 3988TIP3   OH233522   5.667   1.356   0.103 -0.0348 -0.8274 -0.2605
 3988TIP3    H133523   5.670   1.267   0.140 -0.3693 -0.4347  0.7360
 3988TIP3    H233524   5.758   1.376   0.082  0.4344 -0.4726  1.8469
 3989TIP3   OH233525   6.363   1.410   0.380 -0.0983 -0.4752 -0.0348
 3989TIP3    H133526   6.404   1.496   0.371  0.1106  0.0460  3.9029
 3989TIP3    H233527   6.437   1.349   0.383 -0.0751 -0.4583 -0.2942
 3990TIP3   OH233528   0.067   3.241   7.902 -0.3466 -0.5208  0.1833
 3990TIP3    H133529   0.081   3.319   7.956 -0.7673 -1.3208  1.4980
 3990TIP3    H233530   0.126   3.252   7.828  0.7162  0.3366  1.1170
 3991TIP3   OH233531   0.755   3.397   7.921  0.3410  0.3262 -0.3780
 3991TIP3    H133532   0.804   3.414   7.840  2.3092  0.4159  0.7584
 3991TIP3    H233533   0.697   3.324   7.899  3.1201 -1.8426 -1.0774
 3992TIP3   OH233534   3.121   0.993   1.839  0.0091 -0.1152 -0.1033
 3992TIP3    H133535   3.115   0.980   1.933  0.6027 -2.1683 -0.3110
 3992TIP3    H233536   3.113   1.088   1.828  2.5426  0.4969  2.2164
 3993TIP3   OH233537   2.294   4.055   8.163 -0.0295 -0.2512  0.1268
 3993TIP3    H133538   2.385   4.055   8.194  0.5762  0.3520 -1.5546
 3993TIP3    H233539   2.293   3.991   8.092 -0.7124  0.3880 -0.4494
 3994TIP3   OH233540   1.854   4.480   7.029  0.1940  0.9265  0.0981
 3994TIP3    H133541   1.781   4.450   6.975 -0.0156 -0.3683  1.0333
 3994TIP3    H233542   1.913   4.405   7.034  1.7615  2.0414 -0.8603
 3995TIP3   OH233543   1.750   4.905   0.915 -0.4729 -0.0180 -0.3734
 3995TIP3    H133544   1.772   4.902   0.822 -1.7738 -0.5312 -0.6794
 3995TIP3    H233545   1.787   4.825   0.951 -1.7989 -0.8902 -0.8905
 3996TIP3   OH233546   1.515   1.515   7.837  0.0006 -0.4288 -0.3240
 3996TIP3    H133547   1.443   1.516   7.774 -0.8108 -0.0586  0.5593
 3996TIP3    H233548   1.588   1.557   7.792 -0.5249 -0.2766 -1.0490
 3997TIP3   OH233549   3.063   1.039   5.560 -0.5032  0.2981  0.3850
 3997TIP3    H133550   3.135   1.100   5.544 -1.0246  0.8139 -0.0823
 3997TIP3    H233551   2.987   1.082   5.521 -1.0282 -0.3196  0.7089
 3998TIP3   OH233552   1.735   4.554   0.808  0.6105  0.0356 -0.4940
 3998TIP3    H133553   1.680   4.582   0.735  0.3951 -0.5663 -0.5681
 3998TIP3    H233554   1.750   4.460   0.793  3.1198  0.4972 -1.4318
 3999TIP3   OH233555   6.191   0.036   7.234 -0.1207  0.1430 -0.0139
 3999TIP3    H133556   6.168   0.080   7.316 -0.3136 -0.9162  0.5162
 3999TIP3    H233557   6.180   0.103   7.167 -1.2233  0.6628  0.6681
 4000TIP3   OH233558   2.497   1.388   6.251 -0.0472  0.4075  0.1009
 4000TIP3    H133559   2.554   1.456   6.215  1.3738  0.0776  1.6083
 4000TIP3    H233560   2.485   1.326   6.179  2.3152  0.0072 -0.0138
 4001TIP3   OH233561   5.958   6.793   6.773  0.5539 -0.5079  0.3916
 4001TIP3    H133562   5.934   6.706   6.741 -1.9273 -0.3830  1.6893
 4001TIP3    H233563   6.030   6.777   6.834  0.1276 -1.6420  0.6125
 4002TIP3   OH233564   1.858   5.271   7.722 -0.5385  0.1684 -0.4982
 4002TIP3    H133565   1.924   5.208   7.750 -0.1559  0.0460 -1.6077
 4002TIP3    H233566   1.787   5.217   7.687 -2.3949  0.1705  2.8942
 4003TIP3   OH233567   4.375   1.937   6.023  0.2193  0.5181  0.0514
 4003TIP3    H133568   4.339   2.015   5.981  0.4629  0.4583 -0.2680
 4003TIP3    H233569   4.464   1.961   6.048  1.0011 -0.2639 -1.7992
 4004TIP3   OH233570   2.570   2.446   1.611 -0.0598  0.0277  0.5221
 4004TIP3    H133571   2.642   2.413   1.663 -0.1707 -1.8617 -0.4642
 4004TIP3    H233572   2.492   2.426   1.662 -0.0195  0.3174  0.6996
 4005TIP3   OH233573   4.258   6.054   7.316  0.4245  0.6416  0.4463
 4005TIP3    H133574   4.340   6.006   7.306  0.7928  1.0670  1.3765
 4005TIP3    H233575   4.197   5.990   7.353  0.5848  0.5664  0.5799
 4006TIP3   OH233576   1.719   6.065   1.075  0.6991  0.0674  0.4675
 4006TIP3    H133577   1.788   6.066   1.141  0.3245  1.7262  0.8729
 4006TIP3    H233578   1.733   5.983   1.027  3.4552  0.7124 -0.0070
 4007TIP3   OH233579   2.742   6.210   7.496  0.1425  0.4412 -0.0740
 4007TIP3    H133580   2.803   6.256   7.553  2.5214 -1.8660 -0.5156
 4007TIP3    H233581   2.742   6.120   7.529 -2.1078  0.0746 -0.8983
 4008TIP3   OH233582   6.973   1.321   0.393 -0.5441  0.0189  0.0772
 4008TIP3    H133583   6.946   1.322   0.301  0.6002  1.0417 -0.2792
 4008TIP3    H233584   7.044   1.256   0.397 -1.9484 -1.5342  0.6895
 4009TIP3   OH233585   4.408   0.810   7.823  0.4152 -0.6485  0.4436
 4009TIP3    H133586   4.324   0.823   7.867  0.7388 -0.7212  1.0906
 4009TIP3    H233587   4.385   0.771   7.739 -0.2058 -0.5518  0.5616
 4010TIP3   OH233588   2.468   3.118   1.568 -0.0234 -0.1891 -0.0488
 4010TIP3    H133589   2.499   3.153   1.652 -1.3988  0.9115  0.0381
 4010TIP3    H233590   2.500   3.180   1.503  2.2169 -1.7574 -0.5679
 4011TIP3   OH233591   1.416   4.701   0.000  0.2673  0.3204  1.0407
 4011TIP3    H133592   1.467   4.747   0.067 -0.9897  0.9526  1.5875
 4011TIP3    H233593   1.449   4.611   0.003  2.5255  1.0499  0.1976
 4012TIP3   OH233594   6.150   4.781   2.237  0.7856 -0.2295  0.1165
 4012TIP3    H133595   6.112   4.776   2.325  2.2902  1.0246  0.8920
 4012TIP3    H233596   6.165   4.690   2.213 -0.1333 -0.6191  0.9233
 4013TIP3   OH233597   2.707   2.785   0.346 -0.2583  0.1454  0.1581
 4013TIP3    H133598   2.640   2.795   0.278  0.8933 -0.6273 -1.1359
 4013TIP3    H233599   2.659   2.795   0.428 -1.9798 -0.4665 -0.7205
 4014TIP3   OH233600   2.851   2.974   0.207  0.3886  0.0179  0.2391
 4014TIP3    H133601   2.911   3.015   0.269 -0.3350  1.1094  0.2439
 4014TIP3    H233602   2.789   2.926   0.262 -0.2557  0.9885  0.3843
 4015TIP3   OH233603   6.745   2.330   5.933  0.2656  0.1741 -0.5159
 4015TIP3    H133604   6.705   2.246   5.910  0.1052 -0.2587  1.1792
 4015TIP3    H233605   6.676   2.394   5.918  0.2066 -0.0664 -1.3008
 4016TIP3   OH233606   4.202   0.442   8.060  0.4102  0.0177 -0.4566
 4016TIP3    H133607   4.269   0.374   8.067  0.5654  0.2015 -0.1117
 4016TIP3    H233608   4.121   0.394   8.041  0.4424 -0.3076  0.2049
 4017TIP3   OH233609   0.827   3.312   7.202 -0.0602 -0.3333  0.3215
 4017TIP3    H133610   0.790   3.307   7.114  0.0492 -1.0774  0.3144
 4017TIP3    H233611   0.804   3.400   7.232 -0.1023 -0.0760 -0.4441
 4018TIP3   OH233612   4.498   3.635   0.890 -0.4254  0.7650  0.2191
 4018TIP3    H133613   4.454   3.616   0.972 -0.4822 -0.5454 -0.0947
 4018TIP3    H233614   4.588   3.606   0.903 -0.6749 -0.4011 -0.4921
 4019TIP3   OH233615   4.014   4.100   1.894  0.2842  0.0588  0.1093
 4019TIP3    H133616   4.093   4.058   1.861 -0.0941 -0.7899  0.2674
 4019TIP3    H233617   4.029   4.110   1.988  0.1133 -0.2926  0.1724
 4020TIP3   OH233618   1.726   3.406   7.880 -0.2985  0.0594 -0.4713
 4020TIP3    H133619   1.706   3.396   7.787  0.4251  1.9824 -0.8904
 4020TIP3    H233620   1.723   3.501   7.894  3.7083  0.1794  0.5103
 4021TIP3   OH233621   4.864   5.735   7.050 -0.1563 -0.6187  0.0983
 4021TIP3    H133622   4.946   5.686   7.062  2.0329  2.8975  0.8739
 4021TIP3    H233623   4.856   5.746   6.955  1.8570  1.2370  0.0657
 4022TIP3   OH233624   7.022   0.263   1.195  0.4067 -0.2926 -0.4397
 4022TIP3    H133625   7.028   0.260   1.291  0.3356 -1.0590 -0.4592
 4022TIP3    H233626   6.961   0.194   1.172 -0.5516  0.6980 -0.9652
 4023TIP3   OH233627   4.836   4.987   6.820  0.2755  0.5856  0.1661
 4023TIP3    H133628   4.748   4.958   6.797  0.2493  0.6557  0.1796
 4023TIP3    H233629   4.852   4.947   6.906 -0.8437  2.8354  1.5237
 4024TIP3   OH233630   5.551   3.503   6.857  0.2721 -0.3980  0.6741
 4024TIP3    H133631   5.535   3.554   6.778  1.2303 -2.4945 -0.9645
 4024TIP3    H233632   5.616   3.554   6.906  0.7238  0.2522 -0.5752
 4025TIP3   OH233633   4.296   5.608   5.969  0.2131 -0.1592 -0.0347
 4025TIP3    H133634   4.202   5.609   5.948  0.3300  0.6639 -0.5784
 4025TIP3    H233635   4.304   5.542   6.038 -0.4049 -1.8972 -1.5583
 4026TIP3   OH233636   1.814   1.401   2.072 -0.3016  0.0433 -0.0386
 4026TIP3    H133637   1.767   1.370   1.995  0.4946  2.4266 -1.6021
 4026TIP3    H233638   1.745   1.437   2.129 -0.6825  0.9181 -1.0107
 4027TIP3   OH233639   2.786   0.283   0.841 -0.1184  0.1891  0.2179
 4027TIP3    H133640   2.784   0.369   0.799 -1.3911  0.3813  0.6484
 4027TIP3    H233641   2.839   0.296   0.920 -3.2583  1.5716  2.2923
 4028TIP3   OH233642   4.351   4.642   1.064 -0.3827 -0.0854 -0.2767
 4028TIP3    H133643   4.285   4.642   0.995  0.1985  1.0441 -0.8585
 4028TIP3    H233644   4.305   4.676   1.141 -1.4069 -2.6123  0.3298
 4029TIP3   OH233645   2.678   3.230   6.480  0.2614 -0.1088 -0.1441
 4029TIP3    H133646   2.718   3.171   6.544  2.6446  0.9812 -0.4962
 4029TIP3    H233647   2.751   3.285   6.450 -1.1487  0.6459 -2.4378
 4030TIP3   OH233648   1.624   2.378   7.580  0.3442 -0.3958  0.8924
 4030TIP3    H133649   1.571   2.376   7.660  1.0724 -1.8814  1.3893
 4030TIP3    H233650   1.627   2.470   7.555 -0.6442 -0.0105  2.0730
 4031TIP3   OH233651   5.152   3.108   0.880  0.1161 -0.0518 -0.3086
 4031TIP3    H133652   5.136   3.110   0.785 -2.0000 -0.3821  0.0035
 4031TIP3    H233653   5.128   3.196   0.909 -0.0003 -0.1947  0.0248
 4032TIP3   OH233654   2.526   5.830   6.635  0.2864  0.2426 -0.2632
 4032TIP3    H133655   2.512   5.921   6.662  1.1936  0.0616  0.8717
 4032TIP3    H233656   2.445   5.786   6.660  0.8344  0.2220  1.6724
 4033TIP3   OH233657   6.208   2.888   0.126  0.0292  0.5182 -0.3101
 4033TIP3    H133658   6.180   2.980   0.125 -0.7921  0.2805 -1.8763
 4033TIP3    H233659   6.302   2.892   0.105  0.1272  1.0278  0.1921
 4034TIP3   OH233660   1.406   1.451   0.541 -0.4843 -0.5022 -0.3652
 4034TIP3    H133661   1.345   1.383   0.514 -1.2943 -0.1841  0.5618
 4034TIP3    H233662   1.356   1.503   0.605 -0.3022  1.6440 -1.8532
 4035TIP3   OH233663   1.402   0.267   6.267  0.7378  0.1874 -0.4340
 4035TIP3    H133664   1.446   0.282   6.184  2.0147 -0.4210  0.1043
 4035TIP3    H233665   1.310   0.251   6.243  1.0517  0.1678 -1.6975
 4036TIP3   OH233666   6.228   5.435   1.685 -0.3378  0.0391  0.6097
 4036TIP3    H133667   6.267   5.519   1.708 -0.5454  0.1328  0.6270
 4036TIP3    H233668   6.183   5.407   1.765 -0.2278 -0.1115  0.6184
 4037TIP3   OH233669   5.952   4.507   1.351 -0.7238  0.8297 -0.3309
 4037TIP3    H133670   5.966   4.599   1.374 -0.6638  0.9142 -0.6999
 4037TIP3    H233671   6.009   4.493   1.275  0.0613  0.2082  0.3496
 4038TIP3   OH233672   0.501   5.147   7.094 -0.0915  0.4747  0.2105
 4038TIP3    H133673   0.523   5.111   7.180  0.3553  0.4279  0.0764
 4038TIP3    H233674   0.585   5.158   7.050 -0.3107  0.6107 -0.1774
 4039TIP3   OH233675   6.393   0.836   0.089  0.5122 -0.1087 -0.5032
 4039TIP3    H133676   6.381   0.902   0.158  0.5127  1.9711 -2.3851
 4039TIP3    H233677   6.310   0.833   0.043  1.5637  1.4132 -2.7122
 4040TIP3   OH233678   1.531   4.080   7.999  0.0357 -0.3322  0.4991
 4040TIP3    H133679   1.511   4.106   8.089  0.0358 -0.3978  0.5181
 4040TIP3    H233680   1.450   4.094   7.951  0.5962  1.7388  0.0400
 4041TIP3   OH233681   2.293   3.970   6.699  0.3542  0.3143 -0.4949
 4041TIP3    H133682   2.386   3.989   6.711  0.4625 -0.6849  0.3889
 4041TIP3    H233683   2.264   4.035   6.635  1.7517  0.3604 -1.1221
 4042TIP3   OH233684   1.237   6.595   0.914 -0.3225 -0.7576 -0.1953
 4042TIP3    H133685   1.291   6.575   0.990 -1.0803 -1.1583  0.2533
 4042TIP3    H233686   1.260   6.528   0.850 -0.7781 -1.3567  0.2495
 4043TIP3   OH233687   1.636   3.113   7.231 -0.0558  0.2312 -0.3510
 4043TIP3    H133688   1.712   3.055   7.232 -0.7143 -0.6943 -1.3853
 4043TIP3    H233689   1.574   3.073   7.291 -0.1097  0.4564 -0.2538
 4044TIP3   OH233690   1.037   1.390   0.201 -0.3956 -0.2472 -0.0366
 4044TIP3    H133691   1.037   1.460   0.267 -0.1165 -0.0244 -0.2719
 4044TIP3    H233692   1.004   1.314   0.248 -1.0426  0.1270  0.1280
 4045TIP3   OH233693   6.633   6.345   1.525  0.2620  0.5856 -0.2916
 4045TIP3    H133694   6.612   6.438   1.526  1.3475  0.8376  0.1412
 4045TIP3    H233695   6.592   6.312   1.445 -1.4634  1.0975  0.3293
 4046TIP3   OH233696   3.830   1.952   0.727  0.8949 -0.6890  0.4279
 4046TIP3    H133697   3.755   1.961   0.668  1.9164  1.9498 -0.5906
 4046TIP3    H233698   3.791   1.960   0.815 -0.2206 -1.3364  0.0207
 4047TIP3   OH233699   3.692   0.042   7.162 -0.4029  0.1447  0.3983
 4047TIP3    H133700   3.695   0.132   7.132 -2.0146  0.6429  1.6091
 4047TIP3    H233701   3.764   0.035   7.225 -0.8804  0.8755  1.0354
 4048TIP3   OH233702   1.985   1.668   0.873 -0.2490  0.0011  0.5584
 4048TIP3    H133703   1.953   1.757   0.863  1.2185  0.4024 -1.0040
 4048TIP3    H233704   1.975   1.649   0.966 -1.7855  1.3011  0.7018
 4049TIP3   OH233705   2.617   1.669   7.023 -0.4539  0.6290  0.0363
 4049TIP3    H133706   2.576   1.742   7.069  0.1651  0.7828  0.3505
 4049TIP3    H233707   2.544   1.625   6.979 -0.8704  1.2583  0.0837
 4050TIP3   OH233708   1.417   5.783   0.230 -0.0024 -0.2003  0.4404
 4050TIP3    H133709   1.507   5.750   0.229 -0.3916 -1.3318 -0.5879
 4050TIP3    H233710   1.384   5.760   0.317 -0.3741 -3.0533 -0.3320
 4051TIP3   OH233711   2.164   5.367   6.672  0.0680 -0.3554 -0.4696
 4051TIP3    H133712   2.239   5.343   6.617  0.1846 -1.7271  0.2455
 4051TIP3    H233713   2.189   5.338   6.760 -2.0496 -2.7145 -0.5290
 4052TIP3   OH233714   3.266   4.298   6.301 -0.4890 -0.0898  0.1010
 4052TIP3    H133715   3.280   4.271   6.392  0.1960  0.2662  0.1067
 4052TIP3    H233716   3.220   4.382   6.308  0.9954  0.7564  0.1692
 4053TIP3   OH233717   1.015   3.184   2.210  0.4363  0.4595 -0.3479
 4053TIP3    H133718   1.010   3.240   2.287  0.8962  0.3509 -0.2369
 4053TIP3    H233719   1.004   3.095   2.244  0.0668  0.4515 -0.4798
 4054TIP3   OH233720   2.637   3.529   7.871 -0.3309  0.0042  0.4462
 4054TIP3    H133721   2.612   3.460   7.809  0.7661 -0.6128  0.6598
 4054TIP3    H233722   2.702   3.488   7.927  0.0232  1.0936  0.8603
 4055TIP3   OH233723   6.352   5.787   8.099  0.1291  0.3106 -0.2234
 4055TIP3    H133724   6.328   5.775   8.007 -0.3898  1.3228 -0.2365
 4055TIP3    H233725   6.298   5.860   8.128 -1.5406 -1.5274  1.6018
 4056TIP3   OH233726   2.708   5.075   0.517 -0.1902 -0.2641 -0.4258
 4056TIP3    H133727   2.792   5.033   0.533 -0.5591 -0.9499 -0.2778
 4056TIP3    H233728   2.659   5.064   0.599 -0.4386  0.1165 -0.5171
 4057TIP3   OH233729   1.971   0.091   6.603  0.2762  0.6322 -0.5024
 4057TIP3    H133730   2.043   0.129   6.552 -0.6064  1.4793 -1.1441
 4057TIP3    H233731   1.892   0.121   6.559 -0.6131 -3.8257 -2.5711
 4058TIP3   OH233732   4.643   6.226   7.726  0.4979  0.2713  0.5211
 4058TIP3    H133733   4.660   6.159   7.792  2.7600 -1.9973 -2.1097
 4058TIP3    H233734   4.673   6.308   7.766  1.3383 -0.9142  2.4387
 4059TIP3   OH233735   4.118   0.814   6.909  0.0618  0.2730  0.5181
 4059TIP3    H133736   4.084   0.775   6.828 -1.2347  0.1676  1.0769
 4059TIP3    H233737   4.208   0.837   6.889 -0.1894  0.1153 -0.9128
 4060TIP3   OH233738   5.584   1.284   6.320  0.0814  0.2805  0.0257
 4060TIP3    H133739   5.500   1.247   6.293  0.2880 -0.1568 -0.0226
 4060TIP3    H233740   5.577   1.377   6.300 -0.0330  0.0868 -0.8818
 4061TIP3   OH233741   4.785   2.400   0.521 -0.1591  0.5432  0.2268
 4061TIP3    H133742   4.714   2.458   0.551  0.6989 -0.2859  4.5111
 4061TIP3    H233743   4.865   2.447   0.543  0.6085 -0.2140 -0.8729
 4062TIP3   OH233744   3.263   0.908   6.601  0.0164  0.1898 -0.2681
 4062TIP3    H133745   3.242   0.893   6.693 -0.0568 -1.3019 -0.5041
 4062TIP3    H233746   3.338   0.851   6.583  0.2672  0.7375 -1.0364
 4063TIP3   OH233747   2.776   5.104   6.880 -0.4347 -0.3821  0.0830
 4063TIP3    H133748   2.737   5.147   6.956  0.4513 -0.0053  0.3331
 4063TIP3    H233749   2.730   5.142   6.805 -0.8814 -0.3040  0.3943
 4064TIP3   OH233750   6.293   3.868   7.628 -0.1421 -0.1403  0.1731
 4064TIP3    H133751   6.203   3.836   7.634 -0.5357  0.4186 -1.8374
 4064TIP3    H233752   6.329   3.823   7.551  0.5096  1.3926 -0.4580
 4065TIP3   OH233753   4.765   0.946   1.699 -0.1558 -0.4943 -0.3824
 4065TIP3    H133754   4.804   0.943   1.612  1.1644 -1.4597  0.1879
 4065TIP3    H233755   4.833   0.986   1.754 -0.8303 -0.2184  0.2710
 4066TIP3   OH233756   1.264   6.142   0.802 -0.0464 -0.4342 -0.2741
 4066TIP3    H133757   1.316   6.067   0.829  1.2485  0.4715 -0.1820
 4066TIP3    H233758   1.260   6.198   0.880  0.3108  0.2999 -0.7668
 4067TIP3   OH233759   4.322   3.410   6.249 -0.1034 -0.4518 -0.3274
 4067TIP3    H133760   4.317   3.402   6.344 -0.9780  0.9688 -0.2252
 4067TIP3    H233761   4.415   3.428   6.232  0.2253 -1.6061  0.1624
 4068TIP3   OH233762   1.643   5.883   6.178 -0.2242  0.0034 -0.1642
 4068TIP3    H133763   1.564   5.900   6.228  0.9288  0.1832  1.6692
 4068TIP3    H233764   1.622   5.806   6.126 -1.1143 -0.8647  1.4185
 4069TIP3   OH233765   4.150   2.632   6.306 -0.2540 -0.6841 -0.4248
 4069TIP3    H133766   4.081   2.569   6.285 -1.5882  0.6836 -0.3899
 4069TIP3    H233767   4.137   2.704   6.244  0.4826  0.0672  0.2512
 4070TIP3   OH233768   0.368   3.652   6.904  0.2496  0.2050 -0.3595
 4070TIP3    H133769   0.291   3.695   6.865 -1.5747 -2.9229 -0.5895
 4070TIP3    H233770   0.415   3.615   6.829  0.3155 -0.4057 -0.0202
 4071TIP3   OH233771   0.955   2.392   7.029  0.2311  0.4583  0.4317
 4071TIP3    H133772   0.945   2.343   6.947  1.1313 -1.8090  1.5871
 4071TIP3    H233773   1.043   2.368   7.060 -0.0849  1.2665  2.0507
 4072TIP3   OH233774   1.531   3.719   6.009  0.1092  0.1263 -0.6014
 4072TIP3    H133775   1.537   3.777   6.086  0.9294 -0.0511 -0.5209
 4072TIP3    H233776   1.459   3.756   5.957  0.8769  1.4761 -0.7603
 4073TIP3   OH233777   1.649   2.894   1.097  0.2417 -0.5380  0.2789
 4073TIP3    H133778   1.628   2.939   1.178 -0.0080 -2.2992  1.2496
 4073TIP3    H233779   1.735   2.856   1.112 -0.0763 -1.4121 -0.0137
 4074TIP3   OH233780   2.761   2.019   6.364 -0.0980  0.7495 -0.5544
 4074TIP3    H133781   2.695   2.087   6.379 -0.3021  0.3377  0.5008
 4074TIP3    H233782   2.817   2.055   6.295 -1.4869  1.0497 -1.5781
 4075TIP3   OH233783   5.016   6.977   7.226 -0.6388  0.1851  0.0759
 4075TIP3    H133784   5.062   6.904   7.269 -0.1464 -0.0197 -0.7660
 4075TIP3    H233785   4.924   6.951   7.227 -0.3743 -0.8668 -0.9802
 4076TIP3   OH233786   3.278   0.366   7.274 -0.2728  0.1771  0.0627
 4076TIP3    H133787   3.298   0.448   7.319 -0.6582  1.2087 -1.5468
 4076TIP3    H233788   3.183   0.357   7.282 -0.4116  0.6302 -0.9150
 4077TIP3   OH233789   4.089   6.632   7.113 -0.6214  0.1277 -0.6554
 4077TIP3    H133790   4.173   6.587   7.123 -0.1157  1.3828  1.1636
 4077TIP3    H233791   4.087   6.660   7.022  0.2779 -1.1544 -1.0931
 4078TIP3   OH233792   1.288   6.283   1.036 -0.7555  0.2063 -0.3750
 4078TIP3    H133793   1.332   6.220   1.093 -0.9711  0.8628  0.5523
 4078TIP3    H233794   1.322   6.368   1.064 -0.4423  0.5088 -1.6307
 4079TIP3   OH233795   4.408   2.028   0.439  0.6763  0.0430 -0.5124
 4079TIP3    H133796   4.503   2.042   0.434  0.6595 -0.1841 -2.2888
 4079TIP3    H233797   4.373   2.084   0.370 -0.6260  1.0480  0.9134
 4080TIP3   OH233798   4.805   5.078   1.068  0.3370 -0.4210 -0.2510
 4080TIP3    H133799   4.785   4.995   1.025 -0.5382 -0.9554  1.1601
 4080TIP3    H233800   4.861   5.124   1.005  0.7290 -2.0084 -1.1070
 4081TIP3   OH233801   1.892   5.856   6.273  0.2944 -0.2008  0.0721
 4081TIP3    H133802   1.815   5.902   6.241 -0.1588  0.5761  2.1336
 4081TIP3    H233803   1.877   5.764   6.249 -0.7781  0.0965 -0.4389
 4082TIP3   OH233804   5.635   0.650   7.139 -0.1087 -0.2542 -0.0388
 4082TIP3    H133805   5.602   0.714   7.202 -0.3877  0.9852 -1.4049
 4082TIP3    H233806   5.602   0.566   7.171 -1.3326  0.4909  0.7437
 4083TIP3   OH233807   5.975   2.437   0.355  0.4380 -0.3450  0.0935
 4083TIP3    H133808   5.952   2.524   0.390  2.2662  0.1813  0.0685
 4083TIP3    H233809   6.043   2.454   0.291  0.2394 -1.7447 -0.5241
 4084TIP3   OH233810   0.770   5.021   7.556 -0.5342  0.0158 -0.0662
 4084TIP3    H133811   0.752   5.047   7.647  0.4207 -1.8484  0.7166
 4084TIP3    H233812   0.842   5.079   7.528 -0.9955  0.7641  0.2577
 4085TIP3   OH233813   2.676   7.000   1.121 -0.2139  0.3909 -0.2414
 4085TIP3    H133814   2.662   7.091   1.147  0.1614 -0.1968  2.2461
 4085TIP3    H233815   2.630   6.948   1.187  1.7586 -1.2681 -0.0531
 4086TIP3   OH233816   3.380   5.314   7.855  0.3342 -0.3124  0.7308
 4086TIP3    H133817   3.319   5.295   7.783  1.8520 -1.3535 -0.3282
 4086TIP3    H233818   3.418   5.399   7.833  1.3545 -0.9803 -0.1016
 4087TIP3   OH233819   5.077   2.914   6.942  0.6064  0.3091  0.0111
 4087TIP3    H133820   5.112   2.879   6.861  0.1553  1.3371 -0.6431
 4087TIP3    H233821   5.057   2.837   6.995  1.9455 -0.3409 -0.3918
 4088TIP3   OH233822   5.113   5.540   7.825  0.1411 -0.2157  0.2836
 4088TIP3    H133823   5.139   5.627   7.797  1.0262 -0.5881 -0.0958
 4088TIP3    H233824   5.191   5.503   7.866  0.6452 -1.7867 -1.8923
 4089TIP3   OH233825   3.991   4.877   6.835 -0.0611 -0.2019 -0.3457
 4089TIP3    H133826   4.062   4.833   6.788 -0.7568 -0.6246 -1.0213
 4089TIP3    H233827   3.931   4.905   6.766  0.4502  2.0117  0.0380
 4090TIP3   OH233828   0.476   6.849   8.053  0.1035 -0.4391  0.6173
 4090TIP3    H133829   0.395   6.854   8.002  0.8560  1.9510 -0.4994
 4090TIP3    H233830   0.447   6.836   8.143 -1.6338  1.3036  0.3716
 4091TIP3   OH233831   3.346   3.840   7.926  0.0654 -0.0077 -0.0078
 4091TIP3    H133832   3.439   3.822   7.940  0.1714 -0.3519 -1.0464
 4091TIP3    H233833   3.333   3.824   7.833 -1.2473 -0.9064  0.3113
 4092TIP3   OH233834   4.720   4.448   0.081  0.3573 -0.3951  0.2865
 4092TIP3    H133835   4.663   4.386   0.125 -0.2444  0.2706  0.4715
 4092TIP3    H233836   4.806   4.407   0.082  0.3817 -0.3633  2.1628
 4093TIP3   OH233837   1.757   1.416   6.975 -0.1859 -0.3426  0.1643
 4093TIP3    H133838   1.769   1.350   7.044  0.9839  0.3009  0.6096
 4093TIP3    H233839   1.779   1.371   6.894 -0.5520 -0.8193  0.3266
 4094TIP3   OH233840   5.354   2.347   1.342  0.4214 -0.2025  0.0028
 4094TIP3    H133841   5.319   2.433   1.367  2.2800 -0.2007  3.1924
 4094TIP3    H233842   5.394   2.362   1.257 -1.4728  1.4088 -0.6885
 4095TIP3   OH233843   1.765   3.386   7.314  0.0924  0.1989  0.2394
 4095TIP3    H133844   1.715   3.312   7.279  0.0413 -0.1249  0.9782
 4095TIP3    H233845   1.764   3.451   7.244 -0.2783 -0.3104 -0.2334
 4096TIP3   OH233846   4.328   4.252   0.387  0.3228  0.1382  0.0844
 4096TIP3    H133847   4.256   4.270   0.327 -0.5476 -3.1886 -0.0557
 4096TIP3    H233848   4.287   4.249   0.473  0.7922  0.7201  0.3361
 4097TIP3   OH233849   0.967   6.022   6.987 -0.0296  0.3468 -0.1968
 4097TIP3    H133850   1.019   6.102   6.994  0.0200  0.5027 -1.8964
 4097TIP3    H233851   0.911   6.023   7.064 -0.2884  2.2249 -0.3541
 4098TIP3   OH233852   0.343   4.446   1.977  0.0315  0.3932 -0.0093
 4098TIP3    H133853   0.395   4.366   1.974  0.6846  0.8457 -2.3067
 4098TIP3    H233854   0.324   4.466   1.886 -2.4764  1.3838  0.6637
 4099TIP3   OH233855   1.653   4.828   1.655  0.1262 -0.5037  0.2203
 4099TIP3    H133856   1.637   4.920   1.635 -1.3219 -1.0763 -1.6139
 4099TIP3    H233857   1.567   4.794   1.679  0.7041 -1.3175  1.1865
 4100TIP3   OH233858   5.485   1.594   0.478  0.0462  0.5277 -0.2820
 4100TIP3    H133859   5.478   1.499   0.474 -0.5981  0.6118 -2.2795
 4100TIP3    H233860   5.512   1.613   0.568  1.8221 -1.6336 -0.2760
 4101TIP3   OH233861   0.711   3.556   6.150  0.4881 -0.1734  0.1014
 4101TIP3    H133862   0.642   3.492   6.135 -1.6096  2.0203 -0.3430
 4101TIP3    H233863   0.779   3.534   6.086 -1.0465 -0.7805 -1.3984
 4102TIP3   OH233864   1.269   0.721   6.606 -0.3423  0.4123  0.2713
 4102TIP3    H133865   1.324   0.796   6.631  1.9279 -0.9296 -0.4442
 4102TIP3    H233866   1.181   0.758   6.598 -0.1589  2.1408  4.0815
 4103TIP3   OH233867   3.128   2.875   1.928  0.3314 -0.0840 -0.5173
 4103TIP3    H133868   3.140   2.941   1.860 -0.7966  1.2390  0.5040
 4103TIP3    H233869   3.172   2.911   2.005 -2.0405  0.5646  0.6558
 4104TIP3   OH233870   2.393   0.449   0.977 -0.3573  0.2945  0.3560
 4104TIP3    H133871   2.428   0.360   0.980  1.0649  0.8318  0.3421
 4104TIP3    H233872   2.414   0.487   1.062 -0.0682  0.9314  0.0102
 4105TIP3   OH233873   2.560   0.778   7.657 -0.3162 -0.2072 -0.0293
 4105TIP3    H133874   2.518   0.861   7.634 -0.4517  0.0650  1.1656
 4105TIP3    H233875   2.606   0.795   7.739  1.8266 -0.6271 -1.0827
 4106TIP3   OH233876   2.280   6.984   2.217 -0.2424 -0.2706 -0.1172
 4106TIP3    H133877   2.249   6.897   2.194 -2.1210 -0.0216  1.2956
 4106TIP3    H233878   2.260   7.038   2.140  1.8792 -1.1889 -1.4369
 4107TIP3   OH233879   6.072   6.469   0.696 -0.3511  0.1885 -0.5346
 4107TIP3    H133880   6.052   6.560   0.676 -0.1134  0.2799 -0.3551
 4107TIP3    H233881   5.994   6.421   0.666 -1.4169  0.6686  1.2968
 4108TIP3   OH233882   6.804   0.843   1.897  0.0364 -0.2403  0.0352
 4108TIP3    H133883   6.849   0.762   1.922  0.3167 -0.8638 -2.2901
 4108TIP3    H233884   6.874   0.908   1.890  0.1831 -0.4655 -0.6547
 4109TIP3   OH233885   2.062   6.017   1.131  0.5967  0.0908  0.0879
 4109TIP3    H133886   1.995   5.983   1.072 -0.3839 -0.1643  1.3153
 4109TIP3    H233887   2.143   6.010   1.081 -0.0163 -1.2566 -0.7769
 4110TIP3   OH233888   6.518   7.009   8.179 -0.2779 -0.2414  0.2966
 4110TIP3    H133889   6.489   7.042   8.094 -0.4400 -0.3990  0.2905
 4110TIP3    H233890   6.600   6.963   8.161  0.2864  0.6995  0.4021
 4111TIP3   OH233891   5.171   2.091   2.392 -0.2813  0.7440 -0.8909
 4111TIP3    H133892   5.076   2.081   2.392 -0.4138  1.6596 -2.4753
 4111TIP3    H233893   5.198   2.066   2.303  1.4938 -3.3910  0.5126
 4112TIP3   OH233894   3.375   4.794   1.149  0.0252 -0.2688 -0.0774
 4112TIP3    H133895   3.389   4.731   1.220 -1.6780 -1.6060 -0.8481
 4112TIP3    H233896   3.352   4.740   1.073 -0.4763  1.2451 -1.0477
 4113TIP3   OH233897   6.945   3.387   0.660  0.1436  0.2096  0.2721
 4113TIP3    H133898   6.960   3.342   0.577 -0.4413 -0.3863  0.4797
 4113TIP3    H233899   7.017   3.450   0.667  0.4417 -0.0393 -0.4724
 4114TIP3   OH233900   5.695   2.065   1.237  0.1092 -0.4715  0.7457
 4114TIP3    H133901   5.741   2.147   1.255 -1.2458  0.3815  0.4993
 4114TIP3    H233902   5.738   2.030   1.159  0.2027  0.4143  0.3916
 4115TIP3   OH233903   4.537   1.776   0.525  0.0703  0.2414  0.1058
 4115TIP3    H133904   4.471   1.765   0.594  0.8509 -0.4130  0.7706
 4115TIP3    H233905   4.525   1.866   0.495 -2.2448 -0.3697 -0.9842
 4116TIP3   OH233906   3.621   6.796   6.741 -0.2672  0.1491 -0.0481
 4116TIP3    H133907   3.648   6.819   6.829 -0.1982 -0.0629 -0.0152
 4116TIP3    H233908   3.691   6.740   6.707 -1.1508 -1.2939  0.4224
 4117TIP3   OH233909   5.374   4.275   0.951 -0.0334 -0.0884  0.0169
 4117TIP3    H133910   5.317   4.199   0.936  0.5640 -0.6995  0.7501
 4117TIP3    H233911   5.358   4.299   1.042 -0.7208  1.1115 -0.3968
 4118TIP3   OH233912   6.552   6.304   2.115 -0.0614 -0.1280 -0.3028
 4118TIP3    H133913   6.507   6.236   2.166  0.0286 -0.4934 -0.7036
 4118TIP3    H233914   6.494   6.380   2.120  0.7013  0.3922  1.6977
 4119TIP3   OH233915   2.809   5.560   6.794 -0.6359 -0.1719  0.2957
 4119TIP3    H133916   2.723   5.520   6.783 -0.6201  0.2069 -1.5270
 4119TIP3    H233917   2.871   5.489   6.775 -0.5976  0.2175 -1.1647
 4120TIP3   OH233918   4.482   6.675   0.814  0.2109 -0.3434  0.1570
 4120TIP3    H133919   4.482   6.659   0.719 -0.4429  0.1875  0.0553
 4120TIP3    H233920   4.478   6.588   0.853 -2.0504 -0.5344 -0.3618
 4121TIP3   OH233921   4.274   4.639   7.714 -0.6314 -0.6882  0.0440
 4121TIP3    H133922   4.184   4.639   7.748 -0.2103  2.7656  1.6501
 4121TIP3    H233923   4.285   4.727   7.678  2.2492 -0.8208  0.4077
 4122TIP3   OH233924   6.715   6.077   1.606  0.3219  0.2131 -0.0386
 4122TIP3    H133925   6.787   6.075   1.670 -0.5664 -1.2590  0.9725
 4122TIP3    H233926   6.754   6.115   1.527  1.9286  0.4190  0.8167
 4123TIP3   OH233927   4.845   0.531   0.879  0.0383 -0.3426 -0.2732
 4123TIP3    H133928   4.873   0.472   0.809  0.1423 -0.4772 -0.1166
 4123TIP3    H233929   4.873   0.488   0.959  1.0540  0.4146 -0.2027
 4124TIP3   OH233930   6.089   5.932   0.843 -0.0332 -0.9032 -0.0748
 4124TIP3    H133931   6.161   5.995   0.844 -1.4578  0.8168  1.5813
 4124TIP3    H233932   6.119   5.859   0.898  0.7487 -0.5921 -0.0839
 4125TIP3   OH233933   2.139   0.906   1.229  0.3851 -0.1540 -0.2951
 4125TIP3    H133934   2.216   0.939   1.182 -0.0319  0.4892 -0.5465
 4125TIP3    H233935   2.174   0.872   1.311  1.3046 -2.5081 -1.5618
 4126TIP3   OH233936   6.934   0.978   7.072 -0.9702  0.3550  0.1423
 4126TIP3    H133937   6.994   0.921   7.026 -1.0799  1.0844 -0.9425
 4126TIP3    H233938   6.909   0.928   7.150  0.6645 -0.1391  0.3917
 4127TIP3   OH233939   6.193   2.214   0.430 -0.1548  0.2445  0.6398
 4127TIP3    H133940   6.203   2.272   0.354 -0.2559  0.5075  0.8246
 4127TIP3    H233941   6.099   2.195   0.433  0.0108 -0.7111  0.0088
 4128TIP3   OH233942   2.385   4.228   7.088 -0.3163 -0.2830  0.0821
 4128TIP3    H133943   2.355   4.273   7.009 -0.7441  1.1006  1.0113
 4128TIP3    H233944   2.480   4.226   7.080 -0.3645 -0.2999 -0.5331
 4129TIP3   OH233945   4.493   0.131   7.044 -0.4357 -0.3842  0.3741
 4129TIP3    H133946   4.491   0.226   7.053 -0.4983 -0.2702 -0.7038
 4129TIP3    H233947   4.459   0.098   7.127 -1.5089  0.5601  0.3283
 4130TIP3   OH233948   0.122   6.356   6.530  0.7413  0.1260 -0.1242
 4130TIP3    H133949   0.106   6.354   6.624  0.2630 -1.2535 -0.2093
 4130TIP3    H233950   0.198   6.413   6.519  0.9777  0.0649  1.1241
 4131TIP3   OH233951   5.149   1.752   6.109 -0.1329  0.1795 -0.0415
 4131TIP3    H133952   5.084   1.720   6.046 -0.3613  2.0280 -0.8254
 4131TIP3    H233953   5.154   1.846   6.092 -1.2173  1.0584  3.6375
 4132TIP3   OH233954   4.767   4.183   6.798  0.1507 -0.6832  0.1652
 4132TIP3    H133955   4.785   4.092   6.818  0.0209 -0.5603  0.8755
 4132TIP3    H233956   4.683   4.182   6.752  0.2659 -0.9435 -0.0339
 4133TIP3   OH233957   5.767   1.078   6.463 -0.2907  0.5121  0.0939
 4133TIP3    H133958   5.730   1.120   6.385 -1.5624 -0.3095  0.2310
 4133TIP3    H233959   5.760   1.145   6.531 -2.9877 -0.0567  0.5030
 4134TIP3   OH233960   3.669   3.040   1.123 -0.5157 -0.0874  0.3246
 4134TIP3    H133961   3.590   3.009   1.077 -1.2487 -0.3653  1.7133
 4134TIP3    H233962   3.742   3.001   1.074 -1.0799  1.8124 -2.2358
 4135TIP3   OH233963   1.864   0.231   1.812  0.3196  0.3493  0.1241
 4135TIP3    H133964   1.871   0.256   1.904  0.2614 -0.3300  0.3185
 4135TIP3    H233965   1.898   0.142   1.809 -1.1036 -0.1986 -0.2469
 4136TIP3   OH233966   3.151   1.432   6.260 -0.5420 -0.2868  0.3613
 4136TIP3    H133967   3.215   1.442   6.190 -0.4812 -0.1626  0.4348
 4136TIP3    H233968   3.116   1.520   6.273 -1.8020 -0.5959 -0.6958
 4137TIP3   OH233969   1.899   4.086   0.285 -0.2856  0.7376 -0.5574
 4137TIP3    H133970   1.881   4.007   0.235 -0.3173 -0.6955  1.5837
 4137TIP3    H233971   1.821   4.098   0.339  0.4067  1.2478  0.3531
 4138TIP3   OH233972   5.120   4.285   8.097  0.2589 -0.3072 -0.2272
 4138TIP3    H133973   5.043   4.273   8.042  1.4919  0.2216 -2.1974
 4138TIP3    H233974   5.187   4.319   8.037  2.5266 -2.2415  0.9855
 4139TIP3   OH233975   4.708   0.103   1.708  0.6504 -0.2722 -0.1520
 4139TIP3    H133976   4.650   0.162   1.756 -1.6221 -0.3438 -2.5611
 4139TIP3    H233977   4.777   0.160   1.674  1.0352  0.1424  1.2553
 4140TIP3   OH233978   5.056   4.040   6.026 -0.0060 -0.3520  0.0501
 4140TIP3    H133979   5.074   4.128   5.994  1.4211  0.0865  1.9093
 4140TIP3    H233980   4.973   4.017   5.985 -0.9015  2.2215  0.2249
 4141TIP3   OH233981   0.022   3.498   7.508 -0.2690  0.0682 -0.3446
 4141TIP3    H133982  -0.044   3.453   7.561 -1.5717  1.1897 -0.9287
 4141TIP3    H233983  -0.027   3.528   7.431  0.5276  2.4081 -0.0076
 4142TIP3   OH233984   0.164   1.976   0.070 -0.3777 -1.0022  0.2934
 4142TIP3    H133985   0.155   2.058   0.119  0.2779 -1.9193  2.0290
 4142TIP3    H233986   0.257   1.973   0.046 -0.1452 -1.7568  1.2378
 4143TIP3   OH233987   3.608   0.746   1.595  0.1466 -0.0132  0.1031
 4143TIP3    H133988   3.569   0.780   1.515  1.1203  0.1832 -0.3021
 4143TIP3    H233989   3.577   0.804   1.664  0.0950  0.4106 -0.2752
 4144TIP3   OH233990   3.768   4.305   0.330 -0.2904 -0.2163  0.0963
 4144TIP3    H133991   3.717   4.259   0.264  2.0546 -1.1329 -1.1728
 4144TIP3    H233992   3.807   4.379   0.284  2.1821 -1.4284  0.1110
 4145TIP3   OH233993   3.294   5.087   8.203  0.9272  0.4091 -0.0642
 4145TIP3    H133994   3.212   5.071   8.155  0.9929  0.4581 -0.1918
 4145TIP3    H233995   3.312   5.180   8.188 -0.0428  0.9011  1.5795
 4146TIP3   OH233996   2.028   2.312   1.753 -0.6271 -0.3157  0.0010
 4146TIP3    H133997   2.075   2.328   1.835 -1.5665 -2.3240  0.9734
 4146TIP3    H233998   1.999   2.399   1.726 -1.8603  0.2315  2.7591
 4147TIP3   OH233999   1.877   2.302   0.796  0.2546  0.0658 -0.0222
 4147TIP3    H134000   1.930   2.245   0.852 -0.9264 -1.4740 -0.3967
 4147TIP3    H234001   1.862   2.249   0.717 -0.9830  0.8557 -0.3392
 4148TIP3   OH234002   3.536   6.648   1.108 -0.6093 -0.0760 -0.6129
 4148TIP3    H134003   3.498   6.572   1.063  3.9595 -2.3177 -1.2760
 4148TIP3    H234004   3.568   6.704   1.037 -0.0222  0.2357 -0.1112
 4149TIP3   OH234005   6.614   2.361   2.047  0.1084  0.0060 -0.3662
 4149TIP3    H134006   6.533   2.316   2.022  1.0213 -1.2284 -1.2665
 4149TIP3    H234007   6.585   2.439   2.094 -1.5640 -2.1037  2.4322
 4150TIP3   OH234008   6.314   5.385   7.950  0.2082 -0.3858  0.1819
 4150TIP3    H134009   6.280   5.457   8.004 -1.4152 -0.7541 -0.2767
 4150TIP3    H234010   6.253   5.313   7.966  1.2430 -1.3550 -0.1172
 4151TIP3   OH234011   3.244   3.222   0.845  0.4751  0.7971 -0.0688
 4151TIP3    H134012   3.337   3.205   0.859  0.1492 -1.8909 -0.6320
 4151TIP3    H234013   3.212   3.257   0.928  1.1820 -2.3598  1.6803
 4152TIP3   OH234014   0.025   3.213   2.038  0.8993  0.0370  1.1677
 4152TIP3    H134015   0.093   3.148   2.021  2.9240  1.8543  1.7453
 4152TIP3    H234016   0.074   3.292   2.064 -1.2503  2.3764 -1.2236
 4153TIP3   OH234017   5.375   0.048   1.667 -0.3952 -0.7211 -0.5784
 4153TIP3    H134018   5.346   0.077   1.581 -1.7708  0.7928  0.3314
 4153TIP3    H234019   5.296   0.049   1.721  0.4695 -1.3803  0.7640
 4154TIP3   OH234020   5.382   6.318   7.021 -0.4014 -0.1662  0.3415
 4154TIP3    H134021   5.467   6.338   7.059  0.0311  2.3021 -1.5983
 4154TIP3    H234022   5.391   6.343   6.929 -2.1732 -3.2326 -0.8120
 4155TIP3   OH234023   3.810   7.022   6.072  0.1783 -0.8437 -0.4611
 4155TIP3    H134024   3.748   6.949   6.069 -0.1709 -0.5365 -0.9290
 4155TIP3    H234025   3.815   7.052   5.981 -1.3342  1.0582  0.0113
 4156TIP3   OH234026   5.695   3.800   0.466  0.1138  0.6855 -0.0918
 4156TIP3    H134027   5.683   3.788   0.561  0.6989 -1.1029 -0.2016
 4156TIP3    H234028   5.740   3.884   0.458  0.9821  0.3924  1.3162
 4157TIP3   OH234029   4.680   5.391   1.414 -0.0477  0.4877 -0.3667
 4157TIP3    H134030   4.688   5.296   1.401  1.4524  0.7963 -2.1013
 4157TIP3    H234031   4.664   5.401   1.508  1.9335 -1.3859  0.2528
 4158TIP3   OH234032   2.277   6.428   0.804 -0.0526  0.4041 -0.6984
 4158TIP3    H134033   2.351   6.480   0.773  0.0006  0.8343  0.1067
 4158TIP3    H234034   2.225   6.410   0.726  0.4484  0.8329 -1.1366
 4159TIP3   OH234035   5.061   3.080   8.273 -0.1728  0.3112 -0.5184
 4159TIP3    H134036   5.025   3.020   8.339 -0.3807  2.4142  1.4092
 4159TIP3    H234037   4.985   3.129   8.242 -0.0986 -0.7569 -2.5396
 4160TIP3   OH234038   0.852   0.931   0.704 -0.2841  0.2859  0.2331
 4160TIP3    H134039   0.877   1.023   0.690  2.4576 -0.2695  0.7821
 4160TIP3    H234040   0.787   0.934   0.774 -0.3513  1.8353  0.1379
 4161TIP3   OH234041   5.240   3.601   1.780 -0.0050  0.3297 -0.0043
 4161TIP3    H134042   5.251   3.562   1.867  0.7721 -0.1133 -0.2946
 4161TIP3    H234043   5.233   3.526   1.721 -2.2311  0.5878 -0.1630
 4162TIP3   OH234044   3.150   1.094   0.037 -0.3991  0.3113  0.1656
 4162TIP3    H134045   3.172   1.085  -0.055  0.2462 -0.3258  0.3816
 4162TIP3    H234046   3.208   1.163   0.069 -0.2314  0.1413  0.2275
 4163TIP3   OH234047   1.375   0.315   6.547  0.3377 -0.0474  0.0186
 4163TIP3    H134048   1.390   0.333   6.640  2.5537 -2.1105  0.1538
 4163TIP3    H234049   1.280   0.311   6.539 -0.1024  3.3675  1.4496
 4164TIP3   OH234050   2.696   5.465   6.435 -0.2167 -0.5589  0.1807
 4164TIP3    H134051   2.707   5.466   6.340 -1.8852 -0.4812 -0.0421
 4164TIP3    H234052   2.763   5.524   6.468  0.7760 -1.0459 -0.8860
 4165TIP3   OH234053   3.941   1.756   1.847 -0.7305 -0.1405 -0.4900
 4165TIP3    H134054   3.951   1.848   1.872  0.7266 -0.2113 -0.7027
 4165TIP3    H234055   3.897   1.759   1.762  0.4391  0.4417 -1.1001
 4166TIP3   OH234056   4.940   1.517   1.867 -0.5911  0.2683 -0.1215
 4166TIP3    H134057   4.850   1.536   1.839 -0.4794  1.7761  0.4513
 4166TIP3    H234058   4.941   1.423   1.881 -1.3978 -0.1498 -2.4847
 4167TIP3   OH234059   6.674   2.381   0.548 -0.2314 -0.1019 -0.4052
 4167TIP3    H134060   6.752   2.434   0.532  0.5133 -1.5372 -1.6732
 4167TIP3    H234061   6.635   2.369   0.462 -1.3593 -0.1764  0.1009
 4168TIP3   OH234062   5.276   6.076   1.695  0.2968 -0.2865 -0.7836
 4168TIP3    H134063   5.297   6.051   1.785  0.5950  0.7011 -0.5627
 4168TIP3    H234064   5.181   6.086   1.694  0.4015  0.8871 -0.2447
 4169TIP3   OH234065   3.569   6.883   8.254 -1.4036 -0.3848 -0.2742
 4169TIP3    H134066   3.662   6.863   8.246 -1.1234  0.5202  0.5818
 4169TIP3    H234067   3.548   6.866   8.346 -1.6580  1.0930 -0.0381
 4170TIP3   OH234068   4.549   1.360   1.023 -0.1283 -0.0713 -0.1352
 4170TIP3    H134069   4.567   1.288   0.963 -0.1966  0.2719 -0.5676
 4170TIP3    H234070   4.540   1.437   0.967 -1.9281 -0.0492  0.1527
 4171TIP3   OH234071   4.268   5.955   7.763 -0.1145 -0.3813  0.4073
 4171TIP3    H134072   4.339   5.914   7.814  1.7341 -0.0445 -1.7233
 4171TIP3    H234073   4.247   5.891   7.696 -1.4277 -0.2047  0.6372
 4172TIP3   OH234074   4.367   0.010   0.370  0.1257  0.8343  0.4956
 4172TIP3    H134075   4.410   0.028   0.454  0.9140 -2.6460  1.0030
 4172TIP3    H234076   4.275   0.001   0.392  0.0001  1.9980  0.5453
 4173TIP3   OH234077   6.783   5.755   8.168  0.1487 -0.1276 -0.2591
 4173TIP3    H134078   6.806   5.807   8.091 -0.5270 -0.0487 -0.4159
 4173TIP3    H234079   6.709   5.803   8.207 -0.3888 -0.8927 -0.3237
 4174TIP3   OH234080   3.244   6.244   0.952 -0.3146 -0.1217  0.6273
 4174TIP3    H134081   3.166   6.194   0.927  0.8460 -1.8714  0.3518
 4174TIP3    H234082   3.315   6.205   0.901  0.3934  3.1306 -1.1655
 4175TIP3   OH234083   0.451   4.082   1.503  0.2100  0.3540  0.6820
 4175TIP3    H134084   0.357   4.081   1.487  0.3932  0.9831 -0.5218
 4175TIP3    H234085   0.486   4.010   1.450  0.7445  2.0465 -1.3831
 4176TIP3   OH234086   2.762   6.992   7.021 -0.3128  0.2217  0.4022
 4176TIP3    H134087   2.831   6.940   6.981 -0.2947  1.5022 -1.3334
 4176TIP3    H234088   2.808   7.053   7.079  0.1648  1.5486 -1.2746
 4177TIP3   OH234089   1.166   2.751   7.880  0.4059  0.7078  0.0342
 4177TIP3    H134090   1.104   2.687   7.845 -1.1452  1.2595  1.6151
 4177TIP3    H234091   1.249   2.704   7.884 -0.0176 -0.2506 -1.5796
 4178TIP3   OH234092   5.492   0.487   7.470  0.0026  0.0770 -0.0598
 4178TIP3    H134093   5.423   0.426   7.441 -1.4186  1.5524  0.1208
 4178TIP3    H234094   5.518   0.454   7.556 -0.3008 -0.6249 -0.2245
 4179TIP3   OH234095   3.228   1.899   6.210 -0.5220 -0.0365 -0.0841
 4179TIP3    H134096   3.216   1.867   6.121 -1.2114 -0.4341  0.1416
 4179TIP3    H234097   3.180   1.837   6.265 -0.1482  0.2285  0.5613
 4180TIP3   OH234098   5.660   5.381   6.720 -0.4193 -0.2247  0.0389
 4180TIP3    H134099   5.678   5.400   6.628  0.6091 -3.3581 -0.5129
 4180TIP3    H234100   5.565   5.388   6.727 -0.5007  0.2376 -1.2219
 4181TIP3   OH234101   4.404   4.333   6.522 -0.2086 -0.0937 -0.4463
 4181TIP3    H134102   4.337   4.273   6.490 -1.0649  1.2745 -1.3550
 4181TIP3    H234103   4.461   4.347   6.446  0.0778  0.1108 -0.1968
 4182TIP3   OH234104   6.481   1.558   6.542  0.0876 -0.2304 -1.1942
 4182TIP3    H134105   6.444   1.625   6.484 -0.1657 -0.2432 -1.0508
 4182TIP3    H234106   6.465   1.476   6.496  0.3413 -0.2004 -1.3402
 4183TIP3   OH234107   4.782   4.043   0.437  1.2856  0.2902 -0.1854
 4183TIP3    H134108   4.856   4.094   0.468  1.8130 -1.1106  0.9509
 4183TIP3    H234109   4.760   3.985   0.510 -0.5352  0.2344 -0.7279
 4184TIP3   OH234110   6.615   1.838   0.906  0.0273  0.2755  0.0225
 4184TIP3    H134111   6.702   1.851   0.943 -0.1773  0.4309  0.4544
 4184TIP3    H234112   6.628   1.775   0.836  0.3771 -0.2178  0.5289
 4185TIP3   OH234113   4.063   1.555   6.132 -0.2278  0.7665 -0.2237
 4185TIP3    H134114   4.029   1.481   6.081  0.4170  0.5737 -0.3839
 4185TIP3    H234115   3.987   1.586   6.181 -0.4876 -0.0697 -0.0659
 4186TIP3   OH234116   4.757   2.182   7.298 -0.3618 -0.4603 -0.3698
 4186TIP3    H134117   4.773   2.276   7.310 -0.0676 -0.4254 -1.0071
 4186TIP3    H234118   4.762   2.168   7.203  0.1905 -1.2286 -0.2374
 4187TIP3   OH234119   1.538   4.337   0.738 -0.6935 -0.0027  1.0071
 4187TIP3    H134120   1.496   4.251   0.733 -0.4684 -0.1538  1.6078
 4187TIP3    H234121   1.481   4.394   0.687  0.8667 -1.1276 -2.2627
 4188TIP3   OH234122   0.912   6.804   7.470  0.5512 -0.0446  0.2304
 4188TIP3    H134123   0.835   6.810   7.527  1.4389 -0.6554  1.5526
 4188TIP3    H234124   0.948   6.892   7.468  1.0515 -0.2013  1.4357
 4189TIP3   OH234125   6.638   4.407   8.105 -0.9160 -0.8317 -0.4247
 4189TIP3    H134126   6.727   4.404   8.069 -0.0595  0.6156  1.4073
 4189TIP3    H234127   6.585   4.439   8.032  0.3250 -0.3064 -1.1429
 4190TIP3   OH234128   1.952   3.533   1.073 -0.6717  0.0159  0.3096
 4190TIP3    H134129   1.967   3.475   0.998 -2.3494 -0.0868  0.0172
 4190TIP3    H234130   1.904   3.479   1.136 -0.3861  0.4791  0.9362
 4191TIP3   OH234131   2.319   2.416   7.152 -0.3321  0.1143  0.6845
 4191TIP3    H134132   2.257   2.468   7.102  1.1222  0.2419 -1.0996
 4191TIP3    H234133   2.317   2.329   7.112  2.1678  0.6972 -0.9359
 4192TIP3   OH234134   5.250   5.737   2.474  0.0690  0.4154 -0.7946
 4192TIP3    H134135   5.168   5.723   2.426  0.1808 -1.3583 -0.5362
 4192TIP3    H234136   5.281   5.648   2.494  1.7841  1.0743 -0.4312
 4193TIP3   OH234137   2.325   1.755   0.158  0.2629 -0.2098 -0.7959
 4193TIP3    H134138   2.353   1.795   0.240  0.0334 -1.5133 -0.0649
 4193TIP3    H234139   2.404   1.753   0.104  1.3345 -2.5814  0.7266
 4194TIP3   OH234140   4.180   2.992   7.211  0.1589 -0.6045  0.0565
 4194TIP3    H134141   4.272   3.017   7.206  0.1149 -0.7065 -2.7434
 4194TIP3    H234142   4.180   2.897   7.197 -0.4016 -0.5172 -0.5812
 4195TIP3   OH234143   2.015   4.522   8.218 -0.0733 -1.1162 -0.2317
 4195TIP3    H134144   1.993   4.483   8.133 -0.7275  0.7205 -0.9454
 4195TIP3    H234145   1.936   4.569   8.243 -0.1768 -2.2671  1.8238
 4196TIP3   OH234146   2.976   3.680   7.409  1.0464  0.0363  0.1001
 4196TIP3    H134147   2.940   3.635   7.332  2.8784 -0.3692 -0.5723
 4196TIP3    H234148   2.959   3.620   7.482 -0.0439  0.0801 -0.1102
 4197TIP3   OH234149   4.278   2.719   7.409 -0.0909  0.3399 -0.8575
 4197TIP3    H134150   4.350   2.766   7.451  0.0994 -0.3203 -0.4295
 4197TIP3    H234151   4.284   2.744   7.317 -0.0547  1.2226 -0.6221
 4198TIP3   OH234152   6.264   1.224   7.779  0.2985  0.3735 -0.7175
 4198TIP3    H134153   6.283   1.269   7.696 -0.1370  1.2537 -0.3609
 4198TIP3    H234154   6.350   1.203   7.815  0.5317  1.1171 -0.8091
 4199TIP3   OH234155   6.111   2.875   0.726  0.1736 -0.0980 -0.3419
 4199TIP3    H134156   6.143   2.907   0.642  2.2217  0.2511  0.5022
 4199TIP3    H234157   6.167   2.799   0.745  0.2805  0.2996  1.0419
 4200TIP3   OH234158   2.638   5.290   7.052 -0.3357 -0.3447  0.6823
 4200TIP3    H134159   2.551   5.329   7.043 -1.1719 -2.2504 -0.3241
 4200TIP3    H234160   2.645   5.268   7.145 -1.1844 -0.6602  0.6816
 4201TIP3   OH234161   6.741   4.273   0.630 -0.3253 -0.0331  0.9279
 4201TIP3    H134162   6.654   4.279   0.669 -1.2561  0.2969 -1.0863
 4201TIP3    H234163   6.751   4.181   0.607 -0.6563  0.1374  0.0760
 4202TIP3   OH234164   0.939   2.936   2.290  0.2195  0.1081 -0.4062
 4202TIP3    H134165   0.969   2.857   2.246  0.5350  0.2649 -0.4723
 4202TIP3    H234166   0.844   2.933   2.282  0.2040 -0.4638 -0.0703
 4203TIP3   OH234167   2.523   6.092   0.738 -0.1697  0.2226 -0.3220
 4203TIP3    H134168   2.532   6.162   0.674 -0.8100  1.6670  1.0796
 4203TIP3    H234169   2.516   6.012   0.686 -0.0658  1.2594 -2.0084
 4204TIP3   OH234170   2.575   0.129   6.213 -0.0557  0.3328 -0.1977
 4204TIP3    H134171   2.667   0.120   6.188  0.2713  1.2628  0.5965
 4204TIP3    H234172   2.528   0.129   6.130  0.5456 -1.1354 -0.5768
 4205TIP3   OH234173   5.600   0.827   0.480 -0.5817 -0.0287 -0.1651
 4205TIP3    H134174   5.686   0.784   0.482 -0.9752 -0.8033  0.8581
 4205TIP3    H234175   5.620   0.920   0.486  0.2440 -0.0979 -1.3649
 4206TIP3   OH234176   4.416   4.185   1.049  0.3878  0.1356  0.2821
 4206TIP3    H134177   4.431   4.174   0.955 -1.3306  0.8987 -0.1218
 4206TIP3    H234178   4.322   4.170   1.060  0.1505  2.1932  1.5101
 4207TIP3   OH234179   1.327   3.512   0.106  0.2606  0.5963  0.5116
 4207TIP3    H134180   1.332   3.474   0.018  0.9664  1.9677 -0.0760
 4207TIP3    H234181   1.234   3.505   0.129 -0.0451  0.7287 -0.5890
 4208TIP3   OH234182   1.580   1.994   8.272 -0.7464  0.2093 -0.2562
 4208TIP3    H134183   1.536   1.909   8.275 -0.1105 -0.0953  1.7911
 4208TIP3    H234184   1.640   1.992   8.346  1.9656  1.0332 -2.2995
 4209TIP3   OH234185   4.961   4.264   7.160 -0.5745 -0.3155  0.6188
 4209TIP3    H134186   4.866   4.256   7.171 -0.4367 -0.9003  1.4144
 4209TIP3    H234187   4.997   4.183   7.195  0.2131 -0.1980  0.1143
 4210TIP3   OH234188   1.902   6.712   7.857 -0.3062  0.1110 -0.2907
 4210TIP3    H134189   1.919   6.722   7.763  0.3854  1.2866 -0.0576
 4210TIP3    H234190   1.865   6.624   7.865 -1.3450  0.3530 -1.8021
 4211TIP3   OH234191   3.384   5.334   8.122 -0.0132  0.7709 -0.8301
 4211TIP3    H134192   3.446   5.407   8.123  1.4267 -0.3961 -1.0026
 4211TIP3    H234193   3.359   5.326   8.030 -2.5854  2.9232 -0.4296
 4212TIP3   OH234194   5.118   6.110   1.164 -0.0297 -0.0011  0.5914
 4212TIP3    H134195   5.115   6.016   1.143  2.0731  0.0229 -0.0695
 4212TIP3    H234196   5.209   6.135   1.147 -0.4438  2.0753  1.1917
 4213TIP3   OH234197   2.448   0.150   6.544  0.4626  0.5177  0.2590
 4213TIP3    H134198   2.530   0.107   6.569  0.9697  0.2322 -1.7587
 4213TIP3    H234199   2.387   0.078   6.530 -0.7111  0.7683  3.3380
 4214TIP3   OH234200   4.399   6.839   8.108 -0.3487  0.2713 -0.0774
 4214TIP3    H134201   4.410   6.744   8.118 -0.4850  0.3281  0.6309
 4214TIP3    H234202   4.384   6.871   8.197 -0.8521  0.8861 -0.3783
 4215TIP3   OH234203   2.096   0.821   7.895  0.1591  0.3509 -0.5295
 4215TIP3    H134204   2.106   0.728   7.916  0.6307  0.2312 -1.2561
 4215TIP3    H234205   2.179   0.860   7.923  0.0591  0.5141 -0.4588
 4216TIP3   OH234206   3.927   2.283   7.534  0.2945 -0.4849 -0.0475
 4216TIP3    H134207   3.993   2.334   7.487  0.1104 -1.6870 -1.6696
 4216TIP3    H234208   3.889   2.226   7.468  0.3606 -2.6170  1.6410
 4217TIP3   OH234209   5.477   3.783   0.299 -0.0733 -0.5952 -0.4023
 4217TIP3    H134210   5.484   3.854   0.235 -0.0624  0.1981  0.4570
 4217TIP3    H234211   5.549   3.798   0.360  0.6756 -2.0623 -0.8742
 4218TIP3   OH234212   3.222   1.050   1.417 -0.3228 -0.2303  0.4807
 4218TIP3    H134213   3.288   1.119   1.427 -0.1267 -0.3876  0.2901
 4218TIP3    H234214   3.154   1.089   1.363 -0.6606  0.1227  1.1534
 4219TIP3   OH234215   4.464   5.905   7.218 -0.1955  0.0937  0.9907
 4219TIP3    H134216   4.467   5.817   7.180 -0.5833  0.0866  0.9727
 4219TIP3    H234217   4.512   5.959   7.156 -1.2224  0.1707  0.2334
 4220TIP3   OH234218   1.693   2.478   1.913 -0.4374 -0.0168 -0.4857
 4220TIP3    H134219   1.604   2.449   1.893 -0.4325 -1.1663  0.9600
 4220TIP3    H234220   1.735   2.401   1.951  0.5454  1.0510  0.7047
 4221TIP3   OH234221   0.852   3.033   7.242 -0.2021  0.3956 -0.6237
 4221TIP3    H134222   0.879   2.986   7.163 -1.4084 -2.2613  0.4371
 4221TIP3    H234223   0.826   3.119   7.210 -2.4450 -1.1692 -3.5149
 4222TIP3   OH234224   5.343   4.314   1.221  0.3247  0.0346  0.5821
 4222TIP3    H134225   5.290   4.260   1.279 -0.3972 -1.0305 -1.0054
 4222TIP3    H234226   5.323   4.404   1.248 -1.0864 -0.3907  1.0511
 4223TIP3   OH234227   3.642   0.657   1.861 -0.3641 -0.2809 -0.5099
 4223TIP3    H134228   3.568   0.712   1.885 -1.0139 -0.3700 -2.2014
 4223TIP3    H234229   3.617   0.569   1.891  0.0028  0.0474  0.8086
 4224TIP3   OH234230   3.989   7.020   6.769  0.4416  0.4341 -0.5250
 4224TIP3    H134231   3.964   6.996   6.680 -0.2217 -0.9139 -0.0123
 4224TIP3    H234232   4.054   7.089   6.759  0.6714  0.0170 -2.0589
 4225TIP3   OH234233   5.903   0.763   7.851 -0.7878 -0.9772 -0.0027
 4225TIP3    H134234   5.982   0.725   7.812 -0.1792  2.3506 -2.5227
 4225TIP3    H234235   5.935   0.816   7.923 -1.2936 -2.6931  1.5611
 4226TIP3   OH234236   0.968   6.728   0.779  0.2402  0.0891  0.4342
 4226TIP3    H134237   1.010   6.742   0.863  2.2955 -1.9739 -0.1415
 4226TIP3    H234238   1.041   6.728   0.716 -1.2789  2.2162 -1.5059
 4227TIP3   OH234239   3.176   6.179   7.612  0.7444  0.4578  0.1568
 4227TIP3    H134240   3.264   6.147   7.631  1.2283  1.4120 -0.4190
 4227TIP3    H234241   3.162   6.251   7.674  0.1858  0.0196  0.5496
 4228TIP3   OH234242   3.479   2.986   7.692 -0.6342  0.3729 -0.6326
 4228TIP3    H134243   3.464   3.080   7.702 -0.9916  0.2327  0.1733
 4228TIP3    H234244   3.510   2.977   7.602  1.4021  1.5221 -0.1077
 4229TIP3   OH234245   6.971   2.357   6.635  0.7079  0.0386 -0.2412
 4229TIP3    H134246   6.956   2.356   6.541  1.5333  0.7613 -0.3937
 4229TIP3    H234247   7.047   2.300   6.648  0.6060 -0.0461 -0.0203
 4230TIP3   OH234248   1.149   6.986   7.681 -0.0756 -0.4822 -0.0635
 4230TIP3    H134249   1.219   7.047   7.658  0.3533 -1.6090 -1.9777
 4230TIP3    H234250   1.194   6.914   7.725 -0.6438  0.7161  2.6658
 4231TIP3   OH234251   3.303   5.290   7.483 -1.6044  0.0159 -0.1969
 4231TIP3    H134252   3.302   5.222   7.416 -1.4695 -1.5553  1.3157
 4231TIP3    H234253   3.395   5.312   7.494 -1.4911 -0.6560  0.3198
 4232TIP3   OH234254   3.621   4.689   6.101 -0.2764 -0.4580  0.5347
 4232TIP3    H134255   3.692   4.746   6.132  1.0246 -0.6983 -1.7240
 4232TIP3    H234256   3.598   4.725   6.015 -2.5208 -0.7636  0.9553
 4233TIP3   OH234257   1.513   1.534   8.151  0.5825  0.4921  0.0078
 4233TIP3    H134258   1.517   1.534   8.055 -2.3041 -1.7819 -0.2366
 4233TIP3    H234259   1.453   1.605   8.173  1.0626  0.8638  0.1256
 4234TIP3   OH234260   4.482   2.968   6.621 -0.4749 -0.3812  0.5051
 4234TIP3    H134261   4.563   2.939   6.579 -0.2951 -1.0434  1.2806
 4234TIP3    H234262   4.413   2.925   6.570 -0.6161  2.7509 -2.2701
 4235TIP3   OH234263   0.420   7.054   7.043 -0.0946  0.6223 -0.3331
 4235TIP3    H134264   0.480   7.026   6.974  0.5855  1.9497 -0.3259
 4235TIP3    H234265   0.430   6.989   7.112 -0.3635 -0.4132 -1.2363
 4236TIP3   OH234266   1.771   1.504   1.798 -0.3266 -0.0746  0.5008
 4236TIP3    H134267   1.709   1.524   1.867  0.4656  0.2044  1.1485
 4236TIP3    H234268   1.854   1.490   1.843  0.0701 -0.5444 -0.3327
 4237TIP3   OH234269   4.493   0.987   6.539  0.5052 -0.2992 -0.3049
 4237TIP3    H134270   4.497   1.059   6.601 -1.2157 -1.4040  1.2040
 4237TIP3    H234271   4.582   0.954   6.533  1.2828  1.7442 -0.8512
 4238TIP3   OH234272   0.614   4.816   0.358  0.5236  0.1602  0.0575
 4238TIP3    H134273   0.693   4.868   0.370  1.0116 -0.8642  1.5732
 4238TIP3    H234274   0.565   4.828   0.440 -0.1916 -0.3627 -0.2815
 4239TIP3   OH234275   6.455   0.564   1.184  0.3185  0.4246 -0.2730
 4239TIP3    H134276   6.546   0.556   1.158  0.4295  0.1789  0.1846
 4239TIP3    H234277   6.453   0.638   1.245  0.0405  1.0679 -1.0321
 4240TIP3   OH234278   0.141   4.095   6.317 -0.4715 -0.0679  0.0985
 4240TIP3    H134279   0.128   4.022   6.377  0.1988 -1.3144 -1.2082
 4240TIP3    H234280   0.229   4.127   6.335 -0.3637 -0.2815 -0.0455
 4241TIP3   OH234281   1.715   3.664   0.970  0.1091 -0.5205  0.9752
 4241TIP3    H134282   1.672   3.746   0.995  0.1162 -0.2315  0.0729
 4241TIP3    H234283   1.797   3.664   1.021  0.5253  0.4643  0.3481
 4242TIP3   OH234284   2.247   0.859   0.196  0.1751  0.3954 -0.1084
 4242TIP3    H134285   2.153   0.839   0.200 -0.0189  1.3615  0.2526
 4242TIP3    H234286   2.253   0.934   0.137  0.8973 -0.6115 -1.3805
 4243TIP3   OH234287   4.341   2.895   6.142  0.4334 -0.7872  0.7171
 4243TIP3    H134288   4.333   2.978   6.095  2.2029 -0.3249  1.1809
 4243TIP3    H234289   4.407   2.911   6.209 -0.1170 -2.2157  1.6527
 4244TIP3   OH234290   2.657   3.807   7.870 -0.7613 -0.0967 -0.2299
 4244TIP3    H134291   2.595   3.788   7.800 -0.0801 -1.3642 -0.5103
 4244TIP3    H234292   2.659   3.727   7.922 -0.1628  0.3228  0.4052
 4245TIP3   OH234293   2.836   1.112   1.962 -0.1011  0.1016  0.2267
 4245TIP3    H134294   2.893   1.143   2.032 -0.2009 -0.1154  0.4059
 4245TIP3    H234295   2.783   1.044   2.003 -1.3547  1.1453  0.3881
 4246TIP3   OH234296   1.770   4.896   0.401 -0.0494  0.4483 -0.2191
 4246TIP3    H134297   1.854   4.936   0.420  2.1516 -3.7582 -0.0490
 4246TIP3    H234298   1.722   4.899   0.484  0.1402  2.2321 -0.1357
 4247TIP3   OH234299   0.782   6.147   0.021 -0.4673 -0.2654  0.0015
 4247TIP3    H134300   0.860   6.200   0.010 -0.5279 -0.2227 -0.2145
 4247TIP3    H234301   0.765   6.110  -0.066 -0.5396 -0.4790  0.1048
 4248TIP3   OH234302   1.294   1.545   7.642  0.5824 -0.0432 -0.3499
 4248TIP3    H134303   1.290   1.558   7.547  2.3382 -2.1538 -0.8022
 4248TIP3    H234304   1.279   1.452   7.654 -1.7507  0.4977  1.7155
 4249TIP3   OH234305   5.778   0.164   0.963 -0.2965  0.7663  0.0424
 4249TIP3    H134306   5.693   0.200   0.939 -0.1734 -0.1950 -2.0122
 4249TIP3    H234307   5.781   0.078   0.920  1.9572  1.0458 -0.4895
 4250TIP3   OH234308   6.780   2.406   1.830 -0.1895 -0.0145  0.3437
 4250TIP3    H134309   6.709   2.424   1.769 -1.5184  2.4804  2.4250
 4250TIP3    H234310   6.742   2.420   1.916  2.4988  0.1572  1.6202
 4251TIP3   OH234311   3.433   0.697   6.571 -0.1501 -0.6948  0.1781
 4251TIP3    H134312   3.508   0.703   6.630 -0.8998 -0.1533  1.1001
 4251TIP3    H234313   3.378   0.629   6.610 -1.4154  0.7508  1.0267
 4252TIP3   OH234314   3.674   5.629   0.492  0.3861 -0.0490  0.4576
 4252TIP3    H134315   3.741   5.686   0.454 -0.2840  0.3732 -0.1012
 4252TIP3    H234316   3.674   5.552   0.435  0.3089 -0.0009  0.3942
 4253TIP3   OH234317   3.136   5.889   8.270  0.3216 -0.8973  0.7546
 4253TIP3    H134318   3.178   5.975   8.277  0.2458 -0.7719 -0.1922
 4253TIP3    H234319   3.124   5.876   8.176  0.6874 -2.1238  0.8590
 4254TIP3   OH234320   4.309   7.025   7.674 -0.0809 -0.0217  0.2179
 4254TIP3    H134321   4.273   7.015   7.586 -0.3495 -0.4018  0.3714
 4254TIP3    H234322   4.269   6.955   7.725  0.9893 -0.5541  0.3573
 4255TIP3   OH234323   2.253   0.191   0.001  0.4734 -0.3295 -0.0102
 4255TIP3    H134324   2.225   0.229   0.084  0.3208 -0.2304 -0.1068
 4255TIP3    H234325   2.289   0.105   0.025  2.8123  0.7076  0.4837
 4256TIP3   OH234326   4.335   3.247   1.681  0.3142  0.3138  0.3585
 4256TIP3    H134327   4.345   3.303   1.758 -0.8546  0.8712  0.1270
 4256TIP3    H234328   4.241   3.233   1.674  0.5194 -0.9820 -0.1035
 4257TIP3   OH234329   4.079   3.982   7.047  0.2945  0.6537 -0.4106
 4257TIP3    H134330   4.097   3.979   7.141  0.5055 -1.0510 -0.4643
 4257TIP3    H234331   4.006   4.043   7.038  0.2061  0.7586  0.8724
 4258TIP3   OH234332   1.124   3.043   7.908 -0.1191 -0.5560  0.2406
 4258TIP3    H134333   1.119   2.949   7.889 -4.3792 -0.8504  1.8387
 4258TIP3    H234334   1.039   3.077   7.880  0.7923  2.5794  0.9899
 4259TIP3   OH234335   3.428   6.581   8.182  0.1748  0.7423 -0.2335
 4259TIP3    H134336   3.372   6.558   8.257 -1.1923 -1.4830 -1.8306
 4259TIP3    H234337   3.446   6.675   8.194  0.4844  0.3874  3.1324
 4260TIP3   OH234338   3.533   1.219   8.215 -0.0726 -0.0384 -0.2639
 4260TIP3    H134339   3.601   1.279   8.244 -0.3361 -0.5860  1.6622
 4260TIP3    H234340   3.570   1.175   8.138  1.3234  0.4321  0.1098
 4261TIP3   OH234341   0.106   6.364   7.764 -0.2949  0.1337  0.9310
 4261TIP3    H134342   0.150   6.405   7.838 -1.2063  2.4660  0.2615
 4261TIP3    H234343   0.045   6.430   7.732  0.5617 -0.4691 -2.3475
 4262TIP3   OH234344   6.863   1.592   7.887 -0.2610  0.4960  0.4487
 4262TIP3    H134345   6.917   1.518   7.862  0.8131  1.5040 -0.3413
 4262TIP3    H234346   6.779   1.576   7.844 -0.0599 -0.2808  0.3288
 4263TIP3   OH234347   1.103   3.256   0.884  0.3848  0.2290  0.0456
 4263TIP3    H134348   1.149   3.326   0.929  0.7648 -0.0462  0.0874
 4263TIP3    H234349   1.096   3.186   0.950 -0.8369  0.5783  0.3160
 4264TIP3   OH234350   4.969   1.680   7.164 -0.8464  0.1868 -0.2092
 4264TIP3    H134351   5.038   1.734   7.126 -1.4144 -0.3251 -2.1080
 4264TIP3    H234352   4.991   1.591   7.137 -0.4703 -0.4367  2.0272
 4265TIP3   OH234353   3.680   1.799   7.263 -0.3928 -0.0330  0.3981
 4265TIP3    H134354   3.599   1.784   7.214  0.7024 -1.0630 -1.1812
 4265TIP3    H234355   3.662   1.764   7.350 -0.7209 -3.0868 -0.7672
 4266TIP3   OH234356   3.122   1.908   7.861 -0.1963 -0.0856 -0.1108
 4266TIP3    H134357   3.104   1.868   7.777 -0.8100  0.0573 -0.0472
 4266TIP3    H234358   3.100   1.840   7.925  1.1950 -0.5540 -0.0772
 4267TIP3   OH234359   3.745   0.521   1.098  0.3846 -0.3733  0.3118
 4267TIP3    H134360   3.791   0.457   1.044  1.7191 -0.7769  1.8176
 4267TIP3    H234361   3.781   0.606   1.071 -1.3982 -0.1724 -1.6978
 4268TIP3   OH234362   3.345   0.456   7.748 -0.2569  0.2802 -0.0513
 4268TIP3    H134363   3.404   0.489   7.815 -1.4024  1.5520  0.3764
 4268TIP3    H234364   3.394   0.464   7.666  0.2095  1.1699  0.3105
 4269TIP3   OH234365   1.822   2.269   6.522  0.5681  0.1736 -0.3136
 4269TIP3    H134366   1.884   2.342   6.510 -1.0196  1.9448  1.5331
 4269TIP3    H234367   1.736   2.309   6.507 -0.4915 -0.7951  2.6066
 4270TIP3   OH234368   5.265   4.199   0.028  0.3238  0.2217 -0.1575
 4270TIP3    H134369   5.230   4.239  -0.051 -1.8126  2.5191  1.7832
 4270TIP3    H234370   5.203   4.129   0.049 -0.5913  1.2627  0.7657
 4271TIP3   OH234371   6.894   6.957   6.502  0.9159  0.1052 -0.4341
 4271TIP3    H134372   6.843   6.983   6.425  1.8052  1.6433 -0.5368
 4271TIP3    H234373   6.893   7.034   6.558 -0.8854 -1.4260  1.8008
 4272TIP3   OH234374   0.599   2.730   1.229 -0.0921 -0.3717 -0.3808
 4272TIP3    H134375   0.589   2.635   1.220  2.9018 -0.6211 -2.9507
 4272TIP3    H234376   0.618   2.743   1.322 -1.3288 -2.1536  0.1782
 4273TIP3   OH234377   1.927   5.049   7.392  0.0194 -0.2366 -0.4963
 4273TIP3    H134378   1.837   5.016   7.391 -1.0282  2.3765 -2.3594
 4273TIP3    H234379   1.977   4.979   7.435 -2.7599 -2.0300  0.1097
 4274TIP3   OH234380   6.720   0.389   7.132 -0.2495 -0.2269 -0.8424
 4274TIP3    H134381   6.750   0.328   7.065  0.8156 -0.5087 -0.1418
 4274TIP3    H234382   6.775   0.467   7.120  0.8208 -0.7499  0.4653
 4275TIP3   OH234383   5.157   2.756   7.990 -0.2533  0.5213 -0.2036
 4275TIP3    H134384   5.085   2.818   7.993 -0.1590  0.6097  0.6466
 4275TIP3    H234385   5.206   2.772   8.071 -1.7680 -2.4803  1.4876
 4276TIP3   OH234386   2.994   6.312   0.466  0.6499  0.6735  0.1443
 4276TIP3    H134387   2.990   6.407   0.466 -1.4825  0.6187 -0.2944
 4276TIP3    H234388   3.044   6.290   0.387  3.4405  1.3950  1.5530
 4277TIP3   OH234389   3.802   1.135   7.525  0.1436 -0.0848 -0.0138
 4277TIP3    H134390   3.796   1.209   7.465  0.1687  0.7134  0.9505
 4277TIP3    H234391   3.745   1.158   7.599  0.6977 -0.7065  0.6273
 4278TIP3   OH234392   1.221   5.113   0.244 -0.1484  0.2203 -0.2033
 4278TIP3    H134393   1.190   5.170   0.314  0.6338  1.5306 -0.8893
 4278TIP3    H234394   1.186   5.151   0.164 -0.1108 -0.6195 -0.6274
 4279TIP3   OH234395   2.079   3.984   0.747 -0.7530  0.5406  0.3284
 4279TIP3    H134396   2.129   4.064   0.761  1.8559 -1.4240  3.7989
 4279TIP3    H234397   2.102   3.957   0.658  1.3133  1.7529  0.4309
 4280TIP3   OH234398   2.838   3.417   8.026 -0.2187  0.0998 -0.0545
 4280TIP3    H134399   2.925   3.408   7.986  0.0505 -2.4854  0.9114
 4280TIP3    H234400   2.855   3.424   8.119 -1.0381 -2.2405  0.3297
 4281TIP3   OH234401   6.113   0.848   0.029  0.1474  0.0803 -0.3959
 4281TIP3    H134402   6.069   0.919  -0.018  0.8048  1.9594  1.6674
 4281TIP3    H234403   6.063   0.770   0.007 -1.2327  1.3315 -1.9447
 4282TIP3   OH234404   6.784   5.438   2.601  0.1709 -0.4243 -0.4229
 4282TIP3    H134405   6.693   5.459   2.621 -0.2703 -2.5180 -0.0402
 4282TIP3    H234406   6.779   5.370   2.534  1.4288 -1.0314  0.0639
 4283TIP3   OH234407   5.775   0.475   6.914  0.1250 -0.0315 -0.4925
 4283TIP3    H134408   5.824   0.502   6.837  0.2042  1.4891  0.0727
 4283TIP3    H234409   5.711   0.544   6.928 -0.6354 -0.8446  0.1508
 4284TIP3   OH234410   3.082   0.648   0.909  0.3097 -0.4383 -0.1704
 4284TIP3    H134411   3.134   0.692   0.976  1.3197 -1.6086 -0.1560
 4284TIP3    H234412   3.144   0.626   0.840 -0.2722 -1.3076 -0.4401
 4285TIP3   OH234413   4.299   2.123   0.958 -0.3914 -0.2023  0.4865
 4285TIP3    H134414   4.318   2.047   1.014 -0.4391 -0.1563  0.5655
 4285TIP3    H234415   4.360   2.114   0.884  0.4924  0.3538  1.1210
 4286TIP3   OH234416   1.056   1.507   0.440  0.3903  0.0805 -0.0273
 4286TIP3    H134417   1.114   1.496   0.515 -0.0293  1.6934  0.5660
 4286TIP3    H234418   0.969   1.487   0.474  0.3862 -0.8181 -0.5291
 4287TIP3   OH234419   1.067   0.304   6.579  0.7428  0.1624 -0.2862
 4287TIP3    H134420   1.052   0.325   6.486 -2.3987 -2.7068 -0.6127
 4287TIP3    H234421   0.991   0.341   6.624  0.8674 -0.7655  0.7225
 4288TIP3   OH234422   0.782   3.449   0.208 -0.7331  0.2893  0.3132
 4288TIP3    H134423   0.740   3.517   0.156 -1.0895  1.5323  2.1468
 4288TIP3    H234424   0.710   3.406   0.254 -0.3406 -0.0924  0.5787
 4289TIP3   OH234425   4.600   5.529   0.189  0.7047 -0.0585  0.2666
 4289TIP3    H134426   4.622   5.541   0.097  0.5585  0.7700  0.3325
 4289TIP3    H234427   4.522   5.474   0.188  0.5159  0.2143 -0.1190
 4290TIP3   OH234428   5.282   2.788   0.178  0.0861 -0.5881  0.2078
 4290TIP3    H134429   5.249   2.835   0.101 -1.6423 -0.3074  1.0840
 4290TIP3    H234430   5.329   2.713   0.141  1.1999  0.7016 -1.1599
 4291TIP3   OH234431   4.140   4.333   1.010  0.0630 -0.3593  0.3855
 4291TIP3    H134432   4.118   4.266   1.074 -1.3162 -0.9914 -0.6866
 4291TIP3    H234433   4.146   4.414   1.061  0.4497 -1.0673  1.5017
 4292TIP3   OH234434   2.410   0.516   7.429  0.1345  0.4759 -0.0373
 4292TIP3    H134435   2.315   0.512   7.422  0.1213  1.1093 -0.3158
 4292TIP3    H234436   2.429   0.492   7.520 -0.1963 -0.8583 -0.2945
 4293TIP3   OH234437   0.219   4.375   1.306  0.1044 -0.4569  0.0164
 4293TIP3    H134438   0.232   4.414   1.392  2.4417  2.0293 -1.2997
 4293TIP3    H234439   0.291   4.313   1.296  0.4928  0.0591 -0.5027
 4294TIP3   OH234440   5.957   4.663   7.374  0.1909  0.1856 -0.3289
 4294TIP3    H134441   6.018   4.642   7.303 -1.1684  3.1495 -2.6096
 4294TIP3    H234442   5.994   4.742   7.415 -1.4124  1.3202 -0.9639
 4295TIP3   OH234443   4.823   6.701   8.142  0.0894  0.1945  0.2995
 4295TIP3    H134444   4.888   6.743   8.198 -0.1219  0.8411  0.0578
 4295TIP3    H234445   4.868   6.687   8.059 -0.6133  2.3575 -0.5117
 4296TIP3   OH234446   3.630   0.505   0.740 -0.7518  1.0934  0.2543
 4296TIP3    H134447   3.685   0.577   0.772 -0.6744  1.6274 -1.0484
 4296TIP3    H234448   3.603   0.532   0.653  0.8131 -1.2472 -1.0681
 4297TIP3   OH234449   4.205   2.722   7.132 -0.1844 -0.2194 -0.3154
 4297TIP3    H134450   4.253   2.705   7.051  0.8743  0.7963  0.0817
 4297TIP3    H234451   4.152   2.643   7.145  1.2708 -1.3155 -0.8376
 4298TIP3   OH234452   6.002   7.029   6.285 -0.5593 -0.3196  0.2166
 4298TIP3    H134453   5.925   7.031   6.229 -0.3681 -0.5992 -0.0615
 4298TIP3    H234454   6.076   7.027   6.224 -0.3314  0.0122  0.4816
 4299TIP3   OH234455   0.680   4.479   7.406  0.2636 -0.7842  0.1385
 4299TIP3    H134456   0.644   4.524   7.483  2.0396  0.1179  0.5130
 4299TIP3    H234457   0.771   4.462   7.430  0.7211 -0.9350 -1.5943
 4300TIP3   OH234458   5.066   3.968   1.379 -0.2028  0.5486  0.2608
 4300TIP3    H134459   5.089   3.941   1.290  0.7647  0.1490  0.6130
 4300TIP3    H234460   5.057   3.886   1.427  1.5718  0.7677  1.0610
 4301TIP3   OH234461   3.758   0.709   7.559 -0.3394  0.3158 -0.2961
 4301TIP3    H134462   3.780   0.794   7.599 -0.0240  0.3209 -0.4823
 4301TIP3    H234463   3.841   0.674   7.529 -0.2260 -0.7657  1.1391
 4302TIP3   OH234464   1.106   7.024   7.168  0.8811 -0.1099  0.0352
 4302TIP3    H134465   1.115   7.119   7.173 -0.7841  0.0531  0.3890
 4302TIP3    H234466   1.036   7.009   7.104  1.4871 -1.1291 -0.4175
 4303TIP3   OH234467   4.457   4.043   0.269 -0.4127 -0.1264 -0.2536
 4303TIP3    H134468   4.464   3.977   0.338 -0.6056  0.3126  0.1952
 4303TIP3    H234469   4.406   4.114   0.309  1.9141  1.4245  0.1493
 4304TIP3   OH234470   5.666   3.463   0.823 -0.3504  0.3987 -0.7700
 4304TIP3    H134471   5.688   3.416   0.743  0.0998  0.4521 -0.6755
 4304TIP3    H234472   5.738   3.524   0.837 -0.6989  0.7866 -0.6294
 4305TIP3   OH234473   4.671   1.487   0.012  0.3534 -0.5755 -0.1583
 4305TIP3    H134474   4.620   1.468   0.090 -0.9058  0.9542 -0.5617
 4305TIP3    H234475   4.725   1.409  -0.001  0.4789 -0.9358  2.1121
 4306TIP3   OH234476   3.040   5.109   6.883 -0.3923  0.4224 -0.4652
 4306TIP3    H134477   3.048   5.191   6.931 -0.3371  0.8978 -1.2745
 4306TIP3    H234478   2.946   5.098   6.869 -0.2947  1.2439 -1.8666
 4307TIP3   OH234479   2.833   3.481   0.391  0.5216  0.0610  0.2072
 4307TIP3    H134480   2.908   3.432   0.425 -0.1784  0.5689  2.6880
 4307TIP3    H234481   2.767   3.413   0.376  0.8102 -0.1726 -0.0219
 4308TIP3   OH234482   1.375   0.532   7.041  0.1776  0.0290  0.1571
 4308TIP3    H134483   1.376   0.627   7.053  1.5643 -0.0271  0.5413
 4308TIP3    H234484   1.418   0.496   7.118 -1.3305 -1.0047  0.5712
 4309TIP3   OH234485   1.839   4.749   8.251  0.4796  0.2915  0.2022
 4309TIP3    H134486   1.805   4.836   8.227 -1.6472 -0.1506  1.3400
 4309TIP3    H234487   1.788   4.688   8.199 -0.0471 -0.3761  1.4501
 4310TIP3   OH234488   2.537   1.161   7.935  0.6627 -0.7433 -0.7628
 4310TIP3    H134489   2.513   1.244   7.977  1.5569  0.2129 -2.0748
 4310TIP3    H234490   2.612   1.129   7.986  1.4620  0.1884 -1.3223
 4311TIP3   OH234491   5.779   2.314   0.551 -0.0918  0.5787  0.7645
 4311TIP3    H134492   5.857   2.367   0.566  0.1165  0.6231 -0.4154
 4311TIP3    H234493   5.811   2.232   0.514 -0.6619  1.1265 -1.0493
 4312TIP3   OH234494   2.404   5.314   5.720 -0.0764 -0.3235  0.0315
 4312TIP3    H134495   2.309   5.313   5.729 -0.1997 -1.4641 -1.1626
 4312TIP3    H234496   2.427   5.407   5.717 -1.1570 -0.0380  0.1521
 4313TIP3   OH234497   5.274   6.751   8.084  0.4251  0.1872  0.5750
 4313TIP3    H134498   5.337   6.794   8.142 -1.1816  1.1635  1.6889
 4313TIP3    H234499   5.195   6.742   8.137 -1.9197  3.1841 -1.9743
 4314TIP3   OH234500   5.917   0.952   6.648 -0.2633  0.6542  0.3609
 4314TIP3    H134501   5.889   0.978   6.560  0.1673 -1.0057 -0.3146
 4314TIP3    H234502   6.008   0.924   6.637  0.4992  2.3710  1.7801
 4315TIP3   OH234503   7.051   6.686   6.720 -0.0592  0.4657  0.3078
 4315TIP3    H134504   6.957   6.666   6.716  0.5708 -2.8655 -0.3170
 4315TIP3    H234505   7.086   6.654   6.637  1.6634  1.7922  0.4648
 4316TIP3   OH234506   5.683   1.262   7.961  0.3260 -0.3446 -0.2330
 4316TIP3    H134507   5.687   1.297   8.050 -0.0527 -2.2228  0.5731
 4316TIP3    H234508   5.620   1.191   7.966  1.1542 -1.2418 -1.7487
 4317TIP3   OH234509   6.487   0.278   0.317  0.0698  0.4920 -0.1707
 4317TIP3    H134510   6.566   0.244   0.359  1.2078  1.1712 -1.6484
 4317TIP3    H234511   6.425   0.205   0.320  1.1359 -0.4381  0.0583
 4318TIP3   OH234512   2.318   0.476   6.514  0.0160 -0.0668 -0.4304
 4318TIP3    H134513   2.367   0.456   6.434  0.1430 -0.6029 -0.2277
 4318TIP3    H234514   2.236   0.515   6.484 -0.0861 -0.5895 -0.8381
 4319TIP3   OH234515   5.713   6.340   8.063 -0.4310 -0.0824 -0.4802
 4319TIP3    H134516   5.706   6.308   8.153  0.9158 -0.6288 -0.5468
 4319TIP3    H234517   5.623   6.337   8.030 -1.2022  1.5313  1.2771
 4320TIP3   OH234518   1.283   5.533   0.020 -0.3548 -0.0486  0.6214
 4320TIP3    H134519   1.308   5.520  -0.072  1.7148 -0.2111  1.1549
 4320TIP3    H234520   1.288   5.627   0.034  4.6753 -0.1624  1.7695
 4321TIP3   OH234521   1.274   2.400   0.909 -0.8048 -0.1306 -0.3415
 4321TIP3    H134522   1.322   2.413   0.991 -0.0624  2.1446 -1.0674
 4321TIP3    H234523   1.333   2.350   0.853 -0.1444  0.7456 -0.4498
 4322TIP3   OH234524   5.918   3.682   1.775  0.5619  0.0025  0.1660
 4322TIP3    H134525   5.933   3.596   1.814 -2.0990  0.1044  1.6758
 4322TIP3    H234526   5.887   3.736   1.847  1.4223  2.0692 -0.9050
 4323TIP3   OH234527   6.020   6.394   1.239  0.8434  0.5612 -1.0144
 4323TIP3    H134528   6.019   6.468   1.179  0.4522  0.1613 -1.5133
 4323TIP3    H234529   5.929   6.382   1.265  0.8539  0.0262 -1.2207
 4324TIP3   OH234530   3.618   2.610   0.062 -0.0451  0.7161 -0.3376
 4324TIP3    H134531   3.696   2.629   0.115  1.8290  1.9134 -3.2385
 4324TIP3    H234532   3.575   2.694   0.050  0.9458  0.9888 -2.5611
 4325TIP3   OH234533   1.123   1.726   7.791  0.5113  0.3071 -0.4319
 4325TIP3    H134534   1.168   1.792   7.845 -0.5819  2.2442 -1.7480
 4325TIP3    H234535   1.191   1.665   7.765  1.6258  1.0382  0.6675
 4326TIP3   OH234536   5.982   3.581   2.297  0.0748  0.0763  0.5909
 4326TIP3    H134537   5.941   3.604   2.380  1.0695  0.2442  1.0564
 4326TIP3    H234538   5.984   3.663   2.247  1.3239  0.4777  1.2401
 4327TIP3   OH234539   1.435   0.091   8.028 -0.2014  0.1306  0.0890
 4327TIP3    H134540   1.386   0.147   7.968  1.7789  0.3921 -1.3816
 4327TIP3    H234541   1.375   0.077   8.102 -1.6620  2.1792 -0.6055
 4328TIP3   OH234542   1.003   5.182   6.391  0.4421 -0.4262 -0.7514
 4328TIP3    H134543   0.953   5.246   6.341  1.1072 -0.1540 -1.0899
 4328TIP3    H234544   1.073   5.154   6.331  1.0559 -0.3433 -0.0958
 4329TIP3   OH234545   2.441   0.008   0.881  0.4733  0.0364 -0.1290
 4329TIP3    H134546   2.447  -0.060   0.948 -1.3855 -0.5150 -0.4784
 4329TIP3    H234547   2.461   0.089   0.928 -3.7031  0.1074  1.9482
 4330TIP3   OH234548   4.707   2.018   2.317 -0.1278 -0.3844 -0.6746
 4330TIP3    H134549   4.711   1.924   2.336 -0.9144  0.0080  1.8569
 4330TIP3    H234550   4.615   2.041   2.328  0.3953  1.0617  1.1949
 4331TIP3   OH234551   4.010   1.359   8.150  0.0265 -0.1502 -0.5091
 4331TIP3    H134552   3.938   1.409   8.110 -0.0860 -0.0863 -0.2280
 4331TIP3    H234553   4.074   1.426   8.176  0.5447 -0.2627 -1.4631
 4332TIP3   OH234554   3.425   1.747   1.866  0.7150  0.7591 -0.3771
 4332TIP3    H134555   3.416   1.756   1.771  0.7462  1.4219 -0.3237
 4332TIP3    H234556   3.494   1.681   1.877 -0.3807 -0.5136 -0.7949
 4333TIP3   OH234557   0.351   3.081   1.598 -0.1141 -0.1120 -0.1841
 4333TIP3    H134558   0.419   3.137   1.560 -1.7408  2.6085  0.7187
 4333TIP3    H234559   0.327   3.123   1.680 -0.5463 -2.8867  1.2333
 4334TIP3   OH234560   3.098   1.600   1.137  0.1570  0.2219  0.1133
 4334TIP3    H134561   3.030   1.570   1.076  0.2685 -0.9515  0.5467
 4334TIP3    H234562   3.087   1.695   1.138  0.4083  0.3428 -2.0292
 4335TIP3   OH234563   0.978   0.567   2.072 -0.2264 -0.2069  0.2782
 4335TIP3    H134564   0.923   0.494   2.099 -0.1199  0.1064  1.3947
 4335TIP3    H234565   0.947   0.591   1.985 -1.3412 -0.5266  0.5837
 4336TIP3   OH234566   2.553   5.542   0.138  0.5269  0.2550  0.3453
 4336TIP3    H134567   2.504   5.478   0.086  2.2526 -0.2688 -0.7111
 4336TIP3    H234568   2.644   5.518   0.125  1.1154  1.5578  1.7878
 4337TIP3   OH234569   4.143   2.749   2.189 -0.3820 -0.2318  0.0407
 4337TIP3    H134570   4.049   2.766   2.182 -0.3385  0.5321  1.0891
 4337TIP3    H234571   4.182   2.834   2.208  0.6507 -0.3674 -1.2500
 4338TIP3   OH234572   1.374   0.697   7.410  0.5436  0.5062  0.0571
 4338TIP3    H134573   1.334   0.704   7.497  0.5001  0.9969 -0.0009
 4338TIP3    H234574   1.460   0.738   7.419  1.0775 -0.6043  0.1982
 4339TIP3   OH234575   2.071   2.771   7.238 -0.3380 -0.5520  0.0227
 4339TIP3    H134576   2.099   2.804   7.324  1.6005  1.0513 -1.1183
 4339TIP3    H234577   2.086   2.677   7.242  2.8466 -0.1509  0.4776
 4340TIP3   OH234578   1.599   4.448   7.601 -0.0113 -0.0589 -0.2621
 4340TIP3    H134579   1.637   4.368   7.637  2.8990  0.3534 -2.0621
 4340TIP3    H234580   1.597   4.433   7.506  0.3912  1.8839 -0.6253
 4341TIP3   OH234581   5.889   6.186   0.856  0.2589 -0.0161 -0.1019
 4341TIP3    H134582   5.866   6.234   0.776  0.1829  2.1084  1.1560
 4341TIP3    H234583   5.805   6.160   0.893  0.1077  1.9290  1.0031
 4342TIP3   OH234584   2.166   2.048   8.215  0.0089  0.2752  0.0806
 4342TIP3    H134585   2.090   1.991   8.206  0.8974 -0.7487 -1.4330
 4342TIP3    H234586   2.180   2.084   8.127  2.6639 -1.4728 -0.3417
 4343TIP3   OH234587   2.451   6.498   8.032 -0.2444 -0.5174  0.2106
 4343TIP3    H134588   2.477   6.538   7.949 -1.7733 -0.7249 -0.3861
 4343TIP3    H234589   2.503   6.418   8.037  0.5090 -0.0614 -0.1102
 4344TIP3   OH234590   3.895   6.138   7.020  0.2927  0.3027 -0.1237
 4344TIP3    H134591   3.984   6.120   7.050  0.1863  0.0028  0.0109
 4344TIP3    H234592   3.894   6.109   6.929  0.0029 -0.7900  0.2085
 4345TIP3   OH234593   5.974   0.205   6.824 -0.6729 -0.5275  0.5448
 4345TIP3    H134594   5.905   0.246   6.876  0.6705 -0.0239  2.0399
 4345TIP3    H234595   6.001   0.129   6.875  0.2973 -0.3551  0.3105
 4346TIP3   OH234596   0.137   2.249   1.448  0.2184  0.3341  0.3292
 4346TIP3    H134597   0.207   2.195   1.484 -0.3490  0.0372  1.0251
 4346TIP3    H234598   0.077   2.186   1.408  0.1519  0.5523  0.0878
 4347TIP3   OH234599   3.976   4.275   1.692 -0.0676  0.0015 -0.3608
 4347TIP3    H134600   4.012   4.215   1.758  1.5260  0.2856 -0.9217
 4347TIP3    H234601   3.921   4.219   1.637  0.6273 -0.7678 -0.3035
 4348TIP3   OH234602   3.574   1.935   1.510  0.5434  0.6108 -0.2245
 4348TIP3    H134603   3.643   1.936   1.576  0.2145 -0.1734  0.1384
 4348TIP3    H234604   3.494   1.957   1.558  0.3064  0.0706 -0.3675
 4349TIP3   OH234605   2.096   5.973   6.037 -0.2733 -0.3154 -0.4673
 4349TIP3    H134606   2.093   6.067   6.056 -1.7425 -0.0751 -1.6769
 4349TIP3    H234607   2.067   5.932   6.119 -1.2388  0.3941 -0.4277
 4350TIP3   OH234608   3.759   5.989   1.121  0.1135 -0.4838  0.1672
 4350TIP3    H134609   3.834   5.934   1.096 -0.1202 -0.8006  0.1520
 4350TIP3    H234610   3.790   6.038   1.197 -0.3154 -2.1323  1.4694
 4351TIP3   OH234611   4.258   5.590   7.303  0.2213 -0.1398  0.1912
 4351TIP3    H134612   4.164   5.586   7.320  0.1282 -1.0991 -0.4794
 4351TIP3    H234613   4.297   5.601   7.390 -0.5277  0.8778  0.4180
 4352TIP3   OH234614   3.048   5.868   0.778 -0.2576 -0.0781 -0.3332
 4352TIP3    H134615   3.002   5.943   0.815  0.9255  0.7315 -0.4351
 4352TIP3    H234616   3.097   5.905   0.704  0.6275 -0.8761 -0.1653
 4353TIP3   OH234617   4.968   2.061   0.490  0.1009  0.7210  0.6321
 4353TIP3    H134618   4.982   2.141   0.439  0.8217  0.4188  0.3478
 4353TIP3    H234619   4.978   2.088   0.581  0.6009  0.8996  0.5243
 4354TIP3   OH234620   7.045   4.174   8.038 -0.1217 -0.0195 -0.0250
 4354TIP3    H134621   6.992   4.150   8.113 -0.6832  0.0839 -0.3855
 4354TIP3    H234622   6.983   4.205   7.973  0.4083  0.4171 -0.3339
 4355TIP3   OH234623   6.732   6.042   0.423 -0.0144  0.8115 -0.0119
 4355TIP3    H134624   6.721   5.950   0.447 -2.5179  1.1515  0.4018
 4355TIP3    H234625   6.753   6.039   0.330  2.5952 -0.2135  0.5043
 4356TIP3   OH234626   5.231   2.730   7.286  0.3499  0.3752 -0.4416
 4356TIP3    H134627   5.295   2.769   7.346 -0.6846 -0.0222  0.9848
 4356TIP3    H234628   5.158   2.791   7.285  0.4932  0.5597 -1.6407
 4357TIP3   OH234629   6.496   2.454   5.924 -0.4469 -0.1248 -0.7035
 4357TIP3    H134630   6.407   2.425   5.903 -0.0849 -0.3435 -2.0280
 4357TIP3    H234631   6.490   2.550   5.925 -0.6553 -0.1297 -1.0635
 4358TIP3   OH234632   2.437   4.450   7.337  1.1356 -0.5489 -0.1575
 4358TIP3    H134633   2.456   4.461   7.244 -1.4904  0.1181 -0.6903
 4358TIP3    H234634   2.511   4.491   7.381  2.5694 -1.1028 -1.9162
 4359TIP3   OH234635   1.404   5.682   1.236 -0.4866  1.0602 -0.5012
 4359TIP3    H134636   1.385   5.665   1.328  1.5417  0.3580 -0.1581
 4359TIP3    H234637   1.335   5.742   1.208 -3.1027 -1.1964  0.5524
 4360TIP3   OH234638   5.795   4.554   8.027  0.2112 -0.3579  0.0979
 4360TIP3    H134639   5.851   4.523   8.099  1.2021  0.9410 -0.0634
 4360TIP3    H234640   5.706   4.547   8.061  0.6655  0.2987  1.5078
 4361TIP3   OH234641   2.592   5.244   0.319  0.0479 -0.3200  0.1897
 4361TIP3    H134642   2.611   5.194   0.398 -0.5885  0.1252  0.6266
 4361TIP3    H234643   2.497   5.253   0.318  0.1443  0.9173  0.1485
 4362TIP3   OH234644   0.418   0.825   1.544  0.1019 -0.0286 -0.0219
 4362TIP3    H134645   0.417   0.734   1.574 -0.0283  0.2034  0.6888
 4362TIP3    H234646   0.492   0.829   1.483 -0.3289 -0.7776 -0.6052
 4363TIP3   OH234647   5.096   6.232   1.407  0.6445 -0.0779  0.2827
 4363TIP3    H134648   5.188   6.236   1.435  0.3741  0.5142  1.1649
 4363TIP3    H234649   5.099   6.210   1.315  1.6327 -1.3025  0.5886
 4364TIP3   OH234650   3.644   4.928   0.331  0.1277  0.3014  0.0467
 4364TIP3    H134651   3.561   4.893   0.299 -0.1159  1.0832 -0.2007
 4364TIP3    H234652   3.711   4.873   0.288 -0.2535 -0.3561  0.2814
 4365TIP3   OH234653   3.417   5.967   0.415  0.2525 -0.5355 -0.3176
 4365TIP3    H134654   3.489   5.935   0.360  1.4408  1.2195  0.1368
 4365TIP3    H234655   3.428   5.921   0.498  1.9708  0.9273  0.3427
 4366TIP3   OH234656   4.735   4.085   8.184  0.6129  0.2520  0.0853
 4366TIP3    H134657   4.648   4.067   8.147  1.0502  1.0439 -1.4044
 4366TIP3    H234658   4.717   4.124   8.269 -0.4244 -2.2888  1.1384
 4367TIP3   OH234659   3.673   4.504   0.905 -0.3112  0.0461  0.1912
 4367TIP3    H134660   3.641   4.552   0.982  1.6171  1.7820 -0.0138
 4367TIP3    H234661   3.607   4.521   0.838 -1.3352 -0.3822  1.0621
 4368TIP3   OH234662   6.665   3.797   0.096  0.3460 -0.3096 -0.0026
 4368TIP3    H134663   6.747   3.776   0.141  0.9348 -0.6847 -1.2212
 4368TIP3    H234664   6.597   3.771   0.159  1.1411  0.3729  1.1892
 4369TIP3   OH234665   2.926   5.820   0.170  0.3934  0.3869 -0.3308
 4369TIP3    H134666   3.000   5.856   0.121  0.2462  2.2902  0.7347
 4369TIP3    H234667   2.938   5.852   0.259 -0.0722 -1.8797  0.6071
 4370TIP3   OH234668   4.505   1.952   8.237 -0.0245 -0.2690 -0.1529
 4370TIP3    H134669   4.529   1.925   8.148 -0.8972  0.8281 -0.7547
 4370TIP3    H234670   4.534   2.044   8.241 -3.0897  0.8313 -0.5826
 4371TIP3   OH234671   5.011   4.783   1.173  0.3971  0.3267  0.3507
 4371TIP3    H134672   4.917   4.791   1.154  0.1559 -2.0373  0.2441
 4371TIP3    H234673   5.036   4.868   1.208 -1.9687  0.7888  1.0775
 4372TIP3   OH234674   0.699   3.345   0.636 -0.1047 -0.1713 -0.3269
 4372TIP3    H134675   0.712   3.367   0.544  0.4396  1.2223  0.0704
 4372TIP3    H234676   0.766   3.279   0.655  2.8036  2.6769  0.1555
 4373TIP3   OH234677   3.225   4.498   0.545  0.5496 -0.0221 -0.6211
 4373TIP3    H134678   3.136   4.475   0.517  0.3709 -0.7297  0.4761
 4373TIP3    H234679   3.279   4.424   0.517  0.9256  0.6904 -1.8533
 4374TIP3   OH234680   5.675   0.705   1.219  0.3420  0.3234  0.4702
 4374TIP3    H134681   5.754   0.724   1.170 -0.1447 -1.4411 -1.1017
 4374TIP3    H234682   5.706   0.683   1.307  1.5162  0.3999  0.0891
 4375TIP3   OH234683   2.992   3.231   6.317 -0.1367 -0.1360  0.3310
 4375TIP3    H134684   3.084   3.211   6.300 -0.1632  1.2413 -1.8099
 4375TIP3    H234685   2.946   3.148   6.303  0.6289 -0.5012 -0.0681
 4376TIP3   OH234686   0.760   3.295   0.946 -0.6858 -0.0943  0.0402
 4376TIP3    H134687   0.736   3.210   0.908 -1.3888 -1.0439  2.4573
 4376TIP3    H234688   0.818   3.335   0.880 -0.3307 -2.4314 -1.1683
 4377TIP3   OH234689   0.844   6.164   6.597 -0.2288 -0.2745 -0.3659
 4377TIP3    H134690   0.787   6.126   6.531 -1.1646 -0.3013  0.4388
 4377TIP3    H234691   0.920   6.195   6.548  1.0290 -3.9178 -0.9692
 4378TIP3   OH234692   2.952   1.401   7.936 -0.1837 -0.6902 -0.5487
 4378TIP3    H134693   2.895   1.387   7.861  0.3319  3.4409 -1.9321
 4378TIP3    H234694   3.028   1.346   7.918 -1.1469 -1.7134 -1.6977
 4379TIP3   OH234695   2.320   2.147   5.853 -0.4723 -0.4061  0.1052
 4379TIP3    H134696   2.353   2.086   5.787 -1.8502 -3.5459  2.0770
 4379TIP3    H234697   2.395   2.166   5.909 -0.3767 -1.7572  0.4688
 4380TIP3   OH234698   5.626   5.828   1.967  0.1460 -0.9123  0.4130
 4380TIP3    H134699   5.647   5.761   2.033  1.2890 -1.3816 -0.4009
 4380TIP3    H234700   5.649   5.911   2.010  0.2899 -1.1669  0.8405
 4381TIP3   OH234701   6.383   6.116   2.262 -0.2589 -0.8971  0.5411
 4381TIP3    H134702   6.325   6.130   2.187 -0.3315  0.2671  0.7968
 4381TIP3    H234703   6.412   6.025   2.253  0.2792 -0.5914 -1.2719
 4382TIP3   OH234704   0.462   3.102   0.060 -0.2356 -0.6984 -0.4245
 4382TIP3    H134705   0.549   3.077   0.092 -0.0222 -0.4227 -0.7816
 4382TIP3    H234706   0.458   3.066  -0.029 -0.5890 -0.9359 -0.3123
 4383TIP3   OH234707   5.174   1.469   2.137 -0.1416 -0.7581  0.2784
 4383TIP3    H134708   5.081   1.468   2.114  0.3092  1.5480 -2.1123
 4383TIP3    H234709   5.178   1.523   2.217 -0.7797  0.1623 -0.2901
 4384TIP3   OH234710   6.108   2.054   0.149  0.6038 -0.0775 -0.4661
 4384TIP3    H134711   6.123   2.016   0.062 -0.0715  1.8807 -1.5005
 4384TIP3    H234712   6.187   2.106   0.167  1.1460 -1.2033  0.5435
 4385TIP3   OH234713   2.870   3.122   7.881  0.1372  0.0556  0.4614
 4385TIP3    H134714   2.815   3.120   7.959 -0.5801 -0.1265 -0.0397
 4385TIP3    H234715   2.959   3.106   7.914 -0.2458 -0.7082  1.1605
 4386TIP3   OH234716   5.028   5.549   0.445 -0.3191  0.1258 -0.4795
 4386TIP3    H134717   5.090   5.576   0.512 -0.5257  1.7588 -0.9041
 4386TIP3    H234718   5.039   5.614   0.374 -2.7972  0.7684 -0.3719
 4387TIP3   OH234719   0.500   0.170   0.604 -0.0498 -0.7510 -0.1828
 4387TIP3    H134720   0.566   0.186   0.536 -0.8644 -0.1153 -0.8458
 4387TIP3    H234721   0.497   0.251   0.655 -1.8639  0.1026 -1.5344
 4388TIP3   OH234722   0.592   0.421   7.055 -0.9074  0.3572  0.2514
 4388TIP3    H134723   0.613   0.359   7.126  0.6355  0.0483 -0.4250
 4388TIP3    H234724   0.632   0.382   6.977 -2.3991  0.7973 -0.7633
 4389TIP3   OH234725   1.020   3.931   1.641 -0.0334 -0.1373  0.1673
 4389TIP3    H134726   0.986   3.991   1.708 -2.1969 -1.8912  0.7801
 4389TIP3    H234727   0.941   3.899   1.596  0.7910 -3.6635  0.9557
 4390TIP3   OH234728   1.132   4.949   0.641  0.1048  0.3747 -0.2168
 4390TIP3    H134729   1.059   4.928   0.698 -0.5231  2.4149 -0.1809
 4390TIP3    H234730   1.160   5.036   0.669  0.1662  1.1893 -2.5923
 4391TIP3   OH234731   0.792   5.791   0.020 -0.1556 -0.1020  0.5238
 4391TIP3    H134732   0.715   5.734   0.013  0.0502 -0.5775  1.9220
 4391TIP3    H234733   0.866   5.732   0.012  0.1016  0.3626 -0.8653
 4392TIP3   OH234734   0.807   0.600   7.248  0.4295 -0.3655 -0.1163
 4392TIP3    H134735   0.874   0.543   7.286 -0.1275  0.4237  2.1553
 4392TIP3    H234736   0.840   0.620   7.160  2.0609 -1.7778  0.1254
 4393TIP3   OH234737   4.569   0.170   7.719  0.9177 -0.1275  0.7555
 4393TIP3    H134738   4.611   0.201   7.639 -0.5487  1.2609  0.4653
 4393TIP3    H234739   4.514   0.097   7.690  0.9562 -0.1035  0.6220
 4394TIP3   OH234740   2.496   5.592   0.973 -0.3384  0.2332  0.0274
 4394TIP3    H134741   2.577   5.551   1.006 -0.3517  1.5044  1.8378
 4394TIP3    H234742   2.467   5.648   1.046 -0.9672  2.4846 -1.8326
 4395TIP3   OH234743   3.551   1.032   0.171 -0.5312 -0.7129  0.0800
 4395TIP3    H134744   3.532   1.093   0.099 -0.0177 -2.2184 -1.4245
 4395TIP3    H234745   3.522   1.077   0.250  0.2563  1.6395 -0.8995
 4396TIP3   OH234746   0.414   6.631   6.924  0.0788  0.0148  0.3750
 4396TIP3    H134747   0.419   6.537   6.905 -1.6582  0.1218 -0.8540
 4396TIP3    H234748   0.498   6.666   6.893  0.6128 -1.0576  0.5473
 4397TIP3   OH234749   6.030   2.927   8.124  0.0100  0.2945 -0.2012
 4397TIP3    H134750   5.973   2.969   8.188 -0.7061  0.5590 -0.9843
 4397TIP3    H234751   6.017   2.977   8.043  2.4449  1.2702 -0.0719
 4398TIP3   OH234752   3.835   4.748   5.877 -0.0225  0.2960  0.2191
 4398TIP3    H134753   3.740   4.744   5.882 -0.0603 -0.6187 -0.8567
 4398TIP3    H234754   3.859   4.680   5.815  1.4730 -0.7621  1.8548
 4399TIP3   OH234755   5.574   2.913   1.144 -0.1612  0.3581  0.0329
 4399TIP3    H134756   5.579   2.960   1.061 -1.3897  1.5539  0.5986
 4399TIP3    H234757   5.489   2.868   1.140  0.2278 -0.4018  0.2269
 4400TIP3   OH234758   1.912   6.273   1.130  0.1689  0.0610  0.7345
 4400TIP3    H134759   1.882   6.343   1.072 -0.4730 -2.2174 -1.9053
 4400TIP3    H234760   1.877   6.296   1.216 -2.6269  1.4662 -0.6404
 4401TIP3   OH234761   4.134   2.142   0.618 -0.6216  0.1278  0.7341
 4401TIP3    H134762   4.072   2.209   0.589 -0.7886 -0.0853  0.6011
 4401TIP3    H234763   4.101   2.113   0.703 -0.8186 -0.1327  0.5692
 4402TIP3   OH234764   6.207   4.213   6.481 -0.6819 -0.2840  0.0223
 4402TIP3    H134765   6.252   4.133   6.510  1.6923  0.8410 -0.2553
 4402TIP3    H234766   6.118   4.184   6.460  0.7410 -3.4878 -2.7062
 4403TIP3   OH234767   5.823   6.924   0.594  0.1732  0.1374 -0.2519
 4403TIP3    H134768   5.747   6.964   0.552 -0.4265 -0.5905  0.1330
 4403TIP3    H234769   5.796   6.908   0.684  0.3364 -1.2775 -0.4260
 4404TIP3   OH234770   4.916   6.598   7.200  0.6958 -0.0109 -0.0083
 4404TIP3    H134771   4.827   6.580   7.168 -0.2571  2.6242  0.8832
 4404TIP3    H234772   4.967   6.615   7.121  0.1020 -0.3347 -0.4719
 4405TIP3   OH234773   6.605   4.057   2.066 -0.2061 -0.3354  0.6092
 4405TIP3    H134774   6.644   4.087   2.148  0.1184  0.4732  0.1701
 4405TIP3    H234775   6.528   4.112   2.054  0.1101  0.0016  0.0525
 4406TIP3   OH234776   3.590   3.492   2.020 -0.0477 -0.3524 -0.2035
 4406TIP3    H134777   3.674   3.507   2.063 -0.7390  1.3306  0.6369
 4406TIP3    H234778   3.604   3.519   1.929 -0.0803  1.5184  0.3030
 4407TIP3   OH234779   0.597   1.801   1.990 -0.0951 -0.0690  0.2254
 4407TIP3    H134780   0.548   1.774   2.068 -0.4855 -2.4843 -0.7886
 4407TIP3    H234781   0.650   1.725   1.967  0.7524  0.9430 -1.3122
 4408TIP3   OH234782   4.514   3.985   8.076 -0.3124 -0.3985 -0.0928
 4408TIP3    H134783   4.437   3.976   8.132 -1.1441  0.3012 -1.0828
 4408TIP3    H234784   4.497   3.928   8.001  0.8001 -1.3471  0.3401
 4409TIP3   OH234785   0.723   4.997   1.834 -0.1388 -0.2411  0.2562
 4409TIP3    H134786   0.691   4.933   1.898  0.2742 -0.3062  0.3989
 4409TIP3    H234787   0.803   4.959   1.800  0.5769  0.5919  0.9699
 4410TIP3   OH234788   0.291   4.562   8.145 -0.0342 -0.2481 -0.2957
 4410TIP3    H134789   0.321   4.552   8.235  0.4609 -0.1390 -0.4417
 4410TIP3    H234790   0.232   4.637   8.148 -0.8934 -0.9316  0.1320
 4411TIP3   OH234791   2.392   5.344   1.361 -0.9142  0.1666  0.3152
 4411TIP3    H134792   2.369   5.308   1.275 -0.8137  0.1790  0.2835
 4411TIP3    H234793   2.375   5.272   1.422 -0.6749  0.0503  0.2476
 4412TIP3   OH234794   3.143   4.434   0.949 -0.5872  0.0915  0.5230
 4412TIP3    H134795   3.098   4.453   1.031 -1.3155 -0.5354  0.2766
 4412TIP3    H234796   3.083   4.378   0.901 -0.3580  0.8185 -0.6383
 4413TIP3   OH234797   0.062   5.074   6.955 -0.2572 -0.2849  0.5818
 4413TIP3    H134798   0.119   5.040   6.886  0.2475 -2.7258  2.0621
 4413TIP3    H234799   0.101   5.157   6.980  0.2631  0.0371 -1.1821
 4414TIP3   OH234800   5.277   4.589   2.182  0.5155  0.0415  0.1473
 4414TIP3    H134801   5.338   4.519   2.159 -1.2328 -2.1393  1.6711
 4414TIP3    H234802   5.194   4.564   2.140 -0.2700  0.9073  1.1189
 4415TIP3   OH234803   1.967   6.984   1.281  0.2215 -0.0797 -0.2388
 4415TIP3    H134804   1.946   7.077   1.284 -0.7633 -0.3148  0.6704
 4415TIP3    H234805   1.888   6.940   1.312  0.0663 -1.3290 -2.2333
 4416TIP3   OH234806   2.514   0.440   0.547  0.1532 -0.2245 -0.2622
 4416TIP3    H134807   2.549   0.512   0.599 -0.5651 -0.4561  0.5690
 4416TIP3    H234808   2.435   0.413   0.594  0.0801 -1.1563 -0.8943
 4417TIP3   OH234809   0.055   5.353   8.113  0.1217  0.4102 -0.2334
 4417TIP3    H134810   0.124   5.361   8.179 -0.6748  1.9572  0.4575
 4417TIP3    H234811   0.093   5.390   8.033  0.3505  0.5390 -0.0649
 4418TIP3   OH234812   4.883   2.029   1.190  0.1349 -0.0672  0.2874
 4418TIP3    H134813   4.830   1.950   1.179 -0.3477  0.4763 -1.5202
 4418TIP3    H234814   4.973   2.000   1.178  0.0512 -0.5079  0.6771
 4419TIP3   OH234815   4.539   6.604   8.193 -0.3142  0.0316  0.5712
 4419TIP3    H134816   4.554   6.518   8.233 -0.6172 -0.0107  0.5951
 4419TIP3    H234817   4.627   6.639   8.179 -0.1886 -0.2634  0.6031
 4420TIP3   OH234818   1.095   2.034   6.993  0.3036 -0.2650  0.2144
 4420TIP3    H134819   1.136   2.110   7.033 -0.4887  0.0832  0.3676
 4420TIP3    H234820   1.018   2.016   7.046  0.9045 -1.6723  0.6662
 4421TIP3   OH234821   4.200   1.516   0.640 -0.2000 -0.4625  0.2711
 4421TIP3    H134822   4.139   1.465   0.694 -0.5057 -0.0008  0.3657
 4421TIP3    H234823   4.150   1.538   0.562  0.1280 -0.8223 -0.0425
 4422TIP3   OH234824   6.881   5.593   7.941 -0.6412 -0.3126  0.4086
 4422TIP3    H134825   6.920   5.678   7.961  0.1675 -0.5536 -0.1049
 4422TIP3    H234826   6.954   5.540   7.908 -1.1716 -1.1503  0.5534
 4423TIP3   OH234827   6.460   5.626   2.025  0.5639 -0.5015 -0.3726
 4423TIP3    H134828   6.549   5.648   2.055  0.7579 -0.5296 -0.9059
 4423TIP3    H234829   6.473   5.553   1.965  0.0207 -1.4356  0.6208
 4424TIP3   OH234830   5.750   1.018   1.171 -0.2837 -0.0948 -0.1061
 4424TIP3    H134831   5.739   0.954   1.242  0.8336 -1.4702 -1.1179
 4424TIP3    H234832   5.663   1.054   1.158 -0.3401  1.1412  2.7690
 4425TIP3   OH234833   0.354   4.498   0.354 -0.1996  0.1051 -0.6130
 4425TIP3    H134834   0.314   4.496   0.267  0.7193  0.4096 -1.0579
 4425TIP3    H234835   0.448   4.490   0.337 -0.0510 -0.4592  0.3912
 4426TIP3   OH234836   0.856   1.707   8.247  0.1808 -0.2393  0.4688
 4426TIP3    H134837   0.773   1.678   8.209  0.0298  1.1172 -0.2965
 4426TIP3    H234838   0.910   1.731   8.172  0.2570  1.5013  1.0423
 4427TIP3   OH234839   4.169   2.023   7.191 -0.6398  0.4871 -0.6032
 4427TIP3    H134840   4.081   1.987   7.203  0.1622 -1.0955  1.1220
 4427TIP3    H234841   4.188   2.011   7.098 -1.3077 -1.5673 -0.5197
 4428TIP3   OH234842   5.640   5.976   0.203 -0.0183 -0.9627  0.8313
 4428TIP3    H134843   5.697   6.044   0.167 -1.2379 -0.0263  0.6285
 4428TIP3    H234844   5.671   5.964   0.293  0.0287  0.0555  0.9589
 4429TIP3   OH234845   2.661   2.661   7.168 -0.4235 -0.5393 -0.3048
 4429TIP3    H134846   2.734   2.703   7.214  0.2511 -2.5595  0.5611
 4429TIP3    H234847   2.660   2.572   7.202 -3.5113 -0.5002 -0.0407
 4430TIP3   OH234848   5.509   2.247   0.128 -0.2486 -0.0436 -0.1815
 4430TIP3    H134849   5.536   2.286   0.045 -2.3695 -0.9921 -1.4024
 4430TIP3    H234850   5.591   2.231   0.175  1.0515  0.2151 -2.2270
 4431TIP3   OH234851   4.089   5.808   1.569  0.3882  0.4167 -0.5344
 4431TIP3    H134852   4.031   5.744   1.527 -1.5614 -0.2392  2.8384
 4431TIP3    H234853   4.147   5.756   1.624  0.8243  1.3996 -0.0359
 4432TIP3   OH234854   4.174   2.323   0.027 -0.0492  0.9360 -0.0205
 4432TIP3    H134855   4.119   2.284   0.095  0.8040  0.2967  0.3172
 4432TIP3    H234856   4.172   2.417   0.046  0.2368  0.7603  0.9417
 4433TIP3   OH234857   6.963   6.022   1.113  0.3245  0.0607 -0.2527
 4433TIP3    H134858   7.041   5.966   1.120 -0.0710 -0.4921 -0.2296
 4433TIP3    H234859   6.990   6.093   1.055  1.4222  0.8575  1.1624
 4434TIP3   OH234860   0.706   0.663   0.668  0.3279  0.3868  0.3917
 4434TIP3    H134861   0.721   0.748   0.709  2.4811  0.8767 -1.2419
 4434TIP3    H234862   0.785   0.647   0.616 -0.2704 -2.3506  0.1784
 4435TIP3   OH234863   1.143   1.329   2.068 -0.0449 -0.0415 -0.5225
 4435TIP3    H134864   1.214   1.271   2.095 -1.7278 -1.0537  2.2018
 4435TIP3    H234865   1.093   1.278   2.004  0.4104 -0.2124 -0.7457
 4436TIP3   OH234866   4.545   3.720   1.266 -0.1652  0.5527 -0.3143
 4436TIP3    H134867   4.529   3.683   1.353 -1.1427 -0.0364 -0.7222
 4436TIP3    H234868   4.561   3.813   1.281  2.3235  0.0311  0.7382
 4437TIP3   OH234869   3.025   1.012   5.973  0.6138 -0.8036 -0.1285
 4437TIP3    H134870   3.005   1.036   6.064  0.3523  0.8329 -0.5840
 4437TIP3    H234871   3.024   1.095   5.926  0.2983 -1.6816 -1.7273
 4438TIP3   OH234872   5.096   6.999   6.553 -1.1260 -0.7908  0.0557
 4438TIP3    H134873   5.042   7.020   6.477 -0.1809  1.2268 -0.1295
 4438TIP3    H234874   5.186   7.009   6.522 -0.7233  0.4113  1.4663
 4439TIP3   OH234875   4.706   3.448   1.836 -0.2944 -0.1144 -0.0451
 4439TIP3    H134876   4.615   3.459   1.862  0.2367  1.3543  1.2935
 4439TIP3    H234877   4.710   3.482   1.747 -0.8594  0.8215  0.2738
 4440TIP3   OH234878   2.370   1.239   0.645  0.1025 -0.5026  0.1697
 4440TIP3    H134879   2.313   1.312   0.621  0.1661  0.1179  1.8042
 4440TIP3    H234880   2.357   1.175   0.575 -0.5005  0.7621 -0.9193
 4441TIP3   OH234881   0.886   0.026   7.334  0.2753 -0.2486  0.5643
 4441TIP3    H134882   0.846   0.002   7.250 -1.6241  0.0636  1.3339
 4441TIP3    H234883   0.978  -0.000   7.325 -0.1373 -1.2583 -1.1920
 4442TIP3   OH234884   2.820   3.896   1.559 -0.4453  0.4276  0.3499
 4442TIP3    H134885   2.904   3.904   1.605  1.5693  0.0690 -2.9212
 4442TIP3    H234886   2.817   3.804   1.530 -0.6148  1.0451 -1.7912
 4443TIP3   OH234887   3.440   1.333   6.725  0.2076  0.8638  0.4234
 4443TIP3    H134888   3.379   1.331   6.651  0.3551 -0.1137  0.3063
 4443TIP3    H234889   3.520   1.370   6.690  1.2145 -2.0823 -0.7095
 4444TIP3   OH234890   2.221   5.774   5.752 -0.3970  0.0477 -0.0293
 4444TIP3    H134891   2.136   5.793   5.714 -0.8114  0.6578  1.1519
 4444TIP3    H234892   2.248   5.855   5.795  1.3463  0.2421 -1.3536
 4445TIP3   OH234893   4.234   6.670   0.367 -0.0406  0.1486  0.5451
 4445TIP3    H134894   4.197   6.749   0.326  1.4103  0.0842 -0.9606
 4445TIP3    H234895   4.273   6.621   0.295 -1.9753 -2.6402  1.2269
 4446TIP3   OH234896   0.302   2.529   8.143 -0.4160  0.1572  0.0776
 4446TIP3    H134897   0.317   2.436   8.126  0.5620  0.3477 -0.1824
 4446TIP3    H234898   0.256   2.531   8.227  0.9199 -0.4957  0.8480
 4447TIP3   OH234899   2.547   1.898   2.003  0.3163  0.2823 -0.3886
 4447TIP3    H134900   2.582   1.933   1.922  0.1871  0.4447 -0.3739
 4447TIP3    H234901   2.597   1.940   2.072 -1.0363  1.8154 -0.2949
 4448TIP3   OH234902   2.813   4.487   7.937  0.1942  0.6147  0.5342
 4448TIP3    H134903   2.836   4.403   7.977 -0.9487  0.1828  0.3183
 4448TIP3    H234904   2.896   4.521   7.903  0.2786 -1.8941 -2.1591
 4449TIP3   OH234905   6.916   4.853   0.397 -0.3983  0.4466 -0.1565
 4449TIP3    H134906   6.884   4.938   0.366  0.6077  0.2317 -1.9237
 4449TIP3    H234907   6.997   4.838   0.347  0.5251 -0.6514  1.5543
 4450TIP3   OH234908   5.359   0.040   2.079  0.0837 -0.4698  0.1245
 4450TIP3    H134909   5.333   0.102   2.010  0.3504 -1.0088 -0.4740
 4450TIP3    H234910   5.382   0.095   2.153 -0.2189  0.1242 -0.2118
 4451TIP3   OH234911   1.197   6.094   6.369  0.5509  0.0077 -0.4595
 4451TIP3    H134912   1.247   6.124   6.293 -1.1783 -2.5053 -2.7519
 4451TIP3    H234913   1.106   6.097   6.341 -0.3322  0.7139  2.2105
 4452TIP3   OH234914   5.820   5.112   7.112  0.1581 -0.3218  0.4528
 4452TIP3    H134915   5.774   5.191   7.083 -0.7893 -0.9319  0.2468
 4452TIP3    H234916   5.781   5.092   7.197 -0.1754 -1.0269  0.1335
 4453TIP3   OH234917   5.357   5.686   1.227 -0.3504 -0.0285  0.1945
 4453TIP3    H134918   5.440   5.652   1.194  0.4062 -0.0604  2.0260
 4453TIP3    H234919   5.322   5.616   1.282 -0.8156  0.5758  0.6880
 4454TIP3   OH234920   0.111   1.668   1.226  0.2385  0.0404 -0.1782
 4454TIP3    H134921   0.086   1.679   1.135 -0.2008  1.7506  0.0979
 4454TIP3    H234922   0.028   1.652   1.272 -0.0019  2.1423  0.2603
 4455TIP3   OH234923   2.546   3.726   6.814  0.1576  0.3702  0.6516
 4455TIP3    H134924   2.495   3.781   6.873 -0.1074  0.1214  0.6593
 4455TIP3    H234925   2.603   3.675   6.871  0.7654  0.9994  0.6108
 4456TIP3   OH234926   3.622   4.665   7.431 -0.5868  0.4086  0.2683
 4456TIP3    H134927   3.671   4.709   7.362 -0.6901  1.0104  0.5789
 4456TIP3    H234928   3.688   4.622   7.485 -0.5350 -0.6363 -0.5737
 4457TIP3   OH234929   6.644   5.796   7.886 -0.0536  0.5419 -0.1041
 4457TIP3    H134930   6.666   5.796   7.793 -0.0823 -1.3709 -0.1505
 4457TIP3    H234931   6.723   5.825   7.930  0.0182  1.2828 -0.7119
 4458TIP3   OH234932   6.643   1.635   1.441 -0.3432  0.4331  0.1950
 4458TIP3    H134933   6.671   1.546   1.464 -0.1743  0.5030  0.2633
 4458TIP3    H234934   6.640   1.635   1.345  1.0721  0.7690  0.1223
 4459TIP3   OH234935   0.804   5.229   7.016  0.2753 -0.0542 -0.3229
 4459TIP3    H134936   0.814   5.320   7.044  1.4601  0.1510 -1.3398
 4459TIP3    H234937   0.877   5.214   6.956 -0.4821 -1.3735 -0.9605
 4460TIP3   OH234938   0.609   2.780   1.507  0.1952  0.4746  0.0393
 4460TIP3    H134939   0.678   2.714   1.519  1.0721  1.2635 -0.5321
 4460TIP3    H234940   0.539   2.753   1.567  0.7150 -0.7241  0.1377
 4461TIP3   OH234941   2.678   2.794   6.563 -0.7790 -0.7867 -0.5970
 4461TIP3    H134942   2.728   2.717   6.535 -1.3374 -1.9146  1.3021
 4461TIP3    H234943   2.632   2.765   6.642 -1.1842  1.4549  0.0546
 4462TIP3   OH234944   0.947   0.334   7.722 -0.3777 -0.0744  0.5352
 4462TIP3    H134945   0.962   0.260   7.664  0.8642  0.9796 -0.5309
 4462TIP3    H234946   0.877   0.384   7.680  0.0792  0.3478  0.2684
 4463TIP3   OH234947   5.872   1.117   0.947 -0.3231  0.2238 -0.4365
 4463TIP3    H134948   5.822   1.089   1.024 -0.5816  0.9872 -0.3205
 4463TIP3    H234949   5.963   1.108   0.974 -0.4058  1.5296  0.3602
 4464TIP3   OH234950   6.824   2.370   8.123 -0.0991 -0.5515  0.8727
 4464TIP3    H134951   6.910   2.331   8.142  0.2269 -0.8452 -1.0246
 4464TIP3    H234952   6.841   2.432   8.053 -1.1669  0.7588  1.7180
 4465TIP3   OH234953   3.524   6.825   0.228 -0.2148  0.4173  0.2171
 4465TIP3    H134954   3.532   6.852   0.320 -0.7714  0.8357  0.1442
 4465TIP3    H234955   3.462   6.752   0.230 -0.5931  0.7335  0.1196
 4466TIP3   OH234956   4.939   1.587   1.248 -0.1690 -0.0653 -0.0532
 4466TIP3    H134957   4.935   1.606   1.342 -2.2199  1.9007 -0.4292
 4466TIP3    H234958   4.875   1.516   1.235  0.3870 -0.5945  0.0668
 4467TIP3   OH234959   0.876   5.026   1.494  0.3511 -0.1416 -0.9413
 4467TIP3    H134960   0.784   5.046   1.481  0.4551 -0.3843 -2.2532
 4467TIP3    H234961   0.879   4.931   1.504  0.4553 -0.1265 -0.8157
 4468TIP3   OH234962   6.285   1.233   0.806  0.5533  0.0707  0.7171
 4468TIP3    H134963   6.203   1.263   0.846 -1.4749 -1.2314 -2.0588
 4468TIP3    H234964   6.305   1.300   0.740  1.0280 -0.2127  0.5675
 4469TIP3   OH234965   4.195   0.733   0.839  0.4874 -0.3667 -0.2356
 4469TIP3    H134966   4.192   0.803   0.774 -0.9765 -2.0111 -2.0581
 4469TIP3    H234967   4.226   0.657   0.791 -0.1308 -1.5180  1.1306
 4470TIP3   OH234968   6.694   1.263   1.469 -0.6549 -0.2082 -0.3760
 4470TIP3    H134969   6.741   1.315   1.534 -1.2310 -0.1119 -0.0395
 4470TIP3    H234970   6.729   1.294   1.385  0.5060 -0.7249 -0.1146
 4471TIP3   OH234971   4.107   2.293   6.122 -0.3443 -0.1575 -0.1222
 4471TIP3    H134972   4.088   2.235   6.196  0.9330 -1.7040 -0.9774
 4471TIP3    H234973   4.050   2.369   6.138 -1.1730 -1.0728  1.6652
 4472TIP3   OH234974   3.877   1.536   7.188  0.6272 -0.4106 -0.1399
 4472TIP3    H134975   3.843   1.619   7.222  1.6742  0.8229 -1.8947
 4472TIP3    H234976   3.948   1.513   7.247 -0.8811 -1.1350  1.4804
 4473TIP3   OH234977   5.215   5.644   6.640  0.3873 -0.3411 -0.0096
 4473TIP3    H134978   5.151   5.575   6.659  1.1426 -0.7532  1.1198
 4473TIP3    H234979   5.264   5.610   6.564 -1.1471  0.2867 -1.3275
 4474TIP3   OH234980   6.919   4.236   7.034  0.0545 -0.0688 -0.0342
 4474TIP3    H134981   6.881   4.307   7.086  1.4774  0.3695  0.4558
 4474TIP3    H234982   6.955   4.279   6.956  0.6446 -0.2902  0.1107
 4475TIP3   OH234983   1.630   0.588   1.061  0.2407  0.4257  0.5095
 4475TIP3    H134984   1.648   0.657   0.996 -1.2772  1.2579  0.9407
 4475TIP3    H234985   1.541   0.560   1.042  0.5681 -0.9064  0.8417
 4476TIP3   OH234986   4.891   1.307   0.222  0.3359  0.0066  0.3176
 4476TIP3    H134987   4.934   1.373   0.168 -0.2540 -0.4631 -0.7563
 4476TIP3    H234988   4.902   1.338   0.312 -1.0376  2.2410 -0.2093
 4477TIP3   OH234989   4.653   2.281   1.835  0.3466 -0.2781  0.2576
 4477TIP3    H134990   4.615   2.257   1.920  0.9576  1.4490  1.0698
 4477TIP3    H234991   4.677   2.373   1.845  0.8049 -0.1480 -1.6740
 4478TIP3   OH234992   5.902   6.031   6.559  0.2725 -1.0095  0.9543
 4478TIP3    H134993   5.922   6.096   6.491 -0.8248 -0.2501  1.3384
 4478TIP3    H234994   5.826   5.984   6.525 -0.0176 -0.9112  1.4569
 4479TIP3   OH234995   3.299   1.124   2.090  0.0382 -0.1719 -0.3735
 4479TIP3    H134996   3.237   1.051   2.096 -0.6112  0.0307 -3.0891
 4479TIP3    H234997   3.249   1.194   2.047  1.6217  0.6168 -1.0078
 4480TIP3   OH234998   6.933   5.240   7.778  0.4408 -0.3412  0.8811
 4480TIP3    H134999   6.943   5.145   7.776  0.8387 -0.2902  0.0578
 4480TIP3    H235000   7.011   5.273   7.734 -1.0035  0.2577 -1.4346
 4481TIP3   OH235001   2.157   4.853   6.260  1.0291  0.0684 -0.1268
 4481TIP3    H135002   2.150   4.771   6.210 -0.5460  0.7046 -1.0260
 4481TIP3    H235003   2.251   4.873   6.259  1.2128 -0.6842 -1.6306
 4482TIP3   OH235004   6.850   5.224   6.937 -0.1304  0.1605 -0.7058
 4482TIP3    H135005   6.915   5.262   6.996 -0.3677 -0.1258 -0.2594
 4482TIP3    H235006   6.899   5.208   6.856  0.4470 -0.3675 -0.2655
 4483TIP3   OH235007   1.414   3.088   7.923  0.1108  0.3731 -0.4096
 4483TIP3    H135008   1.328   3.108   7.960  0.6942 -0.1029  1.2910
 4483TIP3    H235009   1.418   2.993   7.921  0.0031  0.3733 -2.0218
 4484TIP3   OH235010   0.400   1.275   7.390 -0.5108 -0.4463 -0.0615
 4484TIP3    H135011   0.468   1.213   7.414 -0.7077 -0.3822  0.7022
 4484TIP3    H235012   0.380   1.256   7.298  1.1282  0.1013 -0.5558
 4485TIP3   OH235013   6.113   4.522   6.970 -0.0433  0.4751 -0.7550
 4485TIP3    H135014   6.138   4.557   7.055 -0.5769 -3.2820  1.1606
 4485TIP3    H235015   6.196   4.506   6.925  0.6577 -1.8938  1.1446
 4486TIP3   OH235016   0.629   0.383   0.061 -0.6131  0.2201  0.4317
 4486TIP3    H135017   0.669   0.308   0.104 -0.2675  0.3036  0.2527
 4486TIP3    H235018   0.603   0.441   0.133 -1.0746 -0.1603  0.5840
 4487TIP3   OH235019   3.393   1.537   0.977  0.2011 -0.1731  0.5131
 4487TIP3    H135020   3.344   1.505   1.053 -0.5932 -0.4161 -0.0827
 4487TIP3    H235021   3.375   1.473   0.908  2.2250 -0.8551  0.5494
 4488TIP3   OH235022   0.244   3.399   7.704  0.0978  0.0368  0.2422
 4488TIP3    H135023   0.208   3.456   7.772 -1.6142 -1.7736  0.9354
 4488TIP3    H235024   0.228   3.447   7.622  2.2906  2.2999  1.0239
 4489TIP3   OH235025   5.544   2.632   6.774 -0.7997 -0.1594 -0.1277
 4489TIP3    H135026   5.530   2.545   6.736  0.2833  0.6962 -2.6750
 4489TIP3    H235027   5.597   2.615   6.852  1.0033 -1.7018 -1.5820
 4490TIP3   OH235028   0.655   0.108   8.093 -0.0945  0.0737  0.2521
 4490TIP3    H135029   0.585   0.172   8.085  1.3568  2.0267  2.1762
 4490TIP3    H235030   0.669   0.099   8.188  1.0040 -1.7276 -0.0249
 4491TIP3   OH235031   5.520   4.547   1.079 -0.2128  0.5054 -0.5977
 4491TIP3    H135032   5.535   4.481   1.011  0.7991  1.3776 -1.2467
 4491TIP3    H235033   5.530   4.631   1.034  0.7924  1.1034  0.6792
 4492TIP3   OH235034   4.261   1.724   8.001  0.1259 -0.2409  0.1657
 4492TIP3    H135035   4.184   1.776   8.026  0.8068  0.1440  1.6154
 4492TIP3    H235036   4.313   1.719   8.082  1.2789 -1.0891 -0.6003
 4493TIP3   OH235037   4.938   2.934   7.971  0.4797 -0.2833 -0.4389
 4493TIP3    H135038   4.892   2.972   8.046  0.3357 -0.4737 -0.4299
 4493TIP3    H235039   4.902   2.846   7.964  1.4589 -0.7356  0.0955
 4494TIP3   OH235040   6.278   3.543   0.119  0.0361 -0.0042  0.3999
 4494TIP3    H135041   6.280   3.454   0.083 -2.1788 -0.2810  0.8160
 4494TIP3    H235042   6.232   3.595   0.053 -0.1215  0.4712  0.8775
 4495TIP3   OH235043   0.210   0.434   0.571  0.0715  0.2326  0.6125
 4495TIP3    H135044   0.244   0.523   0.579  0.4750  0.1385 -0.0246
 4495TIP3    H235045   0.123   0.438   0.612 -0.2575  1.1105 -0.1324
 4496TIP3   OH235046   0.250   2.478   7.357  0.5445  0.5045 -0.2087
 4496TIP3    H135047   0.190   2.525   7.299  0.4031 -1.6347 -1.9254
 4496TIP3    H235048   0.291   2.412   7.301  2.0303 -0.2811  1.6777
 4497TIP3   OH235049   3.275   1.134   0.363 -0.7917  0.1048 -0.0559
 4497TIP3    H135050   3.216   1.146   0.437 -0.1565  0.8985  0.3339
 4497TIP3    H235051   3.265   1.215   0.311 -0.1725  0.1806 -0.0668
 4498TIP3   OH235052   0.712   3.499   6.422  0.1038 -0.3403  0.0272
 4498TIP3    H135053   0.684   3.408   6.429  0.3062 -0.5379 -1.4537
 4498TIP3    H235054   0.703   3.520   6.329 -2.0952  1.8525  0.6256
 4499TIP3   OH235055   4.904   4.940   7.358  0.2047 -0.9392  0.4658
 4499TIP3    H135056   4.904   4.909   7.448 -0.2148 -1.0659  0.4258
 4499TIP3    H235057   4.908   4.861   7.305  0.0101 -0.8864  0.3712
 4500TIP3   OH235058   5.614   5.775   7.308 -0.2759  0.6399 -0.3000
 4500TIP3    H135059   5.571   5.714   7.369 -0.0525  1.1029  0.3248
 4500TIP3    H235060   5.635   5.721   7.232 -0.3468 -0.0021  0.1267
 4501TIP3   OH235061   5.685   5.566   2.086  0.3904  0.1302 -0.0014
 4501TIP3    H135062   5.606   5.558   2.033 -0.5052 -0.6169  1.3868
 4501TIP3    H235063   5.754   5.526   2.033 -0.1921  0.6395 -1.1606
 4502TIP3   OH235064   3.666   3.773   0.462 -0.4509 -0.3100  0.0027
 4502TIP3    H135065   3.724   3.850   0.463 -0.8978  0.0756 -1.3097
 4502TIP3    H235066   3.724   3.699   0.477 -0.1449  0.3209  2.3395
 4503TIP3   OH235067   3.103   3.827   6.653 -0.1204 -0.2703  0.6220
 4503TIP3    H135068   3.185   3.782   6.675  0.6352 -0.7369 -2.6295
 4503TIP3    H235069   3.035   3.771   6.690  0.9497 -1.0803  1.4638
 4504TIP3   OH235070   6.743   0.100   6.336 -0.1530  0.2381  0.7101
 4504TIP3    H135071   6.670   0.058   6.291 -0.0601  0.4021  0.4025
 4504TIP3    H235072   6.708   0.185   6.364  0.0839  0.5462  0.0747
 4505TIP3   OH235073   0.113   2.399   6.916  0.1749 -0.0060 -0.1589
 4505TIP3    H135074   0.141   2.335   6.851 -1.6292  0.7313 -1.7532
 4505TIP3    H235075   0.074   2.471   6.865 -1.4028  0.5698  1.7052
 4506TIP3   OH235076   3.803   0.149   8.148 -0.4307  0.2173  0.3831
 4506TIP3    H135077   3.873   0.085   8.133  0.5368  0.7534  2.2607
 4506TIP3    H235078   3.772   0.130   8.237 -1.3331  1.2370  0.3035
 4507TIP3   OH235079   2.259   6.572   8.281  0.1453  0.0637  0.3273
 4507TIP3    H135080   2.353   6.557   8.270  0.3471  0.3454  1.5404
 4507TIP3    H235081   2.225   6.579   8.192  1.0419 -1.4352 -0.1594
 4508TIP3   OH235082   3.395   1.996   7.628  0.1818  0.0185  0.1641
 4508TIP3    H135083   3.319   1.939   7.617 -0.1244  0.2593  0.9755
 4508TIP3    H235084   3.362   2.070   7.681  0.4348  1.2077 -1.2657
 4509TIP3   OH235085   1.788   2.249   7.861 -0.2496  0.1969 -0.5543
 4509TIP3    H135086   1.772   2.199   7.941  0.7510  0.8017  0.0342
 4509TIP3    H235087   1.724   2.320   7.865 -2.5199 -1.6141 -1.9876
 4510TIP3   OH235088   0.981   2.245   8.098 -0.3831 -0.5386  0.0516
 4510TIP3    H135089   1.020   2.161   8.075  3.0750  0.3469  2.0919
 4510TIP3    H235090   0.969   2.241   8.192 -3.1878  0.2040 -0.1804
 4511TIP3   OH235091   0.984   5.170   7.478  0.4693 -0.0822  0.5520
 4511TIP3    H135092   1.000   5.159   7.384 -0.2357 -2.3104  0.6418
 4511TIP3    H235093   1.071   5.165   7.518  0.7412  0.5509  0.0545
 4512TIP3   OH235094   6.761   5.959   0.166  0.0461 -0.2812  0.2002
 4512TIP3    H135095   6.689   5.962   0.103  0.6786  0.8594 -0.5006
 4512TIP3    H235096   6.786   5.867   0.169  0.1553 -0.3375 -1.4110
 4513TIP3   OH235097   6.109   1.019   1.029 -0.0959 -0.0331 -0.0769
 4513TIP3    H135098   6.165   0.949   0.996  0.4896  0.1296  0.5625
 4513TIP3    H235099   6.133   1.028   1.121 -0.5451  0.6433 -0.0191
 4514TIP3   OH235100   2.360   3.452   0.305 -0.1637  0.0593 -0.6240
 4514TIP3    H135101   2.356   3.513   0.380  0.8988  0.4368 -0.8480
 4514TIP3    H235102   2.269   3.444   0.276 -0.5769  0.0437  0.5960
 4515TIP3   OH235103   6.787   6.686   7.328 -0.8155 -0.4842  0.3427
 4515TIP3    H135104   6.848   6.693   7.254 -1.7927 -0.3465 -0.4614
 4515TIP3    H235105   6.835   6.634   7.393 -0.1709 -1.1171 -0.6178
 4516TIP3   OH235106   1.957   2.256   0.017 -0.4116 -0.6257 -0.7586
 4516TIP3    H135107   1.881   2.291  -0.029 -0.2799 -1.4255 -1.5974
 4516TIP3    H235108   2.018   2.230  -0.052  1.1126  0.9999 -0.0991
 4517TIP3   OH235109   3.664   3.046   0.301 -0.4053 -0.3206  0.3722
 4517TIP3    H135110   3.668   3.089   0.386 -0.4564 -1.0531  0.7462
 4517TIP3    H235111   3.571   3.030   0.287 -0.4347  0.1409 -0.0029
 4518TIP3   OH235112   0.539   4.915   7.490  0.2183 -0.6527 -0.1505
 4518TIP3    H135113   0.622   4.961   7.500 -0.4182  0.2625  1.3616
 4518TIP3    H235114   0.535   4.890   7.398  0.8408  1.8631 -0.9339
 4519TIP3   OH235115   1.261   1.039   0.816 -0.3886 -0.5850 -0.1486
 4519TIP3    H135116   1.285   0.949   0.837 -1.1643 -0.4759  1.3394
 4519TIP3    H235117   1.186   1.058   0.873  0.0180  1.1413 -0.1256
 4520TIP3   OH235118   1.006   4.234   6.953 -0.1465 -0.0277 -0.0831
 4520TIP3    H135119   0.934   4.178   6.926  0.8545 -1.5943  0.3710
 4520TIP3    H235120   1.085   4.184   6.932  0.7967  1.3296  0.0944
 4521TIP3   OH235121   1.677   5.162   1.031  0.1336  0.0072 -0.0502
 4521TIP3    H135122   1.688   5.079   0.983 -0.9034 -0.4796  0.4962
 4521TIP3    H235123   1.582   5.178   1.026  0.1881  0.5896  0.7804
 4522TIP3   OH235124   6.671   0.437   1.074 -0.1808 -0.2130  0.2600
 4522TIP3    H135125   6.756   0.464   1.040  0.4218 -0.8564  1.2067
 4522TIP3    H235126   6.660   0.347   1.043 -1.5024  0.5371 -1.6298
 4523TIP3   OH235127   0.557   2.651   8.141 -0.0946  0.0013 -0.5735
 4523TIP3    H135128   0.611   2.596   8.084 -1.2053  1.6652 -3.4944
 4523TIP3    H235129   0.471   2.609   8.139 -0.1146  0.0177 -0.0234
 4524TIP3   OH235130   4.424   4.855   0.737  0.1846 -0.3116 -0.5484
 4524TIP3    H135131   4.488   4.843   0.807  1.9695  2.6353 -1.4902
 4524TIP3    H235132   4.430   4.775   0.684  0.3846 -1.6310  1.3961
 4525TIP3   OH235133   3.409   0.412   0.879 -0.4500  0.0865  0.2641
 4525TIP3    H135134   3.339   0.470   0.848 -0.1431 -0.0867 -0.7789
 4525TIP3    H235135   3.489   0.448   0.840 -0.4053 -1.7856 -1.5433
 4526TIP3   OH235136   2.197   1.792   7.764  0.5762 -0.0481 -0.2291
 4526TIP3    H135137   2.102   1.797   7.779  0.2880 -0.5304 -1.7384
 4526TIP3    H235138   2.235   1.801   7.851 -0.8760 -0.3874  0.4728
 4527TIP3   OH235139   2.742   1.372   7.744  0.0575 -0.3267 -0.2968
 4527TIP3    H135140   2.647   1.363   7.752 -0.0007  0.7449  0.4367
 4527TIP3    H235141   2.756   1.466   7.728  1.1170  0.0309  2.2079
 4528TIP3   OH235142   7.052   2.829   7.651  0.0364 -0.0192  0.6131
 4528TIP3    H135143   7.060   2.734   7.641 -0.7213 -0.0706  0.4208
 4528TIP3    H235144   6.978   2.841   7.711 -0.5266  0.4584 -0.1463
 4529TIP3   OH235145   5.311   0.283   0.666  0.0122 -0.2427 -0.0572
 4529TIP3    H135146   5.276   0.223   0.601  0.0572 -1.7401  1.2343
 4529TIP3    H235147   5.246   0.283   0.737  1.1233 -0.6351  0.9999
 4530TIP3   OH235148   4.554   3.390   7.377 -1.1102  0.1634 -0.2019
 4530TIP3    H135149   4.600   3.451   7.318  0.0087  2.4092  2.7123
 4530TIP3    H235150   4.471   3.434   7.396 -0.8957  0.1565  0.8372
 4531TIP3   OH235151   1.850   2.566   0.823 -0.0890 -0.5793 -0.2374
 4531TIP3    H135152   1.782   2.600   0.763 -2.5802 -1.9195  1.6425
 4531TIP3    H235153   1.863   2.476   0.795  0.5366 -0.4985 -0.2185
 4532TIP3   OH235154   1.788   6.143   0.809 -0.9695  0.1179 -0.3838
 4532TIP3    H135155   1.711   6.193   0.784  0.1894  2.0217 -0.3280
 4532TIP3    H235156   1.784   6.139   0.905 -0.1563  1.7112 -0.2556
 4533TIP3   OH235157   1.925   3.585   5.622 -0.1978 -0.2144 -0.3205
 4533TIP3    H135158   1.848   3.537   5.650  0.1178  0.0456  1.0670
 4533TIP3    H235159   1.900   3.677   5.630  0.4749 -0.1126  0.8790
 4534TIP3   OH235160   0.177   5.928   7.419  0.0341  0.1508 -0.4534
 4534TIP3    H135161   0.206   6.012   7.455  5.0724 -1.5351  0.2517
 4534TIP3    H235162   0.207   5.863   7.483 -0.6988 -2.3921 -2.5076
 4535TIP3   OH235163   6.188   2.953   1.417 -0.0864 -0.1009 -0.2941
 4535TIP3    H135164   6.222   2.999   1.494  1.2760  0.6121 -1.2751
 4535TIP3    H235165   6.240   2.873   1.412  0.4257  0.2678 -0.9502
 4536TIP3   OH235166   2.800   6.694   7.992 -0.5530 -0.1273  0.0755
 4536TIP3    H135167   2.787   6.698   7.897  0.6124 -2.3594 -0.2378
 4536TIP3    H235168   2.870   6.757   8.009 -2.2308  1.9100 -0.1618
 4537TIP3   OH235169   5.732   3.346   6.366 -0.0599 -0.1136 -0.3066
 4537TIP3    H135170   5.648   3.357   6.321  0.2311 -1.8870 -1.4017
 4537TIP3    H235171   5.709   3.338   6.458 -0.8868  1.3347 -0.3545
 4538TIP3   OH235172   3.391   4.288   0.418 -0.3717  0.1959 -0.2849
 4538TIP3    H135173   3.442   4.268   0.496  0.1215 -0.7592 -0.8273
 4538TIP3    H235174   3.349   4.205   0.394 -2.1514  0.9441  0.1059
 4539TIP3   OH235175   0.227   3.953   0.936 -0.4527  0.1152  0.4344
 4539TIP3    H135176   0.145   4.002   0.944 -0.3280  0.5182 -0.5845
 4539TIP3    H235177   0.292   4.018   0.912  0.5772  0.0981  2.9525
 4540TIP3   OH235178   3.901   1.159   0.046  0.6583  0.2307 -0.0515
 4540TIP3    H135179   3.921   1.224  -0.021  0.6939  1.3727  1.0161
 4540TIP3    H235180   3.979   1.156   0.101  0.5189 -0.4664  0.1272
 4541TIP3   OH235181   5.830   5.196   0.610  0.4382 -0.1892 -0.2479
 4541TIP3    H135182   5.846   5.110   0.647  2.9797 -0.5957 -2.0731
 4541TIP3    H235183   5.763   5.181   0.543 -0.1266 -0.4634  0.3678
 4542TIP3   OH235184   4.491   3.413   0.150 -0.1585  0.3792  0.1058
 4542TIP3    H135185   4.544   3.488   0.123 -0.3751  0.5005  0.0116
 4542TIP3    H235186   4.400   3.443   0.141 -0.2401  0.3663  0.8098
 4543TIP3   OH235187   3.017   0.478   6.539 -0.1657  0.0911 -0.0591
 4543TIP3    H135188   3.079   0.416   6.500  0.1862  0.4402 -0.0609
 4543TIP3    H235189   2.940   0.473   6.482 -0.2127 -0.4823  0.0524
 4544TIP3   OH235190   6.313   2.393   1.237 -0.2209  0.3083 -0.9962
 4544TIP3    H135191   6.402   2.366   1.215 -0.0941 -0.2121  0.0859
 4544TIP3    H235192   6.277   2.427   1.155  1.5272  2.0707 -1.1138
 4545TIP3   OH235193   6.934   4.077   0.414 -0.0909  0.0738  0.3363
 4545TIP3    H135194   7.007   4.109   0.467 -0.3894 -0.1823  0.9157
 4545TIP3    H235195   6.864   4.062   0.477 -0.3400 -0.5816 -0.0896
 4546TIP3   OH235196   6.794   0.498   6.799 -0.0354  0.1399 -0.6670
 4546TIP3    H135197   6.726   0.550   6.757 -0.3079 -0.4222 -0.9271
 4546TIP3    H235198   6.759   0.409   6.803  0.8031 -0.2252 -1.0795
 4547TIP3   OH235199   1.931   3.207   7.967 -0.1051 -0.3232 -0.3845
 4547TIP3    H135200   1.845   3.167   7.964 -1.2481  1.7586  1.5286
 4547TIP3    H235201   1.918   3.295   7.932  0.9139  0.4537  1.0527
 4548TIP3   OH235202   0.930   3.303   6.362  0.6160 -0.3496 -0.3130
 4548TIP3    H135203   0.911   3.374   6.423  0.2950  0.7233 -1.6112
 4548TIP3    H235204   0.854   3.245   6.368  0.2128  0.1750 -0.2776
 4549TIP3   OH235205   3.653   1.840   0.946 -0.2030  0.0246 -0.1522
 4549TIP3    H135206   3.658   1.874   1.035  1.2235  1.8721 -0.8737
 4549TIP3    H235207   3.562   1.852   0.920  0.1391  3.1348 -0.2325
 4550TIP3   OH235208   3.801   4.827   8.089 -0.4085  0.2840  0.1700
 4550TIP3    H135209   3.741   4.764   8.129 -1.9198  1.2906 -0.4706
 4550TIP3    H235210   3.766   4.912   8.113  0.7712  0.9077 -0.2390
 4551TIP3   OH235211   0.075   1.961   6.724  0.1837  0.1669  0.2548
 4551TIP3    H135212   0.044   1.932   6.638  1.1216 -0.2300  0.0356
 4551TIP3    H235213   0.134   1.891   6.753 -0.7758 -0.1074  1.6120
 4552TIP3   OH235214   0.360   3.282   6.662 -0.1943 -0.1343 -0.0236
 4552TIP3    H135215   0.350   3.287   6.566  0.3802 -0.0418 -0.0803
 4552TIP3    H235216   0.293   3.342   6.696  1.0167  1.5158 -0.4395
 4553TIP3   OH235217   5.348   6.839   1.957  0.1616 -0.8773 -0.0066
 4553TIP3    H135218   5.441   6.822   1.945  0.5549  0.4584  0.8659
 4553TIP3    H235219   5.345   6.914   2.018 -1.4753 -0.9853  0.0945
 4554TIP3   OH235220   0.213   0.006   0.270  0.4699  0.9536 -0.0165
 4554TIP3    H135221   0.216   0.084   0.325  0.6947 -0.4682  2.1147
 4554TIP3    H235222   0.303  -0.027   0.271  0.0532 -0.2190  0.5058
 4555TIP3   OH235223   6.437   2.771   0.988 -0.1407  0.2682 -0.2318
 4555TIP3    H135224   6.445   2.677   1.004  2.0074 -0.0632 -2.7002
 4555TIP3    H235225   6.378   2.778   0.913  0.3368  0.8456 -0.5597
 4556TIP3   OH235226   4.746   5.783   0.292 -0.0121  0.1848  0.0741
 4556TIP3    H135227   4.707   5.861   0.330 -1.0715 -0.3544  0.1267
 4556TIP3    H235228   4.672   5.725   0.275  0.5941 -0.2188 -1.3482
 4557TIP3   OH235229   1.652   2.341   6.029  0.2938  0.7274 -0.2832
 4557TIP3    H135230   1.598   2.358   5.951  2.1478  1.4742 -1.4926
 4557TIP3    H235231   1.698   2.260   6.008  1.1551  1.1828 -0.1916
 4558TIP3   OH235232   2.266   5.861   6.350  0.4253 -0.6556 -0.1303
 4558TIP3    H135233   2.291   5.803   6.423  0.5798 -2.8050 -1.8037
 4558TIP3    H235234   2.230   5.802   6.284 -2.5671  1.5466 -0.6610
 4559TIP3   OH235235   0.460   3.797   0.012 -0.6392  0.0904 -0.3119
 4559TIP3    H135236   0.434   3.889   0.008  0.0136  0.4197  1.6391
 4559TIP3    H235237   0.530   3.796   0.078 -0.7830 -1.8380 -0.1617
 4560TIP3   OH235238   2.597   0.865   7.906  0.3737 -0.6349  0.5630
 4560TIP3    H135239   2.574   0.827   7.991 -0.8386  1.4342  1.2099
 4560TIP3    H235240   2.659   0.934   7.927  0.5876 -0.5496 -0.3202
 4561TIP3   OH235241   3.324   7.040   1.018  0.1253 -0.0491 -0.2783
 4561TIP3    H135242   3.344   6.980   1.090 -3.7315 -1.4587 -0.1661
 4561TIP3    H235243   3.372   7.120   1.040 -0.5443 -0.5377  3.7083
 4562TIP3   OH235244   3.332   4.258   0.967  0.6954 -0.0658  0.1725
 4562TIP3    H135245   3.295   4.172   0.985  2.6173 -0.7787  0.9149
 4562TIP3    H235246   3.256   4.317   0.967 -0.7833 -1.8299 -1.1697
 4563TIP3   OH235247   5.973   1.702   8.272 -0.1889  0.0774  0.6076
 4563TIP3    H135248   5.940   1.678   8.185  1.1815 -0.5639  0.2342
 4563TIP3    H235249   6.045   1.763   8.253  1.0102 -1.1096  1.1999
 4564TIP3   OH235250   1.756   6.034   8.115  0.4807  0.1668 -0.3013
 4564TIP3    H135251   1.814   6.019   8.189  0.7178 -1.3148 -0.7561
 4564TIP3    H235252   1.805   6.002   8.039  0.1104  1.3473 -1.0703
 4565TIP3   OH235253   4.561   1.929   6.600  0.2016  0.0931 -0.2975
 4565TIP3    H135254   4.596   1.842   6.581 -0.7702 -1.2328  3.1934
 4565TIP3    H235255   4.602   1.986   6.536  3.4681 -2.4017 -0.6747
 4566TIP3   OH235256   2.731   1.119   7.349  0.2970 -0.2607  0.2059
 4566TIP3    H135257   2.680   1.195   7.321  1.3768  0.8388  1.0941
 4566TIP3    H235258   2.806   1.157   7.395  0.4042 -1.8880  1.4473
 4567TIP3   OH235259   6.985   4.977   6.574  0.7226 -0.1004  0.4128
 4567TIP3    H135260   6.921   4.910   6.596  0.1184  0.8497  1.7017
 4567TIP3    H235261   7.012   4.957   6.484 -0.8396 -0.9326  0.1011
 4568TIP3   OH235262   4.320   5.912   6.872  0.1302 -0.5383  0.2630
 4568TIP3    H135263   4.404   5.923   6.827 -0.4588 -0.8421 -0.9587
 4568TIP3    H235264   4.291   5.824   6.848 -0.1319 -0.7827  1.4009
 4569TIP3   OH235265   1.700   0.243   1.348  0.2100 -1.0183 -0.1379
 4569TIP3    H135266   1.792   0.224   1.331  0.5047  0.7900 -0.7232
 4569TIP3    H235267   1.695   0.247   1.444  0.9117 -0.4377 -0.1099
 4570TIP3   OH235268   6.988   0.653   1.221  0.7974 -0.2306 -0.4763
 4570TIP3    H135269   7.031   0.738   1.207  0.7232 -0.2726 -1.0015
 4570TIP3    H235270   6.899   0.675   1.248  1.9309 -0.0689  3.9039
 4571TIP3   OH235271   2.558   3.197   6.838 -0.4205 -0.0613  0.0492
 4571TIP3    H135272   2.551   3.266   6.903  1.9271 -0.1593  0.4867
 4571TIP3    H235273   2.558   3.243   6.754 -0.3753  0.3300  0.2628
 4572TIP3   OH235274   3.926   0.546   5.382  0.2949 -0.3227 -0.2315
 4572TIP3    H135275   3.955   0.538   5.473  0.1047 -0.9535 -0.2205
 4572TIP3    H235276   3.873   0.626   5.381  2.4121  1.1702 -0.3683
 4573TIP3   OH235277   3.737   2.387   7.706  0.6083 -0.2903  0.0386
 4573TIP3    H135278   3.782   2.451   7.762 -0.9153 -0.0254  1.0110
 4573TIP3    H235279   3.808   2.344   7.659  1.9667 -0.3599  1.9870
 4574TIP3   OH235280   3.327   4.001   0.166  0.0277  0.2913  0.1390
 4574TIP3    H135281   3.274   4.026   0.242 -0.5080  0.9191 -0.4320
 4574TIP3    H235282   3.393   3.941   0.202 -0.2063  0.5877  1.1020
 4575TIP3   OH235283   4.508   6.932   1.243  0.0850  0.0536 -0.4973
 4575TIP3    H135284   4.547   7.001   1.298  1.8634 -0.3004 -1.2375
 4575TIP3    H235285   4.454   6.882   1.304 -1.1937  1.9954  0.0839
 4576TIP3   OH235286   5.237   6.025   8.194  0.5417  0.0778 -0.4501
 4576TIP3    H135287   5.255   6.043   8.101  0.5091 -4.4893 -1.5447
 4576TIP3    H235288   5.142   6.034   8.201  0.7038  2.3028 -0.2538
 4577TIP3   OH235289   6.205   3.147   7.019  0.2563  0.2019 -0.2429
 4577TIP3    H135290   6.266   3.157   6.946 -0.4229  0.1905 -0.8184
 4577TIP3    H235291   6.180   3.054   7.018  0.6626  0.0783  0.3496
 4578TIP3   OH235292   4.171   2.666   0.665  0.7400 -0.1056 -0.5565
 4578TIP3    H135293   4.113   2.742   0.671  1.2952  0.2904 -0.0317
 4578TIP3    H235294   4.178   2.648   0.571  0.6198  0.5156 -0.6869
 4579TIP3   OH235295   6.680   4.213   1.066  0.7078 -0.3571  0.1169
 4579TIP3    H135296   6.721   4.267   0.999 -1.3201 -1.2126 -1.9394
 4579TIP3    H235297   6.743   4.143   1.084  1.6205  0.3634 -0.2639
 4580TIP3   OH235298   3.838   3.625   6.175  0.7501  0.3270  0.2077
 4580TIP3    H135299   3.799   3.700   6.128  0.6706  0.6082  0.7162
 4580TIP3    H235300   3.855   3.561   6.106  2.1038  1.3372 -0.4621
 4581TIP3   OH235301   6.663   6.726   1.815  0.1069  0.1433  0.3129
 4581TIP3    H135302   6.659   6.821   1.820 -3.8257  0.1125  0.9693
 4581TIP3    H235303   6.598   6.703   1.749  2.0240 -2.1078 -0.9371
 4582TIP3   OH235304   0.719   0.135   6.691 -0.1829 -0.2562  0.6517
 4582TIP3    H135305   0.774   0.057   6.686 -0.1812 -0.1993 -0.2706
 4582TIP3    H235306   0.691   0.151   6.601  0.1017  1.0139  0.7755
 4583TIP3   OH235307   1.459   4.888   6.665  0.3074  0.5015 -0.3398
 4583TIP3    H135308   1.519   4.923   6.731 -0.4450 -1.1673  1.3199
 4583TIP3    H235309   1.514   4.864   6.591  1.2355  2.0193 -0.1786
 4584TIP3   OH235310   6.816   4.585   7.022 -0.3021  0.2256  0.2235
 4584TIP3    H135311   6.731   4.571   6.980 -0.7903  0.9206  0.9309
 4584TIP3    H235312   6.806   4.546   7.109  0.5563 -0.8407 -0.1362
 4585TIP3   OH235313   2.313   2.442   1.688 -0.2575 -0.0731 -0.0091
 4585TIP3    H135314   2.229   2.485   1.671 -0.2397  0.3319  0.8699
 4585TIP3    H235315   2.310   2.420   1.781  0.3882 -0.5562 -0.0950
 4586TIP3   OH235316   2.045   3.130   6.896  0.6238  0.2297  0.0737
 4586TIP3    H135317   2.008   3.206   6.851  1.2412  0.6858  0.3170
 4586TIP3    H235318   1.986   3.057   6.874 -1.2623  1.1908  1.6064
 4587TIP3   OH235319   3.977   6.022   7.783  0.1785  0.7100 -0.2100
 4587TIP3    H135320   4.070   6.008   7.768  0.0367  1.5364 -2.1570
 4587TIP3    H235321   3.958   6.107   7.742 -1.4323  0.5429  0.1010
 4588TIP3   OH235322   5.600   6.045   8.034  0.2774  0.2725  0.1164
 4588TIP3    H135323   5.682   6.047   8.082  0.2770 -1.5031  0.2585
 4588TIP3    H235324   5.607   6.117   7.971  0.9235  1.6333  1.6894
 4589TIP3   OH235325   5.134   5.074   0.334 -0.2967 -0.3400  0.1754
 4589TIP3    H135326   5.115   4.982   0.351  0.0232 -1.0335 -2.7613
 4589TIP3    H235327   5.071   5.101   0.267 -1.1397  1.9708  1.7671
 4590TIP3   OH235328   0.631   5.584   0.001 -0.4758 -0.0153 -0.7016
 4590TIP3    H135329   0.615   5.521   0.072  0.6319 -0.0112 -0.4294
 4590TIP3    H235330   0.637   5.530  -0.078  1.0301 -0.3522 -0.3936
 4591TIP3   OH235331   1.949   1.670   1.146 -0.5231 -0.1902 -0.3971
 4591TIP3    H135332   2.006   1.619   1.203 -0.1897 -0.2834 -0.8128
 4591TIP3    H235333   1.918   1.741   1.202 -0.3404 -0.3772 -0.0491
 4592TIP3   OH235334   1.520   5.667   6.355 -0.4464 -0.0120  0.1198
 4592TIP3    H135335   1.475   5.626   6.281 -0.1371  0.3685 -0.2864
 4592TIP3    H235336   1.489   5.758   6.353  2.4421  1.0717 -1.9392
 4593TIP3   OH235337   5.333   2.337   8.107 -0.2234 -0.1473 -0.0331
 4593TIP3    H135338   5.287   2.265   8.150  1.5543 -1.9400 -0.9705
 4593TIP3    H235339   5.269   2.372   8.045 -1.7789  0.4745  1.8099
 4594TIP3   OH235340   2.495   3.623   1.002 -0.8730  0.2622 -0.3485
 4594TIP3    H135341   2.472   3.546   1.053 -0.7338  0.6700  0.3453
 4594TIP3    H235342   2.585   3.607   0.974 -0.1465  1.0001  1.4276
 4595TIP3   OH235343   2.772   1.291   6.899 -0.2356  0.4088  0.2184
 4595TIP3    H135344   2.680   1.270   6.883  0.3222 -1.7536 -0.6646
 4595TIP3    H235345   2.814   1.276   6.814  0.7041  3.2407  0.0791
 4596TIP3   OH235346   2.691   6.588   7.275 -0.4060  0.6548 -0.0704
 4596TIP3    H135347   2.750   6.655   7.311 -1.3111  0.6775  1.4618
 4596TIP3    H235348   2.637   6.635   7.212 -1.0197  1.4028  0.9745
 4597TIP3   OH235349   5.016   2.372   6.988 -0.4363 -0.4454 -0.1853
 4597TIP3    H135350   4.950   2.303   6.985  1.6993 -2.6394 -1.4242
 4597TIP3    H235351   5.082   2.344   6.924  0.0948  3.3524 -1.5602
 4598TIP3   OH235352   5.434   2.826   7.476  0.1018  0.4353  0.0843
 4598TIP3    H135353   5.437   2.740   7.517 -0.0663  0.5410  0.3231
 4598TIP3    H235354   5.505   2.826   7.413  0.1426  0.1446  0.1320
 4599TIP3   OH235355   2.076   4.815   7.462  0.0931 -0.2952 -0.2218
 4599TIP3    H135356   2.109   4.776   7.380 -2.0688 -0.0722 -1.2662
 4599TIP3    H235357   2.082   4.745   7.526  0.8064 -0.8147 -0.8334
 4600TIP3   OH235358   6.010   6.522   7.542 -0.3995  0.3730  0.1391
 4600TIP3    H135359   6.054   6.600   7.574 -2.5425  1.4323  0.7004
 4600TIP3    H235360   5.989   6.472   7.621 -0.9382  0.3129 -0.0354
 4601TIP3   OH235361   2.962   0.593   1.232 -0.2108 -0.2675 -0.5182
 4601TIP3    H135362   3.031   0.535   1.200 -1.3778 -0.5328 -2.8606
 4601TIP3    H235363   2.947   0.566   1.322  2.1421 -0.7321 -0.2071
 4602TIP3   OH235364   3.784   3.725   1.119 -0.0721 -0.7927 -0.5306
 4602TIP3    H135365   3.708   3.677   1.088  2.0690 -3.5260 -2.0321
 4602TIP3    H235366   3.835   3.660   1.168  0.4221  1.4586  2.2012
 4603TIP3   OH235367   6.267   5.841   1.042 -0.5773  0.0592  0.5177
 4603TIP3    H135368   6.196   5.782   1.066 -0.3971  0.6121  2.6245
 4603TIP3    H235369   6.343   5.785   1.032 -0.9457 -0.3436 -0.0551
 4604TIP3   OH235370   0.247   3.808   6.709  0.1311 -0.0432  0.4116
 4604TIP3    H135371   0.242   3.715   6.685  1.8842 -0.4215  1.3912
 4604TIP3    H235372   0.155   3.836   6.713 -0.3865 -1.1441 -2.0098
 4605TIP3   OH235373   4.465   0.374   6.601 -0.8703  0.4138 -0.2692
 4605TIP3    H135374   4.488   0.283   6.623 -1.2458  0.6377  1.1440
 4605TIP3    H235375   4.431   0.410   6.683  0.0994  2.1017 -0.5737
 4606TIP3   OH235376   1.355   2.087   6.421  0.0892 -0.2216  0.1036
 4606TIP3    H135377   1.308   2.029   6.361  0.3307 -0.4039  0.0878
 4606TIP3    H235378   1.405   2.146   6.364  1.9141 -1.6905  0.0982
 4607TIP3   OH235379   6.225   3.707   2.071 -0.3275  0.2394 -0.1260
 4607TIP3    H135380   6.140   3.726   2.110 -0.5067 -0.4472 -0.1691
 4607TIP3    H235381   6.288   3.720   2.143 -0.4568  0.8068 -0.1120
 4608TIP3   OH235382   6.040   6.220   8.212 -0.2000  0.0594 -0.6361
 4608TIP3    H135383   6.082   6.271   8.281  1.8355 -0.5654 -1.3507
 4608TIP3    H235384   6.029   6.281   8.139  2.7968 -0.5106 -1.7185
 4609TIP3   OH235385   2.675   1.936   1.758  0.4665  0.1395 -0.2126
 4609TIP3    H135386   2.746   1.890   1.713  0.6732  0.7526 -0.5325
 4609TIP3    H235387   2.671   2.022   1.715 -0.1609  0.2836  0.1148
 4610TIP3   OH235388   6.337   6.571   0.622 -0.0337  0.2654 -0.3986
 4610TIP3    H135389   6.324   6.575   0.528 -1.0090  2.4522 -0.2351
 4610TIP3    H235390   6.265   6.516   0.654 -0.8835  1.1328 -0.7747
 4611TIP3   OH235391   6.054   2.601   6.587 -0.5999  0.4113  0.1564
 4611TIP3    H135392   5.992   2.674   6.575 -1.4671 -0.3071  0.1854
 4611TIP3    H235393   6.050   2.553   6.505 -0.8640 -0.2259  0.5376
 4612TIP3   OH235394   6.107   3.136   0.119 -0.4690  0.1165 -0.1868
 4612TIP3    H135395   6.181   3.193   0.097 -1.0445  1.1721  0.4964
 4612TIP3    H235396   6.096   3.147   0.213 -2.3251  1.0276 -0.4683
 4613TIP3   OH235397   5.296   4.853   6.325 -0.0731 -0.6916 -0.0627
 4613TIP3    H135398   5.343   4.935   6.313  2.4012 -1.9590  0.2974
 4613TIP3    H235399   5.247   4.841   6.243  1.0937  0.1648 -0.9190
 4614TIP3   OH235400   0.931   1.794   7.993 -0.0476  0.4724  0.2093
 4614TIP3    H135401   0.884   1.851   7.933  0.4942 -0.0179 -0.7061
 4614TIP3    H235402   1.004   1.760   7.941 -0.2220 -0.8610  0.7916
 4615TIP3   OH235403   1.819   2.532   1.217 -0.1781 -0.2964 -0.6255
 4615TIP3    H135404   1.908   2.570   1.216  0.1042 -0.9505 -0.5769
 4615TIP3    H235405   1.833   2.438   1.229 -0.9567 -0.0895  3.3758
 4616TIP3   OH235406   2.884   5.305   7.325 -0.6562 -0.6390  0.2823
 4616TIP3    H135407   2.891   5.394   7.290  0.3128 -2.0881 -3.6721
 4616TIP3    H235408   2.790   5.294   7.342 -0.8213  1.0108  0.6811
 4617TIP3   OH235409   0.993   1.716   7.258  0.3726  0.2126 -0.5360
 4617TIP3    H135410   1.059   1.703   7.190 -1.0536 -1.5442 -1.6440
 4617TIP3    H235411   0.939   1.788   7.225  0.4273  0.1920 -0.6713
 4618TIP3   OH235412   5.069   2.900   1.638 -0.2555  0.2652 -0.2308
 4618TIP3    H135413   5.020   2.979   1.614  0.7126  0.5994 -1.1240
 4618TIP3    H235414   5.001   2.837   1.662 -1.0942  0.9763 -0.6843
 4619TIP3   OH235415   3.131   2.784   6.880 -0.1496 -0.2322 -0.1671
 4619TIP3    H135416   3.179   2.848   6.828  0.1776 -0.7009 -0.4566
 4619TIP3    H235417   3.083   2.732   6.817  0.2281 -0.7874 -0.0088
 4620TIP3   OH235418   1.513   0.746   7.954  0.0163 -0.1951  0.0710
 4620TIP3    H135419   1.418   0.735   7.945  0.1587 -0.3748 -1.4073
 4620TIP3    H235420   1.525   0.840   7.966 -0.4489 -0.3457  2.1141
 4621TIP3   OH235421   0.649   5.574   0.371  0.3693 -0.5042  0.7680
 4621TIP3    H135422   0.595   5.534   0.439 -0.7587 -0.6764 -0.1921
 4621TIP3    H235423   0.587   5.621   0.315  1.2475 -0.4804 -0.2262
 4622TIP3   OH235424   1.821   2.952   6.268 -0.2017 -0.6826  0.6040
 4622TIP3    H135425   1.850   2.944   6.177  2.0467 -0.1483  1.1961
 4622TIP3    H235426   1.898   2.928   6.319 -1.5803 -1.4974  2.4013
 4623TIP3   OH235427   5.752   1.316   0.585  0.2077 -0.0212  0.4113
 4623TIP3    H135428   5.717   1.379   0.648 -0.9481  0.0210 -0.2348
 4623TIP3    H235429   5.766   1.367   0.506 -2.5607 -0.8331 -0.7486
 4624TIP3   OH235430   5.520   1.569   0.163 -0.1076 -0.5389 -0.3258
 4624TIP3    H135431   5.568   1.490   0.139  2.0575  0.2721  1.0604
 4624TIP3    H235432   5.552   1.591   0.250 -2.7390  0.3282  0.5037
 4625TIP3   OH235433   4.160   1.118   8.109  0.0320  0.3664  0.0573
 4625TIP3    H135434   4.102   1.194   8.103 -0.7813 -0.2771 -0.2439
 4625TIP3    H235435   4.248   1.157   8.118 -0.4680  1.3431  1.0023
 4626TIP3   OH235436   4.544   1.667   7.352  0.2923  0.1480  0.3768
 4626TIP3    H135437   4.602   1.610   7.300 -0.3863  1.5850 -2.1357
 4626TIP3    H235438   4.604   1.718   7.406  1.0449 -1.3747  1.0534
 4627TIP3   OH235439   0.135   5.066   1.617 -0.2954  0.0393 -0.1113
 4627TIP3    H135440   0.222   5.060   1.657 -0.7328 -0.5418  0.7875
 4627TIP3    H235441   0.109   5.157   1.630  0.4232  0.3835 -0.9422
 4628TIP3   OH235442   4.250   4.935   2.250 -0.0381 -0.5690 -0.0501
 4628TIP3    H135443   4.158   4.954   2.235  0.4786  2.5608  0.0718
 4628TIP3    H235444   4.296   4.980   2.179  1.4661 -0.3901  0.9796
 4629TIP3   OH235445   4.472   5.856   7.938  0.3638  0.4495 -0.1302
 4629TIP3    H135446   4.542   5.870   7.874  2.0473 -0.8240  1.3294
 4629TIP3    H235447   4.486   5.924   8.004 -0.0795  0.4700 -0.0522
 4630TIP3   OH235448   4.129   0.919   0.362 -0.2097 -0.3269  0.8125
 4630TIP3    H135449   4.117   0.909   0.268 -0.3098  0.8820  0.6776
 4630TIP3    H235450   4.204   0.978   0.370 -0.0325 -0.6384  1.4999
 4631TIP3   OH235451   1.029   4.001   7.791 -0.1332 -0.7089  0.1446
 4631TIP3    H135452   0.957   4.043   7.838 -0.9208 -2.8118  0.9060
 4631TIP3    H235453   1.100   3.997   7.855  0.4968  0.7528 -0.4025
 4632TIP3   OH235454   6.597   5.857   7.594 -0.4054  0.0507  0.5133
 4632TIP3    H135455   6.616   5.879   7.503 -1.4923 -0.8523  0.0378
 4632TIP3    H235456   6.536   5.924   7.623 -0.5155  0.0049  0.3881
 4633TIP3   OH235457   1.966   5.622   7.845 -0.2785  0.3542  0.1365
 4633TIP3    H135458   1.954   5.595   7.754 -0.4119 -0.4696  0.3891
 4633TIP3    H235459   2.039   5.569   7.876 -1.0518 -0.3003  0.8771
 4634TIP3   OH235460   2.111   0.176   7.556  0.0465 -0.4281  0.9184
 4634TIP3    H135461   2.147   0.194   7.469  2.7624  0.1865  2.0886
 4634TIP3    H235462   2.062   0.256   7.578  0.2840 -0.1422  0.4259
 4635TIP3   OH235463   1.760   3.942   7.871  0.3262  0.4790  0.0560
 4635TIP3    H135464   1.708   3.955   7.791  1.2147  0.5307 -0.5311
 4635TIP3    H235465   1.708   3.982   7.940 -0.5540  0.2644 -0.4654
 4636TIP3   OH235466   5.224   4.334   7.832 -0.0814 -0.2826  0.5815
 4636TIP3    H135467   5.277   4.356   7.756  0.9745 -0.5279  1.2148
 4636TIP3    H235468   5.227   4.239   7.837 -1.1192 -0.3404  0.2677
 4637TIP3   OH235469   3.490   3.344   0.884  0.0785 -0.1385  0.3375
 4637TIP3    H135470   3.520   3.342   0.975  1.0471  2.7385  0.1693
 4637TIP3    H235471   3.567   3.319   0.833  0.5869  1.6117  0.1908
 4638TIP3   OH235472   5.998   6.455   8.080  0.1247  0.3146 -0.4892
 4638TIP3    H135473   5.932   6.483   8.017  0.8297  1.5348 -0.7235
 4638TIP3    H235474   5.976   6.503   8.160  0.4792  0.3972 -0.4409
 4639TIP3   OH235475   2.164   5.688   6.142  0.3909 -0.1437 -0.7651
 4639TIP3    H135476   2.254   5.656   6.144  0.3079 -0.4053  0.7913
 4639TIP3    H235477   2.126   5.649   6.064  1.4132 -0.6707 -1.0170
 4640TIP3   OH235478   1.074   5.938   5.972  0.0971 -1.0883  0.2054
 4640TIP3    H135479   1.099   5.875   5.905  0.5754 -0.8028  0.1115
 4640TIP3    H235480   0.981   5.956   5.955 -0.2412 -2.3050  0.6739
 4641TIP3   OH235481   0.239   2.434   0.560 -0.6046 -0.0712 -0.2818
 4641TIP3    H135482   0.160   2.427   0.507 -2.4507  1.9464  1.9711
 4641TIP3    H235483   0.252   2.528   0.572  1.8571 -0.3584 -0.1114
 4642TIP3   OH235484   1.704   1.285   6.694  0.4372 -0.1248  0.4262
 4642TIP3    H135485   1.689   1.211   6.754 -1.5953 -1.2727 -1.3503
 4642TIP3    H235486   1.798   1.298   6.695  0.5515 -0.5363  3.3224
 4643TIP3   OH235487   1.921   4.750   0.727 -0.5183  0.7310 -0.0280
 4643TIP3    H135488   1.940   4.742   0.634 -0.4567 -0.4461  0.0731
 4643TIP3    H235489   1.865   4.675   0.747  0.2395  0.4316  1.0700
 4644TIP3   OH235490   3.745   5.684   0.917  0.4965 -0.0771  0.0174
 4644TIP3    H135491   3.712   5.672   0.828 -0.6622  1.7469  0.1368
 4644TIP3    H235492   3.688   5.630   0.972  1.6293 -1.7327 -0.3674
 4645TIP3   OH235493   5.893   3.393   7.900 -0.5628 -0.1961 -0.1053
 4645TIP3    H135494   5.970   3.400   7.844 -1.8540 -1.6578 -2.2237
 4645TIP3    H235495   5.927   3.404   7.989  2.3933 -2.4499 -0.7781
 4646TIP3   OH235496   6.215   0.989   7.985  0.1155  0.9179  0.2707
 4646TIP3    H135497   6.244   0.959   7.899 -0.8477 -3.3637  1.1919
 4646TIP3    H235498   6.296   1.007   8.033  0.7183  1.6851 -1.0029
 4647TIP3   OH235499   3.541   5.268   2.358 -0.0924  0.3365 -0.3584
 4647TIP3    H135500   3.538   5.175   2.377 -1.9344  0.0908 -1.6528
 4647TIP3    H235501   3.619   5.279   2.303  0.3552 -0.3606  0.1283
 4648TIP3   OH235502   4.494   4.432   1.203 -0.0044  0.0012 -0.2234
 4648TIP3    H135503   4.447   4.353   1.178 -0.4573 -0.4952  1.9929
 4648TIP3    H235504   4.452   4.502   1.153  0.2469 -1.0660 -2.0340
 4649TIP3   OH235505   2.716   1.500   1.586 -0.0262  0.2520  0.2541
 4649TIP3    H135506   2.668   1.439   1.529 -1.2486  0.4218  1.0647
 4649TIP3    H235507   2.687   1.479   1.674  1.8172  0.0166  0.8574
 4650TIP3   OH235508   3.038   3.178   6.680 -0.2902  0.2191 -0.2790
 4650TIP3    H135509   2.958   3.131   6.705  0.0688  0.1618  0.8284
 4650TIP3    H235510   3.105   3.145   6.740  0.2160  1.3693 -0.1852
 4651TIP3   OH235511   3.759   3.938   0.110 -0.4685 -0.1266  0.1069
 4651TIP3    H135512   3.843   3.970   0.142 -1.2626  0.7952  1.3288
 4651TIP3    H235513   3.768   3.842   0.111  1.6536 -0.1023 -2.8520
 4652TIP3   OH235514   0.371   1.669   0.692 -0.5380 -0.1931 -0.5878
 4652TIP3    H135515   0.302   1.629   0.638  0.6857  0.2086 -2.5530
 4652TIP3    H235516   0.347   1.761   0.697  0.0769  0.0386 -1.6814
 4653TIP3   OH235517   3.296   1.421   1.226 -0.0980 -0.1922 -0.5776
 4653TIP3    H135518   3.291   1.385   1.314 -1.4000 -1.8988 -1.2919
 4653TIP3    H235519   3.213   1.467   1.213  1.1522  2.4377 -0.0326
 4654TIP3   OH235520   6.350   3.195   6.452  0.4113  0.0929 -0.0270
 4654TIP3    H135521   6.271   3.168   6.498  0.1891 -0.5908 -0.7860
 4654TIP3    H235522   6.412   3.123   6.467  0.4989  0.0907 -0.3836
 4655TIP3   OH235523   6.877   6.293   1.484  0.1686 -0.5243  0.2928
 4655TIP3    H135524   6.783   6.299   1.501  0.1658 -2.0414  0.9754
 4655TIP3    H235525   6.887   6.321   1.393 -0.7651  0.8741  0.5888
 4656TIP3   OH235526   4.080   4.995   0.210 -0.0636 -0.5198 -0.2361
 4656TIP3    H135527   4.103   5.050   0.135 -1.6698  0.1007 -0.3142
 4656TIP3    H235528   4.051   5.057   0.277 -0.9598 -1.2005  0.0300
 4657TIP3   OH235529   2.302   5.409   0.849  0.3770 -0.0574  0.3502
 4657TIP3    H135530   2.366   5.361   0.797  0.0824  1.0290 -1.0591
 4657TIP3    H235531   2.333   5.500   0.848 -1.2119  0.5054 -0.4355
 4658TIP3   OH235532   4.371   6.061   0.529 -0.1024  0.1078 -0.3604
 4658TIP3    H135533   4.332   5.986   0.573  0.3879 -1.1373 -1.9317
 4658TIP3    H235534   4.384   6.126   0.598 -0.1334 -1.4071  1.1325
 4659TIP3   OH235535   2.886   1.079   7.038 -0.3153 -0.0961 -1.2305
 4659TIP3    H135536   2.971   1.091   7.080 -0.6784 -1.0619 -0.1600
 4659TIP3    H235537   2.866   1.165   6.999  0.9942  0.2260 -1.2448
 4660TIP3   OH235538   5.991   0.006   7.002  0.2074 -0.2235  0.3066
 4660TIP3    H135539   6.049   0.034   7.073  0.9179  1.2987 -0.8028
 4660TIP3    H235540   5.963  -0.082   7.027 -1.3710  1.0468  3.5534
 4661TIP3   OH235541   3.073   5.721   6.135 -0.4337  0.4570 -0.4690
 4661TIP3    H135542   3.012   5.792   6.149  0.9608  1.2237  2.4808
 4661TIP3    H235543   3.154   5.764   6.108 -0.2478 -0.2432 -1.0583
 4662TIP3   OH235544   4.838   2.171   6.993 -0.0951  0.4457 -0.0289
 4662TIP3    H135545   4.761   2.196   6.943  0.2841  0.0660 -0.8248
 4662TIP3    H235546   4.821   2.081   7.022 -0.6029  0.8872  1.1330
 4663TIP3   OH235547   6.790   1.602   0.056  0.3206  0.0993  0.6503
 4663TIP3    H135548   6.881   1.593   0.025  0.4868 -0.5958  1.3154
 4663TIP3    H235549   6.791   1.681   0.110  0.4130  0.3678  0.2628
 4664TIP3   OH235550   3.381   3.593   7.714 -0.2064 -0.0349  0.3725
 4664TIP3    H135551   3.454   3.609   7.774  0.6658 -1.7525 -0.1485
 4664TIP3    H235552   3.410   3.634   7.632  0.1773 -0.6849  0.1760
 4665TIP3   OH235553   6.874   6.239   8.037  0.1784  0.5476  0.5426
 4665TIP3    H135554   6.790   6.270   8.071  0.0416 -0.1249  0.8342
 4665TIP3    H235555   6.887   6.154   8.079 -0.6002 -0.9281 -1.9247
 4666TIP3   OH235556   1.314   6.463   0.654  0.9180 -0.4791  0.4248
 4666TIP3    H135557   1.333   6.369   0.653  1.7944 -0.3207  1.1778
 4666TIP3    H235558   1.398   6.505   0.636  0.4800  0.1649 -0.1895
 4667TIP3   OH235559   1.386   2.561   7.236  0.6036 -0.3049  0.6731
 4667TIP3    H135560   1.371   2.468   7.217  0.2412 -0.4589  1.6329
 4667TIP3    H235561   1.354   2.607   7.159 -1.0485 -0.8856  0.9675
 4668TIP3   OH235562   3.033   2.009   1.705 -0.4595 -0.3649  0.1334
 4668TIP3    H135563   3.080   1.926   1.698  0.9895  0.4057  0.2741
 4668TIP3    H235564   3.034   2.045   1.616 -2.2967 -1.0962 -0.2211
 4669TIP3   OH235565   2.859   5.326   1.422 -0.4194  0.0573 -0.5109
 4669TIP3    H135566   2.862   5.234   1.448 -1.8064  0.4076  1.0836
 4669TIP3    H235567   2.790   5.330   1.356 -0.2965 -0.0555 -0.6472
 4670TIP3   OH235568   0.379   6.226   7.840 -0.0394 -0.3165 -0.5869
 4670TIP3    H135569   0.328   6.216   7.760  0.4879  0.5958 -1.0526
 4670TIP3    H235570   0.324   6.279   7.898  0.0124 -0.0882 -0.7477
 4671TIP3   OH235571   1.726   5.812   6.714 -0.1435  0.2059 -0.5268
 4671TIP3    H135572   1.764   5.896   6.740  0.1215 -0.2352  0.5911
 4671TIP3    H235573   1.799   5.750   6.720 -1.0854 -0.8004  2.3409
 4672TIP3   OH235574   1.589   2.639   7.426  0.4626  0.2575  0.4087
 4672TIP3    H135575   1.529   2.583   7.377 -0.4548  1.8034 -0.2955
 4672TIP3    H235576   1.628   2.696   7.360  0.4402  1.2855  1.2565
 4673TIP3   OH235577   2.730   4.663   0.130  0.1921 -0.2786  0.3405
 4673TIP3    H135578   2.746   4.570   0.145 -0.2656 -0.8932 -2.4668
 4673TIP3    H235579   2.691   4.667   0.043  0.1815  2.5529  0.3861
 4674TIP3   OH235580   7.047   4.409   6.857  0.2541 -0.3304 -0.5668
 4674TIP3    H135581   7.081   4.449   6.937  1.0156  1.0165 -1.5192
 4674TIP3    H235582   7.016   4.483   6.805 -1.6075 -1.3014 -0.9161
 4675TIP3   OH235583   5.232   0.339   1.128  0.2082 -0.1780 -0.3052
 4675TIP3    H135584   5.266   0.373   1.211 -1.4030 -0.4730  0.4995
 4675TIP3    H235585   5.310   0.310   1.081  1.3248  1.5743  0.3607
 4676TIP3   OH235586   2.683   6.914   0.389  0.4785  0.1030  0.0278
 4676TIP3    H135587   2.747   6.933   0.457 -0.3702 -1.2942  1.2562
 4676TIP3    H235588   2.610   6.874   0.435  0.1706 -1.5563 -1.7789
 4677TIP3   OH235589   0.853   2.420   6.401 -0.1496 -0.3220 -0.3138
 4677TIP3    H135590   0.934   2.385   6.365  0.3008  1.0308 -0.6703
 4677TIP3    H235591   0.809   2.463   6.328 -0.9809 -0.6394 -0.0245
 4678TIP3   OH235592   0.220   6.622   7.226 -0.6833  0.0925  0.7319
 4678TIP3    H135593   0.136   6.585   7.252 -2.2310  2.5364 -0.4492
 4678TIP3    H235594   0.208   6.648   7.135  1.8861 -0.7778  0.0369
 4679TIP3   OH235595   0.600   1.522   0.732  0.3613 -0.4130  0.1984
 4679TIP3    H135596   0.627   1.587   0.797 -0.6823 -0.8477  1.1013
 4679TIP3    H235597   0.527   1.563   0.686 -0.9101 -1.2779  1.4001
 4680TIP3   OH235598   4.597   4.326   0.441 -0.1584 -0.0949  0.1486
 4680TIP3    H135599   4.583   4.407   0.392  1.5906 -1.1976 -2.4137
 4680TIP3    H235600   4.511   4.284   0.443 -0.6740  0.9055 -0.2322
 4681TIP3   OH235601   4.860   5.869   6.129  0.5188  0.2050 -0.0823
 4681TIP3    H135602   4.840   5.784   6.089  0.8651 -0.3851  0.9789
 4681TIP3    H235603   4.946   5.893   6.094  0.7401 -0.2248  0.1672
 4682TIP3   OH235604   4.798   4.103   1.239 -0.0156 -0.0414  0.0305
 4682TIP3    H135605   4.828   4.114   1.329  1.7409 -0.5845 -0.4587
 4682TIP3    H235606   4.878   4.089   1.188 -0.9347  0.6090 -1.6783
 4683TIP3   OH235607   2.304   1.313   7.882 -0.4368  0.7681  0.5347
 4683TIP3    H135608   2.241   1.330   7.812 -1.2461  1.0852  1.3294
 4683TIP3    H235609   2.333   1.223   7.867  1.0063  1.4877 -1.4460
 4684TIP3   OH235610   6.464   1.233   1.660  0.2728  0.2514  0.5146
 4684TIP3    H135611   6.430   1.319   1.636  2.1846  0.5909 -1.3520
 4684TIP3    H235612   6.537   1.219   1.599  1.0667 -1.9705  1.8592
 4685TIP3   OH235613   6.218   3.249   7.328  0.1134  0.1370 -0.4530
 4685TIP3    H135614   6.240   3.342   7.330 -0.0479  0.1969 -1.1074
 4685TIP3    H235615   6.179   3.236   7.241  0.5693 -0.6417 -0.5446
 4686TIP3   OH235616   3.988   4.101   0.635 -0.5415 -0.0120  0.6590
 4686TIP3    H135617   4.040   4.022   0.620  0.6040  0.7795  0.2470
 4686TIP3    H235618   4.053   4.172   0.634 -1.6036  0.9844  0.5229
 4687TIP3   OH235619   3.557   4.154   7.317 -0.3201 -0.3131  0.0120
 4687TIP3    H135620   3.652   4.159   7.305 -0.1475 -0.8424  1.0338
 4687TIP3    H235621   3.532   4.238   7.356 -0.5131  0.4215 -1.6291
 4688TIP3   OH235622   4.102   4.136   1.217  0.1521  0.3544 -0.2383
 4688TIP3    H135623   4.121   4.164   1.306 -1.6484  1.6383 -0.2044
 4688TIP3    H235624   4.071   4.046   1.226 -0.4597  0.6272  0.5033
 4689TIP3   OH235625   2.396   1.030   1.401 -0.3289 -0.2798  0.2633
 4689TIP3    H135626   2.405   1.006   1.309  1.5836 -0.8454  0.5631
 4689TIP3    H235627   2.307   1.066   1.407 -0.9136 -1.2685 -1.5501
 4690TIP3   OH235628   1.184   3.428   7.755  0.0505 -0.3941 -0.0783
 4690TIP3    H135629   1.113   3.420   7.690 -0.3458  2.2658 -0.1120
 4690TIP3    H235630   1.139   3.419   7.839 -0.5137  1.7806 -0.0824
 4691TIP3   OH235631   5.650   4.590   1.333 -0.3277 -0.3945  0.2558
 4691TIP3    H135632   5.584   4.598   1.265 -0.6687  1.6021  0.7623
 4691TIP3    H235633   5.651   4.497   1.355 -2.8823 -0.5176  0.1275
 4692TIP3   OH235634   0.806   2.026   6.009  0.4788 -0.5262  0.3977
 4692TIP3    H135635   0.818   1.932   5.995  1.0289 -0.3346 -0.5393
 4692TIP3    H235636   0.872   2.067   5.953 -2.2050  0.5250 -2.2946
 4693TIP3   OH235637   6.584   2.628   1.380  0.7554 -0.3030  0.1082
 4693TIP3    H135638   6.659   2.572   1.401 -0.3364 -1.7254  0.3735
 4693TIP3    H235639   6.622   2.714   1.362  2.5065 -1.1815 -0.5443
 4694TIP3   OH235640   4.905   2.417   7.695 -0.0498 -0.7730  0.7017
 4694TIP3    H135641   4.923   2.401   7.602 -1.7961  0.0680  0.1737
 4694TIP3    H235642   4.991   2.429   7.734  0.7156  2.3616 -1.4951
 4695TIP3   OH235643   3.848   2.063   7.794  0.2364 -0.0347  0.2915
 4695TIP3    H135644   3.850   1.999   7.723 -2.0634 -1.6587  1.5654
 4695TIP3    H235645   3.899   2.137   7.761 -0.0700 -1.0330 -2.7159
 4696TIP3   OH235646   6.043   0.098   0.592  0.1005  0.1466  0.1383
 4696TIP3    H135647   5.957   0.058   0.601  0.7952 -1.3658  0.3176
 4696TIP3    H235648   6.059   0.100   0.497 -0.3134  0.8676  0.0767
 4697TIP3   OH235649   6.759   1.135   0.054  0.1372  0.3508 -0.0742
 4697TIP3    H135650   6.779   1.139  -0.040 -1.5816  1.3416 -0.4369
 4697TIP3    H235651   6.814   1.203   0.093  0.2647  0.4871 -0.4843
 4698TIP3   OH235652   2.668   2.852   0.003  0.1620  0.0408  0.5592
 4698TIP3    H135653   2.715   2.772  -0.022  1.4649  0.8540  0.3757
 4698TIP3    H235654   2.734   2.921   0.001 -1.4499  1.6730 -1.9497
 4699TIP3   OH235655   2.315   6.907   7.117  0.0483 -0.1925 -0.0033
 4699TIP3    H135656   2.393   6.855   7.094  0.4569  0.2466  0.3768
 4699TIP3    H235657   2.299   6.887   7.209  2.0041  2.5534  1.0832
 4700TIP3   OH235658   5.187   0.645   1.416  0.0191 -0.0882 -0.0554
 4700TIP3    H135659   5.139   0.618   1.338  2.1429 -0.7637 -1.2099
 4700TIP3    H235660   5.266   0.687   1.382  0.9631 -0.3263  1.7432
 4701TIP3   OH235661   5.037   2.224   0.709  0.3841 -0.3236  0.2711
 4701TIP3    H135662   4.976   2.294   0.686  0.0612 -0.7340 -0.1392
 4701TIP3    H235663   5.123   2.267   0.710  0.2157  0.0372 -0.1844
 4702TIP3   OH235664   3.633   4.934   1.231  0.1619  0.1324  0.0876
 4702TIP3    H135665   3.545   4.903   1.252  0.6670 -1.0827  0.4674
 4702TIP3    H235666   3.667   4.969   1.314  0.6238 -0.8777  0.3349
 4703TIP3   OH235667   1.927   1.630   6.913  0.1667  0.1703 -0.7529
 4703TIP3    H135668   1.874   1.631   6.833 -1.2986  2.5364  0.1268
 4703TIP3    H235669   1.886   1.563   6.968 -0.9795  0.8619 -0.7189
 4704TIP3   OH235670   5.199   0.062   0.495  0.4539 -0.3168 -0.1834
 4704TIP3    H135671   5.234  -0.023   0.467  1.3084  0.5484 -1.8662
 4704TIP3    H235672   5.241   0.125   0.437 -1.2160  1.1420  0.1229
 4705TIP3   OH235673   1.121   2.470   8.096  0.0132 -0.2093  0.4939
 4705TIP3    H135674   1.087   2.381   8.102 -0.2623 -0.1945 -0.6175
 4705TIP3    H235675   1.211   2.463   8.127 -0.3796 -0.6147  1.6277
 4706TIP3   OH235676   2.971   5.070   7.217  0.6786  0.5349  0.7777
 4706TIP3    H135677   2.938   5.153   7.249  0.3731  0.0542  1.7597
 4706TIP3    H235678   3.012   5.090   7.133 -0.2961  1.4876  0.5176
 4707TIP3   OH235679   3.813   4.785   0.812  0.0989 -0.2864  0.1399
 4707TIP3    H135680   3.784   4.787   0.721 -1.2418  0.9272  0.5658
 4707TIP3    H235681   3.757   4.720   0.854 -0.5468  0.4812  0.4870
 4708TIP3   OH235682   5.879   4.180   1.407 -0.2577 -0.5164 -0.1706
 4708TIP3    H135683   5.811   4.140   1.461 -0.3809  0.3904  0.3560
 4708TIP3    H235684   5.883   4.124   1.329  0.1531 -2.0143  0.9015
 4709TIP3   OH235685   4.077   5.935   7.455 -0.1629 -0.0599  0.2902
 4709TIP3    H135686   3.991   5.954   7.495 -0.8711 -1.5581 -0.4374
 4709TIP3    H235687   4.119   5.875   7.517 -1.3384 -2.5347 -1.1676
 4710TIP3   OH235688   0.946   1.750   0.975 -0.2804 -0.0646  0.0683
 4710TIP3    H135689   0.998   1.801   0.913 -0.1257 -1.4369 -0.9767
 4710TIP3    H235690   1.003   1.737   1.050  0.9457 -1.5373 -1.0548
 4711TIP3   OH235691   5.773   4.058   0.395  0.0437 -0.8066 -0.0129
 4711TIP3    H135692   5.689   4.099   0.415  0.0663 -1.2961  1.1404
 4711TIP3    H235693   5.772   4.046   0.300 -0.9869 -0.3893 -0.0638
 4712TIP3   OH235694   4.841   6.862   0.527  0.0898 -1.1803  0.3476
 4712TIP3    H135695   4.747   6.847   0.539 -0.5464  0.9077 -1.3138
 4712TIP3    H235696   4.878   6.775   0.513 -2.0345 -1.8929 -1.4978
 4713TIP3   OH235697   3.587   3.651   5.831  0.3110 -0.6064  0.5440
 4713TIP3    H135698   3.644   3.635   5.907 -0.0210 -0.9126  0.7300
 4713TIP3    H235699   3.597   3.744   5.813  1.1081 -0.7196  0.3836
 4714TIP3   OH235700   3.267   0.663   8.244 -0.1010  0.6706  1.0764
 4714TIP3    H135701   3.237   0.657   8.154  1.0455 -0.5281  0.7426
 4714TIP3    H235702   3.355   0.700   8.238 -0.1205  0.8394  1.7296
 4715TIP3   OH235703   1.483   2.823   7.902  0.2817  0.4783  0.7723
 4715TIP3    H135704   1.495   2.816   7.807 -1.4837  1.3379  0.4378
 4715TIP3    H235705   1.469   2.733   7.931  2.6378 -0.0116  0.5411
 4716TIP3   OH235706   1.336   2.425   6.761  0.1733  0.1276 -0.2520
 4716TIP3    H135707   1.245   2.402   6.745  0.1597  0.1249 -0.1726
 4716TIP3    H235708   1.362   2.478   6.686  0.0260  0.3572 -0.1416
 4717TIP3   OH235709   6.924   2.087   7.171  0.0055  0.3032  0.6118
 4717TIP3    H135710   6.907   2.040   7.090 -0.3332  0.5308  0.5455
 4717TIP3    H235711   6.914   2.180   7.148  1.9641  0.5083  0.4273
 4718TIP3   OH235712   3.829   6.862   0.302  0.2195  0.3707  0.0594
 4718TIP3    H135713   3.775   6.941   0.316 -0.0448  0.3672 -0.8870
 4718TIP3    H235714   3.829   6.850   0.208 -0.4606 -1.2783  0.2435
 4719TIP3   OH235715   6.856   6.779   0.448 -0.2859 -0.2293  0.1427
 4719TIP3    H135716   6.814   6.700   0.414  1.0213 -0.3940 -1.1454
 4719TIP3    H235717   6.933   6.792   0.393 -0.0117  1.4822  0.8583
 4720TIP3   OH235718   6.642   2.298   7.556  0.3620 -0.2287 -0.4590
 4720TIP3    H135719   6.665   2.389   7.577 -1.9267 -0.1622  2.3866
 4720TIP3    H235720   6.705   2.246   7.605  1.1904 -0.2202 -1.4771
 4721TIP3   OH235721   2.105   4.778   0.948  0.0917  0.1056  0.2439
 4721TIP3    H135722   2.029   4.762   0.892 -0.0389 -0.2163  0.5120
 4721TIP3    H235723   2.159   4.840   0.898 -0.3164  0.2914  0.0255
 4722TIP3   OH235724   1.833   3.578   0.023 -0.8050 -0.4173 -0.5555
 4722TIP3    H135725   1.759   3.604  -0.031 -0.0635  0.5119 -1.1708
 4722TIP3    H235726   1.806   3.598   0.112 -0.6604  1.6316 -0.9243
 4723TIP3   OH235727   3.000   0.108   7.100 -0.1448 -0.0301 -0.3412
 4723TIP3    H135728   3.054   0.029   7.102  0.6246  0.4896  1.4863
 4723TIP3    H235729   3.049   0.169   7.044  0.1333 -0.2422 -0.3324
 4724TIP3   OH235730   0.147   5.893   1.139  0.2926 -0.2745  0.1584
 4724TIP3    H135731   0.181   5.858   1.057  1.2702 -1.4285  1.0207
 4724TIP3    H235732   0.218   5.946   1.175 -0.0872  0.1320  0.3231
 4725TIP3   OH235733   5.178   3.778   1.137 -0.2944  0.2146  0.1901
 4725TIP3    H135734   5.271   3.801   1.138  0.4180 -1.9179 -2.5213
 4725TIP3    H235735   5.171   3.703   1.195 -0.6489  1.2345  1.4956
 4726TIP3   OH235736   0.027   3.169   6.572 -0.2683 -0.6926 -0.9127
 4726TIP3    H135737   0.055   3.201   6.486  0.3734  2.6881  0.3985
 4726TIP3    H235738  -0.055   3.123   6.555 -0.3148  0.1340 -3.2980
 4727TIP3   OH235739   6.576   0.650   1.513  0.3602  0.7220 -0.0245
 4727TIP3    H135740   6.529   0.712   1.458 -0.0237  0.0727 -0.4378
 4727TIP3    H235741   6.591   0.697   1.595 -2.6547  0.3654  0.8591
 4728TIP3   OH235742   2.918   0.791   1.483 -0.0860 -0.2633 -0.3030
 4728TIP3    H135743   2.842   0.844   1.459  0.0164 -0.4595 -1.1157
 4728TIP3    H235744   2.885   0.729   1.548 -0.7511 -0.6497 -0.9849
 4729TIP3   OH235745   4.141   6.453   0.779 -0.3360 -0.4414 -0.8248
 4729TIP3    H135746   4.200   6.411   0.717  0.7744  0.0880 -0.1695
 4729TIP3    H235747   4.128   6.541   0.744 -2.5508 -1.2151 -2.1257
 4730TIP3   OH235748   0.014   6.506   8.169  0.2011 -0.1982 -0.7549
 4730TIP3    H135749   0.007   6.598   8.141  0.1933 -0.2168 -0.8154
 4730TIP3    H235750  -0.046   6.459   8.110  2.8163 -0.7881 -3.1481
 4731TIP3   OH235751   5.755   6.506   1.595 -0.1633  0.7305 -0.0582
 4731TIP3    H135752   5.772   6.586   1.546  1.2364  1.6474  1.8155
 4731TIP3    H235753   5.784   6.525   1.684 -0.1147 -1.7487  0.5319
 4732TIP3   OH235754   2.686   4.595   0.650  0.0413  0.1811  0.2707
 4732TIP3    H135755   2.623   4.638   0.591 -2.0108 -0.5172  1.8173
 4732TIP3    H235756   2.737   4.667   0.687 -1.9490  1.1600  1.2774
 4733TIP3   OH235757   0.340   1.947   0.678 -0.0182 -0.0017 -0.1839
 4733TIP3    H135758   0.317   2.030   0.721  0.1975 -0.2834  0.4735
 4733TIP3    H235759   0.365   1.973   0.589 -0.2658  0.6048 -0.0829
 4734TIP3   OH235760   6.454   6.321   7.528 -0.0393 -0.2650  0.1728
 4734TIP3    H135761   6.487   6.383   7.463 -0.7328  1.2885  1.2669
 4734TIP3    H235762   6.497   6.345   7.609 -0.6384 -0.9534  0.7116
 4735TIP3   OH235763   5.466   3.625   0.902  0.1793  0.4490  0.0428
 4735TIP3    H135764   5.525   3.551   0.914  0.0351  0.2861 -0.2460
 4735TIP3    H235765   5.497   3.669   0.823  0.1620  0.5997  0.1184
 4736TIP3   OH235766   1.127   5.881   0.753 -0.1896 -0.3451  0.2385
 4736TIP3    H135767   1.193   5.917   0.811 -0.5677  0.0268  0.4472
 4736TIP3    H235768   1.145   5.787   0.750  1.0348 -0.1121 -0.5928
 4737TIP3   OH235769   2.787   2.334   0.952 -0.0794 -0.9653  0.1730
 4737TIP3    H135770   2.845   2.273   0.906 -0.9117 -2.5277  1.1227
 4737TIP3    H235771   2.711   2.342   0.894 -1.1198 -2.9189  1.1654
 4738TIP3   OH235772   5.184   1.598   1.107  0.1208 -0.5213  0.3214
 4738TIP3    H135773   5.110   1.631   1.158  1.7904  0.4721  2.2503
 4738TIP3    H235774   5.172   1.503   1.107 -0.9354 -0.4117  0.9223
 4739TIP3   OH235775   2.091   3.544   5.844 -0.1823  0.1877 -0.0062
 4739TIP3    H135776   2.143   3.624   5.852 -0.8129  0.5038  1.0005
 4739TIP3    H235777   2.071   3.538   5.750  1.4634  0.1715 -0.3819
 4740TIP3   OH235778   3.448   5.973   0.014  0.2217 -0.7227  0.6999
 4740TIP3    H135779   3.536   6.007   0.029 -0.2169  1.3413 -0.9896
 4740TIP3    H235780   3.435   5.909   0.084  2.2111  0.5203  2.3201
 4741TIP3   OH235781   6.402   0.912   7.112  0.0424 -0.8073  0.7117
 4741TIP3    H135782   6.398   0.999   7.073  1.0696 -0.3453  1.5758
 4741TIP3    H235783   6.386   0.851   7.039  3.1899 -0.0557 -0.7354
 4742TIP3   OH235784   2.947   6.568   0.517  0.1476 -0.0486 -0.2923
 4742TIP3    H135785   2.935   6.607   0.604  0.0529  0.1206 -0.3800
 4742TIP3    H235786   2.908   6.632   0.457 -3.1269 -1.7162 -0.2146
 4743TIP3   OH235787   0.819   2.984   0.556 -0.3742  0.1422  0.3809
 4743TIP3    H135788   0.875   3.033   0.617  1.0736 -1.4318  0.3780
 4743TIP3    H235789   0.757   2.938   0.613  0.9418 -1.2832  0.7047
 4744TIP3   OH235790   0.986   5.358   8.115  0.0518  0.1595  0.0706
 4744TIP3    H135791   1.013   5.442   8.078 -0.6293  0.1354 -0.5110
 4744TIP3    H235792   0.897   5.345   8.082 -0.1761 -0.3765  0.8633
 4745TIP3   OH235793   6.020   5.701   7.010  0.1036  0.5308  0.3766
 4745TIP3    H135794   5.990   5.627   7.063 -0.6064  0.9288  0.5489
 4745TIP3    H235795   5.962   5.700   6.933  0.3971  0.6275  0.1549
 4746TIP3   OH235796   2.420   5.171   7.537  0.0346 -0.4704 -0.0422
 4746TIP3    H135797   2.365   5.228   7.592  0.8161 -1.0860  1.4365
 4746TIP3    H235798   2.386   5.083   7.552  0.4566 -0.6808 -0.3171
 4747TIP3   OH235799   6.216   5.184   7.676 -0.6334 -0.6199  0.3653
 4747TIP3    H135800   6.301   5.140   7.679  0.1051  0.6836 -0.3699
 4747TIP3    H235801   6.232   5.262   7.622 -2.2516 -0.2487  0.3846
 4748TIP3   OH235802   3.227   1.103   7.366  0.3872 -0.2223 -0.3209
 4748TIP3    H135803   3.185   1.080   7.284 -0.0981 -2.6328  0.5263
 4748TIP3    H235804   3.319   1.119   7.343  0.1499 -0.3598 -1.3892
 4749TIP3   OH235805   5.128   3.820   0.449 -0.4258 -0.2376  0.1016
 4749TIP3    H135806   5.214   3.793   0.481 -0.9559 -1.3504  0.6470
 4749TIP3    H235807   5.077   3.834   0.528 -0.8627  0.0193 -0.2272
 4750TIP3   OH235808   5.064   5.017   6.663  0.2469 -1.0488 -0.9216
 4750TIP3    H135809   5.049   4.952   6.594 -0.9013 -1.4595 -0.3149
 4750TIP3    H235810   4.989   5.006   6.722  0.3240  0.4559 -0.5148
 4751TIP3   OH235811   3.366   1.669   7.879 -0.1114 -0.0762  0.2185
 4751TIP3    H135812   3.381   1.584   7.839 -2.0540 -0.0198 -0.7418
 4751TIP3    H235813   3.273   1.670   7.901 -0.1712  1.8311  0.0887
 4752TIP3   OH235814   3.674   4.126   1.852 -0.2178  0.6525  0.3041
 4752TIP3    H135815   3.579   4.129   1.853 -0.3195 -1.2705  1.1763
 4752TIP3    H235816   3.696   4.103   1.761 -0.5196  1.7532 -0.0656
 4753TIP3   OH235817   0.832   4.201   7.926  0.3056 -0.3461 -0.3378
 4753TIP3    H135818   0.907   4.216   7.983  0.9795 -0.0724 -1.2654
 4753TIP3    H235819   0.759   4.244   7.970  0.5868 -1.0146  0.8032
 4754TIP3   OH235820   0.359   1.940   6.155 -0.2617  0.1903 -0.3360
 4754TIP3    H135821   0.399   2.026   6.155 -0.9116  0.5202  0.9504
 4754TIP3    H235822   0.414   1.888   6.214 -0.5080  0.0440 -0.2334
 4755TIP3   OH235823   5.928   3.422   0.451  0.2770  0.0123 -0.3258
 4755TIP3    H135824   5.990   3.484   0.490  0.5450 -0.5835  0.2134
 4755TIP3    H235825   5.847   3.472   0.441  0.4701  0.4316  0.1774
 4756TIP3   OH235826   3.056   4.213   6.691 -0.0623  0.9142 -0.9483
 4756TIP3    H135827   2.978   4.174   6.652  0.3945  0.3489 -1.2999
 4756TIP3    H235828   3.078   4.156   6.764  1.5591 -0.4686 -2.4384
 4757TIP3   OH235829   6.213   3.952   6.299 -0.1998 -0.4864 -0.2158
 4757TIP3    H135830   6.245   3.865   6.274  2.0910 -0.0851  1.0023
 4757TIP3    H235831   6.291   3.998   6.331 -1.4091  1.9008 -0.4603
 4758TIP3   OH235832   2.262   6.588   6.881 -0.0330  0.4992  0.3212
 4758TIP3    H135833   2.268   6.645   6.804  0.0515  0.6958  0.4743
 4758TIP3    H235834   2.217   6.510   6.848  2.6397 -0.7341 -0.7173
 4759TIP3   OH235835   2.897   5.427   7.641  0.8713  0.4937 -0.1765
 4759TIP3    H135836   2.840   5.436   7.565  0.9587 -2.6321 -0.7719
 4759TIP3    H235837   2.890   5.510   7.687 -2.3937  1.0324 -1.4083
 4760TIP3   OH235838   6.258   4.122   1.006  0.1653  0.2966 -0.4836
 4760TIP3    H135839   6.191   4.146   1.070  0.7356  0.5063  0.0500
 4760TIP3    H235840   6.247   4.028   0.993 -0.1909  0.3189 -0.3507
 4761TIP3   OH235841   0.819   5.097   0.553 -0.2701  0.3524 -0.5063
 4761TIP3    H135842   0.797   5.186   0.579 -0.4609 -0.5124  2.8203
 4761TIP3    H235843   0.853   5.056   0.633  1.5197 -2.0634 -2.3427
 4762TIP3   OH235844   0.267   1.439   0.001 -0.1862 -0.2606  0.1941
 4762TIP3    H135845   0.354   1.479  -0.004  0.0575 -0.8606 -0.8293
 4762TIP3    H235846   0.206   1.513   0.008  0.4050  0.1591  1.0098
 4763TIP3   OH235847   6.904   1.055   1.723  0.2036 -0.6063  0.6812
 4763TIP3    H135848   6.947   1.117   1.782  0.7047 -0.6960  0.4174
 4763TIP3    H235849   6.972   0.990   1.702 -0.4590 -1.5523  1.3743
 4764TIP3   OH235850   1.981   0.134   5.972  0.9940 -0.3841 -0.2833
 4764TIP3    H135851   1.945   0.057   5.929 -2.9379  0.8947  0.3793
 4764TIP3    H235852   2.001   0.195   5.901  0.1214 -0.4799 -0.6196
 4765TIP3   OH235853   6.841   3.779   0.305  0.1673 -0.4837  0.1624
 4765TIP3    H135854   6.905   3.720   0.345  2.0690  0.7235 -0.9424
 4765TIP3    H235855   6.845   3.858   0.357 -0.8876 -0.5788  0.4203
 4766TIP3   OH235856   6.959   6.185   7.752  0.8142 -0.1211  0.6036
 4766TIP3    H135857   6.926   6.233   7.828  0.8972 -0.5771  0.9262
 4766TIP3    H235858   7.047   6.221   7.738  1.5891 -1.3964  1.9357
 4767TIP3   OH235859   2.065   1.114   7.831  0.2706 -0.2691  0.1729
 4767TIP3    H135860   2.009   1.067   7.892  0.1147  0.3406  0.5094
 4767TIP3    H235861   2.152   1.075   7.844  0.0132 -0.9209 -0.0412
 4768TIP3   OH235862   4.422   1.192   5.918  0.6411 -0.0607  0.7907
 4768TIP3    H135863   4.338   1.233   5.897 -0.3486 -2.1793  0.3486
 4768TIP3    H235864   4.487   1.259   5.897 -0.7265  0.4945 -2.1298
 4769TIP3   OH235865   1.171   3.755   6.549  0.5280 -0.0242 -0.1619
 4769TIP3    H135866   1.194   3.814   6.477 -1.1518  0.6556 -0.1895
 4769TIP3    H235867   1.076   3.745   6.542 -0.0517  1.7012  3.1193
 4770TIP3   OH235868   1.214   3.178   0.154 -0.1848 -0.3886  0.3211
 4770TIP3    H135869   1.192   3.270   0.166  0.4361 -0.2371  0.3570
 4770TIP3    H235870   1.163   3.150   0.078  0.4998  0.3117 -0.4220
 4771TIP3   OH235871   6.988   3.442   6.867 -0.0739 -0.1323  0.4386
 4771TIP3    H135872   7.073   3.456   6.908  0.1416  0.3429 -0.1525
 4771TIP3    H235873   6.950   3.529   6.860 -0.0975 -0.1939 -0.3703
 4772TIP3   OH235874   6.322   3.252   8.017  0.0484 -0.1727 -0.0916
 4772TIP3    H135875   6.388   3.227   7.952  2.3405 -1.3505  2.4771
 4772TIP3    H235876   6.303   3.343   7.997 -0.7591 -0.9197 -3.4505
 4773TIP3   OH235877   4.506   4.942   6.978  0.0950  0.4018 -0.3616
 4773TIP3    H135878   4.513   5.036   6.993  1.2935  0.3773 -0.6454
 4773TIP3    H235879   4.538   4.930   6.888  1.2021 -0.4097  0.1199
 4774TIP3   OH235880   0.308   5.499   1.227 -0.0577  0.6058 -0.3538
 4774TIP3    H135881   0.312   5.562   1.299  0.1593  0.0390  0.1423
 4774TIP3    H235882   0.277   5.418   1.268  1.7369 -0.2096 -0.5424
 4775TIP3   OH235883   0.386   3.020   7.300 -1.1038 -0.2404  0.3980
 4775TIP3    H135884   0.363   3.109   7.273  0.1895 -0.3878 -1.4118
 4775TIP3    H235885   0.450   3.032   7.370 -1.0810  0.2512  0.2949
 4776TIP3   OH235886   2.507   1.009   0.294 -0.4201 -0.0085  0.7744
 4776TIP3    H135887   2.563   0.982   0.221 -1.2925 -1.0816  0.4669
 4776TIP3    H235888   2.549   1.087   0.329  1.2750 -0.7835  0.5750
 4777TIP3   OH235889   6.505   4.988   6.139 -0.2384 -0.4157  0.1261
 4777TIP3    H135890   6.584   5.036   6.115 -0.0498  0.2194  1.9274
 4777TIP3    H235891   6.438   5.021   6.080  0.6822 -0.5275 -1.0167
 4778TIP3   OH235892   5.334   1.234   7.063  0.0361 -0.0728 -0.0226
 4778TIP3    H135893   5.278   1.160   7.087 -0.3493  0.3017  0.2459
 4778TIP3    H235894   5.278   1.311   7.074  0.9880  0.4438  1.5914
 4779TIP3   OH235895   5.053   4.837   6.462 -0.2555  0.2457 -0.0884
 4779TIP3    H135896   5.133   4.838   6.410 -0.3656 -1.4433 -0.3522
 4779TIP3    H235897   4.985   4.808   6.402 -0.4726 -1.2886  0.8179
 4780TIP3   OH235898   3.250   3.662   7.104 -0.4865 -0.0610 -0.0943
 4780TIP3    H135899   3.291   3.682   7.020 -2.0080 -0.1782 -0.8990
 4780TIP3    H235900   3.280   3.573   7.124  1.4182  0.6482  0.4895
 4781TIP3   OH235901   4.385   1.373   6.653 -0.1962 -0.1118  0.0715
 4781TIP3    H135902   4.357   1.330   6.572  0.8517  1.6742 -1.3037
 4781TIP3    H235903   4.466   1.328   6.677  0.2026  0.2175 -0.6313
 4782TIP3   OH235904   6.472   2.794   2.377  0.2123 -0.6261 -0.4483
 4782TIP3    H135905   6.427   2.873   2.347  1.3187  0.1409 -0.1539
 4782TIP3    H235906   6.403   2.741   2.419 -0.8345 -0.5162 -1.9312
 4783TIP3   OH235907   1.447   1.288   0.148  0.4102 -0.5099 -0.3229
 4783TIP3    H135908   1.370   1.343   0.138 -0.0774 -0.9748  0.7228
 4783TIP3    H235909   1.491   1.292   0.063  0.7697  2.0505 -0.0901
 4784TIP3   OH235910   5.533   4.432   6.761  0.3443  0.1499 -0.5195
 4784TIP3    H135911   5.618   4.453   6.800  0.0788  1.1650 -0.4624
 4784TIP3    H235912   5.527   4.489   6.684 -0.3297  0.1677 -0.4611
 4785TIP3   OH235913   1.487   1.101   7.069  0.7237  0.1174 -0.2088
 4785TIP3    H135914   1.466   1.094   7.162 -0.4456  1.1789 -0.3633
 4785TIP3    H235915   1.478   1.012   7.035 -0.0492 -0.0737  0.4587
 4786TIP3   OH235916   6.640   2.391   6.272  0.6476 -0.4090 -0.1637
 4786TIP3    H135917   6.698   2.321   6.302 -1.4846 -1.2926  2.2759
 4786TIP3    H235918   6.559   2.346   6.248  0.3552  0.9325 -1.9067
 4787TIP3   OH235919   6.716   4.375   1.543  0.5781  0.2458  0.0494
 4787TIP3    H135920   6.671   4.446   1.496 -1.2916  1.1268  2.9055
 4787TIP3    H235921   6.645   4.321   1.578  1.8417 -0.2868  1.9044
 4788TIP3   OH235922   6.266   5.337   0.433  0.0617 -0.0508  0.6198
 4788TIP3    H135923   6.217   5.255   0.427  0.6783 -0.3337 -0.8248
 4788TIP3    H235924   6.215   5.400   0.381  0.6519 -0.0664  0.0104
 4789TIP3   OH235925   5.862   1.516   0.412  0.7435  0.0982 -0.5304
 4789TIP3    H135926   5.857   1.605   0.377  1.5781  0.1753 -0.4770
 4789TIP3    H235927   5.909   1.466   0.345  1.0661 -0.0923 -0.1683
 4790TIP3   OH235928   1.127   1.188   7.205 -0.4175  0.1981 -0.4362
 4790TIP3    H135929   1.083   1.156   7.284  3.1184 -0.3500  1.5558
 4790TIP3    H235930   1.116   1.118   7.141  0.5137 -1.5937  1.2366
 4791TIP3   OH235931   3.736   3.584   0.842 -0.0305 -0.2563 -0.2909
 4791TIP3    H135932   3.744   3.675   0.872 -1.8865 -0.3045  0.5225
 4791TIP3    H235933   3.660   3.550   0.890  0.6856 -2.2856 -0.5070
 4792TIP3   OH235934   6.974   0.585   1.908 -0.3121  0.0195 -0.7373
 4792TIP3    H135935   7.028   0.618   1.980 -0.7370  0.0373 -0.4204
 4792TIP3    H235936   7.036   0.563   1.839 -0.0048  1.6718 -1.0369
 4793TIP3   OH235937   6.216   5.981   7.213  0.1439 -0.0465 -0.7287
 4793TIP3    H135938   6.221   5.959   7.306 -1.2178  1.8355 -0.1760
 4793TIP3    H235939   6.304   5.960   7.179  0.4880 -1.2826  0.8257
 4794TIP3   OH235940   1.161   0.271   1.026  0.0794  0.6613  0.0979
 4794TIP3    H135941   1.074   0.230   1.028  1.1402 -1.8972 -1.6508
 4794TIP3    H235942   1.218   0.209   1.071  1.2683  1.5711 -0.1105
 4795TIP3   OH235943   0.240   6.893   1.882 -0.5243 -0.2789  0.6673
 4795TIP3    H135944   0.205   6.977   1.853 -0.2519 -0.0460  1.0072
 4795TIP3    H235945   0.277   6.911   1.969 -0.3324 -0.7146  0.6772
 4796TIP3   OH235946   6.448   4.403   2.345 -0.6306  0.0228  0.4781
 4796TIP3    H135947   6.508   4.466   2.305 -1.6068  0.3198 -0.5764
 4796TIP3    H235948   6.444   4.331   2.282 -0.0865 -0.7726  1.3348
 4797TIP3   OH235949   5.649   5.915   7.572  0.0699 -0.0568  0.5109
 4797TIP3    H135950   5.588   5.930   7.500 -0.7581 -0.7368  1.0492
 4797TIP3    H235951   5.711   5.851   7.537  0.8943  1.1013 -0.2513
 4798TIP3   OH235952   5.178   5.307   0.469  0.3654  0.0396  0.2706
 4798TIP3    H135953   5.173   5.227   0.417  2.4751  0.6898 -1.0742
 4798TIP3    H235954   5.122   5.370   0.423 -0.4571 -0.3251  0.7423
 4799TIP3   OH235955   4.955   4.758   8.127 -0.2325  0.0887  0.5578
 4799TIP3    H135956   4.893   4.762   8.200 -0.0610 -1.2084  0.8088
 4799TIP3    H235957   4.930   4.679   8.079  2.0422 -1.3318  1.4954
 4800TIP3   OH235958   4.023   2.649   5.973 -0.5067 -0.0518  0.1274
 4800TIP3    H135959   3.975   2.595   6.036 -0.3999 -0.8716 -0.4801
 4800TIP3    H235960   4.002   2.610   5.888  0.4868  0.1687 -0.2263
 4801TIP3   OH235961   4.081   3.355   6.154 -0.1638  0.6955 -0.0166
 4801TIP3    H135962   4.166   3.385   6.185  0.0176 -0.4494  0.6845
 4801TIP3    H235963   4.047   3.301   6.226 -0.8200 -0.0631 -0.8601
 4802TIP3   OH235964   6.878   3.361   7.625  1.0532  0.7323 -0.1319
 4802TIP3    H135965   6.846   3.277   7.593 -0.1870  1.4136 -0.7571
 4802TIP3    H235966   6.821   3.382   7.698  1.1080  1.2127 -0.2251
 4803TIP3   OH235967   1.866   4.121   6.773  0.3386  0.2951  0.5471
 4803TIP3    H135968   1.895   4.115   6.682  1.3082  1.1437  0.7825
 4803TIP3    H235969   1.896   4.040   6.813  1.7482  0.8265  0.5989
 4804TIP3   OH235970   4.431   4.712   6.855  0.4924 -0.7261  0.8315
 4804TIP3    H135971   4.450   4.739   6.765 -1.2328 -0.1002  0.6214
 4804TIP3    H235972   4.445   4.791   6.907  1.6909 -1.1382  1.1786
 4805TIP3   OH235973   6.282   3.522   8.011  0.1947 -0.5368  0.0326
 4805TIP3    H135974   6.318   3.579   7.942  0.8329  0.5309  1.2093
 4805TIP3    H235975   6.232   3.581   8.067 -0.7884 -1.4931  0.2031
 4806TIP3   OH235976   4.050   6.466   1.940 -0.2362  0.1197 -0.2632
 4806TIP3    H135977   4.069   6.373   1.945 -0.5819 -0.0490 -1.7839
 4806TIP3    H235978   4.009   6.486   2.024  0.4419 -0.9430  0.3429
 4807TIP3   OH235979   1.702   3.670   1.764  0.5824  0.3304 -0.1998
 4807TIP3    H135980   1.789   3.707   1.755  0.4467  0.4614 -1.0225
 4807TIP3    H235981   1.698   3.602   1.697  0.0236  0.3873 -0.2280
 4808TIP3   OH235982   2.432   4.848   6.274 -0.0686  0.2513 -0.1310
 4808TIP3    H135983   2.474   4.845   6.360 -1.6877 -0.2739  0.6857
 4808TIP3    H235984   2.451   4.762   6.236 -1.7421 -0.6306  0.9358
 4809TIP3   OH235985   2.212   1.188   0.253 -0.3544 -0.2569  0.4941
 4809TIP3    H135986   2.246   1.269   0.217  1.0878 -2.0407 -2.4950
 4809TIP3    H235987   2.275   1.163   0.320  1.1885 -0.6202 -1.0245
 4810TIP3   OH235988   5.148   0.045   7.787  0.2607  0.5185 -0.5649
 4810TIP3    H135989   5.215   0.026   7.722  0.4615 -0.8228  0.0164
 4810TIP3    H235990   5.196   0.065   7.867 -0.0103  1.0499 -0.5273
 4811TIP3   OH235991   2.001   5.024   0.327 -0.2641  0.3255 -0.3112
 4811TIP3    H135992   2.090   4.995   0.349 -0.9006 -0.7345  1.0074
 4811TIP3    H235993   1.999   5.023   0.232  0.5341 -1.6223 -0.3510
 4812TIP3   OH235994   1.285   3.501   6.881  0.3910  0.1512  0.4855
 4812TIP3    H135995   1.284   3.576   6.941  2.3693  0.3289  0.3428
 4812TIP3    H235996   1.247   3.429   6.931  1.1936  0.5200  1.6383
 4813TIP3   OH235997   2.849   1.756   1.651  0.1012  0.7255  0.1394
 4813TIP3    H135998   2.815   1.673   1.618 -0.9311  0.5187  1.6126
 4813TIP3    H235999   2.934   1.735   1.688 -0.4555  0.1664  1.1265
 4814TIP3   OH236000   6.965   0.047   8.102  0.1911 -0.5110 -0.2563
 4814TIP3    H136001   6.969   0.094   8.018  0.0963  0.0950  0.0727
 4814TIP3    H236002   7.045   0.072   8.148 -0.2901  0.0557  0.2932
 4815TIP3   OH236003   1.479   0.455   0.543  0.1340 -0.1671  0.1528
 4815TIP3    H136004   1.470   0.502   0.460  0.1590  1.9272  1.2547
 4815TIP3    H236005   1.477   0.363   0.519  1.0982  0.3590 -2.2758
 4816TIP3   OH236006   1.337   0.163   6.985  0.8487 -0.9100 -0.2325
 4816TIP3    H136007   1.397   0.097   7.017 -0.5190 -2.4507 -0.7083
 4816TIP3    H236008   1.388   0.215   6.922  1.7209 -2.0590 -0.4914
 4817TIP3   OH236009   3.636   6.140   7.869 -0.2174 -0.0350 -0.3796
 4817TIP3    H136010   3.662   6.131   7.960  0.0369  0.1663 -0.4289
 4817TIP3    H236011   3.713   6.180   7.826 -0.8816  1.3367 -0.3665
 4818TIP3   OH236012   2.045   4.915   1.647 -0.6208  0.8380 -0.0317
 4818TIP3    H136013   2.044   4.981   1.716  0.9666  1.0450 -0.1823
 4818TIP3    H236014   2.132   4.922   1.607 -1.0897 -0.0620 -1.2948
 4819TIP3   OH236015   3.595   4.797   2.261 -0.5393  0.3391 -0.8135
 4819TIP3    H136016   3.666   4.824   2.319 -1.3583  1.4306 -0.2756
 4819TIP3    H236017   3.582   4.704   2.281  2.3484 -0.5858 -2.6978
 4820TIP3   OH236018   5.349   1.597   1.336 -0.2454 -0.5643 -0.0797
 4820TIP3    H136019   5.295   1.615   1.259 -0.3172 -1.3802 -0.2252
 4820TIP3    H236020   5.414   1.534   1.307  0.3996 -0.0719  0.2645
 4821TIP3   OH236021   2.472   6.224   7.254 -0.1811 -0.1581 -0.7687
 4821TIP3    H136022   2.469   6.291   7.322  0.8214 -0.6050 -0.2691
 4821TIP3    H236023   2.527   6.261   7.186 -0.1086 -0.2456 -0.7570
 4822TIP3   OH236024   1.970   0.797   0.325  0.3909  0.0573  0.4258
 4822TIP3    H136025   1.907   0.846   0.377 -1.1842  0.7648 -1.9690
 4822TIP3    H236026   2.030   0.759   0.389 -1.0042  1.3874  2.6583
 4823TIP3   OH236027   4.771   2.767   7.671  0.3637 -0.1918  0.2240
 4823TIP3    H136028   4.736   2.700   7.729 -0.8072 -0.0278 -0.2738
 4823TIP3    H236029   4.775   2.725   7.585  0.0400  0.2372 -0.0022
 4824TIP3   OH236030   2.841   5.057   7.522 -0.2158 -0.1803 -0.2845
 4824TIP3    H136031   2.784   5.084   7.450 -1.2273 -2.2335 -0.3290
 4824TIP3    H236032   2.929   5.059   7.484 -0.7609 -1.5454 -1.7439
 4825TIP3   OH236033   1.557   0.271   0.211  0.1195  0.2791 -0.3672
 4825TIP3    H136034   1.558   0.365   0.195  1.5906  0.2616 -0.4733
 4825TIP3    H236035   1.465   0.252   0.232 -0.1897  1.7353 -0.2590
 4826TIP3   OH236036   6.438   6.569   6.353 -0.0341  0.1450  0.0932
 4826TIP3    H136037   6.458   6.506   6.283  0.3396  1.5677 -1.1232
 4826TIP3    H236038   6.351   6.602   6.331 -0.2842 -0.0198  0.7985
 4827TIP3   OH236039   6.401   4.031   6.531 -0.3713  0.2093 -0.1393
 4827TIP3    H136040   6.409   3.992   6.618 -0.9155  2.4145  0.9736
 4827TIP3    H236041   6.456   3.976   6.475  2.3913  0.3824  2.1828
 4828TIP3   OH236042   0.053   4.582   7.085  0.0511  0.5872  0.0804
 4828TIP3    H136043   0.091   4.611   7.168 -1.6909 -1.0432  1.5318
 4828TIP3    H236044  -0.020   4.641   7.069  0.7303  1.2568 -0.6312
 4829TIP3   OH236045   0.657   4.218   7.247 -0.3585  0.0022  0.6771
 4829TIP3    H136046   0.621   4.178   7.326  1.4716 -0.1650  1.4637
 4829TIP3    H236047   0.687   4.305   7.275  0.7789 -0.2567  0.3300
 4830TIP3   OH236048   1.693   5.865   0.441 -0.4137  0.0471  0.0810
 4830TIP3    H136049   1.709   5.823   0.357 -0.1302  1.3884 -0.5733
 4830TIP3    H236050   1.599   5.856   0.455 -0.7734  1.3443 -1.2746
 4831TIP3   OH236051   6.822   4.166   0.192 -0.0478  0.1245  0.0414
 4831TIP3    H136052   6.866   4.250   0.191  0.2739 -0.0434 -0.4787
 4831TIP3    H236053   6.878   4.110   0.246  1.5878 -0.6998 -2.3497
 4832TIP3   OH236054   0.001   2.904   1.108 -0.4695  0.1133  0.1271
 4832TIP3    H136055  -0.042   2.989   1.113  1.8183  1.2691  1.7883
 4832TIP3    H236056   0.090   2.924   1.079 -0.1337 -1.8364 -0.3222
 4833TIP3   OH236057   0.772   1.023   7.105  0.3452  0.7374  0.7362
 4833TIP3    H136058   0.721   0.945   7.081 -0.1576  0.8530  1.3840
 4833TIP3    H236059   0.727   1.094   7.060  0.2158  0.7774  0.9273
 4834TIP3   OH236060   6.416   3.511   6.237  0.5042 -0.2468  0.1308
 4834TIP3    H136061   6.440   3.422   6.211  2.0359  0.4336 -0.9075
 4834TIP3    H236062   6.477   3.567   6.189  0.2887  1.3183  1.6197
 4835TIP3   OH236063   3.170   0.600   7.988 -0.0826  0.4844  0.3852
 4835TIP3    H136064   3.221   0.532   7.946 -0.4532 -0.0343  0.7583
 4835TIP3    H236065   3.204   0.682   7.952  1.4818  0.2013  1.1242
 4836TIP3   OH236066   4.786   1.666   0.619  0.0736 -0.5096 -0.1201
 4836TIP3    H136067   4.771   1.702   0.707 -0.1387 -1.1887  0.1297
 4836TIP3    H236068   4.717   1.705   0.565  0.5543  0.3598 -0.1222
 4837TIP3   OH236069   6.646   0.209   6.879  0.1444  0.3589  0.3511
 4837TIP3    H136070   6.642   0.120   6.843  1.7335  0.5674 -0.4105
 4837TIP3    H236071   6.557   0.244   6.866 -0.1285 -0.6332 -0.6196
 4838TIP3   OH236072   4.143   6.256   8.129 -0.0708 -0.0233 -0.2970
 4838TIP3    H136073   4.171   6.311   8.055  0.1687 -0.7609 -0.7703
 4838TIP3    H236074   4.225   6.217   8.161 -0.2634 -0.2729 -0.1101
 4839TIP3   OH236075   3.562   2.511   6.905 -0.3130  0.2516  0.6518
 4839TIP3    H136076   3.514   2.474   6.979 -0.7554  1.7302  1.1263
 4839TIP3    H236077   3.497   2.561   6.856 -0.2602 -1.4615 -1.3449
 4840TIP3   OH236078   4.649   3.868   7.740  0.0379  0.2369  0.1697
 4840TIP3    H136079   4.556   3.877   7.760 -0.0803 -0.0164 -0.2725
 4840TIP3    H236080   4.688   3.836   7.822  0.3194  3.6629  1.5340
 4841TIP3   OH236081   2.895   6.056   0.887  0.1616  0.2767  0.7414
 4841TIP3    H136082   2.815   6.006   0.899  0.4872  0.0317  2.0128
 4841TIP3    H236083   2.885   6.131   0.945  0.3379  0.9061 -0.0153
 4842TIP3   OH236084   3.437   6.824   7.532 -0.0506 -0.6337  0.3404
 4842TIP3    H136085   3.449   6.759   7.463  1.3001 -2.3678  2.0834
 4842TIP3    H236086   3.522   6.866   7.541 -0.0428 -0.8252  1.2904
 4843TIP3   OH236087   5.578   2.141   0.669  0.4429 -0.1926  0.3878
 4843TIP3    H136088   5.654   2.139   0.727  0.9104 -0.3742 -0.2236
 4843TIP3    H236089   5.597   2.210   0.606 -0.3194  0.3890  0.7904
 4844TIP3   OH236090   3.251   2.001   1.932  0.3779  0.0071  0.3485
 4844TIP3    H136091   3.288   2.036   2.014  1.6258 -0.4968  0.0132
 4844TIP3    H236092   3.299   1.920   1.916 -0.8919 -0.6893 -0.1138
 4845TIP3   OH236093   0.704   6.412   5.942  0.2934  0.1934  0.0417
 4845TIP3    H136094   0.697   6.462   5.861  1.6076 -1.1055 -0.9391
 4845TIP3    H236095   0.746   6.472   6.004 -0.2036  1.0162 -0.4107
 4846TIP3   OH236096   5.693   5.114   0.286 -0.2348  0.0953 -1.1032
 4846TIP3    H136097   5.695   5.021   0.307  0.7817  0.5067  0.9079
 4846TIP3    H236098   5.602   5.140   0.301 -0.0645 -0.1550  0.6280
 4847TIP3   OH236099   5.905   5.763   6.733 -0.2766  0.1381  0.2814
 4847TIP3    H136100   5.905   5.846   6.686 -0.9197  1.0404  1.7881
 4847TIP3    H236101   5.812   5.738   6.738 -0.0390 -1.0821 -0.7906
 4848TIP3   OH236102   6.094   6.756   7.021 -0.0905 -0.0977 -0.2430
 4848TIP3    H136103   6.003   6.726   7.027 -0.0961  0.0001  0.2031
 4848TIP3    H236104   6.109   6.801   7.104 -0.4589  2.2330 -1.3696
 4849TIP3   OH236105   1.047   6.325   6.505 -0.0525  0.6349  0.3609
 4849TIP3    H136106   1.012   6.392   6.446  0.5326  1.3190  0.7687
 4849TIP3    H236107   1.137   6.311   6.474 -0.6051 -1.0086 -0.6005
 4850TIP3   OH236108   3.449   4.830   7.602 -0.9039 -0.6021  0.0631
 4850TIP3    H136109   3.503   4.904   7.630 -1.8185 -0.2468  0.9465
 4850TIP3    H236110   3.500   4.787   7.533 -1.1476  1.9823 -1.8909
 4851TIP3   OH236111   6.035   1.905   6.569 -0.1465  0.2376 -0.8108
 4851TIP3    H136112   6.043   1.856   6.487 -0.6463 -1.2667 -0.0013
 4851TIP3    H236113   6.124   1.908   6.604 -0.4179 -2.7101  0.5078
 4852TIP3   OH236114   1.348   4.103   6.688  0.1582 -0.2839  0.6615
 4852TIP3    H136115   1.430   4.068   6.723 -0.2556 -1.3302  0.6162
 4852TIP3    H236116   1.280   4.059   6.739 -0.4006 -0.3648 -0.1514
 4853TIP3   OH236117   2.148   5.736   0.916  0.2851 -0.1954 -0.1724
 4853TIP3    H136118   2.212   5.782   0.970  0.5612 -0.4071 -0.3200
 4853TIP3    H236119   2.137   5.651   0.959 -0.7610  0.2659  0.5094
 4854TIP3   OH236120   4.456   3.784   7.472  0.9773  0.1958 -0.2511
 4854TIP3    H136121   4.428   3.875   7.478 -2.5952 -0.4930 -3.0558
 4854TIP3    H236122   4.503   3.779   7.389 -0.5909 -0.7856 -1.1352
 4855TIP3   OH236123   0.927   0.310   0.097  0.3782  0.4612 -0.1795
 4855TIP3    H136124   1.009   0.262   0.084 -1.1399 -3.0996  1.9717
 4855TIP3    H236125   0.895   0.325   0.008  2.9485  1.3432 -1.0571
 4856TIP3   OH236126   2.733   5.733   2.101  0.2619 -0.0294  0.1166
 4856TIP3    H136127   2.815   5.782   2.098  1.3095 -1.3193  3.1603
 4856TIP3    H236128   2.756   5.650   2.144 -2.3326 -1.1440 -0.4440
 4857TIP3   OH236129   6.970   2.346   7.358 -0.2494 -0.5920  0.0959
 4857TIP3    H136130   7.006   2.261   7.385  0.2003 -0.3010  0.4182
 4857TIP3    H236131   6.961   2.338   7.263  1.5068 -0.3798 -0.1249
 4858TIP3   OH236132   5.347   7.042   6.484  0.0724 -0.4701  0.5631
 4858TIP3    H136133   5.376   7.118   6.535  0.9832 -0.3869 -0.0559
 4858TIP3    H236134   5.415   7.030   6.418 -0.9332 -0.7507 -0.4667
 4859TIP3   OH236135   4.951   1.186   6.562  0.4027 -0.2292 -0.2801
 4859TIP3    H136136   4.911   1.220   6.482  1.0054 -2.2817 -1.5046
 4859TIP3    H236137   5.043   1.172   6.539  0.6676 -0.5090  0.8933
 4860TIP3   OH236138   4.848   5.020   8.077 -0.4388 -0.5386  0.2617
 4860TIP3    H136139   4.862   5.071   7.997 -2.1987 -1.7318 -0.9055
 4860TIP3    H236140   4.926   4.964   8.083 -0.3596 -0.5637 -0.7406
 4861TIP3   OH236141   3.181   3.144   8.023  0.0044 -0.1558  0.5886
 4861TIP3    H136142   3.192   3.125   8.116 -0.1991  0.5813  0.7721
 4861TIP3    H236143   3.203   3.062   7.979 -1.3889 -0.9872  1.3669
 4862TIP3   OH236144   1.216   3.233   6.368 -0.4179 -0.5936 -0.2357
 4862TIP3    H136145   1.266   3.312   6.389 -1.0336  0.2158 -1.6383
 4862TIP3    H236146   1.124   3.263   6.366 -0.8516 -1.7561  0.9799
 4863TIP3   OH236147   0.695   3.884   0.961 -0.6884 -0.3271  0.2621
 4863TIP3    H136148   0.626   3.828   0.996 -0.2687 -2.0063 -1.3885
 4863TIP3    H236149   0.775   3.854   1.004 -0.8593  1.2683  1.7903
 4864TIP3   OH236150   4.180   0.111   8.261  0.7448  0.3680  0.2047
 4864TIP3    H136151   4.231   0.061   8.326  2.0299  0.9081 -0.3409
 4864TIP3    H236152   4.199   0.068   8.178  0.9786  1.0738 -0.1161
 4865TIP3   OH236153   2.077   0.077   0.862 -0.4175  0.2571  0.5401
 4865TIP3    H136154   2.002   0.088   0.803  1.4674  0.0714 -2.0167
 4865TIP3    H236155   2.111   0.165   0.875 -0.3539  0.2033  0.7498
 4866TIP3   OH236156   3.567   3.626   1.488  0.3563  0.0121  0.2122
 4866TIP3    H136157   3.574   3.533   1.470 -2.5270 -0.5046  1.2064
 4866TIP3    H236158   3.589   3.635   1.580  1.4497  0.4650 -0.0846
 4867TIP3   OH236159   1.792   6.364   0.528 -0.2472 -0.0423 -0.3443
 4867TIP3    H136160   1.831   6.421   0.594  0.3871 -0.1823 -0.5905
 4867TIP3    H236161   1.807   6.275   0.560 -1.1181 -0.0786 -0.0258
 4868TIP3   OH236162   4.211   5.135   1.040  0.3711  0.2508  0.2739
 4868TIP3    H136163   4.168   5.088   1.112  0.6707 -0.7578 -0.1774
 4868TIP3    H236164   4.139   5.169   0.987  0.1428  0.1676  0.5278
 4869TIP3   OH236165   0.481   3.222   0.899  0.0952  0.3812  0.3830
 4869TIP3    H136166   0.407   3.282   0.897 -1.3429 -1.3251 -0.5595
 4869TIP3    H236167   0.556   3.277   0.923 -0.9172  2.7556 -1.4488
 4870TIP3   OH236168   4.640   1.384   1.545 -0.0857  0.7396 -0.0924
 4870TIP3    H136169   4.658   1.448   1.614 -0.5798 -0.3836  1.1074
 4870TIP3    H236170   4.623   1.302   1.591 -1.3216  0.1513 -1.5028
 4871TIP3   OH236171   6.792   5.636   0.216  0.0420 -0.2721  0.2040
 4871TIP3    H136172   6.761   5.592   0.137  1.8570 -0.1247 -0.6399
 4871TIP3    H236173   6.839   5.568   0.264 -0.6115 -0.2298  0.9223
 4872TIP3   OH236174   2.896   4.794   7.506  0.0397 -0.2746 -0.1651
 4872TIP3    H136175   2.955   4.814   7.433  2.0542 -1.6726  0.9729
 4872TIP3    H236176   2.863   4.879   7.534  0.2644  0.4086 -1.8569
 4873TIP3   OH236177   0.101   6.231   1.480 -0.1958  0.6027 -0.0758
 4873TIP3    H136178   0.092   6.182   1.562  1.1698  0.3547 -0.0466
 4873TIP3    H236179   0.012   6.237   1.446 -0.6170 -0.4188  0.7792
 4874TIP3   OH236180   0.735   2.845   7.411  0.1913 -0.6045 -0.4155
 4874TIP3    H136181   0.800   2.890   7.357 -1.4355 -0.3568 -2.2896
 4874TIP3    H236182   0.774   2.842   7.499  1.9378  1.1092 -1.0623
 4875TIP3   OH236183   0.176   1.404   0.919  0.2663  0.1369  0.6537
 4875TIP3    H136184   0.176   1.371   0.829 -1.7485 -0.3934  0.8061
 4875TIP3    H236185   0.108   1.471   0.920  0.4243  0.3030  1.7384
 4876TIP3   OH236186   0.137   1.380   1.370 -0.1247  0.1473 -0.4567
 4876TIP3    H136187   0.081   1.447   1.408  0.7358  0.5644  0.1258
 4876TIP3    H236188   0.117   1.301   1.419  2.4448  1.1115  2.4755
 4877TIP3   OH236189   1.999   3.749   0.493  0.2025  0.0009  0.1774
 4877TIP3    H136190   1.932   3.760   0.560  0.0768 -2.0804  0.4786
 4877TIP3    H236191   2.040   3.665   0.514  0.4395 -0.5246 -2.0869
 4878TIP3   OH236192   4.973   1.030   0.735  0.3078 -0.0018  0.1031
 4878TIP3    H136193   4.988   1.032   0.829 -0.2218 -0.4487  0.2022
 4878TIP3    H236194   5.025   0.955   0.704  0.0226 -0.2131  0.1294
 4879TIP3   OH236195   6.066   0.541   7.406 -0.9523  1.0092 -0.1327
 4879TIP3    H136196   6.023   0.540   7.320 -3.8621 -0.0005  1.1880
 4879TIP3    H236197   6.140   0.481   7.397 -1.5361  0.4748 -1.7673
 4880TIP3   OH236198   1.797   4.339   1.241  0.4722 -0.1343 -0.1000
 4880TIP3    H136199   1.831   4.428   1.229 -1.5635  1.1212  2.4143
 4880TIP3    H236200   1.715   4.338   1.192  1.0290 -1.0520 -1.0429
 4881TIP3   OH236201   4.407   2.212   0.155 -0.4120 -0.0630  0.1481
 4881TIP3    H136202   4.369   2.282   0.102 -0.4572 -0.6136 -0.5639
 4881TIP3    H236203   4.359   2.215   0.238 -0.8217  0.3605 -0.1042
 4882TIP3   OH236204   4.080   1.192   1.744  0.3609  0.5229 -0.1516
 4882TIP3    H136205   4.095   1.105   1.708 -1.2732 -0.2135  0.8623
 4882TIP3    H236206   4.059   1.178   1.836 -0.4599  1.9253 -0.0832
 4883TIP3   OH236207   4.726   4.397   1.356  0.3134  0.0746  0.1628
 4883TIP3    H136208   4.635   4.400   1.326  0.0590  0.3912  0.9302
 4883TIP3    H236209   4.755   4.308   1.337 -0.1335 -0.0061 -0.1528
 4884TIP3   OH236210   5.614   2.785   7.268  0.5457  0.1352  0.3017
 4884TIP3    H136211   5.708   2.802   7.274  0.6353  0.5646 -1.5860
 4884TIP3    H236212   5.601   2.758   7.177 -1.0955 -0.3821  0.6653
 4885TIP3   OH236213   3.421   3.755   6.924  0.1425 -0.2835 -0.7056
 4885TIP3    H136214   3.406   3.729   6.833 -0.0409 -1.0330 -0.4666
 4885TIP3    H236215   3.441   3.848   6.919 -0.0295 -0.2815 -1.4989
 4886TIP3   OH236216   6.727   5.589   6.232  0.4349  0.1807  0.2258
 4886TIP3    H136217   6.659   5.655   6.223  1.9992  1.8647  0.2886
 4886TIP3    H236218   6.778   5.617   6.308  0.5911 -1.6489  0.8542
 4887TIP3   OH236219   2.369   4.997   7.258 -0.5172 -0.1008  0.1699
 4887TIP3    H136220   2.275   4.991   7.273 -0.9827  0.3469 -2.1776
 4887TIP3    H236221   2.403   4.911   7.283 -1.3458  0.0750  2.0548
 4888TIP3   OH236222   0.601   2.487   7.237 -0.1616 -0.7869 -0.0017
 4888TIP3    H136223   0.521   2.536   7.255  0.3138 -0.4073  1.1298
 4888TIP3    H236224   0.629   2.453   7.322 -0.2780 -2.7582 -0.6968
 4889TIP3   OH236225   4.668   7.045   7.932 -0.6752  0.3002  0.1556
 4889TIP3    H136226   4.616   6.970   7.904  1.1495  0.1275 -3.3064
 4889TIP3    H236227   4.670   7.103   7.855  2.0840  1.4517  0.9557
 4890TIP3   OH236228   0.033   4.137   0.995 -0.3850 -0.2126 -0.8523
 4890TIP3    H136229  -0.015   4.137   1.078 -0.2161  3.2406 -0.6001
 4890TIP3    H236230  -0.032   4.162   0.930  0.1694  0.4557 -1.1674
 4891TIP3   OH236231   4.131   5.708   0.362 -0.1907 -0.2333  0.5392
 4891TIP3    H136232   4.193   5.769   0.320  0.1268 -0.1923  1.0523
 4891TIP3    H236233   4.048   5.756   0.364 -1.0521 -1.3333 -2.7503
 4892TIP3   OH236234   6.114   5.065   5.989 -0.2614  0.5932 -0.4897
 4892TIP3    H136235   6.128   5.070   6.083 -1.7562  1.2505 -0.2745
 4892TIP3    H236236   6.197   5.033   5.954  0.7102  1.4756  0.9205
 4893TIP3   OH236237   1.131   7.023   0.172 -0.0783 -0.6744  0.2051
 4893TIP3    H136238   1.048   6.988   0.205 -0.9795 -0.6832 -1.9323
 4893TIP3    H236239   1.190   6.948   0.170 -0.1356 -0.7672  1.2690
 4894TIP3   OH236240   1.789   6.421   6.427  0.0800 -0.5115  0.3534
 4894TIP3    H136241   1.780   6.325   6.428 -0.8081 -0.4399  0.3394
 4894TIP3    H236242   1.735   6.450   6.501  0.8343 -0.0475  0.7340
 4895TIP3   OH236243   2.222   4.244   6.208  0.0341 -0.6376 -0.2847
 4895TIP3    H136244   2.231   4.164   6.156  0.4471 -0.7694 -0.0222
 4895TIP3    H236245   2.307   4.287   6.200 -0.7912  0.7743 -2.0025
 4896TIP3   OH236246   4.228   3.803   1.006  0.1994 -0.0325 -0.3435
 4896TIP3    H136247   4.182   3.816   1.089  2.0015 -0.0627  0.7204
 4896TIP3    H236248   4.199   3.717   0.975  0.5533 -0.6770  1.0233
 4897TIP3   OH236249   4.447   2.743   0.067  0.4452 -0.3861  0.2206
 4897TIP3    H136250   4.389   2.688   0.015 -0.3407  0.5782  0.0528
 4897TIP3    H236251   4.534   2.705   0.053  0.0328 -1.0993 -0.5245
 4898TIP3   OH236252   3.669   4.924   6.819 -0.2601  0.5628  0.7146
 4898TIP3    H136253   3.718   5.003   6.838  1.0081 -0.2719  0.9908
 4898TIP3    H236254   3.664   4.878   6.903 -0.8613  0.2668  0.5255
 4899TIP3   OH236255   2.729   3.190   0.741 -0.2056 -0.4746 -0.7330
 4899TIP3    H136256   2.716   3.144   0.824 -1.2217 -1.8410 -1.5911
 4899TIP3    H236257   2.823   3.185   0.724 -0.3896 -3.5631 -1.4316
 4900TIP3   OH236258   4.473   5.652   1.497  0.1135 -0.1546 -0.2412
 4900TIP3    H136259   4.531   5.586   1.536 -1.2507 -1.2930 -0.0647
 4900TIP3    H236260   4.469   5.628   1.405  0.1739  0.1242 -0.3174
 4901TIP3   OH236261   5.854   0.469   6.649 -0.0671 -0.3031 -0.5091
 4901TIP3    H136262   5.783   0.505   6.597  0.6331  2.2230  0.1266
 4901TIP3    H236263   5.844   0.374   6.642 -2.0891 -0.0289 -2.2869
 4902TIP3   OH236264   3.990   5.148   1.678 -0.1561  0.3259 -0.0818
 4902TIP3    H136265   4.081   5.147   1.648  0.8443 -0.2317  2.6126
 4902TIP3    H236266   3.982   5.230   1.728 -0.5492 -0.4294  1.1526
 4903TIP3   OH236267   4.558   5.547   7.828 -0.3847  0.1793  0.0235
 4903TIP3    H136268   4.634   5.571   7.775  0.3464 -0.2626  0.8512
 4903TIP3    H236269   4.509   5.628   7.839  0.8070  0.8076  0.8115
 4904TIP3   OH236270   3.948   3.433   7.301  0.7614 -0.2555 -0.3196
 4904TIP3    H136271   3.952   3.364   7.368 -1.8046 -0.5275 -0.3454
 4904TIP3    H236272   3.971   3.513   7.347  1.5453 -0.8137  0.2698
 4905TIP3   OH236273   0.617   6.505   7.450  0.1567 -0.2420 -0.0453
 4905TIP3    H136274   0.703   6.501   7.407  1.9257  2.2036  2.8829
 4905TIP3    H236275   0.632   6.466   7.536 -1.6851  0.2410  0.5209
 4906TIP3   OH236276   3.215   6.837   0.040  0.5165 -0.0060 -0.0035
 4906TIP3    H136277   3.180   6.748   0.048  0.9884 -0.3597 -1.5249
 4906TIP3    H236278   3.209   6.873   0.128  0.8745 -1.7589  0.7876
 4907TIP3   OH236279   0.471   1.701   1.184 -0.0084  0.2726 -0.3472
 4907TIP3    H136280   0.555   1.659   1.202  0.6646  1.7505  0.0546
 4907TIP3    H236281   0.427   1.641   1.124  1.1966 -0.6691 -0.3238
 4908TIP3   OH236282   6.725   4.756   1.236 -0.1753 -0.0815 -0.0308
 4908TIP3    H136283   6.801   4.745   1.293 -0.5070 -0.3330  0.3702
 4908TIP3    H236284   6.707   4.668   1.202 -0.3773 -0.0544  0.0020
 4909TIP3   OH236285   1.444   3.381   7.139 -0.2619 -1.1719 -0.5842
 4909TIP3    H136286   1.406   3.313   7.195 -0.1013 -1.3771 -0.7229
 4909TIP3    H236287   1.451   3.340   7.053 -1.7298 -0.4406 -1.0826
 4910TIP3   OH236288   5.851   0.203   1.524 -0.4742 -0.2620 -0.3553
 4910TIP3    H136289   5.866   0.192   1.430 -0.8392 -1.5088 -0.2862
 4910TIP3    H236290   5.939   0.207   1.562 -0.3264 -0.0330 -0.7132
 4911TIP3   OH236291   5.516   5.595   7.495 -0.4285  0.1005 -0.7353
 4911TIP3    H136292   5.443   5.653   7.515 -1.0689 -1.4759  2.2235
 4911TIP3    H236293   5.477   5.508   7.489  0.9801 -0.5514 -0.9509
 4912TIP3   OH236294   0.598   5.321   7.412  0.9232 -0.6609  0.7947
 4912TIP3    H136295   0.643   5.242   7.382  0.5128  0.2746 -2.8160
 4912TIP3    H236296   0.511   5.315   7.373  1.0423  1.7443 -0.0073
 4913TIP3   OH236297   3.130   5.494   7.237 -0.2712 -0.3746 -0.3158
 4913TIP3    H136298   3.084   5.578   7.240 -0.4616 -0.4213 -1.4361
 4913TIP3    H236299   3.163   5.481   7.325  0.0442  1.0444 -0.2137
 4914TIP3   OH236300   3.196   6.320   7.887  0.2796  0.3271  0.1000
 4914TIP3    H136301   3.157   6.341   7.971  0.7221  1.2237  0.0916
 4914TIP3    H236302   3.289   6.339   7.898  0.1216  1.9300 -1.0338
 4915TIP3   OH236303   2.604   2.395   7.198  0.5881 -0.3991  0.7426
 4915TIP3    H136304   2.638   2.307   7.216 -0.7589 -1.1431 -0.2099
 4915TIP3    H236305   2.511   2.390   7.219  0.5571  0.9171  1.0216
 4916TIP3   OH236306   4.982   5.949   0.277  0.1403 -0.6622 -0.3389
 4916TIP3    H136307   4.898   5.909   0.300  0.0358 -0.1853  0.1177
 4916TIP3    H236308   4.979   5.957   0.181 -0.1365 -1.0756 -0.3682
 4917TIP3   OH236309   2.795   6.080   2.169 -0.2483 -1.1970  0.2884
 4917TIP3    H136310   2.805   6.144   2.098  0.6893  0.4267  1.8116
 4917TIP3    H236311   2.824   6.126   2.247 -0.0839 -3.3299  1.5650
 4918TIP3   OH236312   1.317   6.894   1.536 -0.1172  0.1377  0.7283
 4918TIP3    H136313   1.341   6.928   1.622  1.5301 -0.0029  0.3578
 4918TIP3    H236314   1.222   6.881   1.541  0.0624 -0.7768  2.8411
 4919TIP3   OH236315   5.782   3.617   7.027  0.0142  0.5131 -0.1597
 4919TIP3    H136316   5.870   3.622   7.064 -0.5375  2.3313  1.0598
 4919TIP3    H236317   5.724   3.626   7.103 -1.2091  0.8988 -1.1103
 4920TIP3   OH236318   0.729   0.879   7.479  0.0137 -0.0726  0.5174
 4920TIP3    H136319   0.753   0.842   7.394  0.9264  1.0702  0.2588
 4920TIP3    H236320   0.784   0.834   7.542 -0.0698 -0.3292  0.4076
 4921TIP3   OH236321   0.647   6.517   0.834 -0.8899 -0.3015 -0.0198
 4921TIP3    H136322   0.652   6.609   0.862 -2.3626  0.3270 -1.6303
 4921TIP3    H236323   0.569   6.483   0.877 -0.8993 -0.5107 -0.2002
 4922TIP3   OH236324   6.750   4.525   1.105  0.0756 -0.3593  0.0240
 4922TIP3    H136325   6.787   4.437   1.106 -1.8510 -1.2320  0.8957
 4922TIP3    H236326   6.717   4.537   1.016  0.7767 -0.3090 -0.2326
 4923TIP3   OH236327   6.139   4.935   0.623  0.0809  0.8156  0.0904
 4923TIP3    H136328   6.046   4.938   0.647  0.0485 -1.8158  0.5509
 4923TIP3    H236329   6.143   4.870   0.553  1.9069 -1.3458  2.0575
 4924TIP3   OH236330   5.432   0.230   6.545 -0.9926 -0.3056 -0.0739
 4924TIP3    H136331   5.428   0.244   6.640 -1.1758 -0.3033 -0.0828
 4924TIP3    H236332   5.522   0.201   6.530 -1.1928 -1.0796  0.2046
 4925TIP3   OH236333   1.112   2.348   6.621  0.4790  0.4516 -0.1567
 4925TIP3    H136334   1.019   2.328   6.633  0.5616  0.1890  0.0514
 4925TIP3    H236335   1.120   2.371   6.529 -0.0035  1.6106  0.0740
 4926TIP3   OH236336   3.742   0.900   0.630 -0.1709 -0.0742 -0.1967
 4926TIP3    H136337   3.726   0.816   0.586  0.8329 -0.3226 -0.1033
 4926TIP3    H236338   3.806   0.944   0.575 -0.1091  0.2972  0.1672
 4927TIP3   OH236339   6.762   3.663   7.309  0.3398 -0.4067 -0.3633
 4927TIP3    H136340   6.803   3.701   7.387  0.5569 -0.3324 -0.5127
 4927TIP3    H236341   6.779   3.726   7.239  1.2070 -1.0408 -0.7408
 4928TIP3   OH236342   2.662   5.272   6.674 -0.0981  0.7149  0.0285
 4928TIP3    H136343   2.670   5.299   6.583  0.2626  0.2717 -0.0745
 4928TIP3    H236344   2.607   5.339   6.715  0.5067  1.4203 -0.2980
 4929TIP3   OH236345   6.264   2.859   7.569 -0.3133 -0.0613  0.4851
 4929TIP3    H136346   6.339   2.864   7.628 -0.1794 -1.8284  0.5223
 4929TIP3    H236347   6.229   2.948   7.566  1.5513  0.7230  0.7597
 4930TIP3   OH236348   1.760   3.536   6.593  0.3582  0.0979 -0.0821
 4930TIP3    H136349   1.820   3.525   6.518  0.6763 -0.1585  0.2081
 4930TIP3    H236350   1.673   3.541   6.553  0.1247 -3.4748 -0.2988
 4931TIP3   OH236351   3.129   2.248   7.550 -0.0037 -0.1158 -0.6498
 4931TIP3    H136352   3.155   2.178   7.490 -3.6979 -2.7683  0.4638
 4931TIP3    H236353   3.034   2.255   7.540 -0.3612  1.6294  2.4666
 4932TIP3   OH236354   0.841   1.319   7.386 -0.3289  0.2536  0.4115
 4932TIP3    H136355   0.841   1.355   7.297  0.0774 -1.4734 -0.3379
 4932TIP3    H236356   0.898   1.377   7.436  2.9114 -1.0240 -1.5045
 4933TIP3   OH236357   4.466   2.575   1.306  0.0814  0.4207  0.3652
 4933TIP3    H136358   4.439   2.483   1.305  5.0512 -1.3403 -0.8179
 4933TIP3    H236359   4.473   2.597   1.399 -0.6661 -0.5333  0.6670
 4934TIP3   OH236360   2.375   2.195   0.400  0.1943 -0.5576  0.1484
 4934TIP3    H136361   2.319   2.262   0.438 -0.3058 -1.5755  1.2609
 4934TIP3    H236362   2.363   2.205   0.305 -0.6872  0.2225  0.3285
 4935TIP3   OH236363   2.461   3.180   6.255 -0.0870  0.3261 -0.0246
 4935TIP3    H136364   2.499   3.257   6.299 -1.7523  0.5516  1.0834
 4935TIP3    H236365   2.524   3.110   6.272  1.4109  1.3765 -0.9514
 4936TIP3   OH236366   4.437   3.868   0.488 -0.5093 -0.0838  0.2295
 4936TIP3    H136367   4.513   3.816   0.515  0.6384  1.5944  0.4119
 4936TIP3    H236368   4.390   3.885   0.570 -1.8890 -2.1959 -0.0272
 4937TIP3   OH236369   5.618   6.523   7.746  0.2826  0.6276 -0.4298
 4937TIP3    H136370   5.660   6.493   7.665 -0.4901  0.1227 -0.6523
 4937TIP3    H236371   5.600   6.616   7.730  0.4441  0.6144 -0.7033
 4938TIP3   OH236372   1.240   3.219   1.756  0.6248  0.0236 -0.0442
 4938TIP3    H136373   1.334   3.208   1.743  0.6501 -1.1195  0.9145
 4938TIP3    H236374   1.221   3.171   1.837 -0.8300 -0.0151 -0.3721
 4939TIP3   OH236375   2.092   5.924   0.697 -0.0676 -0.4301 -0.0041
 4939TIP3    H136376   2.034   5.857   0.660  1.8172 -1.0266 -2.1536
 4939TIP3    H236377   2.117   5.889   0.783 -3.0413  0.0284  1.1711
 4940TIP3   OH236378   6.189   2.929   0.417 -0.1168  0.2888 -0.3372
 4940TIP3    H136379   6.149   2.885   0.342  0.3183  1.3599 -1.2159
 4940TIP3    H236380   6.162   3.020   0.410 -2.0516 -0.0004  2.1868
 4941TIP3   OH236381   3.489   1.177   7.330 -0.5303  0.4507  0.0814
 4941TIP3    H136382   3.554   1.114   7.362  0.2059  1.2514  0.2060
 4941TIP3    H236383   3.541   1.252   7.302 -1.4313  1.2431  0.4994
 4942TIP3   OH236384   4.889   3.532   6.645 -0.0713 -0.2980 -0.4508
 4942TIP3    H136385   4.968   3.562   6.601 -0.0559  0.0297 -0.1989
 4942TIP3    H236386   4.823   3.529   6.577 -0.0494  0.2170 -0.4960
 4943TIP3   OH236387   1.433   6.818   0.722 -0.0615 -0.3673 -0.1419
 4943TIP3    H136388   1.428   6.863   0.807  0.3331 -0.5704 -0.0070
 4943TIP3    H236389   1.350   6.771   0.715  0.2917 -1.1395  0.5918
 4944TIP3   OH236390   1.735   6.854   6.531 -0.4518  0.3601  0.3371
 4944TIP3    H136391   1.829   6.837   6.532 -0.3881  0.5511 -0.7478
 4944TIP3    H236392   1.727   6.940   6.489 -1.0913  0.5304  0.7899
 4945TIP3   OH236393   0.980   1.318   8.217  0.7990  1.0768 -0.1873
 4945TIP3    H136394   0.889   1.310   8.246  0.6880 -1.9816 -1.0439
 4945TIP3    H236395   1.029   1.335   8.298 -0.1346 -1.5871  1.0703
 4946TIP3   OH236396   0.499   2.085   6.778  0.0719  0.0850  0.7279
 4946TIP3    H136397   0.463   2.000   6.802 -0.9934  0.2510 -0.1944
 4946TIP3    H236398   0.592   2.078   6.799  0.6093 -2.3346 -1.8098
 4947TIP3   OH236399   3.384   3.739   1.237 -0.3211 -0.1420 -0.0104
 4947TIP3    H136400   3.422   3.680   1.301 -0.6559 -0.5503 -0.1771
 4947TIP3    H236401   3.374   3.822   1.283 -0.1117 -0.2961  0.3155
 4948TIP3   OH236402   6.850   0.653   6.319  0.7552 -0.1270 -0.1566
 4948TIP3    H136403   6.878   0.598   6.246 -0.4327 -0.5827 -0.3003
 4948TIP3    H236404   6.922   0.715   6.332  0.3427  1.0240 -2.7619
 4949TIP3   OH236405   3.294   1.955   6.553 -0.0405  0.2075  0.3068
 4949TIP3    H136406   3.276   2.002   6.472  0.0818 -0.3874 -0.0649
 4949TIP3    H236407   3.254   2.010   6.621 -0.6001  0.4417 -0.1999
 4950TIP3   OH236408   6.983   3.681   0.984 -0.0740 -0.0922  0.2620
 4950TIP3    H136409   7.063   3.678   1.036  0.4081 -0.0085 -0.4733
 4950TIP3    H236410   7.003   3.738   0.911 -0.1645 -1.5851 -0.9858
 4951TIP3   OH236411   4.744   6.463   7.880  0.3632 -0.2527  0.2921
 4951TIP3    H136412   4.816   6.523   7.864  1.4239 -1.4562  0.3440
 4951TIP3    H236413   4.787   6.378   7.895 -1.0664 -1.0103  0.2665
 4952TIP3   OH236414   6.385   4.697   7.616 -0.4140 -0.0527 -0.0581
 4952TIP3    H136415   6.313   4.756   7.637 -0.1307  0.1734  0.2925
 4952TIP3    H236416   6.345   4.610   7.613 -0.4238 -0.1534  1.7665
 4953TIP3   OH236417   1.887   0.620   1.198  0.0087 -0.1014 -0.1573
 4953TIP3    H136418   1.792   0.618   1.186  0.0764 -0.9993 -0.6019
 4953TIP3    H236419   1.923   0.601   1.112  0.5941  0.0380  0.0484
 4954TIP3   OH236420   3.869   2.813   7.668 -0.3277  0.1016 -0.0859
 4954TIP3    H136421   3.839   2.766   7.590  0.5137 -0.8448  0.1441
 4954TIP3    H236422   3.964   2.821   7.656 -0.2385  0.2473  0.6752
 4955TIP3   OH236423   0.387   4.754   6.232  0.3808  0.0159 -0.0050
 4955TIP3    H136424   0.459   4.719   6.180 -0.3507 -1.6789  0.0438
 4955TIP3    H236425   0.383   4.847   6.208  2.5000  0.1428 -0.0487
 4956TIP3   OH236426   4.101   1.721   7.774 -0.5624  0.0920 -0.5409
 4956TIP3    H136427   4.137   1.805   7.745  0.8825 -0.8692 -1.6922
 4956TIP3    H236428   4.144   1.705   7.858  0.6819 -0.3813 -1.2423
 4957TIP3   OH236429   3.235   6.533   0.566 -0.4152  0.0146  0.0007
 4957TIP3    H136430   3.139   6.531   0.562 -0.4207  0.5479 -0.2438
 4957TIP3    H236431   3.262   6.561   0.478 -0.0490  0.1656  0.1593
 4958TIP3   OH236432   3.163   4.313   7.446 -0.4012 -0.0746 -0.1164
 4958TIP3    H136433   3.161   4.308   7.351  2.4204  0.2988 -0.2919
 4958TIP3    H236434   3.252   4.342   7.466 -1.5376  1.9742  2.5533
 4959TIP3   OH236435   2.467   4.320   1.066 -0.3997  0.0292  0.6850
 4959TIP3    H136436   2.562   4.321   1.058 -0.3394  1.0817  1.3217
 4959TIP3    H236437   2.435   4.346   0.980 -0.1300 -0.8071  0.3273
 4960TIP3   OH236438   6.015   4.701   1.762  0.4941  0.5407 -0.3304
 4960TIP3    H136439   6.058   4.618   1.780 -1.3630 -0.4528 -0.2222
 4960TIP3    H236440   6.024   4.751   1.843 -0.1735 -0.4056  0.3499
 4961TIP3   OH236441   6.328   4.850   7.028  0.0228  0.2416  0.2967
 4961TIP3    H136442   6.250   4.821   7.075  0.9661 -0.9041  1.2415
 4961TIP3    H236443   6.382   4.891   7.096  1.1168 -0.8358  0.1147
 4962TIP3   OH236444   6.322   4.668   0.940  0.2058  0.0125 -0.2754
 4962TIP3    H136445   6.358   4.752   0.913  0.1597  0.0877 -0.1019
 4962TIP3    H236446   6.397   4.619   0.973  0.3422 -0.2507 -0.9619
 4963TIP3   OH236447   0.200   1.702   0.111  0.1844  0.7143 -0.2334
 4963TIP3    H136448   0.295   1.690   0.108  0.1602  0.6444 -0.8265
 4963TIP3    H236449   0.188   1.797   0.114  0.2773  0.7199 -0.0463
 4964TIP3   OH236450   1.882   0.560   0.546  0.0458 -0.1417 -0.0689
 4964TIP3    H136451   1.907   0.490   0.486 -0.8221  0.0018 -0.6281
 4964TIP3    H236452   1.786   0.557   0.546  0.0315 -0.0358  1.2003
 4965TIP3   OH236453   6.721   1.770   2.157  0.1269 -0.4599 -0.1276
 4965TIP3    H136454   6.745   1.694   2.104 -2.2863 -0.5009 -1.2892
 4965TIP3    H236455   6.661   1.735   2.222  0.6710  0.1270  0.7072
 4966TIP3   OH236456   1.565   6.279   0.734 -0.7462  0.2152 -0.6716
 4966TIP3    H136457   1.570   6.370   0.704 -0.3772 -0.1974 -1.9343
 4966TIP3    H236458   1.512   6.236   0.667  0.0118 -0.7359 -0.6654
 4967TIP3   OH236459   2.900   4.717   6.713  0.2711 -0.5380 -0.2401
 4967TIP3    H136460   2.824   4.666   6.740  0.0547 -0.9616 -1.5569
 4967TIP3    H236461   2.920   4.774   6.788 -2.7592  1.2752 -0.6447
 4968TIP3   OH236462   3.731   4.091   1.538 -0.0311 -0.1830  0.0563
 4968TIP3    H136463   3.722   3.999   1.512  0.3082 -0.3477  0.4902
 4968TIP3    H236464   3.738   4.139   1.456  2.3239 -0.8153 -0.1765
 4969TIP3   OH236465   6.613   3.265   7.722 -0.5455  0.1114  0.0103
 4969TIP3    H136466   6.620   3.202   7.794 -0.9533 -0.1521 -0.1766
 4969TIP3    H236467   6.631   3.350   7.762  0.8623 -0.2102  0.1063
 4970TIP3   OH236468   1.964   4.970   7.089 -0.3473  0.0656  0.4598
 4970TIP3    H136469   2.018   4.907   7.137 -0.7049 -0.5824  0.0295
 4970TIP3    H236470   1.891   4.917   7.056 -0.5629  0.6831 -0.0489
 4971TIP3   OH236471   6.542   5.412   1.868 -0.2110 -0.1146  0.7074
 4971TIP3    H136472   6.602   5.368   1.929 -1.7661 -2.3323  0.7644
 4971TIP3    H236473   6.552   5.365   1.786  0.4398  1.6016 -0.2358
 4972TIP3   OH236474   3.576   5.506   0.999 -0.0419 -0.3393 -0.7533
 4972TIP3    H136475   3.492   5.542   1.028  0.6236 -0.0537  0.9347
 4972TIP3    H236476   3.554   5.419   0.964 -0.9516 -0.6181  0.4424
 4973TIP3   OH236477   4.401   1.486   1.402  0.0700  0.1382 -0.2895
 4973TIP3    H136478   4.341   1.463   1.473 -0.5086  1.4268 -0.3481
 4973TIP3    H236479   4.476   1.427   1.414 -0.2034  0.0572  1.1444
 4974TIP3   OH236480   2.430   3.392   0.690 -0.0056 -0.0110 -0.3199
 4974TIP3    H136481   2.440   3.470   0.636  0.6486 -0.4404 -0.8316
 4974TIP3    H236482   2.493   3.405   0.761 -0.1468  0.0839 -0.2104
 4975TIP3   OH236483   3.617   0.372   6.672  0.3198 -0.5069  0.0648
 4975TIP3    H136484   3.632   0.288   6.716 -0.0090 -0.2502  0.6724
 4975TIP3    H236485   3.674   0.369   6.595  2.7026 -0.0072  1.7042
 4976TIP3   OH236486   0.824   2.582   1.574 -0.3356 -0.0530 -0.0794
 4976TIP3    H136487   0.868   2.562   1.657  0.4123  1.1503 -0.1549
 4976TIP3    H236488   0.884   2.642   1.529 -2.7201  3.0565  0.5356
 4977TIP3   OH236489   0.665   0.949   0.488 -0.0693 -0.1042  0.1596
 4977TIP3    H136490   0.675   0.933   0.394  0.8613  1.9391 -0.1551
 4977TIP3    H236491   0.746   0.915   0.527  0.6332  1.1555 -0.1336
 4978TIP3   OH236492   5.635   5.063   7.628  0.2706 -0.1949 -0.0830
 4978TIP3    H136493   5.674   5.128   7.686  0.6043 -0.6076  0.1592
 4978TIP3    H236494   5.542   5.063   7.652  0.6249 -1.3684  1.4664
 4979TIP3   OH236495   3.846   4.345   0.726 -0.7050  0.6202  0.3026
 4979TIP3    H136496   3.887   4.265   0.762  1.2788  1.8522  0.9987
 4979TIP3    H236497   3.813   4.391   0.803  1.6686  2.2666  0.4540
 4980TIP3   OH236498   0.106   5.603   0.710 -0.3083 -0.4379  0.5087
 4980TIP3    H136499   0.028   5.657   0.692  0.0989 -0.2260 -0.6836
 4980TIP3    H236500   0.116   5.608   0.805 -1.0229  0.5603  0.5533
 4981TIP3   OH236501   6.628   2.071   7.384  1.0257  0.5030  0.1910
 4981TIP3    H136502   6.659   2.161   7.389 -0.0098  1.0340 -1.8782
 4981TIP3    H236503   6.537   2.078   7.357  0.3522 -1.1544  1.8030
 4982TIP3   OH236504   4.577   1.748   7.050  0.4500  0.1899 -0.2433
 4982TIP3    H136505   4.530   1.736   7.132  0.8443 -0.6994 -0.1430
 4982TIP3    H236506   4.567   1.665   7.004  1.9239 -0.0235 -0.2264
 4983TIP3   OH236507   0.211   3.948   8.035  0.7251 -0.2081 -0.2535
 4983TIP3    H136508   0.293   3.997   8.035  1.2939 -1.1331  0.5225
 4983TIP3    H236509   0.145   4.013   8.011  1.9558  0.0217 -3.7119
 4984TIP3   OH236510   3.408   3.068   0.221 -0.2240 -0.0768 -1.0881
 4984TIP3    H136511   3.324   3.025   0.235 -0.0271  0.0361  0.7203
 4984TIP3    H236512   3.402   3.106   0.133 -1.8491 -0.5314 -1.1987
 4985TIP3   OH236513   2.572   3.286   1.274 -0.2275 -0.2627 -0.1850
 4985TIP3    H136514   2.622   3.367   1.261  0.2177 -0.7205 -1.4704
 4985TIP3    H236515   2.484   3.307   1.242  0.1130 -0.5170 -1.3556
 4986TIP3   OH236516   4.525   1.832   7.796  0.1016  0.1581 -0.1621
 4986TIP3    H136517   4.502   1.892   7.866  0.0276  0.9466 -0.8405
 4986TIP3    H236518   4.553   1.888   7.724 -1.5252 -0.5228 -1.3965
 4987TIP3   OH236519   0.545   4.621   6.042  0.2476  0.2575 -0.6628
 4987TIP3    H136520   0.631   4.580   6.035 -0.8903 -2.5582  0.2194
 4987TIP3    H236521   0.528   4.656   5.954  1.0749 -1.8746 -1.7547
 4988TIP3   OH236522   5.053   6.650   6.960  0.2256  0.4168 -0.0632
 4988TIP3    H136523   5.134   6.621   6.918  0.7884  0.7223  0.7978
 4988TIP3    H236524   5.057   6.746   6.955 -0.1664  0.4318 -0.1562
 4989TIP3   OH236525   3.495   1.220   6.334  0.0391  0.0793 -0.0266
 4989TIP3    H136526   3.457   1.277   6.400  0.1587 -0.0719  0.1762
 4989TIP3    H236527   3.452   1.136   6.347 -0.4423  0.2354 -0.6013
 4990TIP3   OH236528   1.514   0.005   7.159  0.1404 -0.0238  0.1669
 4990TIP3    H136529   1.455  -0.006   7.233  0.5733 -0.9910  0.3738
 4990TIP3    H236530   1.520  -0.082   7.119  1.7495 -0.0486  0.3993
 4991TIP3   OH236531   2.767   1.585   6.561 -0.4385 -0.4203  0.0484
 4991TIP3    H136532   2.766   1.604   6.655 -1.1742  0.3260 -0.0984
 4991TIP3    H236533   2.832   1.515   6.551  0.2468  0.0711  0.9890
 4992TIP3   OH236534   4.877   5.929   2.542 -0.6433 -0.1066 -0.4564
 4992TIP3    H136535   4.828   5.867   2.595 -2.7106  0.9566 -1.0167
 4992TIP3    H236536   4.938   5.971   2.603 -1.0480 -0.8336  0.4583
 4993TIP3   OH236537   3.002   2.082   1.039  0.2642 -0.2990 -0.2571
 4993TIP3    H136538   3.050   2.129   0.971 -0.1307  0.4485 -0.0263
 4993TIP3    H236539   3.058   2.090   1.117  0.0780  0.0049 -0.1545
 4994TIP3   OH236540   0.387   4.212   6.386  0.2891  0.4140  0.2877
 4994TIP3    H136541   0.440   4.225   6.307  0.8335  2.5825  0.9363
 4994TIP3    H236542   0.447   4.176   6.450  0.4212  0.7351  0.3482
 4995TIP3   OH236543   0.692   3.233   6.977 -0.0416  0.0680  0.1117
 4995TIP3    H136544   0.634   3.160   7.000 -0.0298  0.2804  0.8385
 4995TIP3    H236545   0.656   3.268   6.895  0.3394 -1.1690 -0.6126
 4996TIP3   OH236546   2.375   0.736   6.544  0.0338 -0.1142 -0.1926
 4996TIP3    H136547   2.400   0.753   6.453 -0.0079  0.4823 -0.0960
 4996TIP3    H236548   2.351   0.643   6.545  1.8015 -0.6145 -0.3981
 4997TIP3   OH236549   3.377   1.778   7.280 -1.0561 -0.6366  0.3530
 4997TIP3    H136550   3.383   1.691   7.239 -1.1654 -1.6406  2.3100
 4997TIP3    H236551   3.413   1.764   7.368  1.9823  2.0640 -0.2709
 4998TIP3   OH236552   1.435   2.920   6.418  0.1911 -0.5470 -0.3387
 4998TIP3    H136553   1.385   2.992   6.458  1.8580  1.4058 -1.6153
 4998TIP3    H236554   1.395   2.909   6.332 -0.1381 -1.2466 -0.0978
 4999TIP3   OH236555   2.570   2.210   5.994 -0.4159 -0.2905  0.2566
 4999TIP3    H136556   2.646   2.240   5.944  1.2525  0.6295  3.1177
 4999TIP3    H236557   2.555   2.279   6.058 -1.1160 -2.2926  2.3710
 5000TIP3   OH236558   0.461   4.733   5.786 -0.3981  0.3059  0.3693
 5000TIP3    H136559   0.390   4.761   5.844  0.7970 -1.3681  2.8007
 5000TIP3    H236560   0.426   4.656   5.741  0.1098 -1.0129  2.1789
 5001TIP3   OH236561   1.745   3.042   7.587 -0.0262 -0.4104  0.1697
 5001TIP3    H136562   1.802   3.048   7.510 -0.9093  1.9265 -0.3627
 5001TIP3    H236563   1.741   3.131   7.621 -1.9024 -0.8691  1.2697
 5002TIP3   OH236564   5.307   3.207   0.141  0.1978 -0.2534 -0.4780
 5002TIP3    H136565   5.241   3.153   0.097 -0.6120 -1.1385  1.6724
 5002TIP3    H236566   5.312   3.287   0.089 -1.2778 -0.9005 -1.6813
 5003TIP3   OH236567   6.136   5.400   7.008 -0.4321 -0.2234  0.6495
 5003TIP3    H136568   6.068   5.346   6.967 -1.0625 -0.2779  1.7451
 5003TIP3    H236569   6.096   5.432   7.089  0.1418  1.3890  0.3324
 5004TIP3   OH236570   1.393   3.128   6.194  0.2887  0.5683 -0.0488
 5004TIP3    H136571   1.311   3.153   6.236  1.4186  1.1965  1.8943
 5004TIP3    H236572   1.378   3.039   6.163 -1.6929  1.2908 -1.3848
 5005TIP3   OH236573   5.184   1.596   7.958  0.3010  0.3539  0.3422
 5005TIP3    H136574   5.105   1.648   7.963  0.2877  0.2666  1.0939
 5005TIP3    H236575   5.191   1.554   8.044  0.9797  0.1035  0.1705
 5006TIP3   OH236576   6.070   2.932   6.393 -0.6306  0.4261 -0.7321
 5006TIP3    H136577   6.011   3.000   6.362 -1.8679 -0.0748  0.4271
 5006TIP3    H236578   6.114   2.970   6.469  0.7038  0.8479 -1.6709
 5007TIP3   OH236579   3.013   5.591   1.984  0.0283  0.0417 -0.3800
 5007TIP3    H136580   3.100   5.568   1.952  0.1098  0.0757 -0.1836
 5007TIP3    H236581   3.027   5.668   2.038  0.1098 -0.8746  0.9426
 5008TIP3   OH236582   6.697   3.074   2.156 -0.2644  0.1168  0.1602
 5008TIP3    H136583   6.634   3.091   2.226  0.1870  0.7821  0.4167
 5008TIP3    H236584   6.660   3.000   2.107 -0.7516 -0.1292  0.8917
 5009TIP3   OH236585   5.755   5.223   8.018  0.1963 -0.0011 -0.3152
 5009TIP3    H136586   5.744   5.291   7.951  0.5154 -1.1682 -1.6077
 5009TIP3    H236587   5.726   5.265   8.099 -0.9637  1.2216 -1.2980
 5010TIP3   OH236588   5.537   1.263   6.891  0.2015 -0.4785  0.0104
 5010TIP3    H136589   5.462   1.261   6.951  1.2008  0.9829  1.3923
 5010TIP3    H236590   5.596   1.197   6.926  0.9515  0.6338  0.9535
 5011TIP3   OH236591   3.947   3.682   7.842 -0.1150 -0.3465  0.0653
 5011TIP3    H136592   3.941   3.688   7.747 -0.8541 -2.5695 -0.0903
 5011TIP3    H236593   3.857   3.669   7.872  0.3257 -2.0784  0.8014
 5012TIP3   OH236594   4.466   6.622   0.550  0.4674  0.4618  0.2895
 5012TIP3    H136595   4.541   6.575   0.514  0.3427  0.6230 -0.1889
 5012TIP3    H236596   4.433   6.675   0.477 -0.3194  0.1272  0.3880
 5013TIP3   OH236597   2.471   6.363   1.397  0.1010 -0.1580 -0.2918
 5013TIP3    H136598   2.524   6.430   1.354 -2.3499  3.2897  1.5593
 5013TIP3    H236599   2.511   6.352   1.483 -1.1652  1.2815  0.5229
 5014TIP3   OH236600   4.452   0.127   6.719 -0.7195  0.2659 -0.1823
 5014TIP3    H136601   4.482   0.099   6.806  1.1538  0.2025 -0.7868
 5014TIP3    H236602   4.411   0.050   6.681 -1.0806  0.1427  0.4483
 5015TIP3   OH236603   4.646   2.183   0.003  0.4934  0.3444 -0.5281
 5015TIP3    H136604   4.645   2.262  -0.051  0.7516  0.8961  0.2551
 5015TIP3    H236605   4.579   2.198   0.069  1.4429  0.5036  0.4366
 5016TIP3   OH236606   1.119   5.274   0.444  0.2954  0.2405 -0.1082
 5016TIP3    H136607   1.065   5.221   0.502  0.6494  0.3174  0.3066
 5016TIP3    H236608   1.106   5.364   0.476  2.0551  0.0971  1.2117
 5017TIP3   OH236609   1.010   4.619   1.417 -0.0793 -0.3527  0.0390
 5017TIP3    H136610   1.074   4.566   1.370  0.8980 -1.8004  2.7594
 5017TIP3    H236611   1.049   4.706   1.422  0.1294 -0.3695 -1.0926
 5018TIP3   OH236612   1.675   6.408   5.972 -1.0337  0.3470  0.0810
 5018TIP3    H136613   1.614   6.372   6.037 -2.6897 -0.1826 -1.7002
 5018TIP3    H236614   1.736   6.461   6.024 -0.7401 -2.0118  2.3751
 5019TIP3   OH236615   3.619   1.383   1.152 -0.0711  0.4641  0.0362
 5019TIP3    H136616   3.534   1.416   1.179 -0.3664  1.5966 -2.0609
 5019TIP3    H236617   3.678   1.458   1.157  1.1079 -0.5278  2.4036
 5020TIP3   OH236618   0.568   3.035   7.501 -0.6145 -0.7711 -0.7402
 5020TIP3    H136619   0.605   2.971   7.440  0.7722 -0.0935 -0.6687
 5020TIP3    H236620   0.602   3.009   7.587  1.9551  1.2818 -0.9752
 5021TIP3   OH236621   2.480   5.833   6.065 -0.9974  0.0465  0.4459
 5021TIP3    H136622   2.495   5.739   6.060 -0.4238  0.0844  1.3114
 5021TIP3    H236623   2.561   5.872   6.031 -0.8895  0.2323  0.9161
 5022TIP3   OH236624   3.846   5.762   0.096  0.1258  0.0998  0.4953
 5022TIP3    H136625   3.893   5.823   0.039  0.5916 -1.1778 -0.5240
 5022TIP3    H236626   3.863   5.795   0.184  0.1093  1.6111 -0.0265
 5023TIP3   OH236627   0.368   0.385   7.673 -0.6197  0.0882  0.2074
 5023TIP3    H136628   0.356   0.372   7.767 -0.1608  0.3270  0.3021
 5023TIP3    H236629   0.279   0.384   7.637 -0.7405 -1.0081  0.5094
 5024TIP3   OH236630   1.697   6.399   0.049 -0.4965  0.3043  0.3626
 5024TIP3    H136631   1.783   6.423   0.015 -0.2258 -1.3555 -0.2575
 5024TIP3    H236632   1.715   6.359   0.134 -0.6012 -0.3839  0.0665
 5025TIP3   OH236633   4.386   1.314   7.429 -0.1226  0.5100  0.0014
 5025TIP3    H136634   4.334   1.393   7.413 -0.7080 -0.0391 -0.8427
 5025TIP3    H236635   4.445   1.339   7.501 -1.5222  1.1426  0.9688
 5026TIP3   OH236636   3.740   1.708   6.711  0.1958 -0.0457 -0.1768
 5026TIP3    H136637   3.807   1.673   6.652  0.9520 -0.0406  0.6668
 5026TIP3    H236638   3.731   1.641   6.779  1.1433  1.0616  1.0656
 5027TIP3   OH236639   6.240   4.433   7.667 -0.1382  0.6772  1.0716
 5027TIP3    H136640   6.147   4.452   7.680  0.1201  1.7159  1.4770
 5027TIP3    H236641   6.242   4.341   7.641 -1.4227  1.0355 -0.5167
 5028TIP3   OH236642   1.826   2.076   1.065  0.3982 -0.4305  0.0375
 5028TIP3    H136643   1.872   2.109   1.141  1.0836 -0.5492 -0.3189
 5028TIP3    H236644   1.894   2.038   1.009 -0.0329  0.0195 -0.8242
 5029TIP3   OH236645   6.752   0.884   1.222 -0.1063 -0.5562  0.3911
 5029TIP3    H136646   6.834   0.928   1.197 -0.8124  0.1545 -0.7640
 5029TIP3    H236647   6.744   0.901   1.316  0.5143  0.3353  0.3056
 5030TIP3   OH236648   3.576   3.836   0.920 -0.5010  0.0600  0.0792
 5030TIP3    H136649   3.551   3.796   1.003 -1.8708 -0.5442 -0.5912
 5030TIP3    H236650   3.595   3.927   0.942 -1.1375 -0.0229  1.0155
 5031TIP3   OH236651   2.195   3.612   1.127 -0.0212 -0.0492 -0.2786
 5031TIP3    H136652   2.219   3.692   1.081 -0.8904  0.0844 -0.5271
 5031TIP3    H236653   2.103   3.597   1.102 -0.0715 -0.7474  0.2965
 5032TIP3   OH236654   6.746   2.537   0.880  0.5599 -0.3258  0.0045
 5032TIP3    H136655   6.668   2.592   0.891 -0.1985 -1.4403  0.3909
 5032TIP3    H236656   6.810   2.572   0.942 -0.3338 -0.6051  1.1195
 5033TIP3   OH236657   4.290   3.116   8.031  0.5028  0.6763  0.5620
 5033TIP3    H136658   4.248   3.086   8.112  0.5748 -0.4942  0.1741
 5033TIP3    H236659   4.253   3.061   7.962  0.5275  1.5811 -0.2080
 5034TIP3   OH236660   6.827   4.209   5.922  0.2329 -0.3434  0.6568
 5034TIP3    H136661   6.747   4.160   5.902 -0.4453  0.4532  1.3441
 5034TIP3    H236662   6.897   4.144   5.916 -0.5086 -1.1378  0.4061
 5035TIP3   OH236663   6.932   6.650   6.466  0.0081 -0.1176 -0.0467
 5035TIP3    H136664   6.915   6.737   6.502  1.3730 -0.1354  0.7252
 5035TIP3    H236665   7.027   6.649   6.451 -0.1593 -1.0565 -1.1854
 5036TIP3   OH236666   3.826   5.310   2.322  0.1172 -0.3162  0.5414
 5036TIP3    H136667   3.876   5.322   2.403  0.8822 -0.5264  0.1061
 5036TIP3    H236668   3.809   5.398   2.291  1.9078 -0.2389 -0.3241
 5037TIP3   OH236669   6.863   4.534   0.690  0.2353 -0.7431 -0.0896
 5037TIP3    H136670   6.898   4.461   0.639  0.6156 -0.1185 -0.7471
 5037TIP3    H236671   6.929   4.602   0.682  0.0603 -0.4611  0.8420
 5038TIP3   OH236672   0.561   2.594   6.442  0.4657 -0.2451 -0.1907
 5038TIP3    H136673   0.588   2.563   6.528  2.1958 -0.2436 -0.6833
 5038TIP3    H236674   0.616   2.670   6.425 -1.0384  0.7963 -0.6189
 5039TIP3   OH236675   5.253   2.432   7.271 -0.3580 -0.0916 -0.2347
 5039TIP3    H136676   5.190   2.406   7.204 -0.8470 -0.2540  0.2786
 5039TIP3    H236677   5.252   2.528   7.269 -0.7421 -0.0921 -0.1210
 5040TIP3   OH236678   2.971   2.338   1.477 -0.0270 -0.1073 -0.5276
 5040TIP3    H136679   2.947   2.330   1.569  1.1482  0.7099 -0.1319
 5040TIP3    H236680   2.973   2.432   1.460  2.2356 -0.1407 -0.6764
 5041TIP3   OH236681   4.791   1.249   7.486 -0.5262  0.0123  0.0725
 5041TIP3    H136682   4.794   1.344   7.476  1.9005 -0.1152 -0.9292
 5041TIP3    H236683   4.823   1.234   7.575 -2.4460  0.1344  0.8493
 5042TIP3   OH236684   5.662   4.729   7.559  0.0571  0.3101  0.8177
 5042TIP3    H136685   5.720   4.691   7.493 -0.6730 -2.0193  1.4076
 5042TIP3    H236686   5.682   4.822   7.558 -0.2334  0.5005 -3.0084
 5043TIP3   OH236687   4.301   0.187   6.408 -0.1686  0.1183  0.0942
 5043TIP3    H136688   4.307   0.268   6.460  1.1462 -0.1606  0.4144
 5043TIP3    H236689   4.383   0.183   6.360 -0.7165 -0.4394 -0.8377
 5044TIP3   OH236690   0.164   5.093   7.808 -0.4470  0.4906  0.1091
 5044TIP3    H136691   0.193   5.053   7.726 -2.0156  1.0760 -0.7825
 5044TIP3    H236692   0.143   5.184   7.785 -1.0147  0.6373  1.1259
 5045TIP3   OH236693   1.177   3.102   2.005 -0.1193 -0.1761 -0.9871
 5045TIP3    H136694   1.117   3.027   2.000 -1.0740  0.6000 -1.7243
 5045TIP3    H236695   1.141   3.157   2.074 -0.5326  0.5133 -1.7403
 5046TIP3   OH236696   4.722   3.874   0.641  0.4944 -0.3866 -0.2850
 5046TIP3    H136697   4.707   3.922   0.722 -1.0832 -0.4572 -0.4995
 5046TIP3    H236698   4.735   3.783   0.668  3.2466  0.0352  0.1027
 5047TIP3   OH236699   7.005   2.349   1.661  0.1148  0.2583  0.3539
 5047TIP3    H136700   6.929   2.320   1.711 -0.1414  0.0045 -0.1767
 5047TIP3    H236701   7.010   2.289   1.587  1.9962 -0.9858  1.4048
 5048TIP3   OH236702   1.765   5.278   6.526  0.1157 -0.1510  0.1035
 5048TIP3    H136703   1.807   5.358   6.495 -1.0283  0.3010 -0.3164
 5048TIP3    H236704   1.692   5.308   6.579 -0.1750 -0.9154  0.1518
 5049TIP3   OH236705   1.108   3.533   0.530  0.0564  0.5139 -0.0482
 5049TIP3    H136706   1.021   3.565   0.509  0.6701  2.8930  0.6860
 5049TIP3    H236707   1.115   3.449   0.485 -2.4463  0.4446 -0.4252
 5050TIP3   OH236708   5.037   3.593   6.178 -1.1603  0.1337  0.0173
 5050TIP3    H136709   5.119   3.557   6.210 -0.8510  2.4166  2.0905
 5050TIP3    H236710   4.971   3.528   6.202 -0.1745 -0.9628 -0.1675
 5051TIP3   OH236711   3.011   1.483   0.117  0.8074  0.2222 -0.6856
 5051TIP3    H136712   2.990   1.443   0.201 -0.8225  0.7385 -0.8280
 5051TIP3    H236713   2.950   1.444   0.054  0.3195  1.6591 -1.1451
 5052TIP3   OH236714   6.330   3.199   7.725 -0.1481 -0.4420 -0.4108
 5052TIP3    H136715   6.425   3.202   7.713 -0.3536  0.9751 -2.0561
 5052TIP3    H236716   6.295   3.195   7.637 -1.6659  1.4068  0.0482
 5053TIP3   OH236717   4.318   0.653   0.365 -0.0486 -0.1690  1.0067
 5053TIP3    H136718   4.256   0.685   0.300 -0.6367  1.1445  2.1757
 5053TIP3    H236719   4.273   0.581   0.409  0.3935 -1.1394 -0.0558
 5054TIP3   OH236720   5.521   4.957   7.008 -1.0301  0.2021 -0.6414
 5054TIP3    H136721   5.428   4.960   6.987 -0.8961  0.1706 -1.2595
 5054TIP3    H236722   5.557   5.036   6.967 -1.0790  1.2067  1.1272
 5055TIP3   OH236723   1.352   1.119   2.050  0.1041 -0.1034 -0.4142
 5055TIP3    H136724   1.326   1.039   2.005 -1.8815  1.3685 -2.0668
 5055TIP3    H236725   1.421   1.157   1.995  0.0019  0.0580 -0.4332
 5056TIP3   OH236726   5.015   1.012   1.027  0.1948 -0.2455  0.0537
 5056TIP3    H136727   5.093   0.995   1.079  1.1605  0.5250 -1.1081
 5056TIP3    H236728   4.949   1.037   1.092  0.3893 -2.4967  1.2151
 5057TIP3   OH236729   6.951   4.802   0.658 -0.2514  0.2263 -0.0881
 5057TIP3    H136730   7.000   4.884   0.665  1.2229 -0.6681  0.4716
 5057TIP3    H236731   6.944   4.786   0.564  0.4507  0.4326 -0.1827
 5058TIP3   OH236732   3.581   6.422   6.986 -0.3063 -0.0572  0.1310
 5058TIP3    H136733   3.649   6.399   7.051  1.2462  2.1322 -0.5948
 5058TIP3    H236734   3.551   6.509   7.013 -3.9138 -1.4674  1.1982
 5059TIP3   OH236735   1.772   1.611   7.743  0.1262  1.1077 -0.1175
 5059TIP3    H136736   1.826   1.534   7.757 -0.7592  0.0380 -2.1367
 5059TIP3    H236737   1.832   1.676   7.706  0.6052  0.9294  0.3386
 5060TIP3   OH236738   3.544   4.747   5.851 -0.0973  0.0338 -0.0860
 5060TIP3    H136739   3.504   4.660   5.837 -0.7257  0.5936 -2.1178
 5060TIP3    H236740   3.494   4.805   5.794  1.4087  1.4289 -0.0471
 5061TIP3   OH236741   0.437   4.241   1.266 -0.1654 -0.1836 -0.0525
 5061TIP3    H136742   0.499   4.266   1.197 -0.3214  1.4022  0.3253
 5061TIP3    H236743   0.488   4.242   1.347 -0.6938  1.4235  0.3024
 5062TIP3   OH236744   0.149   5.914   7.112  0.6005 -0.5997  0.5410
 5062TIP3    H136745   0.088   5.981   7.080 -0.2285 -1.6669 -0.1878
 5062TIP3    H236746   0.135   5.911   7.206 -0.5262 -0.8585  0.3751
 5063TIP3   OH236747   5.754   3.979   6.375 -0.1449  0.4748 -0.5008
 5063TIP3    H136748   5.695   4.042   6.416 -1.2546 -0.2057 -1.0140
 5063TIP3    H236749   5.841   4.020   6.381 -0.5623  1.2135  0.8158
 5064TIP3   OH236750   3.619   6.142   0.608  0.1046 -0.1317  0.1351
 5064TIP3    H136751   3.705   6.157   0.647  0.4774 -1.9899  0.0924
 5064TIP3    H236752   3.593   6.228   0.574  2.5240  0.1937 -1.0509
 5065TIP3   OH236753   6.042   4.128   2.330  0.2299 -0.3155 -0.0944
 5065TIP3    H136754   6.072   4.201   2.384 -0.0554 -1.2759  1.4254
 5065TIP3    H236755   6.056   4.157   2.240 -0.0042  1.6464  0.4618
 5066TIP3   OH236756   2.412   3.892   7.006  0.1203  0.1003  0.2659
 5066TIP3    H136757   2.390   3.982   7.032 -0.9167  0.4870 -1.7123
 5066TIP3    H236758   2.337   3.840   7.033 -0.6352  0.3819 -1.1792
 5067TIP3   OH236759   2.824   2.958   7.548  0.3008  0.0942  0.4518
 5067TIP3    H136760   2.802   3.050   7.565  1.2825  0.5722 -0.6932
 5067TIP3    H236761   2.784   2.939   7.463  0.2693 -0.4860  0.5896
 5068TIP3   OH236762   6.619   1.476   6.905  0.4736  0.1388  0.0496
 5068TIP3    H136763   6.557   1.549   6.896  0.7451  0.3181 -0.4059
 5068TIP3    H236764   6.607   1.425   6.825  0.1840 -0.4010  0.4308
 5069TIP3   OH236765   0.800   6.036   7.214 -0.3266  0.0047 -0.5587
 5069TIP3    H136766   0.731   5.981   7.178 -2.6918  2.1661  0.2809
 5069TIP3    H236767   0.753   6.114   7.246  1.7542 -0.4730  4.6136
 5070TIP3   OH236768   3.338   1.394   0.536  0.0298  0.3098 -0.5038
 5070TIP3    H136769   3.422   1.425   0.501  0.5872  0.7151  1.1002
 5070TIP3    H236770   3.362   1.333   0.605 -0.9855  0.6461  0.1742
 5071TIP3   OH236771   1.598   2.810   7.201 -0.3411 -0.5317 -0.1359
 5071TIP3    H136772   1.525   2.829   7.258  0.1343 -2.2376  1.1391
 5071TIP3    H236773   1.587   2.868   7.126 -1.7466  0.7881  1.0467
 5072TIP3   OH236774   5.219   4.700   0.263  0.2460 -0.0061 -0.3091
 5072TIP3    H136775   5.139   4.743   0.234 -0.9710 -2.1621 -0.3219
 5072TIP3    H236776   5.220   4.711   0.358  0.4074  0.7525 -0.3915
 5073TIP3   OH236777   6.424   1.551   8.172  0.0127 -0.1324 -0.3179
 5073TIP3    H136778   6.466   1.505   8.245  0.4680  3.1630  1.6679
 5073TIP3    H236779   6.489   1.615   8.143 -1.5887  1.2544 -1.0183
 5074TIP3   OH236780   2.531   2.767   7.405 -0.0605 -0.3976  0.1858
 5074TIP3    H136781   2.598   2.830   7.379 -0.2165 -0.5909 -0.7000
 5074TIP3    H236782   2.573   2.715   7.473  0.2073  0.3883  0.6413
 5075TIP3   OH236783   1.073   2.761   6.389  0.0097  0.4842 -0.5615
 5075TIP3    H136784   1.160   2.729   6.366  0.0370  1.4338 -1.8217
 5075TIP3    H236785   1.042   2.697   6.454  0.4362 -1.6063 -2.2739
 5076TIP3   OH236786   2.065   1.780   7.095  0.0017  0.1512 -0.1299
 5076TIP3    H136787   2.099   1.696   7.127 -1.0072  0.0460  0.7277
 5076TIP3    H236788   2.003   1.757   7.026  0.3252  0.2482 -0.4593
 5077TIP3   OH236789   5.168   3.455   1.253  0.0717 -0.1283 -0.7509
 5077TIP3    H136790   5.166   3.450   1.348  1.1473  1.1746 -0.6246
 5077TIP3    H236791   5.255   3.423   1.229  0.7258  1.7385 -1.0707
 5078TIP3   OH236792   5.556   3.993   6.639 -0.2793  0.1430 -0.7607
 5078TIP3    H136793   5.573   4.057   6.570  0.9271  0.5977 -0.0765
 5078TIP3    H236794   5.551   4.045   6.719 -0.1796 -0.5153 -0.3172
 5079TIP3   OH236795   1.423   4.052   0.798 -0.0857  0.1946  0.7075
 5079TIP3    H136796   1.499   3.995   0.806 -0.3227 -0.1835  0.3688
 5079TIP3    H236797   1.376   4.041   0.881 -0.7954 -1.1100  0.1661
 5080TIP3   OH236798   5.271   6.601   7.547 -0.4879 -0.3950  0.1662
 5080TIP3    H136799   5.176   6.586   7.551 -0.4054 -1.2655 -0.6195
 5080TIP3    H236800   5.300   6.544   7.475  0.4616  0.7525 -0.3836
 5081TIP3   OH236801   3.358   4.868   0.613  0.0449  0.0626  0.0707
 5081TIP3    H136802   3.288   4.932   0.605 -0.4628 -0.4978 -0.0341
 5081TIP3    H236803   3.409   4.897   0.689 -2.5765 -1.6293  2.6979
 5082TIP3   OH236804   0.271   1.221   7.151  0.2513  0.0667  0.1246
 5082TIP3    H136805   0.256   1.164   7.076 -1.7626  1.0978 -0.3434
 5082TIP3    H236806   0.298   1.305   7.113 -0.0450  0.3724  0.5713
 5083TIP3   OH236807   4.421   4.436   7.280  0.1897 -0.2864  0.1456
 5083TIP3    H136808   4.400   4.474   7.195  0.8632  0.3430  0.2547
 5083TIP3    H236809   4.451   4.510   7.333  0.4158 -0.7799  0.7221
 5084TIP3   OH236810   6.441   6.535   0.211  0.0256 -0.3465  0.4252
 5084TIP3    H136811   6.406   6.449   0.231  1.8842 -0.8451  1.8756
 5084TIP3    H236812   6.372   6.596   0.240 -0.6219 -1.3082  0.9700
 5085TIP3   OH236813   3.315   0.839   7.265  0.2712 -0.2752  0.1998
 5085TIP3    H136814   3.347   0.866   7.352  0.1742 -0.3600  0.2627
 5085TIP3    H236815   3.228   0.805   7.282 -0.4980  1.4143 -0.1954
 5086TIP3   OH236816   2.919   0.352   1.059  0.2759 -0.7451 -0.4426
 5086TIP3    H136817   2.874   0.353   1.143 -0.4560 -0.9223 -0.8240
 5086TIP3    H236818   2.999   0.402   1.073  0.2545 -0.9485  0.4101
 5087TIP3   OH236819   3.283   0.526   1.670  0.5835  0.1509  0.0070
 5087TIP3    H136820   3.374   0.515   1.643  0.2842  1.3933 -1.6787
 5087TIP3    H236821   3.279   0.615   1.705 -0.4087  0.9478 -2.0122
 5088TIP3   OH236822   3.156   6.596   7.430 -0.3497  0.0090  0.7585
 5088TIP3    H136823   3.134   6.641   7.511 -1.2989  1.0062 -0.0175
 5088TIP3    H236824   3.074   6.557   7.401 -0.5401  1.4318 -0.7659
 5089TIP3   OH236825   0.237   6.421   0.880 -0.0533  0.2362 -0.0410
 5089TIP3    H136826   0.320   6.433   0.926 -0.1009  2.0051 -0.3769
 5089TIP3    H236827   0.223   6.502   0.833 -1.0419 -0.7552 -1.5480
 5090TIP3   OH236828   6.236   0.643   0.681  0.0232 -0.0019  0.2195
 5090TIP3    H136829   6.275   0.600   0.757  1.0156 -1.7305 -1.1846
 5090TIP3    H236830   6.263   0.734   0.689  1.0404 -0.3769  1.3773
 5091TIP3   OH236831   0.509   5.842   1.847  0.0385 -0.2618 -0.0331
 5091TIP3    H136832   0.570   5.856   1.919  1.8185 -0.6738 -1.3832
 5091TIP3    H236833   0.463   5.925   1.839  2.6241  1.2045 -0.8896
 5092TIP3   OH236834   1.488   6.013   5.941  0.7118 -0.0473  0.0812
 5092TIP3    H136835   1.522   5.930   5.909  1.2394  0.4255 -0.6167
 5092TIP3    H236836   1.487   6.070   5.864 -1.3728  0.0695  0.1405
 5093TIP3   OH236837   2.403   3.129   8.012  0.5050 -0.3593  0.5011
 5093TIP3    H136838   2.438   3.070   7.945 -0.4406  0.7117 -0.9841
 5093TIP3    H236839   2.481   3.166   8.054  1.1253 -0.6638 -0.3540
 5094TIP3   OH236840   4.042   1.409   7.362  0.2256  0.0367 -0.5844
 5094TIP3    H136841   4.003   1.415   7.449  1.1820 -2.1538  0.0737
 5094TIP3    H236842   4.128   1.449   7.372  0.5248 -0.6356 -0.3498
 5095TIP3   OH236843   2.837   2.631   8.257  0.2406  0.6071  0.1826
 5095TIP3    H136844   2.798   2.569   8.318 -3.1345  2.7401  0.4160
 5095TIP3    H236845   2.821   2.592   8.170 -2.6698  1.4096  0.2652
 5096TIP3   OH236846   4.854   1.277   0.897 -0.3326 -0.0129 -0.4363
 5096TIP3    H136847   4.786   1.317   0.843 -0.4072  0.1182 -0.2450
 5096TIP3    H236848   4.924   1.342   0.900 -0.0993 -0.2424 -0.8263
 5097TIP3   OH236849   3.569   4.119   7.891 -0.0829 -0.0673  0.3446
 5097TIP3    H136850   3.580   4.078   7.805  0.0859 -1.6664  1.0992
 5097TIP3    H236851   3.615   4.202   7.884  0.3007 -0.3683 -0.9804
 5098TIP3   OH236852   6.453   2.395   0.716  0.5168  0.1762  0.0342
 5098TIP3    H136853   6.406   2.420   0.636  0.0415 -0.7844 -0.0063
 5098TIP3    H236854   6.546   2.403   0.693  0.3805  0.4608 -0.4321
 5099TIP3   OH236855   4.920   7.037   0.748  0.0942 -0.1838  0.4002
 5099TIP3    H136856   4.892   7.017   0.659 -1.8299 -0.6455  1.0510
 5099TIP3    H236857   4.934   6.951   0.789  0.9618  0.0224  0.5593
 5100TIP3   OH236858   1.849   0.356   7.869 -0.4187  0.3515  0.3321
 5100TIP3    H136859   1.801   0.433   7.896 -0.5210  0.3154  0.2525
 5100TIP3    H236860   1.784   0.286   7.866 -0.1621  0.0507  1.2954
 5101TIP3   OH236861   3.678   6.996   7.436 -0.3210 -0.3345 -0.0925
 5101TIP3    H136862   3.749   6.945   7.395 -0.5296  0.1350 -1.0555
 5101TIP3    H236863   3.646   7.053   7.366  0.0017  1.2363  1.0018
 5102TIP3   OH236864   6.081   4.835   1.990 -0.0673  0.4448  0.1123
 5102TIP3    H136865   6.141   4.908   1.974 -1.8640  1.9825  0.0412
 5102TIP3    H236866   6.098   4.810   2.081  1.5668 -0.0759 -0.2859
 5103TIP3   OH236867   1.829   1.386   6.015  0.0595 -0.2172  0.1878
 5103TIP3    H136868   1.758   1.447   6.035  0.1402 -0.1023  0.1224
 5103TIP3    H236869   1.815   1.313   6.075 -0.1660 -0.2354  0.1153
 5104TIP3   OH236870   2.702   3.438   5.836  0.0677 -0.4301 -0.1928
 5104TIP3    H136871   2.749   3.356   5.850 -0.5928 -0.7489  0.2081
 5104TIP3    H236872   2.752   3.484   5.768  1.3570 -0.4267  0.7350
 5105TIP3   OH236873   3.496   1.838   6.729  0.2190 -0.2574  0.7738
 5105TIP3    H136874   3.578   1.792   6.706 -0.4715 -0.7717 -0.8109
 5105TIP3    H236875   3.447   1.841   6.647 -1.6067 -0.4512  1.8190
 5106TIP3   OH236876   5.959   1.129   0.517  0.6673  0.5266 -0.3138
 5106TIP3    H136877   5.903   1.054   0.497  1.0986 -0.6712  2.4830
 5106TIP3    H236878   5.904   1.188   0.568  1.1686  0.6487  0.0958
 5107TIP3   OH236879   4.590   6.871   0.403  0.3235 -0.0773 -0.2210
 5107TIP3    H136880   4.549   6.886   0.488 -2.6135 -1.8249 -1.2040
 5107TIP3    H236881   4.566   6.948   0.351  0.3439  0.0216 -0.0845
 5108TIP3   OH236882   5.968   0.879   1.678  0.0954 -0.7856  0.1262
 5108TIP3    H136883   6.037   0.839   1.730  1.5333  0.6400 -0.6179
 5108TIP3    H236884   5.982   0.846   1.589 -1.3530 -1.9221  0.2629
 5109TIP3   OH236885   2.862   3.049   8.206  0.2997 -0.1769 -0.4045
 5109TIP3    H136886   2.912   2.988   8.151  0.3634  1.0090 -1.7241
 5109TIP3    H236887   2.905   3.046   8.291 -0.6332 -3.1105  0.0738
 5110TIP3   OH236888   2.007   6.828   6.840 -0.5518 -0.2118 -0.3315
 5110TIP3    H136889   1.950   6.849   6.914  0.9313  1.1172  0.5076
 5110TIP3    H236890   2.095   6.827   6.878  0.0942 -1.2428 -1.7672
 5111TIP3   OH236891   4.637   6.439   1.392  0.8948 -0.2736  0.4168
 5111TIP3    H136892   4.632   6.347   1.417 -1.2505 -0.3005  0.0388
 5111TIP3    H236893   4.703   6.441   1.323  3.8901 -0.8284  3.0069
 5112TIP3   OH236894   0.094   6.544   1.987 -0.1212  0.2043 -0.0698
 5112TIP3    H136895   0.064   6.536   2.078  0.4530  0.4157  0.1409
 5112TIP3    H236896   0.018   6.579   1.940 -0.4727 -0.0579  0.2930
 5113TIP3   OH236897   6.002   3.802   7.627  0.0669  0.0969 -0.4622
 5113TIP3    H136898   6.030   3.806   7.536 -1.6980 -0.1609 -1.0594
 5113TIP3    H236899   5.944   3.878   7.637  0.0263 -0.0364  0.3657
 5114TIP3   OH236900   2.602   3.800   0.797  0.3824 -0.2319  0.4352
 5114TIP3    H136901   2.664   3.729   0.784 -0.8128 -0.9169 -2.1728
 5114TIP3    H236902   2.536   3.764   0.857 -0.1959 -1.3794 -0.8315
 5115TIP3   OH236903   0.354   5.811   6.922  0.2636 -0.3461 -0.1439
 5115TIP3    H136904   0.307   5.868   6.982  1.2795  0.2177  0.1495
 5115TIP3    H236905   0.352   5.857   6.838  1.9031  0.6407  0.3102
 5116TIP3   OH236906   6.767   0.604   7.985  0.7474  0.5637 -0.1603
 5116TIP3    H136907   6.835   0.622   7.920  0.9377  3.1354  0.6362
 5116TIP3    H236908   6.815   0.589   8.066  0.4828 -1.9890 -0.4219
 5117TIP3   OH236909   5.787   2.144   8.022  0.3794  0.2941 -0.8656
 5117TIP3    H136910   5.788   2.227   8.070  0.9417  0.0627 -0.4805
 5117TIP3    H236911   5.708   2.099   8.054  1.1948 -0.2271  0.4790
 5118TIP3   OH236912   2.580   2.595   7.586  0.5918  0.0457 -0.0010
 5118TIP3    H136913   2.521   2.641   7.646 -2.6411  0.5034 -3.1687
 5118TIP3    H236914   2.551   2.504   7.590 -0.5840  0.2936 -1.6723
 5119TIP3   OH236915   3.400   6.450   7.449  0.4001  0.3622  0.9914
 5119TIP3    H136916   3.328   6.514   7.449  0.7278  0.7492 -0.3145
 5119TIP3    H236917   3.404   6.420   7.540 -0.3711  1.5075  1.4338
 5120TIP3   OH236918   2.535   0.164   5.944  0.0569 -0.2423  0.2337
 5120TIP3    H136919   2.550   0.258   5.938 -4.7233  0.6994 -1.6138
 5120TIP3    H236920   2.587   0.127   5.873 -1.3815  1.7242 -1.9800
 5121TIP3   OH236921   5.401   0.660   0.605  0.7833 -0.0846 -0.0767
 5121TIP3    H136922   5.411   0.654   0.510 -0.3316  1.4810 -0.3200
 5121TIP3    H236923   5.449   0.739   0.630 -0.3522  0.4804  0.4025
 5122TIP3   OH236924   5.910   3.402   1.855 -0.2451 -0.6839  0.4118
 5122TIP3    H136925   5.947   3.368   1.774  0.7399 -0.3192  0.6958
 5122TIP3    H236926   5.820   3.426   1.832 -0.3027 -1.5314 -0.3069
 5123TIP3   OH236927   3.749   2.966   6.875  0.2461  0.3455 -0.6041
 5123TIP3    H136928   3.750   3.032   6.945 -0.5231 -0.7264  0.4466
 5123TIP3    H236929   3.842   2.947   6.859  0.4500  1.0878 -0.3685
 5124TIP3   OH236930   6.940   4.237   6.509 -0.2472  0.1313  0.3747
 5124TIP3    H136931   6.997   4.313   6.505 -0.8120  0.5208 -1.0565
 5124TIP3    H236932   6.855   4.272   6.536 -0.0937 -0.2738  1.4178
 5125TIP3   OH236933   3.783   0.299   1.859 -0.5128 -0.0374 -0.6627
 5125TIP3    H136934   3.696   0.333   1.839  0.0460  0.7924 -1.7723
 5125TIP3    H236935   3.815   0.356   1.929 -0.4857  0.2598 -0.9165
 5126TIP3   OH236936   2.060   7.005   0.196  0.2900  0.0970  0.2161
 5126TIP3    H136937   2.142   6.960   0.179  0.2940  0.0060  0.4773
 5126TIP3    H236938   2.020   7.016   0.109  0.4282 -0.1397  0.1220
 5127TIP3   OH236939   5.547   4.089   7.750  0.1255 -0.3167  0.3825
 5127TIP3    H136940   5.613   4.085   7.818  0.3326 -0.6907  0.1646
 5127TIP3    H236941   5.594   4.122   7.673  0.6388 -2.7004 -0.4208
 5128TIP3   OH236942   0.732   5.553   6.955  0.0741  0.0964  0.6432
 5128TIP3    H136943   0.781   5.623   6.910  1.6442 -0.8824  0.7404
 5128TIP3    H236944   0.790   5.525   7.026 -1.6361  0.4311  2.2506
 5129TIP3   OH236945   4.378   0.872   1.784 -0.4506 -0.1117 -0.1777
 5129TIP3    H136946   4.317   0.798   1.790  0.2447 -0.7515 -0.7327
 5129TIP3    H236947   4.454   0.836   1.740 -0.3537  1.1182 -1.0613
 5130TIP3   OH236948   6.061   1.606   1.005 -0.0230  0.1505  0.0503
 5130TIP3    H136949   6.020   1.619   1.090  0.9709 -1.0167  0.7322
 5130TIP3    H236950   6.046   1.514   0.985 -1.3917  0.6953 -1.6794
 5131TIP3   OH236951   5.492   3.698   8.013 -0.2544 -0.0076  0.6645
 5131TIP3    H136952   5.451   3.765   8.069 -0.4924  0.7121 -0.3513
 5131TIP3    H236953   5.515   3.744   7.933 -0.3457 -1.1292 -0.0273
 5132TIP3   OH236954   3.428   0.872   7.525  0.3832 -0.4315  0.6993
 5132TIP3    H136955   3.469   0.804   7.578  1.3485  0.9378  1.7854
 5132TIP3    H236956   3.435   0.951   7.578 -1.2413  0.4131 -0.2712
 5133TIP3   OH236957   0.314   3.426   1.379  0.1681 -0.3852 -0.2022
 5133TIP3    H136958   0.395   3.376   1.391  0.5187  0.3113  0.4097
 5133TIP3    H236959   0.245   3.367   1.409  0.5349 -0.6551  0.1214
 5134TIP3   OH236960   3.465   3.760   8.276  0.1117  0.1822 -0.4758
 5134TIP3    H136961   3.472   3.819   8.351  0.4610 -0.3055 -0.1192
 5134TIP3    H236962   3.552   3.763   8.235  0.2223 -0.3149 -0.2790
 5135TIP3   OH236963   1.326   3.012   1.123 -0.2571  0.1919  0.4741
 5135TIP3    H136964   1.306   2.958   1.200 -0.8801 -1.0709 -0.5497
 5135TIP3    H236965   1.418   2.996   1.106 -0.1210  0.4588  0.9327
 5136TIP3   OH236966   3.916   3.187   6.736  0.3027  0.1133 -0.0143
 5136TIP3    H136967   3.938   3.107   6.783  0.1090  0.5167  0.7898
 5136TIP3    H236968   3.988   3.247   6.757 -0.2523  0.5989  0.5398
 5137TIP3   OH236969   3.208   5.505   8.267  0.1484 -0.0009  0.1020
 5137TIP3    H136970   3.153   5.583   8.259  1.0168  0.8069  1.5571
 5137TIP3    H236971   3.200   5.461   8.182  0.6064  2.3331 -1.2349
 5138TIP3   OH236972   4.530   6.055   0.914  0.1526  0.2029  0.2198
 5138TIP3    H136973   4.621   6.056   0.946  0.3034 -0.8475 -0.1381
 5138TIP3    H236974   4.484   5.997   0.975  0.0504 -0.3965 -0.4044
 5139TIP3   OH236975   2.899   5.222   0.299 -0.0792  0.7466 -0.2923
 5139TIP3    H136976   2.952   5.235   0.220 -2.2717 -0.0534 -2.0119
 5139TIP3    H236977   2.809   5.233   0.269 -1.0308 -0.3183  1.9685
 5140TIP3   OH236978   6.456   1.352   6.372 -0.1318 -0.0388  0.6589
 5140TIP3    H136979   6.496   1.270   6.343  0.8692 -0.1464  2.2277
 5140TIP3    H236980   6.390   1.372   6.305 -0.4760 -2.1724  0.2970
 5141TIP3   OH236981   1.579   2.928   6.652  0.7659 -0.3430 -0.4666
 5141TIP3    H136982   1.540   2.916   6.565 -2.7899 -0.6030  0.9882
 5141TIP3    H236983   1.579   2.841   6.691 -1.7110  0.3276  1.2328
 5142TIP3   OH236984   1.814   5.852   7.600  0.4628 -0.5580 -0.0181
 5142TIP3    H136985   1.778   5.876   7.515  1.5816  0.0202 -0.3491
 5142TIP3    H236986   1.909   5.859   7.589  0.6357  2.1543  1.9460
 5143TIP3   OH236987   3.002   5.652   1.278 -0.0595 -1.0550 -0.4018
 5143TIP3    H136988   2.978   5.657   1.370  0.4519 -0.1523 -0.3075
 5143TIP3    H236989   3.093   5.620   1.279  0.3436  0.0583 -0.5312
 5144TIP3   OH236990   1.286   6.374   7.453 -0.2607 -0.1407  0.1547
 5144TIP3    H136991   1.268   6.452   7.506 -1.3758 -0.0901 -0.2737
 5144TIP3    H236992   1.285   6.302   7.516  1.0908  0.2061  0.6055
 5145TIP3   OH236993   6.301   6.670   8.151  0.3533  0.2500  0.2890
 5145TIP3    H136994   6.220   6.718   8.171 -0.0665 -0.6356  0.7622
 5145TIP3    H236995   6.279   6.619   8.073  0.4972  0.1099  0.3390
 5146TIP3   OH236996   1.358   1.473   6.698 -0.0561 -0.1607 -0.4547
 5146TIP3    H136997   1.345   1.390   6.651 -1.3633 -0.3301  0.1359
 5146TIP3    H236998   1.360   1.448   6.790 -2.0974  0.5671 -0.1469
 5147TIP3   OH236999   3.038   2.610   1.485 -0.4945  0.3346 -0.0469
 5147TIP3    H137000   3.034   2.676   1.554  0.9192 -1.3449  1.7412
 5147TIP3    H237001   3.100   2.645   1.421 -0.4515  1.1279  0.4190
 5148TIP3   OH237002   0.117   5.549   6.880  0.4123  0.0871  0.1201
 5148TIP3    H137003   0.030   5.588   6.879  0.2450 -0.2191 -1.7780
 5148TIP3    H237004   0.176   5.620   6.857  0.5108  0.0325  0.2042
 5149TIP3   OH237005   0.252   1.203   2.150 -0.7452  0.1576  0.5129
 5149TIP3    H137006   0.193   1.230   2.219 -0.1012  1.0956  0.7246
 5149TIP3    H237007   0.270   1.284   2.101  3.4692  0.9555  2.8428
 5150TIP3   OH237008   5.002   0.605   0.256  0.1398  0.2393 -0.1862
 5150TIP3    H137009   5.043   0.521   0.237 -0.5109  0.3479 -2.2342
 5150TIP3    H237010   5.032   0.663   0.187 -1.1847  1.0800 -0.0978
 5151TIP3   OH237011   6.766   3.928   7.088  0.1762  0.0183 -0.2475
 5151TIP3    H137012   6.810   4.003   7.048 -0.5078 -0.1507 -1.3519
 5151TIP3    H237013   6.673   3.948   7.081 -0.1022 -1.5822 -1.9630
 5152TIP3   OH237014   6.469   1.739   7.029 -0.0756  0.8006  0.0985
 5152TIP3    H137015   6.427   1.705   6.950 -0.6609 -1.9839  1.4835
 5152TIP3    H237016   6.405   1.801   7.064 -1.4716 -0.6013  0.1994
 5153TIP3   OH237017   2.151   6.945   1.042  0.3845 -0.2416 -0.3102
 5153TIP3    H137018   2.086   6.967   1.109  0.8500  0.3629 -0.0476
 5153TIP3    H237019   2.123   6.993   0.965  1.4361  1.3868  0.2808
 5154TIP3   OH237020   1.344   4.494   0.933  0.1763 -0.0563 -0.3132
 5154TIP3    H137021   1.306   4.570   0.889 -0.4979 -0.9238 -1.2510
 5154TIP3    H237022   1.414   4.465   0.875  2.0246  1.2263  1.1600
 5155TIP3   OH237023   5.451   2.503   7.646 -0.0535 -0.0647  0.5972
 5155TIP3    H137024   5.384   2.540   7.703  0.3440  2.2744 -0.3362
 5155TIP3    H237025   5.403   2.451   7.583 -1.0034  1.3232  0.1244
 5156TIP3   OH237026   4.896   1.460   2.180  0.5224  0.1926  0.1465
 5156TIP3    H137027   4.839   1.438   2.253  0.9761  0.6951  0.6595
 5156TIP3    H237028   4.850   1.531   2.134 -0.1739 -0.7037 -0.5729
 5157TIP3   OH237029   0.374   3.377   8.088  0.8856  0.3570  0.1452
 5157TIP3    H137030   0.417   3.387   8.003  0.3722 -1.7666 -0.4276
 5157TIP3    H237031   0.323   3.296   8.080 -1.1124  1.3640  1.6863
 5158TIP3   OH237032   4.784   2.079   2.029  0.1261 -0.1847 -0.5934
 5158TIP3    H137033   4.760   1.986   2.035  1.2917 -0.4147  1.1763
 5158TIP3    H237034   4.742   2.119   2.105 -3.1356  1.4899 -3.0429
 5159TIP3   OH237035   6.174   0.108   1.224  0.1075 -0.8135 -0.2359
 5159TIP3    H137036   6.159   0.160   1.145 -1.2601 -0.9096 -0.0685
 5159TIP3    H237037   6.095   0.054   1.232  1.7002 -3.3357 -0.7125
 5160TIP3   OH237038   6.881   0.781   0.284 -0.2564  0.3713  0.1797
 5160TIP3    H137039   6.896   0.773   0.190 -1.1686 -0.0991  0.0668
 5160TIP3    H237040   6.809   0.844   0.291 -0.2065  0.3882  0.5676
 5161TIP3   OH237041   2.049   0.720   8.244  0.3542  0.1526 -0.2757
 5161TIP3    H137042   2.142   0.699   8.248  0.2404 -0.4447 -0.6776
 5161TIP3    H237043   2.017   0.673   8.167 -0.5005 -0.5431  0.4821
 5162TIP3   OH237044   2.490   1.686   8.207 -0.2781  0.8348 -0.3556
 5162TIP3    H137045   2.499   1.591   8.203 -0.3101  0.8645 -1.2323
 5162TIP3    H237046   2.492   1.715   8.116  1.9513  1.8759 -0.0477
 5163TIP3   OH237047   3.294   1.304   0.834 -0.1742 -0.0238  1.0726
 5163TIP3    H137048   3.275   1.242   0.904  0.7043 -1.9845 -0.3368
 5163TIP3    H237049   3.354   1.257   0.776  0.4426  2.1207 -0.1346
 5164TIP3   OH237050   4.270   4.378   6.752 -0.3761 -0.2380 -0.1679
 5164TIP3    H137051   4.233   4.290   6.752  0.6614 -0.7006  0.7579
 5164TIP3    H237052   4.327   4.380   6.675 -1.7308  0.2416 -1.1956
 5165TIP3   OH237053   3.500   2.333   1.136 -0.1602  0.2835  0.2984
 5165TIP3    H137054   3.480   2.272   1.065 -0.9849  0.4341  0.3896
 5165TIP3    H237055   3.490   2.282   1.216 -1.7501  0.7359  0.4244
 5166TIP3   OH237056   6.761   2.226   0.102 -0.3514  0.1141 -0.0919
 5166TIP3    H137057   6.790   2.226   0.010  2.4029  0.2842  0.6961
 5166TIP3    H237058   6.752   2.319   0.123 -1.4080  0.0641 -0.2895
 5167TIP3   OH237059   2.177   4.595   1.926  0.0406 -0.5373  0.2062
 5167TIP3    H137060   2.186   4.690   1.921  0.6637 -0.5618  0.6927
 5167TIP3    H237061   2.099   4.575   1.874  1.0871  0.0190 -1.6550
 5168TIP3   OH237062   1.278   0.193   1.755 -0.4055  0.1692  0.2045
 5168TIP3    H137063   1.194   0.172   1.712 -1.5032  2.5104  1.0358
 5168TIP3    H237064   1.326   0.110   1.755 -1.9757 -0.8482 -1.9009
 5169TIP3   OH237065   6.518   0.086   1.228  0.7222 -0.3564  0.2010
 5169TIP3    H137066   6.502   0.015   1.291  0.3406 -0.4288  0.0285
 5169TIP3    H237067   6.490   0.165   1.272  0.3748 -0.4181  0.0913
 5170TIP3   OH237068   5.141   1.463   0.187 -0.3597 -0.0960 -0.1294
 5170TIP3    H137069   5.182   1.549   0.192 -1.2512  0.2852  3.1039
 5170TIP3    H237070   5.144   1.430   0.277 -2.3716 -2.3176 -0.7785
 5171TIP3   OH237071   1.472   6.010   1.174  0.0456  0.5441  0.5722
 5171TIP3    H137072   1.565   6.033   1.174  0.3961 -0.8025  1.1828
 5171TIP3    H237073   1.455   5.981   1.085  0.5075 -0.2743  0.7365
 5172TIP3   OH237074   3.420   5.885   1.239  0.3634  0.0052  0.1311
 5172TIP3    H137075   3.359   5.813   1.223 -1.4857  0.8570  2.7446
 5172TIP3    H237076   3.505   5.843   1.251 -1.0420 -2.1975  4.0370
 5173TIP3   OH237077   6.757   0.543   0.306 -0.2827  0.1778  0.4358
 5173TIP3    H137078   6.823   0.611   0.314 -0.4298  0.6255 -1.6980
 5173TIP3    H237079   6.698   0.557   0.380  1.7437 -0.0053  2.1779
 5174TIP3   OH237080   4.830   6.111   1.022 -0.8509  0.3830 -0.0027
 5174TIP3    H137081   4.924   6.118   1.007 -0.7837 -0.3483  0.0093
 5174TIP3    H237082   4.819   6.134   1.114 -0.6067 -0.0815  0.1469
 5175TIP3   OH237083   6.835   2.795   8.030  0.2886 -0.5100  0.3880
 5175TIP3    H137084   6.820   2.793   8.125  0.3440  0.4229  0.4217
 5175TIP3    H237085   6.896   2.868   8.016  1.7239 -1.7596 -0.1832
 5176TIP3   OH237086   1.279   1.115   1.742  0.1769  0.1493  0.3452
 5176TIP3    H137087   1.270   1.020   1.733  0.6278  0.1646 -0.4262
 5176TIP3    H237088   1.193   1.144   1.774  0.0664 -0.5250  0.6842
 5177TIP3   OH237089   6.916   2.140   6.049 -0.0993 -0.1661 -0.0082
 5177TIP3    H137090   6.987   2.152   5.987 -0.5552 -1.1884 -0.7648
 5177TIP3    H237091   6.845   2.196   6.016 -0.1925 -0.3752 -0.1641
 5178TIP3   OH237092   1.740   4.379   6.802 -0.0519  0.2209  0.0265
 5178TIP3    H137093   1.742   4.378   6.707  1.2364  0.7297  0.0226
 5178TIP3    H237094   1.803   4.310   6.827 -2.2842 -1.7501  0.5565
 5179TIP3   OH237095   2.774   4.237   8.178  0.5932  0.4476 -0.7864
 5179TIP3    H137096   2.840   4.213   8.114 -1.2423  1.8670 -3.3764
 5179TIP3    H237097   2.698   4.183   8.156  0.8168 -1.3764  2.3084
 5180TIP3   OH237098   1.856   1.834   7.649  0.0954 -0.3099  0.2758
 5180TIP3    H137099   1.901   1.845   7.565 -0.9551 -0.1197 -0.2739
 5180TIP3    H237100   1.823   1.921   7.670 -0.3553 -0.5270  0.4763
 5181TIP3   OH237101   1.087   1.365   6.994 -0.3783 -0.0349  0.1174
 5181TIP3    H137102   1.162   1.340   6.940 -0.0874 -1.0341  0.9485
 5181TIP3    H237103   1.099   1.316   7.075 -0.8978  1.2848  1.0232
 5182TIP3   OH237104   6.400   3.473   1.399  0.6768  0.2784  0.0129
 5182TIP3    H137105   6.416   3.465   1.493  1.1321  0.3007 -0.0607
 5182TIP3    H237106   6.487   3.479   1.360  0.4745  0.9681 -0.3501
 5183TIP3   OH237107   1.141   3.377   7.118  0.8952 -0.4471 -0.1452
 5183TIP3    H137108   1.180   3.301   7.160 -0.3025 -1.6154 -1.0389
 5183TIP3    H237109   1.082   3.340   7.052 -1.1109  1.1971  0.6108
 5184TIP3   OH237110   3.398   3.044   1.038  0.7410  0.4511 -0.0248
 5184TIP3    H137111   3.367   3.114   1.095 -1.0808  0.4565 -0.9643
 5184TIP3    H237112   3.368   2.964   1.081  0.7239  0.3671 -0.1954
 5185TIP3   OH237113   4.987   4.363   0.048  0.0997  0.5623  0.6513
 5185TIP3    H137114   5.003   4.289   0.107 -2.2174 -1.1956 -0.7686
 5185TIP3    H237115   5.047   4.349  -0.025 -1.3990 -0.8444 -0.3488
 5186TIP3   OH237116   5.237   0.332   6.164  0.9054  0.0966  0.1170
 5186TIP3    H137117   5.239   0.418   6.206  2.7020  1.3543 -2.2743
 5186TIP3    H237118   5.328   0.302   6.167  0.9217 -0.1821 -1.8664
 5187TIP3   OH237119   4.683   2.628   0.632  0.6082 -0.2237  0.3899
 5187TIP3    H137120   4.722   2.714   0.618 -0.2778  0.2987  1.0161
 5187TIP3    H237121   4.604   2.646   0.683  0.1218 -1.3519  0.0598
 5188TIP3   OH237122   4.952   0.197   1.549 -0.5715 -0.1191  0.2432
 5188TIP3    H137123   5.003   0.257   1.603 -1.2515 -0.4703  1.3044
 5188TIP3    H237124   4.991   0.111   1.562 -1.3105 -0.3628  0.9322
 5189TIP3   OH237125   5.017   5.122   6.044  0.5928 -1.2392  0.0152
 5189TIP3    H137126   4.961   5.113   5.967  0.6543 -0.1092 -0.1849
 5189TIP3    H237127   4.963   5.091   6.117  0.5593 -2.3804 -0.4785
 5190TIP3   OH237128   6.947   0.070   0.311 -0.3842  0.1346  0.2538
 5190TIP3    H137129   6.990   0.155   0.314  0.8681 -0.4203 -0.8640
 5190TIP3    H237130   7.016   0.007   0.329 -1.1834 -0.6870  0.5609
 5191TIP3   OH237131   1.096   1.598   6.580 -0.0255 -0.1553 -0.0060
 5191TIP3    H137132   1.162   1.605   6.511  1.1680  0.0459  1.1089
 5191TIP3    H237133   1.115   1.515   6.624  0.3342  0.5057  1.1430
 5192TIP3   OH237134   3.997   5.331   7.031  0.3138  0.9983 -0.0542
 5192TIP3    H137135   3.924   5.380   7.068  1.7616  1.6536  2.1246
 5192TIP3    H237136   4.070   5.393   7.030  1.8271 -0.6385  1.4547
 5193TIP3   OH237137   6.591   5.677   6.938 -0.2657  0.1381  0.2112
 5193TIP3    H137138   6.520   5.615   6.955 -1.1961  1.6767  2.4493
 5193TIP3    H237139   6.630   5.692   7.024  1.0281  1.3862 -0.5491
 5194TIP3   OH237140   0.740   4.543   1.187 -0.4984  0.0430 -0.0035
 5194TIP3    H137141   0.646   4.556   1.196 -0.2510  0.8464  1.9169
 5194TIP3    H237142   0.778   4.627   1.211  0.7547 -0.8068  1.1527
 5195TIP3   OH237143   5.586   1.802   0.313 -0.2262  0.3880  0.0738
 5195TIP3    H137144   5.543   1.737   0.368  2.0759 -1.5482 -0.2491
 5195TIP3    H237145   5.542   1.795   0.228 -0.4847 -0.2458  0.2555
 5196TIP3   OH237146   2.088   5.317   6.364  0.3961 -0.0404  0.0109
 5196TIP3    H137147   2.061   5.409   6.369 -1.5804 -0.6104  0.3934
 5196TIP3    H237148   2.145   5.313   6.287  0.3235  1.4451 -0.1542
 5197TIP3   OH237149   2.561   6.234   6.002 -0.2645 -0.1404 -0.4585
 5197TIP3    H137150   2.466   6.235   5.997 -0.3026  0.4014  0.1691
 5197TIP3    H237151   2.590   6.213   5.914 -0.9349  2.1403 -1.3000
 5198TIP3   OH237152   3.664   3.844   1.884  0.0922  0.1640  0.4475
 5198TIP3    H137153   3.669   3.939   1.878 -0.8281  0.1521 -0.9067
 5198TIP3    H237154   3.572   3.824   1.869  0.6081 -1.0565 -1.3561
 5199TIP3   OH237155   4.697   4.645   0.637  0.5221 -0.0989 -0.0273
 5199TIP3    H137156   4.608   4.674   0.657 -0.1438 -0.3285 -2.3841
 5199TIP3    H237157   4.705   4.561   0.683 -0.0608  0.4466  1.1138
 5200TIP3   OH237158   2.204   5.783   7.772  0.1027  0.6191 -0.2126
 5200TIP3    H137159   2.137   5.745   7.829 -0.2705  1.7288  0.1166
 5200TIP3    H237160   2.186   5.747   7.685  0.0604 -0.3161  0.1748
 5201TIP3   OH237161   5.130   5.141   1.493  0.1993 -0.1590 -0.0903
 5201TIP3    H137162   5.083   5.071   1.540  0.1053 -0.9667 -1.3390
 5201TIP3    H237163   5.219   5.137   1.528  0.6973 -2.1739 -1.4058
 5202TIP3   OH237164   0.557   5.408   2.304 -0.0477 -0.2063  0.1370
 5202TIP3    H137165   0.589   5.390   2.393  0.0633  0.9416  0.3371
 5202TIP3    H237166   0.636   5.427   2.253 -0.2839  1.4363  0.3506
 5203TIP3   OH237167   7.044   2.508   0.801  0.0386 -0.1010 -0.1777
 5203TIP3    H137168   7.011   2.574   0.740 -0.9965 -0.1800  0.2673
 5203TIP3    H237169   6.970   2.448   0.813  0.2410 -0.1121  1.1029
 5204TIP3   OH237170   0.803   5.333   6.257  0.4330  0.2870 -0.3269
 5204TIP3    H137171   0.784   5.328   6.163  0.9736 -2.1375 -0.3840
 5204TIP3    H237172   0.739   5.394   6.291 -0.1922  0.7341 -2.1836
 5205TIP3   OH237173   3.203   6.804   1.901 -0.2916 -0.4896 -0.2863
 5205TIP3    H137174   3.269   6.863   1.865  0.0654 -1.4377 -1.2514
 5205TIP3    H237175   3.121   6.850   1.889  0.1263  0.4798  0.4365
 5206TIP3   OH237176   3.453   1.681   6.227  0.2339 -0.0487  0.4612
 5206TIP3    H137177   3.406   1.642   6.154 -0.6603 -1.2183  1.6199
 5206TIP3    H237178   3.385   1.720   6.282  1.0764  3.3648 -0.6765
 5207TIP3   OH237179   0.349   3.299   7.427  0.5132  1.4801  0.1211
 5207TIP3    H137180   0.263   3.258   7.414  1.2273 -0.3957  0.8858
 5207TIP3    H237181   0.364   3.294   7.522  1.8386  0.9086 -0.0934
 5208TIP3   OH237182   6.118   0.899   6.882 -0.2525 -0.2596  0.3361
 5208TIP3    H137183   6.028   0.884   6.912 -0.5111 -0.4861 -0.5190
 5208TIP3    H237184   6.162   0.815   6.893 -0.2684 -0.2641  0.3634
 5209TIP3   OH237185   3.010   4.661   6.156  0.4387  0.0753  0.2586
 5209TIP3    H137186   2.964   4.742   6.134 -1.0813 -0.7660  0.2847
 5209TIP3    H237187   3.074   4.650   6.085 -0.8523  0.1257 -0.9418
 5210TIP3   OH237188   5.380   5.362   7.582 -0.0303 -0.2560 -0.0900
 5210TIP3    H137189   5.392   5.373   7.676  2.6547 -1.2595 -0.2466
 5210TIP3    H237190   5.302   5.307   7.574 -1.1474  1.0058  1.4350
 5211TIP3   OH237191   4.025   4.040   6.207  0.6630  0.1852 -0.0801
 5211TIP3    H137192   4.065   4.049   6.121 -0.2070  0.9493 -0.4258
 5211TIP3    H237193   3.932   4.060   6.193  0.3744 -0.3705  0.9073
 5212TIP3   OH237194   3.903   6.163   0.763 -0.2935  0.2490  0.0890
 5212TIP3    H137195   3.960   6.151   0.687 -1.1516  0.3424 -0.5794
 5212TIP3    H237196   3.963   6.192   0.832  1.0448 -2.9643  0.4243
 5213TIP3   OH237197   3.462   2.845   5.566  0.2724  0.0432  0.6987
 5213TIP3    H137198   3.526   2.916   5.558  0.1774  0.0292 -0.4320
 5213TIP3    H237199   3.378   2.886   5.546  0.0991 -0.2043  0.9157
 5214TIP3   OH237200   1.975   1.281   1.591  0.2568  0.4070 -0.3844
 5214TIP3    H137201   1.891   1.271   1.546  0.9597  0.3365 -1.7379
 5214TIP3    H237202   1.960   1.246   1.678 -0.5260 -1.6306 -1.2834
 5215TIP3   OH237203   2.608   1.527   1.168  0.0630  0.6095 -0.4440
 5215TIP3    H137204   2.612   1.616   1.133 -0.8521  0.6535 -0.4477
 5215TIP3    H237205   2.516   1.502   1.160 -0.1513  0.5242  1.7210
 5216TIP3   OH237206   4.699   4.585   7.140  0.1398 -0.4703 -0.3587
 5216TIP3    H137207   4.711   4.523   7.067  0.7572 -0.3946 -0.3263
 5216TIP3    H237208   4.628   4.642   7.111  0.8499 -0.0000 -1.2124
 5217TIP3   OH237209   4.417   0.212   1.396  0.0015 -0.8580  0.1414
 5217TIP3    H137210   4.392   0.273   1.465 -0.2861  1.7489 -2.1060
 5217TIP3    H237211   4.334   0.180   1.360 -0.1627  1.8890 -2.2991
 5218TIP3   OH237212   2.949   2.269   7.268 -0.4539  0.4158 -0.4335
 5218TIP3    H137213   2.985   2.357   7.278  0.9259 -0.0477 -1.1047
 5218TIP3    H237214   2.953   2.252   7.174  0.6421 -0.8809 -0.1850
 5219TIP3   OH237215   0.738   1.275   7.963 -0.1456 -0.6500  0.4084
 5219TIP3    H137216   0.784   1.338   7.907  1.1760 -0.9981  1.0644
 5219TIP3    H237217   0.646   1.303   7.960  0.0338 -0.1233 -1.1875
 5220TIP3   OH237218   0.999   2.013   0.580  0.2588  0.3090  0.0498
 5220TIP3    H137219   0.952   1.936   0.550  0.2058 -0.2043  1.3933
 5220TIP3    H237220   1.091   1.994   0.562  0.4600 -0.9281  2.0615
 5221TIP3   OH237221   6.881   4.389   7.949 -0.0261  0.2716  0.1381
 5221TIP3    H137222   6.868   4.441   7.871  1.0702  1.2548  0.5893
 5221TIP3    H237223   6.950   4.434   7.998  0.6745 -1.3652  0.7423
 5222TIP3   OH237224   5.379   5.309   7.863 -0.0163 -0.1707 -0.2043
 5222TIP3    H137225   5.452   5.248   7.870 -0.2032 -0.3184  0.6401
 5222TIP3    H237226   5.356   5.329   7.954 -0.7672  0.1767 -0.4590
 5223TIP3   OH237227   1.308   4.884   6.919 -0.3812  0.1727  0.6555
 5223TIP3    H137228   1.309   4.968   6.964 -1.5360 -1.0126  3.0476
 5223TIP3    H237229   1.337   4.905   6.830 -1.5001  3.2183  0.8870
 5224TIP3   OH237230   3.869   0.910   7.692 -0.2726 -0.8685  0.1733
 5224TIP3    H137231   3.891   1.002   7.704  0.7722 -1.1865  0.7642
 5224TIP3    H237232   3.870   0.872   7.780  0.3130 -1.6611 -0.1601
 5225TIP3   OH237233   5.789   1.924   2.503 -0.6721 -0.3266  0.2315
 5225TIP3    H137234   5.811   2.011   2.538  0.7385 -1.0243  1.1638
 5225TIP3    H237235   5.871   1.876   2.504 -1.3394 -1.5512 -0.6960
 5226TIP3   OH237236   2.917   4.374   6.864 -0.2247  0.1873  0.2636
 5226TIP3    H137237   2.977   4.330   6.804  2.5019  1.5619  1.8298
 5226TIP3    H237238   2.967   4.447   6.899 -2.7097  1.1700  2.0160
 5227TIP3   OH237239   4.820   3.066   1.725 -0.0223 -0.3034  0.2118
 5227TIP3    H137240   4.847   3.140   1.779  0.8136 -0.3532 -0.1309
 5227TIP3    H237241   4.729   3.050   1.751 -0.6476  1.6192 -0.5489
 5228TIP3   OH237242   1.973   6.617   6.371  0.3534  0.3000  0.6213
 5228TIP3    H137243   1.923   6.541   6.401  1.4087 -0.0777  1.4999
 5228TIP3    H237244   1.992   6.666   6.451  1.9240  0.0823  0.4206
 5229TIP3   OH237245   6.256   0.126   0.383 -0.4199  0.1258  0.3686
 5229TIP3    H137246   6.257   0.189   0.456  0.2350 -0.2378  0.6841
 5229TIP3    H237247   6.286   0.044   0.423  1.1208  0.2009 -0.5608
 5230TIP3   OH237248   6.707   2.323   1.533  0.0289 -0.6807  0.0934
 5230TIP3    H137249   6.723   2.242   1.583 -0.5100 -0.3195  0.8695
 5230TIP3    H237250   6.631   2.302   1.479  0.1637 -0.8419 -0.0325
 5231TIP3   OH237251   5.097   2.384   0.012  0.5591  0.3636  0.1261
 5231TIP3    H137252   5.050   2.410  -0.067  0.0674  4.3530  1.4820
 5231TIP3    H237253   5.128   2.296  -0.006 -5.1675 -1.6854 -1.8601
 5232TIP3   OH237254   5.899   0.481   1.566  0.2406  0.0646  0.1684
 5232TIP3    H137255   5.910   0.435   1.483  2.3202  1.8731 -0.6615
 5232TIP3    H237256   5.923   0.417   1.633  0.9947 -0.7080 -0.8126
 5233TIP3   OH237257   2.622   3.909   0.530  0.3270  0.1831  0.3472
 5233TIP3    H137258   2.613   3.857   0.610  1.5150 -1.3480 -0.4454
 5233TIP3    H237259   2.680   3.857   0.475 -0.4462  1.1982 -1.5169
 5234TIP3   OH237260   0.963   2.288   7.444  0.0967 -0.1637 -0.0198
 5234TIP3    H137261   0.949   2.194   7.433 -0.1524 -0.0020 -1.2197
 5234TIP3    H237262   1.057   2.300   7.434  0.2069 -0.3587  0.7619
 5235TIP3   OH237263   4.503   2.056   7.593  0.8105 -0.0872  0.2671
 5235TIP3    H137264   4.488   2.133   7.648 -1.5416 -1.2173  1.3843
 5235TIP3    H237265   4.452   2.074   7.513 -0.2059 -0.6580  0.7622
 5236TIP3   OH237266   1.616   4.708   7.644 -0.2912 -0.6195  0.6534
 5236TIP3    H137267   1.644   4.617   7.642  0.4884 -0.3919 -1.4403
 5236TIP3    H237268   1.556   4.716   7.570  0.5131  0.7950  0.1175
 5237TIP3   OH237269   1.031   3.408   8.001  0.2835 -0.1259  0.3016
 5237TIP3    H137270   0.936   3.401   7.987  0.4252 -1.6430 -0.0088
 5237TIP3    H237271   1.042   3.494   8.042 -0.9172  1.4389 -2.3193
 5238TIP3   OH237272   5.008   2.993   7.658  0.0876 -0.3758  0.1221
 5238TIP3    H137273   5.060   3.013   7.580  0.5055  1.1845  0.7475
 5238TIP3    H237274   5.065   2.939   7.712  2.2763  3.2997  1.9283
 5239TIP3   OH237275   2.295   5.302   1.089  0.1241 -0.3444  0.3699
 5239TIP3    H137276   2.301   5.313   0.994 -1.4207 -0.1815  0.2628
 5239TIP3    H237277   2.281   5.391   1.122  1.9052 -0.2154  0.9092
 5240TIP3   OH237278   1.699   5.493   7.365  0.1988 -0.4981 -0.1017
 5240TIP3    H137279   1.683   5.405   7.397  1.7898 -0.3697  1.1790
 5240TIP3    H237280   1.768   5.482   7.299  1.0612 -0.1362  0.7225
 5241TIP3   OH237281   2.972   3.631   7.118  0.1307 -0.1836 -0.2809
 5241TIP3    H137282   3.015   3.558   7.074 -0.3267  0.5398 -2.0161
 5241TIP3    H237283   3.044   3.689   7.142  0.3838 -0.5318 -0.1892
 5242TIP3   OH237284   6.231   5.903   7.489  0.0336  0.2794 -0.0584
 5242TIP3    H137285   6.262   5.835   7.549 -0.0749 -0.9529 -1.3462
 5242TIP3    H237286   6.302   5.966   7.484 -0.2162  0.7730  1.8645
 5243TIP3   OH237287   6.201   4.974   0.287  0.3904  0.0395  0.1418
 5243TIP3    H137288   6.287   5.011   0.306  0.3330 -0.1950  0.9033
 5243TIP3    H237289   6.139   5.036   0.326  0.2678 -0.4344  0.7202
 5244TIP3   OH237290   5.291   0.474   2.132 -0.3143  0.3006  0.3553
 5244TIP3    H137291   5.279   0.569   2.142 -1.2882  0.3458 -0.9626
 5244TIP3    H237292   5.248   0.453   2.049  1.1484 -1.0638 -0.1241
 5245TIP3   OH237293   1.104   5.869   0.494  0.0580 -0.0292 -0.1854
 5245TIP3    H137294   1.190   5.900   0.465  0.3828 -1.3009 -0.6289
 5245TIP3    H237295   1.116   5.849   0.587  0.2382 -0.2041 -0.2460
 5246TIP3   OH237296   2.679   3.479   0.852  0.8455 -0.1691 -0.1650
 5246TIP3    H137297   2.722   3.542   0.793  1.5040  0.6444  1.1508
 5246TIP3    H237298   2.721   3.395   0.830  1.0181  0.0965 -0.9107
 5247TIP3   OH237299   0.945   6.859   1.018 -0.4857 -0.4156  0.1944
 5247TIP3    H137300   0.868   6.915   1.011 -1.8418 -1.9891  1.6644
 5247TIP3    H237301   0.955   6.844   1.112  2.1363  0.3820  0.1146
 5248TIP3   OH237302   5.562   3.505   7.207 -0.3531 -0.2113 -0.0322
 5248TIP3    H137303   5.511   3.557   7.145 -0.5729 -0.7892 -0.3426
 5248TIP3    H237304   5.554   3.415   7.175  1.2706 -0.2617 -0.3763
 5249TIP3   OH237305   4.188   1.159   7.648  0.1035 -1.0472 -0.2248
 5249TIP3    H137306   4.214   1.095   7.582  0.9051 -1.6643  0.6738
 5249TIP3    H237307   4.092   1.164   7.640  0.0420 -2.2368 -0.4205
 5250TIP3   OH237308   2.463   6.278   6.474  0.4878  0.3535 -0.0919
 5250TIP3    H137309   2.440   6.334   6.548  1.0335 -1.7305  1.7537
 5250TIP3    H237310   2.380   6.235   6.451  0.3832  0.7701 -0.5097
 5251TIP3   OH237311   3.705   3.472   6.473 -0.3844 -0.2064  0.5350
 5251TIP3    H137312   3.709   3.430   6.387 -2.0533 -0.7308  0.6641
 5251TIP3    H237313   3.703   3.566   6.455  0.4332 -0.2708  0.0784
 5252TIP3   OH237314   3.207   2.938   7.826  0.3009  0.3215 -0.1775
 5252TIP3    H137315   3.169   2.864   7.780 -0.5472  0.9596 -0.5367
 5252TIP3    H237316   3.291   2.953   7.782  0.4655 -0.4097 -0.1138
 5253TIP3   OH237317   5.329   2.246   7.642 -0.3919 -0.2057  0.2298
 5253TIP3    H137318   5.284   2.220   7.561 -2.7845  2.2898  0.6000
 5253TIP3    H237319   5.356   2.163   7.682 -1.7340 -1.6681 -1.6860
 5254TIP3   OH237320   4.222   3.011   0.004 -0.1819 -0.2300  0.5270
 5254TIP3    H137321   4.289   2.989   0.070  0.8092  0.9204 -0.0628
 5254TIP3    H237322   4.206   3.104   0.017  0.1905  0.0619 -1.0048
 5255TIP3   OH237323   6.238   6.411   7.684  0.1421 -0.3761 -0.2015
 5255TIP3    H137324   6.166   6.348   7.678 -0.6222  0.5633 -1.2371
 5255TIP3    H237325   6.288   6.398   7.604  0.6645 -0.4687  0.1363
 5256TIP3   OH237326   2.179   3.742   8.218 -0.2294 -0.2995  0.1968
 5256TIP3    H137327   2.242   3.770   8.150  2.4275 -0.2012  2.5143
 5256TIP3    H237328   2.198   3.649   8.230 -0.7406 -0.3313  0.7656
 5257TIP3   OH237329   6.703   6.003   7.345  0.1449 -0.0595  0.0263
 5257TIP3    H137330   6.738   6.083   7.384  0.4591 -0.0359 -0.2997
 5257TIP3    H237331   6.620   6.029   7.306  1.2219  0.5919 -1.9290
 5258TIP3   OH237332   5.469   5.421   0.337 -0.8146  0.4921 -0.1740
 5258TIP3    H137333   5.534   5.491   0.341 -1.3748  1.1451 -1.8824
 5258TIP3    H237334   5.421   5.428   0.420 -2.1386  3.4550 -1.0457
 5259TIP3   OH237335   0.230   6.619   0.363  0.1871  0.2080 -0.0312
 5259TIP3    H137336   0.217   6.528   0.336  0.9552 -0.3121  1.2530
 5259TIP3    H237337   0.148   6.663   0.340 -1.4302 -1.5048  2.0166
 5260TIP3   OH237338   2.437   3.621   0.542 -0.2097 -0.2195 -0.9229
 5260TIP3    H137339   2.384   3.693   0.577  0.3540 -0.3542  0.2688
 5260TIP3    H237340   2.520   3.662   0.519 -0.4872 -0.1817 -1.9062
 5261TIP3   OH237341   2.112   1.766   8.250 -0.1028 -0.0183  0.0290
 5261TIP3    H137342   2.179   1.797   8.311 -0.4348  1.2211 -0.2162
 5261TIP3    H237343   2.157   1.754   8.167  0.1215 -0.6548  0.2366
 5262TIP3   OH237344   3.148   1.967   5.760  0.0752  0.4522 -0.1671
 5262TIP3    H137345   3.221   1.943   5.816  1.0339  2.7816 -0.3237
 5262TIP3    H237346   3.070   1.933   5.805  1.1695 -1.9702  0.0592
 5263TIP3   OH237347   3.962   4.642   2.289 -0.5212  0.5302  0.7061
 5263TIP3    H137348   3.985   4.554   2.320 -0.2118  0.3076 -0.1246
 5263TIP3    H237349   3.997   4.646   2.200 -2.1005  0.8410  0.0641
 5264TIP3   OH237350   2.681   1.760   0.813 -0.5631  0.1409  0.0323
 5264TIP3    H137351   2.675   1.703   0.891  0.5105  2.6272  2.0748
 5264TIP3    H237352   2.769   1.745   0.779 -0.3499  0.4427  0.4496
 5265TIP3   OH237353   0.385   0.145   0.026  0.2050 -0.2932  0.1550
 5265TIP3    H137354   0.408   0.175   0.114 -0.4018  2.1417 -0.4378
 5265TIP3    H237355   0.412   0.217  -0.031 -2.2241 -0.4492 -1.3229
 5266TIP3   OH237356   6.861   3.713   7.583 -0.2781  0.8259 -0.0999
 5266TIP3    H137357   6.951   3.738   7.560 -0.2057 -0.4319 -1.3683
 5266TIP3    H237358   6.866   3.685   7.674  0.7311  0.3585 -0.2825
 5267TIP3   OH237359   5.259   4.378   7.564 -0.0522  0.5221 -0.3494
 5267TIP3    H137360   5.246   4.286   7.540 -1.1231  0.4421  0.4605
 5267TIP3    H237361   5.199   4.426   7.507 -2.3526  0.3582  1.7499
 5268TIP3   OH237362   2.262   4.908   0.388  0.3845  0.1328 -0.7974
 5268TIP3    H137363   2.262   4.980   0.451  3.5564 -0.7546  0.4157
 5268TIP3    H237364   2.315   4.940   0.315  0.0479 -0.2496 -1.2153
 5269TIP3   OH237365   0.343   3.371   0.613  0.1646  0.0642 -0.2468
 5269TIP3    H137366   0.415   3.308   0.607  0.6237  0.6344 -1.0691
 5269TIP3    H237367   0.351   3.408   0.700  0.9013  0.1497 -0.3409
 5270TIP3   OH237368   6.974   4.310   5.616  0.1580  0.7331 -0.5035
 5270TIP3    H137369   6.955   4.390   5.568 -0.1657 -0.1892 -1.9858
 5270TIP3    H237370   6.923   4.242   5.570 -0.2712 -0.1792  1.2319
 5271TIP3   OH237371   0.963   6.258   5.967 -0.0719  0.3286 -0.0942
 5271TIP3    H137372   1.030   6.297   5.912 -0.0076 -1.8626 -1.7039
 5271TIP3    H237373   0.884   6.310   5.950  0.9070  2.3311  1.0939
 5272TIP3   OH237374   5.722   4.247   1.168  0.5323  0.8318 -0.7867
 5272TIP3    H137375   5.699   4.335   1.137 -1.3994 -0.0426 -2.0866
 5272TIP3    H237376   5.638   4.202   1.173  1.4765 -0.9112 -0.0221
 5273TIP3   OH237377   4.391   1.153   0.662 -0.1102  0.1925 -0.3114
 5273TIP3    H137378   4.409   1.244   0.637  1.1062 -0.0242 -0.2772
 5273TIP3    H237379   4.383   1.107   0.578 -1.3684  0.4230 -0.3440
 5274TIP3   OH237380   5.468   2.347   1.888  0.1509  0.3948 -0.2017
 5274TIP3    H137381   5.516   2.430   1.888  0.2799  0.3258 -0.8738
 5274TIP3    H237382   5.461   2.323   1.795 -1.2595  0.4403 -0.1211
 5275TIP3   OH237383   3.045   5.884   6.415  0.1757  0.1384  0.2663
 5275TIP3    H137384   3.003   5.968   6.430  0.4878  0.1075  1.4262
 5275TIP3    H237385   3.127   5.905   6.369 -0.2433  0.3618 -0.3833
 5276TIP3   OH237386   6.482   4.435   7.848  0.1624  0.2632  0.0662
 5276TIP3    H137387   6.524   4.351   7.827 -2.0829 -1.6154  2.4395
 5276TIP3    H237388   6.394   4.428   7.813 -0.8154  0.5696  2.2628
 5277TIP3   OH237389   5.260   0.724   7.186 -0.1774 -0.0733  0.7982
 5277TIP3    H137390   5.330   0.785   7.211 -0.3917 -0.3702  2.2207
 5277TIP3    H237391   5.306   0.646   7.155  0.0977  0.5904 -0.5211
 5278TIP3   OH237392   6.537   5.617   6.030 -0.3308 -0.0556 -0.1784
 5278TIP3    H137393   6.552   5.709   6.052  0.0236 -0.6334  2.2964
 5278TIP3    H237394   6.625   5.578   6.034 -0.4954 -0.5258 -1.1102
 5279TIP3   OH237395   6.481   5.224   2.211 -0.3934 -0.7174 -0.3554
 5279TIP3    H137396   6.422   5.155   2.241  0.5274 -0.9809  0.9561
 5279TIP3    H237397   6.428   5.277   2.152 -2.2752 -0.3461  1.5396
 5280TIP3   OH237398   1.291   2.849   0.823  0.1636 -0.4520  0.2041
 5280TIP3    H137399   1.362   2.793   0.854  0.8459  0.9304  1.1949
 5280TIP3    H237400   1.324   2.938   0.831 -0.2248  0.1007 -3.0321
 5281TIP3   OH237401   1.977   0.823   0.948 -0.1056  0.9417  0.0545
 5281TIP3    H137402   2.060   0.824   0.900 -0.6528  0.8690 -0.9092
 5281TIP3    H237403   2.003   0.825   1.040  0.9627  1.1382 -0.2358
 5282TIP3   OH237404   4.289   4.192   8.166 -0.1195  0.0134  0.0922
 5282TIP3    H137405   4.259   4.107   8.197 -1.5095  0.5169  0.1804
 5282TIP3    H237406   4.367   4.211   8.219  0.0468 -1.0571  0.2628
 5283TIP3   OH237407   1.751   4.996   8.247  0.7160  0.3189 -0.0081
 5283TIP3    H137408   1.705   5.051   8.182  2.0902 -0.8652 -2.1070
 5283TIP3    H237409   1.698   5.004   8.326 -0.4382  2.7711 -0.8965
 5284TIP3   OH237410   4.676   6.597   0.355 -0.2752  0.2631  0.2342
 5284TIP3    H137411   4.647   6.684   0.326  0.2532  0.2020 -0.4975
 5284TIP3    H237412   4.710   6.555   0.276  1.3047  0.1321  0.9264
 5285TIP3   OH237413   3.452   1.542   7.204  0.3494  0.1945 -0.2616
 5285TIP3    H137414   3.504   1.586   7.137 -0.5200  0.1589 -0.9883
 5285TIP3    H237415   3.438   1.454   7.168 -1.0909  0.5352 -0.5898
 5286TIP3   OH237416   4.876   5.055   0.196 -0.2187  0.6704 -0.8667
 5286TIP3    H137417   4.782   5.042   0.204 -0.5024  1.8028 -2.0057
 5286TIP3    H237418   4.885   5.143   0.161  1.2099  0.0984 -2.0394
 5287TIP3   OH237419   2.024   5.022   0.695  0.5424 -0.5685 -0.0693
 5287TIP3    H137420   1.994   4.932   0.703 -0.3743 -0.3270 -0.6014
 5287TIP3    H237421   1.946   5.070   0.667  1.0483  0.3675  0.0930
 5288TIP3   OH237422   0.407   1.951   8.221  0.0536 -0.2258  0.1498
 5288TIP3    H137423   0.464   2.007   8.168  0.5596 -0.9813 -0.1227
 5288TIP3    H237424   0.376   1.885   8.160  0.5880 -1.0643  0.7654
 5289TIP3   OH237425   3.050   5.437   6.768  0.1610 -0.4896  0.1850
 5289TIP3    H137426   3.119   5.450   6.833 -0.8775 -2.6705  1.8931
 5289TIP3    H237427   3.096   5.431   6.684  2.1017 -2.0315  1.2780
 5290TIP3   OH237428   2.755   0.490   8.271  0.6310  0.3962 -0.4734
 5290TIP3    H137429   2.811   0.543   8.215 -0.2027  1.9009  0.0704
 5290TIP3    H237430   2.684   0.461   8.214  1.2956 -0.5157 -0.8686
 5291TIP3   OH237431   0.592   2.832   0.657  0.6137 -0.0806 -0.3411
 5291TIP3    H137432   0.501   2.806   0.673  0.1111  2.0654  0.6793
 5291TIP3    H237433   0.627   2.763   0.602 -1.0473 -1.9724  0.8400
 5292TIP3   OH237434   3.605   4.624   8.115 -0.5216  0.2780  0.0203
 5292TIP3    H137435   3.539   4.565   8.079 -2.1530  1.2338  1.2522
 5292TIP3    H237436   3.670   4.566   8.155 -0.7753 -0.6976 -0.9353
 5293TIP3   OH237437   1.565   3.658   0.171  0.2635 -0.5243 -0.4278
 5293TIP3    H137438   1.487   3.604   0.184  0.7469 -0.9976  0.6952
 5293TIP3    H237439   1.578   3.659   0.076 -1.2618 -0.1962 -0.6500
 5294TIP3   OH237440   6.585   0.780   1.748 -0.6081  0.3385  0.1932
 5294TIP3    H137441   6.535   0.845   1.796 -0.7173  0.7611 -0.4789
 5294TIP3    H237442   6.674   0.788   1.781 -0.2495  2.0250 -1.0628
 5295TIP3   OH237443   1.472   6.211   6.418  0.0794 -0.4168  0.0307
 5295TIP3    H137444   1.563   6.211   6.448  0.0001  2.8656  0.6091
 5295TIP3    H237445   1.420   6.219   6.498 -0.4858  1.4563 -0.4823
 5296TIP3   OH237446   0.565   2.099   6.141 -0.7720  0.4136  0.4457
 5296TIP3    H137447   0.552   2.184   6.099 -1.5132  0.2915  0.4055
 5296TIP3    H237448   0.644   2.063   6.100  1.4379  2.4105  2.6548
 5297TIP3   OH237449   2.594   6.824   7.146 -0.4417 -0.4962  0.0483
 5297TIP3    H137450   2.582   6.776   7.064  2.8604 -0.8272 -0.3812
 5297TIP3    H237451   2.648   6.899   7.122  0.0732 -0.2585  1.8016
 5298TIP3   OH237452   5.662   3.109   6.819  0.4202 -0.1250  0.1953
 5298TIP3    H137453   5.689   3.039   6.879  0.2195  0.6213  1.1721
 5298TIP3    H237454   5.739   3.166   6.814  1.0100 -0.9862 -1.5185
 5299TIP3   OH237455   2.536   1.961   0.036  0.4796 -0.1680  0.3224
 5299TIP3    H137456   2.495   1.879   0.008  0.7168  0.4626 -2.0833
 5299TIP3    H237457   2.462   2.017   0.061  0.2234 -0.6394  0.6266
 5300TIP3   OH237458   5.455   6.117   0.394  0.0754 -0.7211 -0.3671
 5300TIP3    H137459   5.528   6.123   0.333 -0.3097  0.9741 -0.7232
 5300TIP3    H237460   5.406   6.039   0.366 -0.0626 -0.0279 -2.2085
 5301TIP3   OH237461   7.025   6.829   7.462  0.0976  0.3914 -0.2099
 5301TIP3    H137462   7.033   6.883   7.383 -0.4129  0.7904  0.0032
 5301TIP3    H237463   7.065   6.882   7.531 -0.0161  0.3142 -0.0850
 5302TIP3   OH237464   1.853   6.685   0.392 -0.1492 -0.3435 -0.5554
 5302TIP3    H137465   1.868   6.768   0.438 -1.9786  0.3365 -1.1279
 5302TIP3    H237466   1.883   6.702   0.302 -1.2328 -0.0366 -0.8682
 5303TIP3   OH237467   3.807   4.533   7.570 -0.0417  0.7145  0.8928
 5303TIP3    H137468   3.890   4.553   7.526  0.1017  0.4932  1.0630
 5303TIP3    H237469   3.824   4.550   7.662  0.3968 -1.1340  1.1939
 5304TIP3   OH237470   6.040   2.370   7.690 -0.0814 -0.6450 -0.0784
 5304TIP3    H137471   5.962   2.426   7.693 -0.1904 -0.8104  0.2462
 5304TIP3    H237472   6.012   2.289   7.732  0.4949 -0.4221  0.7686
 5305TIP3   OH237473   4.183   5.292   1.488  0.6262 -0.1324 -0.1921
 5305TIP3    H137474   4.251   5.359   1.496  0.1979  0.4139 -0.9092
 5305TIP3    H237475   4.101   5.342   1.487  0.0895 -0.8655  2.0602
 5306TIP3   OH237476   4.286   5.354   1.215 -0.2570  0.2478  0.0824
 5306TIP3    H137477   4.256   5.293   1.148  2.2490 -0.3559 -0.5873
 5306TIP3    H237478   4.247   5.322   1.296 -0.8177 -0.8566 -0.6037
 5307TIP3   OH237479   4.957   6.598   0.473  0.4992  0.0187 -0.7197
 5307TIP3    H137480   5.036   6.608   0.526  0.1107 -2.3087  0.4205
 5307TIP3    H237481   4.921   6.513   0.499 -1.9856  0.6694 -1.7470
 5308TIP3   OH237482   6.906   3.628   6.006  0.4250 -0.1066 -0.1201
 5308TIP3    H137483   6.991   3.639   6.050  0.2005  0.2069  0.2450
 5308TIP3    H237484   6.900   3.704   5.948 -1.2993  2.1524  2.6857
 5309TIP3   OH237485   0.339   2.846   1.887  0.7448  0.0179 -0.1452
 5309TIP3    H137486   0.326   2.838   1.982  0.2344  2.1007 -0.0082
 5309TIP3    H237487   0.416   2.901   1.878  1.0659 -0.5552 -0.9522
 5310TIP3   OH237488   3.348   3.441   1.333 -0.2118 -0.4149  0.6883
 5310TIP3    H137489   3.307   3.374   1.279 -0.0549  1.2963 -1.6932
 5310TIP3    H237490   3.406   3.392   1.392 -0.0515 -2.3531 -0.9809
 5311TIP3   OH237491   6.820   5.990   6.859  0.0218 -0.1237 -0.1484
 5311TIP3    H137492   6.729   5.961   6.861  0.3046 -1.0120  1.5296
 5311TIP3    H237493   6.818   6.077   6.899 -0.0377 -0.3101  0.2566
 5312TIP3   OH237494   5.143   1.672   2.307 -0.1240 -0.4447  0.1155
 5312TIP3    H137495   5.218   1.732   2.295  1.8692 -3.0883 -1.8889
 5312TIP3    H237496   5.088   1.688   2.230 -0.0407 -0.5952  0.0249
 5313TIP3   OH237497   6.945   3.739   6.693 -0.0406 -0.0583  0.2258
 5313TIP3    H137498   6.869   3.680   6.700  1.0487 -1.7419 -1.1777
 5313TIP3    H237499   6.946   3.767   6.602  0.8172  0.2318  0.3109
 5314TIP3   OH237500   1.156   1.100   6.619  0.2242 -0.5672  0.2870
 5314TIP3    H137501   1.160   1.055   6.535  1.0628  0.1828 -0.0917
 5314TIP3    H237502   1.128   1.033   6.681  0.3379 -1.3168 -0.4525
 5315TIP3   OH237503   4.888   1.619   0.302 -0.6705 -0.1402 -0.2018
 5315TIP3    H137504   4.848   1.545   0.350  0.4649  0.5912  2.0143
 5315TIP3    H237505   4.940   1.664   0.368  1.5232  0.6001 -2.3300
 5316TIP3   OH237506   3.229   3.063   6.389 -0.1259  0.1488  0.0204
 5316TIP3    H137507   3.305   3.021   6.348  1.0318  1.5960  0.5934
 5316TIP3    H237508   3.260   3.150   6.414 -2.0805  0.9124 -0.0138
 5317TIP3   OH237509   1.268   0.507   1.868  0.0052 -0.1812 -0.2549
 5317TIP3    H137510   1.247   0.542   1.954 -0.8118 -1.9783  0.3179
 5317TIP3    H237511   1.282   0.413   1.882 -0.2658 -0.5467 -2.0887
 5318TIP3   OH237512   0.857   6.117   7.883 -0.1612  0.4021  0.0071
 5318TIP3    H137513   0.801   6.192   7.865 -0.4826 -0.1155 -1.2786
 5318TIP3    H237514   0.939   6.155   7.913 -0.7792  1.2068  0.7385
 5319TIP3   OH237515   1.095   0.696   1.040 -0.0528  0.4012 -0.0526
 5319TIP3    H137516   1.075   0.708   0.947  2.2278  2.3909 -0.3778
 5319TIP3    H237517   1.157   0.624   1.043 -1.3330 -0.7398  0.1621
 5320TIP3   OH237518   3.963   0.749   8.238 -0.4226  0.0064  0.0957
 5320TIP3    H137519   3.938   0.657   8.233 -0.4992 -0.1752  2.7498
 5320TIP3    H237520   3.880   0.796   8.245 -0.4011  0.3601 -1.5630
 5321TIP3   OH237521   3.022   1.558   7.229  0.2415  0.4143 -0.1699
 5321TIP3    H137522   3.007   1.480   7.284  1.6143 -0.0311 -0.3752
 5321TIP3    H237523   2.971   1.542   7.150  1.8507 -1.1459 -0.9610
 5322TIP3   OH237524   2.329   2.180   2.150  0.0166  0.2325  0.2684
 5322TIP3    H137525   2.344   2.090   2.179  0.4750 -0.0475 -0.7844
 5322TIP3    H237526   2.416   2.220   2.151 -0.3988  1.2273  2.4122
 5323TIP3   OH237527   1.703   2.499   1.625 -0.0285  0.6106  0.2161
 5323TIP3    H137528   1.795   2.513   1.601  0.4425 -0.5605  1.2653
 5323TIP3    H237529   1.703   2.500   1.721 -1.0116 -0.0701  0.2322
 5324TIP3   OH237530   6.501   4.034   7.082  0.4400  0.4833  0.2422
 5324TIP3    H137531   6.485   4.080   6.999  0.5753  2.1584  1.1057
 5324TIP3    H237532   6.528   4.103   7.143  1.8908 -0.9286  1.2841
 5325TIP3   OH237533   4.793   0.623   6.856 -0.2464 -0.4211 -0.0016
 5325TIP3    H137534   4.811   0.542   6.809 -0.5993  0.1049 -1.0833
 5325TIP3    H237535   4.873   0.642   6.904 -0.4847 -1.9016  1.0387
 5326TIP3   OH237536   4.026   3.667   6.366  0.2036  0.1182  0.6115
 5326TIP3    H137537   4.009   3.587   6.415  1.3345 -1.4798 -1.4340
 5326TIP3    H237538   3.954   3.673   6.303  0.6641  0.1148  0.0745
 5327TIP3   OH237539   4.428   0.562   0.744 -0.1549  0.1534  0.1958
 5327TIP3    H137540   4.479   0.484   0.722  0.5387  0.8453 -0.6900
 5327TIP3    H237541   4.489   0.634   0.736 -1.1752  0.9714 -0.5130
 5328TIP3   OH237542   5.340   0.713   1.011  0.6308 -0.1819 -0.0559
 5328TIP3    H137543   5.374   0.639   0.961 -0.1810 -1.2808  0.9790
 5328TIP3    H237544   5.248   0.718   0.987  0.3625 -0.3789  0.9012
 5329TIP3   OH237545   2.026   1.851   7.419 -0.1547 -0.2366 -0.3980
 5329TIP3    H137546   2.053   1.939   7.445 -0.7380 -0.0180 -0.5287
 5329TIP3    H237547   2.052   1.844   7.328 -1.4083  0.3377 -0.8180
 5330TIP3   OH237548   3.837   2.955   8.143  0.2019 -0.1787  0.4002
 5330TIP3    H137549   3.812   3.048   8.143  0.3918 -0.1269  0.6896
 5330TIP3    H237550   3.836   2.931   8.051  0.1492  0.1110  0.3217
 5331TIP3   OH237551   4.536   4.006   1.247 -0.5469 -0.0570  0.1398
 5331TIP3    H137552   4.626   4.035   1.232  0.4024 -1.5091  2.4738
 5331TIP3    H237553   4.487   4.037   1.170  2.3076 -0.9193 -2.1960
 5332TIP3   OH237554   1.720   3.021   0.876 -0.1412  0.5252 -0.1907
 5332TIP3    H137555   1.703   2.960   0.948  1.0381  0.5221  0.0986
 5332TIP3    H237556   1.695   3.106   0.911  2.1132  0.8005  0.9102
 5333TIP3   OH237557   1.212   2.988   6.859  0.4229 -0.3768  0.1606
 5333TIP3    H137558   1.283   3.000   6.923  0.5348  1.3148 -0.2395
 5333TIP3    H237559   1.236   3.046   6.787 -0.2521 -1.4644 -0.9596
 5334TIP3   OH237560   6.142   0.403   0.195 -0.4754  0.4536  0.2656
 5334TIP3    H137561   6.160   0.440   0.108  1.8735 -2.0327 -0.4533
 5334TIP3    H237562   6.229   0.387   0.232 -1.3231 -2.4755  1.2271
 5335TIP3   OH237563   6.918   5.754   0.957 -0.2178 -0.1315 -0.5058
 5335TIP3    H137564   6.906   5.746   0.863 -0.2329 -0.8308 -0.4487
 5335TIP3    H237565   6.919   5.849   0.973  1.2714  0.0266 -1.3863
 5336TIP3   OH237566   0.068   5.345   0.599  0.8763 -0.2075 -0.5231
 5336TIP3    H137567   0.097   5.435   0.613  0.0693  0.0534 -0.4967
 5336TIP3    H237568   0.072   5.305   0.686  2.7009 -0.6573 -0.7766
 5337TIP3   OH237569   4.431   2.040   0.735 -0.1333 -0.1936 -0.0478
 5337TIP3    H137570   4.525   2.050   0.721 -0.2144  1.8182  0.5383
 5337TIP3    H237571   4.394   2.036   0.647  0.4363 -0.1296 -0.2947
 5338TIP3   OH237572   2.236   6.672   0.257  0.0215 -0.0621  0.8960
 5338TIP3    H137573   2.233   6.605   0.188 -0.7271  1.8330 -1.0178
 5338TIP3    H237574   2.149   6.669   0.297  0.3905 -1.0273  1.6751
 5339TIP3   OH237575   5.825   4.953   8.077 -0.2237 -0.5635 -0.9427
 5339TIP3    H137576   5.812   5.031   8.024  0.1549 -0.4985 -0.9387
 5339TIP3    H237577   5.756   4.958   8.144  0.9778  0.7650  0.2314
 5340TIP3   OH237578   1.736   1.633   2.223  0.1989 -0.4342 -0.2844
 5340TIP3    H137579   1.782   1.694   2.280  0.6396 -0.3841 -0.6847
 5340TIP3    H237580   1.749   1.668   2.135  1.0394 -1.4628 -0.5922
 5341TIP3   OH237581   2.270   2.419   0.797 -0.0752  0.2960 -0.1564
 5341TIP3    H137582   2.314   2.501   0.821  1.6324 -0.3476 -0.8957
 5341TIP3    H237583   2.229   2.389   0.877  0.9183  0.9238  0.6086
 5342TIP3   OH237584   0.429   5.485   0.530 -0.0631 -0.3303 -0.1092
 5342TIP3    H137585   0.383   5.559   0.571 -0.4974 -0.7794  0.2189
 5342TIP3    H237586   0.378   5.466   0.451 -0.5834 -0.9689  0.3682
 5343TIP3   OH237587   0.077   4.167   0.559  0.1899 -0.4353  0.2867
 5343TIP3    H137588   0.133   4.184   0.635  1.1606 -1.2437 -0.2350
 5343TIP3    H237589   0.138   4.163   0.485 -0.5110 -1.6808 -0.2432
 5344TIP3   OH237590   4.071   0.837   7.536  0.0859 -0.0429 -0.9139
 5344TIP3    H137591   4.009   0.886   7.589 -0.4102 -0.6778 -0.8988
 5344TIP3    H237592   4.079   0.887   7.455 -0.5608 -0.0365 -0.9747
 5345TIP3   OH237593   3.991   3.406   8.152 -0.0226  0.9799 -0.8579
 5345TIP3    H137594   4.046   3.334   8.181 -0.4252  1.2249  0.5605
 5345TIP3    H237595   3.906   3.365   8.134  0.1593  0.8694 -1.5014
 5346TIP3   OH237596   3.895   0.553   7.923 -0.1980 -0.6351 -0.0307
 5346TIP3    H137597   3.946   0.570   7.843  1.0761 -0.8419  0.7156
 5346TIP3    H237598   3.869   0.640   7.953 -1.4112 -0.5997 -1.1140
 5347TIP3   OH237599   0.985   4.641   7.116 -0.2293 -0.6445  0.1971
 5347TIP3    H137600   1.011   4.632   7.025  0.8813  1.6531  0.2239
 5347TIP3    H237601   1.047   4.587   7.165 -1.0320 -2.1549 -0.3564
 5348TIP3   OH237602   0.322   5.772   7.598 -0.4828  0.2326 -0.3301
 5348TIP3    H137603   0.352   5.685   7.622 -0.1347  0.5359  0.3313
 5348TIP3    H237604   0.399   5.828   7.608 -0.9332  0.7769  0.1124
 5349TIP3   OH237605   1.635   6.873   6.802  0.3663  0.2254  0.7568
 5349TIP3    H137606   1.667   6.841   6.718  0.4157 -0.7501  1.1322
 5349TIP3    H237607   1.590   6.954   6.781 -1.7194 -1.1695 -0.5922
 5350TIP3   OH237608   5.534   3.070   6.294  0.0894 -0.1066 -0.3548
 5350TIP3    H137609   5.490   3.048   6.212  0.6027 -1.3048 -0.3348
 5350TIP3    H237610   5.510   3.161   6.311 -2.8436 -0.8541 -0.0469
 5351TIP3   OH237611   5.108   4.447   1.040  0.3375  0.4437  0.2208
 5351TIP3    H137612   5.131   4.496   0.962  1.1135  2.2728  1.5279
 5351TIP3    H237613   5.149   4.494   1.112 -0.9567 -0.7330  1.8349
 5352TIP3   OH237614   3.976   2.287   0.829 -0.3038  0.1154 -0.7878
 5352TIP3    H137615   3.889   2.327   0.839 -0.4492 -0.7918  2.8337
 5352TIP3    H237616   3.961   2.194   0.842  1.2307 -0.0063  0.3230
 5353TIP3   OH237617   2.919   2.728   7.310  0.3771 -0.2321 -0.6977
 5353TIP3    H137618   2.993   2.697   7.258  1.3934 -0.1274  0.6210
 5353TIP3    H237619   2.928   2.683   7.394  1.0448  2.3944  0.7537
 5354TIP3   OH237620   3.219   5.877   1.884  0.0440  0.3684 -0.5323
 5354TIP3    H137621   3.256   5.795   1.916  0.3320  0.9770  0.7513
 5354TIP3    H237622   3.194   5.858   1.793  1.0804 -0.8206 -0.6029
 5355TIP3   OH237623   3.442   5.808   8.073  0.1940 -0.9323 -0.1221
 5355TIP3    H137624   3.474   5.841   7.989 -0.1569 -0.7198 -0.1732
 5355TIP3    H237625   3.464   5.877   8.136 -0.8540 -0.4275 -0.2874
 5356TIP3   OH237626   3.881   6.407   6.796 -0.1072 -0.3752  0.1185
 5356TIP3    H137627   3.870   6.381   6.887 -0.5297 -2.1047 -0.3839
 5356TIP3    H237628   3.951   6.472   6.798 -2.2085  2.0438  2.0070
 5357TIP3   OH237629   0.590   1.658   6.742  0.3941 -1.0880  0.0906
 5357TIP3    H137630   0.596   1.581   6.799 -2.3750 -0.3475  1.5436
 5357TIP3    H237631   0.512   1.642   6.688 -0.2090  0.6326  0.3954
 5358TIP3   OH237632   0.385   3.584   0.202  0.0091 -0.1849  0.1564
 5358TIP3    H137633   0.373   3.635   0.122  0.6544  0.2762  0.3419
 5358TIP3    H237634   0.375   3.493   0.173 -0.0998 -0.0087 -0.3854
 5359TIP3   OH237635   4.439   1.135   0.103 -0.1249 -0.2209  0.6830
 5359TIP3    H137636   4.435   1.194   0.027 -0.5468 -0.7958  0.2472
 5359TIP3    H237637   4.532   1.117   0.115  0.0489  0.8228  1.0617
 5360TIP3   OH237638   3.040   4.788   6.509  0.6425  0.1467 -0.3223
 5360TIP3    H137639   3.032   4.880   6.485  2.6443 -0.0500 -2.0657
 5360TIP3    H237640   2.990   4.780   6.590  0.7747  2.8528  0.1221
 5361TIP3   OH237641   4.482   6.386   0.875  0.0712  0.0286  0.9204
 5361TIP3    H137642   4.423   6.319   0.841  1.3130 -0.3595 -0.5915
 5361TIP3    H237643   4.516   6.349   0.957  0.1594 -0.8689  0.4906
 5362TIP3   OH237644   5.770   3.960   6.862 -0.3535 -0.2383 -0.6147
 5362TIP3    H137645   5.707   4.032   6.870 -0.8323 -0.5817 -1.1506
 5362TIP3    H237646   5.840   3.996   6.807  0.4007  0.4463  0.7399
 5363TIP3   OH237647   2.403   1.907   7.954 -0.3585  0.0025  0.5099
 5363TIP3    H137648   2.399   1.948   7.867  2.3494 -1.0164 -0.2226
 5363TIP3    H237649   2.457   1.967   8.005 -0.2590 -0.3807  0.8573
 5364TIP3   OH237650   0.454   6.905   0.056 -0.1178  0.8065  0.2633
 5364TIP3    H137651   0.423   6.880   0.143  0.8496 -0.0669  0.3795
 5364TIP3    H237652   0.453   7.001   0.057 -4.4300  0.9689 -0.3652
 5365TIP3   OH237653   0.441   4.357   1.713  0.2976  0.4004 -0.0976
 5365TIP3    H137654   0.494   4.315   1.645 -0.0477  0.0185 -0.1356
 5365TIP3    H237655   0.432   4.447   1.683  2.2018  0.9000  0.6645
 5366TIP3   OH237656   4.252   5.538   1.613  0.1883 -0.3449  0.3674
 5366TIP3    H137657   4.254   5.509   1.704  0.2899 -2.0625 -0.1605
 5366TIP3    H237658   4.334   5.586   1.602 -0.1834  0.5672  1.3780
 5367TIP3   OH237659   2.257   4.981   0.846 -0.0990  0.2790  0.3143
 5367TIP3    H137660   2.202   5.039   0.793  0.4108  1.9329  1.4952
 5367TIP3    H237661   2.318   4.942   0.784 -0.7712  0.6315 -0.5911
 5368TIP3   OH237662   2.947   2.721   0.458  0.1538  0.2466 -0.3067
 5368TIP3    H137663   2.856   2.738   0.433  0.0951  0.4212  0.0210
 5368TIP3    H237664   2.962   2.631   0.432  0.8083  1.0545 -3.1173
 5369TIP3   OH237665   3.134   4.908   0.920 -0.5479  0.0648  0.1697
 5369TIP3    H137666   3.121   5.001   0.898 -0.8389 -0.2404 -1.0368
 5369TIP3    H237667   3.205   4.880   0.862 -1.9101 -0.9894 -1.0645
 5370TIP3   OH237668   3.919   4.716   7.281  0.2684 -0.1289  0.2843
 5370TIP3    H137669   3.966   4.635   7.259  3.2049  1.2770  0.9142
 5370TIP3    H237670   3.952   4.781   7.219 -1.8192  0.7263 -0.0193
 5371TIP3   OH237671   1.237   3.451   2.326  0.7560  0.0327 -0.0354
 5371TIP3    H137672   1.179   3.417   2.394  0.3627  0.8371  0.0508
 5371TIP3    H237673   1.177   3.485   2.258  1.1317 -1.5376 -1.2167
 5372TIP3   OH237674   5.181   1.117   7.847 -0.3201 -0.0376 -0.0226
 5372TIP3    H137675   5.113   1.067   7.802  0.0261 -0.1721 -0.4091
 5372TIP3    H237676   5.164   1.208   7.822  0.6603 -0.2322 -1.5431
 5373TIP3   OH237677   2.126   3.562   6.800  0.1820 -0.6540 -0.0383
 5373TIP3    H137678   2.128   3.636   6.739  0.8559 -0.1572  0.5602
 5373TIP3    H237679   2.086   3.491   6.750  0.3690 -0.1517 -0.9346
 5374TIP3   OH237680   1.352   2.457   2.277  0.8830  0.0681 -0.1555
 5374TIP3    H137681   1.280   2.491   2.223  0.6833  1.5094  0.9643
 5374TIP3    H237682   1.378   2.376   2.234 -1.1306 -0.2622 -0.8335
 5375TIP3   OH237683   4.530   6.590   7.680 -0.2756 -0.3893  0.6742
 5375TIP3    H137684   4.452   6.588   7.624 -1.1063 -1.3824  1.8051
 5375TIP3    H237685   4.516   6.519   7.743  1.3125 -0.2528  1.2336
 5376TIP3   OH237686   0.929   7.001   6.214  0.7660 -0.1901 -0.4995
 5376TIP3    H137687   1.021   7.024   6.199  0.0143  4.4507  0.4697
 5376TIP3    H237688   0.928   6.956   6.299  1.9745  2.1915  0.8608
 5377TIP3   OH237689   1.174   3.699   0.907 -0.6257  0.5556 -0.5351
 5377TIP3    H137690   1.094   3.737   0.870 -1.3248 -0.7632 -0.4520
 5377TIP3    H237691   1.149   3.671   0.995  0.0222  0.4128 -0.3922
 5378TIP3   OH237692   1.760   4.664   1.870  0.8758 -0.4451  0.1278
 5378TIP3    H137693   1.833   4.625   1.823  1.3436 -0.4222  0.8189
 5378TIP3    H237694   1.717   4.721   1.806  1.3771 -0.5655 -0.3197
 5379TIP3   OH237695   6.947   4.420   0.205  0.2590  0.1781  0.1397
 5379TIP3    H137696   6.969   4.436   0.296 -1.9605  2.0471  0.4633
 5379TIP3    H237697   7.027   4.386   0.166  1.4645 -0.0417  2.6128
 5380TIP3   OH237698   1.828   5.502   1.274 -0.2666 -0.8032 -0.3832
 5380TIP3    H137699   1.877   5.503   1.356 -0.7826 -0.5115 -0.0738
 5380TIP3    H237700   1.738   5.525   1.299 -0.3910 -0.5371 -1.0505
 5381TIP3   OH237701   1.965   1.269   8.254  0.4085  0.1217 -0.3770
 5381TIP3    H137702   1.971   1.185   8.210 -0.2377 -0.1706  0.0810
 5381TIP3    H237703   2.055   1.302   8.255  0.4164  0.2140 -2.0200
 5382TIP3   OH237704   1.026   2.515   7.852 -0.0162 -0.1787  0.4211
 5382TIP3    H137705   1.069   2.445   7.803 -2.9595 -2.3230  0.6137
 5382TIP3    H237706   1.041   2.492   7.944  0.7230  0.6554  0.5251
 5383TIP3   OH237707   0.326   3.686   1.536  0.2939 -0.0828  0.0877
 5383TIP3    H137708   0.384   3.743   1.486 -0.4794 -0.5125 -1.3754
 5383TIP3    H237709   0.279   3.636   1.469 -0.8250 -0.6589  1.2612
 5384TIP3   OH237710   6.311   2.740   6.419  0.0896  0.5272  0.4144
 5384TIP3    H137711   6.312   2.699   6.333  0.5292 -0.5058  0.8995
 5384TIP3    H237712   6.235   2.799   6.417 -1.9003 -1.8749  0.4011
 5385TIP3   OH237713   6.894   2.996   6.454 -0.2863 -0.1301 -0.3540
 5385TIP3    H137714   6.812   2.955   6.426 -0.3060 -0.2325 -0.1489
 5385TIP3    H237715   6.951   2.990   6.377 -0.6279  0.3738 -0.6581
 5386TIP3   OH237716   5.998   3.318   2.177 -0.0535  0.5760  0.3879
 5386TIP3    H137717   6.074   3.365   2.213 -0.9292  1.1818  1.5224
 5386TIP3    H237718   5.927   3.383   2.180 -0.3508  0.4155 -1.8122
 5387TIP3   OH237719   1.359   1.882   0.609  0.2135  0.8974  0.8018
 5387TIP3    H137720   1.339   1.893   0.516  0.9035  0.9253  0.6479
 5387TIP3    H237721   1.306   1.948   0.653 -0.4820  0.5668  0.4771
 5388TIP3   OH237722   1.615   3.202   5.799 -0.3100  0.2576  0.1339
 5388TIP3    H137723   1.689   3.142   5.793  0.2224  0.7411  1.4502
 5388TIP3    H237724   1.541   3.151   5.767  0.3388 -0.7045  0.1005
 5389TIP3   OH237725   6.277   5.214   0.744 -0.4150 -0.1781  0.3954
 5389TIP3    H137726   6.366   5.246   0.731  1.1210 -3.1958  2.3205
 5389TIP3    H237727   6.255   5.169   0.663  0.3879 -0.6023  0.4047
 5390TIP3   OH237728   6.080   2.248   0.919 -0.1860 -0.0121  0.1616
 5390TIP3    H137729   6.038   2.244   1.005 -0.3622 -0.5257  0.0529
 5390TIP3    H237730   6.025   2.309   0.869  0.7892  1.5061  0.8787
 5391TIP3   OH237731   3.043   0.717   0.463 -0.2569  0.4062  0.5343
 5391TIP3    H137732   3.099   0.775   0.411  0.1009 -0.7052 -0.3636
 5391TIP3    H237733   3.057   0.630   0.425 -1.1628 -0.1933  1.5219
 5392TIP3   OH237734   1.448   0.172   0.525  0.1441 -0.2523  0.1219
 5392TIP3    H137735   1.407   0.094   0.487 -1.8964  0.9055 -0.1683
 5392TIP3    H237736   1.413   0.176   0.614  1.0902 -0.2472  0.5040
 5393TIP3   OH237737   4.882   6.166   7.940  0.1907  0.5073  0.3001
 5393TIP3    H137738   4.887   6.071   7.943 -3.4824  0.1691  0.8090
 5393TIP3    H237739   4.860   6.192   8.029 -1.2136  1.5336 -0.2994
 5394TIP3   OH237740   2.625   2.958   6.345 -0.0080  0.2750  0.3931
 5394TIP3    H137741   2.712   2.949   6.304 -0.1763 -1.3007  0.2891
 5394TIP3    H237742   2.636   2.922   6.433  0.1361  2.8624  1.5089
 5395TIP3   OH237743   2.164   4.264   1.225  0.4908  0.5946 -0.0474
 5395TIP3    H137744   2.158   4.350   1.266  0.9042  0.7680 -0.3408
 5395TIP3    H237745   2.134   4.203   1.293 -0.3783  1.0188 -0.0427
 5396TIP3   OH237746   3.379   2.589   5.690 -0.3524  0.1762  0.6689
 5396TIP3    H137747   3.300   2.544   5.661  1.2684 -2.6544  0.2799
 5396TIP3    H237748   3.394   2.657   5.625 -1.9961  0.2140  0.3041
 5397TIP3   OH237749   2.648   4.506   7.684 -0.3906 -0.4193  0.0796
 5397TIP3    H137750   2.693   4.510   7.769 -0.2996 -0.8186  0.0527
 5397TIP3    H237751   2.635   4.597   7.659 -0.0940 -0.3013  0.3528
 5398TIP3   OH237752   1.935   1.395   1.291  0.1832 -0.2401  0.2417
 5398TIP3    H137753   1.840   1.392   1.301  0.1566 -1.1508 -0.2011
 5398TIP3    H237754   1.961   1.304   1.278  1.1483 -0.0255  0.5981
 5399TIP3   OH237755   3.789   5.290   7.692 -0.3833 -0.3742  0.1851
 5399TIP3    H137756   3.854   5.293   7.622 -2.0062 -0.8338 -1.4404
 5399TIP3    H237757   3.839   5.272   7.771  1.6183  0.8493 -0.7218
 5400TIP3   OH237758   3.621   4.650   1.475  0.5670  0.0202  0.1823
 5400TIP3    H137759   3.699   4.693   1.440  0.9977 -1.2180 -0.4474
 5400TIP3    H237760   3.621   4.671   1.568  1.6948 -0.0192  0.2012
 5401TIP3   OH237761   3.304   0.151   6.555 -0.0287  0.1678  0.0384
 5401TIP3    H137762   3.324   0.169   6.646 -0.1069  0.4990 -0.0078
 5401TIP3    H237763   3.277   0.059   6.554 -0.5719  0.3133  0.4443
 5402TIP3   OH237764   1.657   2.909   5.742  0.7865  0.4540 -0.1455
 5402TIP3    H137765   1.718   2.872   5.679  0.6741 -0.7272  0.3945
 5402TIP3    H237766   1.713   2.949   5.809  0.9428  0.4759 -0.2896
 5403TIP3   OH237767   4.354   6.260   7.701  0.0763  0.7183 -0.1861
 5403TIP3    H137768   4.311   6.177   7.677  1.9673  0.0594 -1.5490
 5403TIP3    H237769   4.447   6.238   7.704  0.7308  3.0169 -1.5832
 5404TIP3   OH237770   1.435   0.317   1.250  0.1530  0.0802  0.3369
 5404TIP3    H137771   1.414   0.404   1.284  0.7303  0.8272 -1.1678
 5404TIP3    H237772   1.520   0.297   1.289  1.0456  1.1450 -0.9719
 5405TIP3   OH237773   5.607   6.151   1.343 -0.0847 -0.2121 -0.4998
 5405TIP3    H137774   5.659   6.072   1.326  0.2620  0.2062 -1.4200
 5405TIP3    H237775   5.535   6.120   1.399  1.6303 -0.6317  1.5866
 5406TIP3   OH237776   5.841   6.761   1.622  0.7294 -0.0360  0.1370
 5406TIP3    H137777   5.764   6.796   1.667  0.9424 -0.1405  0.5916
 5406TIP3    H237778   5.910   6.764   1.688  0.2714 -3.3112  0.9502
 5407TIP3   OH237779   0.611   1.836   0.688 -0.7142  0.5708 -0.5380
 5407TIP3    H137780   0.653   1.804   0.768 -1.4400 -0.7952 -0.6739
 5407TIP3    H237781   0.537   1.776   0.674  0.0370  0.0751 -2.8345
 5408TIP3   OH237782   3.868   1.741   0.521 -0.5895 -0.1545  0.3654
 5408TIP3    H137783   3.779   1.763   0.549 -0.2907  1.6474  0.0251
 5408TIP3    H237784   3.913   1.825   0.515  1.1675 -1.0363  0.5725
 5409TIP3   OH237785   5.917   1.563   0.675  0.4099  1.1154  0.4661
 5409TIP3    H137786   5.864   1.639   0.701  0.9771  1.7740 -0.2315
 5409TIP3    H237787   5.908   1.560   0.580  0.1309  0.0920  0.5129
 5410TIP3   OH237788   3.675   1.652   6.041  0.1143 -0.1208 -0.6728
 5410TIP3    H137789   3.652   1.721   5.978 -1.0730  0.6632  0.5417
 5410TIP3    H237790   3.605   1.656   6.107  0.5457 -1.8556 -0.0478
 5411TIP3   OH237791   0.825   2.649   7.105  0.1327  0.0263  0.5566
 5411TIP3    H137792   0.735   2.620   7.088  0.1413  1.0804 -1.6542
 5411TIP3    H237793   0.878   2.572   7.086 -0.2034 -0.1504  0.3126
 5412TIP3   OH237794   3.303   3.040   1.533  0.0139 -0.6766  0.3588
 5412TIP3    H137795   3.363   3.114   1.534 -0.8027  0.0485  3.0453
 5412TIP3    H237796   3.216   3.079   1.523 -0.2662 -1.4976 -0.6205
 5413TIP3   OH237797   6.879   4.026   0.827 -0.2811 -0.1939  0.8431
 5413TIP3    H137798   6.942   3.955   0.828  1.1718  1.0361  0.5776
 5413TIP3    H237799   6.830   4.014   0.746  2.5121  1.1744 -1.2290
 5414TIP3   OH237800   3.191   4.383   7.168  0.1576 -0.2322  0.4491
 5414TIP3    H137801   3.185   4.472   7.133 -0.3211  0.0184  1.1497
 5414TIP3    H237802   3.241   4.335   7.103  1.8105  0.9335  0.8080
 5415TIP3   OH237803   2.120   4.775   8.121  0.3485  0.4406 -0.4265
 5415TIP3    H137804   2.081   4.701   8.167  1.9944 -0.4599 -0.4118
 5415TIP3    H237805   2.054   4.801   8.057 -0.5874 -0.4946  0.1400
 5416TIP3   OH237806   1.762   3.090   8.216  0.6046 -0.2360 -0.0016
 5416TIP3    H137807   1.681   3.132   8.245 -0.1195 -1.0586 -0.7695
 5416TIP3    H237808   1.750   3.078   8.122  0.3751 -2.9481  0.2986
 5417TIP3   OH237809   2.216   5.276   6.919  0.1392  0.1361 -0.0212
 5417TIP3    H137810   2.134   5.261   6.965 -0.7399  1.9333 -0.8791
 5417TIP3    H237811   2.273   5.318   6.984 -0.5197  1.1477 -0.0698
 5418TIP3   OH237812   2.353   2.552   8.269 -0.4236  0.1316 -0.2037
 5418TIP3    H137813   2.396   2.476   8.229 -0.4660  0.2158 -0.4107
 5418TIP3    H237814   2.322   2.604   8.195  0.2129  0.7076 -0.0721
 5419TIP3   OH237815   0.838   5.524   5.996  0.0225 -0.7717  0.1368
 5419TIP3    H137816   0.780   5.449   5.982 -0.2508 -0.6791  0.7738
 5419TIP3    H237817   0.924   5.484   6.011 -0.4995 -1.0944  2.6344
 5420TIP3   OH237818   0.897   5.944   7.570 -0.1065  0.2428 -0.3785
 5420TIP3    H137819   0.864   5.902   7.650  0.4838  0.6158  0.0680
 5420TIP3    H237820   0.916   6.034   7.597 -1.8582  0.9897 -1.4373
 5421TIP3   OH237821   6.955   1.308   0.129  0.0440 -0.6797 -0.0291
 5421TIP3    H137822   6.988   1.397   0.118 -2.1230 -0.1338 -3.7896
 5421TIP3    H237823   7.027   1.252   0.099 -0.5996  0.2674 -3.8464
 5422TIP3   OH237824   3.059   4.789   1.589  0.6458 -0.0946 -0.2953
 5422TIP3    H137825   3.022   4.700   1.582  0.5683 -0.2293  1.3628
 5422TIP3    H237826   3.045   4.813   1.681  0.0653  1.9097 -0.8616
 5423TIP3   OH237827   4.375   3.567   7.879 -0.1236 -0.4806  0.7008
 5423TIP3    H137828   4.399   3.479   7.910  0.2031 -1.4280 -1.9887
 5423TIP3    H237829   4.288   3.582   7.917 -0.4639 -2.2558  0.7258
 5424TIP3   OH237830   0.916   2.124   7.733 -0.1270 -0.5178  0.1744
 5424TIP3    H137831   0.882   2.111   7.645  1.6857 -0.1204 -0.6466
 5424TIP3    H237832   0.839   2.133   7.789 -1.3117 -0.4310 -1.4281
 5425TIP3   OH237833   1.567   5.290   6.750  0.1711  0.2901 -0.7632
 5425TIP3    H137834   1.577   5.380   6.718  0.3514  0.2029 -0.9477
 5425TIP3    H237835   1.561   5.300   6.845 -0.5690  0.5666 -0.8242
 5426TIP3   OH237836   4.747   6.905   7.289 -0.0530  0.6542  0.5752
 5426TIP3    H137837   4.700   6.945   7.362 -0.7442  0.2680  0.3559
 5426TIP3    H237838   4.694   6.828   7.267  0.1513  0.7674 -0.3262
 5427TIP3   OH237839   6.430   0.031   7.926  0.1124  0.0031 -0.2296
 5427TIP3    H137840   6.398   0.119   7.950 -2.2585 -0.6033 -0.8653
 5427TIP3    H237841   6.498   0.048   7.860  1.1982  1.3883  1.1609
 5428TIP3   OH237842   0.382   5.888   1.477  0.3335  0.3013 -0.4257
 5428TIP3    H137843   0.463   5.859   1.519 -0.4384  0.0625  0.9578
 5428TIP3    H237844   0.396   5.981   1.459  0.7181  0.4023  0.3385
 5429TIP3   OH237845   5.097   5.843   7.229 -0.2168  0.1013 -1.0405
 5429TIP3    H137846   5.107   5.880   7.142  0.9771 -1.7216 -1.7232
 5429TIP3    H237847   5.003   5.841   7.244 -0.4491  0.1715 -2.4152
 5430TIP3   OH237848   0.847   1.765   0.544  1.0229  0.2467  0.4287
 5430TIP3    H137849   0.765   1.802   0.576  0.8636 -1.1118  1.7049
 5430TIP3    H237850   0.832   1.752   0.450 -1.5067 -2.8875  1.0671
 5431TIP3   OH237851   2.734   2.371   6.569 -0.3736 -0.1093  0.0255
 5431TIP3    H137852   2.678   2.439   6.607  1.4654  0.0246  2.7649
 5431TIP3    H237853   2.801   2.419   6.520  1.0893  0.2235  2.1880
 5432TIP3   OH237854   2.993   2.446   0.353 -0.2022 -0.0834  0.0410
 5432TIP3    H137855   2.918   2.455   0.294  0.3026  2.1751 -0.3282
 5432TIP3    H237856   3.057   2.396   0.302 -0.5833 -0.0313 -0.5055
 5433TIP3   OH237857   1.757   2.483   8.145 -0.1909  0.3428 -0.3412
 5433TIP3    H137858   1.732   2.575   8.152  0.0509  0.3767  0.1081
 5433TIP3    H237859   1.696   2.437   8.202  0.0720  0.2964 -0.0960
 5434TIP3   OH237860   3.121   5.801   1.046 -0.8783  0.3845 -0.1887
 5434TIP3    H137861   3.075   5.805   0.962  0.0131 -2.5663 -0.9481
 5434TIP3    H237862   3.061   5.754   1.104 -0.2379 -0.4121 -0.1578
 5435TIP3   OH237863   2.910   6.800   6.121  0.4516  0.5809 -0.2513
 5435TIP3    H137864   2.816   6.801   6.135  0.4297 -0.3948 -0.2185
 5435TIP3    H237865   2.942   6.731   6.180  0.8694 -0.8043 -1.9914
 5436TIP3   OH237866   3.088   2.645   0.910 -0.4801  0.1468 -0.0194
 5436TIP3    H137867   3.173   2.608   0.938 -0.4931 -1.4015 -1.8442
 5436TIP3    H237868   3.108   2.690   0.829 -1.4358 -0.4713 -0.6112
 5437TIP3   OH237869   4.933   5.884   7.755  0.4076 -0.5427 -0.0747
 5437TIP3    H137870   4.987   5.956   7.721 -0.4502 -0.2537 -0.8497
 5437TIP3    H237871   4.952   5.884   7.849 -2.3180  3.1901  0.7214
 5438TIP3   OH237872   2.216   0.026   1.965 -0.8574  0.0782 -0.9055
 5438TIP3    H137873   2.269   0.071   1.899 -1.7438 -0.2798 -1.8938
 5438TIP3    H237874   2.139  -0.004   1.917 -0.8756 -1.4015 -0.0008
 5439TIP3   OH237875   4.142   6.918   7.477 -0.3777  0.1186  0.3514
 5439TIP3    H137876   4.193   6.860   7.420 -1.6041 -0.3800 -0.2889
 5439TIP3    H237877   4.128   6.866   7.556  2.0813  1.1307  1.5717
 5440TIP3   OH237878   5.778   5.982   7.294 -0.2911  0.0089 -0.0364
 5440TIP3    H137879   5.714   5.912   7.281  1.4167 -2.4007  2.9516
 5440TIP3    H237880   5.844   5.967   7.226 -0.2339 -1.0247  0.2186
 5441TIP3   OH237881   5.706   6.594   6.751 -0.5406 -0.8976  0.2727
 5441TIP3    H137882   5.773   6.582   6.684 -1.2810 -2.0522 -0.2914
 5441TIP3    H237883   5.747   6.562   6.831 -0.1783 -0.9526  0.0672
 5442TIP3   OH237884   0.190   3.696   1.059 -0.1169  0.2461  0.0019
 5442TIP3    H137885   0.274   3.651   1.043  0.4790  0.7435  1.5469
 5442TIP3    H237886   0.196   3.777   1.008  0.6843  0.6546  0.7351
 5443TIP3   OH237887   6.010   2.449   7.336 -0.1659  0.2532  0.4211
 5443TIP3    H137888   5.981   2.366   7.299  0.8013  0.4989 -0.9790
 5443TIP3    H237889   5.932   2.504   7.335 -0.7275 -0.5109  1.0242
 5444TIP3   OH237890   1.641   0.027   1.181 -0.1785 -0.4077  0.5796
 5444TIP3    H137891   1.562  -0.009   1.220 -0.9887 -0.4671 -1.0118
 5444TIP3    H237892   1.658   0.107   1.230 -1.4613 -0.1874  0.7026
 5445TIP3   OH237893   4.157   5.927   7.092 -0.0723 -0.6573  0.2347
 5445TIP3    H137894   4.201   5.980   7.158 -0.8949  1.5841 -0.9125
 5445TIP3    H237895   4.206   5.943   7.011  0.1355 -2.3194 -0.0005
 5446TIP3   OH237896   6.001   0.998   6.270 -0.2572  0.2233  0.1649
 5446TIP3    H137897   5.924   1.013   6.216  0.6824  1.2366 -0.9574
 5446TIP3    H237898   5.989   0.910   6.306  0.1161 -1.4748 -3.4790
 5447TIP3   OH237899   0.773   4.234   7.632  0.0947  0.3631 -0.0515
 5447TIP3    H137900   0.809   4.200   7.714  2.1352  0.1412 -0.9812
 5447TIP3    H237901   0.764   4.328   7.647  1.6783  0.5268  0.0516
 5448TIP3   OH237902   4.977   0.352   1.058  0.1196 -0.1318 -0.3809
 5448TIP3    H137903   5.069   0.353   1.083 -0.5490 -0.9627  2.4533
 5448TIP3    H237904   4.930   0.376   1.138 -2.1850 -0.4829 -1.5368
 5449TIP3   OH237905   0.178   0.897   8.151 -0.4163 -0.3847  0.2825
 5449TIP3    H137906   0.142   0.982   8.127  0.7268  0.6217  1.9280
 5449TIP3    H237907   0.164   0.891   8.245 -0.1527 -1.8705  0.2465
 5450TIP3   OH237908   0.359   0.377   1.361  0.0434 -0.6402  0.6881
 5450TIP3    H137909   0.302   0.453   1.360 -1.0471 -1.4393 -0.4190
 5450TIP3    H237910   0.332   0.325   1.286  1.9116 -1.3026  0.4202
 5451TIP3   OH237911   6.266   2.571   7.607  0.1679 -0.2330  0.5407
 5451TIP3    H137912   6.342   2.565   7.664  1.3925  1.1790 -0.8560
 5451TIP3    H237913   6.265   2.662   7.578 -1.5071 -0.4576 -0.2482
 5452TIP3   OH237914   2.164   2.245   0.988  0.0765  0.4053 -0.4087
 5452TIP3    H137915   2.154   2.225   1.082  0.2008  1.4043 -0.1733
 5452TIP3    H237916   2.191   2.162   0.949  1.0634  0.2186  0.6151
 5453TIP3   OH237917   6.771   4.266   1.903 -0.0795  0.6831  0.4359
 5453TIP3    H137918   6.765   4.237   1.994 -0.1346  0.1285  0.2583
 5453TIP3    H237919   6.704   4.334   1.895  0.6184  1.4740  1.0845
 5454TIP3   OH237920   0.690   1.681   0.918 -0.3751 -0.6197  0.0889
 5454TIP3    H137921   0.776   1.718   0.935  0.0513 -1.5183 -0.0903
 5454TIP3    H237922   0.667   1.635   0.999 -1.7632  1.5935  1.0575
 5455TIP3   OH237923   3.918   4.148   0.914  0.4227 -0.3197 -0.1062
 5455TIP3    H137924   3.890   4.144   1.006  0.6308 -0.3163 -0.0433
 5455TIP3    H237925   4.013   4.137   0.917  0.3860 -0.7302 -0.3507
 5456TIP3   OH237926   3.449   3.797   0.285  0.2919 -0.0905 -0.1722
 5456TIP3    H137927   3.535   3.823   0.317 -0.8742  0.1451  3.0825
 5456TIP3    H237928   3.441   3.705   0.308  0.0141 -0.3919 -1.3764
 5457TIP3   OH237929   6.353   6.604   7.151 -0.1989 -0.0588  0.2369
 5457TIP3    H137930   6.296   6.633   7.222  0.6081  3.1382 -0.2756
 5457TIP3    H237931   6.427   6.562   7.195 -1.0321 -0.6635  1.0894
 5458TIP3   OH237932   3.071   1.352   7.005 -0.4112 -0.9671  0.1471
 5458TIP3    H137933   2.980   1.379   7.019 -0.0098 -0.2385  1.5056
 5458TIP3    H237934   3.121   1.433   7.012  0.3945 -1.4292 -0.1696
 5459TIP3   OH237935   6.865   4.328   0.879  0.3569  0.4845  0.4449
 5459TIP3    H137936   6.850   4.260   0.813  0.1586  1.1138 -0.1733
 5459TIP3    H237937   6.906   4.399   0.830 -0.6384  1.3257  0.8026
 5460TIP3   OH237938   5.776   0.135   7.842 -0.4016 -0.1967  0.3095
 5460TIP3    H137939   5.684   0.117   7.826 -0.5550  0.4822  0.3857
 5460TIP3    H237940   5.787   0.124   7.937 -0.5110  0.1565  0.3659
 5461TIP3   OH237941   0.030   0.470   7.954 -0.6463  0.1588 -0.1302
 5461TIP3    H137942   0.105   0.526   7.972  0.0536 -0.4591 -1.0723
 5461TIP3    H237943  -0.032   0.489   8.026  0.4830  0.5230  0.7736
 5462TIP3   OH237944   1.381   3.438   7.926 -0.5261 -0.0909  0.1179
 5462TIP3    H137945   1.458   3.464   7.875 -0.6463  0.3805  0.1671
 5462TIP3    H237946   1.307   3.451   7.866 -0.5990 -0.2039  0.1840
 5463TIP3   OH237947   6.087   0.113   7.960  0.0908 -0.2963 -0.1047
 5463TIP3    H137948   6.000   0.110   7.920 -1.0230 -0.0652  2.1237
 5463TIP3    H237949   6.124   0.196   7.929 -3.0536  2.8794  3.5145
 5464TIP3   OH237950   1.444   0.739   2.028  0.3401  0.6241  0.1964
 5464TIP3    H137951   1.365   0.706   2.071 -1.4908  2.4463 -1.5546
 5464TIP3    H237952   1.481   0.802   2.090  0.9199 -0.7950  1.3478
 5465TIP3   OH237953   0.013   3.810   7.395 -0.2635 -0.4275 -0.5285
 5465TIP3    H137954   0.025   3.721   7.363  0.0395 -0.5478 -0.0938
 5465TIP3    H237955   0.078   3.862   7.347  0.2912 -0.6327 -0.0109
 5466TIP3   OH237956   2.979   6.044   7.771  0.5853 -0.3294  0.0283
 5466TIP3    H137957   3.028   6.094   7.706 -1.3601 -0.6807 -1.8172
 5466TIP3    H237958   3.011   5.954   7.762 -0.7885 -0.7028 -1.6947
 5467TIP3   OH237959   2.967   2.158   0.695 -0.0886  0.1281  0.2202
 5467TIP3    H137960   2.977   2.071   0.734 -1.9652  0.0143  0.5538
 5467TIP3    H237961   3.033   2.161   0.626 -0.8363 -2.0893 -0.6897
 5468TIP3   OH237962   1.981   3.215   1.660  0.3226  0.1383  0.1775
 5468TIP3    H137963   1.886   3.206   1.669  0.3942  0.4301  1.4343
 5468TIP3    H237964   2.017   3.142   1.711  0.7828  1.2042  1.4196
 5469TIP3   OH237965   1.793   2.923   7.008 -0.1616 -0.3164  0.3996
 5469TIP3    H137966   1.768   3.016   7.015 -0.0796 -0.3615  1.7125
 5469TIP3    H237967   1.804   2.907   6.915  0.5080  1.1809  0.1988
 5470TIP3   OH237968   2.044   5.284   7.421  0.2824 -0.2200 -0.4269
 5470TIP3    H137969   1.994   5.203   7.412  0.2566 -0.2913  0.2654
 5470TIP3    H237970   2.097   5.271   7.500  0.4708  0.3366 -0.4539
 5471TIP3   OH237971   6.834   1.568   0.382 -0.3051  0.2908 -0.2799
 5471TIP3    H137972   6.918   1.596   0.347  1.5611  1.0793  4.2580
 5471TIP3    H237973   6.855   1.492   0.436 -2.9431 -0.8120 -0.6479
 5472TIP3   OH237974   2.846   0.127   6.144  0.2343 -0.2482  0.6176
 5472TIP3    H137975   2.921   0.139   6.202 -0.1521  3.2043  0.6241
 5472TIP3    H237976   2.885   0.114   6.057  0.7992 -0.7115  0.9336
 5473TIP3   OH237977   6.599   3.536   7.482 -0.0163  0.4961  0.4905
 5473TIP3    H137978   6.650   3.547   7.563 -0.2905  0.5570  0.6577
 5473TIP3    H237979   6.644   3.589   7.417  0.4804  0.0709  0.4801
 5474TIP3   OH237980   2.641   4.662   6.796 -0.2493  0.1829 -0.2012
 5474TIP3    H137981   2.626   4.753   6.770 -0.7919  0.1303 -0.0737
 5474TIP3    H237982   2.580   4.611   6.744 -0.9685  0.0270  0.7587
 5475TIP3   OH237983   0.565   0.575   7.333 -0.4761  0.1407  0.3053
 5475TIP3    H137984   0.510   0.514   7.284 -3.5257  1.1564  2.1582
 5475TIP3    H237985   0.647   0.579   7.284 -1.8263 -1.9200 -2.3728
 5476TIP3   OH237986   6.805   3.881   5.906  0.3248  0.0688  0.2606
 5476TIP3    H137987   6.738   3.949   5.911 -0.8847 -0.9297 -1.1662
 5476TIP3    H237988   6.888   3.927   5.915 -0.4614  1.7104 -0.4994
 5477TIP3   OH237989   1.889   1.347   7.805  0.9855 -0.3962  0.5977
 5477TIP3    H137990   1.952   1.277   7.790 -0.7126 -1.5132 -1.9894
 5477TIP3    H237991   1.805   1.302   7.816  0.2766  1.1372  1.8780
 5478TIP3   OH237992   3.369   6.696   1.468  0.3053  0.4694  0.1882
 5478TIP3    H137993   3.433   6.693   1.539  1.7768 -1.1375 -1.0885
 5478TIP3    H237994   3.292   6.737   1.506  1.5117  0.9237  2.2920
 5479TIP3   OH237995   1.497   1.492   1.984  0.2463  0.5537  0.5672
 5479TIP3    H137996   1.475   1.483   2.077 -0.1249 -1.7640  0.3342
 5479TIP3    H237997   1.506   1.401   1.954  2.2934  1.2767 -1.2294
 5480TIP3   OH237998   0.966   4.861   1.786 -0.1761 -0.3784  0.1027
 5480TIP3    H137999   1.019   4.929   1.744  0.4242 -0.1238  1.2237
 5480TIP3    H238000   1.029   4.808   1.835 -0.7328 -1.2867 -0.1335
 5481TIP3   OH238001   0.353   2.252   7.190 -0.8089 -0.3520 -0.3044
 5481TIP3    H138002   0.316   2.174   7.148  0.2323 -0.7995 -0.4292
 5481TIP3    H238003   0.402   2.217   7.264 -2.0494  0.3749  0.8921
 5482TIP3   OH238004   6.384   3.482   6.837  0.3355  0.2524  0.4796
 5482TIP3    H138005   6.387   3.391   6.864 -1.6537  0.2609  0.9236
 5482TIP3    H238006   6.413   3.482   6.746  0.7576 -0.7433  0.6088
 5483TIP3   OH238007   3.697   6.599   2.108 -0.0323 -0.0768  0.0442
 5483TIP3    H138008   3.695   6.680   2.160 -0.0782 -0.6369  0.9331
 5483TIP3    H238009   3.769   6.548   2.146  0.2032 -0.3280 -0.7151
 5484TIP3   OH238010   0.240   6.454   1.653  0.0413  0.2320  0.6006
 5484TIP3    H138011   0.146   6.439   1.651  0.0198  0.1990  1.6487
 5484TIP3    H238012   0.268   6.443   1.562 -1.0625  0.9398  0.1573
 5485TIP3   OH238013   1.145   2.286   7.744 -0.1366 -0.5996  0.3192
 5485TIP3    H138014   1.074   2.227   7.770  1.2824 -2.6337 -0.1971
 5485TIP3    H238015   1.167   2.259   7.655  0.7691  0.5282  0.1877
 5486TIP3   OH238016   5.670   3.281   8.041  0.0284  0.3836 -0.0537
 5486TIP3    H138017   5.660   3.235   8.125 -2.8116 -0.6986 -0.8650
 5486TIP3    H238018   5.756   3.323   8.047 -0.8184  1.9827  4.1481
 5487TIP3   OH238019   5.229   1.081   1.567 -0.0747  0.2978 -0.0276
 5487TIP3    H138020   5.232   1.043   1.480  0.3357  0.7478 -0.2147
 5487TIP3    H238021   5.320   1.105   1.585  0.0714 -0.9126  1.0211
 5488TIP3   OH238022   1.497   6.280   6.166  0.2392 -0.1284 -0.1146
 5488TIP3    H138023   1.483   6.261   6.258  0.6539 -0.9691 -0.2178
 5488TIP3    H238024   1.418   6.251   6.122 -0.1463  0.6844  0.0170
 5489TIP3   OH238025   0.804   0.690   7.690 -0.1442 -0.5946 -0.3206
 5489TIP3    H138026   0.746   0.730   7.756 -0.7369 -0.7930 -0.7087
 5489TIP3    H238027   0.747   0.628   7.644  0.2848 -0.5100 -0.9734
 5490TIP3   OH238028   2.015   6.456   7.583 -0.0006  0.1330  0.2329
 5490TIP3    H138029   2.055   6.507   7.654 -0.5426 -0.4027  0.9379
 5490TIP3    H238030   2.053   6.493   7.503  0.1297  1.1870  0.7579
 5491TIP3   OH238031   1.705   5.634   0.860 -0.0936 -0.5227 -0.0882
 5491TIP3    H138032   1.737   5.549   0.889 -1.2271 -1.0060 -0.1826
 5491TIP3    H238033   1.665   5.673   0.938  1.4909  0.4820  0.2667
 5492TIP3   OH238034   2.413   4.822   0.689  0.0319  0.2039  0.3560
 5492TIP3    H138035   2.408   4.735   0.729  0.9596 -0.5009 -0.9822
 5492TIP3    H238036   2.444   4.806   0.600  0.1140  1.9034  0.0382
 5493TIP3   OH238037   3.263   3.724   7.461 -0.3418 -0.0793 -0.3711
 5493TIP3    H138038   3.283   3.807   7.417 -1.8459  0.9504  0.7817
 5493TIP3    H238039   3.184   3.693   7.417 -2.2943  1.3209  1.9008
 5494TIP3   OH238040   5.234   1.500   8.215  0.0814  0.0388  0.1436
 5494TIP3    H138041   5.299   1.570   8.209 -0.0302  0.0824 -0.5599
 5494TIP3    H238042   5.181   1.524   8.291  0.5423  0.2914  0.3931
 5495TIP3   OH238043   0.078   4.485   0.841  0.4099  0.1182 -0.0011
 5495TIP3    H138044   0.089   4.565   0.893 -2.0490 -0.8540  2.3168
 5495TIP3    H238045   0.108   4.415   0.899 -2.0904 -0.9752  0.1360
 5496TIP3   OH238046   2.917   0.253   1.318 -0.2402 -0.6518  0.0003
 5496TIP3    H138047   2.956   0.189   1.378  2.0763 -0.2640 -0.9560
 5496TIP3    H238048   2.931   0.337   1.361  1.2314 -0.3930 -0.9038
 5497TIP3   OH238049   4.803   6.304   7.294 -0.6943 -0.4892 -0.5082
 5497TIP3    H138050   4.898   6.313   7.295 -0.6610 -0.7058 -1.1438
 5497TIP3    H238051   4.771   6.386   7.256 -0.7179 -0.6899 -0.9302
 5498TIP3   OH238052   1.722   6.319   5.719 -0.2365 -0.3585 -0.3639
 5498TIP3    H138053   1.801   6.274   5.748  0.7511  0.2668 -1.9454
 5498TIP3    H238054   1.685   6.358   5.799  1.4170 -0.1174  0.3130
 5499TIP3   OH238055   0.129   1.209   0.007  0.0564  0.4509  0.1809
 5499TIP3    H138056   0.187   1.284   0.013  1.6932 -0.6933 -0.6548
 5499TIP3    H238057   0.106   1.204  -0.086 -0.5177  0.2380  0.3277
 5500TIP3   OH238058   6.401   3.703   7.814  0.1810  0.1293  0.1037
 5500TIP3    H138059   6.491   3.735   7.812 -0.1311  1.0583  0.1036
 5500TIP3    H238060   6.351   3.772   7.770 -0.7868  0.4877  1.7023
 5501TIP3   OH238061   1.210   1.583   8.067  0.7025 -0.0056  0.2324
 5501TIP3    H138062   1.273   1.630   8.013  1.8022 -1.8034 -0.1133
 5501TIP3    H238063   1.157   1.534   8.005  1.8372 -1.9251  0.7054
 5502TIP3   OH238064   1.071   6.974   1.904 -0.1410  0.9304 -0.1524
 5502TIP3    H138065   1.053   7.054   1.855  0.0719  1.6684  0.9380
 5502TIP3    H238066   1.102   7.005   1.989  1.0333 -0.2980 -0.0947
 5503TIP3   OH238067   4.005   6.807   2.099  0.1789 -0.1891  0.0472
 5503TIP3    H138068   3.989   6.897   2.070 -0.6522 -0.7530 -1.3155
 5503TIP3    H238069   4.099   6.806   2.121  0.8461  0.3494 -2.5061
 5504TIP3   OH238070   6.756   6.403   7.083 -0.1328 -0.1950 -0.3318
 5504TIP3    H138071   6.735   6.495   7.094 -3.9356 -0.6062 -2.2445
 5504TIP3    H238072   6.847   6.402   7.052  0.8406  2.6068  2.0243
 5505TIP3   OH238073   3.244   4.104   1.371 -0.1545 -0.4169 -0.2318
 5505TIP3    H138074   3.155   4.139   1.379  0.3038  0.8729 -0.5392
 5505TIP3    H238075   3.288   4.135   1.450  0.6157  0.8449 -1.1171
 5506TIP3   OH238076   2.982   1.864   0.385 -0.3380  0.3217 -0.0063
 5506TIP3    H138077   2.889   1.850   0.366  0.3304 -3.1229 -1.4450
 5506TIP3    H238078   3.028   1.830   0.308  2.1925 -0.0570  1.5403
 5507TIP3   OH238079   3.742   0.120   1.105  0.2739 -0.0637 -0.3103
 5507TIP3    H138080   3.657   0.163   1.096  0.7805  1.0846  0.1395
 5507TIP3    H238081   3.804   0.192   1.112  1.0500 -0.8582  1.6265
 5508TIP3   OH238082   1.720   2.602   0.488  0.2673  0.4507  0.0484
 5508TIP3    H138083   1.679   2.643   0.564  0.4976  0.6846  0.0488
 5508TIP3    H238084   1.664   2.527   0.468 -0.4379  1.0438 -0.2540
 5509TIP3   OH238085   3.331   1.300   0.130 -1.0267  0.2937  0.5991
 5509TIP3    H138086   3.366   1.279   0.044 -2.9798  0.5336 -0.3084
 5509TIP3    H238087   3.341   1.395   0.138 -0.2422  0.1925  0.9477
 5510TIP3   OH238088   1.730   3.453   0.315  0.2916  0.3215  0.1193
 5510TIP3    H138089   1.656   3.495   0.271  0.3796  0.0633 -0.2884
 5510TIP3    H238090   1.703   3.446   0.406 -0.5419 -0.5130 -0.1734
 5511TIP3   OH238091   0.252   4.582   7.869 -0.5486  0.1542 -0.2170
 5511TIP3    H138092   0.280   4.561   7.958  1.5143  0.5174 -0.7272
 5511TIP3    H238093   0.157   4.580   7.873 -0.5185  0.5337  2.0792
 5512TIP3   OH238094   1.813   3.636   6.858  0.0058  0.2754  0.5304
 5512TIP3    H138095   1.818   3.579   6.781  1.4374  0.5247  0.4095
 5512TIP3    H238096   1.778   3.718   6.824 -1.2747 -0.2311  0.5511
 5513TIP3   OH238097   3.184   5.410   1.535  0.2334 -0.2142 -0.5187
 5513TIP3    H138098   3.175   5.332   1.590 -0.3066 -0.6514 -1.2175
 5513TIP3    H238099   3.223   5.378   1.454  1.3204  0.4824 -0.2910
 5514TIP3   OH238100   5.381   5.376   6.678  0.7553  0.2195 -0.1837
 5514TIP3    H138101   5.402   5.320   6.604  1.3490 -0.8321  0.7568
 5514TIP3    H238102   5.287   5.367   6.690  0.6054  0.6342 -0.9852
 5515TIP3   OH238103   4.611   5.902   6.834  0.7680 -0.0703  0.6128
 5515TIP3    H138104   4.599   5.837   6.903 -0.5857 -1.7290 -1.0527
 5515TIP3    H238105   4.705   5.903   6.818  0.8219 -1.7299  0.6473
 5516TIP3   OH238106   1.567   2.103   1.234 -0.5541  0.7028 -0.2450
 5516TIP3    H138107   1.573   2.008   1.241 -0.9271  0.6582 -0.5300
 5516TIP3    H238108   1.542   2.119   1.143 -2.2718  0.9793  0.2279
 5517TIP3   OH238109   2.331   0.781   7.001  0.1186 -0.6154 -0.4608
 5517TIP3    H138110   2.264   0.780   7.068  1.2309  1.4166  0.7908
 5517TIP3    H238111   2.305   0.852   6.942  1.1743  0.2956  0.1210
 5518TIP3   OH238112   4.202   6.406   7.911 -0.3988 -0.5715  0.3588
 5518TIP3    H138113   4.283   6.391   7.863  0.9192  1.8991  1.6347
 5518TIP3    H238114   4.133   6.401   7.844  1.0954  0.1127 -1.3002
 5519TIP3   OH238115   6.574   0.591   7.810  0.5668  0.1460  0.8187
 5519TIP3    H138116   6.641   0.585   7.879  0.2775  0.8708  1.1655
 5519TIP3    H238117   6.584   0.679   7.775  0.7691 -0.2455 -0.1435
 5520TIP3   OH238118   5.383   4.856   0.102 -0.6125  0.2591  0.0396
 5520TIP3    H138119   5.343   4.878   0.018 -0.1441 -2.1038 -0.8586
 5520TIP3    H238120   5.327   4.788   0.139  0.9568 -1.0926  0.0654
 5521TIP3   OH238121   6.277   0.097   1.478 -0.1235  0.2875 -0.4616
 5521TIP3    H138122   6.233   0.040   1.542 -0.9511  1.9266  0.4921
 5521TIP3    H238123   6.247   0.065   1.393  1.7773 -2.5922 -0.1647
 5522TIP3   OH238124   1.050   5.114   7.215 -0.0396  0.2942 -0.5129
 5522TIP3    H138125   0.999   5.140   7.139 -0.3679  0.8894 -0.0957
 5522TIP3    H238126   1.023   5.024   7.232 -1.1397  0.6714 -0.1548
 5523TIP3   OH238127   0.163   2.989   7.845 -0.4880 -0.2162 -0.2204
 5523TIP3    H138128   0.111   3.067   7.864  0.6994  0.4160  0.5917
 5523TIP3    H238129   0.115   2.943   7.777 -0.9458  1.5193 -1.1056
 5524TIP3   OH238130   5.082   4.388   1.366  0.1513 -0.2806  0.3688
 5524TIP3    H138131   5.081   4.474   1.324 -1.1149  0.0303  0.9695
 5524TIP3    H238132   5.168   4.383   1.408 -0.5941  1.7387  2.3241
 5525TIP3   OH238133   4.325   3.967   0.024 -0.2674 -0.1159  0.4912
 5525TIP3    H138134   4.362   3.991   0.110 -1.0481 -0.6567  0.9844
 5525TIP3    H238135   4.291   3.878   0.036 -1.4714  0.2571 -0.0330
 5526TIP3   OH238136   6.958   4.146   1.218 -0.8451  0.6051  0.5186
 5526TIP3    H138137   6.948   4.238   1.241  1.6419  0.4498  2.6282
 5526TIP3    H238138   6.918   4.098   1.290  2.0168  0.1265  1.9401
 5527TIP3   OH238139   1.396   6.168   6.974  0.1038 -0.1342 -0.1038
 5527TIP3    H138140   1.488   6.148   6.991 -0.0321 -0.6785  0.0053
 5527TIP3    H238141   1.355   6.173   7.060  0.0938  0.4054 -0.1408
 5528TIP3   OH238142   5.872   2.677   0.375 -0.3040 -0.4604  0.2331
 5528TIP3    H138143   5.778   2.677   0.360 -0.0614 -0.9312 -1.6307
 5528TIP3    H238144   5.908   2.729   0.303  0.8958 -0.8595  0.5150
 5529TIP3   OH238145   2.638   2.296   7.491  0.4426 -0.4532  0.7106
 5529TIP3    H138146   2.711   2.306   7.552  0.5601  0.1179  0.4779
 5529TIP3    H238147   2.669   2.232   7.427  0.1886 -1.3336  1.4305
 5530TIP3   OH238148   5.213   0.155   6.799 -0.3348 -0.0019 -0.1932
 5530TIP3    H138149   5.271   0.083   6.824 -0.7984 -0.6687 -0.9780
 5530TIP3    H238150   5.126   0.125   6.822 -0.3902  1.0019  0.9830
 5531TIP3   OH238151   5.143   2.827   6.676 -0.3867 -0.1377 -0.3381
 5531TIP3    H138152   5.191   2.812   6.595  0.1549 -0.3373  0.0139
 5531TIP3    H238153   5.138   2.741   6.718 -0.2284  0.0472  0.0699
 5532TIP3   OH238154   3.772   2.347   7.058 -0.4726  0.2668 -0.0583
 5532TIP3    H138155   3.687   2.387   7.037 -0.3525  0.1228 -0.8880
 5532TIP3    H238156   3.752   2.255   7.074 -0.2969 -0.1618 -1.9716
 5533TIP3   OH238157   2.983   5.132   1.182  0.1722  0.0915  0.0163
 5533TIP3    H138158   2.911   5.095   1.131  0.0573 -0.7763  0.7752
 5533TIP3    H238159   2.961   5.110   1.273  2.3365 -1.8875  0.1554
 5534TIP3   OH238160   0.594   0.681   6.916  0.3095  0.1260 -0.3420
 5534TIP3    H138161   0.622   0.595   6.948 -2.8661 -1.6557 -1.8709
 5534TIP3    H238162   0.571   0.730   6.995 -0.8376 -1.6286  0.4821
 5535TIP3   OH238163   0.143   6.167   0.799 -0.7786  0.3905 -0.0496
 5535TIP3    H138164   0.057   6.182   0.837 -0.1800 -0.3450  1.6815
 5535TIP3    H238165   0.182   6.254   0.794 -0.9601  0.5316  0.8498
 5536TIP3   OH238166   6.244   4.573   2.476  0.1712  0.6245  0.0309
 5536TIP3    H138167   6.222   4.666   2.472  0.5075  0.8074  1.6744
 5536TIP3    H238168   6.324   4.566   2.424  2.1649  1.9679  2.6773
 5537TIP3   OH238169   4.135   0.951   6.470  0.4837 -0.0790  0.0106
 5537TIP3    H138170   4.191   0.874   6.468 -0.8923 -1.1102 -2.3784
 5537TIP3    H238171   4.172   1.010   6.404 -0.6361 -0.3630 -0.9027
 5538TIP3   OH238172   2.701   0.383   7.422 -0.5953  0.2125  0.3607
 5538TIP3    H138173   2.795   0.397   7.433 -0.5890  0.5413 -0.0764
 5538TIP3    H238174   2.693   0.332   7.341 -0.7480 -0.5351  0.8353
 5539TIP3   OH238175   5.898   4.953   1.359 -0.5716  0.1112  0.5622
 5539TIP3    H138176   5.868   4.894   1.290 -1.7386 -1.0049  1.9285
 5539TIP3    H238177   5.948   4.896   1.418  1.2502  1.2436  0.1563
 5540TIP3   OH238178   3.134   6.617   6.562 -0.4151  0.5123 -0.0939
 5540TIP3    H138179   3.190   6.694   6.551 -0.6102  0.8503  1.1417
 5540TIP3    H238180   3.082   6.613   6.482 -0.0142  1.3423 -0.4072
 5541TIP3   OH238181   1.285   4.200   0.584  0.1712  0.3332  0.7366
 5541TIP3    H138182   1.324   4.144   0.651  0.9356 -0.2758 -0.1917
 5541TIP3    H238183   1.194   4.212   0.613  0.2020 -0.7525  1.3548
 5542TIP3   OH238184   3.991   0.530   5.672  0.3565  0.5239 -0.1339
 5542TIP3    H138185   4.043   0.541   5.752  0.5602 -0.1749 -0.1615
 5542TIP3    H238186   3.909   0.576   5.690  0.1599 -0.1253  0.7169
 5543TIP3   OH238187   5.492   0.169   1.363 -0.3943 -0.4979  0.3034
 5543TIP3    H138188   5.416   0.112   1.369  0.3260 -1.4187  0.8099
 5543TIP3    H238189   5.455   0.258   1.358 -1.5230 -0.9883 -0.5456
 5544TIP3   OH238190   6.530   5.837   0.773  0.0824  0.4483  0.2730
 5544TIP3    H138191   6.508   5.814   0.862  1.1433  0.2023  0.4896
 5544TIP3    H238192   6.619   5.874   0.779 -0.0840  1.0296 -0.5837
 5545TIP3   OH238193   7.038   3.564   7.210 -0.3055 -0.6764 -0.3219
 5545TIP3    H138194   6.983   3.597   7.140 -0.2273  1.0308  0.3742
 5545TIP3    H238195   7.116   3.531   7.166  0.0074  0.9086 -1.0219
 5546TIP3   OH238196   5.773   0.231   7.037 -0.5409 -0.0044 -0.4346
 5546TIP3    H138197   5.806   0.215   7.126  0.2710 -1.0926 -0.9012
 5546TIP3    H238198   5.798   0.321   7.018  0.6661 -0.2493 -0.1109
 5547TIP3   OH238199   2.703   1.129   0.443 -0.4807 -0.5672  0.7902
 5547TIP3    H138200   2.706   1.046   0.490  0.3083 -1.4521 -0.7642
 5547TIP3    H238201   2.761   1.118   0.368 -3.8898 -0.3755 -2.1914
 5548TIP3   OH238202   0.025   0.300   1.453  0.4493  0.5810 -0.2619
 5548TIP3    H138203   0.004   0.312   1.545 -0.1228  2.3244 -0.5758
 5548TIP3    H238204   0.056   0.386   1.424  0.5505  0.0853 -1.6950
 5549TIP3   OH238205   6.436   4.356   1.042  0.0869  0.7262  0.8648
 5549TIP3    H138206   6.526   4.324   1.051  0.2110  1.3736  1.9859
 5549TIP3    H238207   6.393   4.288   0.990  1.2715  0.5286  0.0765
 5550TIP3   OH238208   2.915   0.172   8.125 -0.6009 -0.1307 -0.1914
 5550TIP3    H138209   2.906   0.120   8.204  2.2107 -1.0861 -0.3969
 5550TIP3    H238210   2.961   0.251   8.153 -0.9000  0.2196 -0.6587
 5551TIP3   OH238211   4.402   1.033   0.400 -0.1067  0.9511  0.0872
 5551TIP3    H138212   4.449   0.961   0.441 -0.2646  0.7723 -0.0432
 5551TIP3    H238213   4.444   1.044   0.314 -1.7111 -0.6971 -0.9880
 5552TIP3   OH238214   4.354   2.115   6.570  0.5475  0.0531  0.5455
 5552TIP3    H138215   4.386   2.098   6.481 -1.6666  0.8619 -0.4756
 5552TIP3    H238216   4.384   2.039   6.620  2.3523 -0.1429 -0.7111
 5553TIP3   OH238217   4.039   6.028   0.222 -0.0663  0.1512  0.3318
 5553TIP3    H138218   4.053   5.994   0.134 -0.2395 -0.6370  0.5992
 5553TIP3    H238219   4.098   6.104   0.228  1.7462 -1.1935  0.3352
 5554TIP3   OH238220   6.481   6.474   6.101 -0.9608 -0.4792  0.0006
 5554TIP3    H138221   6.527   6.397   6.067 -0.9719 -0.5622  0.1728
 5554TIP3    H238222   6.446   6.518   6.023  2.0525  1.3245 -0.4704
 5555TIP3   OH238223   0.379   3.881   7.469 -0.8098 -0.1105  0.2930
 5555TIP3    H138224   0.432   3.847   7.541 -2.0801 -0.7069  0.9711
 5555TIP3    H238225   0.422   3.849   7.390 -0.6780 -1.3785  0.8579
 5556TIP3   OH238226   1.686   3.432   5.618  0.0119 -0.5277 -0.4672
 5556TIP3    H138227   1.728   3.378   5.551  1.2990 -0.6571  0.4140
 5556TIP3    H238228   1.672   3.372   5.692  1.7586  0.3625  0.6455
 5557TIP3   OH238229   1.931   2.588   6.651  0.4341 -0.0848 -0.0759
 5557TIP3    H138230   1.930   2.535   6.571  1.9356  0.2408 -0.3475
 5557TIP3    H238231   1.839   2.604   6.671  0.0022 -1.2071 -1.0429
 5558TIP3   OH238232   2.093   2.720   0.671 -0.4012  0.4493  0.3013
 5558TIP3    H138233   2.020   2.669   0.705  0.1538 -0.5247  0.0711
 5558TIP3    H238234   2.090   2.706   0.576  0.1977  0.2407  0.3089
 5559TIP3   OH238235   5.635   0.477   0.797  0.5018 -0.4155 -0.6615
 5559TIP3    H138236   5.553   0.472   0.847  0.9294 -0.4789  0.0381
 5559TIP3    H238237   5.656   0.570   0.794  1.8739 -0.5921  1.6011
 5560TIP3   OH238238   0.881   1.470   7.152  0.1708 -0.0938 -0.1632
 5560TIP3    H138239   0.945   1.524   7.198  2.2085 -2.0155 -0.5793
 5560TIP3    H238240   0.924   1.445   7.071 -0.0695 -3.4249  0.5921
 5561TIP3   OH238241   6.821   4.409   7.619  1.2985  0.1548  0.1026
 5561TIP3    H138242   6.858   4.488   7.656  1.7693  1.0729 -2.1434
 5561TIP3    H238243   6.896   4.349   7.609  0.9431 -0.6370  1.8053
 5562TIP3   OH238244   4.047   1.437   0.847 -0.2016  0.1635 -0.3693
 5562TIP3    H138245   4.107   1.434   0.921 -0.4361 -0.5228 -0.1965
 5562TIP3    H238246   3.980   1.501   0.872 -0.2362 -0.0098 -0.0221
 5563TIP3   OH238247   2.309   2.026   0.845  0.1977 -0.5149  0.5083
 5563TIP3    H138248   2.330   1.954   0.786  1.8602  0.7548 -0.5535
 5563TIP3    H238249   2.376   2.022   0.913 -0.4245 -0.6750  1.1242
 5564TIP3   OH238250   1.731   1.027   1.926  0.8575 -0.2155 -0.3397
 5564TIP3    H138251   1.826   1.016   1.938  0.4960 -1.8472  1.5133
 5564TIP3    H238252   1.697   1.037   2.015 -0.6167  1.6554 -1.0550
 5565TIP3   OH238253   6.386   0.855   7.715  0.3409 -0.2925  0.4343
 5565TIP3    H138254   6.481   0.848   7.723  0.2948 -0.0592  1.2856
 5565TIP3    H238255   6.372   0.929   7.656  0.6874 -0.5443  0.0312
 5566TIP3   OH238256   2.686   5.522   0.423 -0.1846  0.2703  0.3376
 5566TIP3    H138257   2.642   5.598   0.384 -0.9963  0.3407  1.3435
 5566TIP3    H238258   2.655   5.448   0.372  1.0393  0.6407 -1.0098
 5567TIP3   OH238259   2.263   0.346   0.618 -0.2399  0.7399  0.9276
 5567TIP3    H138260   2.227   0.273   0.567 -0.8798  0.9621  1.0514
 5567TIP3    H238261   2.205   0.353   0.694  0.6750  0.4422  1.6722
 5568TIP3   OH238262   6.582   5.855   1.825 -0.0918  0.0591  0.6866
 5568TIP3    H138263   6.539   5.928   1.869  1.0650  1.0587  0.1884
 5568TIP3    H238264   6.669   5.887   1.803 -0.0163 -1.0026 -0.7476
 5569TIP3   OH238265   6.920   2.028   8.195  0.1239  0.2620 -0.6111
 5569TIP3    H138266   6.999   2.014   8.248 -0.0977  0.4437 -0.2268
 5569TIP3    H238267   6.931   2.117   8.160  0.0054  0.3544 -0.4129
 5570TIP3   OH238268   4.933   3.300   0.435  0.1756  0.9349 -0.1662
 5570TIP3    H138269   4.857   3.355   0.419  0.1390  0.6470 -1.0184
 5570TIP3    H238270   4.982   3.302   0.353  1.9012  2.3455  0.8288
 5571TIP3   OH238271   6.931   1.132   0.894  0.5125  0.1620 -0.3015
 5571TIP3    H138272   6.947   1.199   0.960  3.9786  0.9230 -1.7231
 5571TIP3    H238273   6.911   1.180   0.814 -1.8812 -0.7251 -0.3343
 5572TIP3   OH238274   6.786   4.406   7.244  0.2422 -1.0338  0.2984
 5572TIP3    H138275   6.724   4.334   7.250  1.1246 -1.7184  1.5087
 5572TIP3    H238276   6.778   4.452   7.328 -0.4562  0.4429 -0.5182
 5573TIP3   OH238277   1.571   4.373   7.318 -0.1033 -0.1544  0.0562
 5573TIP3    H138278   1.624   4.299   7.286 -1.8629 -1.0401 -0.9909
 5573TIP3    H238279   1.565   4.431   7.243  0.7073  0.7575  0.6759
 5574TIP3   OH238280   1.890   5.456   1.722  0.1893 -0.2492  0.1710
 5574TIP3    H138281   1.802   5.469   1.755  0.3269 -0.7292  0.7304
 5574TIP3    H238282   1.922   5.377   1.765  0.6579 -0.4488 -0.5145
 5575TIP3   OH238283   0.164   1.169   0.411  0.1639 -0.2221 -0.3234
 5575TIP3    H138284   0.131   1.079   0.413 -0.5917  0.0624  0.2815
 5575TIP3    H238285   0.253   1.161   0.376  0.0259 -1.1767 -0.4811
 5576TIP3   OH238286   2.454   6.347   0.000 -0.6067  0.6741 -1.0167
 5576TIP3    H138287   2.407   6.284  -0.054 -0.9555 -1.0872  1.1517
 5576TIP3    H238288   2.546   6.337  -0.025 -0.5895 -1.1532 -0.3852
 5577TIP3   OH238289   0.165   0.608   0.893 -0.0505  0.7438 -0.1973
 5577TIP3    H138290   0.091   0.658   0.927 -1.4227 -0.7493 -0.8449
 5577TIP3    H238291   0.159   0.617   0.798  0.1991  0.0783 -0.2841
 5578TIP3   OH238292   3.150   4.607   7.962  0.1938  0.2427 -0.4914
 5578TIP3    H138293   3.170   4.522   8.001 -1.1174  0.3355  0.4727
 5578TIP3    H238294   3.129   4.587   7.871 -2.0974 -0.8266  0.1823
 5579TIP3   OH238295   4.351   4.359   7.960 -0.3235  0.1196  0.3919
 5579TIP3    H138296   4.300   4.439   7.972 -0.0785  0.2788  0.3864
 5579TIP3    H238297   4.318   4.299   8.027 -1.4389 -0.2496 -0.4478
 5580TIP3   OH238298   2.251   0.554   7.911 -0.5653 -0.3742 -0.0866
 5580TIP3    H138299   2.247   0.466   7.949  0.6571 -0.6936 -0.6621
 5580TIP3    H238300   2.338   0.560   7.871  0.2533  1.8379  1.7668
 5581TIP3   OH238301   0.607   3.732   7.542  0.1564  0.1648  0.2393
 5581TIP3    H138302   0.678   3.738   7.478  0.7630 -0.3182  0.8564
 5581TIP3    H238303   0.580   3.640   7.539 -1.2740  0.5949 -0.8615
 5582TIP3   OH238304   3.875   2.566   7.241 -0.0374 -0.2034  0.1109
 5582TIP3    H138305   3.846   2.480   7.208 -0.2907 -0.3570  0.7236
 5582TIP3    H238306   3.955   2.546   7.291 -0.1764 -0.1015  0.3724
 5583TIP3   OH238307   1.545   4.553   1.327  0.1067 -0.6181 -0.1952
 5583TIP3    H138308   1.639   4.568   1.335  0.3395 -2.3136  0.6943
 5583TIP3    H238309   1.535   4.504   1.245 -0.1154  0.3206 -0.7386
 5584TIP3   OH238310   2.180   1.184   1.430 -0.2848 -0.3022 -0.1493
 5584TIP3    H138311   2.177   1.251   1.361 -0.2973 -0.0113  0.1287
 5584TIP3    H238312   2.112   1.211   1.493 -0.0057 -0.3420  0.1742
 5585TIP3   OH238313   0.299   2.711   0.231  0.0684  0.4858  0.2842
 5585TIP3    H138314   0.289   2.796   0.188  0.1490  0.3141 -0.0764
 5585TIP3    H238315   0.239   2.653   0.184  3.7523 -1.0222 -3.0898
 5586TIP3   OH238316   3.952   4.805   1.079  0.1751  0.3077 -0.1363
 5586TIP3    H138317   3.970   4.807   0.985  0.3615 -0.2047 -0.1153
 5586TIP3    H238318   3.873   4.752   1.087  1.2393 -1.3552  0.1361
 5587TIP3   OH238319   6.332   2.743   1.311  0.2975  0.3281  0.0114
 5587TIP3    H138320   6.264   2.706   1.255  0.5963  0.0172 -0.1463
 5587TIP3    H238321   6.388   2.668   1.333 -0.4648  0.2039  1.6677
 5588TIP3   OH238322   2.174   6.280   6.464  0.6216 -0.1334 -0.3041
 5588TIP3    H138323   2.174   6.359   6.410  1.3974  0.3362  0.3539
 5588TIP3    H238324   2.117   6.219   6.417  1.5154  0.1382 -1.8352
 5589TIP3   OH238325   1.291   5.678   5.888  0.3111  0.2139 -0.0754
 5589TIP3    H138326   1.231   5.618   5.843  0.7549 -1.3672  1.3468
 5589TIP3    H238327   1.250   5.764   5.878 -0.6373 -0.3687 -1.6952
 5590TIP3   OH238328   1.021   3.681   6.296 -0.2344 -0.2756  0.0549
 5590TIP3    H138329   0.982   3.766   6.277 -0.5849 -0.7895 -1.7160
 5590TIP3    H238330   0.966   3.644   6.365 -0.2553  0.7946  0.6194
 5591TIP3   OH238331   1.299   4.502   1.416 -0.0365 -0.0778 -0.0176
 5591TIP3    H138332   1.394   4.504   1.406 -0.1646 -0.2437 -1.5719
 5591TIP3    H238333   1.276   4.409   1.406 -0.1247 -0.5676  3.5369
 5592TIP3   OH238334   3.452   4.622   0.677 -0.0260  0.5502  0.6493
 5592TIP3    H138335   3.401   4.570   0.616  0.1894 -0.0966  1.0124
 5592TIP3    H238336   3.420   4.712   0.665 -0.8042  0.2496  0.4353
 5593TIP3   OH238337   6.333   0.138   7.000 -0.4021  0.0820  0.2292
 5593TIP3    H138338   6.394   0.149   7.073  0.9746 -0.0044 -0.8731
 5593TIP3    H238339   6.284   0.220   6.998  0.5702  0.6880  0.3475
 5594TIP3   OH238340   6.172   6.345   1.707  0.3951  0.1600 -0.6662
 5594TIP3    H138341   6.241   6.346   1.773  1.1542 -0.5758 -1.4176
 5594TIP3    H238342   6.096   6.383   1.751  1.6714  2.4216 -0.2617
 5595TIP3   OH238343   3.407   0.288   0.465 -0.1271  0.2421 -0.8079
 5595TIP3    H138344   3.480   0.237   0.500  0.3944  0.9047 -0.9131
 5595TIP3    H238345   3.346   0.297   0.538  0.0282 -0.0670 -0.6387
 5596TIP3   OH238346   7.044   0.440   0.736 -0.5411  0.5904  0.3307
 5596TIP3    H138347   6.959   0.398   0.722  0.8463 -4.1032  3.5808
 5596TIP3    H238348   7.040   0.472   0.827  1.4269 -0.8370  0.9842
 5597TIP3   OH238349   7.040   3.658   0.466 -0.3683 -0.6227  0.0500
 5597TIP3    H138350   7.071   3.671   0.555 -1.4503 -1.1717  0.5319
 5597TIP3    H238351   7.031   3.563   0.457  2.7083 -0.8581 -1.7377
 5598TIP3   OH238352   6.042   2.045   7.203 -0.7629 -0.0666 -0.1014
 5598TIP3    H138353   6.033   1.973   7.141 -0.2783  0.9158 -1.3609
 5598TIP3    H238354   5.972   2.106   7.179  0.0098  0.7551 -0.2986
 5599TIP3   OH238355   0.825   2.679   7.732 -0.6418  0.2538  0.0491
 5599TIP3    H138356   0.899   2.638   7.776  0.2443  2.0177  0.3098
 5599TIP3    H238357   0.849   2.772   7.727 -2.4888  0.7353 -0.5931
 5600TIP3   OH238358   2.908   4.801   1.825 -0.4081  0.3504  0.3631
 5600TIP3    H138359   2.880   4.881   1.871 -2.2257  0.4489 -0.8197
 5600TIP3    H238360   2.852   4.733   1.862 -0.2473 -0.0076 -0.0561
 5601TIP3   OH238361   1.795   5.592   6.313  0.4084  0.6108 -0.2222
 5601TIP3    H138362   1.714   5.623   6.353  0.4198 -1.4368  1.5887
 5601TIP3    H238363   1.855   5.578   6.386  2.4249  1.9777 -1.5023
 5602TIP3   OH238364   5.796   1.886   0.479 -0.1036  0.3481 -0.0961
 5602TIP3    H138365   5.710   1.888   0.437 -0.0956  1.5437 -0.0878
 5602TIP3    H238366   5.849   1.828   0.424 -0.6071  0.4683 -0.7113
 5603TIP3   OH238367   5.694   5.713   2.303  0.2267 -0.1453  0.1355
 5603TIP3    H138368   5.694   5.646   2.235  0.7906  1.6940 -1.8122
 5603TIP3    H238369   5.603   5.719   2.331  0.2146 -1.8639  0.5558
 5604TIP3   OH238370   0.438   1.099   7.811  0.6514  0.5616  0.0935
 5604TIP3    H138371   0.396   1.024   7.855  3.1756 -1.9807 -1.4955
 5604TIP3    H238372   0.367   1.162   7.800 -2.6116 -2.9470 -1.4504
 5605TIP3   OH238373   2.100   4.552   6.426 -0.3836 -0.2864 -0.0391
 5605TIP3    H138374   2.076   4.498   6.501 -0.1711  1.7351  1.5845
 5605TIP3    H238375   2.031   4.618   6.421  0.7461  0.9300 -0.1783
 5606TIP3   OH238376   3.303   4.359   7.795 -0.8388 -0.1123 -0.2401
 5606TIP3    H138377   3.357   4.426   7.837  1.4417 -2.1074  0.2133
 5606TIP3    H238378   3.337   4.352   7.706 -1.2807 -0.4514 -0.3877
 5607TIP3   OH238379   2.029   3.573   7.926  0.6286 -0.3508  0.4558
 5607TIP3    H138380   2.063   3.540   8.009  1.4692  0.2907  0.3835
 5607TIP3    H238381   2.052   3.666   7.926  0.4683 -0.3039 -0.4093
 5608TIP3   OH238382   0.085   5.242   5.944 -0.0129  0.0126  0.3309
 5608TIP3    H138383   0.152   5.249   6.012 -0.0847 -1.5623  0.6128
 5608TIP3    H238384   0.133   5.219   5.865 -0.2700 -2.6467  0.8533
 5609TIP3   OH238385   3.021   1.836   7.185  0.2810  0.3547 -0.1320
 5609TIP3    H138386   3.031   1.742   7.200  0.0866  0.5784  1.5931
 5609TIP3    H238387   3.007   1.844   7.090 -2.1060 -1.5929 -0.0447
 5610TIP3   OH238388   3.492   3.945   5.847  0.2423 -0.1840  0.0971
 5610TIP3    H138389   3.404   3.979   5.832 -0.6566 -1.1334  2.6208
 5610TIP3    H238390   3.551   4.014   5.816 -1.4485  2.0655  1.5467
 5611TIP3   OH238391   0.045   5.017   0.692 -0.6567  0.1652 -0.0520
 5611TIP3    H138392   0.138   5.010   0.714 -0.2946  0.6434 -1.3311
 5611TIP3    H238393   0.044   5.067   0.610 -2.0819  0.7098  0.2688
 5612TIP3   OH238394   5.636   3.774   0.723 -0.2359 -0.2645 -0.3197
 5612TIP3    H138395   5.611   3.863   0.748  0.5640  0.0674 -0.6592
 5612TIP3    H238396   5.730   3.770   0.738 -0.0222 -0.6040 -1.6284
 5613TIP3   OH238397   6.665   2.317   7.879  0.5269 -0.1604  0.6625
 5613TIP3    H138398   6.620   2.387   7.831  1.0943  0.2071  0.6601
 5613TIP3    H238399   6.636   2.328   7.969 -0.0397 -0.4503  0.5207
 5614TIP3   OH238400   6.605   5.831   6.223 -0.2054  0.2215  0.4785
 5614TIP3    H138401   6.623   5.908   6.170 -2.3547  0.7842  0.4476
 5614TIP3    H238402   6.582   5.866   6.309 -0.9507 -0.3831  0.5365
 5615TIP3   OH238403   3.286   4.787   6.707 -0.0954  0.1194 -0.3549
 5615TIP3    H138404   3.232   4.771   6.629 -0.3362 -2.2239  0.2126
 5615TIP3    H238405   3.376   4.793   6.673 -0.4823  2.6217 -1.1396
 5616TIP3   OH238406   1.682   5.226   7.465 -0.4891  0.7184 -0.3669
 5616TIP3    H138407   1.766   5.181   7.461 -0.8229 -0.0634  0.9391
 5616TIP3    H238408   1.616   5.156   7.459 -1.0351  1.2377 -0.5519
 5617TIP3   OH238409   0.807   0.996   1.152 -0.3859  0.2462  0.7305
 5617TIP3    H138410   0.764   0.972   1.234  1.1724 -1.4206  1.1053
 5617TIP3    H238411   0.868   1.065   1.176 -0.0321 -0.1413  0.9399
 5618TIP3   OH238412   1.194   0.243   1.389  0.4082  0.0840  0.0674
 5618TIP3    H138413   1.223   0.290   1.467 -0.4782  1.2922 -0.2855
 5618TIP3    H238414   1.260   0.264   1.323  1.6805 -1.7161  0.6990
 5619TIP3   OH238415   5.772   4.777   1.619  0.1054 -1.3217 -0.2280
 5619TIP3    H138416   5.854   4.728   1.613  0.6928 -0.3160 -0.6476
 5619TIP3    H238417   5.764   4.821   1.534  0.1113  0.0742  0.4599
 5620TIP3   OH238418   4.589   2.221   6.787  0.5998 -0.4976  0.5375
 5620TIP3    H138419   4.580   2.135   6.748 -0.9821 -1.3359  2.5450
 5620TIP3    H238420   4.552   2.281   6.723 -1.6755 -1.7803  0.5548
 5621TIP3   OH238421   2.950   2.363   6.752  0.4171  0.6974  0.1167
 5621TIP3    H138422   2.886   2.348   6.682  0.3898 -0.1282  0.3034
 5621TIP3    H238423   2.913   2.434   6.804  0.3341  1.1751 -0.5835
 5622TIP3   OH238424   3.368   0.120   7.542  0.0799  0.1801 -0.2694
 5622TIP3    H138425   3.375   0.026   7.557 -1.2165  0.3193  1.4631
 5622TIP3    H238426   3.313   0.153   7.613 -0.4472  2.0852 -1.4586
 5623TIP3   OH238427   1.907   6.315   2.050 -0.0881  0.3267  0.2926
 5623TIP3    H138428   1.933   6.389   1.995  0.5031  0.3256  0.5641
 5623TIP3    H238429   1.962   6.243   2.020 -0.1256  0.1958  0.5387
 5624TIP3   OH238430   5.397   6.553   1.633  0.1857  0.2105 -0.0844
 5624TIP3    H138431   5.436   6.467   1.642 -1.1833 -0.3321  1.1023
 5624TIP3    H238432   5.368   6.576   1.721  1.0722  2.1738 -0.2547
 5625TIP3   OH238433   0.541   4.842   7.740 -0.0729 -0.3297 -0.1310
 5625TIP3    H138434   0.539   4.850   7.644 -0.7453 -3.5325 -0.5014
 5625TIP3    H238435   0.628   4.806   7.760 -0.8659 -2.2749  0.0817
 5626TIP3   OH238436   6.840   1.072   8.036 -0.6216  0.1078 -0.5371
 5626TIP3    H138437   6.909   1.137   8.022 -1.0589  0.7899  0.3847
 5626TIP3    H238438   6.886   0.988   8.039  0.4020  0.6797  1.6579
 5627TIP3   OH238439   3.163   6.144   6.941 -0.6994  0.0521  0.5613
 5627TIP3    H138440   3.257   6.149   6.957 -0.6080  0.1337  0.0004
 5627TIP3    H238441   3.130   6.232   6.962 -0.4244  0.4605 -0.6818
 5628TIP3   OH238442   3.624   7.054   7.915  0.7011  0.5344  0.1262
 5628TIP3    H138443   3.595   6.966   7.893 -0.3769  0.7373  0.6613
 5628TIP3    H238444   3.714   7.042   7.946 -0.2941 -0.8268  2.8691
 5629TIP3   OH238445   3.815   6.651   6.628 -0.5055  0.6853  0.1008
 5629TIP3    H138446   3.854   6.626   6.544 -2.1886 -1.5279 -0.1040
 5629TIP3    H238447   3.835   6.578   6.686 -0.6947  1.4895  1.2093
 5630TIP3   OH238448   1.755   5.266   0.266 -0.3207  0.4060 -0.4770
 5630TIP3    H138449   1.677   5.237   0.220 -0.7818 -0.4868  0.7972
 5630TIP3    H238450   1.828   5.239   0.210 -0.8847  0.0362 -1.0460
 5631TIP3   OH238451   1.888   0.229   0.306 -0.0267  0.1598 -0.1348
 5631TIP3    H138452   1.885   0.321   0.282 -0.7573 -0.1188 -1.1933
 5631TIP3    H238453   1.887   0.182   0.222 -0.9017 -0.8247  0.3964
 5632TIP3   OH238454   6.042   1.346   0.874 -0.8955  0.4853  0.3176
 5632TIP3    H138455   6.008   1.402   0.805 -1.0506 -0.6914 -0.6046
 5632TIP3    H238456   5.969   1.287   0.895  0.3868 -1.9055 -1.5037
 5633TIP3   OH238457   4.319   0.025   7.273  0.7403  0.1906 -0.2999
 5633TIP3    H138458   4.360  -0.052   7.314  0.1715 -0.1392 -0.3393
 5633TIP3    H238459   4.301   0.084   7.345  0.3702 -0.0931 -0.1572
 5634TIP3   OH238460   5.851   3.938   2.445 -0.2993  0.0165 -1.0162
 5634TIP3    H138461   5.930   3.992   2.448  0.7036 -1.3679 -1.6760
 5634TIP3    H238462   5.805   3.967   2.366 -1.2374  1.8204  0.1226
 5635TIP3   OH238463   6.071   1.803   7.038 -0.1840  0.0406  0.1895
 5635TIP3    H138464   5.989   1.806   6.990 -0.4231 -0.3429  0.5638
 5635TIP3    H238465   6.079   1.711   7.066 -0.3242  0.3580  1.3390
 5636TIP3   OH238466   6.303   5.015   1.967 -0.0033 -0.3092  0.5179
 5636TIP3    H138467   6.316   5.107   1.988 -0.8842 -0.0947  0.1941
 5636TIP3    H238468   6.379   4.991   1.914  0.5909  0.0256  1.2017
 5637TIP3   OH238469   1.156   1.935   0.890  0.4025  0.0102  0.2948
 5637TIP3    H138470   1.226   1.996   0.912  0.8788 -0.8861  1.3821
 5637TIP3    H238471   1.180   1.854   0.935 -1.5054 -0.2233  1.0060
 5638TIP3   OH238472   2.985   0.103   5.886  0.4019 -0.1274 -0.6075
 5638TIP3    H138473   3.062   0.156   5.905  1.1240 -2.0262  2.4101
 5638TIP3    H238474   3.020   0.017   5.864 -0.7883 -1.1334  1.2000
 5639TIP3   OH238475   4.408   5.112   0.378  0.0354  0.0152  0.1640
 5639TIP3    H138476   4.335   5.053   0.399  1.2653 -1.4728  0.4353
 5639TIP3    H238477   4.384   5.195   0.418 -0.5962 -0.9996  2.0033
 5640TIP3   OH238478   2.120   5.411   7.881  0.2604 -0.1609 -0.0690
 5640TIP3    H138479   2.137   5.347   7.950  0.4697  2.6009  2.6511
 5640TIP3    H238480   2.203   5.417   7.833  1.4945  0.7226  2.0558
 5641TIP3   OH238481   6.549   6.958   0.833 -0.0162 -0.2379  0.5433
 5641TIP3    H138482   6.509   7.017   0.769  1.0637  0.2730  0.3125
 5641TIP3    H238483   6.494   6.967   0.911  1.5697  3.2089  1.4784
 5642TIP3   OH238484   5.291   1.788   0.703  0.4397  0.4550 -0.8771
 5642TIP3    H138485   5.289   1.735   0.623  0.8185  0.1062 -0.6610
 5642TIP3    H238486   5.204   1.779   0.741  1.1122 -1.8444  0.3221
 5643TIP3   OH238487   5.835   6.905   1.240 -0.2461 -0.1703 -0.2454
 5643TIP3    H138488   5.763   6.905   1.178 -0.4428 -1.5308 -0.0384
 5643TIP3    H238489   5.795   6.933   1.323 -0.3062  0.0980 -0.3619
 5644TIP3   OH238490   6.412   1.594   6.789 -0.5719  0.5028 -0.2881
 5644TIP3    H138491   6.458   1.591   6.705  0.2659  1.1352  0.1389
 5644TIP3    H238492   6.356   1.516   6.788  1.3952 -0.9792 -0.3159
 5645TIP3   OH238493   2.080   5.480   0.118  0.1451  0.0610 -0.4504
 5645TIP3    H138494   1.991   5.509   0.139 -0.3976  0.6042 -3.0712
 5645TIP3    H238495   2.068   5.393   0.081  0.7676 -0.0509 -0.3976
 5646TIP3   OH238496   4.229   1.399   1.044 -0.3542  0.0530  0.5771
 5646TIP3    H138497   4.193   1.326   1.094  1.5348 -0.5459  1.1411
 5646TIP3    H238498   4.302   1.361   0.995  0.4482  1.4847  0.6075
 5647TIP3   OH238499   2.807   5.808   6.908  0.0505 -0.3783 -0.9024
 5647TIP3    H138500   2.812   5.727   6.858  1.0551 -1.7705  1.3095
 5647TIP3    H238501   2.894   5.848   6.899 -0.0404 -0.1913 -0.9652
 5648TIP3   OH238502   4.977   5.454   1.454 -0.4027  0.7306  0.1050
 5648TIP3    H138503   4.956   5.547   1.460 -0.9148  0.5257  2.5730
 5648TIP3    H238504   4.894   5.413   1.431 -0.3163  0.7984 -0.3514
 5649TIP3   OH238505   0.887   1.793   2.225  0.7181 -0.0233  0.3189
 5649TIP3    H138506   0.973   1.803   2.268  1.3030  0.6131 -0.9535
 5649TIP3    H238507   0.888   1.704   2.190 -0.7121 -1.4665  3.5377
 5650TIP3   OH238508   0.215   1.350   0.646 -0.2611 -0.4254  0.0171
 5650TIP3    H138509   0.183   1.284   0.585 -0.2332  0.8962 -1.5024
 5650TIP3    H238510   0.238   1.424   0.591 -0.0245  0.7607  1.6317
 5651TIP3   OH238511   3.060   5.322   0.077  0.3250  0.2399  0.3833
 5651TIP3    H138512   3.094   5.233   0.069 -0.7253 -0.1765  0.3485
 5651TIP3    H238513   3.135   5.378   0.058  0.7964 -0.6435 -0.4714
 5652TIP3   OH238514   2.183   3.011   7.115  0.1068 -0.2061 -0.0180
 5652TIP3    H138515   2.166   2.917   7.123 -1.8019  0.0998 -0.0086
 5652TIP3    H238516   2.120   3.041   7.049 -0.5134  1.3448  1.2188
 5653TIP3   OH238517   0.498   6.741   7.632  0.1496 -0.1357  0.4263
 5653TIP3    H138518   0.497   6.795   7.553 -1.8605 -0.5444  0.1077
 5653TIP3    H238519   0.590   6.736   7.657  0.9729 -0.6691 -2.3648
 5654TIP3   OH238520   1.041   5.385   6.077 -0.9412 -0.3690  0.0056
 5654TIP3    H138521   1.093   5.329   6.135  0.3900  0.9019  0.1117
 5654TIP3    H238522   1.081   5.372   5.991  0.1793  1.2425  0.2289
 5655TIP3   OH238523   6.722   1.783   6.906  0.0318 -0.2648 -0.1857
 5655TIP3    H138524   6.790   1.746   6.961 -0.8398 -1.2171  0.2912
 5655TIP3    H238525   6.643   1.781   6.961 -0.1898  1.7882 -0.3370
 5656TIP3   OH238526   3.163   4.488   0.175 -0.0132  0.5412  0.6002
 5656TIP3    H138527   3.225   4.443   0.117  0.1644  2.2065 -0.5970
 5656TIP3    H238528   3.194   4.470   0.263  2.6162  1.7987  0.0523
 5657TIP3   OH238529   5.806   1.803   7.614 -0.2306 -0.7286  0.5170
 5657TIP3    H138530   5.882   1.861   7.601 -0.8040 -0.1918 -0.5915
 5657TIP3    H238531   5.770   1.791   7.526 -1.2468 -1.2445  0.9890
 5658TIP3   OH238532   5.801   4.426   7.418 -0.0068  0.6712  0.0171
 5658TIP3    H138533   5.800   4.377   7.335  0.3898 -0.7556  0.8137
 5658TIP3    H238534   5.864   4.497   7.402 -0.7206  1.0564 -1.2304
 5659TIP3   OH238535   5.403   2.762   0.806 -0.4493  0.0365 -0.3217
 5659TIP3    H138536   5.466   2.693   0.824  1.2842  1.7109  0.3992
 5659TIP3    H238537   5.445   2.816   0.740 -0.9706  1.3618  0.3884
 5660TIP3   OH238538   4.639   2.882   7.320  0.3924 -0.0482 -0.1998
 5660TIP3    H138539   4.619   2.971   7.290 -1.2428 -0.4598 -0.4538
 5660TIP3    H238540   4.674   2.894   7.409  2.6414  0.9869 -1.1538
 5661TIP3   OH238541   4.680   1.887   0.173 -0.2372  0.9775  0.2079
 5661TIP3    H138542   4.638   1.818   0.224  1.9857 -0.4106  0.2815
 5661TIP3    H238543   4.617   1.908   0.104 -0.7031 -1.6003 -0.2299
 5662TIP3   OH238544   6.532   6.894   7.068 -0.0471  0.9338 -0.0065
 5662TIP3    H138545   6.605   6.946   7.103  1.4897 -1.8941  1.3692
 5662TIP3    H238546   6.476   6.878   7.144 -1.1195  1.4794 -0.6631
 5663TIP3   OH238547   0.593   7.007   7.867 -0.3284  0.3554 -0.3516
 5663TIP3    H138548   0.588   6.948   7.942  2.1737 -0.0185 -0.3835
 5663TIP3    H238549   0.630   7.088   7.902  1.1188  0.0880 -1.1615
 5664TIP3   OH238550   0.648   5.095   0.805  0.2886  0.2301 -0.4399
 5664TIP3    H138551   0.664   5.108   0.899  2.2444  0.5639 -0.7802
 5664TIP3    H238552   0.634   5.183   0.771 -1.5747  0.0248 -0.3224
 5665TIP3   OH238553   2.111   3.749   6.605  0.3028 -0.0685 -0.6258
 5665TIP3    H138554   2.201   3.768   6.632  0.1678  2.1845 -1.5315
 5665TIP3    H238555   2.081   3.830   6.563 -3.0130  0.2853  1.9238
 5666TIP3   OH238556   1.614   4.029   7.621  0.1125  0.0456  0.0762
 5666TIP3    H138557   1.536   4.084   7.629 -1.4339 -1.9392 -0.3719
 5666TIP3    H238558   1.587   3.959   7.562  2.1724 -0.8569  0.1391
 5667TIP3   OH238559   1.056   6.504   7.895  0.0765  0.5912 -0.3668
 5667TIP3    H138560   1.084   6.590   7.928  1.5633 -0.9225  2.7782
 5667TIP3    H238561   0.969   6.491   7.934 -0.6978  1.0934 -1.8410
 5668TIP3   OH238562   2.545   1.371   0.817  0.4328 -0.1462  0.1622
 5668TIP3    H138563   2.624   1.375   0.763  1.8849 -1.2036  2.0679
 5668TIP3    H238564   2.482   1.321   0.764  0.9373  0.8824 -1.4717
 5669TIP3   OH238565   5.059   3.480   0.804  0.4787  0.0067  0.1621
 5669TIP3    H138566   5.107   3.563   0.805 -0.6668  0.7118 -1.0233
 5669TIP3    H238567   5.042   3.461   0.896  0.6691  1.1438  0.4442
 5670TIP3   OH238568   2.732   3.588   6.440  0.0281 -0.2171  0.2580
 5670TIP3    H138569   2.768   3.541   6.365 -1.8850  0.2553 -1.0249
 5670TIP3    H238570   2.787   3.561   6.514  2.6565  0.1449 -1.4494
 5671TIP3   OH238571   5.479   6.389   1.208  0.2869  0.4745 -0.6988
 5671TIP3    H138572   5.478   6.334   1.286 -0.3117  1.5102  0.0484
 5671TIP3    H238573   5.461   6.328   1.136 -0.2251 -0.3270  0.0801
 5672TIP3   OH238574   6.438   3.634   0.837 -0.6351 -0.7084 -0.3315
 5672TIP3    H138575   6.469   3.653   0.926 -1.6873 -2.3350  0.4437
 5672TIP3    H238576   6.344   3.623   0.847 -0.6333 -1.9258 -1.4414
 5673TIP3   OH238577   2.597   1.831   6.732  0.0770 -0.3746  0.4196
 5673TIP3    H138578   2.691   1.820   6.715 -0.0449  1.1138 -1.5221
 5673TIP3    H238579   2.593   1.870   6.819  1.3307  0.2298  0.2332
 5674TIP3   OH238580   6.434   1.149   1.921 -0.1352  0.0196 -0.0647
 5674TIP3    H138581   6.449   1.149   1.827  1.6893 -1.3213  0.1675
 5674TIP3    H238582   6.466   1.063   1.950  0.9668  1.0614  2.0081
 5675TIP3   OH238583   1.984   6.471   0.011 -0.1106  0.0594  0.0249
 5675TIP3    H138584   2.041   6.547   0.002 -0.1819  0.0799 -0.2851
 5675TIP3    H238585   2.036   6.397  -0.020 -0.3822  0.1401 -0.6554
 5676TIP3   OH238586   3.207   5.564   1.762 -0.0140 -0.4631  0.3677
 5676TIP3    H138587   3.285   5.618   1.749  1.1933 -1.3002  3.2839
 5676TIP3    H238588   3.196   5.518   1.679  1.7432  0.7294 -0.5945
 5677TIP3   OH238589   3.924   6.358   6.361 -0.2690  0.6913  0.3649
 5677TIP3    H138590   3.839   6.314   6.357 -0.0153  0.1968  0.2767
 5677TIP3    H238591   3.969   6.316   6.434  0.7023 -0.5505 -0.8918
 5678TIP3   OH238592   4.638   1.461   7.203  0.7064 -0.2023  0.2014
 5678TIP3    H138593   4.574   1.391   7.191 -0.9276  1.4339 -1.3415
 5678TIP3    H238594   4.710   1.439   7.145  0.3397 -0.7540 -0.0518
 5679TIP3   OH238595   3.343   5.661   2.021 -0.4099 -0.3239 -0.3902
 5679TIP3    H138596   3.372   5.578   2.058  2.0242  0.3469 -0.5821
 5679TIP3    H238597   3.360   5.725   2.090 -4.3812 -0.1569  0.6499
 5680TIP3   OH238598   3.953   3.377   7.689 -0.0161 -0.1513  0.1079
 5680TIP3    H138599   3.873   3.408   7.647  0.5946  3.8978  1.4826
 5680TIP3    H238600   3.925   3.344   7.774 -0.3082  1.3422  0.6231
 5681TIP3   OH238601   5.960   4.499   7.775  0.3681 -0.4446 -0.3364
 5681TIP3    H138602   5.950   4.408   7.747 -0.3390 -0.5125  0.1174
 5681TIP3    H238603   5.872   4.528   7.797  0.4860  0.5817 -1.1501
 5682TIP3   OH238604   2.591   0.232   7.634 -0.0927  0.2018  0.5051
 5682TIP3    H138605   2.609   0.299   7.569 -0.7853  0.7704  0.8778
 5682TIP3    H238606   2.632   0.264   7.714 -0.5433  0.2574  0.7199
 5683TIP3   OH238607   3.335   4.936   1.521 -0.6432 -0.1211 -0.1375
 5683TIP3    H138608   3.243   4.932   1.547 -0.7347  0.9751 -0.2489
 5683TIP3    H238609   3.333   4.962   1.429 -0.2529 -1.8381 -0.6727
 5684TIP3   OH238610   0.940   4.208   7.219  0.7034  0.5508  0.8065
 5684TIP3    H138611   0.851   4.181   7.199  0.8823 -0.0248  0.7714
 5684TIP3    H238612   0.975   4.238   7.134  1.1465 -0.9855  0.4203
 5685TIP3   OH238613   0.623   2.254   0.176 -0.1349 -0.2390  0.3355
 5685TIP3    H138614   0.541   2.296   0.202 -0.1244 -0.2506  0.3872
 5685TIP3    H238615   0.690   2.300   0.225 -0.2595 -1.2616  1.4979
 5686TIP3   OH238616   3.253   6.177   6.240  0.0506  0.2300 -0.1354
 5686TIP3    H138617   3.251   6.193   6.146  1.2608 -0.5398 -0.3217
 5686TIP3    H238618   3.201   6.248   6.278  0.7774  1.4053 -1.2663
 5687TIP3   OH238619   0.289   6.822   7.833  0.4540 -0.1502 -0.0961
 5687TIP3    H138620   0.214   6.781   7.790  2.1889 -1.9916 -1.5234
 5687TIP3    H238621   0.366   6.786   7.788  2.2130  2.0739  0.9410
 5688TIP3   OH238622   6.003   1.664   7.994  0.0977  0.6505 -0.3133
 5688TIP3    H138623   6.096   1.647   7.979  0.2074  0.8188  0.1588
 5688TIP3    H238624   5.990   1.754   7.964  0.2056  0.8118  0.1199
 5689TIP3   OH238625   0.833   6.602   0.038  0.1982 -0.2638 -0.5070
 5689TIP3    H138626   0.750   6.623  -0.005  0.4274 -0.6162 -1.1306
 5689TIP3    H238627   0.808   6.547   0.113 -0.4779  2.5105  1.4685
 5690TIP3   OH238628   4.657   5.492   7.565 -0.3594  0.1167  0.7829
 5690TIP3    H138629   4.681   5.554   7.496 -0.4773 -0.5065  0.1743
 5690TIP3    H238630   4.720   5.510   7.635 -1.4533  2.0865  1.3323
 5691TIP3   OH238631   3.234   2.702   5.924  0.0162 -0.1263  0.0623
 5691TIP3    H138632   3.280   2.666   5.848  1.1164 -2.1343  1.5634
 5691TIP3    H238633   3.244   2.796   5.917  3.0777 -0.3962 -0.5354
 5692TIP3   OH238634   3.074   1.939   0.829 -0.5207 -0.3700  0.5511
 5692TIP3    H138635   3.169   1.938   0.835 -0.5677  0.2770  1.6816
 5692TIP3    H238636   3.045   1.988   0.906 -1.6113  3.0425 -1.7719
 5693TIP3   OH238637   2.724   3.992   5.707  0.0235 -0.4486  0.2106
 5693TIP3    H138638   2.748   3.938   5.631 -0.8771  0.0251 -0.4302
 5693TIP3    H238639   2.797   3.982   5.767  0.3390 -1.5813 -0.3253
 5694TIP3   OH238640   4.159   0.937   0.059  0.5457  0.8966 -0.1505
 5694TIP3    H138641   4.131   1.014   0.010 -0.5404  0.1129 -0.7948
 5694TIP3    H238642   4.106   0.865   0.025  1.9123 -0.2679  0.0387
 5695TIP3   OH238643   0.831   4.005   0.753 -0.2912  0.0117 -0.1878
 5695TIP3    H138644   0.763   4.008   0.821 -0.2988  0.3240 -0.2064
 5695TIP3    H238645   0.824   3.917   0.716 -0.3224 -0.1409  0.1817
 5696TIP3   OH238646   5.783   0.064   8.113 -0.0808 -0.5472 -0.0561
 5696TIP3    H138647   5.822   0.142   8.152  0.3139 -1.3090  1.1150
 5696TIP3    H238648   5.782  -0.001   8.183 -0.9861 -1.4087 -0.8234
 5697TIP3   OH238649   0.849   0.453   0.314 -0.1077 -0.8538  0.9081
 5697TIP3    H138650   0.874   0.389   0.246  1.5338 -2.0838  2.5720
 5697TIP3    H238651   0.876   0.537   0.278 -1.2036 -1.1967 -0.8359
 5698TIP3   OH238652   3.379   2.728   0.924 -0.0125 -0.7365  0.1931
 5698TIP3    H138653   3.388   2.634   0.911  0.2795 -0.6269 -0.4021
 5698TIP3    H238654   3.395   2.740   1.018  0.4727 -1.2175  0.1777
 5699TIP3   OH238655   0.344   0.540   7.029 -0.4814 -0.0452  0.0669
 5699TIP3    H138656   0.341   0.534   6.933  1.9751 -0.3892 -0.0301
 5699TIP3    H238657   0.422   0.491   7.054 -0.6232  0.7331  2.1973
 5700TIP3   OH238658   2.016   4.374   6.086 -0.9478  0.1537  0.0480
 5700TIP3    H138659   2.071   4.411   6.017 -2.0688  0.3171 -0.7876
 5700TIP3    H238660   2.077   4.348   6.155  0.0409  1.6277 -0.2448
 5701TIP3   OH238661   4.191   3.407   2.074  0.0424  0.2128 -0.1110
 5701TIP3    H138662   4.140   3.335   2.037 -0.1316  0.2081  0.1364
 5701TIP3    H238663   4.145   3.486   2.047 -1.3712  0.1628  1.9257
 5702TIP3   OH238664   0.717   2.998   0.148 -0.5248  0.5201 -0.7357
 5702TIP3    H138665   0.776   3.019   0.220  1.6000  0.8229 -2.4554
 5702TIP3    H238666   0.681   2.912   0.170 -0.8684  1.1146  1.2007
 5703TIP3   OH238667   3.055   0.928   7.521  0.3804 -0.3074  0.0651
 5703TIP3    H138668   3.039   0.869   7.447 -1.0354  1.7702 -1.4020
 5703TIP3    H238669   3.116   0.993   7.486  1.1371 -0.2939  1.3423
 5704TIP3   OH238670   5.440   2.380   7.092 -0.5305  0.2591 -0.1550
 5704TIP3    H138671   5.375   2.377   7.161  0.7186 -0.7212  1.0204
 5704TIP3    H238672   5.490   2.299   7.101  1.4963  1.4061 -0.3402
 5705TIP3   OH238673   6.155   6.912   0.198  0.2498  0.2491 -0.1479
 5705TIP3    H138674   6.147   6.825   0.236  1.3803  0.7100  1.2770
 5705TIP3    H238675   6.247   6.920   0.174  0.0509  0.8576 -0.7477
 5706TIP3   OH238676   5.679   3.904   8.053  0.1439  0.7171 -0.0682
 5706TIP3    H138677   5.736   3.974   8.022 -0.6019  1.0052 -0.8217
 5706TIP3    H238678   5.731   3.824   8.042 -0.0501  0.8136 -2.0289
 5707TIP3   OH238679   3.625   0.999   6.752 -0.0043  0.1202  0.0461
 5707TIP3    H138680   3.631   1.091   6.777 -1.8274 -0.1313  1.6818
 5707TIP3    H238681   3.713   0.964   6.766  0.7680  1.6262 -0.8116
 5708TIP3   OH238682   5.586   6.119   1.802 -0.0065 -0.5175 -0.0470
 5708TIP3    H138683   5.505   6.075   1.826 -0.4984  0.1508 -0.4503
 5708TIP3    H238684   5.629   6.138   1.885  0.8606 -2.9091  0.1136
 5709TIP3   OH238685   5.523   2.047   8.084  0.2950 -0.0239 -0.0227
 5709TIP3    H138686   5.455   2.075   8.145  0.4695  1.2032 -0.3589
 5709TIP3    H238687   5.475   2.017   8.007  0.0976 -0.8871  0.4236
 5710TIP3   OH238688   0.454   0.844   7.387  0.3323 -0.0951 -0.3216
 5710TIP3    H138689   0.470   0.754   7.418  0.9750 -0.0662 -0.5464
 5710TIP3    H238690   0.526   0.895   7.425 -1.2299  0.7758  1.6502
 5711TIP3   OH238691   6.543   1.539   1.778 -0.0517 -0.1203 -0.5148
 5711TIP3    H138692   6.478   1.521   1.710 -1.0011  1.2690 -0.0378
 5711TIP3    H238693   6.587   1.619   1.749 -1.1063  1.0267  0.8835
 5712TIP3   OH238694   3.940   2.930   1.436  0.0033 -0.2154 -0.0470
 5712TIP3    H138695   3.849   2.928   1.408 -0.3333 -1.6493  0.9688
 5712TIP3    H238696   3.935   2.932   1.532  1.0424  0.0929  0.0118
 5713TIP3   OH238697   1.898   6.294   6.213 -0.3651 -0.2567 -0.0500
 5713TIP3    H138698   1.846   6.349   6.271 -1.1589  0.6350 -1.5372
 5713TIP3    H238699   1.834   6.234   6.174  0.0298 -0.3939 -0.4922
 5714TIP3   OH238700   3.804   2.640   6.906 -0.3415  0.2010 -0.1034
 5714TIP3    H138701   3.713   2.611   6.896  0.1857 -1.4832 -0.1956
 5714TIP3    H238702   3.798   2.718   6.961 -1.9652  0.9557 -1.2746
 5715TIP3   OH238703   1.441   1.595   0.970 -0.1005 -0.0687 -0.3056
 5715TIP3    H138704   1.524   1.626   0.936  1.1973  1.9699  3.9561
 5715TIP3    H238705   1.461   1.508   1.006  0.1965  0.3146  0.4906
 5716TIP3   OH238706   3.125   3.414   8.217  0.3195  0.1998 -0.2491
 5716TIP3    H138707   3.164   3.491   8.258  1.6024  0.2237 -1.4407
 5716TIP3    H238708   3.128   3.432   8.123  1.4692 -1.6198 -0.6361
 5717TIP3   OH238709   4.137   5.524   6.292 -0.1711  0.3199 -0.8723
 5717TIP3    H138710   4.164   5.615   6.300  0.3730  0.1809 -1.1170
 5717TIP3    H238711   4.209   5.481   6.248 -0.2730 -0.3069 -0.4465
 5718TIP3   OH238712   3.540   6.785   7.812  0.4552 -0.4662  0.0643
 5718TIP3    H138713   3.595   6.749   7.882  1.7187  0.0793 -0.6027
 5718TIP3    H238714   3.556   6.729   7.737  0.8945  0.2837 -0.4195
 5719TIP3   OH238715   3.890   2.096   6.805 -0.6732  0.1240 -0.3855
 5719TIP3    H138716   3.960   2.069   6.747  0.2402  0.4369  0.5439
 5719TIP3    H238717   3.933   2.150   6.872 -1.2703 -2.0441  1.9041
 5720TIP3   OH238718   1.676   2.744   2.270 -0.4591  0.0363  0.7279
 5720TIP3    H138719   1.607   2.808   2.255  0.3997  0.7298 -0.4906
 5720TIP3    H238720   1.721   2.737   2.186  1.2637 -0.0187  1.6093
 5721TIP3   OH238721   3.281   1.684   1.409  0.1431 -0.0202 -0.7608
 5721TIP3    H138722   3.314   1.659   1.496 -2.5126 -0.6853  0.1536
 5721TIP3    H238723   3.326   1.625   1.349  0.2353 -1.2573  0.4578
 5722TIP3   OH238724   1.190   7.029   1.095  0.7585  0.5187 -0.9456
 5722TIP3    H138725   1.249   7.047   1.169  0.7453  3.1925 -1.4725
 5722TIP3    H238726   1.127   6.966   1.129  1.7470  0.3936  0.7761
 5723TIP3   OH238727   3.921   4.334   2.390  0.4712  0.1473  0.2197
 5723TIP3    H138728   3.857   4.274   2.351  0.5965 -1.0530  1.7536
 5723TIP3    H238729   3.869   4.405   2.426  0.2625  0.6476 -1.0204
 5724TIP3   OH238730   5.468   4.751   2.330 -0.0454  0.8872 -0.1556
 5724TIP3    H138731   5.460   4.843   2.307  2.2760  0.7133 -2.0055
 5724TIP3    H238732   5.400   4.707   2.279 -1.9194  1.6169  1.5923
 5725TIP3   OH238733   3.555   2.321   7.468 -0.0430  0.2178 -0.4928
 5725TIP3    H138734   3.475   2.366   7.496 -1.4662 -2.6068  0.3584
 5725TIP3    H238735   3.613   2.325   7.543  0.1338  1.2086 -0.6753
 5726TIP3   OH238736   4.339   2.685   7.806  0.3169 -0.0685 -0.6987
 5726TIP3    H138737   4.428   2.653   7.821  1.0427  2.0673 -0.1521
 5726TIP3    H238738   4.306   2.708   7.892  0.1081  1.3162 -1.1276
 5727TIP3   OH238739   3.704   5.696   7.372 -0.1059  0.0704 -0.2213
 5727TIP3    H138740   3.643   5.752   7.323 -1.0119 -2.4287 -2.1413
 5727TIP3    H238741   3.713   5.740   7.457 -2.4611  1.9705 -0.8359
 5728TIP3   OH238742   4.579   4.787   2.183 -0.3551 -0.4985  0.5252
 5728TIP3    H138743   4.669   4.819   2.186 -0.6931  0.4918  0.2723
 5728TIP3    H238744   4.561   4.773   2.090 -1.4074  2.1467  0.2297
 5729TIP3   OH238745   5.383   0.474   7.148 -0.2319  0.0374  0.0363
 5729TIP3    H138746   5.440   0.447   7.077  0.5487 -0.7436  0.9297
 5729TIP3    H238747   5.297   0.440   7.125  0.3088 -1.4849  0.1510
 5730TIP3   OH238748   2.854   3.062   1.900 -0.2895  0.1861 -0.1457
 5730TIP3    H138749   2.915   3.082   1.829 -0.7411 -0.3358 -0.6931
 5730TIP3    H238750   2.825   3.147   1.931 -0.2874  0.4165 -0.7657
 5731TIP3   OH238751   6.834   2.786   5.662 -0.4293  0.3422 -0.1041
 5731TIP3    H138752   6.924   2.754   5.672 -0.9206 -1.2005 -0.3646
 5731TIP3    H238753   6.844   2.878   5.637  1.0540  0.4036  0.5871
 5732TIP3   OH238754   5.769   2.558   7.353 -0.1338 -0.1330  0.3904
 5732TIP3    H138755   5.673   2.563   7.349 -0.0866  1.0473  0.4283
 5732TIP3    H238756   5.794   2.625   7.416  0.6913 -0.8767  0.8657
 5733TIP3   OH238757   3.386   2.050   1.661  0.1648  0.2119 -0.0533
 5733TIP3    H138758   3.313   2.096   1.621 -1.2934 -1.8536  0.0891
 5733TIP3    H238759   3.381   2.073   1.754 -0.7299 -0.4195  0.0652
 5734TIP3   OH238760   0.571   4.860   6.637  0.4457  0.1961  0.4045
 5734TIP3    H138761   0.495   4.915   6.652  2.3092  3.0478  0.1166
 5734TIP3    H238762   0.560   4.827   6.547 -0.0329  1.3080  0.0473
 5735TIP3   OH238763   5.043   1.618   6.372  0.2370 -0.1460  0.2231
 5735TIP3    H138764   4.989   1.607   6.294  0.1200  3.3635 -0.3188
 5735TIP3    H238765   5.133   1.616   6.340  0.1745  3.1056 -0.4378
 5736TIP3   OH238766   0.014   4.532   1.765 -0.4137  0.0864 -0.2127
 5736TIP3    H138767   0.018   4.494   1.676 -0.4460 -1.8772  0.5693
 5736TIP3    H238768   0.069   4.610   1.760 -1.1521  0.5589 -2.1902
 5737TIP3   OH238769   7.040   4.205   7.575  0.1049 -0.6898  0.4270
 5737TIP3    H138770   7.119   4.233   7.621  0.3806 -0.9064  0.0942
 5737TIP3    H238771   7.073   4.159   7.498 -0.3467  0.4910 -0.4947
 5738TIP3   OH238772   6.656   2.916   6.300  0.1579  0.6033 -0.3404
 5738TIP3    H138773   6.736   2.918   6.248 -0.6243  1.7291 -1.5433
 5738TIP3    H238774   6.625   2.826   6.294  2.4424 -0.4586  1.9708
 5739TIP3   OH238775   5.463   6.136   2.361  0.1091  0.0758 -0.7105
 5739TIP3    H138776   5.388   6.098   2.315  0.5430 -0.3150 -1.1079
 5739TIP3    H238777   5.460   6.097   2.448 -0.2389  0.1843 -0.6727
 5740TIP3   OH238778   5.232   3.706   0.844 -0.1563  0.0026 -0.4209
 5740TIP3    H138779   5.222   3.755   0.925  1.2396  1.1375 -0.9006
 5740TIP3    H238780   5.323   3.677   0.843 -0.3330 -0.5808 -1.2605
 5741TIP3   OH238781   1.309   1.903   0.334 -0.3178 -0.4654 -0.3216
 5741TIP3    H138782   1.365   1.885   0.259 -0.6834 -1.4485 -0.3744
 5741TIP3    H238783   1.227   1.857   0.314 -1.0983  0.7871 -0.1656
 5742TIP3   OH238784   6.057   5.520   7.687  0.0084  0.4243  0.1025
 5742TIP3    H138785   6.050   5.601   7.738  0.1999  0.2971  0.3279
 5742TIP3    H238786   6.142   5.484   7.709 -0.8862 -0.9010  1.5769
 5743TIP3   OH238787   0.023   4.055   7.174 -0.0698  0.3474  0.0200
 5743TIP3    H138788  -0.033   4.122   7.135  0.9657  0.6837 -0.9549
 5743TIP3    H238789   0.023   3.983   7.110  0.1002  0.0799  0.3128
 5744TIP3   OH238790   2.966   5.188   5.902 -0.6080 -0.4379 -0.1385
 5744TIP3    H138791   2.894   5.251   5.901  0.3210  0.8108  2.1249
 5744TIP3    H238792   2.970   5.155   5.813 -1.9282  1.8332 -1.1500
 5745TIP3   OH238793   2.399   0.883   6.757 -0.9607 -0.6135  0.0026
 5745TIP3    H138794   2.403   0.836   6.674  2.8645  0.0348 -0.3793
 5745TIP3    H238795   2.383   0.975   6.733 -2.8653 -0.8238  0.3077
 5746TIP3   OH238796   6.727   5.357   6.582  0.1356  0.1821  0.2624
 5746TIP3    H138797   6.815   5.329   6.604 -0.2253 -0.0782  1.4643
 5746TIP3    H238798   6.716   5.441   6.626 -1.1817 -1.1291  2.6979
 5747TIP3   OH238799   6.004   2.383   2.304 -0.7168  0.0834 -0.1230
 5747TIP3    H138800   5.969   2.294   2.313 -1.2628  0.3973  0.9746
 5747TIP3    H238801   6.099   2.372   2.316 -0.7145 -0.4150 -0.5364
 5748TIP3   OH238802   4.422   3.430   1.881  0.2763  0.1396 -0.2065
 5748TIP3    H138803   4.386   3.510   1.844  0.0709 -1.0655 -2.8237
 5748TIP3    H238804   4.378   3.420   1.965 -1.0539  1.7819 -0.6689
 5749TIP3   OH238805   4.929   3.584   0.174 -0.1438 -0.0556  0.0347
 5749TIP3    H138806   4.926   3.631   0.257 -0.7973 -0.5552  0.2990
 5749TIP3    H238807   4.951   3.494   0.197  1.1768  0.1056 -0.4784
 5750TIP3   OH238808   1.895   4.431   7.385 -0.0542 -0.4139  0.1095
 5750TIP3    H138809   1.829   4.425   7.317 -0.8555  0.5358  0.7669
 5750TIP3    H238810   1.973   4.463   7.340  0.1816 -2.1482 -0.7869
 5751TIP3   OH238811   1.556   0.632   6.760  0.4536 -0.1043 -0.2905
 5751TIP3    H138812   1.502   0.710   6.771 -0.5199 -0.8109  0.1348
 5751TIP3    H238813   1.549   0.612   6.666  1.5935  0.9113 -0.6192
 5752TIP3   OH238814   4.602   0.183   1.166 -0.2717  0.3704 -0.4401
 5752TIP3    H138815   4.522   0.194   1.217 -0.7707  0.0111 -1.1273
 5752TIP3    H238816   4.615   0.266   1.122  0.3034  0.7687  0.4580
 5753TIP3   OH238817   4.051   0.983   7.313 -0.0864  0.2110  0.0702
 5753TIP3    H138818   4.143   1.006   7.303  0.2093 -0.7151  0.5497
 5753TIP3    H238819   4.003   1.054   7.269  0.8713  0.3293 -0.8053
 5754TIP3   OH238820   0.444   1.518   7.553  0.2672  0.0736  0.2165
 5754TIP3    H138821   0.455   1.446   7.615 -0.2197  0.1307  0.3705
 5754TIP3    H238822   0.434   1.476   7.468  3.1734  0.0257 -0.2098
 5755TIP3   OH238823   1.871   3.515   5.983 -0.4799 -0.1836 -0.1663
 5755TIP3    H138824   1.794   3.524   5.927  0.3337  2.0652 -1.0479
 5755TIP3    H238825   1.946   3.523   5.923  0.4419 -0.4305  0.9068
 5756TIP3   OH238826   6.572   0.473   1.866 -0.5061 -0.4410 -0.4343
 5756TIP3    H138827   6.484   0.490   1.832 -0.5583  0.6712  0.2162
 5756TIP3    H238828   6.619   0.556   1.853 -0.1710 -0.3699  1.0655
 5757TIP3   OH238829   2.505   6.884   7.430  0.5595 -0.1088 -0.6762
 5757TIP3    H138830   2.570   6.861   7.364 -0.4878 -2.9090 -0.8544
 5757TIP3    H238831   2.504   6.810   7.491  0.0894  1.4985  1.4166
 5758TIP3   OH238832   1.663   2.285   0.532 -0.2168 -0.2723 -0.6122
 5758TIP3    H138833   1.615   2.221   0.478  0.8358 -0.0678 -1.8599
 5758TIP3    H238834   1.749   2.245   0.544 -0.0910  0.1825  0.0088
 5759TIP3   OH238835   2.323   2.988   0.434  0.9446 -0.1930  0.3871
 5759TIP3    H138836   2.401   3.007   0.487  2.1203 -1.0648 -0.9265
 5759TIP3    H238837   2.299   2.899   0.459  1.2215 -0.4321 -0.1659
 5760TIP3   OH238838   0.319   3.305   0.178  0.2233 -0.5373  0.1295
 5760TIP3    H138839   0.237   3.256   0.170  0.0913 -0.2070 -0.6887
 5760TIP3    H238840   0.384   3.251   0.133 -0.0818  0.3642 -1.4552
 5761TIP3   OH238841   1.236   0.276   2.018  0.3530 -0.5349  0.5803
 5761TIP3    H138842   1.258   0.232   1.936  0.1686 -0.7217  0.6297
 5761TIP3    H238843   1.140   0.282   2.017  0.4620  1.8146 -0.4440
 5762TIP3   OH238844   5.167   1.339   1.080 -0.1028 -0.2767  0.0867
 5762TIP3    H138845   5.113   1.261   1.079 -0.3489 -0.1010 -0.3844
 5762TIP3    H238846   5.254   1.308   1.054 -0.6993 -0.0347 -2.3736
 5763TIP3   OH238847   3.483   5.453   1.478  0.0113 -0.0215  0.6068
 5763TIP3    H138848   3.485   5.493   1.565  1.4946 -0.2739  0.7190
 5763TIP3    H238849   3.455   5.362   1.495 -2.2932  0.5991  0.4732
 5764TIP3   OH238850   6.779   5.066   6.253  0.1830 -0.0894 -0.1945
 5764TIP3    H138851   6.842   5.038   6.187  0.1319 -3.6929  1.0725
 5764TIP3    H238852   6.814   5.149   6.286  0.9469  1.1252 -3.6089
 5765TIP3   OH238853   5.643   2.571   1.394 -0.4648 -0.0273  0.1158
 5765TIP3    H138854   5.702   2.634   1.353 -0.7442 -0.6049 -1.2296
 5765TIP3    H238855   5.636   2.601   1.485  0.6090  0.9793 -0.1017
 5766TIP3   OH238856   0.463   2.286   1.655 -0.0021 -0.6411  0.1195
 5766TIP3    H138857   0.462   2.289   1.751  0.6770  1.2957  0.1035
 5766TIP3    H238858   0.415   2.206   1.633  1.1241 -1.9431  2.0949
 5767TIP3   OH238859   2.360   2.196   7.423 -0.4502  0.1505  0.2210
 5767TIP3    H138860   2.361   2.203   7.328 -3.1602  1.2696  0.1933
 5767TIP3    H238861   2.444   2.233   7.451  0.3325 -0.0778 -1.6830
 5768TIP3   OH238862   5.847   4.669   0.823 -0.2120  0.5790  0.1692
 5768TIP3    H138863   5.813   4.579   0.823  1.3622 -0.0461  0.3823
 5768TIP3    H238864   5.940   4.659   0.842 -0.0817  2.2971  0.5485
 5769TIP3   OH238865   2.441   2.208   1.543  0.7160  0.6268 -0.1097
 5769TIP3    H138866   2.441   2.304   1.551 -1.4009  0.7164 -0.6163
 5769TIP3    H238867   2.419   2.177   1.631  1.7062  0.5684  0.1297
 5770TIP3   OH238868   6.754   1.041   6.064 -0.3479  0.0254  0.4647
 5770TIP3    H138869   6.667   1.079   6.063  0.0915  1.0613  0.3638
 5770TIP3    H238870   6.740   0.947   6.081 -1.4597  0.1941  0.5026
 5771TIP3   OH238871   4.812   6.864   0.156 -0.1149 -0.0493  0.4197
 5771TIP3    H138872   4.835   6.914   0.078  0.0028 -0.6126  0.0833
 5771TIP3    H238873   4.731   6.905   0.187  0.4628  0.9108  0.6790
 5772TIP3   OH238874   0.221   4.806   6.752 -0.1553  0.0278  0.7272
 5772TIP3    H138875   0.216   4.867   6.678  2.7181 -2.5235 -1.8221
 5772TIP3    H238876   0.250   4.861   6.826  0.8355  2.0124 -1.0222
 5773TIP3   OH238877   5.572   6.171   7.332  0.0436  0.0006  0.8717
 5773TIP3    H138878   5.657   6.128   7.326 -0.2418 -0.3977 -0.8178
 5773TIP3    H238879   5.588   6.260   7.302 -0.5733 -0.8132 -2.2723
 5774TIP3   OH238880   2.880   4.769   0.781  0.3428  0.3264 -0.1419
 5774TIP3    H138881   2.910   4.765   0.872  0.0676  2.4926  0.0745
 5774TIP3    H238882   2.960   4.753   0.730  0.9384  1.2227  0.4753
 5775TIP3   OH238883   0.110   3.071   0.798  0.4074 -0.5905  0.5398
 5775TIP3    H138884   0.093   3.109   0.885 -0.2522 -1.3049  0.7264
 5775TIP3    H238885   0.092   2.978   0.809 -0.0582 -0.6248 -0.4744
 5776TIP3   OH238886   4.039   1.065   6.192 -0.3029  0.7342 -0.5099
 5776TIP3    H138887   4.008   1.137   6.247 -0.6763  0.3418 -0.1994
 5776TIP3    H238888   4.132   1.083   6.179 -0.1798  0.7676  0.3574
 5777TIP3   OH238889   5.000   0.636   7.260 -0.1550 -0.3908  0.7840
 5777TIP3    H138890   5.011   0.563   7.321 -0.6090  0.5776  2.0748
 5777TIP3    H238891   5.089   0.666   7.242 -0.0601 -0.0547  1.7762
 5778TIP3   OH238892   4.816   6.124   0.745 -0.1831  0.0071 -0.5493
 5778TIP3    H138893   4.831   6.103   0.838 -0.6811  1.1175 -0.2040
 5778TIP3    H238894   4.824   6.039   0.700 -2.0523 -0.9396  0.7698
 5779TIP3   OH238895   1.195   2.724   6.712 -0.0771  0.0648 -0.4394
 5779TIP3    H138896   1.103   2.736   6.688  0.3660  0.3959 -2.1293
 5779TIP3    H238897   1.216   2.801   6.765 -0.6176  0.2749 -0.5264
 5780TIP3   OH238898   3.955   6.553   2.184  1.2056  0.3872 -0.0677
 5780TIP3    H138899   3.982   6.636   2.146  1.9987 -0.7054 -2.0396
 5780TIP3    H238900   4.017   6.537   2.255  2.4651  0.4432 -1.1240
 5781TIP3   OH238901   6.493   2.792   1.624 -0.1403 -0.4025 -0.3763
 5781TIP3    H138902   6.475   2.877   1.665  0.3199 -0.7911  0.6642
 5781TIP3    H238903   6.519   2.813   1.534  2.0293  0.7414  0.4556
 5782TIP3   OH238904   2.584   4.170   6.574 -0.6304  0.3634  0.6339
 5782TIP3    H138905   2.618   4.089   6.611 -1.8962 -0.3740  0.2671
 5782TIP3    H238906   2.608   4.238   6.637  1.4015 -0.0916  0.4106
 5783TIP3   OH238907   1.205   4.575   0.290  0.0955 -0.9621  0.7856
 5783TIP3    H138908   1.213   4.664   0.324  0.0985 -0.6368 -0.0413
 5783TIP3    H238909   1.164   4.586   0.204  1.1729 -1.6499  0.1593
 5784TIP3   OH238910   4.127   6.308   1.288  0.2955  0.4672 -0.3797
 5784TIP3    H138911   4.210   6.297   1.335 -0.3615  1.8011  1.1628
 5784TIP3    H238912   4.102   6.398   1.304 -1.8502 -0.1221 -0.1526
 5785TIP3   OH238913   6.131   4.455   0.556 -1.4225 -0.1734  0.3962
 5785TIP3    H138914   6.190   4.418   0.622  0.7105 -0.8123 -1.7227
 5785TIP3    H238915   6.078   4.380   0.527  1.9765 -1.6737 -2.9251
 5786TIP3   OH238916   3.830   2.024   0.267 -0.0242 -0.1559  0.0181
 5786TIP3    H138917   3.842   1.949   0.210 -1.5177 -1.0879  0.8759
 5786TIP3    H238918   3.890   2.007   0.341  0.9644  0.4240 -0.6203
 5787TIP3   OH238919   5.277   3.933   0.674 -0.4557 -0.1517 -0.2340
 5787TIP3    H138920   5.250   3.855   0.723 -1.8972 -0.1812 -1.0198
 5787TIP3    H238921   5.349   3.970   0.726 -1.2861 -0.7009  1.3802
 5788TIP3   OH238922   0.870   3.951   6.581  0.1820  0.3532 -0.6755
 5788TIP3    H138923   0.915   3.966   6.497 -0.7899  0.7776 -1.1402
 5788TIP3    H238924   0.858   3.857   6.584  0.2322  0.3312 -1.0146
 5789TIP3   OH238925   3.510   2.749   7.791 -0.0361  0.5050  0.3033
 5789TIP3    H138926   3.528   2.839   7.763  0.9176  0.1552 -0.2458
 5789TIP3    H238927   3.434   2.722   7.739  0.2498  0.6777 -0.2030
 5790TIP3   OH238928   3.030   5.336   7.021  0.8524 -0.3101 -0.5539
 5790TIP3    H138929   3.071   5.381   7.095 -1.7835 -0.2337  0.9712
 5790TIP3    H238930   3.018   5.404   6.956  2.1147 -0.1174 -0.6150
 5791TIP3   OH238931   0.586   1.734   7.693 -0.2669 -0.3765  0.2247
 5791TIP3    H138932   0.669   1.700   7.726  0.2876  2.4370  2.0785
 5791TIP3    H238933   0.545   1.660   7.648  2.4874 -2.2837  0.6580
 5792TIP3   OH238934   4.161   5.788   6.237 -0.1747 -0.2128  0.0781
 5792TIP3    H138935   4.239   5.834   6.206  0.1912 -1.3719 -0.8403
 5792TIP3    H238936   4.095   5.807   6.171 -1.3539  2.3742  1.8365
 5793TIP3   OH238937   3.236   2.696   8.206 -0.2220  0.3155  0.4567
 5793TIP3    H138938   3.292   2.620   8.220  0.6116  0.8764  0.3260
 5793TIP3    H238939   3.179   2.699   8.282  0.1012 -0.1326  0.7211
 5794TIP3   OH238940   5.527   3.442   0.148 -0.0703  0.1313  0.0411
 5794TIP3    H138941   5.435   3.452   0.124 -0.1676 -2.8317 -1.3579
 5794TIP3    H238942   5.575   3.482   0.075 -0.3154 -0.7657 -0.6348
 5795TIP3   OH238943   0.505   1.270   0.980 -0.8319 -0.1607 -0.3675
 5795TIP3    H138944   0.509   1.262   1.075  0.7774 -0.4698 -0.4170
 5795TIP3    H238945   0.468   1.356   0.964 -1.3246 -0.1935  0.5312
 5796TIP3   OH238946   5.639   4.819   0.247 -0.3031 -0.1702  0.1034
 5796TIP3    H138947   5.597   4.827   0.333  0.7741  0.7218  0.5743
 5796TIP3    H238948   5.571   4.785   0.190 -0.6250 -2.3662  1.6581
 5797TIP3   OH238949   4.455   0.308   6.082 -0.1152 -0.5008  0.4199
 5797TIP3    H138950   4.484   0.253   6.009  0.1406 -1.4002  1.1850
 5797TIP3    H238951   4.492   0.395   6.063  0.6765 -0.9364 -0.0796
 5798TIP3   OH238952   0.584   6.258   8.028  0.1715  0.7218 -0.2261
 5798TIP3    H138953   0.508   6.239   7.972  0.2944 -1.3583  0.2225
 5798TIP3    H238954   0.612   6.172   8.060  1.6386  1.6205  1.0433
 5799TIP3   OH238955   3.385   6.502   6.177 -0.1133 -0.4997  0.0326
 5799TIP3    H138956   3.435   6.549   6.110  2.0259 -2.5998  0.0138
 5799TIP3    H238957   3.312   6.462   6.129 -1.0492  1.4078 -0.2173
 5800TIP3   OH238958   6.691   0.633   6.553  0.1359 -0.1322  0.0206
 5800TIP3    H138959   6.704   0.634   6.458  0.4365  1.1870  0.0564
 5800TIP3    H238960   6.762   0.686   6.588 -1.2209  1.2713  0.7935
 5801TIP3   OH238961   5.437   1.604   1.936 -0.0153 -0.2474 -0.3535
 5801TIP3    H138962   5.515   1.547   1.930 -0.5770 -1.5707  2.9630
 5801TIP3    H238963   5.364   1.543   1.941 -0.7963  0.7711  1.5667
 5802TIP3   OH238964   0.820   6.926   0.688  0.1849 -0.0559 -0.0658
 5802TIP3    H138965   0.740   6.932   0.741  0.4924  0.5677  0.3448
 5802TIP3    H238966   0.855   6.839   0.707 -0.0532 -0.0851  0.2524
 5803TIP3   OH238967   6.760   6.219   7.497 -0.8861 -0.3130 -0.2676
 5803TIP3    H138968   6.744   6.313   7.510 -1.2918 -0.5724  1.2286
 5803TIP3    H238969   6.780   6.186   7.584  0.9852 -1.3181 -1.0125
 5804TIP3   OH238970   2.048   0.264   6.880  0.4798  0.0862  0.4171
 5804TIP3    H138971   1.997   0.327   6.830 -0.2266 -1.7397 -1.3002
 5804TIP3    H238972   2.139   0.294   6.872  0.0338  1.6129  0.8237
 5805TIP3   OH238973   5.235   6.558   0.156 -0.3830 -0.4786  0.4747
 5805TIP3    H138974   5.212   6.474   0.196 -0.7014  0.0853  1.4951
 5805TIP3    H238975   5.185   6.623   0.205 -0.6604  0.2595 -0.7360
 5806TIP3   OH238976   3.735   5.104   1.467  0.2344 -0.6428 -0.7001
 5806TIP3    H138977   3.814   5.058   1.439  1.0046  1.1719 -1.5913
 5806TIP3    H238978   3.752   5.130   1.557  0.2224 -1.1335 -0.5520
 5807TIP3   OH238979   1.073   1.174   7.791  0.0378 -0.2997  0.9081
 5807TIP3    H138980   1.152   1.182   7.738  0.9038 -1.5394  1.9490
 5807TIP3    H238981   1.001   1.173   7.727  0.9945 -1.0286 -0.1931
 5808TIP3   OH238982   6.127   6.434   7.026 -0.1965 -0.1543  0.2714
 5808TIP3    H138983   6.098   6.441   7.117  1.2523 -0.3087  0.7654
 5808TIP3    H238984   6.161   6.344   7.019  0.8347  0.2483 -0.0653
 5809TIP3   OH238985   1.362   2.363   8.140  0.3592 -0.0947  0.2815
 5809TIP3    H138986   1.447   2.353   8.182  0.4798  0.1294  0.0894
 5809TIP3    H238987   1.321   2.277   8.148  0.4731 -0.1157  0.6601
 5810TIP3   OH238988   3.407   3.218   7.818  0.6670 -0.3699  0.1873
 5810TIP3    H138989   3.349   3.266   7.759  1.3072 -1.1226 -1.0939
 5810TIP3    H238990   3.360   3.217   7.901 -0.2543  0.7339 -0.2844
 5811TIP3   OH238991   6.969   6.543   7.515  0.2285  0.3407 -0.1966
 5811TIP3    H138992   7.051   6.590   7.522  1.5386 -1.8651  0.2353
 5811TIP3    H238993   6.925   6.558   7.599  0.0134  1.7533 -0.5353
 5812TIP3   OH238994   4.638   5.216   6.866 -0.2631 -0.0661  0.2426
 5812TIP3    H138995   4.665   5.150   6.801 -1.2648  0.4416 -0.7295
 5812TIP3    H238996   4.559   5.256   6.828 -0.9582  0.1701  1.8394
 5813TIP3   OH238997   2.259   1.433   7.367 -0.2539 -0.4338 -0.6025
 5813TIP3    H138998   2.282   1.342   7.348 -0.5429 -0.9384  1.2126
 5813TIP3    H238999   2.290   1.482   7.291  6.9973 -0.9246  1.2790
 5814TIP3   OH239000   0.646   3.555   0.811 -0.1594  0.3366  0.2229
 5814TIP3    H139001   0.555   3.548   0.840 -0.4049 -0.7938 -0.7592
 5814TIP3    H239002   0.665   3.471   0.770  0.5852  1.3925 -1.7141
 5815TIP3   OH239003   6.950   0.689   7.782  0.0954  0.1584  0.4709
 5815TIP3    H139004   6.926   0.765   7.730 -1.0934 -0.5001  0.0115
 5815TIP3    H239005   7.045   0.680   7.769 -0.2582 -0.5342 -2.4026
 5816TIP3   OH239006   3.243   6.688   7.164 -0.6090 -0.1128 -0.1282
 5816TIP3    H139007   3.178   6.657   7.227 -1.1676  0.9480 -0.1636
 5816TIP3    H239008   3.207   6.769   7.129  1.2021  1.0823  0.6155
 5817TIP3   OH239009   5.076   5.063   7.919 -0.0446  0.4222  0.3039
 5817TIP3    H139010   5.059   4.994   7.855  0.1390  0.5363  0.1310
 5817TIP3    H239011   5.167   5.089   7.903  0.2266 -0.0329  1.0768
 5818TIP3   OH239012   5.915   4.158   8.171 -0.3451 -0.3714 -0.6338
 5818TIP3    H139013   5.921   4.252   8.183  1.7205 -0.5790  0.2081
 5818TIP3    H239014   5.841   4.131   8.225  0.0892  0.5609  0.4360
 5819TIP3   OH239015   5.439   6.919   8.265 -0.1128  0.6317 -0.3393
 5819TIP3    H139016   5.419   7.009   8.291  1.7020  0.7570  0.8781
 5819TIP3    H239017   5.489   6.884   8.339  0.0255 -1.0671 -1.1930
 5820TIP3   OH239018   3.484   1.004   1.635 -0.4566  0.0922  0.9743
 5820TIP3    H139019   3.444   0.953   1.564 -0.9720 -0.4219  1.6120
 5820TIP3    H239020   3.510   1.086   1.594 -1.8001  0.2799  0.4272
 5821TIP3   OH239021   6.836   1.839   8.006 -0.3958  0.8263  0.2368
 5821TIP3    H139022   6.876   1.889   8.078  1.3759  1.3202 -1.0287
 5821TIP3    H239023   6.871   1.751   8.017 -0.0829  0.9144 -0.0277
 5822TIP3   OH239024   5.670   0.475   0.300 -0.0420  0.5138  0.3507
 5822TIP3    H139025   5.759   0.442   0.311 -0.3164 -0.2522  0.3673
 5822TIP3    H239026   5.628   0.458   0.384 -0.2557  0.7022  0.2816
 5823TIP3   OH239027   2.695   2.164   6.777 -0.1166 -0.1948 -0.0946
 5823TIP3    H139028   2.601   2.154   6.758 -0.1601  1.6871 -1.0926
 5823TIP3    H239029   2.721   2.241   6.727  1.4159  0.8037  2.0994
 5824TIP3   OH239030   4.534   0.199   0.013 -0.0463  0.5823  0.6217
 5824TIP3    H139031   4.608   0.221  -0.044  1.5102 -0.3260  2.1730
 5824TIP3    H239032   4.465   0.170  -0.046  1.6494 -0.7543 -0.8036
 5825TIP3   OH239033   6.415   6.102   7.389  0.7284  0.4844 -0.1007
 5825TIP3    H139034   6.437   6.187   7.427  1.1046 -0.2055  1.2904
 5825TIP3    H239035   6.393   6.121   7.297 -0.7484  2.2892  0.5684
 5826TIP3   OH239036   6.318   2.635   6.181 -0.3633 -0.4559 -0.2444
 5826TIP3    H139037   6.253   2.700   6.154 -1.1988 -1.2360 -0.1507
 5826TIP3    H239038   6.300   2.558   6.127  0.2145 -0.8296  0.0786
 5827TIP3   OH239039   4.546   1.054   7.911  0.4088  0.3194 -0.1169
 5827TIP3    H139040   4.495   0.975   7.897 -0.1144  0.4456  1.0181
 5827TIP3    H239041   4.589   1.070   7.826  0.5875 -1.2037 -0.3322
 5828TIP3   OH239042   6.897   3.561   8.054  0.9521  0.5712 -0.2030
 5828TIP3    H139043   6.873   3.522   8.138  0.0494 -0.8334 -1.0764
 5828TIP3    H239044   6.925   3.650   8.076 -1.8455  1.1843  1.3068
 5829TIP3   OH239045   0.281   2.223   0.749 -0.2903 -0.4484  0.3063
 5829TIP3    H139046   0.342   2.265   0.809 -0.0500 -1.3272  0.6749
 5829TIP3    H239047   0.272   2.286   0.677 -0.4401  0.5359  1.1562
 5830TIP3   OH239048   6.773   6.045   1.314 -0.1840 -0.1398 -0.5202
 5830TIP3    H139049   6.804   6.007   1.396  0.5831  0.6042 -0.4575
 5830TIP3    H239050   6.849   6.088   1.276 -1.1278  1.9785 -0.2171
 5831TIP3   OH239051   1.202   1.899   7.347  0.0657 -1.1002  0.0198
 5831TIP3    H139052   1.229   1.807   7.345  0.4814 -1.1454  2.8374
 5831TIP3    H239053   1.254   1.941   7.279  0.8364 -2.7210 -0.4526
 5832TIP3   OH239054   4.914   2.723   1.151 -0.3364  0.2896 -0.1923
 5832TIP3    H139055   4.932   2.711   1.057  2.3008 -2.0952  0.4773
 5832TIP3    H239056   4.847   2.658   1.171  1.4003 -1.5313  0.0758
 5833TIP3   OH239057   0.168   5.737   2.097  0.1339 -0.1001 -0.2552
 5833TIP3    H139058   0.104   5.727   2.027  0.7161  0.8244 -0.9373
 5833TIP3    H239059   0.233   5.669   2.079  1.0559  1.0586 -1.5077
 5834TIP3   OH239060   1.622   1.930   0.701 -0.6572 -0.0176 -0.2346
 5834TIP3    H139061   1.550   1.925   0.638 -0.8046 -1.1086  0.0031
 5834TIP3    H239062   1.701   1.926   0.648 -0.7799  0.0720 -0.4235
 5835TIP3   OH239063   2.644   0.839   0.878 -0.2016  0.1373 -0.4425
 5835TIP3    H139064   2.711   0.787   0.923  0.7339  1.0741 -0.7186
 5835TIP3    H239065   2.640   0.920   0.929 -1.1220  0.0984 -0.4482
 5836TIP3   OH239066   7.011   1.598   1.427  0.6884  0.4137  0.2529
 5836TIP3    H139067   7.016   1.650   1.507  2.0960 -0.2147  0.6021
 5836TIP3    H239068   6.978   1.513   1.455 -0.1149  0.6132 -0.0644
 5837TIP3   OH239069   4.808   0.342   6.789 -0.4325  0.4287  0.2817
 5837TIP3    H139070   4.787   0.289   6.866  0.0358  0.9474  0.7705
 5837TIP3    H239071   4.830   0.278   6.722 -2.1160 -0.0860  0.1769
 5838TIP3   OH239072   3.793   6.992   1.304  0.0131 -0.6676 -0.2972
 5838TIP3    H139073   3.871   6.947   1.273 -0.4143 -2.1442  0.6897
 5838TIP3    H239074   3.762   7.041   1.227  0.8248 -1.5901 -1.2452
 5839TIP3   OH239075   1.863   6.055   1.360  1.0539 -1.0543 -0.2143
 5839TIP3    H139076   1.827   6.067   1.448 -0.0604 -1.2359 -0.6293
 5839TIP3    H239077   1.855   5.961   1.343 -1.3154 -0.6949 -1.5339
 5840TIP3   OH239078   6.209   5.463   0.979 -0.2038  0.0528  0.0042
 5840TIP3    H139079   6.302   5.442   0.989  0.1526  0.8745 -1.3122
 5840TIP3    H239080   6.165   5.379   0.977  0.5951 -0.3736 -0.0169
 5841TIP3   OH239081   4.330   1.139   1.212  0.5066  0.4954  0.6838
 5841TIP3    H139082   4.352   1.115   1.122 -0.6742  0.8639  0.2673
 5841TIP3    H239083   4.364   1.067   1.265  0.6090 -0.0769 -0.1347
 5842TIP3   OH239084   5.906   5.663   7.962  0.2225  0.1266 -0.0978
 5842TIP3    H139085   5.955   5.717   7.899 -1.2344  0.7930 -0.7003
 5842TIP3    H239086   5.828   5.715   7.983 -0.3008 -0.9598  0.7395
 5843TIP3   OH239087   6.338   3.838   1.292 -0.0381 -0.2548 -0.7668
 5843TIP3    H139088   6.303   3.790   1.367 -0.6297  0.7047 -0.4161
 5843TIP3    H239089   6.322   3.930   1.312  0.1576  0.0406 -1.8844
 5844TIP3   OH239090   3.771   1.955   1.257  0.4352 -0.4041  0.3564
 5844TIP3    H139091   3.696   1.914   1.301  0.2019 -0.6983 -0.3021
 5844TIP3    H239092   3.828   1.983   1.329  0.2143 -1.1634  0.8447
 5845TIP3   OH239093   4.493   2.099   7.009 -0.3523  0.0504 -0.5223
 5845TIP3    H139094   4.521   2.163   6.943  1.4176 -0.8742 -0.7388
 5845TIP3    H239095   4.463   2.024   6.958  0.8020 -0.5775 -0.3089
 5846TIP3   OH239096   2.125   2.167   1.276 -0.3056 -0.4349  0.0780
 5846TIP3    H139097   2.166   2.246   1.312 -0.8849 -0.4930  0.9035
 5846TIP3    H239098   2.078   2.129   1.350  1.7960 -2.8123  0.3064
 5847TIP3   OH239099   6.095   0.825   7.299  0.3017 -0.2525  0.2514
 5847TIP3    H139100   6.043   0.804   7.222  0.3634 -0.7497  0.3445
 5847TIP3    H239101   6.174   0.772   7.290 -0.5966 -1.9623  1.7009
 5848TIP3   OH239102   6.544   3.992   0.857  0.1117 -0.1317  0.9929
 5848TIP3    H139103   6.586   3.991   0.943  0.5413 -1.0848  0.7806
 5848TIP3    H239104   6.595   3.930   0.804  1.3132  2.1395 -0.6660
 5849TIP3   OH239105   4.078   4.583   1.755 -0.2454 -0.1171  0.1352
 5849TIP3    H139106   4.152   4.523   1.744  1.2868  1.9537 -1.8067
 5849TIP3    H239107   4.021   4.564   1.680 -0.5606 -0.1962  0.3942
 5850TIP3   OH239108   4.242   0.844   1.071 -0.4770 -0.0837 -0.1603
 5850TIP3    H139109   4.238   0.806   0.984 -0.0362  0.0680 -0.2488
 5850TIP3    H239110   4.331   0.826   1.102 -0.1822  1.0408 -0.2897
 5851TIP3   OH239111   0.137   3.006   1.773  0.3910 -0.4358 -0.0836
 5851TIP3    H139112   0.214   3.024   1.719  0.0703 -0.1102 -0.4370
 5851TIP3    H239113   0.171   2.954   1.846  0.9611 -0.2255 -0.1916
 5852TIP3   OH239114   1.403   0.979   6.709  0.9709 -0.0289 -0.4726
 5852TIP3    H139115   1.496   0.974   6.731  1.5441  1.2329 -2.3608
 5852TIP3    H239116   1.400   1.036   6.632 -1.3284 -0.4303 -0.7385
 5853TIP3   OH239117   2.578   4.138   7.727 -0.5859  0.3464  0.0188
 5853TIP3    H139118   2.619   4.149   7.642 -1.9633 -0.2875 -0.7494
 5853TIP3    H239119   2.517   4.065   7.716  1.5894 -2.0777  2.4308
 5854TIP3   OH239120   4.264   3.735   6.300  0.1023 -0.3559 -0.0512
 5854TIP3    H139121   4.284   3.645   6.275 -0.0189 -0.8028  1.3888
 5854TIP3    H239122   4.168   3.740   6.298  0.1152 -0.1876 -0.3448
 5855TIP3   OH239123   6.837   3.734   1.877 -0.3370  0.5798 -0.1017
 5855TIP3    H139124   6.847   3.812   1.823 -0.0561  2.0213  1.9124
 5855TIP3    H239125   6.749   3.743   1.916 -0.7903 -0.7493 -0.7556
 5856TIP3   OH239126   2.972   6.416   6.710 -0.3944  0.3997  0.5053
 5856TIP3    H139127   2.946   6.426   6.802 -0.6070 -0.3476  0.5366
 5856TIP3    H239128   3.036   6.485   6.695 -0.4908  0.6376  1.1667
 5857TIP3   OH239129   0.307   5.027   0.784 -0.3057  0.2027  0.5628
 5857TIP3    H139130   0.358   4.989   0.856  0.0289 -1.8497 -0.6957
 5857TIP3    H239131   0.248   5.090   0.827  1.6235  0.9364  2.3222
 5858TIP3   OH239132   1.931   3.006   1.186  0.8586  0.1757 -0.9380
 5858TIP3    H139133   1.933   2.941   1.117 -0.5074 -0.2867 -0.5931
 5858TIP3    H239134   1.919   2.955   1.267  0.1631  0.8068 -0.6245
 5859TIP3   OH239135   5.582   0.531   6.649  0.0194 -0.4820  0.4138
 5859TIP3    H139136   5.518   0.490   6.591 -0.7410  0.7222  0.3460
 5859TIP3    H239137   5.574   0.483   6.731 -1.3822 -0.0338  0.5731
 5860TIP3   OH239138   3.113   3.548   1.453  0.2097 -0.1077 -0.2100
 5860TIP3    H139139   3.131   3.642   1.452 -1.2709  0.2053 -0.6848
 5860TIP3    H239140   3.190   3.508   1.413  1.6142  0.7320  1.5366
 5861TIP3   OH239141   4.925   2.906   1.344 -0.3050  0.1642 -0.1841
 5861TIP3    H139142   4.873   2.841   1.296  0.0641  0.0615 -0.4568
 5861TIP3    H239143   4.997   2.927   1.284 -0.1116  0.4051  0.1312
 5862TIP3   OH239144   2.817   5.282   8.101  0.5874 -0.1536  0.0258
 5862TIP3    H139145   2.855   5.242   8.179  1.1369 -1.4080 -0.8283
 5862TIP3    H239146   2.780   5.208   8.052 -0.9506  0.7727 -0.2646
 5863TIP3   OH239147   4.358   3.823   0.768  0.3013  0.4689  0.0196
 5863TIP3    H139148   4.318   3.835   0.854  0.1052 -1.9298  0.3266
 5863TIP3    H239149   4.420   3.751   0.780  2.1210  1.7095 -1.3030
 5864TIP3   OH239150   0.400   5.343   1.534 -0.4353 -0.2784 -0.0040
 5864TIP3    H139151   0.388   5.403   1.608 -1.0462 -1.6444  1.0555
 5864TIP3    H239152   0.434   5.262   1.574  0.5291 -0.6027 -1.4066
 5865TIP3   OH239153   6.351   4.754   0.559 -0.7578 -0.0731 -0.1805
 5865TIP3    H139154   6.379   4.820   0.622 -0.6652 -1.0935  0.8873
 5865TIP3    H239155   6.419   4.687   0.562 -2.2836 -1.6807  1.0424
 5866TIP3   OH239156   0.106   2.797   8.033  0.2527 -0.0292 -0.0553
 5866TIP3    H139157   0.134   2.859   7.966  1.0956  0.0302  0.3325
 5866TIP3    H239158   0.120   2.711   7.993  0.3536  0.0146 -0.1156
 5867TIP3   OH239159   4.316   6.508   0.145 -0.2320  0.4485  0.6261
 5867TIP3    H139160   4.366   6.537   0.068  0.0266  2.0420  1.3693
 5867TIP3    H239161   4.374   6.447   0.189  0.7892  1.7044  1.0692
 5868TIP3   OH239162   1.421   4.151   7.067 -0.0907  0.7272 -0.4437
 5868TIP3    H139163   1.392   4.197   6.989 -0.9180  2.6749  0.9286
 5868TIP3    H239164   1.515   4.167   7.071 -0.2334  1.5723 -0.4446
 5869TIP3   OH239165   0.132   2.249   1.871  0.2930  0.0647 -0.0569
 5869TIP3    H139166   0.105   2.160   1.889 -0.7718  0.5857  1.0187
 5869TIP3    H239167   0.090   2.271   1.788 -2.0506  0.5846  1.1881
 5870TIP3   OH239168   6.350   1.464   1.576 -0.0363 -0.1855  0.5779
 5870TIP3    H139169   6.258   1.452   1.599 -0.1931 -0.6328 -0.2437
 5870TIP3    H239170   6.348   1.520   1.498  0.3554 -0.5773  0.2813
 5871TIP3   OH239171   6.634   6.781   6.672 -0.5490 -0.0742 -0.3038
 5871TIP3    H139172   6.700   6.721   6.706  0.4533  1.1518 -0.0233
 5871TIP3    H239173   6.644   6.778   6.577  0.5646  0.7950 -0.2299
 5872TIP3   OH239174   3.290   1.049   8.089 -0.2825 -0.1561 -0.6156
 5872TIP3    H139175   3.292   1.021   7.997 -0.8152  1.0459 -1.0189
 5872TIP3    H239176   3.327   0.976   8.137 -3.1822 -2.3227 -1.4065
 5873TIP3   OH239177   0.816   2.515   6.131  0.0123 -0.0514 -0.9540
 5873TIP3    H139178   0.726   2.546   6.140  0.3659  0.4563  1.7116
 5873TIP3    H239179   0.867   2.594   6.119  0.2396 -0.2179 -1.0862
 5874TIP3   OH239180   5.976   3.432   8.152  0.6126 -0.3639 -0.2418
 5874TIP3    H139181   6.030   3.353   8.144  0.3461 -0.5267 -0.4872
 5874TIP3    H239182   5.967   3.445   8.247  0.1823 -0.9723 -0.1893
 5875TIP3   OH239183   0.475   1.589   0.099  0.1830  0.0373  0.4420
 5875TIP3    H139184   0.501   1.675   0.134 -0.7191 -0.3800  2.2104
 5875TIP3    H239185   0.512   1.526   0.160  1.1157 -0.9016 -1.0261
 5876TIP3   OH239186   4.375   1.023   2.051  0.0626 -0.0124 -0.2068
 5876TIP3    H139187   4.457   1.072   2.059  0.0738 -0.2421  1.3245
 5876TIP3    H239188   4.371   0.998   1.958  1.3432  0.6380 -0.4598
 5877TIP3   OH239189   5.040   4.230   1.843 -0.1729 -0.0124  0.2053
 5877TIP3    H139190   4.945   4.241   1.846  0.0383  2.2065  0.5739
 5877TIP3    H239191   5.065   4.209   1.933 -0.2057  0.6174  0.3635
 5878TIP3   OH239192   6.082   6.637   1.121  0.6780  0.5520 -0.2608
 5878TIP3    H139193   6.013   6.672   1.177  0.0122  0.7226 -1.1835
 5878TIP3    H239194   6.070   6.679   1.036  2.3456  1.1185 -0.2673
 5879TIP3   OH239195   6.802   6.442   0.568  0.7847 -0.2524 -0.1942
 5879TIP3    H139196   6.802   6.454   0.473  0.7247 -0.4613 -0.2202
 5879TIP3    H239197   6.712   6.422   0.591  0.9892 -1.2877 -0.2340
 5880TIP3   OH239198   1.352   3.323   8.176  0.4931  0.3064 -0.3897
 5880TIP3    H139199   1.276   3.265   8.170  1.8607 -1.6217  0.1298
 5880TIP3    H239200   1.362   3.359   8.088  0.2924 -1.1861 -1.0550
 5881TIP3   OH239201   6.381   1.300   6.799 -0.0298  1.3383 -0.3788
 5881TIP3    H139202   6.474   1.292   6.781 -0.1286  1.1583 -0.8289
 5881TIP3    H239203   6.366   1.246   6.876  0.1368  0.9087 -0.6460
 5882TIP3   OH239204   4.888   3.370   6.866  0.1834 -0.9120 -0.0388
 5882TIP3    H139205   4.951   3.306   6.833 -0.6176 -0.4192 -2.7479
 5882TIP3    H239206   4.892   3.443   6.804 -0.4414  0.7511  1.7920
 5883TIP3   OH239207   2.912   6.969   0.561 -0.4004  0.3260 -0.0204
 5883TIP3    H139208   2.998   6.982   0.601 -0.2660  2.5176 -0.8981
 5883TIP3    H239209   2.851   6.971   0.635  0.2138 -0.6075  0.5427
 5884TIP3   OH239210   6.754   0.989   1.464 -0.0608  0.2589 -0.0133
 5884TIP3    H139211   6.727   1.080   1.453  1.8965  1.0145  0.9296
 5884TIP3    H239212   6.785   0.985   1.555  0.9949 -1.0382 -0.4121
 5885TIP3   OH239213   5.425   3.422   1.192 -0.2514  0.1055 -0.0150
 5885TIP3    H139214   5.497   3.482   1.212 -2.2312  2.4998  0.3923
 5885TIP3    H239215   5.453   3.378   1.111  2.0102  0.2670  0.6028
 5886TIP3   OH239216   5.455   1.799   6.531  0.1690 -0.1977  0.7114
 5886TIP3    H139217   5.500   1.799   6.447 -0.0987 -0.1856  0.5649
 5886TIP3    H239218   5.391   1.871   6.523  0.0891 -0.2493  0.8920
 5887TIP3   OH239219   5.602   5.005   6.449  0.3919 -0.0932  0.0830
 5887TIP3    H139220   5.679   5.061   6.457 -0.1273  0.5330  0.8687
 5887TIP3    H239221   5.623   4.945   6.377  1.3300  0.5071 -0.1600
 5888TIP3   OH239222   3.148   5.096   7.587 -0.2306 -0.2972  0.1204
 5888TIP3    H139223   3.111   5.124   7.671 -2.3355  0.8103 -1.0922
 5888TIP3    H239224   3.203   5.170   7.559 -0.0599 -0.3914  0.2024
 5889TIP3   OH239225   5.047   4.846   7.740 -0.1824 -0.3404 -0.2494
 5889TIP3    H139226   5.086   4.838   7.653  0.0612  1.8880 -0.4028
 5889TIP3    H239227   5.074   4.766   7.786  0.6580 -1.0115 -1.8300
 5890TIP3   OH239228   0.214   5.280   7.031 -0.1150 -0.4625 -0.9774
 5890TIP3    H139229   0.300   5.243   7.052 -0.4230 -1.2963 -1.1493
 5890TIP3    H239230   0.234   5.366   6.993  0.6200 -0.4850 -0.6636
 5891TIP3   OH239231   3.278   6.174   0.340  0.1222  0.2304  0.5003
 5891TIP3    H139232   3.307   6.245   0.397 -1.6466  0.0850  1.6769
 5891TIP3    H239233   3.321   6.096   0.377 -1.0808  0.1241  1.7401
 5892TIP3   OH239234   3.762   0.321   0.351  0.1752  0.1350  0.3038
 5892TIP3    H139235   3.786   0.381   0.422  0.4770  0.5377 -0.1282
 5892TIP3    H239236   3.845   0.281   0.324  0.4958  1.8194 -1.4611
 5893TIP3   OH239237   0.565   3.961   5.881 -0.0120 -0.7593  0.1712
 5893TIP3    H139238   0.538   3.989   5.969  1.2747 -1.2657  0.7612
 5893TIP3    H239239   0.532   3.872   5.873  1.4320 -1.4000  0.9142
 5894TIP3   OH239240   1.507   1.461   2.256 -0.0918  0.2836  0.2654
 5894TIP3    H139241   1.480   1.469   2.347 -0.0172  0.3274  0.2840
 5894TIP3    H239242   1.587   1.513   2.250 -0.4155  0.7620  0.0388
 5895TIP3   OH239243   2.213   3.251   0.941 -0.1532  0.1413  0.2972
 5895TIP3    H139244   2.159   3.309   0.887  1.0615 -0.2681 -1.4404
 5895TIP3    H239245   2.243   3.184   0.881 -0.4899 -1.6067  1.9918
 5896TIP3   OH239246   2.768   3.164   7.048 -0.3386  0.5151  0.1127
 5896TIP3    H139247   2.699   3.132   6.989  0.8504 -2.4360  0.1474
 5896TIP3    H239248   2.838   3.099   7.041  1.7191  2.4382  1.4459
 5897TIP3   OH239249   2.967   6.866   6.917  0.2300  0.0740  0.1831
 5897TIP3    H139250   2.937   6.811   6.845 -0.1149  1.1457 -0.5143
 5897TIP3    H239251   3.063   6.865   6.910  0.2057  2.1558 -1.9046
 5898TIP3   OH239252   0.909   3.137   5.724 -0.2015  0.1380  0.2373
 5898TIP3    H139253   0.936   3.217   5.678 -0.3687  0.8210  1.3046
 5898TIP3    H239254   0.991   3.088   5.737 -0.1052  0.1087 -0.4551
 5899TIP3   OH239255   1.872   1.945   6.836 -0.2571  0.0688 -0.2327
 5899TIP3    H139256   1.860   1.990   6.752 -3.3850  0.4444  0.3039
 5899TIP3    H239257   1.829   1.860   6.825  0.2750 -0.3411  0.6656
 5900TIP3   OH239258   1.334   3.625   0.398  0.0695 -0.5714 -0.1402
 5900TIP3    H139259   1.350   3.544   0.349 -0.5840 -0.2638 -0.8953
 5900TIP3    H239260   1.256   3.606   0.450  0.1298 -0.5485 -0.0428
 5901TIP3   OH239261   3.238   6.842   6.863 -0.2225  0.2461  0.4353
 5901TIP3    H139262   3.239   6.748   6.845 -1.0084  0.0319  1.4074
 5901TIP3    H239263   3.310   6.855   6.925 -1.7534 -0.2179  2.4237
 5902TIP3   OH239264   2.663   4.336   6.776  0.6747  0.2973 -0.5929
 5902TIP3    H139265   2.632   4.298   6.858 -1.3524 -1.4642 -2.0551
 5902TIP3    H239266   2.748   4.374   6.797  0.8690 -1.3771  1.9769
 5903TIP3   OH239267   1.422   2.280   7.189 -0.2474  0.4167  0.6822
 5903TIP3    H139268   1.442   2.199   7.237 -0.1823 -1.4102 -2.1872
 5903TIP3    H239269   1.507   2.318   7.170 -0.1715  0.0982  0.3730
 5904TIP3   OH239270   4.173   6.238   2.065 -0.3221  0.1188  0.3398
 5904TIP3    H139271   4.191   6.144   2.058 -0.1021  0.2117 -0.5097
 5904TIP3    H239272   4.130   6.249   2.149  0.9769 -0.5417  1.1193
 5905TIP3   OH239273   3.426   4.059   1.137 -0.0736 -0.1531 -0.3997
 5905TIP3    H139274   3.499   4.120   1.126  1.2429 -1.8720 -1.8114
 5905TIP3    H239275   3.392   4.077   1.225  2.9055 -0.1543  0.8642
 5906TIP3   OH239276   4.110   3.793   0.632 -0.3908 -0.3785 -0.3548
 5906TIP3    H139277   4.048   3.735   0.675  0.5134 -0.1356  1.3895
 5906TIP3    H239278   4.189   3.789   0.687  0.0471  1.7016 -0.7415
 5907TIP3   OH239279   5.671   0.342   2.283  0.2157  0.2860 -0.3030
 5907TIP3    H139280   5.760   0.320   2.255  0.5080  0.9447  0.0731
 5907TIP3    H239281   5.656   0.430   2.250 -0.5444 -0.0481 -0.8960
 5908TIP3   OH239282   2.595   5.860   0.541  1.0431  0.3441 -0.6189
 5908TIP3    H139283   2.576   5.814   0.459 -0.3660 -2.6771  1.2708
 5908TIP3    H239284   2.683   5.833   0.564  0.2278 -1.5595  0.4744
 5909TIP3   OH239285   2.031   5.526   1.437 -0.2886  0.2979  0.1415
 5909TIP3    H139286   2.099   5.539   1.504 -0.0904  0.4781 -0.0952
 5909TIP3    H239287   2.080   5.515   1.356 -0.5452  0.3991 -0.0253
 5910TIP3   OH239288   6.177   6.920   0.739 -0.2173  0.0366 -0.1457
 5910TIP3    H139289   6.255   6.915   0.685  0.7611  1.1367  1.0942
 5910TIP3    H239290   6.137   7.004   0.716 -0.2201  0.1524  0.2690
 5911TIP3   OH239291   5.993   2.042   7.638  0.5210 -0.1633 -0.3713
 5911TIP3    H139292   6.039   2.084   7.566  0.1441  0.5668 -0.1966
 5911TIP3    H239293   5.931   2.108   7.669  1.0430 -0.2732  0.9650
 5912TIP3   OH239294   6.202   3.682   6.352  0.4610 -0.3324  0.1746
 5912TIP3    H139295   6.145   3.720   6.285  0.7624  0.0585  0.1386
 5912TIP3    H239296   6.251   3.614   6.306 -0.0379 -0.7388  0.2264
 5913TIP3   OH239297   1.920   2.172   0.541  0.1050 -0.1734  0.1093
 5913TIP3    H139298   1.941   2.105   0.475 -0.0990 -0.4107  0.2826
 5913TIP3    H239299   1.997   2.174   0.598 -1.0518 -2.5074  1.9640
 5914TIP3   OH239300   0.909   2.044   0.847 -0.7179 -0.1641 -0.1135
 5914TIP3    H139301   0.891   2.076   0.759 -2.7324 -0.8854 -0.0190
 5914TIP3    H239302   0.990   1.995   0.839 -0.2358  0.7703 -1.2917
 5915TIP3   OH239303   6.240   1.558   1.244 -0.3041  0.5151  0.2885
 5915TIP3    H139304   6.245   1.635   1.300  0.5901  0.8586 -0.2344
 5915TIP3    H239305   6.147   1.537   1.240 -0.6751  2.1205 -0.2857
 5916TIP3   OH239306   4.091   7.034   0.509  0.5154 -0.0597 -0.1987
 5916TIP3    H139307   4.006   7.028   0.554  0.6593  0.2000  0.1160
 5916TIP3    H239308   4.149   7.073   0.574  0.4985  1.2219 -0.9156
 5917TIP3   OH239309   0.246   1.386   6.883 -0.1990 -0.3764  0.0767
 5917TIP3    H139310   0.281   1.420   6.800 -0.2244  0.5886  0.4508
 5917TIP3    H239311   0.201   1.305   6.858 -0.1134 -0.1580 -0.8355
 5918TIP3   OH239312   2.921   5.114   0.737 -0.0140 -0.2329 -0.1420
 5918TIP3    H139313   2.967   5.139   0.816 -0.2154 -1.1211  0.2716
 5918TIP3    H239314   2.839   5.075   0.768 -1.5988  2.2878 -0.8751
 5919TIP3   OH239315   2.431   1.810   0.704  0.5568  0.3023  0.3497
 5919TIP3    H139316   2.521   1.791   0.731  1.5255  1.4728 -1.7729
 5919TIP3    H239317   2.420   1.763   0.622  0.0781  2.0312 -0.6178
 5920TIP3   OH239318   1.822   2.712   2.029  0.0460  0.6074 -0.5753
 5920TIP3    H139319   1.775   2.631   2.010 -0.2997  0.6386  0.1357
 5920TIP3    H239320   1.899   2.708   1.972  1.9468 -1.9375  1.8944
 5921TIP3   OH239321   5.490   4.890   6.677 -0.1586 -0.3532  0.4282
 5921TIP3    H139322   5.516   4.934   6.595 -0.3058  0.2214  0.6879
 5921TIP3    H239323   5.518   4.800   6.665 -1.0281 -0.4999 -0.6447
 5922TIP3   OH239324   3.951   0.276   7.746  0.3179  0.1801  0.2829
 5922TIP3    H139325   3.880   0.239   7.694 -1.9042  0.4972  2.8223
 5922TIP3    H239326   3.962   0.365   7.712  0.8458 -0.4912 -1.3553
 5923TIP3   OH239327   6.417   6.043   7.667 -0.0084  0.6178  0.0378
 5923TIP3    H139328   6.421   6.111   7.600  0.0881  0.7508  0.1779
 5923TIP3    H239329   6.386   6.089   7.745 -1.1237  0.2576 -0.1792
 5924TIP3   OH239330   5.502   5.558   1.003 -0.5598  0.7242  0.2814
 5924TIP3    H139331   5.579   5.508   1.029  0.6279  2.4449  0.2224
 5924TIP3    H239332   5.428   5.502   1.027  0.6671 -0.6130  1.1076
 5925TIP3   OH239333   2.596   5.215   7.325  0.2480  0.1346 -0.1569
 5925TIP3    H139334   2.552   5.142   7.281  0.0082 -0.2155  0.6406
 5925TIP3    H239335   2.534   5.242   7.394 -1.1886  3.2761 -2.4348
 5926TIP3   OH239336   5.635   2.803   7.873  0.3696  0.2495 -0.3081
 5926TIP3    H139337   5.584   2.724   7.890  0.4498 -0.3731 -2.6461
 5926TIP3    H239338   5.587   2.872   7.918 -1.0195 -0.7560 -0.1707
 5927TIP3   OH239339   1.307   5.386   1.512  0.2782  0.1116  0.1832
 5927TIP3    H139340   1.346   5.349   1.591 -1.1821  0.3598  1.0600
 5927TIP3    H239341   1.234   5.328   1.491 -1.0498  1.5289  0.6484
 5928TIP3   OH239342   0.294   4.935   0.414 -0.0026 -0.3071  0.2017
 5928TIP3    H139343   0.378   4.980   0.404  0.7595 -1.4898  0.8971
 5928TIP3    H239344   0.228   5.004   0.412  0.9926  0.6564 -0.3043
 5929TIP3   OH239345   4.228   3.155   0.600  0.4717  0.0244 -0.3413
 5929TIP3    H139346   4.227   3.250   0.615 -0.2411 -0.1923  1.1069
 5929TIP3    H239347   4.321   3.134   0.588  0.6108  0.9414 -1.0010
 5930TIP3   OH239348   6.852   3.082   0.343 -0.0142  0.1744 -0.4330
 5930TIP3    H139349   6.884   3.012   0.287 -0.8723 -0.3554 -0.2825
 5930TIP3    H239350   6.900   3.071   0.425 -0.8695 -0.8960 -0.0480
 5931TIP3   OH239351   0.958   3.173   7.687 -0.1079  0.4399  0.1295
 5931TIP3    H139352   0.877   3.222   7.676 -0.0158  0.5580 -0.0409
 5931TIP3    H239353   1.023   3.224   7.638 -0.3500 -0.7399 -1.4799
 5932TIP3   OH239354   6.157   3.374   5.657 -0.0833 -0.0505  0.3579
 5932TIP3    H139355   6.066   3.352   5.675 -0.9661  0.1979 -3.0504
 5932TIP3    H239356   6.208   3.312   5.709 -2.2936 -3.0453 -0.7729
 5933TIP3   OH239357   3.049   1.233   1.264 -0.0426  0.2552  0.2415
 5933TIP3    H139358   3.034   1.298   1.196 -0.9411 -0.9191 -0.7253
 5933TIP3    H239359   3.019   1.151   1.226  0.9321 -0.7167  1.4742
 5934TIP3   OH239360   5.459   2.284   1.065 -0.1259  0.1205  0.3246
 5934TIP3    H139361   5.426   2.356   1.010 -0.2657 -0.3355 -0.2007
 5934TIP3    H239362   5.511   2.231   1.006 -1.7093 -1.3551  0.1724
 5935TIP3   OH239363   0.597   1.019   6.043  0.9312  0.0137  0.0637
 5935TIP3    H139364   0.634   0.975   5.967  1.1437 -0.3440  0.3738
 5935TIP3    H239365   0.509   1.044   6.015  0.3543 -1.6614  0.2684
 5936TIP3   OH239366   0.895   0.201   1.032 -0.4571  0.0313 -0.2398
 5936TIP3    H139367   0.896   0.211   1.127  2.4127 -0.5744 -0.1166
 5936TIP3    H239368   0.845   0.276   1.000 -1.0567  0.5038  1.6859
 5937TIP3   OH239369   0.835   0.598   1.831 -0.2380  0.1648  0.0962
 5937TIP3    H139370   0.769   0.529   1.823 -1.5842  1.1898  1.7049
 5937TIP3    H239371   0.786   0.680   1.826  1.2192  1.0436 -0.9340
 5938TIP3   OH239372   1.392   3.703   5.710 -0.5302  0.2487 -0.0769
 5938TIP3    H139373   1.385   3.694   5.615  0.6455 -0.0882 -0.1522
 5938TIP3    H239374   1.486   3.693   5.727 -0.9465 -1.6494  1.3216
 5939TIP3   OH239375   5.727   6.750   0.226 -0.3295  0.1192  0.3158
 5939TIP3    H139376   5.647   6.796   0.251 -0.0240  0.1741  1.2001
 5939TIP3    H239377   5.743   6.689   0.298  0.3594  0.0176  0.0809
 5940TIP3   OH239378   5.252   6.794   1.524  0.4815  0.5191  0.1890
 5940TIP3    H139379   5.276   6.713   1.569  0.4558  1.1243  1.3063
 5940TIP3    H239380   5.335   6.833   1.497  0.7516  1.8025  2.6409
 5941TIP3   OH239381   1.555   3.635   7.656 -0.2018  0.0350 -0.3552
 5941TIP3    H139382   1.548   3.719   7.610 -2.0347  0.5138  0.7222
 5941TIP3    H239383   1.485   3.581   7.619 -0.2455 -0.3523  0.2723
 5942TIP3   OH239384   2.007   1.100   7.561 -0.0086 -0.0006 -0.0667
 5942TIP3    H139385   2.060   1.035   7.515  0.5283 -0.1053  0.6756
 5942TIP3    H239386   2.024   1.082   7.654 -1.8570 -0.4703  0.2117
 5943TIP3   OH239387   3.836   4.200   2.155 -0.0771 -0.1733 -0.3673
 5943TIP3    H139388   3.808   4.129   2.098  0.9075 -0.2120 -0.8226
 5943TIP3    H239389   3.842   4.276   2.097 -0.0322  0.0184 -0.1116
 5944TIP3   OH239390   2.356   1.628   0.519 -0.1245  0.1177 -0.7952
 5944TIP3    H139391   2.278   1.608   0.570  0.9363  0.0904  0.9040
 5944TIP3    H239392   2.343   1.583   0.435 -1.4370 -0.7825 -0.1337
 5945TIP3   OH239393   0.333   1.711   8.089  0.1149 -0.4003  0.8007
 5945TIP3    H139394   0.242   1.736   8.074 -0.0713 -0.7693  1.2890
 5945TIP3    H239395   0.347   1.634   8.033  0.2139 -0.1657  0.5035
 5946TIP3   OH239396   0.780   6.469   7.679  0.2919 -0.3073 -0.1988
 5946TIP3    H139397   0.777   6.543   7.740  2.2739 -0.2070 -0.1643
 5946TIP3    H239398   0.730   6.399   7.723  1.8643 -0.3134  1.6839
 5947TIP3   OH239399   6.404   5.809   2.243  0.3680  0.6103 -0.1118
 5947TIP3    H139400   6.459   5.791   2.320  0.5119 -1.8141 -0.6909
 5947TIP3    H239401   6.422   5.736   2.184 -3.1970 -0.1475 -0.4787
 5948TIP3   OH239402   0.863   3.457   7.691 -0.5000 -0.2631 -0.2643
 5948TIP3    H139403   0.800   3.420   7.630  0.6737 -1.8151 -0.6197
 5948TIP3    H239404   0.900   3.532   7.645 -2.6670  1.2436  0.3152
 5949TIP3   OH239405   0.670   1.960   8.124 -0.2117  1.1023 -0.2391
 5949TIP3    H139406   0.732   1.914   8.181 -0.3992  2.3384  1.0266
 5949TIP3    H239407   0.626   1.890   8.076 -1.2115 -0.1813  2.3315
 5950TIP3   OH239408   6.916   3.024   1.817 -0.2984 -0.6536 -0.2726
 5950TIP3    H139409   6.895   3.070   1.899 -1.1800  1.0661 -1.4163
 5950TIP3    H239410   7.009   3.039   1.804 -0.6629  1.3471 -0.8906
 5951TIP3   OH239411   3.954   5.621   6.693 -0.5089 -0.1130  0.1045
 5951TIP3    H139412   3.883   5.622   6.757  0.6196 -2.4890  1.5212
 5951TIP3    H239413   4.028   5.662   6.737  0.0276 -0.9889  0.0525
 5952TIP3   OH239414   3.690   3.770   2.175  0.6116  0.6942  0.0064
 5952TIP3    H139415   3.686   3.798   2.084 -0.2153  0.0685 -0.1636
 5952TIP3    H239416   3.725   3.681   2.172 -1.2514 -0.0995  0.0846
 5953TIP3   OH239417   6.508   3.730   1.090  0.1539 -0.5340  0.0274
 5953TIP3    H139418   6.593   3.773   1.104  0.3668 -0.8049 -0.4138
 5953TIP3    H239419   6.453   3.763   1.161  0.0980  1.0135 -0.6908
 5954TIP3   OH239420   2.128   3.021   8.045  0.3008 -0.5658  0.0415
 5954TIP3    H139421   2.047   3.065   8.016  0.2409 -1.2118 -0.8226
 5954TIP3    H239422   2.198   3.083   8.022  0.1586 -0.6006 -0.5007
 5955TIP3   OH239423   0.668   3.020   1.347  0.0888 -0.1552 -0.3792
 5955TIP3    H139424   0.634   2.987   1.264 -1.5527  1.5166 -0.4375
 5955TIP3    H239425   0.648   2.952   1.411 -2.2522  0.1817 -0.6769
 5956TIP3   OH239426   3.074   2.053   7.362 -0.3887  0.4708 -0.4299
 5956TIP3    H139427   3.058   1.979   7.304 -1.3975  0.9545 -0.7857
 5956TIP3    H239428   3.013   2.121   7.333  0.2812  1.3321  0.1016
 5957TIP3   OH239429   2.022   6.602   6.079 -0.1304 -0.4131  0.5746
 5957TIP3    H139430   2.057   6.533   6.022 -1.8403  1.5315 -3.1632
 5957TIP3    H239431   1.942   6.565   6.115  1.0141 -1.6967  1.9795
 5958TIP3   OH239432   2.413   4.373   7.654  0.3660  0.2221 -0.0304
 5958TIP3    H139433   2.491   4.428   7.662  0.6977 -0.2536  0.0508
 5958TIP3    H239434   2.447   4.284   7.652  0.0555  0.0859 -2.8905
 5959TIP3   OH239435   5.423   5.932   2.530  0.3822  0.3066  0.2459
 5959TIP3    H139436   5.489   5.901   2.592 -0.1483  1.8267  1.6363
 5959TIP3    H239437   5.362   5.859   2.523  0.4471  0.0987  1.5450
 5960TIP3   OH239438   4.568   2.859   1.024  0.6670 -0.2073 -0.6314
 5960TIP3    H139439   4.635   2.795   0.999  3.3141  2.5006 -1.0653
 5960TIP3    H239440   4.581   2.871   1.118  0.4070 -0.0388 -0.6155
 5961TIP3   OH239441   5.554   4.159   6.854 -0.1383 -0.1115  0.2200
 5961TIP3    H139442   5.483   4.148   6.918 -1.0238  1.4043 -0.4333
 5961TIP3    H239443   5.564   4.254   6.846  1.0061 -0.2883 -0.7668
 5962TIP3   OH239444   5.930   2.115   0.424 -0.5194 -0.3231 -0.0436
 5962TIP3    H139445   5.892   2.029   0.444  1.1206 -0.8695  0.9549
 5962TIP3    H239446   5.989   2.098   0.350 -1.5465  0.3498 -1.0536
 5963TIP3   OH239447   3.193   4.169   0.003  0.3593 -0.3955 -0.2048
 5963TIP3    H139448   3.125   4.105  -0.020  1.3387 -0.8535 -2.0314
 5963TIP3    H239449   3.257   4.118   0.053  0.7840 -0.6972 -1.0361
 5964TIP3   OH239450   6.844   5.361   6.336  0.0428 -0.1104  0.3013
 5964TIP3    H139451   6.803   5.369   6.422 -0.7681  2.7048 -0.2432
 5964TIP3    H239452   6.783   5.405   6.276  1.1573 -0.9356 -1.5236
 5965TIP3   OH239453   2.547   0.534   8.082  0.3170  0.0812 -0.3842
 5965TIP3    H139454   2.506   0.475   8.019  0.0276 -0.2758  0.1412
 5965TIP3    H239455   2.531   0.621   8.046  0.0032 -0.1092 -0.7152
 5966TIP3   OH239456   2.026   1.934   0.951 -0.2189  0.2574 -0.1293
 5966TIP3    H139457   2.053   1.880   1.025 -0.5652  0.5237  0.1976
 5966TIP3    H239458   2.107   1.959   0.908 -0.0698 -0.8845 -0.5493
 5967TIP3   OH239459   6.395   1.364   7.554  0.4065 -0.1294 -0.0378
 5967TIP3    H139460   6.466   1.419   7.587  0.8586 -0.4823 -0.4182
 5967TIP3    H239461   6.361   1.412   7.479  0.5339 -0.1691 -0.1218
 5968TIP3   OH239462   2.940   1.712   0.737  0.1903 -0.8259  0.8657
 5968TIP3    H139463   3.010   1.772   0.763  1.5461 -2.6452  1.6427
 5968TIP3    H239464   2.970   1.675   0.654 -0.6715 -0.4252  0.3573
 5969TIP3   OH239465   0.608   5.682   1.222  0.0068 -0.3078 -0.4985
 5969TIP3    H139466   0.518   5.689   1.253  0.7485  1.8851  1.3524
 5969TIP3    H239467   0.639   5.598   1.256  0.3107  1.2947  3.7993
 5970TIP3   OH239468   2.947   1.079   0.259  0.0483  0.3304  0.3901
 5970TIP3    H139469   2.987   1.112   0.340 -0.7882  1.7208  0.2805
 5970TIP3    H239470   3.018   1.077   0.195  0.9293 -1.6635  1.3500
 5971TIP3   OH239471   3.313   1.904   5.530  0.2186  0.2628 -0.1194
 5971TIP3    H139472   3.261   1.927   5.607 -0.9762 -1.0456 -0.4875
 5971TIP3    H239473   3.365   1.829   5.557 -1.0260 -0.9157 -0.8496
 5972TIP3   OH239474   6.695   5.278   7.628  0.1656  0.1071  0.5087
 5972TIP3    H139475   6.640   5.356   7.632 -0.6557 -0.4127 -0.3056
 5972TIP3    H239476   6.763   5.294   7.693 -1.7077  0.1751  2.5733
 5973TIP3   OH239477   5.650   5.084   5.663 -0.1306 -0.2443 -0.3518
 5973TIP3    H139478   5.649   5.174   5.630 -0.0420 -0.0669  0.1203
 5973TIP3    H239479   5.729   5.079   5.717 -1.1304 -0.0156  1.2046
 5974TIP3   OH239480   2.228   2.749   6.876 -0.0496  0.7023 -0.1611
 5974TIP3    H139481   2.279   2.708   6.946 -1.3291 -0.1623  0.3154
 5974TIP3    H239482   2.282   2.823   6.846  3.0364 -2.0240 -2.0193
 5975TIP3   OH239483   5.749   5.987   1.618 -0.1792 -0.5753 -0.0934
 5975TIP3    H139484   5.718   6.062   1.667  0.1378 -0.9332  0.6715
 5975TIP3    H239485   5.785   5.928   1.684 -0.4476 -1.4142 -0.6681
 5976TIP3   OH239486   2.298   6.231   6.886  0.3100  0.1032  0.1827
 5976TIP3    H139487   2.358   6.159   6.864  1.2783  0.6965  0.8156
 5976TIP3    H239488   2.259   6.205   6.970  1.5689  0.8392  1.0268
 5977TIP3   OH239489   2.461   0.882   0.615  0.4361  0.0223  0.0692
 5977TIP3    H139490   2.386   0.909   0.668 -0.5136 -1.9037 -0.2269
 5977TIP3    H239491   2.516   0.832   0.675  0.4502 -0.3204 -0.2307
 5978TIP3   OH239492   2.163   4.990   0.062 -0.2925  0.0504 -0.1921
 5978TIP3    H139493   2.148   4.910   0.012  0.0624 -0.8378  1.0837
 5978TIP3    H239494   2.256   4.987   0.086 -0.5511  0.2151  0.8943
 5979TIP3   OH239495   6.327   3.283   0.041 -0.2057 -0.1691 -0.7017
 5979TIP3    H139496   6.396   3.239   0.091 -2.5675 -2.0416  1.2048
 5979TIP3    H239497   6.364   3.296  -0.046  1.7302 -3.3270 -0.4935
 5980TIP3   OH239498   2.344   2.171   0.104  0.1664  0.2037 -0.3991
 5980TIP3    H139499   2.267   2.119   0.079 -0.3364  0.7850 -0.1027
 5980TIP3    H239500   2.344   2.245   0.043  1.4366 -0.6257 -1.4515
 5981TIP3   OH239501   0.041   3.031   7.191  0.2600  0.7668 -0.2779
 5981TIP3    H139502   0.036   2.954   7.248  1.8898 -0.4393 -1.6529
 5981TIP3    H239503   0.087   3.097   7.244  3.4405 -0.9391 -0.6966
 5982TIP3   OH239504   1.932   2.242   6.776 -0.1451  0.1196  0.7478
 5982TIP3    H139505   1.847   2.273   6.805 -2.4385 -4.4716 -0.1096
 5982TIP3    H239506   1.923   2.232   6.681  0.6088 -2.0491  0.8438
 5983TIP3   OH239507   5.061   3.294   1.066  0.5254 -0.7564 -0.3043
 5983TIP3    H139508   5.005   3.237   1.118 -1.2515  0.5382 -0.6910
 5983TIP3    H239509   5.089   3.363   1.126 -2.1801  1.1886 -1.0969
 5984TIP3   OH239510   1.401   5.608   0.756 -0.0899  0.0454 -0.1667
 5984TIP3    H139511   1.430   5.689   0.798 -0.3647  0.0341  0.0466
 5984TIP3    H239512   1.305   5.617   0.751 -0.0591  0.0833 -0.8581
 5985TIP3   OH239513   6.823   5.529   1.221  0.3546  0.2617 -0.3913
 5985TIP3    H139514   6.915   5.554   1.217  1.0346 -2.0970 -1.4657
 5985TIP3    H239515   6.775   5.611   1.215  2.3631  1.6666  1.4354
 5986TIP3   OH239516   0.372   2.539   0.842 -0.0479  0.2415  0.1453
 5986TIP3    H139517   0.460   2.525   0.878 -0.3221 -1.3405  0.2956
 5986TIP3    H239518   0.368   2.632   0.822  1.6705  0.3394  0.1297
 5987TIP3   OH239519   0.492   5.552   0.904 -0.0783 -0.0216 -0.4562
 5987TIP3    H139520   0.538   5.508   0.832  1.3175  1.1832 -0.3638
 5987TIP3    H239521   0.516   5.502   0.982  1.5663  0.8612 -0.3391
 5988TIP3   OH239522   0.318   6.608   0.681 -0.0993 -0.5734  0.0399
 5988TIP3    H139523   0.284   6.544   0.620  0.5460 -0.4543 -0.4546
 5988TIP3    H239524   0.354   6.678   0.626  0.9975 -0.7289  0.5272
 5989TIP3   OH239525   3.420   5.637   0.567  0.0435 -0.0367 -0.5299
 5989TIP3    H139526   3.445   5.710   0.625 -1.4118 -0.8302  1.1937
 5989TIP3    H239527   3.501   5.616   0.519  0.4042  2.9678 -1.4426
 5990TIP3   OH239528   6.997   4.894   1.203 -0.1623 -0.1126 -0.5402
 5990TIP3    H139529   6.952   4.975   1.227 -0.3856 -0.6457  0.9649
 5990TIP3    H239530   7.084   4.903   1.242 -0.3950 -0.8289  0.1724
 5991TIP3   OH239531   5.273   3.861   7.656 -0.7369 -0.0085  0.0713
 5991TIP3    H139532   5.366   3.866   7.678 -0.9578 -0.0487  1.0618
 5991TIP3    H239533   5.264   3.779   7.609 -0.0185  0.7091 -1.3684
 5992TIP3   OH239534   2.161   4.460   5.822 -0.0390 -0.6056 -0.2908
 5992TIP3    H139535   2.074   4.474   5.786  0.1668 -0.6991 -0.8368
 5992TIP3    H239536   2.215   4.527   5.780 -0.1328  0.4399  1.1640
 5993TIP3   OH239537   4.328   2.807   6.438  0.1300 -0.2443  0.3088
 5993TIP3    H139538   4.265   2.761   6.383  0.6262 -1.2061  0.5216
 5993TIP3    H239539   4.406   2.814   6.384  0.2008 -0.0568  0.4372
 5994TIP3   OH239540   2.963   4.262   7.652  0.1344  0.2648  0.1568
 5994TIP3    H139541   3.003   4.295   7.571 -1.3501 -0.7339 -1.0470
 5994TIP3    H239542   2.871   4.251   7.630 -0.2793 -0.1964  1.9627
 5995TIP3   OH239543   3.073   6.355   8.183 -0.2353  0.2211 -0.5515
 5995TIP3    H139544   2.986   6.370   8.220  0.2710  0.2140  0.6775
 5995TIP3    H239545   3.112   6.289   8.240  1.2670  1.5497  0.0301
 5996TIP3   OH239546   6.329   4.471   6.771 -0.3044  0.9448  0.4069
 5996TIP3    H139547   6.347   4.503   6.683  0.5936  0.7613  0.5168
 5996TIP3    H239548   6.282   4.388   6.758 -1.4544  1.6167  0.1213
 5997TIP3   OH239549   2.543   6.331   7.015 -0.0581 -0.0618 -0.0890
 5997TIP3    H139550   2.597   6.335   6.936 -1.2490 -2.6402 -1.1705
 5997TIP3    H239551   2.459   6.367   6.989  0.3857  1.8127  0.9231
 5998TIP3   OH239552   4.350   1.728   0.756  0.1962 -0.3836 -0.1895
 5998TIP3    H139553   4.317   1.640   0.738  0.0393 -0.7234  1.5531
 5998TIP3    H239554   4.276   1.774   0.796  0.4483  0.3623 -0.5707
 5999TIP3   OH239555   3.122   2.980   1.228  0.0319 -0.0036 -0.3475
 5999TIP3    H139556   3.076   3.043   1.173  0.9174  1.5377  0.6167
 5999TIP3    H239557   3.108   3.011   1.317  0.4482 -1.2142  0.1610
 6000TIP3   OH239558   1.223   0.638   0.510  0.0213 -0.5979  0.5991
 6000TIP3    H139559   1.308   0.677   0.533 -0.6379  0.0469  2.0859
 6000TIP3    H239560   1.238   0.544   0.518  0.7853 -0.5309  0.1257
 6001TIP3   OH239561   2.113   3.022   1.801  0.0980  0.2159  0.5893
 6001TIP3    H139562   2.051   2.951   1.783  1.0234 -0.3802 -0.3915
 6001TIP3    H239563   2.137   3.010   1.893 -1.0844  0.3474  0.9322
 6002TIP3   OH239564   2.007   4.038   6.534  0.1071 -0.0016  0.1213
 6002TIP3    H139565   2.096   4.072   6.534  0.2532 -0.2476  1.9962
 6002TIP3    H239566   1.995   4.002   6.446  1.9383 -0.1497 -0.1164
 6003TIP3   OH239567   5.204   2.518   0.967 -0.0578 -0.4182 -0.6348
 6003TIP3    H139568   5.145   2.445   0.987  0.3126 -0.4491  0.3870
 6003TIP3    H239569   5.240   2.497   0.881 -0.2439 -1.2461 -0.5169
 6004TIP3   OH239570   0.979   2.011   7.440  0.3475  0.2360  0.4544
 6004TIP3    H139571   1.071   1.985   7.435 -0.0475 -1.1052 -0.1843
 6004TIP3    H239572   0.946   1.971   7.520  0.6877  2.0275  1.5343
 6005TIP3   OH239573   1.315   1.819   1.375  0.0104  0.4451  0.2799
 6005TIP3    H139574   1.407   1.805   1.356  0.3879  1.2228  1.4308
 6005TIP3    H239575   1.286   1.884   1.310  0.0604 -0.3697 -0.5699
 6006TIP3   OH239576   4.702   0.574   0.262  0.1460  0.0980 -0.1239
 6006TIP3    H139577   4.678   0.546   0.174  1.2816  0.5956 -0.6040
 6006TIP3    H239578   4.797   0.576   0.262  0.1739 -0.1677  1.2142
 6007TIP3   OH239579   2.925   0.355   0.467  0.0260 -0.3086 -0.3053
 6007TIP3    H139580   2.994   0.382   0.407 -0.6734  0.1834 -0.9043
 6007TIP3    H239581   2.856   0.420   0.455 -0.3738 -0.5476  0.5992
 6008TIP3   OH239582   3.092   3.636   0.857  0.4279 -0.0755  0.0622
 6008TIP3    H139583   3.168   3.583   0.832 -0.0280 -0.5139 -0.4191
 6008TIP3    H239584   3.119   3.726   0.836  0.7885 -0.2322 -0.1736
 6009TIP3   OH239585   4.546   3.251   6.099 -0.1745 -0.5486 -0.4497
 6009TIP3    H139586   4.625   3.201   6.080  0.5821  1.0338 -1.7202
 6009TIP3    H239587   4.578   3.329   6.145 -1.4048 -1.5620  2.3142
 6010TIP3   OH239588   4.018   5.346   0.536  0.6303  0.6418 -0.0488
 6010TIP3    H139589   4.091   5.377   0.482  1.1133 -0.5635 -0.1282
 6010TIP3    H239590   4.017   5.251   0.522 -0.1122  0.4778  0.9941
 6011TIP3   OH239591   1.522   2.108   0.390  0.3849  0.9468 -0.0229
 6011TIP3    H139592   1.431   2.081   0.375 -0.0790  1.1989  2.0027
 6011TIP3    H239593   1.574   2.032   0.363 -0.6047 -0.1184  0.9357
 6012TIP3   OH239594   6.210   0.950   0.726 -0.0518 -0.3590  0.0331
 6012TIP3    H139595   6.264   1.023   0.757 -1.4359  1.2377 -1.1051
 6012TIP3    H239596   6.155   0.988   0.657  0.1903 -2.8292 -1.6893
 6013TIP3   OH239597   2.198   2.173   6.783  0.6602 -1.0284  0.1886
 6013TIP3    H139598   2.107   2.190   6.808  1.0043  0.6383  0.4175
 6013TIP3    H239599   2.244   2.156   6.865  1.0604  0.8133  0.3883
 6014TIP3   OH239600   3.280   2.486   7.474 -0.1484  0.4400 -0.3342
 6014TIP3    H139601   3.321   2.507   7.558 -1.2230  1.7352 -0.0963
 6014TIP3    H239602   3.225   2.410   7.493 -0.3653  0.7102  0.1523
 6015TIP3   OH239603   5.849   5.942   0.696  0.1773 -1.0073 -0.4356
 6015TIP3    H139604   5.772   5.961   0.749  0.1344 -1.3940 -0.3595
 6015TIP3    H239605   5.923   5.961   0.754  0.1800  0.6765 -0.9366
 6016TIP3   OH239606   3.267   5.530   6.973  0.0826 -0.3117  0.3120
 6016TIP3    H139607   3.254   5.494   7.060  0.2518 -0.3090  0.3388
 6016TIP3    H239608   3.254   5.624   6.983 -0.4871 -0.3715  0.2175
 6017TIP3   OH239609   5.191   2.112   0.305 -0.2295 -0.1934 -0.8192
 6017TIP3    H139610   5.126   2.178   0.283 -1.0920 -0.5293  0.5872
 6017TIP3    H239611   5.141   2.042   0.347  0.7961 -1.3136 -1.4045
 6018TIP3   OH239612   0.937   3.525   5.942  0.0256 -0.0625 -0.7316
 6018TIP3    H139613   0.904   3.517   5.853 -0.8849  1.7843 -0.6017
 6018TIP3    H239614   0.981   3.610   5.944 -3.5411  1.9978  1.5484
 6019TIP3   OH239615   5.116   1.055   0.421 -0.8803 -0.6169  0.5555
 6019TIP3    H139616   5.179   1.038   0.351  1.2245 -0.4256  2.3029
 6019TIP3    H239617   5.056   0.981   0.418  0.7950 -2.0172  0.2383
 6020TIP3   OH239618   2.544   2.139   7.746 -0.4937 -0.1478  0.2370
 6020TIP3    H139619   2.608   2.073   7.720 -0.1403 -0.5306  1.9546
 6020TIP3    H239620   2.573   2.219   7.702  1.5268 -0.1699  1.3944
 6021TIP3   OH239621   1.131   4.477   1.821 -0.4146 -0.0950 -0.0689
 6021TIP3    H139622   1.193   4.435   1.881  0.4795 -1.3982 -1.8044
 6021TIP3    H239623   1.114   4.563   1.859  1.4597 -0.2116  1.1483
 6022TIP3   OH239624   3.527   2.063   6.875  0.4817 -0.1957 -0.2737
 6022TIP3    H139625   3.530   1.987   6.817 -0.3065 -0.6158  0.2212
 6022TIP3    H239626   3.522   2.139   6.816  0.4758 -0.5707 -0.7593
 6023TIP3   OH239627   2.424   3.929   1.827 -0.8437  0.2536 -0.5369
 6023TIP3    H139628   2.345   3.880   1.804 -0.3335 -1.2927  0.8554
 6023TIP3    H239629   2.403   3.971   1.910  0.5367 -2.1706  1.1508
 6024TIP3   OH239630   6.307   4.350   7.096  0.3518  0.4881  0.5214
 6024TIP3    H139631   6.359   4.428   7.114  0.6020  0.9044 -1.7378
 6024TIP3    H239632   6.338   4.319   7.011 -2.9358  0.7092 -0.9294
 6025TIP3   OH239633   3.224   2.197   0.903 -0.0952  0.0214 -0.2117
 6025TIP3    H139634   3.307   2.154   0.922  1.3575  2.0160 -1.6226
 6025TIP3    H239635   3.208   2.179   0.810 -1.2239 -0.2774  0.0287
 6026TIP3   OH239636   4.509   6.342   6.271 -0.2912 -0.4199  0.0355
 6026TIP3    H139637   4.419   6.309   6.271 -0.4284 -0.0556 -0.0901
 6026TIP3    H239638   4.502   6.429   6.232  0.1949 -0.5914 -0.4501
 6027TIP3   OH239639   6.522   2.030   2.294  0.1209  0.0884  0.1670
 6027TIP3    H139640   6.537   2.061   2.383  2.2438 -0.2732 -0.0086
 6027TIP3    H239641   6.428   2.038   2.281 -0.0033  1.9181  1.7786
 6028TIP3   OH239642   4.795   6.735   0.850  0.4755 -0.7245 -0.1513
 6028TIP3    H139643   4.713   6.768   0.812  2.0627  2.5963 -1.0556
 6028TIP3    H239644   4.783   6.745   0.944 -0.3892 -0.8760 -0.2354
 6029TIP3   OH239645   4.268   3.311   7.250  0.0011 -0.2383  0.1191
 6029TIP3    H139646   4.360   3.285   7.250 -0.1198 -0.6733  0.1293
 6029TIP3    H239647   4.265   3.386   7.310  0.4566  0.1905 -0.3756
 6030TIP3   OH239648   4.396   6.831   7.107 -0.0463 -0.6766 -0.0385
 6030TIP3    H139649   4.394   6.823   7.012  0.4746 -0.5445 -0.0627
 6030TIP3    H239650   4.437   6.916   7.123  2.0717 -1.7083  0.3221
 6031TIP3   OH239651   6.611   0.154   0.069  0.5660  0.3479  0.4625
 6031TIP3    H139652   6.528   0.168   0.115  0.1289  2.1750 -0.7972
 6031TIP3    H239653   6.588   0.096  -0.004  1.1102 -1.8893  1.9403
 6032TIP3   OH239654   2.638   3.217   2.079  0.4047 -0.1836 -0.2593
 6032TIP3    H139655   2.648   3.219   1.984 -0.0264 -0.9821 -0.3232
 6032TIP3    H239656   2.726   3.234   2.113  0.7981 -1.1323 -0.8012
 6033TIP3   OH239657   5.482   1.109   7.881 -0.5585 -0.0165 -0.1511
 6033TIP3    H139658   5.456   1.172   7.815 -0.5225  0.8901  0.6789
 6033TIP3    H239659   5.405   1.055   7.895 -0.2046 -1.0403 -1.8028
 6034TIP3   OH239660   5.614   0.667   6.251  0.0066  0.3272 -0.0072
 6034TIP3    H139661   5.527   0.704   6.261  0.8659  1.7289  3.9005
 6034TIP3    H239662   5.609   0.581   6.293  0.6946  0.8783  1.2627
 6035TIP3   OH239663   4.726   4.723   0.007 -0.0240 -0.4704 -0.1765
 6035TIP3    H139664   4.736   4.645   0.063  1.2087 -0.4498 -0.3346
 6035TIP3    H239665   4.691   4.689  -0.075 -1.2549 -0.5871  0.3754
 6036TIP3   OH239666   3.414   2.801   1.746 -1.2023  0.3385  0.4656
 6036TIP3    H139667   3.479   2.732   1.731 -0.2551  1.2065  0.4432
 6036TIP3    H239668   3.332   2.754   1.763 -1.2190 -0.8059 -2.2161
 6037TIP3   OH239669   4.565   0.759   7.289  0.0177  0.0108  0.0738
 6037TIP3    H139670   4.591   0.811   7.366 -0.0074 -0.9956  0.7837
 6037TIP3    H239671   4.646   0.749   7.239  0.1206  0.3301  0.1712
 6038TIP3   OH239672   3.754   1.885   6.973  0.1738 -0.3787 -0.3484
 6038TIP3    H139673   3.777   1.888   6.880 -1.3006 -0.3305 -0.7374
 6038TIP3    H239674   3.756   1.976   7.002 -2.9950  0.1299 -1.3319
 6039TIP3   OH239675   3.036   3.723   0.528  0.3764 -0.2764 -0.1776
 6039TIP3    H139676   3.067   3.638   0.495 -1.7441 -0.6717 -1.4074
 6039TIP3    H239677   3.114   3.766   0.561  1.7300 -2.2139 -0.6427
 6040TIP3   OH239678   4.272   0.314   0.478 -0.1957 -0.1527  0.2257
 6040TIP3    H139679   4.356   0.328   0.434 -0.3771 -3.1297 -1.3294
 6040TIP3    H239680   4.294   0.265   0.557 -0.2574  1.7231  1.4593
 6041TIP3   OH239681   6.084   0.139   7.474  0.5072 -0.0892  0.0177
 6041TIP3    H139682   6.001   0.158   7.518  0.0571  0.0451 -0.8653
 6041TIP3    H239683   6.146   0.201   7.512 -0.2037  0.9866 -0.5212
 6042TIP3   OH239684   0.612   0.198   7.264 -0.5787 -0.0336  0.3163
 6042TIP3    H139685   0.603   0.126   7.201 -0.1198  0.6960 -0.6107
 6042TIP3    H239686   0.538   0.187   7.323 -0.6091 -1.1694  0.0999
 6043TIP3   OH239687   7.025   0.957   2.133 -0.0827  0.4120 -0.1483
 6043TIP3    H139688   7.094   0.900   2.167  0.5387  1.6219  0.6919
 6043TIP3    H239689   7.053   0.976   2.043  0.1143  0.0265 -0.1715
 6044TIP3   OH239690   1.578   6.818   7.519 -0.5088  0.1471 -0.2798
 6044TIP3    H139691   1.529   6.895   7.488 -0.0946 -0.0326 -1.4120
 6044TIP3    H239692   1.514   6.747   7.515 -0.4579  0.1246 -0.7321
 6045TIP3   OH239693   3.733   0.311   7.931 -0.6602 -0.0324  0.0962
 6045TIP3    H139694   3.810   0.315   7.873 -0.9991 -1.2143 -0.4664
 6045TIP3    H239695   3.762   0.255   8.004 -1.0559 -0.7285 -0.2651
 6046TIP3   OH239696   5.972   6.343   7.794 -0.1155  0.1164 -0.7046
 6046TIP3    H139697   5.930   6.415   7.842  0.1078  1.6655 -2.7001
 6046TIP3    H239698   5.908   6.272   7.796 -1.2399  1.0980 -0.4752
 6047TIP3   OH239699   4.485   4.341   1.623 -0.6597 -0.1737 -0.2291
 6047TIP3    H139700   4.400   4.345   1.669 -1.5194 -0.2923 -1.7484
 6047TIP3    H239701   4.479   4.263   1.569 -0.6784  1.2604 -2.4014
 6048TIP3   OH239702   5.863   0.774   0.516 -0.5496  0.3068  0.0325
 6048TIP3    H139703   5.881   0.805   0.604  1.1828  1.2114 -0.5806
 6048TIP3    H239704   5.897   0.685   0.514  0.0201  0.5178  0.1096
 6049TIP3   OH239705   4.781   0.930   0.445 -0.1913 -0.1085  0.1022
 6049TIP3    H139706   4.844   0.867   0.481  0.4155  0.4936  0.1171
 6049TIP3    H239707   4.715   0.876   0.402  0.4148 -0.7483 -0.0453
 6050TIP3   OH239708   4.212   2.027   0.058 -0.0243 -0.3244 -0.0845
 6050TIP3    H139709   4.295   2.043   0.012 -0.3079 -1.1753 -0.9174
 6050TIP3    H239710   4.183   2.114   0.085  0.5626  0.1172 -0.8193
 6051TIP3   OH239711   4.025   6.588   0.155  0.1109  0.1689  0.8767
 6051TIP3    H139712   4.108   6.540   0.146 -0.6840 -1.1011  0.0645
 6051TIP3    H239713   3.958   6.520   0.155 -1.1890  1.2922 -1.9141
 6052TIP3   OH239714   0.624   5.846   7.419 -0.2102  0.3091  0.5018
 6052TIP3    H139715   0.682   5.858   7.344 -0.9985  0.5041 -0.0942
 6052TIP3    H239716   0.588   5.758   7.407 -0.3903  0.3660  0.6190
 6053TIP3   OH239717   6.162   1.457   6.847 -0.1835 -1.0189 -0.4715
 6053TIP3    H139718   6.235   1.395   6.843 -0.0904 -0.9232 -0.2340
 6053TIP3    H239719   6.085   1.402   6.859  0.1278 -0.9894  2.3092
 6054TIP3   OH239720   3.947   3.585   6.762  0.8791 -0.4372  0.0711
 6054TIP3    H139721   4.008   3.653   6.733 -0.5099  1.1611  0.7853
 6054TIP3    H239722   3.943   3.595   6.857 -0.4828 -0.5408  0.0354
 6055TIP3   OH239723   1.126   1.997   1.497 -0.6992  0.2921 -0.4383
 6055TIP3    H139724   1.199   2.056   1.477 -1.5403  1.0504 -1.3870
 6055TIP3    H239725   1.134   1.925   1.435  0.5379 -0.8300  0.9563
 6056TIP3   OH239726   3.875   6.990   7.629 -0.1743  0.0227 -0.5836
 6056TIP3    H139727   3.916   6.923   7.574 -2.6726 -3.7005  1.6322
 6056TIP3    H239728   3.798   7.017   7.579  0.6117  0.9881 -1.3013
 6057TIP3   OH239729   2.689   5.941   5.939  0.4346  0.4058 -0.4271
 6057TIP3    H139730   2.706   6.034   5.925 -0.0801  0.6444  0.4985
 6057TIP3    H239731   2.728   5.898   5.862  1.9473  1.2473 -0.1640
 6058TIP3   OH239732   5.032   0.341   8.067 -0.3522  0.7786  0.2068
 6058TIP3    H139733   5.012   0.259   8.111  0.4586  0.4541  0.0000
 6058TIP3    H239734   4.956   0.397   8.083 -1.0354 -0.1045  0.1190
 6059TIP3   OH239735   6.938   4.961   8.029 -0.3999 -0.7666  0.1084
 6059TIP3    H139736   6.946   4.990   8.119 -0.7028  0.0619 -0.1234
 6059TIP3    H239737   7.013   4.903   8.015 -0.5691 -1.2119  0.9972
 6060TIP3   OH239738   3.100   2.846   1.594  0.3497  0.2910  0.3378
 6060TIP3    H139739   3.057   2.915   1.543  0.5534  0.7310  0.7612
 6060TIP3    H239740   3.170   2.891   1.640  0.4428 -0.1919  0.6651
 6061TIP3   OH239741   6.547   4.773   6.299 -0.1620 -0.0704  0.2243
 6061TIP3    H139742   6.466   4.722   6.311 -1.6851  2.4894  1.8730
 6061TIP3    H239743   6.528   4.831   6.225  1.7443 -2.0457 -1.9839
 6062TIP3   OH239744   2.190   5.809   1.358  0.2206 -0.1878 -0.6377
 6062TIP3    H139745   2.143   5.872   1.304 -0.7165 -0.2461  0.0757
 6062TIP3    H239746   2.146   5.813   1.443 -0.7751 -2.7544 -0.9393
 6063TIP3   OH239747   1.286   0.852   1.767  0.8867 -0.2526  0.3578
 6063TIP3    H139748   1.310   0.781   1.827 -0.3022 -1.5437 -0.6505
 6063TIP3    H239749   1.285   0.811   1.680 -2.0204  0.4083 -0.0012
 6064TIP3   OH239750   4.773   3.890   6.209 -0.2915  0.6638 -0.9347
 6064TIP3    H139751   4.747   3.973   6.250  0.6490  1.0247 -1.0564
 6064TIP3    H239752   4.840   3.854   6.267 -2.2196 -1.1327  0.3223
 6065TIP3   OH239753   4.463   3.032   7.134 -0.5964 -0.2415 -0.0356
 6065TIP3    H139754   4.544   3.062   7.175 -0.5230 -0.8572  0.2725
 6065TIP3    H239755   4.489   3.008   7.045 -0.6377  0.4998 -0.2587
 6066TIP3   OH239756   4.907   3.857   0.281  0.1670  0.4252 -0.0978
 6066TIP3    H139757   4.857   3.935   0.304  0.3046  0.4876 -0.0115
 6066TIP3    H239758   4.986   3.862   0.335  0.7815  0.8820 -1.0364
 6067TIP3   OH239759   2.847   1.778   8.139 -0.2687 -1.2257 -0.6501
 6067TIP3    H139760   2.820   1.778   8.231  0.9695 -0.4229 -0.2553
 6067TIP3    H239761   2.767   1.761   8.090 -1.3198  0.2885  0.4732
 6068TIP3   OH239762   4.661   6.132   6.655 -0.5626 -0.2356 -0.1750
 6068TIP3    H139763   4.629   6.114   6.566 -0.3232  1.3739 -0.6104
 6068TIP3    H239764   4.621   6.063   6.709 -1.8995 -0.3645 -1.2802
 6069TIP3   OH239765   5.602   6.667   7.465  0.7848 -0.0448 -0.4547
 6069TIP3    H139766   5.664   6.671   7.393  1.0645 -1.3758 -0.3159
 6069TIP3    H239767   5.519   6.694   7.427  0.9332 -0.7053 -1.2793
 6070TIP3   OH239768   3.672   6.620   7.631  0.6910 -0.4575 -0.4316
 6070TIP3    H139769   3.681   6.534   7.589  0.9063  0.0399 -1.4135
 6070TIP3    H239770   3.740   6.674   7.592  0.6152  0.1491  0.2464
 6071TIP3   OH239771   0.716   0.922   8.238 -0.2845  0.0674 -0.0212
 6071TIP3    H139772   0.767   0.970   8.173  2.0832 -1.1764  0.7738
 6071TIP3    H239773   0.728   0.830   8.215 -0.1896 -0.3548  1.5718
 6072TIP3   OH239774   5.518   4.032   0.775  0.0088  0.3410  0.5156
 6072TIP3    H139775   5.569   4.085   0.836  1.8090 -0.2055 -0.4502
 6072TIP3    H239776   5.509   4.086   0.697 -0.1437  0.1039  0.3674
 6073TIP3   OH239777   2.625   1.607   0.531  0.0891  0.1829  0.8594
 6073TIP3    H139778   2.659   1.524   0.565  1.2492 -1.0590 -2.8418
 6073TIP3    H239779   2.533   1.590   0.513  0.0674  0.0451  1.0962
 6074TIP3   OH239780   2.035   1.368   1.866 -0.5572 -0.5026 -0.7849
 6074TIP3    H139781   2.056   1.285   1.824 -0.8854 -0.8331 -0.3122
 6074TIP3    H239782   1.969   1.345   1.932 -0.1429  0.0248 -0.1781
 6075TIP3   OH239783   5.412   0.734   1.291 -0.1551 -0.4312 -0.0858
 6075TIP3    H139784   5.506   0.732   1.274 -0.3395 -1.5957 -1.1317
 6075TIP3    H239785   5.371   0.726   1.204 -1.2316  0.3182  0.3218
 6076TIP3   OH239786   4.404   0.849   6.897  0.3601 -0.5659 -0.0369
 6076TIP3    H139787   4.448   0.779   6.849 -0.2519 -0.2327 -1.1313
 6076TIP3    H239788   4.411   0.925   6.839 -1.6681 -0.5148 -0.2926
 6077TIP3   OH239789   6.124   0.535   6.952  0.3963 -0.3242  0.4321
 6077TIP3    H139790   6.098   0.444   6.962  1.1456 -0.5064  0.7493
 6077TIP3    H239791   6.105   0.555   6.860  4.0303 -2.0813 -0.9205
 6078TIP3   OH239792   4.869   4.070   7.852 -0.4693 -0.1724  0.2248
 6078TIP3    H139793   4.859   4.004   7.920 -0.1793 -0.1419  0.2971
 6078TIP3    H239794   4.803   4.047   7.786 -0.5826 -0.3461  0.3989
 6079TIP3   OH239795   0.961   4.193   1.476  0.0003 -0.6270 -0.0381
 6079TIP3    H139796   0.878   4.193   1.524  0.9262 -0.9002  1.6758
 6079TIP3    H239797   0.957   4.271   1.421 -1.6020 -0.9459 -0.4170
 6080TIP3   OH239798   3.842   1.733   1.597 -0.1011 -0.0907 -0.0479
 6080TIP3    H139799   3.796   1.812   1.625 -0.8721 -0.7632  0.6081
 6080TIP3    H239800   3.804   1.711   1.512 -0.1619  0.0167 -0.0474
 6081TIP3   OH239801   0.710   5.170   0.213 -0.0093 -0.0999 -0.5142
 6081TIP3    H139802   0.745   5.089   0.250 -1.4694 -0.0594  1.0675
 6081TIP3    H239803   0.778   5.235   0.228  0.0130 -0.4145  0.8324
 6082TIP3   OH239804   6.751   3.325   2.006  0.1912 -0.2836  0.1801
 6082TIP3    H139805   6.667   3.356   1.973  0.3216  1.3943  1.2878
 6082TIP3    H239806   6.729   3.252   2.065 -0.1854 -1.9714 -1.9241
 6083TIP3   OH239807   5.440   3.070   7.065  0.5138 -0.0699 -0.2448
 6083TIP3    H139808   5.468   3.086   6.974 -1.8618 -2.0681 -1.4510
 6083TIP3    H239809   5.435   2.975   7.072  0.1605  0.0721  1.8476
 6084TIP3   OH239810   0.750   3.631   6.868  0.7856  0.3922 -0.2370
 6084TIP3    H139811   0.718   3.706   6.917 -0.0061 -0.3631  0.4330
 6084TIP3    H239812   0.677   3.604   6.812  1.0355  0.0754 -0.4206
 6085TIP3   OH239813   4.015   6.614   8.049 -0.1006  0.0590  0.1636
 6085TIP3    H139814   4.087   6.562   8.011  0.0764  1.0310 -0.8811
 6085TIP3    H239815   3.948   6.549   8.071 -0.0154 -0.6178 -1.4256
 6086TIP3   OH239816   2.723   5.951   7.613  0.1284  0.1697 -0.1963
 6086TIP3    H139817   2.797   5.978   7.668  1.0723 -0.0925 -1.2856
 6086TIP3    H239818   2.664   5.907   7.673  0.5382  0.9667  0.8301
 6087TIP3   OH239819   0.321   2.799   1.235 -0.2065  0.1526 -0.7428
 6087TIP3    H139820   0.323   2.866   1.166 -1.8210 -0.1795 -1.1571
 6087TIP3    H239821   0.411   2.768   1.241  0.0920  0.6254 -2.2778
 6088TIP3   OH239822   6.800   3.206   0.802  0.1794 -0.3390  0.2126
 6088TIP3    H139823   6.839   3.281   0.756  1.2299  0.3568  2.1124
 6088TIP3    H239824   6.735   3.245   0.860  0.8555 -0.8561  1.3438
 6089TIP3   OH239825   1.050   0.479   7.337  0.2413 -0.7760  0.0089
 6089TIP3    H139826   1.103   0.414   7.290  2.3838  0.2335  0.8758
 6089TIP3    H239827   1.066   0.459   7.430  0.1036  0.3346  0.2849
 6090TIP3   OH239828   0.194   4.782   1.839 -0.0183  0.1661 -0.4494
 6090TIP3    H139829   0.118   4.838   1.826 -0.6819 -0.6777 -0.3114
 6090TIP3    H239830   0.263   4.841   1.870 -0.2746  1.1176 -1.6542
 6091TIP3   OH239831   1.564   2.950   1.354  0.3149 -0.3430  0.0193
 6091TIP3    H139832   1.633   2.924   1.415  0.3079 -0.4692 -0.0275
 6091TIP3    H239833   1.483   2.929   1.400  0.3160 -1.3060 -0.4178
 6092TIP3   OH239834   1.361   2.966   0.264 -0.2095 -0.3650 -0.6932
 6092TIP3    H139835   1.329   3.048   0.227 -3.2226 -1.7161 -1.3483
 6092TIP3    H239836   1.330   2.899   0.203  1.9679 -2.0745 -0.0555
 6093TIP3   OH239837   3.000   2.402   6.372 -0.4208  0.5338 -0.0475
 6093TIP3    H139838   2.932   2.393   6.305  0.4274  0.6354 -0.9325
 6093TIP3    H239839   3.069   2.342   6.345 -0.8120 -0.7929  1.7237
 6094TIP3   OH239840   6.780   5.261   7.270  0.0066  0.3707  0.0006
 6094TIP3    H139841   6.820   5.271   7.183  0.6927 -0.1919  0.2383
 6094TIP3    H239842   6.769   5.350   7.302  0.1112  0.5680 -0.5053
 6095TIP3   OH239843   3.617   4.970   7.349 -0.5411 -0.1430  0.0820
 6095TIP3    H139844   3.609   4.909   7.275 -2.1593 -0.0140  0.1128
 6095TIP3    H239845   3.688   5.028   7.324  0.7253 -1.7215 -0.1758
 6096TIP3   OH239846   2.466   6.542   6.709 -0.3920  0.0121  0.0864
 6096TIP3    H139847   2.445   6.614   6.650 -1.8806  0.1324  0.7134
 6096TIP3    H239848   2.394   6.541   6.772 -0.1436 -1.7087  0.3886
 6097TIP3   OH239849   0.608   2.205   8.182  0.2525 -0.3804 -0.1001
 6097TIP3    H139850   0.644   2.204   8.271 -0.1499  0.2780  0.0746
 6097TIP3    H239851   0.649   2.129   8.139  1.0818 -0.2235  0.3904
 6098TIP3   OH239852   3.484   4.546   6.519 -0.0350 -0.0547 -0.1946
 6098TIP3    H139853   3.571   4.583   6.529  0.0669 -0.0202 -1.1405
 6098TIP3    H239854   3.498   4.453   6.503  0.0601  0.4239 -3.5648
 6099TIP3   OH239855   1.721   0.756   0.846 -0.1392 -0.3491  0.3110
 6099TIP3    H139856   1.797   0.780   0.898  0.7912 -2.7489  0.1905
 6099TIP3    H239857   1.692   0.838   0.806  2.9419  0.5229 -0.3501
 6100TIP3   OH239858   4.131   1.591   8.263 -0.2040  0.7054  0.1585
 6100TIP3    H139859   4.224   1.614   8.262 -0.2376  0.8923  0.8037
 6100TIP3    H239860   4.086   1.674   8.281 -0.4833  0.5849  0.0241
 6101TIP3   OH239861   1.689   1.715   6.775  0.0300  0.3115 -0.2865
 6101TIP3    H139862   1.606   1.692   6.816 -2.1436  2.6879 -2.9290
 6101TIP3    H239863   1.679   1.688   6.684  1.7567  1.5772 -0.9084
 6102TIP3   OH239864   4.298   1.879   7.405  0.5199  0.2337 -0.0936
 6102TIP3    H139865   4.318   1.788   7.384  1.8709  0.6996 -0.9518
 6102TIP3    H239866   4.293   1.923   7.320  1.3579  1.2320  0.3483
 6103TIP3   OH239867   3.180   6.962   7.193  0.2862 -0.5143 -0.1983
 6103TIP3    H139868   3.153   6.972   7.285 -0.1399 -0.4493 -0.3304
 6103TIP3    H239869   3.260   7.015   7.187 -0.3105  0.4203 -0.1414
 6104TIP3   OH239870   4.007   1.876   8.000 -0.3216 -0.1395 -0.4988
 6104TIP3    H139871   3.926   1.827   7.988 -0.4839 -0.1162  0.4009
 6104TIP3    H239872   4.035   1.899   7.912 -0.4065 -1.5799 -0.9354
 6105TIP3   OH239873   5.230   2.357   0.481  0.3642  0.0963 -0.4046
 6105TIP3    H139874   5.310   2.313   0.454 -0.6685 -2.8340  0.9127
 6105TIP3    H239875   5.174   2.356   0.403  0.8649  0.3564 -0.7699
 6106TIP3   OH239876   3.721   4.027   0.784 -0.0569 -0.0761 -0.0953
 6106TIP3    H139877   3.699   4.045   0.693 -0.8889  1.5301  0.3763
 6106TIP3    H239878   3.804   4.072   0.798 -0.0422 -0.1350  0.0063
 6107TIP3   OH239879   3.539   0.498   7.939 -0.5944  0.5555 -0.0723
 6107TIP3    H139880   3.506   0.466   8.023  1.2445 -0.7316  0.2107
 6107TIP3    H239881   3.615   0.444   7.920 -0.8220  0.9476 -2.4930
 6108TIP3   OH239882   1.265   4.076   1.919 -0.4313  0.2683 -0.4090
 6108TIP3    H139883   1.249   4.087   1.825  1.3862  2.1315 -0.5849
 6108TIP3    H239884   1.219   4.150   1.959 -0.7620 -0.2201  0.1205
 6109TIP3   OH239885   1.840   6.090   0.552  0.2573  0.1279  0.4656
 6109TIP3    H139886   1.813   6.068   0.641 -1.0996  0.4710  0.1639
 6109TIP3    H239887   1.793   6.027   0.497  1.0470 -0.0498 -0.0177
 6110TIP3   OH239888   0.356   6.052   1.228 -0.2115  0.4829  0.1925
 6110TIP3    H139889   0.421   6.042   1.158 -0.3682 -0.1563  0.1301
 6110TIP3    H239890   0.398   6.110   1.291  0.5318 -0.1292  0.2773
 6111TIP3   OH239891   5.868   2.262   7.170  0.7435  0.3169 -0.0601
 6111TIP3    H139892   5.780   2.243   7.205  1.6657  0.2847  2.4464
 6111TIP3    H239893   5.852   2.292   7.080 -1.8704  0.7798  0.4747
 6112TIP3   OH239894   6.322   1.948   7.172  0.4581 -0.1226  0.3221
 6112TIP3    H139895   6.343   2.040   7.153 -0.7051 -0.3238 -2.5022
 6112TIP3    H239896   6.226   1.946   7.179  0.4047 -1.1947 -0.3821
 6113TIP3   OH239897   1.608   6.504   0.374  0.0985 -0.4446  0.7036
 6113TIP3    H139898   1.652   6.424   0.404 -0.1133 -1.0212 -0.4310
 6113TIP3    H239899   1.678   6.568   0.363  0.4680 -0.9075  0.3178
 6114TIP3   OH239900   2.503   4.249   0.072 -0.1214  0.7278 -0.2623
 6114TIP3    H139901   2.591   4.285   0.058  0.5173 -0.7390 -0.1243
 6114TIP3    H239902   2.449   4.295   0.008  0.4390  2.6778  0.5792
 6115TIP3   OH239903   3.337   3.658   6.681 -0.3060 -0.0381 -0.3929
 6115TIP3    H139904   3.387   3.631   6.605 -0.4642 -0.1827 -0.4449
 6115TIP3    H239905   3.294   3.579   6.712  1.2593 -0.4099  0.9866
 6116TIP3   OH239906   4.632   0.356   0.746  0.3919 -0.4117 -0.4317
 6116TIP3    H139907   4.627   0.261   0.750 -0.0208 -0.5030 -2.3078
 6116TIP3    H239908   4.710   0.374   0.693 -0.1467  0.2557 -1.0174
 6117TIP3   OH239909   4.060   0.256   5.566  0.0837 -0.1508  0.1586
 6117TIP3    H139910   4.038   0.344   5.596  2.1745  0.1519  0.9304
 6117TIP3    H239911   4.155   0.250   5.574  0.2267 -1.7726 -1.8643
 6118TIP3   OH239912   2.200   5.631   7.514 -0.2048  0.1730 -0.2071
 6118TIP3    H139913   2.122   5.578   7.531  0.1884 -0.8543 -1.3846
 6118TIP3    H239914   2.196   5.648   7.419 -0.9141  3.2911  0.2691
 6119TIP3   OH239915   1.713   0.214   0.543  0.3977  0.0790 -0.2599
 6119TIP3    H139916   1.756   0.210   0.458  1.4868  1.1340  0.2016
 6119TIP3    H239917   1.620   0.200   0.524  0.7921 -1.1525 -1.4220
 6120TIP3   OH239918   3.894   6.029   1.532 -0.5540  0.3582  0.7040
 6120TIP3    H139919   3.940   5.945   1.539 -1.2408 -0.0655  0.2324
 6120TIP3    H239920   3.803   6.006   1.513 -0.9176  1.1932  1.3232
 6121TIP3   OH239921   0.086   1.611   0.614 -0.0095  0.2368  0.0019
 6121TIP3    H139922   0.020   1.677   0.593 -1.4028 -1.0129  0.2753
 6121TIP3    H239923   0.052   1.568   0.693  0.7465 -0.9560 -0.2981
 6122TIP3   OH239924   3.619   5.706   1.509 -0.6574 -0.2948 -0.3600
 6122TIP3    H139925   3.712   5.693   1.528 -0.7532 -0.1167  0.2570
 6122TIP3    H239926   3.609   5.674   1.419  0.0450 -0.0907 -0.5227
 6123TIP3   OH239927   0.453   5.588   1.703 -0.2191  0.3469  0.7089
 6123TIP3    H139928   0.482   5.669   1.744 -0.4293  0.3799  0.7928
 6123TIP3    H239929   0.359   5.582   1.724 -0.3975  0.5255 -0.0405
 6124TIP3   OH239930   4.990   2.422   8.027  0.1675 -0.3569  0.1725
 6124TIP3    H139931   5.045   2.379   7.963  1.0883 -0.5215  1.0473
 6124TIP3    H239932   4.913   2.365   8.034  0.1470 -0.4374 -0.6275
 6125TIP3   OH239933   5.425   1.784   2.131 -0.2631 -0.0675  0.2765
 6125TIP3    H139934   5.433   1.710   2.070  0.1767 -1.3596  1.8358
 6125TIP3    H239935   5.335   1.815   2.120  0.1081  0.4109 -1.7380
 6126TIP3   OH239936   2.063   5.242   6.082 -0.5700 -0.8351 -0.0023
 6126TIP3    H139937   2.005   5.210   6.013 -1.9437  0.5403  0.4437
 6126TIP3    H239938   2.064   5.171   6.147 -1.9955 -0.8000  0.0955
 6127TIP3   OH239939   4.856   2.466   7.243 -0.2351 -0.1749  0.4438
 6127TIP3    H139940   4.854   2.422   7.158 -2.8203 -1.1705  0.9344
 6127TIP3    H239941   4.808   2.548   7.229 -1.9043 -0.9766  1.1885
 6128TIP3   OH239942   0.460   2.513   1.895 -0.4583 -0.5202 -0.6619
 6128TIP3    H139943   0.472   2.550   1.808  1.1692 -0.3563 -0.4153
 6128TIP3    H239944   0.498   2.425   1.889 -1.1521 -0.8505 -0.3429
 6129TIP3   OH239945   1.258   5.758   1.747  0.2115 -0.1838  0.4252
 6129TIP3    H139946   1.284   5.836   1.796  0.6078 -0.5514  0.8122
 6129TIP3    H239947   1.165   5.747   1.767 -0.7540  2.0496 -2.2088
 6130TIP3   OH239948   2.295   0.326   8.040  0.0429  0.6017  0.3456
 6130TIP3    H139949   2.341   0.255   7.995  1.6289  1.1946  0.9708
 6130TIP3    H239950   2.275   0.290   8.126 -1.0976  0.2029 -0.0610
 6131TIP3   OH239951   3.136   1.343   6.713  0.0332  0.7391 -0.0525
 6131TIP3    H139952   3.180   1.423   6.686 -0.3622  0.4480 -1.6738
 6131TIP3    H239953   3.155   1.335   6.806  0.3539  2.5262  0.0651
 6132TIP3   OH239954   4.108   0.772   7.191  0.6140 -0.3747  0.3554
 6132TIP3    H139955   4.096   0.807   7.102 -3.1592  0.5443  1.0597
 6132TIP3    H239956   4.098   0.848   7.248  0.7323 -1.3116  1.6634
 6133TIP3   OH239957   6.577   3.120   1.481  0.1760  0.1083  0.4433
 6133TIP3    H139958   6.570   3.184   1.552 -1.0828  1.2153 -0.6228
 6133TIP3    H239959   6.487   3.110   1.450  0.9205  1.1145 -2.2334
 6134TIP3   OH239960   3.948   0.356   0.942 -0.5115 -0.7085  0.4958
 6134TIP3    H139961   4.026   0.335   0.993 -0.3582  1.3742  1.2086
 6134TIP3    H239962   3.965   0.319   0.855  1.9392  0.8717  0.2070
 6135TIP3   OH239963   5.338   1.220   6.205  0.2227  0.0127 -1.0133
 6135TIP3    H139964   5.332   1.310   6.173  0.3641  0.3592 -0.1039
 6135TIP3    H239965   5.283   1.169   6.146 -0.8132  0.8924 -0.8291
 6136TIP3   OH239966   1.341   1.793   0.084  0.5438 -0.1869 -0.3068
 6136TIP3    H139967   1.287   1.865   0.053  0.3648  0.6176  1.6997
 6136TIP3    H239968   1.287   1.715   0.072 -0.1836  0.3257 -0.3710
 6137TIP3   OH239969   6.917   1.669   7.091 -0.1646  0.1069 -0.1358
 6137TIP3    H139970   6.938   1.578   7.071  1.8652  0.1968  1.2699
 6137TIP3    H239971   6.841   1.665   7.148  1.8099 -1.0220  2.6221
 6138TIP3   OH239972   1.040   1.426   7.949  0.2633  0.4775  0.1680
 6138TIP3    H139973   1.078   1.349   7.906 -1.6445 -0.0833 -0.6430
 6138TIP3    H239974   1.002   1.391   8.030 -2.2504  0.1226 -1.0838
 6139TIP3   OH239975   1.758   6.803   8.102 -0.0124  0.3127 -0.1446
 6139TIP3    H139976   1.793   6.784   8.015  0.8604 -0.1642  0.2893
 6139TIP3    H239977   1.690   6.738   8.116  2.6657 -2.4763  1.1559
 6140TIP3   OH239978   1.747   0.723   7.269  0.2869  0.1491  0.3683
 6140TIP3    H139979   1.743   0.686   7.357 -1.1483  1.8153  1.0680
 6140TIP3    H239980   1.747   0.647   7.210 -0.5817 -0.9674  1.7549
 6141TIP3   OH239981   4.368   5.994   6.233 -0.0626  0.2279 -0.2378
 6141TIP3    H139982   4.316   6.074   6.244  1.1108  1.1608 -1.2371
 6141TIP3    H239983   4.451   6.024   6.197  0.8250 -1.3384  0.4193
 6142TIP3   OH239984   4.442   1.227   8.111  0.2545  0.7140 -0.3567
 6142TIP3    H139985   4.450   1.155   8.049 -0.3693  2.1173 -2.1500
 6142TIP3    H239986   4.441   1.306   8.057  1.3462  2.1406  1.5527
 6143TIP3   OH239987   6.990   5.072   6.077 -0.4898 -0.4298 -0.5546
 6143TIP3    H139988   7.033   5.156   6.062 -1.1708  0.0961  0.3431
 6143TIP3    H239989   7.000   5.025   5.994 -1.6855  1.2356 -1.7228
 6144TIP3   OH239990   2.486   0.999   7.273  0.0424  0.0304 -0.1255
 6144TIP3    H139991   2.575   1.034   7.284  0.0040  0.3742 -0.8933
 6144TIP3    H239992   2.497   0.904   7.278  0.4226  0.0788 -0.0086
 6145TIP3   OH239993   3.202   4.764   0.034 -0.3383 -0.1282 -0.0189
 6145TIP3    H139994   3.179   4.685   0.083  0.1079 -0.0683  0.2899
 6145TIP3    H239995   3.226   4.732  -0.053 -0.5995 -0.2879 -0.0335
 6146TIP3   OH239996   0.249   0.681   8.007 -0.1283  0.3609 -0.5692
 6146TIP3    H139997   0.224   0.766   8.043  0.9340  0.0820  0.9397
 6146TIP3    H239998   0.328   0.700   7.956  1.9717 -0.0472  2.2397
 6147TIP3   OH239999   2.755   1.062   8.084  0.2668  0.0116  0.6227
 6147TIP3    H140000   2.812   0.990   8.057  0.6223  0.0009  1.3709
 6147TIP3    H240001   2.724   1.037   8.171 -1.0054 -0.0468  0.1672
 6148TIP3   OH240002   2.794   2.399   6.206 -0.2442  0.0908 -0.1824
 6148TIP3    H140003   2.727   2.465   6.188 -0.1571 -0.3257 -2.3012
 6148TIP3    H240004   2.747   2.316   6.199 -0.0369 -0.1394  0.9911
 6149TIP3   OH240005   3.416   5.416   6.770  0.1217 -0.5139 -0.0402
 6149TIP3    H140006   3.473   5.378   6.836  1.5541  1.9095  0.2358
 6149TIP3    H240007   3.358   5.475   6.818  0.1852  0.1576 -0.7562
 6150TIP3   OH240008   4.322   5.848   1.850 -0.0820  0.3627  0.1238
 6150TIP3    H140009   4.310   5.904   1.774 -0.8488  0.4580  0.3063
 6150TIP3    H240010   4.286   5.898   1.923  1.6175  0.7262  0.7548
 6151TIP3   OH240011   2.866   5.921   6.156 -0.8061 -0.2689 -0.2583
 6151TIP3    H140012   2.810   5.921   6.233  0.5135 -1.0732  0.7467
 6151TIP3    H240013   2.806   5.933   6.082 -2.3593 -1.5919  0.7278
 6152TIP3   OH240014   0.110   6.917   7.221  0.4126 -0.4544 -0.6354
 6152TIP3    H140015   0.187   6.868   7.250  0.2030 -1.7066 -2.0512
 6152TIP3    H240016   0.140   7.007   7.213  1.1969 -0.5796  0.6665
 6153TIP3   OH240017   1.072   3.001   6.068 -0.6709  0.4404  0.1907
 6153TIP3    H140018   1.117   3.037   5.992 -1.0853 -0.2148 -0.3850
 6153TIP3    H240019   1.015   3.071   6.098  0.7235  1.2841  0.9378
 6154TIP3   OH240020   6.160   2.662   1.096  0.6543  0.1312  0.3671
 6154TIP3    H140021   6.164   2.644   1.003  0.3610 -0.5571  0.4752
 6154TIP3    H240022   6.092   2.728   1.105  0.4387 -0.0552  0.1208
 6155TIP3   OH240023   4.814   5.649   7.761  0.6237 -0.1073  0.1133
 6155TIP3    H140024   4.865   5.618   7.835  0.5565 -1.0369 -0.2166
 6155TIP3    H240025   4.854   5.733   7.738  0.6322  0.1940  1.1975
 6156TIP3   OH240026   3.868   1.838   7.610  0.3369 -0.3458 -0.0495
 6156TIP3    H140027   3.853   1.855   7.517 -0.5723  2.0485  0.4582
 6156TIP3    H240028   3.962   1.825   7.617  0.1532 -3.2416 -1.6189
 6157TIP3   OH240029   0.791   4.487   8.101  0.2138  0.5433  0.1084
 6157TIP3    H140030   0.858   4.505   8.035  0.8110 -0.7220  0.3509
 6157TIP3    H240031   0.840   4.463   8.179 -0.5112  0.1658  0.4600
 6158TIP3   OH240032   1.660   0.526   0.117  0.3102  0.1849 -0.2781
 6158TIP3    H140033   1.704   0.607   0.092  1.2098 -0.3349 -0.4270
 6158TIP3    H240034   1.694   0.461   0.056  2.6051 -1.1385  2.2272
 6159TIP3   OH240035   4.027   6.268   1.660  0.1504  0.5359  0.0206
 6159TIP3    H140036   3.996   6.246   1.748  1.3811  1.0333  0.5966
 6159TIP3    H240037   3.963   6.226   1.602  0.1642 -1.1186  1.1139
 6160TIP3   OH240038   4.564   5.884   7.470  0.1437 -0.7340 -0.1523
 6160TIP3    H140039   4.549   5.864   7.378  0.6668 -1.7747 -0.0355
 6160TIP3    H240040   4.590   5.976   7.471 -1.9486 -0.0920 -0.7821
 6161TIP3   OH240041   1.171   6.582   7.203  0.3477 -0.3117 -0.5326
 6161TIP3    H140042   1.234   6.515   7.176  0.5397 -0.0411 -0.7628
 6161TIP3    H240043   1.214   6.665   7.184  0.8455 -0.0817  1.4224
 6162TIP3   OH240044   1.063   3.118   1.125 -0.3040  0.4074 -0.0420
 6162TIP3    H140045   1.157   3.119   1.140 -0.2156  0.5507 -0.5907
 6162TIP3    H240046   1.040   3.026   1.115 -0.3235  0.3266  0.6849
 6163TIP3   OH240047   2.304   6.413   0.440  0.1519  0.2391 -0.0215
 6163TIP3    H140048   2.211   6.430   0.459  0.3645  0.0504  1.3023
 6163TIP3    H240049   2.303   6.363   0.358 -0.7521  2.4279 -1.4325
 6164TIP3   OH240050   1.405   2.568   0.572 -0.0841 -0.1964  0.1704
 6164TIP3    H140051   1.368   2.650   0.540  0.1172 -0.3706 -0.5444
 6164TIP3    H240052   1.450   2.531   0.495 -0.7407 -1.3024  0.3018
 6165TIP3   OH240053   6.398   4.781   1.292 -0.9468 -0.5238 -0.0600
 6165TIP3    H140054   6.369   4.711   1.234 -0.8539 -0.3430 -0.3267
 6165TIP3    H240055   6.445   4.842   1.234  0.0846 -0.8777  0.3730
 6166TIP3   OH240056   4.494   6.409   1.746  0.6942  0.6119 -0.4329
 6166TIP3    H140057   4.453   6.335   1.703  1.8147 -0.1307 -0.2519
 6166TIP3    H240058   4.423   6.472   1.759  0.2890  0.8529 -3.2715
 6167TIP3   OH240059   6.770   4.617   0.315  0.7309  0.2891 -0.1180
 6167TIP3    H140060   6.830   4.688   0.337 -0.3319  1.4068 -0.7437
 6167TIP3    H240061   6.824   4.555   0.265  1.2178  1.5696 -1.2233
 6168TIP3   OH240062   4.875   0.282   0.621 -0.0252 -0.6563  0.1127
 6168TIP3    H140063   4.859   0.364   0.574  1.8395 -0.0824  0.3955
 6168TIP3    H240064   4.875   0.215   0.553 -2.3914 -0.6129 -0.0283
 6169TIP3   OH240065   5.352   4.400   0.727  0.0551 -0.5882 -0.0748
 6169TIP3    H140066   5.387   4.361   0.807 -2.0134  0.3919  1.4052
 6169TIP3    H240067   5.265   4.431   0.752 -0.2690  0.6393 -2.4711
 6170TIP3   OH240068   2.643   6.988   7.718  0.1003 -0.7813 -0.3964
 6170TIP3    H140069   2.647   6.893   7.731 -1.0873 -0.8088 -0.0875
 6170TIP3    H240070   2.700   7.024   7.787 -1.3846 -1.1844  1.1106
 6171TIP3   OH240071   1.453   4.286   1.948 -0.1098 -0.2015 -0.0267
 6171TIP3    H140072   1.368   4.265   1.987 -0.3608 -0.5452 -0.7534
 6171TIP3    H240073   1.514   4.282   2.022 -0.7463  0.2236  0.5346
 6172TIP3   OH240074   1.468   5.370   7.524 -0.3907  0.0587  0.3104
 6172TIP3    H140075   1.449   5.344   7.614  1.6921 -0.1001  0.7513
 6172TIP3    H240076   1.552   5.328   7.504 -1.2816 -0.7518 -2.0733
 6173TIP3   OH240077   5.819   1.797   1.323 -0.5949  0.4093  0.1878
 6173TIP3    H140078   5.750   1.807   1.388  0.2683 -1.0158  1.3908
 6173TIP3    H240079   5.898   1.828   1.366 -0.1596  0.3172 -0.5161
 6174TIP3   OH240080   0.511   5.372   1.102  0.1384 -0.2628  0.9660
 6174TIP3    H140081   0.564   5.397   1.177  0.0649  0.6574  0.7188
 6174TIP3    H240082   0.421   5.389   1.129  0.0981 -0.1089  0.7424
 6175TIP3   OH240083   5.580   5.326   1.257  0.1925 -0.0270 -0.2824
 6175TIP3    H140084   5.610   5.374   1.334  1.3959 -0.2472 -0.5963
 6175TIP3    H240085   5.660   5.296   1.215 -0.4484  0.0694 -1.6159
 6176TIP3   OH240086   2.414   3.501   6.175 -0.2321  0.1215  0.1579
 6176TIP3    H140087   2.437   3.574   6.233  2.8638 -1.0986  0.6693
 6176TIP3    H240088   2.453   3.524   6.091  3.4392 -1.9623  1.0230
 6177TIP3   OH240089   1.722   3.116   6.805 -0.1292 -0.6343  0.8212
 6177TIP3    H140090   1.771   3.184   6.758  0.2324 -0.4777  1.4135
 6177TIP3    H240091   1.660   3.082   6.740  0.0794 -0.1378  0.3525
 6178TIP3   OH240092   4.599   6.139   0.114 -0.0590 -0.1546 -0.4630
 6178TIP3    H140093   4.538   6.070   0.090  1.7601 -1.9852 -0.1491
 6178TIP3    H240094   4.611   6.129   0.208 -0.6629  1.4087 -0.1858
 6179TIP3   OH240095   6.238   1.175   0.524  0.7524 -0.2966 -0.2624
 6179TIP3    H140096   6.149   1.167   0.490 -0.7926  0.1391  3.2580
 6179TIP3    H240097   6.254   1.269   0.528  1.4767 -0.3723 -0.9902
 6180TIP3   OH240098   4.281   6.006   1.623  0.2794 -0.0580 -0.3116
 6180TIP3    H140099   4.196   5.983   1.584 -0.0710  0.2073  0.2899
 6180TIP3    H240100   4.266   6.091   1.664  1.2799  0.7694 -1.5948
 6181TIP3   OH240101   3.592   5.585   8.145  0.8217 -0.8300  0.1944
 6181TIP3    H140102   3.537   5.654   8.109  0.8566 -1.3284 -0.8442
 6181TIP3    H240103   3.680   5.624   8.148  0.9771 -1.0590 -1.0775
 6182TIP3   OH240104   4.165   3.233   6.825  0.3237  0.0085 -0.2747
 6182TIP3    H140105   4.245   3.219   6.773  1.8374  0.3659  1.8317
 6182TIP3    H240106   4.180   3.317   6.869 -1.6477  0.5332 -0.5004
 6183TIP3   OH240107   1.960   6.998   7.478 -0.0437 -0.6952 -0.3302
 6183TIP3    H140108   2.027   7.066   7.490  0.9957 -1.6609 -0.5516
 6183TIP3    H240109   1.918   6.992   7.563  0.6386 -0.5790  0.0273
 6184TIP3   OH240110   2.054   1.450   5.884 -0.1771 -0.0614  0.3476
 6184TIP3    H140111   2.043   1.536   5.842 -1.2269 -0.0961  0.5158
 6184TIP3    H240112   1.970   1.434   5.927  0.2733 -0.8354  0.9631
 6185TIP3   OH240113   3.180   1.157   6.524  0.1688  0.1490 -0.0420
 6185TIP3    H140114   3.203   1.070   6.558 -2.1773 -0.7996 -0.6220
 6185TIP3    H240115   3.170   1.211   6.602  1.3586 -0.1631  0.3471
 6186TIP3   OH240116   4.652   6.064   0.379  0.0867 -0.3555  0.2266
 6186TIP3    H140117   4.566   6.057   0.421  0.3862 -0.4906  0.8417
 6186TIP3    H240118   4.702   6.121   0.437  0.7082 -1.0528  0.3987
 6187TIP3   OH240119   0.931   4.528   7.552  0.2921 -0.1188 -0.2162
 6187TIP3    H140120   0.990   4.509   7.479  0.0113 -0.6096 -0.3183
 6187TIP3    H240121   0.968   4.479   7.626  0.5083  0.2806 -0.0548
 6188TIP3   OH240122   0.353   0.886   0.910 -0.3325 -0.2007  0.6893
 6188TIP3    H140123   0.286   0.949   0.936  2.0318  1.9321  2.0805
 6188TIP3    H240124   0.368   0.904   0.817 -0.6790  0.3077  0.7269
 6189TIP3   OH240125   4.266   4.316   6.024 -0.2382 -0.3757 -0.1015
 6189TIP3    H140126   4.342   4.260   6.009  0.2974 -0.0334  1.2061
 6189TIP3    H240127   4.205   4.293   5.954  1.3216 -0.1950 -1.5914
 6190TIP3   OH240128   6.630   4.500   0.850  0.6128  0.3825 -0.2198
 6190TIP3    H140129   6.567   4.435   0.817  1.9276 -2.2654  2.1120
 6190TIP3    H240130   6.706   4.492   0.792 -0.4601  2.5179 -2.1041
 6191TIP3   OH240131   3.625   6.217   2.317 -0.4439 -0.7105  0.2703
 6191TIP3    H140132   3.577   6.297   2.340  0.0620  1.3471 -4.5343
 6191TIP3    H240133   3.562   6.164   2.269  0.4116 -0.7888 -0.8375
 6192TIP3   OH240134   2.703   5.823   7.332 -0.2650  0.7788  0.0826
 6192TIP3    H140135   2.696   5.894   7.268 -0.4203  1.1803  0.5357
 6192TIP3    H240136   2.723   5.868   7.415 -2.6799  0.5228  0.8794
 6193TIP3   OH240137   5.089   2.992   1.132 -0.7189  0.0962  0.3763
 6193TIP3    H140138   5.090   3.037   1.048 -2.0301 -1.0701 -0.3175
 6193TIP3    H240139   5.110   2.901   1.111 -0.4910 -0.0992  1.3918
 6194TIP3   OH240140   3.487   6.343   0.082  0.4288 -0.0385 -0.1795
 6194TIP3    H140141   3.444   6.426   0.103  0.4744  0.4134 -1.7438
 6194TIP3    H240142   3.540   6.323   0.159  2.3828  2.6718 -0.6690
 6195TIP3   OH240143   6.944   2.322   6.372  0.4690 -0.0204  0.3845
 6195TIP3    H140144   6.894   2.265   6.314 -3.1398  2.3683  0.8399
 6195TIP3    H240145   6.962   2.400   6.320  0.8616  0.4850  1.2532
 6196TIP3   OH240146   2.116   6.943   7.956  0.2858  0.4580 -0.2343
 6196TIP3    H140147   2.063   6.913   8.030 -0.4811  0.0658 -0.9233
 6196TIP3    H240148   2.074   7.025   7.929  1.1774  1.1337  0.3940
 6197TIP3   OH240149   2.467   5.894   8.253  0.5122 -0.2027 -0.5236
 6197TIP3    H140150   2.526   5.934   8.317 -1.8479  0.7457  1.2385
 6197TIP3    H240151   2.399   5.852   8.307  0.1025 -2.1358 -2.4164
 6198TIP3   OH240152   5.779   1.536   0.932 -0.0337 -0.1642 -0.1589
 6198TIP3    H140153   5.858   1.559   0.882  0.2417  1.9225  1.1371
 6198TIP3    H240154   5.779   1.597   1.006 -3.7893  1.1035 -1.0139
 6199TIP3   OH240155   6.281   0.532   7.812  0.1791 -0.0601  0.2578
 6199TIP3    H140156   6.363   0.575   7.835  0.5542 -0.7250  0.1945
 6199TIP3    H240157   6.232   0.598   7.762  1.4372 -0.2339 -1.2735
 6200TIP3   OH240158   4.450   6.887   7.408 -0.1309 -0.2353 -0.0880
 6200TIP3    H140159   4.440   6.794   7.430  1.1712 -0.0494  1.4521
 6200TIP3    H240160   4.515   6.919   7.469 -0.1690  1.5976 -0.9500
 6201TIP3   OH240161   6.342   6.798   1.468 -0.0451  0.2647 -0.1492
 6201TIP3    H140162   6.326   6.736   1.397 -0.6482 -1.9436  1.7635
 6201TIP3    H240163   6.266   6.856   1.467 -1.0644 -1.0118 -0.1149
 6202TIP3   OH240164   5.808   3.636   6.514  0.1240  0.1704  0.2432
 6202TIP3    H140165   5.867   3.705   6.483 -0.3445  1.0509  1.2601
 6202TIP3    H240166   5.850   3.603   6.593  0.1534 -0.4665 -0.0338
 6203TIP3   OH240167   1.545   3.711   0.597 -0.3543  0.2157 -0.6002
 6203TIP3    H140168   1.474   3.701   0.533  0.3910 -1.0030 -1.2756
 6203TIP3    H240169   1.499   3.716   0.682 -1.2666 -0.4264 -1.0314
 6204TIP3   OH240170   2.294   2.731   0.433 -0.0070  0.2660  0.5106
 6204TIP3    H140171   2.232   2.682   0.379  0.5605  0.1728 -0.0575
 6204TIP3    H240172   2.370   2.745   0.377  0.2630  0.8803  1.0174
 6205TIP3   OH240173   4.929   3.565   7.676  0.5522 -0.0449 -0.3509
 6205TIP3    H140174   4.909   3.610   7.758 -0.8610 -1.5415  0.2046
 6205TIP3    H240175   4.885   3.617   7.609  0.4943  0.3984  0.0223
 6206TIP3   OH240176   4.492   6.361   0.401 -0.5162 -0.9558  0.0565
 6206TIP3    H140177   4.565   6.412   0.366  0.5778 -1.6039  1.2814
 6206TIP3    H240178   4.526   6.324   0.483 -1.9392 -1.9872  0.2197
 6207TIP3   OH240179   7.021   3.947   1.920 -0.3330 -0.3107 -0.1188
 6207TIP3    H140180   6.971   3.866   1.928 -2.4567  0.9651  0.3830
 6207TIP3    H240181   6.999   3.996   1.999 -0.3054  1.3490 -1.0904
 6208TIP3   OH240182   3.505   5.033   6.623  0.7235 -0.2657  0.1093
 6208TIP3    H140183   3.575   4.995   6.677  0.1191 -1.5018  0.0533
 6208TIP3    H240184   3.431   5.042   6.683  0.8308  0.7897  0.1027
 6209TIP3   OH240185   6.309   3.502   7.604 -0.0130 -0.1050  0.1960
 6209TIP3    H140186   6.343   3.495   7.515 -0.0280 -1.5559  0.2864
 6209TIP3    H240187   6.361   3.573   7.644 -0.3005  0.8517 -1.0723
 6210TIP3   OH240188   3.248   1.856   0.514 -0.3016  0.4114 -0.0618
 6210TIP3    H140189   3.160   1.865   0.478 -0.2545 -0.0647 -0.3020
 6210TIP3    H240190   3.277   1.770   0.485 -0.2906 -0.0104  1.1757
 6211TIP3   OH240191   2.407   1.655   7.543 -0.3471 -0.2104 -0.7014
 6211TIP3    H140192   2.326   1.604   7.554 -0.9151  0.7310 -0.4360
 6211TIP3    H240193   2.380   1.746   7.555  0.1265  0.4437 -3.6488
 6212TIP3   OH240194   0.305   6.040   8.129  0.5537  0.0295 -0.1799
 6212TIP3    H140195   0.340   5.952   8.142  2.6903  0.6577 -1.2934
 6212TIP3    H240196   0.357   6.095   8.188 -0.7443  0.5876  0.4846
 6213TIP3   OH240197   2.533   4.720   0.459  0.0592  0.3969 -0.3101
 6213TIP3    H140198   2.588   4.781   0.410 -1.0975  0.6411 -1.3367
 6213TIP3    H240199   2.509   4.653   0.395  0.4096 -0.5648  0.5246
 6214TIP3   OH240200   2.701   0.044   6.621  0.2844 -0.4263  0.5319
 6214TIP3    H140201   2.694  -0.018   6.548  3.0651  0.5312 -0.6757
 6214TIP3    H240202   2.791   0.077   6.616 -0.5638  2.4665  2.1484
 6215TIP3   OH240203   5.480   5.988   1.529  0.0738 -0.0313 -0.2840
 6215TIP3    H140204   5.414   6.020   1.591 -0.3856  0.2933 -0.9352
 6215TIP3    H240205   5.558   5.974   1.583 -0.2185  0.5640  0.3099
 6216TIP3   OH240206   2.257   5.832   0.242 -0.2014  0.1296  0.1286
 6216TIP3    H140207   2.250   5.737   0.249  0.9423  0.0228 -0.0148
 6216TIP3    H240208   2.228   5.864   0.328 -0.4150 -0.3589  0.2425
 6217TIP3   OH240209   3.135   5.024   0.566  0.2740 -0.1637  0.4091
 6217TIP3    H140210   3.134   4.928   0.563 -1.8049 -0.1572 -0.3471
 6217TIP3    H240211   3.068   5.047   0.630  0.4883  0.7958  0.3065
 6218TIP3   OH240212   5.786   0.136   0.322  0.1813 -0.1202 -0.3513
 6218TIP3    H140213   5.876   0.103   0.311 -0.0486 -0.9625  0.2066
 6218TIP3    H240214   5.797   0.230   0.337  1.0522 -0.3761  0.7881
 6219TIP3   OH240215   3.164   5.508   7.553  0.0187  0.1401 -0.1707
 6219TIP3    H140216   3.070   5.494   7.565 -0.4921  1.2369 -2.4397
 6219TIP3    H240217   3.203   5.423   7.572 -1.2256  0.0084  2.2068
 6220TIP3   OH240218   1.688   3.657   7.899  0.5019  0.4807 -0.5795
 6220TIP3    H140219   1.633   3.667   7.821 -0.8233  2.1387  0.4986
 6220TIP3    H240220   1.747   3.732   7.896 -0.7617  1.5963  0.8841
 6221TIP3   OH240221   3.111   6.587   0.039 -0.1208 -0.3452  0.8301
 6221TIP3    H140222   3.121   6.509  -0.016  0.9862  0.1046  0.3768
 6221TIP3    H240223   3.186   6.584   0.099  0.3515  0.7535  0.3196
 6222TIP3   OH240224   1.185   1.148   6.133 -0.1558 -0.0885  0.1108
 6222TIP3    H140225   1.214   1.096   6.058 -0.1599 -0.7551  0.5712
 6222TIP3    H240226   1.264   1.191   6.165  0.2247 -1.3180  0.9058
 6223TIP3   OH240227   4.037   2.783   0.431  0.0466 -0.3382 -0.2638
 6223TIP3    H140228   4.014   2.872   0.458  0.3554 -0.5716  0.8412
 6223TIP3    H240229   3.953   2.738   0.422 -0.1015  0.0060 -0.6105
 6224TIP3   OH240230   4.108   0.348   6.983 -0.0406 -0.0242  0.1840
 6224TIP3    H140231   4.087   0.337   7.076 -1.4679 -0.1123 -0.1268
 6224TIP3    H240232   4.153   0.268   6.959  0.8159  0.2171  0.9117
 6225TIP3   OH240233   2.759   2.476   6.936  0.0147  0.0157 -0.3529
 6225TIP3    H140234   2.748   2.545   7.002 -0.0694 -0.9786  0.7020
 6225TIP3    H240235   2.697   2.408   6.961  1.3729 -1.2567 -0.2695
 6226TIP3   OH240236   4.738   1.419   1.265  0.4784 -0.4815 -0.2563
 6226TIP3    H140237   4.668   1.409   1.200  0.3705  2.7943 -0.8243
 6226TIP3    H240238   4.700   1.387   1.347 -0.8044 -1.0092 -1.0265
 6227TIP3   OH240239   1.786   2.109   7.167 -0.5985 -0.3483 -0.7687
 6227TIP3    H140240   1.796   2.162   7.246 -2.3570 -0.3784 -0.4995
 6227TIP3    H240241   1.876   2.098   7.134  0.0380  0.6613  0.5526
 6228TIP3   OH240242   0.911   0.084   0.548  0.7905  0.3218  0.6731
 6228TIP3    H140243   1.000   0.097   0.581  0.7200 -0.1064  1.0440
 6228TIP3    H240244   0.875   0.013   0.602  0.4870 -0.0362  0.0201
 6229TIP3   OH240245   0.515   4.715   7.996  0.3615  0.4682  0.0334
 6229TIP3    H140246   0.450   4.646   8.007 -0.3267  1.1905  0.6113
 6229TIP3    H240247   0.491   4.756   7.912 -1.2183  2.0147  1.1577
 6230TIP3   OH240248   3.477   6.499   1.967  0.1090  0.1575 -0.3904
 6230TIP3    H140249   3.546   6.539   2.021 -0.9396 -0.4552  1.5052
 6230TIP3    H240250   3.483   6.545   1.883  0.9459  2.1304  0.6706
 6231TIP3   OH240251   4.589   6.403   0.122 -0.3809  0.6085 -0.1963
 6231TIP3    H140252   4.679   6.433   0.112  0.4922 -1.3155  1.3642
 6231TIP3    H240253   4.596   6.308   0.130 -2.6522  0.3165 -0.9919
 6232TIP3   OH240254   3.276   5.524   0.351  0.5192  0.0129  0.0997
 6232TIP3    H140255   3.299   5.584   0.279 -0.4691 -1.8864 -1.9030
 6232TIP3    H240256   3.328   5.556   0.425  1.8260  1.8995 -1.5027
 6233TIP3   OH240257   6.361   2.856   7.309  0.3239 -0.7999 -0.3679
 6233TIP3    H140258   6.446   2.899   7.306 -0.1119  0.1790  0.4975
 6233TIP3    H240259   6.336   2.859   7.402 -1.6727  1.0513 -0.8705
 6234TIP3   OH240260   0.476   2.990   7.026 -0.5538 -0.4894 -0.1666
 6234TIP3    H140261   0.494   2.900   6.996  0.2548 -0.8188  1.2096
 6234TIP3    H240262   0.447   2.979   7.117  0.8087  0.7334  0.4366
 6235TIP3   OH240263   4.999   2.308   0.358  0.2610 -0.1951  0.0542
 6235TIP3    H140264   4.959   2.272   0.279  0.4309 -1.0978  0.3688
 6235TIP3    H240265   4.978   2.401   0.355  0.0653 -0.2562 -0.9347
 6236TIP3   OH240266   4.573   6.690   7.280 -0.0312 -0.2598  0.1321
 6236TIP3    H140267   4.572   6.621   7.214 -0.0475  0.5497 -0.7355
 6236TIP3    H240268   4.490   6.736   7.267  0.0009 -0.0473  0.6689
 6237TIP3   OH240269   4.127   4.772   0.050 -0.2056  0.0296  0.2911
 6237TIP3    H140270   4.042   4.753   0.011  0.1687 -0.4208 -0.3210
 6237TIP3    H240271   4.115   4.855   0.096 -0.7955  0.3123 -0.3655
 6238TIP3   OH240272   3.383   6.079   0.767  0.4528  0.3752  0.3214
 6238TIP3    H140273   3.461   6.100   0.716  0.9452  1.9989  1.6451
 6238TIP3    H240274   3.416   6.029   0.842 -0.1942 -1.5496 -0.6295
 6239TIP3   OH240275   4.006   5.438   2.486 -0.7203  0.2320 -0.0635
 6239TIP3    H140276   4.038   5.519   2.448  0.8899 -0.4276 -0.2064
 6239TIP3    H240277   4.036   5.440   2.577 -1.1641  0.0449  0.0912
 6240TIP3   OH240278   3.518   2.141   1.336 -0.1942 -0.1649  0.2908
 6240TIP3    H140279   3.532   2.211   1.400  2.1713 -0.6374  0.3619
 6240TIP3    H240280   3.542   2.061   1.382  0.8129 -0.5976 -0.9227
 6241TIP3   OH240281   1.167   0.249   0.017 -0.2914  0.5611  0.2577
 6241TIP3    H140282   1.213   0.223   0.097  0.6476  0.1500 -0.3932
 6241TIP3    H240283   1.194   0.183  -0.048 -1.9389  0.2175 -0.1068
 6242TIP3   OH240284   4.261   1.804   6.514  0.3641  0.2952 -0.1551
 6242TIP3    H140285   4.331   1.851   6.468  1.2527 -1.8098 -1.0666
 6242TIP3    H240286   4.306   1.730   6.556 -1.2829 -1.0268 -0.6418
 6243TIP3   OH240287   1.150   2.409   1.711 -0.1071 -0.1509 -0.3389
 6243TIP3    H140288   1.098   2.335   1.679  1.3788 -1.4921  0.2020
 6243TIP3    H240289   1.204   2.372   1.780  0.2897  1.5959  0.3339
 6244TIP3   OH240290   1.867   2.716   0.286 -0.0162 -0.2149 -0.5923
 6244TIP3    H140291   1.824   2.719   0.201 -1.7163 -0.2935  0.2186
 6244TIP3    H240292   1.796   2.702   0.349  1.1157  0.3530  0.8970
 6245TIP3   OH240293   4.857   1.202   1.153  0.0384  0.2162  1.0714
 6245TIP3    H140294   4.852   1.232   1.062 -1.7115  1.2238  1.4537
 6245TIP3    H240295   4.834   1.279   1.205 -2.7909 -1.2454  2.1813
 6246TIP3   OH240296   0.044   0.040   0.592 -0.0773  0.0945 -0.2492
 6246TIP3    H140297   0.101   0.012   0.521 -0.7744 -0.0721 -0.7487
 6246TIP3    H240298   0.105   0.070   0.661  0.5830  1.5758 -1.4316
 6247TIP3   OH240299   6.891   1.715   0.655 -0.4195  0.0934 -0.9362
 6247TIP3    H140300   6.878   1.807   0.679  2.9054  1.4515 -3.4904
 6247TIP3    H240301   6.826   1.699   0.587  0.7594  1.5751 -2.4970
 6248TIP3   OH240302   2.037   5.500   5.990  0.2688  0.1603  0.2606
 6248TIP3    H140303   2.056   5.419   6.038 -1.2575  0.2348  1.0480
 6248TIP3    H240304   2.071   5.484   5.903  1.5212 -0.6719  0.8722
 6249TIP3   OH240305   1.221   1.050   5.862  1.1851 -0.7135 -0.1850
 6249TIP3    H140306   1.313   1.074   5.862  0.5784  1.9152 -0.2069
 6249TIP3    H240307   1.178   1.119   5.812 -1.2167  0.3315  2.9298
 6250TIP3   OH240308   4.303   1.059   7.380 -0.0780  0.4626  0.2652
 6250TIP3    H140309   4.370   1.047   7.313 -0.0268  0.1154  0.3808
 6250TIP3    H240310   4.311   1.152   7.405  0.8047  0.2732  0.7461
 6251TIP3   OH240311   4.093   1.885   5.966  0.3782 -0.3047  0.5431
 6251TIP3    H140312   4.144   1.961   5.940 -1.3629  1.6435  2.4483
 6251TIP3    H240313   4.077   1.838   5.884  1.2408  1.5340 -0.7555
 6252TIP3   OH240314   4.099   0.395   6.605 -0.3528  0.0886  0.0198
 6252TIP3    H140315   4.136   0.477   6.573 -1.2963  1.1382  1.5037
 6252TIP3    H240316   4.013   0.389   6.565  0.1496 -0.7946 -0.9889
 6253TIP3   OH240317   2.469   5.709   8.052 -0.4475 -0.5296  0.0651
 6253TIP3    H140318   2.465   5.774   8.123 -1.1799 -0.1967 -0.2712
 6253TIP3    H240319   2.521   5.752   7.984 -0.9109 -0.2928 -0.1475
 6254TIP3   OH240320   5.397   6.551   7.920  0.0256 -0.7074 -0.0684
 6254TIP3    H140321   5.401   6.642   7.950 -0.9430 -0.1021 -1.6383
 6254TIP3    H240322   5.466   6.544   7.854 -2.6325  0.2889 -3.2356
 6255TIP3   OH240323   5.576   6.272   7.821  0.3324  1.0195 -0.5673
 6255TIP3    H140324   5.602   6.364   7.815  0.8888  0.7507 -3.6860
 6255TIP3    H240325   5.634   6.226   7.760 -0.3864 -1.3211  0.3892
 6256TIP3   OH240326   4.262   3.710   8.221  0.0299  0.3134 -0.8945
 6256TIP3    H140327   4.216   3.649   8.278 -0.0872  1.1943 -0.0261
 6256TIP3    H240328   4.234   3.686   8.133 -0.1650 -0.7518 -0.5518
 6257TIP3   OH240329   0.272   0.206   1.136 -0.1150 -0.2918 -0.7148
 6257TIP3    H140330   0.256   0.111   1.141 -1.1903 -0.2023 -1.8034
 6257TIP3    H240331   0.194   0.240   1.091  0.6536  1.0005 -1.0989
 6258TIP3   OH240332   4.461   5.471   6.904 -0.2923 -0.2396 -0.3746
 6258TIP3    H140333   4.512   5.540   6.861 -0.4008  0.3249  0.3732
 6258TIP3    H240334   4.420   5.423   6.833 -1.2340  1.2524 -0.8838
 6259TIP3   OH240335   1.544   5.893   1.506  0.1421  0.3035  0.1826
 6259TIP3    H140336   1.554   5.860   1.417  0.0942 -0.7686  0.5597
 6259TIP3    H240337   1.629   5.932   1.527  0.4057 -0.1491 -0.0457
 6260TIP3   OH240338   6.338   5.815   1.465  0.0506  0.0755  0.3751
 6260TIP3    H140339   6.344   5.738   1.409  0.6565 -1.1551  2.0471
 6260TIP3    H240340   6.245   5.839   1.465 -0.5578 -2.0307  1.5289
 6261TIP3   OH240341   6.140   6.984   1.661 -0.1140  0.2304  0.2124
 6261TIP3    H140342   6.080   7.035   1.715 -3.7300 -1.5485 -1.7847
 6261TIP3    H240343   6.144   6.898   1.705 -1.2207 -0.4872 -1.0265
 6262TIP3   OH240344   4.822   5.683   8.186 -0.4030  0.1376  0.0282
 6262TIP3    H140345   4.783   5.596   8.194 -1.2545  0.5729  0.8632
 6262TIP3    H240346   4.915   5.666   8.169 -0.6986 -0.9255 -0.6147
 6263TIP3   OH240347   5.836   3.300   6.769  0.0133  0.2408 -0.4402
 6263TIP3    H140348   5.922   3.289   6.728  0.2255 -0.1718  0.1032
 6263TIP3    H240349   5.828   3.394   6.783  1.2250  0.1508  1.2444
 6264TIP3   OH240350   0.828   2.050   2.061  0.4877 -0.9956 -0.1869
 6264TIP3    H140351   0.852   1.957   2.069  1.9302 -0.5518  1.2185
 6264TIP3    H240352   0.781   2.069   2.142  0.7076 -0.3632 -0.2048
 6265TIP3   OH240353   2.400   1.014   7.582 -0.1529  0.0744 -0.0387
 6265TIP3    H140354   2.336   0.976   7.522 -0.3084  0.7516 -0.3163
 6265TIP3    H240355   2.385   1.108   7.575 -0.6795  0.1405  1.6177
 6266TIP3   OH240356   3.197   3.713   6.155 -0.0738 -0.1657 -0.1295
 6266TIP3    H140357   3.211   3.654   6.229 -1.0080  0.0975  0.2739
 6266TIP3    H240358   3.205   3.656   6.078 -0.4537 -0.7254  0.2345
 6267TIP3   OH240359   4.071   6.254   0.979  0.3839  0.1364  0.2727
 6267TIP3    H140360   4.108   6.333   0.940  0.2575  0.2120  0.3053
 6267TIP3    H240361   4.077   6.268   1.073  1.2514 -0.3093  0.2879
 6268TIP3   OH240362   4.647   5.004   8.264  0.3772 -0.1504 -0.3380
 6268TIP3    H140363   4.654   4.912   8.289  2.5778 -0.2946 -1.3116
 6268TIP3    H240364   4.718   5.019   8.202  0.0785  2.2151 -0.2314
 6269TIP3   OH240365   0.579   5.355   7.739  0.2077  1.1222  0.0623
 6269TIP3    H140366   0.610   5.274   7.779 -0.3661  0.6630 -0.4152
 6269TIP3    H240367   0.588   5.341   7.645 -0.9988  1.1443 -0.0792
 6270TIP3   OH240368   4.914   1.410   7.150 -0.0123  0.4525  0.5968
 6270TIP3    H140369   4.886   1.318   7.145 -0.9209  0.6872  1.0860
 6270TIP3    H240370   4.997   1.413   7.103 -0.4255 -0.4372 -0.2070
 6271TIP3   OH240371   7.046   6.539   0.656  0.0161 -0.1348 -0.4604
 6271TIP3    H140372   7.040   6.627   0.694  1.2810 -0.7413  1.3018
 6271TIP3    H240373   6.957   6.520   0.625 -1.0990  0.5539  2.0252
 6272TIP3   OH240374   3.526   1.680   1.178  0.1649 -0.2026  0.7415
 6272TIP3    H140375   3.497   1.768   1.155  2.3187  0.2494 -0.5950
 6272TIP3    H240376   3.501   1.626   1.103  0.9472 -0.2137  0.4800
 6273TIP3   OH240377   5.702   1.817   7.944 -0.0391  0.2868 -0.2725
 6273TIP3    H140378   5.699   1.800   8.038  1.4713  0.6162 -0.1315
 6273TIP3    H240379   5.728   1.909   7.937  1.4572 -0.1450 -0.9706
 6274TIP3   OH240380   0.025   2.797   7.345 -0.2826 -0.7648 -0.0927
 6274TIP3    H140381  -0.015   2.716   7.314 -0.1720 -1.3746  1.3114
 6274TIP3    H240382   0.033   2.786   7.440  1.8906 -0.0779 -0.1329
 6275TIP3   OH240383   0.989   6.648   6.806  0.5308 -0.2464  0.2618
 6275TIP3    H140384   1.043   6.702   6.863  1.8029 -0.1509 -0.9628
 6275TIP3    H240385   0.920   6.707   6.776 -0.0276 -0.2472  1.5252
 6276TIP3   OH240386   6.995   4.176   1.734 -0.1653 -0.7974  0.8794
 6276TIP3    H140387   7.009   4.258   1.687 -1.5514 -0.8124  0.4049
 6276TIP3    H240388   6.909   4.186   1.775 -0.4481 -2.0859  0.6468
 6277TIP3   OH240389   1.145   5.901   7.934  0.2898  0.2573 -0.0810
 6277TIP3    H140390   1.124   5.894   7.841 -1.0707 -0.6615  0.2657
 6277TIP3    H240391   1.239   5.881   7.939  0.4624  0.7024 -1.2843
 6278TIP3   OH240392   2.548   5.754   7.797 -0.4486 -0.4788  0.1553
 6278TIP3    H140393   2.490   5.740   7.722  0.0452 -0.9462 -0.1410
 6278TIP3    H240394   2.570   5.666   7.827  2.3183 -0.4222 -1.4335
 6279TIP3   OH240395   3.696   0.755   7.200  0.1330 -0.0479  0.1782
 6279TIP3    H140396   3.604   0.781   7.211 -0.2903  0.4455 -3.2422
 6279TIP3    H240397   3.746   0.829   7.234 -0.8571  0.9387 -0.4276
 6280TIP3   OH240398   1.246   1.555   6.329  0.1451 -0.1548  0.3137
 6280TIP3    H140399   1.240   1.625   6.264  0.0455  1.0921  1.6151
 6280TIP3    H240400   1.338   1.554   6.355  0.7528 -2.3723 -1.6086
 6281TIP3   OH240401   1.110   2.660   1.594 -0.1612  0.2448 -0.2700
 6281TIP3    H140402   1.143   2.660   1.504  0.8772  0.6265  0.0974
 6281TIP3    H240403   1.125   2.571   1.626 -0.7425  0.0446 -0.5411
 6282TIP3   OH240404   6.319   3.011   1.672  0.0931  0.2983 -0.2757
 6282TIP3    H140405   6.317   3.106   1.680 -1.8115  0.4253 -1.6098
 6282TIP3    H240406   6.297   2.978   1.759 -2.2859  1.1861 -0.4712
 6283TIP3   OH240407   0.570   3.819   6.970  0.2463  0.3557 -0.4094
 6283TIP3    H140408   0.500   3.757   6.949 -0.0028  1.0937 -1.8515
 6283TIP3    H240409   0.563   3.887   6.903  1.2395  1.3529  0.4680
 6284TIP3   OH240410   6.314   0.671   0.406  0.2965 -0.4822  0.1866
 6284TIP3    H140411   6.306   0.754   0.360  1.3913 -1.1484 -1.2594
 6284TIP3    H240412   6.275   0.688   0.492 -0.4579  1.2076 -0.4444
 6285TIP3   OH240413   5.505   6.940   7.442 -0.4472 -0.2213  0.6498
 6285TIP3    H140414   5.565   6.867   7.455 -2.9211 -2.2350  1.7002
 6285TIP3    H240415   5.498   6.949   7.347  2.2135  0.8213  0.4598
 6286TIP3   OH240416   0.827   6.563   0.579  0.0834  0.1590 -0.2581
 6286TIP3    H140417   0.787   6.529   0.659  1.7262 -1.3809 -0.0189
 6286TIP3    H240418   0.895   6.623   0.609 -0.1663  0.5905 -0.5484
 6287TIP3   OH240419   2.945   1.375   6.495 -0.5084  0.1191  0.6694
 6287TIP3    H140420   2.983   1.353   6.410 -0.0520  0.0691  0.8868
 6287TIP3    H240421   3.012   1.351   6.559 -1.4643 -1.3842  1.1693
 6288TIP3   OH240422   4.443   0.103   0.935  0.1605 -0.0864  0.8981
 6288TIP3    H140423   4.495   0.104   1.015  0.9536 -0.1453  0.3896
 6288TIP3    H240424   4.506   0.087   0.865 -0.4404  0.5172  0.1969
 6289TIP3   OH240425   2.776   5.023   8.047  0.5122  0.1193  0.1383
 6289TIP3    H140426   2.690   5.039   8.086  0.6587  0.7547  0.2162
 6289TIP3    H240427   2.784   4.928   8.043 -1.0691 -0.0137 -1.7633
 6290TIP3   OH240428   4.150   1.789   1.263 -0.0271 -0.3225 -0.4069
 6290TIP3    H140429   4.182   1.876   1.243  1.9234 -0.8396  0.2812
 6290TIP3    H240430   4.219   1.730   1.232 -0.4119 -1.5046  0.8919
 6291TIP3   OH240431   3.975   0.723   1.053 -0.3662  0.5669 -0.2058
 6291TIP3    H140432   4.014   0.654   0.999  2.4045  2.2572 -0.5581
 6291TIP3    H240433   4.036   0.797   1.045 -1.5343  1.9908  2.6886
 6292TIP3   OH240434   3.059   6.512   1.485 -0.2395 -0.1458 -1.0944
 6292TIP3    H140435   3.107   6.439   1.524  1.2236  0.5313 -1.5875
 6292TIP3    H240436   3.003   6.544   1.556  0.6361 -0.4312 -0.2624
 6293TIP3   OH240437   3.162   0.180   0.335  0.1446  0.2782 -0.9148
 6293TIP3    H140438   3.209   0.236   0.397 -1.9921  0.8711  0.2825
 6293TIP3    H240439   3.227   0.116   0.307  1.2290 -0.0766  2.0200
 6294TIP3   OH240440   5.139   1.853   1.450 -0.5250  0.7405 -0.1755
 6294TIP3    H140441   5.216   1.848   1.507  0.5378 -0.3832 -1.6352
 6294TIP3    H240442   5.076   1.793   1.489 -0.8088  1.8512  1.1692
 6295TIP3   OH240443   2.357   5.467   7.090  0.0255 -0.5159  0.1963
 6295TIP3    H140444   2.343   5.556   7.057 -3.3371 -1.3582 -0.9756
 6295TIP3    H240445   2.391   5.480   7.178  2.3396  1.8439 -0.8926
 6296TIP3   OH240446   3.161   0.827   7.774 -0.7059 -0.0687  0.1117
 6296TIP3    H140447   3.066   0.831   7.762 -0.7000  2.8726  0.1122
 6296TIP3    H240448   3.196   0.871   7.696  0.6503 -0.9053  0.2248
 6297TIP3   OH240449   3.769   5.348   8.156 -0.2757 -0.0661  0.2429
 6297TIP3    H140450   3.692   5.397   8.125 -0.6861 -1.7894 -1.6834
 6297TIP3    H240451   3.811   5.406   8.219 -3.5316  0.6946  1.9306
 6298TIP3   OH240452   1.014   3.190   6.953  0.4058  0.0925  0.1902
 6298TIP3    H140453   0.934   3.178   6.902  0.3963 -0.0729  0.2402
 6298TIP3    H240454   1.048   3.101   6.963  0.2949  0.1006  0.6499
 6299TIP3   OH240455   2.300   2.156   7.076 -0.5733 -0.2033  0.6528
 6299TIP3    H140456   2.217   2.110   7.062  0.9127 -2.3993 -1.9787
 6299TIP3    H240457   2.367   2.090   7.061  1.7252  1.6883  1.8633
 6300TIP3   OH240458   2.893   5.368   1.044  0.1412  0.4757 -0.5524
 6300TIP3    H140459   2.948   5.298   1.077  2.5696  2.3542 -0.3631
 6300TIP3    H240460   2.880   5.426   1.119 -2.0815  0.1452 -0.6183
 6301TIP3   OH240461   2.976   6.387   7.687 -0.4122 -0.1803  0.4456
 6301TIP3    H140462   3.041   6.364   7.753 -0.4661 -0.8748  0.2667
 6301TIP3    H240463   2.945   6.474   7.713  0.3078 -0.0011  0.7474
 6302TIP3   OH240464   0.576   5.723   6.726  0.0756  0.4675  0.4594
 6302TIP3    H140465   0.600   5.690   6.639 -1.4962  0.9398 -0.1933
 6302TIP3    H240466   0.617   5.809   6.731  0.0432  0.5053  0.1072
 6303TIP3   OH240467   0.317   3.767   5.749 -0.1978  0.0160 -0.0127
 6303TIP3    H140468   0.291   3.804   5.664 -0.8742  0.5589  0.4169
 6303TIP3    H240469   0.262   3.813   5.812 -0.4843 -1.1610  0.6220
 6304TIP3   OH240470   0.156   2.566   7.884  0.6282 -0.3467 -0.1867
 6304TIP3    H140471   0.216   2.530   7.949  0.5262 -0.6977 -0.2849
 6304TIP3    H240472   0.192   2.539   7.800  2.5908  2.7788 -0.5289
 6305TIP3   OH240473   5.340   4.743   7.845  0.2413  0.2284  0.3549
 6305TIP3    H140474   5.255   4.703   7.865  0.2639 -0.6420 -1.1453
 6305TIP3    H240475   5.368   4.701   7.763  2.4444 -0.0103  1.1518
 6306TIP3   OH240476   5.388   3.028   7.787  0.0830 -1.0614  0.0963
 6306TIP3    H140477   5.329   3.064   7.852 -0.0803  1.3523 -1.2595
 6306TIP3    H240478   5.331   2.980   7.727 -0.7890  1.7191 -1.5260
 6307TIP3   OH240479   3.183   0.782   1.675 -0.2731 -0.3938  0.2750
 6307TIP3    H140480   3.180   0.859   1.732 -0.4090 -1.1857  1.3869
 6307TIP3    H240481   3.110   0.795   1.614 -0.8876 -0.0641  1.0474
 6308TIP3   OH240482   3.067   2.673   0.127 -0.2163 -0.0576  0.3339
 6308TIP3    H140483   2.998   2.643   0.067 -0.3682 -1.1058  0.9911
 6308TIP3    H240484   3.019   2.717   0.197 -0.1666 -0.1685  0.4377
 6309TIP3   OH240485   0.600   1.404   0.284  0.0416  0.6157 -0.5975
 6309TIP3    H140486   0.661   1.379   0.214  1.5057  1.1091  0.4609
 6309TIP3    H240487   0.606   1.332   0.347 -3.0496 -1.0163 -1.9708
 6310TIP3   OH240488   3.996   3.141   7.030 -0.0351  0.8224 -0.5603
 6310TIP3    H140489   4.065   3.174   6.972  1.6496 -0.8194  0.3906
 6310TIP3    H240490   4.039   3.072   7.081 -2.9724 -2.1757 -1.7065
 6311TIP3   OH240491   4.680   3.795   7.210  0.0179  0.4989 -0.1544
 6311TIP3    H140492   4.746   3.783   7.279  1.2478 -1.8768 -1.6003
 6311TIP3    H240493   4.731   3.805   7.130 -1.4012  1.7626 -0.9459
 6312TIP3   OH240494   6.251   5.343   7.462 -0.3853  0.5898 -0.4919
 6312TIP3    H140495   6.306   5.399   7.516 -0.0238  1.4637 -1.7348
 6312TIP3    H240496   6.313   5.292   7.409 -0.6295 -2.1875  1.6936
 6313TIP3   OH240497   6.371   7.043   1.025  0.5255 -0.8458  0.5056
 6313TIP3    H140498   6.290   6.991   1.027  1.0022 -1.5807  2.5001
 6313TIP3    H240499   6.383   7.073   1.115  1.4258  0.9695 -0.1669
 6314TIP3   OH240500   6.062   0.271   1.690 -1.4437 -0.5460 -0.9647
 6314TIP3    H140501   6.062   0.271   1.786 -2.1035 -2.6360 -0.9202
 6314TIP3    H240502   6.153   0.287   1.666 -1.1642 -0.6078  0.0125
 6315TIP3   OH240503   4.410   4.588   0.648  0.6021 -0.2433 -0.1098
 6315TIP3    H140504   4.420   4.568   0.555 -0.7712  0.2591 -0.3888
 6315TIP3    H240505   4.417   4.503   0.691 -0.6722 -0.7699 -0.8692
 6316TIP3   OH240506   5.657   0.046   1.965 -0.1085 -0.1276  0.4692
 6316TIP3    H140507   5.622  -0.039   1.937  1.7052 -1.0050  0.6976
 6316TIP3    H240508   5.580   0.095   1.993 -1.2874 -1.4433 -0.2943
 6317TIP3   OH240509   0.587   5.932   7.051 -0.1514 -0.2042  0.0262
 6317TIP3    H140510   0.623   5.969   6.971  0.7564 -2.8670 -0.9071
 6317TIP3    H240511   0.520   5.870   7.021  0.8915 -1.9942  1.2078
 6318TIP3   OH240512   5.806   4.787   7.851 -0.0301  0.2778 -0.1926
 6318TIP3    H140513   5.797   4.706   7.902  0.7088  0.3770  0.1008
 6318TIP3    H240514   5.795   4.857   7.915 -0.3046  0.4095 -0.3831
 6319TIP3   OH240515   0.645   5.990   0.337 -0.1105 -0.1102 -0.5161
 6319TIP3    H140516   0.559   5.972   0.374  0.0701  0.8385  0.4239
 6319TIP3    H240517   0.707   5.956   0.402  0.2126  1.4669  0.0457
 6320TIP3   OH240518   3.808   5.595   2.295  0.0019  0.0402  0.1869
 6320TIP3    H140519   3.725   5.639   2.277  1.4479  1.8517 -2.8609
 6320TIP3    H240520   3.845   5.642   2.370 -0.9175  0.3768  0.4384
 6321TIP3   OH240521   0.355   6.023   6.749 -0.3102 -0.0934 -0.0529
 6321TIP3    H140522   0.379   6.054   6.662 -1.6903  1.0264 -0.0762
 6321TIP3    H240523   0.396   6.085   6.809  0.2264 -0.5778  0.0948
 6322TIP3   OH240524   2.204   0.913   7.446 -0.5676  0.3354 -0.3400
 6322TIP3    H140525   2.147   0.857   7.498  0.6021 -0.7961 -0.2406
 6322TIP3    H240526   2.223   0.862   7.367 -1.5163  1.6302 -1.4642
 6323TIP3   OH240527   2.698   3.928   7.075 -0.2541  0.2777 -0.3717
 6323TIP3    H140528   2.610   3.910   7.041 -0.4148 -1.1101  0.6930
 6323TIP3    H240529   2.756   3.876   7.020 -0.1948  0.4024 -0.4285
 6324TIP3   OH240530   3.868   0.894   6.534  0.1190  0.4839  0.4311
 6324TIP3    H140531   3.962   0.909   6.524  0.3746 -0.0094  1.8392
 6324TIP3    H240532   3.829   0.981   6.526  0.7446  0.7680  0.3857
 6325TIP3   OH240533   5.428   0.949   7.265  0.6053  0.0388  0.5805
 6325TIP3    H140534   5.464   1.034   7.242 -1.0735  1.0411  1.4483
 6325TIP3    H240535   5.472   0.925   7.347  3.7515 -1.7234 -1.4558
 6326TIP3   OH240536   2.424   2.500   1.077  0.2802 -0.3798  0.5845
 6326TIP3    H140537   2.455   2.448   1.002  1.8707 -0.1407  1.0285
 6326TIP3    H240538   2.428   2.590   1.046  0.1221 -0.3420  0.6767
 6327TIP3   OH240539   3.319   3.284   0.367  0.1286  0.6073 -0.1012
 6327TIP3    H140540   3.350   3.240   0.288 -3.4033 -0.2737 -1.2163
 6327TIP3    H240541   3.310   3.214   0.431  2.2457  1.1953  0.9149
 6328TIP3   OH240542   7.045   4.794   8.257  0.9040 -0.0858  0.1039
 6328TIP3    H140543   7.082   4.882   8.252 -1.8919  1.3198  1.6753
 6328TIP3    H240544   7.045   4.773   8.350 -1.4044 -0.3220  0.0921
 6329TIP3   OH240545   4.791   5.475   6.870 -0.2163  0.2812 -0.2005
 6329TIP3    H140546   4.841   5.532   6.811  0.9740 -0.6948 -0.1455
 6329TIP3    H240547   4.740   5.419   6.811 -0.8058  0.8577 -0.2578
 6330TIP3   OH240548   5.883   3.050   7.703 -0.3570  0.2094 -0.2524
 6330TIP3    H140549   5.818   2.986   7.675 -0.7264 -0.5741  2.1645
 6330TIP3    H240550   5.835   3.133   7.711 -1.9103 -0.8232  3.8906
 6331TIP3   OH240551   2.171   2.764   8.109 -0.1472 -0.1828  0.5103
 6331TIP3    H140552   2.139   2.849   8.078  0.8531 -0.0056 -0.0706
 6331TIP3    H240553   2.232   2.735   8.041  0.2934 -0.8868  1.1934
 6332TIP3   OH240554   1.927   6.269   1.648 -0.6973 -0.1006  0.8716
 6332TIP3    H140555   1.903   6.345   1.701  0.5344  1.7676 -1.0806
 6332TIP3    H240556   2.014   6.244   1.681  0.2206  1.2746 -0.3715
 6333TIP3   OH240557   3.241   2.770   7.441 -0.3382 -0.0579  0.4477
 6333TIP3    H140558   3.292   2.689   7.437  0.7878  0.6342  0.4774
 6333TIP3    H240559   3.161   2.746   7.488 -0.1064 -1.1933  0.2784
 6334TIP3   OH240560   0.959   3.954   6.252 -0.2288 -0.5482  0.3309
 6334TIP3    H140561   0.937   4.000   6.170 -0.4791 -0.5169  0.4131
 6334TIP3    H240562   0.999   4.021   6.307  0.6573 -0.7559 -0.0548
 6335TIP3   OH240563   6.774   2.083   1.658 -0.1484  0.3650 -0.5825
 6335TIP3    H140564   6.869   2.081   1.657 -0.0519 -2.1284  1.5295
 6335TIP3    H240565   6.748   2.010   1.602 -0.8456  1.0622 -1.1948
 6336TIP3   OH240566   3.960   3.159   6.375 -0.5309 -0.5121  0.3709
 6336TIP3    H140567   3.965   3.208   6.457  0.9806  0.5426 -0.2955
 6336TIP3    H240568   4.044   3.114   6.369 -0.1525  0.3297 -1.1131
 6337TIP3   OH240569   5.227   6.859   0.411  0.2279 -0.3124  0.1971
 6337TIP3    H140570   5.230   6.787   0.474 -0.0565 -0.8945 -0.4425
 6337TIP3    H240571   5.153   6.838   0.354 -1.3234  1.6403  1.3538
 6338TIP3   OH240572   4.244   0.546   1.506  0.0667  0.4584  0.2063
 6338TIP3    H140573   4.264   0.462   1.548  3.3795  0.6540 -0.6627
 6338TIP3    H240574   4.242   0.609   1.578  0.6795  0.0533  0.5875
 6339TIP3   OH240575   3.450   0.589   1.238  0.3336 -0.0628 -0.5015
 6339TIP3    H140576   3.524   0.530   1.253 -0.1331 -0.1074  2.2523
 6339TIP3    H240577   3.435   0.630   1.323 -1.3271  1.7389 -1.5727
 6340TIP3   OH240578   6.710   0.111   7.859  0.2371  0.3459 -0.1680
 6340TIP3    H140579   6.640   0.128   7.796 -0.4066 -0.6098  0.2591
 6340TIP3    H240580   6.787   0.094   7.805 -0.2016 -0.0230 -0.7006
 6341TIP3   OH240581   6.194   4.294   5.921 -0.1692  0.4388  0.0299
 6341TIP3    H140582   6.250   4.354   5.971  1.3662 -1.2900  0.4939
 6341TIP3    H240583   6.248   4.217   5.908 -2.3447 -1.1833  0.1262
 6342TIP3   OH240584   6.701   1.607   7.448  0.1085  0.2932 -0.3365
 6342TIP3    H140585   6.756   1.680   7.421  0.8740 -0.0999  0.1276
 6342TIP3    H240586   6.687   1.556   7.368  1.2520 -0.1450 -0.2693
 6343TIP3   OH240587   2.446   4.363   8.014 -0.5232  0.0413 -0.1110
 6343TIP3    H140588   2.414   4.296   8.075 -1.5604 -0.1530 -0.8356
 6343TIP3    H240589   2.525   4.325   7.975 -0.4585 -0.2718  0.3217
 6344TIP3   OH240590   5.207   2.824   7.724  0.3814  0.0587 -0.4013
 6344TIP3    H140591   5.183   2.787   7.809  0.7758  0.3418 -0.1625
 6344TIP3    H240592   5.205   2.749   7.663 -1.6915  0.1621 -0.5371
 6345TIP3   OH240593   5.132   6.338   7.060 -0.0405  0.2086  0.2310
 6345TIP3    H140594   5.112   6.358   6.969  0.8598  0.7792  0.1400
 6345TIP3    H240595   5.227   6.328   7.062 -0.2188 -1.9317  0.7181
 6346TIP3   OH240596   3.132   4.635   5.737  0.0958  0.3479 -0.2409
 6346TIP3    H140597   3.040   4.662   5.733 -0.0721 -0.0406  0.7333
 6346TIP3    H240598   3.179   4.703   5.688 -0.7671  0.2372 -1.2571
 6347TIP3   OH240599   1.277   1.279   6.352  0.1465  0.6464 -0.1003
 6347TIP3    H140600   1.258   1.372   6.355 -2.2768  0.1970  1.3294
 6347TIP3    H240601   1.332   1.263   6.429  1.2452  0.9868 -0.7953
 6348TIP3   OH240602   1.917   0.416   7.310 -0.1827  0.4522 -0.1846
 6348TIP3    H140603   1.887   0.325   7.309  0.4497  0.1866  1.5873
 6348TIP3    H240604   1.851   0.462   7.362  0.5412  0.5951  0.6198
 6349TIP3   OH240605   4.299   2.670   5.990  0.1738 -0.2786  0.3518
 6349TIP3    H140606   4.207   2.665   5.962 -0.3095  2.1602  1.2412
 6349TIP3    H240607   4.309   2.759   6.023  2.8600 -0.5281  0.4186
 6350TIP3   OH240608   2.550   2.496   7.880  0.2421  0.1246  0.1848
 6350TIP3    H140609   2.511   2.410   7.893  2.0828 -0.8943 -0.6137
 6350TIP3    H240610   2.478   2.558   7.893 -1.1032 -1.5142  0.8525
 6351TIP3   OH240611   5.757   4.738   6.600 -0.3612 -0.5191  0.6357
 6351TIP3    H140612   5.745   4.651   6.563  0.0627 -0.8335  1.2172
 6351TIP3    H240613   5.837   4.730   6.653 -0.4698  0.1511  0.9061
 6352TIP3   OH240614   6.113   0.740   1.411  0.3669  0.0999  0.1804
 6352TIP3    H140615   6.083   0.655   1.444  2.1771 -0.5592  0.2065
 6352TIP3    H240616   6.069   0.749   1.327  1.8466 -1.9542 -0.8987
 6353TIP3   OH240617   3.113   0.054   1.402 -0.8601 -0.3526 -1.0248
 6353TIP3    H140618   3.197   0.075   1.360 -0.4881  0.5841  0.1283
 6353TIP3    H240619   3.131  -0.026   1.452  0.2335  1.2858  1.4547
 6354TIP3   OH240620   5.047   1.754   0.527 -0.4216 -0.2228  0.4414
 6354TIP3    H140621   4.960   1.734   0.564 -0.4031 -0.9640  0.1047
 6354TIP3    H240622   5.070   1.839   0.565 -1.4527  0.1557  0.2533
 6355TIP3   OH240623   4.890   1.846   7.700  0.0462 -0.3267  0.3085
 6355TIP3    H140624   4.815   1.888   7.658 -1.0554 -1.2890  1.2447
 6355TIP3    H240625   4.940   1.808   7.628  0.1329  1.0913 -0.3969
 6356TIP3   OH240626   3.585   1.819   7.751 -0.2058  0.2180 -0.1807
 6356TIP3    H140627   3.513   1.770   7.792  0.6611 -1.0471 -0.1011
 6356TIP3    H240628   3.543   1.896   7.712 -1.0542  1.6500  3.2406
 6357TIP3   OH240629   5.228   4.742   0.535 -0.0496  0.0771 -0.7093
 6357TIP3    H140630   5.193   4.826   0.566  0.2107 -0.8845  2.4497
 6357TIP3    H240631   5.164   4.677   0.562  0.9138 -1.0134 -0.9842
 6358TIP3   OH240632   3.640   6.333   1.222 -0.0369 -0.0815  0.2921
 6358TIP3    H140633   3.635   6.427   1.204  0.8593  0.1184  1.0140
 6358TIP3    H240634   3.721   6.323   1.272  1.4051 -1.5970 -2.1247
 6359TIP3   OH240635   5.242   4.122   0.488  0.5221 -0.0493  0.1443
 6359TIP3    H140636   5.240   4.062   0.563 -2.5409  1.8070  1.7398
 6359TIP3    H240637   5.325   4.169   0.497  0.6304 -0.5074  1.8227
 6360TIP3   OH240638   2.444   2.530   1.381 -0.3690 -0.2075  0.2556
 6360TIP3    H140639   2.520   2.516   1.437 -0.1096  0.6894  0.1608
 6360TIP3    H240640   2.474   2.504   1.294 -1.4895 -3.8214  0.8171
 6361TIP3   OH240641   5.559   0.383   0.559  0.4716  0.1407  0.0623
 6361TIP3    H140642   5.603   0.434   0.626 -2.3922  2.5540  0.3286
 6361TIP3    H240643   5.475   0.359   0.597  0.1416 -1.4391 -1.4907
 6362TIP3   OH240644   5.205   6.014   7.914  0.4888 -0.0202 -0.0232
 6362TIP3    H140645   5.226   5.940   7.856 -0.3026  0.3838 -0.8425
 6362TIP3    H240646   5.242   6.090   7.869  1.4630  0.0879  0.9065
 6363TIP3   OH240647   4.588   5.829   0.001 -0.4411  0.1433  0.2046
 6363TIP3    H140648   4.681   5.821  -0.021 -0.4687  0.7844 -0.2004
 6363TIP3    H240649   4.544   5.771  -0.061 -0.5394  2.1270 -1.7213
 6364TIP3   OH240650   1.350   3.750   8.172  0.7444  0.0429 -0.0175
 6364TIP3    H140651   1.266   3.709   8.152  1.0510 -0.5399 -0.1398
 6364TIP3    H240652   1.338   3.788   8.260  0.3986 -0.1510  0.0205
 6365TIP3   OH240653   6.670   3.748   0.693  0.5706  0.0867  0.0454
 6365TIP3    H140654   6.697   3.685   0.627 -1.5643  0.7821 -1.6016
 6365TIP3    H240655   6.615   3.698   0.753  0.9064 -0.1253  0.1790
 6366TIP3   OH240656   3.103   6.897   0.313 -0.0762  0.2327 -0.0297
 6366TIP3    H140657   3.069   6.985   0.332  1.3681  1.5168 -2.8074
 6366TIP3    H240658   3.027   6.840   0.319 -1.2761  1.8327  0.7999
 6367TIP3   OH240659   1.007   5.524   0.465  0.4322  0.2776  0.0213
 6367TIP3    H140660   0.977   5.481   0.384  0.8260  1.5535 -0.8372
 6367TIP3    H240661   0.967   5.473   0.535 -0.3530 -0.5593 -0.9905
 6368TIP3   OH240662   5.112   5.741   2.121  0.1384 -0.8526  0.4542
 6368TIP3    H140663   5.071   5.733   2.207  1.3639 -0.8182  1.0720
 6368TIP3    H240664   5.045   5.780   2.065 -0.7797 -1.1619  1.3101
 6369TIP3   OH240665   2.266   5.744   6.819  0.1266 -0.2636 -0.2681
 6369TIP3    H140666   2.234   5.743   6.909 -2.0551 -1.5719 -0.9810
 6369TIP3    H240667   2.242   5.830   6.785 -1.8976 -0.8494 -0.4696
 6370TIP3   OH240668   6.963   5.756   6.831  0.1049  0.2581 -0.3830
 6370TIP3    H140669   6.939   5.825   6.893  1.2193  0.0782  0.2748
 6370TIP3    H240670   7.036   5.792   6.782  0.1404 -0.1337 -0.6241
 6371TIP3   OH240671   3.753   3.563   7.547 -0.0492 -0.3260  0.0504
 6371TIP3    H140672   3.720   3.597   7.630 -1.6781 -2.0566  0.1659
 6371TIP3    H240673   3.675   3.550   7.493  0.9681  0.8911 -1.8547
 6372TIP3   OH240674   4.834   5.887   8.030  0.3076  0.4076  0.2609
 6372TIP3    H140675   4.813   5.816   8.090  0.4310  0.1912  0.0497
 6372TIP3    H240676   4.751   5.907   7.987  0.5359 -0.4839 -0.6161
 6373TIP3   OH240677   4.139   1.229   0.152 -0.3164 -0.3288  0.1525
 6373TIP3    H140678   4.191   1.308   0.164  0.1326 -0.0790 -2.6992
 6373TIP3    H240679   4.203   1.158   0.154 -0.2147 -0.2704 -0.7231
 6374TIP3   OH240680   5.510   1.159   2.518 -0.2788  0.4260 -0.0639
 6374TIP3    H140681   5.415   1.174   2.517 -0.7320 -1.9845 -0.7501
 6374TIP3    H240682   5.519   1.066   2.495  2.3272  0.9901 -1.7488
 6375TIP3   OH240683   4.640   0.978   0.827 -0.4389  0.2257 -0.1783
 6375TIP3    H140684   4.573   1.012   0.767 -2.5025  0.0055  1.8653
 6375TIP3    H240685   4.706   1.048   0.830 -2.2834  2.0398  0.3453
 6376TIP3   OH240686   0.164   3.678   7.654  0.0572  0.0296  0.4735
 6376TIP3    H140687   0.147   3.765   7.619 -0.3208 -0.4585 -0.6072
 6376TIP3    H240688   0.116   3.619   7.596  2.3345 -1.0998 -0.4259
 6377TIP3   OH240689   4.639   2.004   6.090 -0.3662  0.2048 -0.1723
 6377TIP3    H140690   4.693   1.925   6.087 -2.1151 -1.0234 -1.7705
 6377TIP3    H240691   4.701   2.074   6.113  2.0025 -1.0613 -2.1030
 6378TIP3   OH240692   2.811   5.791   0.682 -0.4523  0.0551  0.2641
 6378TIP3    H140693   2.893   5.812   0.725 -0.4490 -1.4525  1.0400
 6378TIP3    H240694   2.744   5.809   0.747 -0.6140 -0.3019  0.1958
 6379TIP3   OH240695   3.100   0.829   6.284 -0.4441 -0.0132 -0.5456
 6379TIP3    H140696   3.168   0.764   6.264  1.2592  0.6643  2.4983
 6379TIP3    H240697   3.147   0.913   6.286 -1.6236  0.6502  0.3745
 6380TIP3   OH240698   2.319   3.998   7.661  0.2272  0.1532 -0.2770
 6380TIP3    H140699   2.281   4.026   7.744  0.5531  0.1747 -0.1295
 6380TIP3    H240700   2.264   4.037   7.594  0.4112  0.7718 -0.0722
 6381TIP3   OH240701   3.384   0.028   0.245  0.2816 -0.2791  0.2124
 6381TIP3    H140702   3.405  -0.065   0.241 -0.0254 -0.3049 -2.1209
 6381TIP3    H240703   3.469   0.072   0.244  0.4251 -0.5120  1.2581
 6382TIP3   OH240704   0.254   3.216   6.970  0.0776 -0.0231  0.0695
 6382TIP3    H140705   0.185   3.152   6.954  0.5469 -0.2925 -0.9858
 6382TIP3    H240706   0.332   3.163   6.987  0.2306  0.2774  0.3108
 6383TIP3   OH240707   2.673   1.379   7.256  0.2553  0.0499  0.3687
 6383TIP3    H140708   2.749   1.425   7.219 -0.6708  1.3388  0.0166
 6383TIP3    H240709   2.615   1.364   7.181  0.1701 -0.9707  0.6259
 6384TIP3   OH240710   2.526   0.818   8.163 -0.4250  0.1670  0.3154
 6384TIP3    H140711   2.451   0.849   8.214 -0.8741 -2.7791  1.5996
 6384TIP3    H240712   2.602   0.833   8.220 -0.1861  1.5598 -0.3053
 6385TIP3   OH240713   0.940   4.353   1.228  0.4184  0.2887  0.1307
 6385TIP3    H140714   1.029   4.376   1.201  1.0666 -1.3872  0.7090
 6385TIP3    H240715   0.897   4.438   1.243  1.8846  1.1329 -0.2307
 6386TIP3   OH240716   7.052   3.157   6.850 -0.6308  0.0096  0.2158
 6386TIP3    H140717   7.061   3.161   6.755  0.0695  1.0629  0.3079
 6386TIP3    H240718   7.037   3.247   6.877 -0.4115 -0.2192  1.1500
 6387TIP3   OH240719   5.033   2.108   7.462  0.7407 -0.1525  0.5119
 6387TIP3    H140720   4.942   2.078   7.469  0.1169  1.2878 -0.8609
 6387TIP3    H240721   5.029   2.201   7.485  1.9921 -0.2024  1.0163
 6388TIP3   OH240722   6.881   5.915   7.169 -0.5711  0.0142 -0.3032
 6388TIP3    H140723   6.891   5.983   7.103  0.9189 -0.9058 -1.0810
 6388TIP3    H240724   6.838   5.959   7.243 -0.5421  1.5336 -1.1579
 6389TIP3   OH240725   2.801   6.705   0.758 -0.5261  0.5454  0.1038
 6389TIP3    H140726   2.798   6.626   0.811 -3.8276  0.0483 -0.5848
 6389TIP3    H240727   2.827   6.774   0.818  0.7616 -0.7723  1.1210
 6390TIP3   OH240728   3.729   4.745   6.600 -0.2875  0.4946 -0.9860
 6390TIP3    H140729   3.701   4.799   6.674 -1.3195  1.1625 -1.8226
 6390TIP3    H240730   3.800   4.795   6.559 -1.4231  1.4115 -1.9207
 6391TIP3   OH240731   0.073   0.966   0.980 -0.6739 -0.4898 -0.6226
 6391TIP3    H140732   0.025   0.886   0.959  0.0433 -0.9583 -0.4911
 6391TIP3    H240733   0.017   1.037   0.947 -1.3222 -1.0373 -0.7183
 6392TIP3   OH240734   3.222   2.297   1.828 -0.0722 -0.1272 -0.4309
 6392TIP3    H140735   3.249   2.375   1.779  1.1616 -1.4698 -1.9997
 6392TIP3    H240736   3.286   2.289   1.899 -0.5071  0.5478  0.0490
 6393TIP3   OH240737   3.491   5.566   7.800  0.1376  0.0385  0.3629
 6393TIP3    H140738   3.584   5.550   7.818  0.9669  1.8865 -1.8427
 6393TIP3    H240739   3.479   5.538   7.709 -0.9071  1.8290 -0.0920
 6394TIP3   OH240740   6.002   5.975   7.964 -0.0217  0.5574  0.0323
 6394TIP3    H140741   6.088   6.007   7.991 -0.4240 -0.4072  2.7821
 6394TIP3    H240742   5.942   6.009   8.031 -1.3249 -1.0433 -0.2686
 6395TIP3   OH240743   1.238   2.107   8.204 -0.1859 -0.0155 -0.1727
 6395TIP3    H140744   1.187   2.029   8.226 -1.1888  0.6230 -0.1922
 6395TIP3    H240745   1.208   2.173   8.266  1.5661  0.0332  0.6818
 6396TIP3   OH240746   5.679   1.078   7.174 -0.3185  1.0604  0.4255
 6396TIP3    H140747   5.748   1.094   7.109  0.0693 -2.8659 -0.3313
 6396TIP3    H240748   5.726   1.043   7.250 -1.1110  2.8191  1.8203
 6397TIP3   OH240749   6.243   1.952   0.525  0.2853 -0.1507  0.2301
 6397TIP3    H140750   6.231   1.980   0.616  0.8757 -1.0083  0.5890
 6397TIP3    H240751   6.237   2.032   0.474  3.6287  0.9691  1.3570
 6398TIP3   OH240752   6.863   5.856   1.709  0.1825 -0.2818  0.0467
 6398TIP3    H140753   6.943   5.896   1.743 -0.9241  0.5139  1.8396
 6398TIP3    H240754   6.863   5.879   1.616  0.9766  1.5327  0.4552
 6399TIP3   OH240755   1.207   5.250   7.892 -0.1613 -0.0273 -0.6541
 6399TIP3    H140756   1.180   5.165   7.927 -0.9804  0.4450 -0.0934
 6399TIP3    H240757   1.125   5.297   7.877  0.0045 -0.6674 -4.6165
 6400TIP3   OH240758   3.691   3.819   7.325  0.1350 -0.6664 -0.4633
 6400TIP3    H140759   3.750   3.846   7.395  0.1003 -0.4943 -0.4987
 6400TIP3    H240760   3.656   3.735   7.353 -0.4944 -0.2262  0.1063
 6401TIP3   OH240761   3.177   1.272   7.820 -0.0283 -0.2616 -0.1497
 6401TIP3    H140762   3.239   1.334   7.781  0.6339 -1.6559 -1.4223
 6401TIP3    H240763   3.155   1.212   7.749 -2.6159 -0.0273  0.3579
 6402TIP3   OH240764   5.585   4.999   1.335 -0.6815 -0.4975  0.0354
 6402TIP3    H140765   5.664   4.985   1.386 -1.2929 -0.6335  0.9784
 6402TIP3    H240766   5.612   5.055   1.262 -0.2739  1.8769  1.9062
 6403TIP3   OH240767   4.099   5.278   1.956  0.5834  0.0640  0.2957
 6403TIP3    H140768   4.184   5.256   1.917 -0.1356  1.7605 -2.5153
 6403TIP3    H240769   4.110   5.366   1.991 -0.1178  0.5247 -0.5902
 6404TIP3   OH240770   0.322   5.843   6.473 -0.2600  0.1088 -0.2823
 6404TIP3    H140771   0.381   5.838   6.398  1.2226  0.7855  0.7875
 6404TIP3    H240772   0.297   5.935   6.478  0.0158  0.1596  0.2998
 6405TIP3   OH240773   6.463   1.728   7.349  0.6698 -0.3539 -0.9899
 6405TIP3    H140774   6.452   1.823   7.355 -1.9567 -0.7106  2.5266
 6405TIP3    H240775   6.538   1.709   7.405 -1.1966 -0.5481  1.6096
 6406TIP3   OH240776   6.314   2.158   8.052 -0.3040  0.2448  0.3222
 6406TIP3    H140777   6.327   2.084   7.993 -0.0062  0.1629  0.4876
 6406TIP3    H240778   6.401   2.198   8.058 -0.4057  0.4442  0.4515
 6407TIP3   OH240779   1.532   0.873   7.586  0.3965  0.0571  0.5007
 6407TIP3    H140780   1.580   0.949   7.554  0.2941 -0.1405 -0.1553
 6407TIP3    H240781   1.454   0.909   7.628 -0.1596  0.2906 -0.6930
 6408TIP3   OH240782   3.974   1.845   0.093 -0.3082 -0.4047  0.5975
 6408TIP3    H140783   4.026   1.896   0.032  0.0910 -1.9957 -0.4550
 6408TIP3    H240784   4.015   1.860   0.178  0.5250  0.0678  0.1225
 6409TIP3   OH240785   3.454   0.109   0.737 -0.1706 -0.5243 -0.1257
 6409TIP3    H140786   3.451   0.176   0.805  0.1518 -1.0684  0.4305
 6409TIP3    H240787   3.397   0.039   0.769  0.0494 -0.8178 -0.3680
 6410TIP3   OH240788   5.386   2.012   7.402 -0.2665 -0.1089  0.2626
 6410TIP3    H140789   5.400   1.923   7.371 -2.1404 -1.2474  2.4192
 6410TIP3    H240790   5.443   2.020   7.479 -0.6649  0.2877  0.5182
 6411TIP3   OH240791   6.526   2.960   6.978  0.3705  0.2378 -0.7238
 6411TIP3    H140792   6.487   3.006   7.052 -0.6964 -1.0646 -0.4463
 6411TIP3    H240793   6.512   2.867   6.996  0.0830 -0.1203 -2.5528
 6412TIP3   OH240794   1.105   2.572   0.768  0.1479  0.1272  0.1290
 6412TIP3    H140795   1.173   2.525   0.817  1.3963  0.8280 -0.8582
 6412TIP3    H240796   1.081   2.645   0.826 -0.6033 -0.7544  0.9587
 6413TIP3   OH240797   3.241   1.794   8.172  0.5085 -0.6085  0.0671
 6413TIP3    H140798   3.175   1.747   8.121  1.0675 -1.1230 -0.1964
 6413TIP3    H240799   3.315   1.734   8.176  1.7785  0.7526 -1.4277
 6414TIP3   OH240800   6.102   6.893   1.376 -0.2371  0.1698 -0.0390
 6414TIP3    H140801   6.076   6.916   1.465  0.5436  1.6512 -0.1584
 6414TIP3    H240802   6.020   6.891   1.326 -0.5232  0.9269  0.3861
 6415TIP3   OH240803   2.284   3.144   0.703  0.1436  1.1511 -0.2072
 6415TIP3    H140804   2.229   3.111   0.632  2.3930 -0.8456 -1.1737
 6415TIP3    H240805   2.340   3.209   0.662  0.5038  1.0043  0.0403
 6416TIP3   OH240806   5.258   5.442   1.329 -0.4273  0.1701  0.3783
 6416TIP3    H140807   5.326   5.388   1.371 -1.2547 -0.8998  0.3927
 6416TIP3    H240808   5.180   5.428   1.383 -1.2198 -0.3468 -0.8485
 6417TIP3   OH240809   0.824   2.695   0.223  0.3168 -0.1294 -0.0780
 6417TIP3    H140810   0.883   2.665   0.154  1.3348  0.2250  0.6166
 6417TIP3    H240811   0.740   2.708   0.179  0.8131 -0.4062 -1.1362
 6418TIP3   OH240812   5.532   2.016   6.748  0.7692  0.2044  0.2690
 6418TIP3    H140813   5.485   2.096   6.726 -3.3076 -1.4615  1.8796
 6418TIP3    H240814   5.532   1.965   6.666 -0.9379  0.0161  0.3454
 6419TIP3   OH240815   5.722   5.635   1.182  0.0469 -0.0390  0.3314
 6419TIP3    H140816   5.787   5.645   1.113 -0.0049 -0.6382  0.1897
 6419TIP3    H240817   5.720   5.541   1.200 -0.6916 -0.0201  0.4134
 6420TIP3   OH240818   3.765   1.504   7.547  0.8074  0.0911 -0.0990
 6420TIP3    H140819   3.742   1.436   7.611  0.8887  1.4335  1.4110
 6420TIP3    H240820   3.826   1.561   7.593 -1.2377  2.6842 -0.3476
 6421TIP3   OH240821   4.245   4.436   1.400 -0.0881  0.0034 -0.3589
 6421TIP3    H140822   4.228   4.356   1.450 -1.8504  0.7475  0.3058
 6421TIP3    H240823   4.215   4.415   1.312  1.3375 -0.7108 -0.7014
 6422TIP3   OH240824   0.840   5.440   0.229  0.5512  0.4244 -0.4422
 6422TIP3    H140825   0.847   5.505   0.159 -1.4050  1.1321 -0.0531
 6422TIP3    H240826   0.780   5.480   0.292  0.3841 -1.2040  0.4786
 6423TIP3   OH240827   1.495   5.409   0.137  0.4012 -0.2423  0.1598
 6423TIP3    H140828   1.421   5.456   0.099  0.6120 -0.4529 -0.5176
 6423TIP3    H240829   1.572   5.461   0.113  0.3953  0.6714  1.9288
 6424TIP3   OH240830   0.403   2.046   0.436  0.1896  0.3671  0.9918
 6424TIP3    H140831   0.336   2.094   0.387  0.2713 -0.5051  0.0075
 6424TIP3    H240832   0.483   2.097   0.422  0.0479  0.5681  0.9022
 6425TIP3   OH240833   5.141   3.529   5.921 -0.2220 -0.4042  0.3776
 6425TIP3    H140834   5.234   3.528   5.902 -0.2075 -0.6275  0.4651
 6425TIP3    H240835   5.135   3.539   6.016 -0.2958  3.1868  0.1432
 6426TIP3   OH240836   3.967   3.421   6.547 -0.0772 -0.1104  0.1152
 6426TIP3    H140837   3.874   3.408   6.529  0.2294 -1.2370 -0.8365
 6426TIP3    H240838   3.970   3.467   6.630 -1.4968  0.4703 -0.1320
 6427TIP3   OH240839   0.856   4.945   0.334  0.0893  0.2755  0.4786
 6427TIP3    H140840   0.853   5.009   0.405 -1.3818  0.7676  0.0021
 6427TIP3    H240841   0.941   4.902   0.344  2.0655  3.6409 -0.3357
 6428TIP3   OH240842   4.195   4.756   6.611  0.4887 -0.1126  0.1971
 6428TIP3    H140843   4.290   4.763   6.608  0.7424 -2.8183 -2.1864
 6428TIP3    H240844   4.164   4.808   6.538  0.2561 -0.4142  0.0792
 6429TIP3   OH240845   6.281   5.194   1.572 -1.0131 -0.3397  0.2931
 6429TIP3    H140846   6.254   5.200   1.481  1.0669 -1.9724 -0.5280
 6429TIP3    H240847   6.260   5.279   1.610 -0.3498  1.0194 -2.1744
 6430TIP3   OH240848   5.837   4.682   1.144  0.4753 -0.4710  0.1553
 6430TIP3    H140849   5.755   4.693   1.097  1.2312 -2.8224 -1.8875
 6430TIP3    H240850   5.820   4.612   1.207  0.4665  0.2171  0.9339
 6431TIP3   OH240851   1.660   4.161   0.442 -0.0631  0.1752 -0.2297
 6431TIP3    H140852   1.669   4.240   0.497  0.4247 -0.3898  0.5222
 6431TIP3    H240853   1.672   4.088   0.503  3.4459 -0.5076 -1.5011
 6432TIP3   OH240854   6.493   0.864   1.137  0.2630  0.3373 -0.0338
 6432TIP3    H140855   6.489   0.949   1.094 -1.0314 -0.0397 -0.7130
 6432TIP3    H240856   6.579   0.862   1.179  1.1287  1.1597 -1.6987
 6433TIP3   OH240857   4.492   4.725   0.156  0.3947 -0.8207  0.4889
 6433TIP3    H140858   4.409   4.688   0.126  0.5335 -0.6921 -0.0512
 6433TIP3    H240859   4.548   4.726   0.079 -0.2935  2.5090 -0.0967
 6434TIP3   OH240860   4.500   5.064   1.593 -0.5511  0.3192  0.6440
 6434TIP3    H140861   4.502   5.154   1.626 -1.9276  0.5134  0.2211
 6434TIP3    H240862   4.491   5.010   1.672 -4.3783  0.8002  0.7164
 6435TIP3   OH240863   0.024   0.241   6.359 -0.0674  0.4119 -0.0958
 6435TIP3    H140864  -0.053   0.270   6.408 -0.6396  0.6254 -1.0850
 6435TIP3    H240865   0.038   0.310   6.294 -0.2925 -0.5866 -1.2464
 6436TIP3   OH240866   4.046   2.171   6.456 -0.0605 -0.4448  0.4462
 6436TIP3    H140867   3.968   2.213   6.418  0.4549 -0.0055 -0.1463
 6436TIP3    H240868   4.075   2.109   6.390  0.1273 -0.5598  0.6356
 6437TIP3   OH240869   5.055   0.562   7.607  0.1763  0.0561 -0.3693
 6437TIP3    H140870   5.070   0.481   7.656  1.4669 -0.2235 -1.2044
 6437TIP3    H240871   5.140   0.606   7.606 -0.0350  0.4746 -1.6060
 6438TIP3   OH240872   1.733   4.428   6.518  0.3922 -0.6693 -0.2536
 6438TIP3    H140873   1.682   4.509   6.531  0.6269 -0.5805  0.1203
 6438TIP3    H240874   1.768   4.436   6.429  0.2706 -0.4408 -0.2834
 6439TIP3   OH240875   2.234   4.468   7.895 -0.4139 -0.0151 -0.1871
 6439TIP3    H140876   2.313   4.413   7.898 -0.8083 -0.8640 -2.4960
 6439TIP3    H240877   2.174   4.427   7.957  0.6802  0.2187  1.0694
 6440TIP3   OH240878   2.788   3.215   7.632  0.0332  0.5936 -0.7484
 6440TIP3    H140879   2.700   3.247   7.654 -0.0703  0.3584 -0.8281
 6440TIP3    H240880   2.826   3.193   7.717 -0.0328  0.5647 -0.7263
 6441TIP3   OH240881   0.137   5.252   0.875 -0.0839  0.6604  0.6864
 6441TIP3    H140882   0.069   5.256   0.942  0.8771 -0.9852  1.8446
 6441TIP3    H240883   0.206   5.309   0.907  0.5977 -0.5346  1.4091
 6442TIP3   OH240884   5.699   5.338   7.028 -0.2833  0.5383  0.2366
 6442TIP3    H140885   5.621   5.389   7.049 -1.0051 -0.0422 -0.9257
 6442TIP3    H240886   5.705   5.341   6.933  0.9088  0.2548  0.2831
 6443TIP3   OH240887   5.874   0.494   7.203  0.0211  0.0826  0.1857
 6443TIP3    H140888   5.838   0.431   7.264 -1.0056 -1.7731 -2.1592
 6443TIP3    H240889   5.815   0.569   7.207 -0.9013 -0.6467  0.3608
 6444TIP3   OH240890   0.653   2.257   0.810  0.2451  0.3680 -0.6475
 6444TIP3    H140891   0.697   2.220   0.887 -0.5404  0.4512 -0.1500
 6444TIP3    H240892   0.629   2.346   0.836 -0.5817  0.1826 -0.7626
 6445TIP3   OH240893   5.300   5.177   8.112 -0.3631 -0.0392  0.6211
 6445TIP3    H140894   5.218   5.217   8.141 -0.5438  0.4791 -0.5401
 6445TIP3    H240895   5.366   5.211   8.173 -0.7663  0.7758  0.6206
 6446TIP3   OH240896   3.651   1.850   8.029  0.5889 -0.4873  0.3672
 6446TIP3    H140897   3.668   1.895   7.946  2.5466  0.3071  1.1375
 6446TIP3    H240898   3.561   1.874   8.051  0.8434  1.3304 -0.3381
 6447TIP3   OH240899   4.447   0.950   5.742 -0.5077 -0.0735  0.1619
 6447TIP3    H140900   4.439   1.039   5.776 -0.3216 -0.0346  0.1041
 6447TIP3    H240901   4.420   0.956   5.651  0.8142  0.2002 -0.2443
 6448TIP3   OH240902   3.272   1.745   2.079  0.5747  0.3169  0.3482
 6448TIP3    H140903   3.316   1.666   2.110 -4.2407 -2.7414  0.2788
 6448TIP3    H240904   3.299   1.752   1.987 -1.1271 -3.2607 -0.5932
 6449TIP3   OH240905   4.311   6.764   1.425  0.0247 -0.0062 -0.0117
 6449TIP3    H140906   4.352   6.739   1.507  1.3357  1.9629  0.0093
 6449TIP3    H240907   4.240   6.823   1.450  0.2190  0.3425 -0.2790
 6450TIP3   OH240908   4.952   0.606   1.260  0.2342 -0.1180  0.3187
 6450TIP3    H140909   4.875   0.634   1.209  0.0948 -0.3079  0.4236
 6450TIP3    H240910   4.921   0.530   1.310  0.5774 -0.3819  0.1319
 6451TIP3   OH240911   2.893   0.328   7.888 -0.4785 -0.0810  0.0461
 6451TIP3    H140912   2.974   0.293   7.852  0.1497 -0.6150  1.8536
 6451TIP3    H240913   2.869   0.267   7.957 -2.1061  0.4028 -0.0498
 6452TIP3   OH240914   5.974   5.949   7.097  0.1291  0.5276 -0.4181
 6452TIP3    H140915   6.063   5.977   7.120  1.1243 -1.7365 -1.2071
 6452TIP3    H240916   5.983   5.855   7.077 -2.1539  0.5564 -1.9468
 6453TIP3   OH240917   0.759   3.703   1.197  0.2571 -0.3605 -0.5403
 6453TIP3    H140918   0.774   3.667   1.284 -4.0759  1.2705  1.1196
 6453TIP3    H240919   0.692   3.648   1.158  0.0521  0.6339 -1.6763
 6454TIP3   OH240920   4.212   3.453   6.966  0.2618 -0.2799 -0.3279
 6454TIP3    H140921   4.238   3.401   7.042 -1.0063  0.1777  0.4497
 6454TIP3    H240922   4.138   3.506   6.996  1.5415  2.1031 -1.0231
 6455TIP3   OH240923   0.059   2.804   0.859  0.1794 -0.5054  0.1703
 6455TIP3    H140924   0.057   2.748   0.937 -2.2250  0.5213  0.9543
 6455TIP3    H240925  -0.003   2.762   0.799  0.1208  0.0559 -0.1622
 6456TIP3   OH240926   5.402   3.871   6.835  0.1244 -0.3179  0.0699
 6456TIP3    H140927   5.451   3.895   6.757 -1.6391 -1.9786 -1.6410
 6456TIP3    H240928   5.313   3.903   6.819 -0.6781 -2.1381  0.6199
 6457TIP3   OH240929   3.058   6.682   7.675 -0.0612  0.6957 -0.5504
 6457TIP3    H140930   2.966   6.710   7.674 -0.2453  0.1989  0.4415
 6457TIP3    H240931   3.105   6.756   7.714 -0.2861  0.3475  0.4124
 6458TIP3   OH240932   0.240   1.853   1.380  0.0971 -0.4638  0.6174
 6458TIP3    H140933   0.311   1.876   1.319  0.3359  0.5403  1.2631
 6458TIP3    H240934   0.196   1.778   1.338  0.2286  0.2303 -0.8166
 6459TIP3   OH240935   1.650   2.645   6.679 -0.0251 -0.0173  0.2748
 6459TIP3    H140936   1.563   2.641   6.639  0.3524  3.1255 -1.1491
 6459TIP3    H240937   1.635   2.617   6.770 -2.2281 -0.8763 -0.2845
 6460TIP3   OH240938   6.388   4.262   2.114  0.0081 -0.1661 -0.0625
 6460TIP3    H140939   6.402   4.311   2.033 -1.3022 -0.1232 -0.2809
 6460TIP3    H240940   6.298   4.230   2.107  0.3530 -1.3681  0.7388
 6461TIP3   OH240941   6.549   6.710   1.089 -0.1062  0.0292 -0.5443
 6461TIP3    H140942   6.636   6.748   1.106 -0.6846  0.5457  1.5243
 6461TIP3    H240943   6.538   6.719   0.994  0.4160  3.8413 -0.4209
 6462TIP3   OH240944   3.097   2.251   5.730  0.6244  0.2149 -0.1089
 6462TIP3    H140945   3.091   2.264   5.825 -0.9305 -0.5207 -0.0684
 6462TIP3    H240946   3.121   2.159   5.720  0.3347  0.1722 -0.4248
 6463TIP3   OH240947   3.540   0.653   7.714 -0.5810 -0.2551 -0.1008
 6463TIP3    H140948   3.572   0.622   7.799 -0.9294 -1.3036 -0.3423
 6463TIP3    H240949   3.618   0.655   7.658 -0.0889  1.7071  0.5665
 6464TIP3   OH240950   2.438   3.805   1.211  0.5959  0.1025  0.0343
 6464TIP3    H140951   2.442   3.743   1.138 -0.1902  1.0022 -0.8150
 6464TIP3    H240952   2.439   3.891   1.168  0.3201  0.6506  1.1032
 6465TIP3   OH240953   4.694   1.838   6.380  0.1118  0.2711 -0.2918
 6465TIP3    H140954   4.702   1.815   6.288 -0.9905 -0.9962 -0.0966
 6465TIP3    H240955   4.717   1.931   6.383  0.1798  0.3298 -1.8324
 6466TIP3   OH240956   1.420   2.031   8.002  0.4350  0.6198 -0.0107
 6466TIP3    H140957   1.366   2.034   8.081 -0.2750  1.7482 -0.5138
 6466TIP3    H240958   1.509   2.043   8.033  0.2380  0.3511  0.6781
 6467TIP3   OH240959   3.745   1.083   5.955  0.3876 -0.2329 -0.6369
 6467TIP3    H140960   3.786   0.997   5.948 -0.5242 -1.1342  3.0857
 6467TIP3    H240961   3.813   1.139   5.992 -0.4437 -0.8250  2.0446
 6468TIP3   OH240962   0.754   5.417   7.947 -0.5969  0.7404 -0.0941
 6468TIP3    H140963   0.676   5.383   7.990 -0.4070  0.1534 -0.2031
 6468TIP3    H240964   0.760   5.366   7.865  0.7941 -0.3732  0.6557
 6469TIP3   OH240965   6.869   4.039   7.707 -0.2533 -0.0062  0.6418
 6469TIP3    H140966   6.940   3.975   7.710 -1.2258 -1.1652 -0.1541
 6469TIP3    H240967   6.907   4.116   7.665  1.1955  0.3281  2.4313
 6470TIP3   OH240968   6.787   7.025   7.003 -0.1574  0.2626 -0.1042
 6470TIP3    H140969   6.758   7.085   6.934 -0.9058  0.6717  0.5636
 6470TIP3    H240970   6.882   7.039   7.008  0.0085 -0.2180 -1.4633
 6471TIP3   OH240971   6.926   0.525   8.218  0.0083  0.2513 -0.0477
 6471TIP3    H140972   6.862   0.485   8.276  0.2505  0.2708  0.2326
 6471TIP3    H240973   6.999   0.549   8.275  0.8900 -1.0659 -0.5759
 6472TIP3   OH240974   0.478   0.578   1.677 -0.0398 -0.2358  0.0002
 6472TIP3    H140975   0.423   0.505   1.648  0.8859 -0.6786 -0.7333
 6472TIP3    H240976   0.556   0.535   1.713  0.1545  0.3877  0.3295
 6473TIP3   OH240977   6.145   1.940   8.158 -0.0486  0.0917 -0.2048
 6473TIP3    H140978   6.231   1.977   8.142  1.0258 -2.2954 -0.3911
 6473TIP3    H240979   6.094   1.963   8.080  0.5442  1.1198 -0.3053
 6474TIP3   OH240980   2.761   3.044   6.671  0.0751  0.2062 -0.0555
 6474TIP3    H140981   2.722   2.960   6.644  0.4731 -0.8731  2.4073
 6474TIP3    H240982   2.701   3.077   6.738  2.0187 -0.2987  2.0669
 6475TIP3   OH240983   0.847   4.025   6.844  0.1841  0.2511  0.2177
 6475TIP3    H140984   0.842   4.019   6.749  1.2097  0.5604  0.1296
 6475TIP3    H240985   0.906   3.955   6.870  0.6788  0.7719  0.5252
 6476TIP3   OH240986   1.886   3.307   6.699  0.4137  0.2695 -0.3215
 6476TIP3    H140987   1.860   3.387   6.654  1.8068  1.4285  0.8383
 6476TIP3    H240988   1.951   3.266   6.641  1.8253  1.4970  0.3243
 6477TIP3   OH240989   5.478   0.622   7.934 -0.6186  0.4165  0.0740
 6477TIP3    H140990   5.547   0.612   7.999  0.5621  1.8808 -0.8915
 6477TIP3    H240991   5.402   0.576   7.971  0.5018 -0.1773  1.7037
 6478TIP3   OH240992   5.738   4.785   7.098 -0.6843  0.5230  0.1566
 6478TIP3    H140993   5.819   4.836   7.086  0.6139 -1.4958 -0.1888
 6478TIP3    H240994   5.668   4.849   7.086  0.8374  2.3799  0.5353
 6479TIP3   OH240995   2.939   4.010   6.548  0.4288 -0.2054 -0.5908
 6479TIP3    H140996   2.987   3.949   6.604 -0.4260  0.6427  1.1300
 6479TIP3    H240997   2.857   3.965   6.527  1.6031 -1.4205 -3.0667
 6480TIP3   OH240998   0.681   5.674   7.985  0.2357  0.1308 -0.4993
 6480TIP3    H140999   0.754   5.734   8.005  0.8194 -0.1917 -1.5778
 6480TIP3    H241000   0.723   5.599   7.943 -0.4506 -1.2074  1.1041
 6481TIP3   OH241001   2.054   6.221   8.154  0.0318 -0.1312 -0.1104
 6481TIP3    H141002   1.988   6.175   8.205  1.1195 -1.8874 -0.2097
 6481TIP3    H241003   2.138   6.184   8.182  0.8503  0.7105 -1.2989
 6482TIP3   OH241004   1.502   4.581   6.589 -0.2578  0.0560 -0.5105
 6482TIP3    H141005   1.496   4.614   6.500 -1.7447  1.7361  0.1591
 6482TIP3    H241006   1.413   4.552   6.610  0.0838 -0.3663  0.4100
 6483TIP3   OH241007   5.049   0.862   7.670  0.2022  0.1756  0.6454
 6483TIP3    H141008   5.007   0.790   7.718  0.0266 -1.4394 -1.7963
 6483TIP3    H241009   5.131   0.825   7.639 -0.9166  0.1402 -2.6351
 6484TIP3   OH241010   3.412   3.964   7.426  0.4929  0.7295  0.3478
 6484TIP3    H141011   3.480   4.008   7.374  0.1745 -1.7850 -2.4997
 6484TIP3    H241012   3.459   3.904   7.482  0.7443 -0.2987 -0.9104
 6485TIP3   OH241013   5.838   2.980   7.006  0.0766  0.3260 -0.4578
 6485TIP3    H141014   5.833   3.066   7.049  0.8268  0.4051 -0.5125
 6485TIP3    H241015   5.853   2.919   7.078  0.4230  0.3523 -0.5031
 6486TIP3   OH241016   4.994   2.690   7.055  0.0792 -0.3819  0.5156
 6486TIP3    H141017   5.017   2.598   7.045 -2.2084 -0.9592  0.0230
 6486TIP3    H241018   4.905   2.689   7.089 -1.3380  1.5769 -2.6526
 6487TIP3   OH241019   7.033   2.792   0.399  0.4609  0.2258  0.0297
 6487TIP3    H141020   7.104   2.848   0.432 -0.5428  0.8835  1.1161
 6487TIP3    H241021   7.074   2.743   0.327  2.0594  0.4940  0.6944
 6488TIP3   OH241022   1.487   2.708   0.978 -0.1946 -0.4138  0.4449
 6488TIP3    H141023   1.473   2.632   1.035 -0.8077 -0.0727  0.7660
 6488TIP3    H241024   1.532   2.772   1.033 -0.2179 -0.3188  0.3539
 6489TIP3   OH241025   4.935   2.127   7.857 -0.6012 -0.7210  0.3754
 6489TIP3    H141026   4.948   2.033   7.846 -0.9909 -0.7839  0.4493
 6489TIP3    H241027   4.870   2.134   7.927  0.1967 -0.3726  1.1083
 6490TIP3   OH241028   1.701   1.420   0.553  0.1642 -0.1555 -0.0770
 6490TIP3    H141029   1.722   1.451   0.465 -2.7874 -0.5378 -1.0350
 6490TIP3    H241030   1.605   1.419   0.556  0.1422 -0.3473  3.1003
 6491TIP3   OH241031   3.959   6.938   7.225  0.0808 -0.5154  0.5620
 6491TIP3    H141032   4.033   6.891   7.186  0.7676 -0.1143  1.3371
 6491TIP3    H241033   3.982   7.031   7.214  0.5477 -0.3899  2.3273
 6492TIP3   OH241034   0.626   1.987   7.272 -0.4415  0.4867 -0.5018
 6492TIP3    H141035   0.622   2.063   7.214 -0.7409  0.3336 -0.6876
 6492TIP3    H241036   0.546   1.938   7.252 -0.3834  0.2643 -0.1908
 6493TIP3   OH241037   4.229   3.072   6.376 -0.2594 -0.7782 -0.3501
 6493TIP3    H141038   4.268   2.988   6.399 -1.2712 -0.6780  2.0571
 6493TIP3    H241039   4.303   3.132   6.370  0.2514 -1.2354  0.9687
 6494TIP3   OH241040   4.079   5.514   7.699  0.4655  0.3620  0.7434
 6494TIP3    H141041   4.102   5.433   7.653 -1.5961 -1.1498  2.2182
 6494TIP3    H241042   4.095   5.494   7.791  0.0582  1.7109  1.1218
 6495TIP3   OH241043   0.095   4.626   1.448 -0.0247  0.4951 -0.0061
 6495TIP3    H141044   0.135   4.692   1.391 -0.9339  0.7819 -0.3343
 6495TIP3    H241045   0.000   4.641   1.439 -0.4396 -2.5066 -2.1528
 6496TIP3   OH241046   1.845   5.436   1.000  0.4808  0.0498  0.6225
 6496TIP3    H141047   1.780   5.367   0.985  1.8040 -1.0250 -0.3840
 6496TIP3    H241048   1.840   5.452   1.095 -0.6339 -0.6169  0.7021
 6497TIP3   OH241049   2.441   2.235   1.208 -0.5295  0.2433  0.7301
 6497TIP3    H141050   2.525   2.259   1.248 -0.4423 -0.4435  0.9689
 6497TIP3    H241051   2.416   2.312   1.157  1.7449 -0.5705 -1.8510
 6498TIP3   OH241052   4.944   5.399   6.009 -0.0904  0.1612 -0.7510
 6498TIP3    H141053   4.908   5.369   6.092  0.7010  0.9506 -0.1146
 6498TIP3    H241054   5.006   5.330   5.984 -0.2519 -0.0239 -0.6497
 6499TIP3   OH241055   3.818   1.693   7.855  0.3033 -0.0388  0.2346
 6499TIP3    H141056   3.871   1.702   7.776  0.2086  3.0472  0.3985
 6499TIP3    H241057   3.741   1.748   7.838  0.7482  1.5179  2.7422
 6500TIP3   OH241058   5.016   6.347   7.778  0.4249 -0.3442  0.0158
 6500TIP3    H141059   4.998   6.262   7.819  0.1247  0.0817  0.7988
 6500TIP3    H241060   5.108   6.342   7.753  0.4641 -0.8309  0.2382
 6501TIP3   OH241061   0.437   2.341   7.543  0.0605  0.9796  0.5098
 6501TIP3    H141062   0.443   2.254   7.504  1.3208  1.4016 -0.3046
 6501TIP3    H241063   0.462   2.328   7.634 -0.9942  0.2971  0.7174
 6502TIP3   OH241064   3.602   3.462   0.564 -0.1489  0.4415 -0.1911
 6502TIP3    H141065   3.562   3.534   0.614  0.7603 -0.0647  1.3455
 6502TIP3    H241066   3.639   3.404   0.631 -1.3141 -1.7707 -1.3549
 6503TIP3   OH241067   5.273   5.052   7.326  0.1457  0.4224  0.4260
 6503TIP3    H141068   5.248   5.098   7.405  2.5928 -0.0604  1.5682
 6503TIP3    H241069   5.357   5.090   7.301  0.2366 -0.6039 -0.9595
 6504TIP3   OH241070   0.611   6.893   7.407 -0.0515 -0.4707 -0.2733
 6504TIP3    H141071   0.580   6.862   7.322 -0.0729  0.1225 -0.4897
 6504TIP3    H241072   0.695   6.935   7.387 -0.2706  0.0634 -0.0738
 6505TIP3   OH241073   6.387   1.296   1.229 -0.0998  0.1164 -0.1960
 6505TIP3    H141074   6.363   1.388   1.240 -0.3229 -0.0590  0.9236
 6505TIP3    H241075   6.310   1.247   1.259  0.0738 -0.4400 -0.6330
 6506TIP3   OH241076   1.775   6.149   6.464  0.4149 -0.0255 -0.6110
 6506TIP3    H141077   1.722   6.070   6.460  1.1620 -0.5422 -0.3609
 6506TIP3    H241078   1.865   6.120   6.451  1.0431  0.3785  2.1497
 6507TIP3   OH241079   4.042   4.849   6.035  0.1826  0.6173 -0.3326
 6507TIP3    H141080   3.973   4.825   5.972  0.9841 -1.9985 -0.3276
 6507TIP3    H241081   4.122   4.852   5.982  0.5931  0.1015  0.2487
 6508TIP3   OH241082   1.476   3.855   7.468  0.8133 -0.3823 -0.3061
 6508TIP3    H141083   1.402   3.912   7.446  2.2518  1.0611 -1.7297
 6508TIP3    H241084   1.463   3.777   7.413 -0.6957 -1.0954  0.9904
 6509TIP3   OH241085   2.892   2.903   6.956 -0.3654 -0.2617  0.1591
 6509TIP3    H141086   2.968   2.884   7.010 -0.5422  0.1806  0.5697
 6509TIP3    H241087   2.920   2.881   6.867  0.5123  0.6382  0.2015
 6510TIP3   OH241088   3.617   5.698   6.517  0.4852  0.1220  0.0635
 6510TIP3    H141089   3.528   5.693   6.482 -0.3956 -0.1745  2.1987
 6510TIP3    H241090   3.637   5.792   6.520 -0.8334  0.4034  1.9697
 6511TIP3   OH241091   6.624   3.792   5.720 -0.1087  0.0790 -0.2554
 6511TIP3    H141092   6.704   3.839   5.745  0.2162 -0.2804 -0.6158
 6511TIP3    H241093   6.555   3.858   5.726  0.3674  0.6428 -0.9125
 6512TIP3   OH241094   5.508   4.807   0.479  0.4744 -0.2286 -0.1162
 6512TIP3    H141095   5.413   4.794   0.474 -0.3225  3.9471 -0.0779
 6512TIP3    H241096   5.527   4.809   0.572 -0.0598  1.7606  0.0064
 6513TIP3   OH241097   3.409   1.944   7.981  0.2286 -0.4191 -0.4779
 6513TIP3    H141098   3.360   1.956   7.900  1.2999 -0.5488 -1.1582
 6513TIP3    H241099   3.342   1.924   8.046 -0.9962  2.5162 -0.6629
 6514TIP3   OH241100   0.376   0.198   6.102  0.5632 -0.1734 -0.8491
 6514TIP3    H141101   0.453   0.171   6.152  0.8071  0.0994 -1.0713
 6514TIP3    H241102   0.407   0.202   6.011  0.2760 -0.0988 -0.9446
 6515TIP3   OH241103   0.694   1.053   0.903 -0.2967 -0.3323  0.4419
 6515TIP3    H141104   0.631   1.124   0.893  0.6968  0.5367  0.1366
 6515TIP3    H241105   0.693   1.033   0.996 -0.1929  0.4709  0.6268
 6516TIP3   OH241106   0.638   5.391   1.721 -0.1417 -0.4670 -0.2465
 6516TIP3    H141107   0.714   5.442   1.748 -0.6375  0.2592 -0.1986
 6516TIP3    H241108   0.569   5.455   1.710 -0.8850 -1.1766  0.1845
 6517TIP3   OH241109   4.225   5.659   8.276  0.0783 -0.1623  0.5585
 6517TIP3    H141110   4.300   5.641   8.219  0.1877  1.9213 -0.0171
 6517TIP3    H241111   4.264   5.700   8.353 -0.2618 -1.3349  1.3920
 6518TIP3   OH241112   3.147   4.385   8.117  0.2912 -0.2088  0.2899
 6518TIP3    H141113   3.178   4.322   8.183  0.1279 -0.4584  0.1309
 6518TIP3    H241114   3.078   4.338   8.070 -0.1010  0.2301  0.4240
 6519TIP3   OH241115   0.234   3.699   8.166 -0.5316  0.5648 -0.5252
 6519TIP3    H141116   0.317   3.674   8.207 -0.6653  1.1457  0.1178
 6519TIP3    H241117   0.256   3.772   8.108 -0.8818  2.0035  1.0879
 6520TIP3   OH241118   6.370   0.924   6.462 -0.2512 -0.2416  0.0390
 6520TIP3    H141119   6.328   0.838   6.451  0.7647 -0.7928  0.3348
 6520TIP3    H241120   6.316   0.969   6.526 -0.0591 -1.1835  0.8931
 6521TIP3   OH241121   0.400   1.318   1.278  0.1905  0.5357 -0.7376
 6521TIP3    H141122   0.317   1.365   1.266  1.0787  1.8693 -1.9479
 6521TIP3    H241123   0.411   1.314   1.373 -1.1420  0.5372 -0.5637
 6522TIP3   OH241124   3.643   0.816   0.874  0.4621  0.5326 -0.3120
 6522TIP3    H141125   3.664   0.844   0.785  1.7078 -1.6912 -0.8060
 6522TIP3    H241126   3.721   0.837   0.925 -0.0544  1.3431  0.1545
 6523TIP3   OH241127   3.108   0.817   0.124 -0.3777  0.3119 -0.4071
 6523TIP3    H141128   3.122   0.901   0.080 -0.1527  0.3796 -0.2065
 6523TIP3    H241129   3.150   0.753   0.067 -0.9485  0.2781 -0.7949
 6524TIP3   OH241130   0.253   4.144   1.817 -0.4394  0.4192  0.1747
 6524TIP3    H141131   0.323   4.128   1.880  1.4708  1.3108 -1.6308
 6524TIP3    H241132   0.268   4.233   1.786 -0.7973 -0.2516 -2.1235
 6525TIP3   OH241133   6.455   5.182   7.320 -0.5303  0.0981 -0.3113
 6525TIP3    H141134   6.548   5.197   7.307 -0.5742  0.2051 -0.5033
 6525TIP3    H241135   6.437   5.099   7.276 -0.8168  0.7959 -1.5469
 6526TIP3   OH241136   6.574   3.105   7.950  0.0764 -0.3895  0.2331
 6526TIP3    H141137   6.655   3.116   7.999  0.8305 -1.9376 -0.5909
 6526TIP3    H241138   6.515   3.061   8.012 -0.5824  1.7061  1.2021
 6527TIP3   OH241139   5.611   4.445   1.769  0.4161 -0.2914 -0.0156
 6527TIP3    H141140   5.671   4.435   1.695  1.2927 -0.0329  0.6473
 6527TIP3    H241141   5.533   4.486   1.732  1.6917  1.9365 -0.4166
 6528TIP3   OH241142   0.661   6.606   0.313  0.1913 -0.3121  0.1192
 6528TIP3    H141143   0.732   6.641   0.366  0.6145 -1.4757  0.3478
 6528TIP3    H241144   0.657   6.513   0.336 -0.9622 -0.4063 -0.3879
 6529TIP3   OH241145   1.237   5.484   7.102 -0.0836 -0.3432 -0.0169
 6529TIP3    H141146   1.304   5.418   7.118  1.0724  0.8068  0.0391
 6529TIP3    H241147   1.267   5.530   7.023 -1.1249 -0.1897 -0.3404
 6530TIP3   OH241148   3.630   4.331   6.770 -0.3333  0.0239 -0.2371
 6530TIP3    H141149   3.605   4.308   6.680 -0.1855 -0.9502 -0.0295
 6530TIP3    H241150   3.700   4.395   6.759 -0.8907  0.5630 -0.8123
 6531TIP3   OH241151   6.732   3.992   0.580  0.1856 -0.2505  0.1141
 6531TIP3    H141152   6.647   4.003   0.538 -0.9375  1.2644  2.6127
 6531TIP3    H241153   6.728   3.906   0.621  0.0943 -0.4160 -0.2347
 6532TIP3   OH241154   4.733   6.765   1.112  0.0171  0.8443 -0.2480
 6532TIP3    H141155   4.789   6.768   1.190  0.4673  1.2739 -0.5795
 6532TIP3    H241156   4.656   6.817   1.136 -1.5706 -1.9756  1.1901
 6533TIP3   OH241157   4.097   3.900   7.337  0.0175 -0.5880 -0.4573
 6533TIP3    H141158   4.175   3.920   7.388 -0.0828 -0.3204 -0.4066
 6533TIP3    H241159   4.025   3.906   7.399 -0.1469  0.1148 -0.7022
 6534TIP3   OH241160   5.356   1.635   6.709 -0.2473  0.4451 -0.6006
 6534TIP3    H141161   5.402   1.688   6.644  1.1511  0.4176  0.3315
 6534TIP3    H241162   5.395   1.660   6.792  0.9354 -2.4745 -0.1730
 6535TIP3   OH241163   5.366   3.103   1.219 -0.0823 -0.1949 -0.0946
 6535TIP3    H141164   5.282   3.061   1.199  0.3439 -0.8595 -0.4991
 6535TIP3    H241165   5.397   3.135   1.134 -0.0532  0.2936  0.0968
 6536TIP3   OH241166   1.960   1.887   1.345  0.8432 -0.4299  0.0065
 6536TIP3    H141167   1.897   1.959   1.346  1.2186 -0.0029 -2.1408
 6536TIP3    H241168   1.953   1.848   1.433 -1.1653  0.6338  0.3907
 6537TIP3   OH241169   5.859   0.771   7.491  0.3172 -0.6118 -0.2394
 6537TIP3    H141170   5.878   0.861   7.463 -1.4195 -0.6907 -1.9184
 6537TIP3    H241171   5.944   0.726   7.487  0.7937  0.3275 -1.9888
 6538TIP3   OH241172   0.647   2.445   1.251  0.3559 -0.0866 -0.3402
 6538TIP3    H141173   0.615   2.361   1.220 -0.1106  0.4208 -1.2736
 6538TIP3    H241174   0.670   2.430   1.342 -1.7044 -0.7277  0.1425
 6539TIP3   OH241175   0.379   5.792   0.995 -0.2791 -0.6551  0.4408
 6539TIP3    H141176   0.390   5.697   0.997  0.7140 -0.5938 -0.7288
 6539TIP3    H241177   0.465   5.826   0.968 -0.8229  0.5138  0.0822
 6540TIP3   OH241178   6.070   2.622   7.114 -0.4987  0.6613  0.4725
 6540TIP3    H141179   6.113   2.555   7.167 -1.3600 -0.2539  0.0412
 6540TIP3    H241180   6.017   2.572   7.051 -0.0024  1.7213 -0.8261
 6541TIP3   OH241181   3.316   1.341   8.047  0.1049 -0.2668 -0.0237
 6541TIP3    H141182   3.267   1.314   7.969  0.1264 -1.0568  0.2239
 6541TIP3    H241183   3.339   1.259   8.090 -1.1151  0.1541  1.5581
 6542TIP3   OH241184   0.859   5.285   1.415  0.0878 -0.1347  0.3320
 6542TIP3    H141185   0.910   5.215   1.457  0.8362 -1.4158 -2.5038
 6542TIP3    H241186   0.925   5.350   1.390 -0.1998  0.0645  0.0969
 6543TIP3   OH241187   5.871   4.031   7.639  0.0620 -0.3799 -0.5693
 6543TIP3    H141188   5.804   4.084   7.595  0.0638 -0.9043 -1.2215
 6543TIP3    H241189   5.949   4.086   7.639 -0.4542  0.4044  0.5640
 6544TIP3   OH241190   3.900   1.486   0.192  0.6165  0.6427 -0.6870
 6544TIP3    H141191   3.913   1.393   0.177 -1.6592  0.0870  0.3582
 6544TIP3    H241192   3.853   1.517   0.114 -0.2522  0.4700 -0.2517
 6545TIP3   OH241193   1.647   1.063   6.857 -0.8284  0.0889  0.0650
 6545TIP3    H141194   1.650   0.978   6.901  0.5043  0.8618  1.5865
 6545TIP3    H241195   1.584   1.115   6.908 -0.0744  0.6516  0.4550
 6546TIP3   OH241196   0.078   1.235   1.135  0.3012  0.1269  0.1832
 6546TIP3    H141197   0.085   1.301   1.204  0.6785  0.3267 -0.0437
 6546TIP3    H241198   0.122   1.274   1.060 -1.4643  0.5602 -0.6704
 6547TIP3   OH241199   5.101   5.972   0.830 -0.5547 -0.0311 -0.8227
 6547TIP3    H141200   5.151   5.940   0.905 -0.1992  0.5140 -0.8237
 6547TIP3    H241201   5.034   5.904   0.815 -0.7007 -0.0866  0.0513
 6548TIP3   OH241202   4.640   5.954   1.264  0.2267 -0.7723  0.2882
 6548TIP3    H141203   4.700   6.027   1.280  0.9256 -1.2556 -0.0711
 6548TIP3    H241204   4.595   5.978   1.183  0.6730 -0.8661  0.0055
 6549TIP3   OH241205   4.556   1.396   0.247 -0.0495  0.1501  0.0397
 6549TIP3    H141206   4.531   1.304   0.234 -0.5169  0.3234 -0.3284
 6549TIP3    H241207   4.606   1.396   0.329 -0.3874 -0.3745  0.2541
 6550TIP3   OH241208   1.902   1.754   0.176 -0.3156 -0.0376  0.3422
 6550TIP3    H141209   1.862   1.668   0.163 -0.0467 -0.2301  0.7554
 6550TIP3    H241210   1.987   1.748   0.131 -0.5122  0.1835 -0.0604
 6551TIP3   OH241211   3.863   4.212   7.317 -0.2818 -0.9112 -0.5103
 6551TIP3    H141212   3.902   4.165   7.244  0.6553 -0.6363 -0.1901
 6551TIP3    H241213   3.935   4.258   7.358 -1.0541  0.2061 -0.3538
 6552TIP3   OH241214   0.531   5.599   7.415 -0.2091  0.5497 -0.0615
 6552TIP3    H141215   0.536   5.505   7.395 -1.6823  0.4731 -0.1219
 6552TIP3    H241216   0.445   5.611   7.454 -1.1902  2.3654 -2.5852
 6553TIP3   OH241217   2.414   2.759   6.285 -0.3375  0.1808  0.0696
 6553TIP3    H141218   2.462   2.840   6.267  0.1001  0.1004  0.8180
 6553TIP3    H241219   2.393   2.764   6.378  0.3444 -0.8985  0.2971
 6554TIP3   OH241220   3.865   5.508   0.084  0.4617 -0.1467 -0.0252
 6554TIP3    H141221   3.865   5.602   0.068 -0.3873  0.1035  1.2236
 6554TIP3    H241222   3.819   5.499   0.167  1.1149 -1.6173  0.2061
 6555TIP3   OH241223   1.392   6.895   0.975 -0.0881  0.3771  0.2737
 6555TIP3    H141224   1.319   6.837   0.996  1.3803 -1.0133  1.8113
 6555TIP3    H241225   1.373   6.976   1.023 -0.7448  0.1480  0.4207
 6556TIP3   OH241226   0.861   3.843   7.628 -0.2080  0.0131 -0.2629
 6556TIP3    H141227   0.916   3.767   7.610  1.5044  1.0596  0.3284
 6556TIP3    H241228   0.911   3.896   7.690 -1.4879  1.4741 -0.3933
 6557TIP3   OH241229   1.406   6.989   1.294 -0.7146  0.8832  0.2669
 6557TIP3    H141230   1.370   6.965   1.379  0.4014  0.3694  0.6205
 6557TIP3    H241231   1.449   6.909   1.262  0.2173  1.4845 -0.0528
 6558TIP3   OH241232   1.574   1.245   1.896  0.2491 -0.2916  0.5524
 6558TIP3    H141233   1.628   1.168   1.914 -0.6193 -1.3412 -0.9789
 6558TIP3    H241234   1.556   1.239   1.802 -0.6130  1.2872  0.5879
 6559TIP3   OH241235   2.810   6.237   1.075 -0.3814 -0.3566 -0.0549
 6559TIP3    H141236   2.743   6.305   1.075  0.1780  0.2964  2.2658
 6559TIP3    H241237   2.874   6.266   1.140  2.3324 -0.8163 -2.2879
 6560TIP3   OH241238   4.907   3.654   8.180  0.4408 -0.3226  0.2071
 6560TIP3    H141239   4.940   3.649   8.270  1.4075  0.4920 -0.0885
 6560TIP3    H241240   4.920   3.745   8.155 -0.7390 -0.3092 -0.4334
 6561TIP3   OH241241   3.439   4.067   0.819 -0.1983 -0.4249  0.1716
 6561TIP3    H141242   3.533   4.047   0.815  0.0695  0.6765  0.4729
 6561TIP3    H241243   3.435   4.154   0.859 -1.4360 -0.9939  1.3690
 6562TIP3   OH241244   4.876   0.575   8.171  0.3035 -0.3547 -0.2015
 6562TIP3    H141245   4.788   0.591   8.206  0.5764  1.6649 -0.3167
 6562TIP3    H241246   4.933   0.631   8.225  1.4199 -1.0528 -0.6289
 6563TIP3   OH241247   4.449   1.446   1.872  0.2097  0.2272  0.3210
 6563TIP3    H141248   4.519   1.498   1.912  0.3086  0.3681 -0.0337
 6563TIP3    H241249   4.382   1.441   1.940  0.7259 -0.2400  0.8037
 6564TIP3   OH241250   6.571   1.937   1.197 -0.1804  0.7420  0.9023
 6564TIP3    H141251   6.482   1.938   1.162  0.1640  1.0518  0.0131
 6564TIP3    H241252   6.593   1.844   1.205 -0.5881  0.6625  1.1618
 6565TIP3   OH241253   4.767   4.561   7.751 -0.3627  0.5089 -0.0507
 6565TIP3    H141254   4.698   4.498   7.733  0.1833  0.0825 -0.7445
 6565TIP3    H241255   4.847   4.508   7.755  0.1469  1.1839 -0.9501
 6566TIP3   OH241256   4.342   6.160   0.278 -0.0619 -0.2109 -0.1288
 6566TIP3    H141257   4.389   6.237   0.310 -1.0930  1.0320 -1.4810
 6566TIP3    H241258   4.308   6.118   0.358  2.2910 -0.5238  0.7971
 6567TIP3   OH241259   2.302   4.225   7.430  0.4842 -0.5917 -0.1499
 6567TIP3    H141260   2.339   4.288   7.368  1.1171 -0.6603  0.1466
 6567TIP3    H241261   2.295   4.273   7.512 -0.8014 -0.3582 -0.3749
 6568TIP3   OH241262   6.369   4.936   8.128 -0.1712 -0.2972  0.2658
 6568TIP3    H141263   6.405   4.862   8.078  1.0527  0.6631 -0.3262
 6568TIP3    H241264   6.274   4.925   8.121 -0.0159 -1.5879 -0.1370
 6569TIP3   OH241265   6.395   3.209   6.829  0.0602  0.7494  0.0869
 6569TIP3    H141266   6.435   3.182   6.746  1.1165  0.6675  0.5949
 6569TIP3    H241267   6.464   3.193   6.895 -0.8319  0.6009  1.0094
 6570TIP3   OH241268   2.446   2.011   1.083  0.2289 -0.1257  0.4086
 6570TIP3    H141269   2.537   2.019   1.054  0.5638 -0.5900  1.2982
 6570TIP3    H241270   2.429   2.091   1.132 -0.8126  1.3755 -2.2087
 6571TIP3   OH241271   5.866   1.294   7.536 -0.1506  0.1706 -0.0509
 6571TIP3    H141272   5.807   1.219   7.527  1.1661 -0.8866 -0.3303
 6571TIP3    H241273   5.924   1.270   7.609 -0.2045  1.2733  0.3609
 6572TIP3   OH241274   5.447   1.225   0.700  0.0092  0.0748  0.4604
 6572TIP3    H141275   5.353   1.213   0.686 -0.0709  1.1786 -0.0293
 6572TIP3    H241276   5.477   1.273   0.623  1.1498 -0.9863  0.2062
 6573TIP3   OH241277   6.662   2.347   7.277  0.1792  0.2213 -0.0555
 6573TIP3    H141278   6.593   2.355   7.343  0.3186  1.1938 -0.0124
 6573TIP3    H241279   6.741   2.378   7.322  0.4999 -0.1809 -0.3364
 6574TIP3   OH241280   0.852   2.229   6.703  0.3048  0.3214  0.3368
 6574TIP3    H141281   0.791   2.301   6.686 -1.1016 -0.5723  1.3072
 6574TIP3    H241282   0.827   2.196   6.789 -0.1574 -2.2752 -0.6714
 6575TIP3   OH241283   0.626   3.726   0.252 -0.5314 -0.5468 -0.1955
 6575TIP3    H141284   0.667   3.761   0.331 -0.7234 -1.5049  0.3398
 6575TIP3    H241285   0.539   3.699   0.279 -1.3270  0.8820 -1.1828
 6576TIP3   OH241286   1.972   4.763   1.189  0.4443 -0.4468 -0.3002
 6576TIP3    H141287   2.033   4.797   1.255  1.2709 -0.8602 -0.8275
 6576TIP3    H241288   2.019   4.774   1.106 -0.6889  0.3172 -0.8591
 6577TIP3   OH241289   1.277   3.331   5.966 -0.8166 -0.0248  0.8330
 6577TIP3    H141290   1.197   3.303   6.011 -0.0418 -0.2544  2.1188
 6577TIP3    H241291   1.270   3.426   5.962 -1.3381 -0.0728  0.5817
 6578TIP3   OH241292   4.705   2.667   7.136 -0.3808  0.3122  0.1035
 6578TIP3    H141293   4.680   2.731   7.203 -0.1946 -0.0775  0.5443
 6578TIP3    H241294   4.622   2.644   7.094 -0.5217  0.4118  0.3249
 6579TIP3   OH241295   5.406   6.559   0.888 -0.1820 -0.3496  0.4108
 6579TIP3    H141296   5.372   6.475   0.918 -2.3523  0.1199 -0.5300
 6579TIP3    H241297   5.328   6.614   0.877  0.9841  1.1293 -0.9962
 6580TIP3   OH241298   1.833   1.051   1.009 -0.5936 -0.5828  0.1606
 6580TIP3    H141299   1.878   0.976   0.971  0.9211  1.2766 -1.9745
 6580TIP3    H241300   1.745   1.048   0.970 -0.5321 -1.1973  0.0560
 6581TIP3   OH241301   1.635   3.559   2.298  0.0189 -0.0140  0.1413
 6581TIP3    H141302   1.718   3.547   2.344 -0.7185 -0.5538  1.3887
 6581TIP3    H241303   1.642   3.646   2.259  0.5832  0.5850  1.5119
 6582TIP3   OH241304   5.558   5.799   0.877  0.4003 -0.4471  0.0627
 6582TIP3    H141305   5.533   5.731   0.939  1.2294 -0.1239  0.7640
 6582TIP3    H241306   5.548   5.758   0.791  2.7626 -2.1761  0.5012
 6583TIP3   OH241307   3.193   0.418   1.174 -0.7880  0.5233 -0.5259
 6583TIP3    H141308   3.200   0.378   1.261 -1.7595 -2.9329 -1.8637
 6583TIP3    H241309   3.276   0.464   1.162  0.5229 -1.2316  1.2231
 6584TIP3   OH241310   3.548   5.975   6.803 -0.0420  0.0258  0.0055
 6584TIP3    H141311   3.471   5.957   6.750 -0.8566 -0.8660  1.4238
 6584TIP3    H241312   3.525   6.054   6.853  0.7136  0.8544 -0.9002
 6585TIP3   OH241313   6.761   3.311   6.322 -0.2876  0.5104 -0.4516
 6585TIP3    H141314   6.672   3.278   6.318  0.5814 -1.9802 -1.5316
 6585TIP3    H241315   6.795   3.279   6.406 -0.2945  1.1785 -0.1883
 6586TIP3   OH241316   3.930   5.339   7.919 -0.1109 -0.5229 -0.5757
 6586TIP3    H141317   3.887   5.409   7.870 -0.2438  0.2464  0.5951
 6586TIP3    H241318   3.866   5.313   7.985  0.2571 -1.1559 -0.4598
 6587TIP3   OH241319   5.226   3.663   7.491  0.2805  0.1071 -0.2403
 6587TIP3    H141320   5.258   3.579   7.459  0.5047  0.1242 -0.0643
 6587TIP3    H241321   5.132   3.660   7.476  0.3170 -0.0904 -0.4275
 6588TIP3   OH241322   1.611   2.046   6.235  0.3499 -0.5574 -0.2169
 6588TIP3    H141323   1.524   2.007   6.226 -0.6326  1.7963 -1.7511
 6588TIP3    H241324   1.663   1.978   6.277 -1.8227 -2.6145 -0.6428
 6589TIP3   OH241325   6.218   2.201   2.383  0.0889  0.0364 -0.1656
 6589TIP3    H141326   6.218   2.151   2.301 -1.2711  3.2639 -2.3508
 6589TIP3    H241327   6.306   2.238   2.389 -0.6103  2.1427 -1.8682
 6590TIP3   OH241328   0.056   0.576   0.320  0.4631 -0.2801  0.1852
 6590TIP3    H141329   0.149   0.569   0.297  0.2483 -0.0409 -0.8151
 6590TIP3    H241330   0.050   0.656   0.372  0.9470 -0.7662  1.0122
 6591TIP3   OH241331   5.869   2.677   7.776 -0.0216 -0.7559 -0.4910
 6591TIP3    H141332   5.805   2.739   7.810  0.1774  0.9096 -2.8954
 6591TIP3    H241333   5.949   2.695   7.826 -0.3681 -0.1105 -0.1559
 6592TIP3   OH241334   1.671   4.494   0.358  0.6446  0.2429 -0.4288
 6592TIP3    H141335   1.671   4.546   0.278 -2.0722  1.6708  0.3765
 6592TIP3    H241336   1.600   4.430   0.345  0.1552  0.4969  0.7784
 6593TIP3   OH241337   2.272   1.079   8.275  0.9663 -0.0401  0.0577
 6593TIP3    H141338   2.264   1.145   8.206  0.3248  0.3704  0.5138
 6593TIP3    H241339   2.263   1.128   8.356  0.7716 -0.6517  0.4101
 6594TIP3   OH241340   5.027   4.678   7.292  0.1002 -0.6081  0.6475
 6594TIP3    H141341   5.070   4.690   7.207  0.1362 -1.9145  0.4640
 6594TIP3    H241342   5.094   4.702   7.356  0.2405 -0.1127  0.3197
 6595TIP3   OH241343   5.454   2.968   1.440 -0.4322 -0.0484  0.2464
 6595TIP3    H141344   5.436   3.053   1.480 -1.2799 -0.4158  0.6685
 6595TIP3    H241345   5.428   2.980   1.348 -3.2240 -0.6257  0.8777
 6596TIP3   OH241346   2.310   1.270   1.739 -0.2592 -0.8058 -0.2454
 6596TIP3    H141347   2.255   1.341   1.771 -0.8970 -1.2238 -0.3916
 6596TIP3    H241348   2.263   1.190   1.764 -0.1754 -1.1531 -1.1625
 6597TIP3   OH241349   7.044   4.598   8.032  0.0349 -0.0285  0.3341
 6597TIP3    H141350   7.019   4.645   7.952  1.5630 -0.1349 -0.2322
 6597TIP3    H241351   7.052   4.666   8.098 -0.8963  0.1024  0.3297
 6598TIP3   OH241352   0.928   2.879   7.005 -0.3632 -0.0979 -0.3332
 6598TIP3    H141353   0.881   2.900   6.924 -0.1470  0.1506 -0.3953
 6598TIP3    H241354   0.899   2.790   7.027  0.1330 -0.4550 -1.0794
 6599TIP3   OH241355   6.529   4.119   7.559 -0.2262  0.2817 -0.0921
 6599TIP3    H141356   6.541   4.162   7.644  2.0372  0.4676 -0.4473
 6599TIP3    H241357   6.548   4.027   7.577  1.6177  0.5299 -0.6232
 6600TIP3   OH241358   5.016   2.484   0.615  0.6127  0.0062  0.2774
 6600TIP3    H141359   5.093   2.431   0.594  1.7477  1.5023  0.5380
 6600TIP3    H241360   5.046   2.574   0.609 -1.4668  0.6886 -0.9084
 6601TIP3   OH241361   2.295   1.491   0.280 -0.0720  0.2543  0.0131
 6601TIP3    H141362   2.329   1.553   0.214  1.1141  1.3686  1.5908
 6601TIP3    H241363   2.208   1.524   0.301 -0.4798 -0.1362 -1.0144
 6602TIP3   OH241364   1.672   2.394   7.136  0.0604  0.6984 -0.0935
 6602TIP3    H141365   1.724   2.325   7.095  0.0057  0.6395 -0.0636
 6602TIP3    H241366   1.726   2.472   7.129  0.1897  0.6183  0.0136
 6603TIP3   OH241367   3.511   5.994   0.986  0.4036  0.8526 -0.1504
 6603TIP3    H141368   3.604   5.978   1.001  0.5510  1.3165 -0.5399
 6603TIP3    H241369   3.470   5.977   1.071  0.6704 -0.5540 -0.2845
 6604TIP3   OH241370   6.787   6.700   8.098 -0.7935  0.4467  0.2440
 6604TIP3    H141371   6.721   6.667   8.159 -0.4439  0.1928  0.4859
 6604TIP3    H241372   6.751   6.783   8.066 -1.9442 -0.3966 -0.7741
 6605TIP3   OH241373   2.409   1.337   1.484 -0.5167 -0.0359 -0.6723
 6605TIP3    H141374   2.349   1.300   1.419 -1.0961 -0.1908 -0.0612
 6605TIP3    H241375   2.364   1.325   1.568  0.1495  0.3041 -0.2567
 6606TIP3   OH241376   6.141   1.338   8.000 -0.3079  0.4279 -0.2144
 6606TIP3    H141377   6.189   1.420   8.007  0.5624 -0.0308 -0.5660
 6606TIP3    H241378   6.178   1.295   7.922  0.0370 -0.7657  0.5624
 6607TIP3   OH241379   2.658   6.341   6.756 -0.1758 -0.6280 -0.1983
 6607TIP3    H141380   2.746   6.375   6.741  0.1992 -1.8946 -1.1261
 6607TIP3    H241381   2.600   6.414   6.733  0.5792 -0.6012 -2.2734
 6608TIP3   OH241382   6.192   0.460   1.090 -0.4008  0.4587 -0.3730
 6608TIP3    H141383   6.176   0.413   1.172 -1.4289  1.1710 -0.1427
 6608TIP3    H241384   6.265   0.518   1.110  0.9864 -1.1156 -0.7070
 6609TIP3   OH241385   2.211   2.553   0.233 -0.5867  0.3821  0.6153
 6609TIP3    H141386   2.160   2.475   0.251 -1.9136  1.4075  1.4837
 6609TIP3    H241387   2.255   2.535   0.150 -2.1302 -0.6636 -0.0057
 6610TIP3   OH241388   1.022   2.849   0.870 -0.5249 -0.5272  0.0589
 6610TIP3    H141389   1.022   2.860   0.965  2.8224 -1.5216  0.2990
 6610TIP3    H241390   1.115   2.845   0.846 -1.2296 -2.4202 -2.9741
 6611TIP3   OH241391   2.395   5.336   0.033 -0.0550  0.6217 -0.3664
 6611TIP3    H141392   2.362   5.332   0.123  1.8579  0.6946  0.3907
 6611TIP3    H241393   2.400   5.245   0.006 -0.0617  0.5596 -0.1654
 6612TIP3   OH241394   5.725   0.348   7.367  0.2058  0.0776 -0.5589
 6612TIP3    H141395   5.641   0.394   7.364 -1.8162 -3.2450  0.1843
 6612TIP3    H241396   5.740   0.333   7.461  1.3300  0.0991 -0.7281
 6613TIP3   OH241397   4.391   3.842   7.867  0.4000 -0.2475 -0.0478
 6613TIP3    H141398   4.394   3.747   7.883 -2.4906 -0.6204 -1.1353
 6613TIP3    H241399   4.298   3.861   7.857  0.9571  2.6550 -0.3935
 6614TIP3   OH241400   5.556   0.817   1.645  0.4875  0.4375 -0.1842
 6614TIP3    H141401   5.535   0.905   1.614  0.8910  1.2408  1.6709
 6614TIP3    H241402   5.526   0.816   1.736 -0.9939 -1.9040 -0.6065
 6615TIP3   OH241403   5.520   1.226   7.504  0.5425  0.1382 -0.6976
 6615TIP3    H141404   5.512   1.249   7.411  0.7851  2.2186 -0.2495
 6615TIP3    H241405   5.535   1.309   7.548 -2.6746 -0.3089  1.6264
 6616TIP3   OH241406   2.428   0.365   6.273  0.5377 -0.1416  0.9361
 6616TIP3    H141407   2.506   0.406   6.237  1.2363 -0.9235  1.5195
 6616TIP3    H241408   2.452   0.273   6.284 -0.5188 -0.4235  0.9727
 6617TIP3   OH241409   0.798   2.168   1.703 -0.3785  0.5329 -0.6186
 6617TIP3    H141410   0.727   2.128   1.754 -0.1351 -0.7721 -1.2628
 6617TIP3    H241411   0.852   2.212   1.768 -1.3490  0.8861 -0.0255
 6618TIP3   OH241412   5.167   6.265   0.183 -0.5803 -0.6109 -0.0461
 6618TIP3    H141413   5.086   6.257   0.234 -1.6075 -1.1687 -1.7039
 6618TIP3    H241414   5.215   6.184   0.201 -0.6949 -0.5839  0.3940
 6619TIP3   OH241415   1.922   6.983   8.236  0.0142 -0.4149  0.4791
 6619TIP3    H141416   1.892   7.074   8.240 -0.1801 -0.3987 -0.8115
 6619TIP3    H241417   1.848   6.935   8.200  1.2353 -0.4542 -2.3193
 6620TIP3   OH241418   0.397   6.753   1.188 -0.1527 -0.1583  0.5539
 6620TIP3    H141419   0.336   6.679   1.198  0.8141 -0.9307  0.8541
 6620TIP3    H241420   0.436   6.764   1.275  0.1483  0.3298  0.3642
 6621TIP3   OH241421   0.488   5.853   7.816  0.0914 -0.1824 -0.2628
 6621TIP3    H141422   0.580   5.831   7.801  0.3731  0.0432  1.0557
 6621TIP3    H241423   0.473   5.930   7.761  0.8246  0.0771 -0.1135
 6622TIP3   OH241424   4.327   1.387   1.644  0.3582  0.1978 -0.6532
 6622TIP3    H141425   4.385   1.312   1.630  0.9628  0.4968  0.1933
 6622TIP3    H241426   4.374   1.443   1.706 -1.1947  0.0027  0.7893
 6623TIP3   OH241427   5.550   4.226   8.258 -0.0441 -0.5359 -0.7686
 6623TIP3    H141428   5.515   4.211   8.171 -1.1780  1.9024 -0.8042
 6623TIP3    H241429   5.480   4.271   8.305  1.9238  1.8486  0.1097
 6624TIP3   OH241430   2.888   6.203   0.097 -0.5933 -0.4221 -0.4157
 6624TIP3    H141431   2.968   6.241   0.133 -0.7733  1.4404 -1.8509
 6624TIP3    H241432   2.823   6.216   0.166 -0.4066  1.0576 -0.4813
 6625TIP3   OH241433   3.481   4.858   8.226  0.3100  0.2176 -0.2759
 6625TIP3    H141434   3.519   4.931   8.177 -0.3116  0.4251 -0.4655
 6625TIP3    H241435   3.515   4.779   8.183 -1.6839  0.3542 -2.3094
 6626TIP3   OH241436   1.420   3.270   0.315  0.7774  0.2135  0.0262
 6626TIP3    H141437   1.350   3.256   0.252 -0.1033  1.6134  0.6404
 6626TIP3    H241438   1.378   3.260   0.401  1.9608 -1.6953  0.4571
 6627TIP3   OH241439   6.194   1.161   6.950 -0.1334  0.2334 -0.1312
 6627TIP3    H141440   6.150   1.079   6.925  0.7403 -0.0651 -0.7623
 6627TIP3    H241441   6.142   1.195   7.022 -0.3647 -1.0271  0.3323
 6628TIP3   OH241442   3.435   0.827   1.926 -0.2342 -0.3467 -0.3904
 6628TIP3    H141443   3.350   0.872   1.933  0.5305  0.9789  1.1213
 6628TIP3    H241444   3.475   0.863   1.847 -0.2895  0.4817 -0.0499
 6629TIP3   OH241445   0.351   6.725   1.702  0.0276 -0.5405  1.4720
 6629TIP3    H141446   0.313   6.764   1.780 -3.5884  0.7853 -0.7463
 6629TIP3    H241447   0.326   6.632   1.708 -0.5860 -0.3657  1.6672
 6630TIP3   OH241448   3.410   1.439   7.724  0.3724  0.0582  0.0515
 6630TIP3    H141449   3.487   1.404   7.770  0.9562  1.8323  0.4971
 6630TIP3    H241450   3.418   1.406   7.635  0.9215 -0.8583  0.4188
 6631TIP3   OH241451   1.267   5.423   1.042 -0.1880  0.0109  0.5958
 6631TIP3    H141452   1.299   5.416   0.952  2.7581 -2.1010  1.6333
 6631TIP3    H241453   1.261   5.517   1.058 -1.2850  0.4304 -1.9154
 6632TIP3   OH241454   2.029   6.836   6.556  0.4606  0.1784 -0.0449
 6632TIP3    H141455   2.039   6.834   6.651 -2.4848  0.5209  0.3779
 6632TIP3    H241456   2.040   6.928   6.532 -1.1179  0.5208  0.3779
 6633TIP3   OH241457   1.265   0.680   0.201  0.9070 -0.3207  0.5282
 6633TIP3    H141458   1.336   0.692   0.139 -0.2039  2.0843 -0.4064
 6633TIP3    H241459   1.306   0.639   0.277  2.9115 -0.6002 -0.6377
 6634TIP3   OH241460   5.503   0.055   0.786  0.1400 -0.5754  0.4647
 6634TIP3    H141461   5.522  -0.036   0.764  0.3033 -0.6080  0.7293
 6634TIP3    H241462   5.421   0.075   0.740  0.3333 -0.7186  0.0503
 6635TIP3   OH241463   6.381   6.340   0.894  0.4688 -0.0073 -0.0068
 6635TIP3    H141464   6.410   6.274   0.956  0.3547 -1.1937 -1.1622
 6635TIP3    H241465   6.290   6.317   0.875  0.3882  0.5522 -0.3138
 6636TIP3   OH241466   2.375   5.461   0.535 -0.3611  0.4786 -0.1383
 6636TIP3    H141467   2.340   5.510   0.461  0.2290  0.7533 -0.2407
 6636TIP3    H241468   2.433   5.522   0.580 -2.2975  1.0125  1.7942
 6637TIP3   OH241469   1.997   0.473   7.067 -0.1335 -1.2446  0.4225
 6637TIP3    H141470   1.945   0.461   7.146 -1.3563  0.5367 -0.0524
 6637TIP3    H241471   1.991   0.389   7.021 -0.8414 -1.7325  1.3745
 6638TIP3   OH241472   5.745   3.106   1.544  0.1052  0.1069 -0.1395
 6638TIP3    H141473   5.688   3.076   1.614 -0.4094  1.6895  0.1805
 6638TIP3    H241474   5.685   3.148   1.481  0.6154 -0.7877 -1.2583
 6639TIP3   OH241475   5.296   4.090   7.514  0.1745  0.0493  0.4121
 6639TIP3    H141476   5.299   4.011   7.567 -1.7146  1.2384  2.4458
 6639TIP3    H241477   5.384   4.099   7.479  0.8616 -2.0518  1.4572
 6640TIP3   OH241478   3.437   0.773   0.550  0.0433  0.2676 -0.1560
 6640TIP3    H141479   3.527   0.758   0.522  0.0823 -0.4166  0.2945
 6640TIP3    H241480   3.389   0.793   0.470  0.3044 -0.8690 -0.6213
 6641TIP3   OH241481   6.233   3.860   1.032  0.3946 -0.0777 -0.2023
 6641TIP3    H141482   6.267   3.852   1.121 -1.0358  0.6665  0.4618
 6641TIP3    H241483   6.303   3.827   0.976  1.4210 -0.3526  1.1793
 6642TIP3   OH241484   6.337   1.937   7.900  0.0511  0.3565 -0.1271
 6642TIP3    H141485   6.410   1.993   7.874  0.3719  0.6159  1.2285
 6642TIP3    H241486   6.379   1.860   7.939 -0.3153  1.1977  2.1268
 6643TIP3   OH241487   5.871   0.108   7.274  0.2247  0.2123 -0.8099
 6643TIP3    H141488   5.882   0.028   7.325 -1.4717 -1.9595 -3.5471
 6643TIP3    H241489   5.811   0.162   7.326 -0.6142 -1.4288 -0.0131
 6644TIP3   OH241490   5.403   5.077   0.294  0.5653  0.1425 -0.2188
 6644TIP3    H141491   5.413   4.999   0.241  2.7692  1.4208 -1.8353
 6644TIP3    H241492   5.309   5.084   0.309  0.1902 -1.9769 -1.2897
 6645TIP3   OH241493   6.029   0.084   0.252  0.1956  0.1713 -0.1399
 6645TIP3    H141494   6.111   0.110   0.294  0.0644 -0.6187  0.6336
 6645TIP3    H241495   6.050   0.003   0.206 -0.0492  0.1919 -0.2909
 6646TIP3   OH241496   4.451   4.315   0.694  0.3436 -0.3681  0.1812
 6646TIP3    H141497   4.467   4.248   0.761  0.5159  0.1725  0.6891
 6646TIP3    H241498   4.538   4.350   0.673  0.5958 -2.1776 -2.0945
 6647TIP3   OH241499   2.560   0.021   6.864  0.3505 -0.2002 -0.0136
 6647TIP3    H141500   2.623  -0.007   6.931 -0.4044 -3.7443 -0.5812
 6647TIP3    H241501   2.606   0.009   6.781 -0.2673 -0.5303 -0.3188
 6648TIP3   OH241502   2.754   0.957   0.120  0.2188 -0.4565 -0.4054
 6648TIP3    H141503   2.821   1.016   0.154 -1.4683  0.0702  2.2398
 6648TIP3    H241504   2.780   0.870   0.151 -0.1592 -0.2839  0.4244
 6649TIP3   OH241505   5.766   5.254   7.375 -0.1469  0.3429 -0.3066
 6649TIP3    H141506   5.843   5.307   7.396 -0.4084  1.3111 -1.6604
 6649TIP3    H241507   5.775   5.177   7.431  0.6567  1.4348  1.1546
 6650TIP3   OH241508   6.107   4.881   6.690  0.8525 -0.7829 -0.6976
 6650TIP3    H141509   6.055   4.946   6.737  1.5523 -1.1724  0.6817
 6650TIP3    H241510   6.067   4.797   6.714  3.0207 -1.2337  1.7504
 6651TIP3   OH241511   4.083   0.437   0.682  0.8496  0.2390  0.1742
 6651TIP3    H141512   4.113   0.403   0.598  1.1996 -2.4156  1.2928
 6651TIP3    H241513   4.158   0.426   0.741 -0.9792 -3.2384  2.1570
 6652TIP3   OH241514   4.910   0.748   1.512 -0.3028 -0.0983  0.7173
 6652TIP3    H141515   4.836   0.687   1.513 -0.2226 -0.2196 -0.2162
 6652TIP3    H241516   4.963   0.721   1.438 -1.3442  2.3742 -1.0733
 6653TIP3   OH241517   6.553   2.387   0.298  0.0840 -0.2020  0.0675
 6653TIP3    H141518   6.630   2.424   0.256  0.0440  0.3691  0.4726
 6653TIP3    H241519   6.485   2.390   0.231  0.4376 -0.8268 -0.3318
 6654TIP3   OH241520   4.964   3.945   1.064  0.2801  0.1541  0.7303
 6654TIP3    H141521   4.909   3.871   1.037 -0.1654  0.7948 -0.1773
 6654TIP3    H241522   5.052   3.908   1.069 -0.1995 -0.8876  2.2154
 6655TIP3   OH241523   1.804   4.702   2.135  0.0126 -0.2442 -0.0416
 6655TIP3    H141524   1.718   4.682   2.172 -0.6745  1.1702 -0.7862
 6655TIP3    H241525   1.791   4.702   2.040  1.0949 -1.0792 -0.2096
 6656TIP3   OH241526   1.634   5.782   8.211 -0.2724  0.1576 -0.0304
 6656TIP3    H141527   1.665   5.721   8.143  1.2966  0.1823  0.6261
 6656TIP3    H241528   1.686   5.861   8.197 -1.5025  0.9624 -0.1598
 6657TIP3   OH241529   2.778   3.683   5.938  0.1457 -0.2016 -0.7059
 6657TIP3    H141530   2.760   3.589   5.932  0.4849 -0.3213  0.0865
 6657TIP3    H241531   2.787   3.711   5.846 -1.0436 -0.7133 -0.9965
 6658TIP3   OH241532   5.743   0.872   8.084  0.4793 -0.4316 -0.1203
 6658TIP3    H141533   5.727   0.888   8.177 -1.0903 -0.0092 -0.4271
 6658TIP3    H241534   5.805   0.941   8.059  1.8154 -1.2400  0.8309
 6659TIP3   OH241535   4.025   3.250   0.338 -0.5017  0.2935  0.5604
 6659TIP3    H141536   3.939   3.289   0.350 -0.2735  1.0039 -0.0445
 6659TIP3    H241537   4.029   3.181   0.404 -0.3018  2.3303  2.8210
 6660TIP3   OH241538   3.112   5.384   6.127  0.2431  0.0448 -0.4225
 6660TIP3    H141539   3.178   5.449   6.152 -0.0768  0.0766  0.3582
 6660TIP3    H241540   3.147   5.301   6.157 -0.3309  0.1353  0.5157
 6661TIP3   OH241541   5.895   1.316   6.870 -0.0736 -0.3002  0.1854
 6661TIP3    H141542   5.918   1.266   6.948  0.6335 -0.3003 -0.0091
 6661TIP3    H241543   5.819   1.368   6.896 -0.7882 -1.4260  0.4060
 6662TIP3   OH241544   4.195   5.443   0.359  0.2077  0.3999 -0.3651
 6662TIP3    H141545   4.185   5.409   0.270  0.8401  1.3798 -0.8342
 6662TIP3    H241546   4.180   5.537   0.350 -0.1240  0.4496  0.6435
 6663TIP3   OH241547   2.483   2.825   0.208  0.1108  0.0645 -0.3092
 6663TIP3    H141548   2.546   2.845   0.139 -0.9317  0.9296 -1.0415
 6663TIP3    H241549   2.399   2.851   0.172 -0.5380 -0.0263  1.0723
 6664TIP3   OH241550   0.488   1.126   1.995 -0.4138 -0.0050 -0.1320
 6664TIP3    H141551   0.418   1.156   2.053 -0.1994  0.6843 -0.2096
 6664TIP3    H241552   0.494   1.032   2.010 -0.5634  0.1167  0.7380
 6665TIP3   OH241553   0.237   3.783   7.178  0.0356  0.5339 -0.0368
 6665TIP3    H141554   0.315   3.838   7.185 -0.5839  1.3871  0.3595
 6665TIP3    H241555   0.259   3.703   7.225  0.3450  1.1557  0.9035
 6666TIP3   OH241556   1.934   0.693   6.912  0.4599 -0.0531  0.1740
 6666TIP3    H141557   1.974   0.769   6.954  1.8459 -1.1383  0.8774
 6666TIP3    H241558   1.970   0.618   6.958 -1.7365 -1.1492  0.2565
 6667TIP3   OH241559   2.353   6.987   0.075 -0.0456  0.6229  0.4244
 6667TIP3    H141560   2.426   7.023   0.125 -1.2612  1.8869  1.3811
 6667TIP3    H241561   2.386   6.904   0.040  1.6042  0.8256  1.4025
 6668TIP3   OH241562   1.966   3.850   1.076  0.0698  0.1243  0.5928
 6668TIP3    H141563   1.961   3.838   1.171  1.0037 -1.9585  0.4280
 6668TIP3    H241564   2.060   3.853   1.057 -0.0854  2.0933 -0.1494
 6669TIP3   OH241565   1.286   6.035   1.818 -0.2355  0.2056  0.3658
 6669TIP3    H141566   1.250   6.027   1.906 -1.9302 -0.7107 -0.3756
 6669TIP3    H241567   1.216   6.077   1.767  0.5956  0.4203 -0.6281
 6670TIP3   OH241568   1.784   6.314   1.400 -0.0530 -0.7861  0.1995
 6670TIP3    H141569   1.711   6.285   1.455  0.0547  1.3062  1.5791
 6670TIP3    H241570   1.862   6.297   1.453  0.3118 -1.3002 -0.4882
 6671TIP3   OH241571   4.048   0.747   0.548  0.1402  0.1107  0.1320
 6671TIP3    H141572   4.054   0.665   0.499  0.1165  0.3462 -0.2728
 6671TIP3    H241573   4.084   0.813   0.488 -0.4221  0.4933  0.2100
 6672TIP3   OH241574   0.406   1.571   0.948  0.4638  0.0284  0.1390
 6672TIP3    H141575   0.327   1.519   0.958  1.3745 -1.6309 -0.8003
 6672TIP3    H241576   0.421   1.575   0.854  1.0890  0.9838  0.2585
 6673TIP3   OH241577   0.411   3.530   6.452 -0.1843  0.3367 -0.0139
 6673TIP3    H141578   0.409   3.585   6.373 -0.8991 -0.4899 -0.5928
 6673TIP3    H241579   0.423   3.441   6.418  0.8171  0.1108  0.9016
 6674TIP3   OH241580   0.183   5.812   1.824  0.3745  0.1084 -0.8287
 6674TIP3    H141581   0.168   5.722   1.795  1.9187 -0.4439 -0.0256
 6674TIP3    H241582   0.278   5.818   1.836  0.2363  1.6662 -0.2648
 6675TIP3   OH241583   1.431   2.994   5.902  0.0274 -0.1012 -0.3106
 6675TIP3    H141584   1.487   2.949   5.840  1.7554  1.2036  0.2105
 6675TIP3    H241585   1.429   2.937   5.979 -2.9084 -2.1995 -1.7560
 6676TIP3   OH241586   6.856   3.984   6.806  0.2290 -0.2246  0.2413
 6676TIP3    H141587   6.924   4.045   6.835  1.1612 -0.7425 -0.7986
 6676TIP3    H241588   6.904   3.911   6.768 -0.9065 -0.9664  0.1880
 6677TIP3   OH241589   5.765   2.980   6.182 -0.3353 -0.4179 -0.0649
 6677TIP3    H141590   5.678   2.991   6.221  0.2872  1.1156  0.9884
 6677TIP3    H241591   5.817   3.052   6.218  0.5229  0.6587 -3.1682
 6678TIP3   OH241592   3.491   2.672   1.399  0.4458  0.5191 -0.0136
 6678TIP3    H141593   3.509   2.621   1.478 -1.3164 -0.3469 -0.1340
 6678TIP3    H241594   3.400   2.698   1.407  0.3594  0.7888 -1.5546
 6679TIP3   OH241595   3.232   6.884   7.737 -0.1153 -0.4316 -0.4589
 6679TIP3    H141596   3.286   6.861   7.661 -0.2752 -0.5262 -0.5453
 6679TIP3    H241597   3.286   6.859   7.812 -0.0178 -0.4779 -0.5423
 6680TIP3   OH241598   2.862   3.674   1.002  0.4680 -0.1314  0.4366
 6680TIP3    H141599   2.864   3.769   1.009 -3.3240  0.0295  1.6981
 6680TIP3    H241600   2.916   3.654   0.926 -0.3445  3.2134 -1.1733
 6681TIP3   OH241601   6.533   6.487   7.962 -0.0147  0.3428 -0.0209
 6681TIP3    H141602   6.445   6.522   7.952 -0.6919 -1.4442 -0.8147
 6681TIP3    H241603   6.591   6.562   7.953 -1.4184  1.4158 -0.3653
 6682TIP3   OH241604   0.991   0.734   6.530  0.1780 -0.2018 -0.4865
 6682TIP3    H141605   0.962   0.747   6.440  0.8145 -0.5620 -0.7504
 6682TIP3    H241606   0.937   0.794   6.582 -0.0453  0.1657 -1.1335
 6683TIP3   OH241607   5.197   1.967   1.812  0.2994  0.3370  0.0546
 6683TIP3    H141608   5.102   1.973   1.825  0.0053 -0.6919 -1.3974
 6683TIP3    H241609   5.233   2.031   1.873 -1.1811 -0.8169  2.2475
 6684TIP3   OH241610   0.348   0.883   1.865 -0.3355  0.3495  0.3960
 6684TIP3    H141611   0.407   0.808   1.848 -1.8102 -1.0937  1.3737
 6684TIP3    H241612   0.376   0.949   1.802 -0.1015 -1.6641 -1.7649
 6685TIP3   OH241613   6.084   6.037   0.260  0.2528  0.5775  0.2136
 6685TIP3    H141614   6.134   6.088   0.325 -0.8855 -0.4519  1.9910
 6685TIP3    H241615   6.000   6.083   0.253 -0.5943 -0.7041  1.4575
 6686TIP3   OH241616   5.645   1.036   2.177 -0.2040  0.2506  0.4137
 6686TIP3    H141617   5.576   1.013   2.239  1.5174  0.8278  2.6696
 6686TIP3    H241618   5.688   0.953   2.157  0.2505  0.2746  1.2814
 6687TIP3   OH241619   2.630   5.029   1.475 -0.1944  0.0885 -0.2953
 6687TIP3    H141620   2.622   4.936   1.499  0.7366 -0.1921 -0.9980
 6687TIP3    H241621   2.686   5.066   1.544  0.7306 -0.2421 -0.8452
 6688TIP3   OH241622   1.141   3.348   5.731 -0.2191  0.5922  0.5104
 6688TIP3    H141623   1.236   3.349   5.743 -0.1062  1.7827 -0.2416
 6688TIP3    H241624   1.108   3.300   5.807  1.0457 -0.9763  0.1352
 6689TIP3   OH241625   5.030   0.774   8.276  0.6353 -0.2485  0.6075
 6689TIP3    H141626   5.054   0.847   8.220  1.8530  0.2179  1.6854
 6689TIP3    H241627   4.965   0.810   8.336 -0.4323 -0.6665 -0.2535
 6690TIP3   OH241628   1.669   1.770   7.958 -0.6173 -0.2485  0.5518
 6690TIP3    H141629   1.717   1.735   8.033  0.1544 -1.8363 -0.6078
 6690TIP3    H241630   1.712   1.730   7.882  0.7629  3.7568 -1.0407
 6691TIP3   OH241631   5.632   2.567   0.847 -0.3067  0.6214  0.3918
 6691TIP3    H141632   5.700   2.633   0.834  1.0010 -0.9643 -1.5346
 6691TIP3    H241633   5.634   2.515   0.766 -1.4039 -1.6021  1.6978
 6692TIP3   OH241634   3.432   4.353   2.167  0.3231 -0.0711  0.2157
 6692TIP3    H141635   3.377   4.314   2.098  0.5151  1.1952 -0.6897
 6692TIP3    H241636   3.425   4.292   2.240 -1.4713 -0.4814 -0.2347
 6693TIP3   OH241637   5.473   4.740   0.733  0.0118  0.2266  0.2161
 6693TIP3    H141638   5.476   4.657   0.780 -0.5174 -0.1985 -0.4845
 6693TIP3    H241639   5.386   4.742   0.693  0.0804  1.0387  0.0769
 6694TIP3   OH241640   5.561   1.440   1.290  0.6103  0.3870  0.4205
 6694TIP3    H141641   5.606   1.496   1.353  0.8823 -0.1766  0.7327
 6694TIP3    H241642   5.624   1.371   1.269 -0.5966 -1.2592  1.9844
 6695TIP3   OH241643   6.241   2.009   6.879  0.4876 -0.0142 -0.5779
 6695TIP3    H141644   6.259   1.965   6.796 -1.1654 -1.5966 -0.1568
 6695TIP3    H241645   6.262   1.945   6.946 -0.4270  0.3952  0.1231
 6696TIP3   OH241646   4.564   4.244   7.522  0.2321  0.2917 -0.2420
 6696TIP3    H141647   4.570   4.339   7.515 -0.7420  0.4225  0.5388
 6696TIP3    H241648   4.655   4.214   7.519  0.4921  1.1653 -1.4062
 6697TIP3   OH241649   0.508   5.392   0.167  0.4977  0.0855  0.1983
 6697TIP3    H141650   0.571   5.320   0.161  1.5149  0.9716  0.0303
 6697TIP3    H241651   0.476   5.388   0.257 -0.5627 -1.4497 -0.1888
 6698TIP3   OH241652   1.760   3.459   6.257 -0.3177 -0.0408  0.2844
 6698TIP3    H141653   1.810   3.484   6.180  0.6399 -0.3632  0.7893
 6698TIP3    H241654   1.814   3.394   6.301 -0.8437  0.1481  1.2358
 6699TIP3   OH241655   2.241   6.925   0.715  0.4684  0.3947  0.0621
 6699TIP3    H141656   2.309   6.955   0.776 -0.6486 -0.4597  1.8309
 6699TIP3    H241657   2.165   6.979   0.737  0.1456  0.3287 -0.8719
 6700TIP3   OH241658   2.017   2.039   0.310 -0.4320 -0.2193 -0.3213
 6700TIP3    H141659   2.093   1.995   0.349 -0.3119 -0.2775 -0.6171
 6700TIP3    H241660   1.969   1.968   0.266 -1.7041 -0.5557  1.4493
 6701TIP3   OH241661   1.179   1.221   0.584  0.1585 -0.1081  0.0540
 6701TIP3    H141662   1.191   1.158   0.513  1.5666  0.1619  0.0230
 6701TIP3    H241663   1.194   1.171   0.664 -0.6655 -0.2384  0.1355
 6702TIP3   OH241664   2.999   6.010   5.911 -0.1592  0.4839 -0.0609
 6702TIP3    H141665   3.092   6.025   5.894 -0.3446  3.1474  0.8267
 6702TIP3    H241666   2.991   6.015   6.007 -1.1742 -0.2239 -0.0880
 6703TIP3   OH241667   5.983   4.644   6.738  0.4216 -0.1510 -0.2011
 6703TIP3    H141668   6.028   4.618   6.819  2.1525  1.6958 -0.5033
 6703TIP3    H241669   6.005   4.575   6.675 -1.9385 -2.2909  1.0795
 6704TIP3   OH241670   5.717   1.756   1.763 -0.7015  0.2679 -0.2424
 6704TIP3    H141671   5.631   1.741   1.804 -0.4344 -0.4152  0.0883
 6704TIP3    H241672   5.780   1.727   1.829 -0.2102  0.8297 -0.4611
 6705TIP3   OH241673   5.394   7.017   6.864  0.2556  0.2887 -0.3015
 6705TIP3    H141674   5.485   7.031   6.889  0.4810  0.6653 -1.2823
 6705TIP3    H241675   5.396   6.939   6.808  0.0210  0.5026 -0.6077
 6706TIP3   OH241676   1.444   6.711   0.297 -0.1272  0.5740 -0.0076
 6706TIP3    H141677   1.461   6.630   0.345  0.1708  1.3517  1.2206
 6706TIP3    H241678   1.503   6.776   0.336 -1.3936  1.7519  0.0242
 6707TIP3   OH241679   4.578   1.207   2.125 -0.3336 -0.2136 -0.1056
 6707TIP3    H141680   4.643   1.143   2.096  0.1417 -0.5218  1.5843
 6707TIP3    H241681   4.619   1.252   2.199 -0.6588  2.0824 -1.2367
 6708TIP3   OH241682   2.270   6.519   1.073 -0.0320 -0.1517  0.2712
 6708TIP3    H141683   2.240   6.437   1.111 -0.2197  0.4464  1.4529
 6708TIP3    H241684   2.230   6.521   0.986  0.0797 -1.3539  0.1737
 6709TIP3   OH241685   4.738   3.410   8.187 -0.1266 -0.0549 -0.6822
 6709TIP3    H141686   4.824   3.451   8.175  0.0686  0.3222  1.6095
 6709TIP3    H241687   4.679   3.482   8.208 -0.6052 -0.5310 -0.3672
 6710TIP3   OH241688   6.322   2.347   7.339  0.2066  0.2962  0.3441
 6710TIP3    H141689   6.370   2.422   7.305  1.1687 -0.0359  0.9311
 6710TIP3    H241690   6.319   2.286   7.265 -0.4765  0.8448 -0.0970
 6711TIP3   OH241691   1.689   0.676   7.708 -0.6100 -0.2536  0.1515
 6711TIP3    H141692   1.647   0.663   7.793  0.2838  2.1204  1.0150
 6711TIP3    H241693   1.645   0.752   7.670  1.3040  0.8830  0.0785
 6712TIP3   OH241694   6.302   0.196   0.851  0.1781 -0.0463 -0.3537
 6712TIP3    H141695   6.377   0.202   0.793  0.1350 -1.0649 -0.5347
 6712TIP3    H241696   6.332   0.144   0.925 -0.7673 -1.9102 -1.1992
 6713TIP3   OH241697   1.281   1.048   1.285  0.4150  0.2963 -0.0436
 6713TIP3    H141698   1.222   1.077   1.355  2.9185 -0.1634  2.4167
 6713TIP3    H241699   1.267   1.111   1.215 -1.0146  1.8106  1.5041
 6714TIP3   OH241700   1.590   2.424   6.441 -0.1562  0.2719  0.9075
 6714TIP3    H141701   1.529   2.382   6.381  0.7874 -0.4817  0.4481
 6714TIP3    H241702   1.537   2.487   6.489 -1.5220 -1.1117  1.2817
 6715TIP3   OH241703   2.648   2.798   6.843 -0.1764  0.0327 -0.3207
 6715TIP3    H141704   2.723   2.823   6.897 -0.7434  0.5358  0.2503
 6715TIP3    H241705   2.574   2.846   6.880 -0.7969 -0.4923 -0.8404
 6716TIP3   OH241706   3.170   6.746   0.985 -0.0359  0.4589 -0.1361
 6716TIP3    H141707   3.153   6.735   1.078 -0.1917 -0.2848 -0.2486
 6716TIP3    H241708   3.219   6.668   0.959  1.1345  1.2577 -0.4167
 6717TIP3   OH241709   2.886   2.829   2.030  0.0448  0.2459  0.2451
 6717TIP3    H141710   2.973   2.839   1.991 -1.1783  0.0328 -2.8059
 6717TIP3    H241711   2.846   2.915   2.022 -0.2195  0.2333  1.2432
 6718TIP3   OH241712   6.788   5.237   0.824 -0.0440  0.4126 -0.1693
 6718TIP3    H141713   6.831   5.319   0.846 -0.6325  0.6975 -0.0486
 6718TIP3    H241714   6.822   5.174   0.887  1.6063  0.1651 -1.2345
 6719TIP3   OH241715   0.120   3.525   7.972 -0.1211  0.3919  0.4870
 6719TIP3    H141716   0.159   3.570   8.047  0.0769 -1.1228  1.3387
 6719TIP3    H241717   0.028   3.551   7.972  0.2918  1.9458  0.0387
 6720TIP3   OH241718   4.102   0.930   7.904 -0.1455  0.1562 -0.5322
 6720TIP3    H141719   4.074   1.015   7.870 -0.3839  0.2472 -0.1115
 6720TIP3    H241720   4.167   0.952   7.971  2.2160 -0.0763 -2.5819
 6721TIP3   OH241721   4.250   4.939   0.526 -0.3826 -0.6223  0.1927
 6721TIP3    H141722   4.325   4.927   0.585  0.3242 -0.8769 -0.7307
 6721TIP3    H241723   4.218   4.850   0.510  0.6967 -0.7830 -1.3702
 6722TIP3   OH241724   5.395   6.119   1.065 -0.3412 -0.4025  0.9038
 6722TIP3    H141725   5.464   6.077   1.013 -1.7335 -1.3876 -0.2561
 6722TIP3    H241726   5.387   6.065   1.143 -0.1563 -0.5931  0.7911
 6723TIP3   OH241727   6.688   3.640   6.575  0.9822  0.2266  0.1091
 6723TIP3    H141728   6.682   3.563   6.631  0.5780 -0.3862 -0.7389
 6723TIP3    H241729   6.727   3.607   6.494 -1.8666  0.2188 -1.3943
 6724TIP3   OH241730   6.359   5.794   7.829  0.3091  0.2453  0.3545
 6724TIP3    H141731   6.365   5.879   7.785  2.0209  0.4823  0.9833
 6724TIP3    H241732   6.448   5.774   7.857 -0.3937 -0.7645  2.0839
 6725TIP3   OH241733   4.464   6.497   7.946  0.9637  0.1536  0.3718
 6725TIP3    H141734   4.436   6.537   8.028 -0.5014  0.6144 -0.3256
 6725TIP3    H241735   4.560   6.495   7.952  0.8716 -0.3102  2.2956
 6726TIP3   OH241736   3.703   1.357   7.322 -0.1140 -0.4124 -0.2821
 6726TIP3    H141737   3.753   1.386   7.245 -0.4589 -1.4000 -0.8932
 6726TIP3    H241738   3.734   1.414   7.393  0.3167  0.4232 -1.1076
 6727TIP3   OH241739   5.143   1.086   7.178 -0.5580  0.1918  0.2414
 6727TIP3    H141740   5.154   1.016   7.114 -0.8080  0.8014 -0.4791
 6727TIP3    H241741   5.174   1.048   7.261 -2.2890 -1.3668  0.2461
 6728TIP3   OH241742   5.764   4.440   1.547  0.2618 -0.4892 -0.1392
 6728TIP3    H141743   5.841   4.476   1.504  0.0240 -1.2246 -1.2262
 6728TIP3    H241744   5.726   4.381   1.482 -0.8311 -0.6611  0.6318
 6729TIP3   OH241745   3.114   4.897   7.373  0.0833 -0.2068  0.0155
 6729TIP3    H141746   3.161   4.943   7.442  0.7788 -2.7612  1.3852
 6729TIP3    H241747   3.094   4.964   7.308  0.0272  2.1867  2.3386
 6730TIP3   OH241748   3.337   6.167   2.568  0.2601  0.3895  0.6343
 6730TIP3    H141749   3.306   6.097   2.512  0.4860  0.6038  0.2316
 6730TIP3    H241750   3.410   6.129   2.617  0.5096  0.3941  0.2726
 6731TIP3   OH241751   4.225   1.673   7.058  0.0123  0.2612  0.5318
 6731TIP3    H141752   4.170   1.751   7.053 -1.2334 -0.5393  1.0859
 6731TIP3    H241753   4.180   1.608   7.005  0.9576 -0.1354  0.1943
 6732TIP3   OH241754   0.728   0.778   5.930  0.0088 -0.2532 -0.0066
 6732TIP3    H141755   0.690   0.695   5.957 -0.3373 -0.2968 -0.6016
 6732TIP3    H241756   0.822   0.763   5.931 -0.0256 -0.4565  0.4968
 6733TIP3   OH241757   6.612   2.737   5.815  0.2754  0.2569 -0.2629
 6733TIP3    H141758   6.674   2.749   5.743 -0.3001 -0.1492 -0.8429
 6733TIP3    H241759   6.666   2.707   5.888  0.8074  0.2258 -0.6602
 6734TIP3   OH241760   2.854   5.958   7.133 -0.3940 -0.2202 -0.6727
 6734TIP3    H141761   2.866   6.044   7.093 -0.9081 -0.1089 -0.6042
 6734TIP3    H241762   2.803   5.909   7.068 -2.8560  0.5491  0.5246
 6735TIP3   OH241763   5.759   1.798   0.764  0.4824  0.0691 -0.2131
 6735TIP3    H141764   5.741   1.862   0.694 -0.4986  0.3179  0.2533
 6735TIP3    H241765   5.679   1.795   0.815 -0.2899 -3.0362 -1.3554
 6736TIP3   OH241766   6.717   1.228   7.358  0.1336  0.3181  0.0179
 6736TIP3    H141767   6.721   1.277   7.276 -1.3742 -0.2774 -0.4375
 6736TIP3    H241768   6.669   1.149   7.337  0.5223 -0.2824  1.2856
 6737TIP3   OH241769   5.908   5.486   7.193  0.1529 -0.3717  0.3187
 6737TIP3    H141770   5.923   5.470   7.286 -2.1782  1.8708  1.1892
 6737TIP3    H241771   5.841   5.423   7.168 -1.2564  0.8292  0.9458
 6738TIP3   OH241772   5.060   4.138   2.113 -0.2727  0.2334  1.0066
 6738TIP3    H141773   4.969   4.128   2.138  0.0300 -0.9504  1.7168
 6738TIP3    H241774   5.105   4.164   2.193  0.3823 -1.6005  1.2786
 6739TIP3   OH241775   1.612   0.764   1.791  0.4336 -0.4468  0.0814
 6739TIP3    H141776   1.564   0.736   1.869  1.2351 -1.6429  0.1667
 6739TIP3    H241777   1.648   0.850   1.814 -0.7572 -0.0044  0.3856
 6740TIP3   OH241778   4.824   3.426   7.138 -0.5781  0.6341 -0.3593
 6740TIP3    H141779   4.853   3.445   7.048 -0.2582 -0.0482 -0.4061
 6740TIP3    H241780   4.857   3.338   7.155 -1.0594  0.5738  0.2579
 6741TIP3   OH241781   2.380   4.382   6.844 -0.3942 -0.2268 -0.1649
 6741TIP3    H141782   2.340   4.434   6.774 -0.2804  1.0874  0.7261
 6741TIP3    H241783   2.467   4.361   6.810  0.1613  1.5166  0.0669
 6742TIP3   OH241784   6.216   3.656   1.475  0.2332 -0.0296 -0.2525
 6742TIP3    H141785   6.179   3.607   1.548  3.3264 -1.6636  0.4012
 6742TIP3    H241786   6.263   3.591   1.423  1.9949  1.7474 -1.0406
 6743TIP3   OH241787   2.935   5.547   1.538  0.0563 -0.4517 -0.2580
 6743TIP3    H141788   2.877   5.476   1.511  1.1571 -0.9673 -1.4058
 6743TIP3    H241789   3.022   5.507   1.542  0.7330  0.8355 -1.0971
 6744TIP3   OH241790   6.327   5.285   1.988 -0.1956  0.4376 -0.7227
 6744TIP3    H141791   6.396   5.318   1.930  0.5251 -3.1661 -2.1771
 6744TIP3    H241792   6.246   5.319   1.950  0.2017 -2.0324 -4.3569
 6745TIP3   OH241793   2.339   4.446   8.256  0.6134 -0.0366  0.3537
 6745TIP3    H141794   2.378   4.486   8.179  0.4887  1.1145  0.8689
 6745TIP3    H241795   2.251   4.483   8.260 -0.6733 -2.6871 -0.8721
 6746TIP3   OH241796   3.948   5.881   0.572  0.3059  0.6090  0.4473
 6746TIP3    H141797   3.990   5.964   0.551 -0.3404  0.9966  0.6669
 6746TIP3    H241798   3.895   5.900   0.649  2.9934 -0.8532  2.8942
 6747TIP3   OH241799   1.968   6.621   2.201  0.1095  0.0988 -0.6806
 6747TIP3    H141800   1.886   6.619   2.250  0.2537 -0.0376 -0.4466
 6747TIP3    H241801   1.941   6.607   2.110  0.1218 -3.1218 -0.3028
 6748TIP3   OH241802   0.932   4.907   5.735 -0.3831  0.1454 -0.5315
 6748TIP3    H141803   0.998   4.961   5.691 -0.3845  1.1072  0.5965
 6748TIP3    H241804   0.950   4.918   5.828 -1.4236 -0.4983 -0.2396
 6749TIP3   OH241805   2.880   3.819   6.177  0.3841  0.1402 -0.2416
 6749TIP3    H141806   2.836   3.811   6.093 -0.0740  0.9324 -0.0889
 6749TIP3    H241807   2.956   3.874   6.159 -0.8712  2.1516  0.2348
 6750TIP3   OH241808   4.806   3.950   6.545 -0.2271  0.1667 -0.0942
 6750TIP3    H141809   4.767   4.017   6.489 -0.9896  0.7980  1.1342
 6750TIP3    H241810   4.866   3.902   6.488 -0.2840  1.3674 -1.2037
 6751TIP3   OH241811   6.931   1.893   7.727 -0.6743 -0.0514 -0.8840
 6751TIP3    H141812   6.894   1.833   7.792 -0.6788  0.6080 -0.2494
 6751TIP3    H241813   6.856   1.946   7.698 -0.8093 -0.8185 -1.9795
 6752TIP3   OH241814   3.769   6.654   7.133  0.1461 -0.5884  0.3242
 6752TIP3    H141815   3.821   6.577   7.112  0.3833  0.1524 -2.2446
 6752TIP3    H241816   3.819   6.728   7.097 -1.3140  0.4511  0.3009
 6753TIP3   OH241817   0.530   4.916   0.626  0.0039  0.4108 -0.5773
 6753TIP3    H141818   0.564   4.943   0.712 -1.0163  1.1385 -0.3812
 6753TIP3    H241819   0.472   4.988   0.600 -0.5631 -0.3166 -1.3650
 6754TIP3   OH241820   4.237   2.056   1.241  0.5315 -0.3218 -0.2405
 6754TIP3    H141821   4.197   2.116   1.303 -0.2548 -0.7004 -0.3638
 6754TIP3    H241822   4.289   2.112   1.183 -0.6195  0.3109 -0.6873
 6755TIP3   OH241823   0.611   0.476   7.923  0.0500  1.0728  0.5235
 6755TIP3    H141824   0.649   0.538   7.861 -0.2055 -0.9525 -1.8589
 6755TIP3    H241825   0.627   0.390   7.883  1.8920 -0.6639  4.3995
 6756TIP3   OH241826   1.058   6.059   7.327  0.2550 -0.9996 -0.0139
 6756TIP3    H141827   1.030   6.104   7.407 -1.8515 -1.6422 -0.3289
 6756TIP3    H241828   0.977   6.031   7.285  1.3824 -3.1908 -0.9338
 6757TIP3   OH241829   2.701   1.935   0.484 -0.1802  0.5035  0.3029
 6757TIP3    H141830   2.716   1.843   0.509  1.6548 -0.0792 -2.4791
 6757TIP3    H241831   2.725   1.985   0.562  2.3108 -1.2524  0.7919
 6758TIP3   OH241832   5.388   3.164   0.424  0.0315  0.0121 -0.4093
 6758TIP3    H141833   5.365   3.162   0.331 -1.0429 -1.4093 -0.1674
 6758TIP3    H241834   5.315   3.210   0.465 -0.3411 -0.8121 -0.1113
 6759TIP3   OH241835   5.975   2.081   1.407 -0.1733  0.1755  0.2502
 6759TIP3    H141836   5.936   2.067   1.493  1.0536  1.5031  1.0793
 6759TIP3    H241837   6.045   2.145   1.423  0.8638 -0.4457 -1.5355
 6760TIP3   OH241838   4.670   3.219   2.091  0.0539 -0.5716  0.2020
 6760TIP3    H141839   4.698   3.302   2.053 -0.2981 -0.3198  0.4866
 6760TIP3    H241840   4.743   3.159   2.074  0.6260 -0.0178  0.6345
 6761TIP3   OH241841   4.305   0.523   6.353 -0.3043 -0.8949  0.1246
 6761TIP3    H141842   4.362   0.496   6.425  1.1872  0.1450 -0.6123
 6761TIP3    H241843   4.280   0.613   6.376  0.2321 -0.5380 -0.6660
 6762TIP3   OH241844   4.819   0.004   1.213 -0.4949 -0.1606 -0.3183
 6762TIP3    H141845   4.802  -0.074   1.160 -0.2034  0.8546 -1.9602
 6762TIP3    H241846   4.748   0.064   1.192 -0.0602  0.4788  0.0075
 6763TIP3   OH241847   2.589   0.704   0.357  0.1487 -0.1284  0.0149
 6763TIP3    H141848   2.591   0.615   0.393 -0.7095 -0.0809  0.1970
 6763TIP3    H241849   2.672   0.712   0.310  0.3458 -0.9414  0.1971
 6764TIP3   OH241850   3.530   3.080   0.549 -0.5790 -0.0756 -0.2668
 6764TIP3    H141851   3.439   3.107   0.534 -0.5683  0.0674 -0.0685
 6764TIP3    H241852   3.525   3.015   0.619 -0.5993 -0.5649 -0.7059
 6765TIP3   OH241853   3.666   6.837   6.371  0.3373 -0.1397 -0.3995
 6765TIP3    H141854   3.668   6.889   6.291 -0.2789 -0.0801 -0.3837
 6765TIP3    H241855   3.709   6.754   6.347 -0.1403 -0.2499 -0.8895
 6766TIP3   OH241856   4.735   0.500   0.515 -0.0210 -0.4064  0.2887
 6766TIP3    H141857   4.692   0.517   0.431 -0.9419 -0.2853  0.7655
 6766TIP3    H241858   4.722   0.581   0.565  1.3912 -0.1094  0.1993
 6767TIP3   OH241859   4.095   0.937   1.640 -0.0401 -0.0937  0.1369
 6767TIP3    H141860   4.180   0.893   1.635  0.3925  0.7601 -0.0987
 6767TIP3    H241861   4.054   0.901   1.719  0.7512 -0.1332  0.5366
 6768TIP3   OH241862   2.290   0.572   8.206  0.3982 -0.2968 -0.0732
 6768TIP3    H141863   2.244   0.572   8.122  1.4767  1.4830 -0.7426
 6768TIP3    H241864   2.382   0.562   8.182  0.9005  1.8402  0.7049
 6769TIP3   OH241865   3.655   2.647   0.878  0.1438  0.0430 -0.4816
 6769TIP3    H141866   3.582   2.709   0.880 -0.1247 -0.2713  1.3536
 6769TIP3    H241867   3.655   2.608   0.966  1.5372 -1.1154 -0.9674
 6770TIP3   OH241868   5.248   3.076   1.751 -0.0182  1.0760  0.6413
 6770TIP3    H141869   5.198   3.082   1.832  0.5257 -1.9091  1.3141
 6770TIP3    H241870   5.200   3.013   1.697  2.1098 -0.7746  0.7373
 6771TIP3   OH241871   5.580   1.926   1.971 -0.2540 -0.5520 -0.4226
 6771TIP3    H141872   5.511   1.884   2.021 -0.8356 -0.0127 -0.7639
 6771TIP3    H241873   5.643   1.955   2.037 -0.5209 -0.7318 -0.0832
 6772TIP3   OH241874   0.016   5.707   1.294  0.0516 -0.3713 -0.2733
 6772TIP3    H141875   0.071   5.758   1.235 -0.2349 -0.6332 -0.7789
 6772TIP3    H241876   0.075   5.678   1.363  0.3670  0.0412 -0.3638
 6773TIP3   OH241877   5.520   1.098   0.254 -1.1791  0.2156  1.3319
 6773TIP3    H141878   5.575   1.066   0.183 -1.0794  2.0682  0.5219
 6773TIP3    H241879   5.435   1.055   0.241 -0.5759 -1.0265  1.3456
 6774TIP3   OH241880   4.895   4.487   8.039 -0.3343  0.3916 -0.7973
 6774TIP3    H141881   4.925   4.450   8.123 -0.3319 -0.3783 -1.1336
 6774TIP3    H241882   4.800   4.481   8.043 -0.3490  0.6673 -0.7126
 6775TIP3   OH241883   1.565   6.285   1.049  0.3051 -0.3575  0.0033
 6775TIP3    H141884   1.612   6.203   1.067 -0.1768 -0.7230 -0.3755
 6775TIP3    H241885   1.576   6.300   0.955  0.3100 -0.0381  0.0526
 6776TIP3   OH241886   3.639   4.368   0.558 -0.2555  1.2519  0.3428
 6776TIP3    H141887   3.716   4.374   0.614  1.4401 -1.8374 -1.4247
 6776TIP3    H241888   3.673   4.351   0.471 -2.9053  0.6478 -0.6778
 6777TIP3   OH241889   6.164   5.971   6.667 -0.2330  0.2109  0.3499
 6777TIP3    H141890   6.215   6.020   6.604 -0.6912  1.0269  0.5953
 6777TIP3    H241891   6.073   5.988   6.643 -0.4039 -0.2746  0.6290
 6778TIP3   OH241892   5.191   2.209   1.135 -0.0090 -0.2574 -0.0686
 6778TIP3    H141893   5.261   2.262   1.173 -0.0130  0.2238 -0.7158
 6778TIP3    H241894   5.192   2.128   1.186  2.0714 -0.9024 -1.0284
 6779TIP3   OH241895   4.064   4.581   2.048 -0.0610  0.3564  0.3830
 6779TIP3    H141896   4.092   4.581   1.957  0.7899 -0.8778  0.6148
 6779TIP3    H241897   4.056   4.488   2.070 -0.5285  0.6426  1.4870
 6780TIP3   OH241898   1.057   2.799   2.052 -0.6668 -0.0971 -0.6405
 6780TIP3    H141899   1.104   2.719   2.078 -0.2176  0.4340  0.2390
 6780TIP3    H241900   1.065   2.801   1.956  2.4835  0.7587 -0.4696
 6781TIP3   OH241901   6.543   6.433   7.281 -0.0711 -0.3241 -0.3878
 6781TIP3    H141902   6.522   6.366   7.215  1.1447 -1.3430  0.2271
 6781TIP3    H241903   6.637   6.447   7.272 -0.1906  0.8183 -0.0263
 6782TIP3   OH241904   5.538   3.262   7.775  0.3511 -0.1827 -0.6697
 6782TIP3    H141905   5.485   3.182   7.770  0.8133 -0.5056 -0.4337
 6782TIP3    H241906   5.573   3.262   7.864  1.6172 -0.5381 -1.1487
 6783TIP3   OH241907   5.223   7.006   1.070 -0.7687 -0.3547  0.0107
 6783TIP3    H141908   5.215   6.929   1.126  1.2809 -0.9413 -0.4123
 6783TIP3    H241909   5.179   7.076   1.119  1.0751 -0.7832  2.4656
 6784TIP3   OH241910   1.449   0.775   0.571 -0.7012  0.3369  0.2637
 6784TIP3    H141911   1.535   0.742   0.544 -0.8220  0.9867 -0.9912
 6784TIP3    H241912   1.464   0.813   0.657  0.6488  1.8708 -0.6037
 6785TIP3   OH241913   4.192   2.588   0.082 -0.7221  0.3679  0.2706
 6785TIP3    H141914   4.141   2.664   0.056  0.5176  1.0228 -0.3239
 6785TIP3    H241915   4.237   2.615   0.163  2.6571  1.7544 -1.8268
 6786TIP3   OH241916   2.657   2.283   0.356 -0.3250  0.6589 -0.5842
 6786TIP3    H141917   2.701   2.290   0.441  0.6849  1.6774 -1.1705
 6786TIP3    H241918   2.606   2.202   0.363  0.2144  0.3992  0.7662
 6787TIP3   OH241919   5.068   1.485   0.823 -0.2219 -0.0094  0.5364
 6787TIP3    H141920   5.129   1.539   0.874  0.0094  0.5088 -0.2707
 6787TIP3    H241921   5.002   1.547   0.792  1.0574  0.2074 -1.9660
 6788TIP3   OH241922   2.794   2.789   7.816  0.3935  0.3990  0.2111
 6788TIP3    H141923   2.842   2.856   7.769 -1.7173  1.6567 -0.2565
 6788TIP3    H241924   2.703   2.799   7.788 -0.7044  0.0931  3.2090
 6789TIP3   OH241925   1.686   1.233   1.260 -0.2557 -0.2974  0.1511
 6789TIP3    H141926   1.774   1.200   1.245 -0.5690 -0.6004 -1.2377
 6789TIP3    H241927   1.662   1.202   1.347  0.6242 -1.1021  0.1176
 6790TIP3   OH241928   1.574   0.839   6.999 -0.9833  0.5902  0.3171
 6790TIP3    H141929   1.485   0.805   7.010 -0.5246 -1.4361 -1.4568
 6790TIP3    H241930   1.629   0.780   7.051 -0.2408 -1.3042 -2.3530
 6791TIP3   OH241931   5.790   3.017   1.916 -0.0853  0.0362  0.1084
 6791TIP3    H141932   5.759   2.930   1.889 -1.5760  0.2786  0.9241
 6791TIP3    H241933   5.718   3.076   1.895 -0.4928  0.5503  2.6350
 6792TIP3   OH241934   3.329   3.309   6.436  0.0953 -0.3244  0.1462
 6792TIP3    H141935   3.369   3.349   6.359 -1.5157  0.6313 -0.2290
 6792TIP3    H241936   3.390   3.329   6.507  0.4463  0.8552 -0.4532
 6793TIP3   OH241937   3.680   3.368   7.257  0.4150  0.0112  0.3495
 6793TIP3    H141938   3.644   3.432   7.196 -0.6554  2.0342  2.9220
 6793TIP3    H241939   3.767   3.401   7.280  0.6039 -0.4467  0.3056
 6794TIP3   OH241940   4.436   1.520   6.976 -0.2553  0.4415  0.0760
 6794TIP3    H141941   4.378   1.591   7.003  0.4620  0.5646  1.3887
 6794TIP3    H241942   4.415   1.505   6.883 -1.2527  1.5376  0.1047
 6795TIP3   OH241943   5.368   3.372   6.557 -0.6656 -0.0065  0.5065
 6795TIP3    H141944   5.441   3.316   6.584  0.0011  0.6078  0.0158
 6795TIP3    H241945   5.403   3.424   6.486 -1.7180  0.0214 -0.0063
 6796TIP3   OH241946   6.327   4.202   0.139 -0.2209  0.2172  0.3804
 6796TIP3    H141947   6.275   4.273   0.176 -0.3682 -0.1593  0.9222
 6796TIP3    H241948   6.414   4.212   0.180  0.6707  1.8109 -1.7292
 6797TIP3   OH241949   4.729   1.510   6.471 -0.1231  0.2043 -0.2244
 6797TIP3    H141950   4.746   1.523   6.377  0.1582 -0.4621 -0.2699
 6797TIP3    H241951   4.706   1.417   6.478 -1.5583  0.5764  0.1631
 6798TIP3   OH241952   1.423   5.586   6.105 -0.0476 -0.0015 -0.1142
 6798TIP3    H141953   1.398   5.628   6.023 -0.5903  0.0997  0.0989
 6798TIP3    H241954   1.423   5.492   6.085  0.3980  0.0502 -0.3797
 6799TIP3   OH241955   0.322   6.799   7.412 -0.4759 -0.6424 -0.3227
 6799TIP3    H141956   0.400   6.828   7.365 -0.4293 -0.0761  0.0930
 6799TIP3    H241957   0.285   6.729   7.357 -0.6385  0.2618 -1.4067
 6800TIP3   OH241958   1.193   2.431   6.345  0.0879 -0.4729  0.6957
 6800TIP3    H141959   1.266   2.375   6.319 -0.4848 -0.9429  0.0767
 6800TIP3    H241960   1.217   2.518   6.314 -0.1425 -0.8456 -0.5777
 6801TIP3   OH241961   2.655   4.909   0.316  0.1786 -0.5021  0.0224
 6801TIP3    H141962   2.716   4.853   0.268  1.7616 -1.0332  2.4533
 6801TIP3    H241963   2.707   4.987   0.338 -1.1858  0.7452 -0.9881
 6802TIP3   OH241964   2.872   6.563   1.021  0.9970 -0.0553 -0.2069
 6802TIP3    H141965   2.824   6.582   1.102 -0.0390  0.3581 -0.8898
 6802TIP3    H241966   2.934   6.494   1.045  0.0450 -0.6253  0.7133
 6803TIP3   OH241967   5.148   6.804   1.263 -0.2925  0.4116 -0.3584
 6803TIP3    H141968   5.177   6.771   1.348  0.5017  0.4837 -0.5919
 6803TIP3    H241969   5.056   6.776   1.256 -0.6211  1.1384  0.8716
 6804TIP3   OH241970   6.341   3.379   1.077  0.3098  0.2087 -0.2966
 6804TIP3    H141971   6.409   3.417   1.022 -0.3923  0.0731 -1.2969
 6804TIP3    H241972   6.348   3.426   1.160  1.8019 -0.0168 -0.2641
 6805TIP3   OH241973   6.272   1.526   7.367 -0.8987 -0.6365  0.2570
 6805TIP3    H141974   6.255   1.481   7.284 -1.0239 -0.9344  0.4429
 6805TIP3    H241975   6.326   1.601   7.343 -0.7158 -0.8682 -0.0582
 6806TIP3   OH241976   2.047   2.045   7.040 -0.7475 -0.0513 -0.2898
 6806TIP3    H141977   2.070   1.960   7.077 -1.6731 -0.7608 -1.2582
 6806TIP3    H241978   1.995   2.024   6.962 -0.7027  1.4026 -0.7510
 6807TIP3   OH241979   2.566   3.023   7.760 -0.3964  0.2448  0.9604
 6807TIP3    H141980   2.655   3.039   7.788  0.1391 -0.8291 -0.0398
 6807TIP3    H241981   2.569   3.032   7.664 -0.9946 -1.2905  0.7624
 6808TIP3   OH241982   2.698   0.210   7.222  0.1933 -0.0599  0.0030
 6808TIP3    H141983   2.613   0.201   7.179 -0.1389 -1.0112  0.8301
 6808TIP3    H241984   2.757   0.236   7.151 -0.6865  0.1538 -0.6765
 6809TIP3   OH241985   7.041   3.844   1.578  0.5683 -0.4003  0.3574
 6809TIP3    H141986   6.948   3.836   1.558  0.7461  0.0044 -0.7555
 6809TIP3    H241987   7.083   3.847   1.491  1.4488  1.2862  0.8135
 6810TIP3   OH241988   1.065   2.288   0.412 -0.0978 -0.6860 -0.0053
 6810TIP3    H141989   1.061   2.227   0.486 -1.4906 -0.9222 -0.2522
 6810TIP3    H241990   1.085   2.373   0.452 -0.2426 -0.9195  0.5767
 6811TIP3   OH241991   6.686   5.330   0.294 -0.5562  0.7512  0.3008
 6811TIP3    H141992   6.635   5.408   0.315 -0.1701  0.5303  2.1995
 6811TIP3    H241993   6.641   5.292   0.218 -1.5358  2.0682  0.1850
 6812TIP3   OH241994   1.485   0.570   0.800 -0.3192  0.1407  0.0548
 6812TIP3    H141995   1.471   0.528   0.716  0.1997 -1.6029  0.7887
 6812TIP3    H241996   1.574   0.604   0.795 -0.3104  0.0928 -0.1230
 6813TIP3   OH241997   0.862   4.509   1.606 -0.2566 -0.1709  0.2749
 6813TIP3    H141998   0.907   4.535   1.526 -0.1260  1.2890  0.7765
 6813TIP3    H241999   0.930   4.511   1.674 -0.4855 -0.7925  0.5228
 6814TIP3   OH242000   1.240   2.150   0.636 -0.1880  0.3301  0.0665
 6814TIP3    H142001   1.209   2.189   0.718 -0.0741  4.2169 -1.5377
 6814TIP3    H242002   1.323   2.194   0.619 -0.1900 -0.4129 -2.1325
 6815TIP3   OH242003   2.418   5.063   6.996  0.4683  0.6561  0.0243
 6815TIP3    H142004   2.336   5.111   6.988 -1.0142 -1.8313 -0.5339
 6815TIP3    H242005   2.412   5.019   7.081  1.7670  1.2884  0.4840
 6816TIP3   OH242006   5.191   3.064   7.487  0.3739 -0.4651 -0.0261
 6816TIP3    H142007   5.198   2.969   7.500  2.4733 -0.4167 -0.4499
 6816TIP3    H242008   5.217   3.077   7.396  3.2703  0.7565  0.8626
 6817TIP3   OH242009   5.892   7.030   1.785 -0.3645 -0.0426 -0.0471
 6817TIP3    H142010   5.807   7.036   1.828 -0.3521  0.6808 -0.1090
 6817TIP3    H242011   5.885   7.089   1.710  0.1010 -0.1920 -0.2116
 6818TIP3   OH242012   0.193   2.357   6.352 -0.1560  0.4367  0.7411
 6818TIP3    H142013   0.107   2.315   6.359 -0.7315  1.3148 -0.6268
 6818TIP3    H242014   0.246   2.314   6.419 -0.8807 -2.0325 -0.1435
 6819TIP3   OH242015   6.493   6.934   7.610  0.0426 -0.1739  0.4895
 6819TIP3    H142016   6.582   6.902   7.597  0.7350  1.5167  0.8188
 6819TIP3    H242017   6.454   6.872   7.672  0.7510 -1.3002 -0.1503
 6820TIP3   OH242018   3.201   0.229   7.742  0.4509  0.2268 -0.2646
 6820TIP3    H142019   3.251   0.310   7.739  1.1832 -0.2058 -0.0811
 6820TIP3    H242020   3.216   0.194   7.830  1.4428 -0.8896 -0.8452
 6821TIP3   OH242021   1.178   4.458   1.167  0.0148  0.0732  0.0034
 6821TIP3    H142022   1.222   4.489   1.089 -2.7997 -0.0982 -1.7961
 6821TIP3    H242023   1.237   4.481   1.239  2.6727  0.3056 -2.1098
 6822TIP3   OH242024   0.109   4.963   7.219 -0.0624 -0.2767  0.2856
 6822TIP3    H142025   0.106   5.004   7.133  0.8978  1.6982  1.1464
 6822TIP3    H242026   0.186   4.906   7.216 -1.1665 -1.7893 -0.7765
 6823TIP3   OH242027   0.397   3.679   6.224  0.3875  0.2438  0.0706
 6823TIP3    H142028   0.373   3.771   6.211  0.2025  0.1737 -0.0847
 6823TIP3    H242029   0.388   3.639   6.138  0.6686  0.1245  0.0955
 6824TIP3   OH242030   2.128   3.287   7.225 -0.4627  0.0177  0.5976
 6824TIP3    H142031   2.124   3.206   7.174  1.1107  0.2927 -0.0330
 6824TIP3    H242032   2.136   3.356   7.159 -0.3783  0.5546  1.1622
 6825TIP3   OH242033   0.796   4.885   1.252  0.6174  0.0009 -0.2942
 6825TIP3    H142034   0.885   4.861   1.278  0.3784 -0.8947 -0.2952
 6825TIP3    H242035   0.741   4.855   1.325 -0.0924 -2.7087 -1.8264
 6826TIP3   OH242036   5.668   3.573   8.230  0.1173 -0.3570  0.5362
 6826TIP3    H142037   5.759   3.564   8.201  0.1953 -0.9074  0.9416
 6826TIP3    H242038   5.629   3.634   8.167  0.5249 -0.8160 -0.1746
 6827TIP3   OH242039   3.970   5.484   0.933  0.2906  0.0922 -0.2074
 6827TIP3    H142040   3.926   5.547   0.877  0.7284  0.2212 -0.4077
 6827TIP3    H242041   4.021   5.538   0.994  0.4261 -0.0627 -0.1844
 6828TIP3   OH242042   3.871   3.417   6.011  0.0259 -0.2030 -0.1554
 6828TIP3    H142043   3.956   3.386   6.042  0.1909  0.2111 -0.1983
 6828TIP3    H242044   3.854   3.366   5.932  0.5060  0.1367 -0.4799
 6829TIP3   OH242045   5.252   4.157   1.417  0.4335 -0.6673  0.3267
 6829TIP3    H142046   5.193   4.082   1.416  0.7175 -0.8904 -0.0577
 6829TIP3    H242047   5.330   4.125   1.463  0.2818 -0.3939  0.7762
 6830TIP3   OH242048   3.520   5.320   6.293  0.4149 -0.7356 -0.2931
 6830TIP3    H142049   3.590   5.293   6.234  1.1487  1.7253 -0.6612
 6830TIP3    H242050   3.489   5.403   6.258  0.8903  0.8583  2.7250
 6831TIP3   OH242051   1.573   5.959   6.516 -0.3009 -0.1895 -0.0693
 6831TIP3    H142052   1.641   5.924   6.573 -0.6101 -0.1060  0.3558
 6831TIP3    H242053   1.491   5.930   6.556 -0.5876  1.4731  0.6261
 6832TIP3   OH242054   1.019   3.284   6.061  0.0212 -0.0480 -0.6232
 6832TIP3    H142055   1.012   3.283   6.156 -0.1803 -0.5925 -0.6385
 6832TIP3    H242056   0.989   3.371   6.035  3.0640  1.3391  0.0152
 6833TIP3   OH242057   2.877   6.377   1.331 -0.0148  0.2508  0.1369
 6833TIP3    H142058   2.806   6.395   1.393 -0.5976 -0.5394 -0.2732
 6833TIP3    H242059   2.948   6.436   1.357 -1.0476  1.5282  0.1572
 6834TIP3   OH242060   2.008   3.170   8.260 -0.7718  0.4959  0.1061
 6834TIP3    H142061   2.075   3.108   8.230 -0.9083 -1.0233  2.6244
 6834TIP3    H242062   1.926   3.135   8.227 -0.5148  1.6776 -1.9346
 6835TIP3   OH242063   2.149   2.174   1.562 -0.5133 -0.2938 -0.4360
 6835TIP3    H142064   2.094   2.212   1.630 -2.4522 -3.0701 -0.3211
 6835TIP3    H242065   2.227   2.144   1.609 -0.4922  0.4325  0.0203
 6836TIP3   OH242066   1.675   5.886   7.327 -0.3728  0.0645 -0.4627
 6836TIP3    H142067   1.602   5.948   7.326  0.3336  0.9379 -1.9024
 6836TIP3    H242068   1.642   5.810   7.279 -1.0851 -0.5384  0.9094
 6837TIP3   OH242069   1.696   2.882   0.110 -0.0669  0.0030 -0.0532
 6837TIP3    H142070   1.734   2.934   0.040 -2.7784  2.4434  0.1309
 6837TIP3    H242071   1.660   2.946   0.171  0.7462 -2.0498  2.8129
 6838TIP3   OH242072   2.603   6.054   7.977  0.0269  0.6459  0.3002
 6838TIP3    H142073   2.643   5.970   7.957  0.2863  0.5605  1.1642
 6838TIP3    H242074   2.509   6.038   7.969  0.0724  0.2576  0.5296
 6839TIP3   OH242075   1.061   3.642   7.557 -0.2384  0.5138 -0.2558
 6839TIP3    H142076   1.139   3.624   7.610 -0.3798 -0.1772 -0.2757
 6839TIP3    H242077   1.083   3.607   7.470 -0.7982 -0.2401 -0.1043
 6840TIP3   OH242078   5.862   0.140   1.246  0.0015 -0.1221  0.3529
 6840TIP3    H142079   5.826   0.052   1.240 -1.1778  0.2317  1.7551
 6840TIP3    H242080   5.853   0.176   1.158 -0.8917 -0.8742  0.1265
 6841TIP3   OH242081   5.918   4.079   6.657  0.2233  0.2971 -0.5766
 6841TIP3    H142082   5.884   4.168   6.659 -2.2547 -0.5697  0.1358
 6841TIP3    H242083   5.918   4.055   6.565 -1.6112  0.2188 -0.5976
 6842TIP3   OH242084   0.375   2.261   6.622  0.3549  0.1293  0.1780
 6842TIP3    H142085   0.420   2.199   6.680 -0.6482  1.8280  3.0168
 6842TIP3    H242086   0.434   2.336   6.617  0.3340  0.0877 -0.8874
 6843TIP3   OH242087   2.620   3.319   0.361  0.5839 -0.9744  0.1899
 6843TIP3    H142088   2.533   3.359   0.360  1.0417  0.0597 -0.9764
 6843TIP3    H242089   2.614   3.249   0.426 -1.0449 -0.7685  0.2896
 6844TIP3   OH242090   1.581   1.481   0.302  0.0156  0.0041  0.2401
 6844TIP3    H142091   1.511   1.428   0.263 -1.2481  2.7077 -1.4881
 6844TIP3    H242092   1.541   1.519   0.380  1.1782 -2.0428  1.9416
 6845TIP3   OH242093   5.231   6.627   1.868  0.7454  0.4199  0.7634
 6845TIP3    H142094   5.138   6.647   1.874  0.7585  1.5488 -1.5584
 6845TIP3    H242095   5.274   6.701   1.911  0.5901  1.5403 -0.9136
 6846TIP3   OH242096   5.369   6.006   1.948  0.4310 -0.1410  0.1648
 6846TIP3    H142097   5.430   5.933   1.958 -0.3215 -0.7900  0.1256
 6846TIP3    H242098   5.315   6.004   2.026 -0.0313 -0.0412 -0.1484
 6847TIP3   OH242099   3.255   5.338   1.261  0.0308 -1.0411  0.3679
 6847TIP3    H142100   3.215   5.257   1.293 -1.5997 -0.3092  0.2569
 6847TIP3    H242101   3.269   5.323   1.168  1.2037 -1.7458  0.6309
 6848TIP3   OH242102   2.576   1.122   1.615  0.6171 -0.3931 -0.7599
 6848TIP3    H142103   2.513   1.181   1.658 -0.3659 -1.9289  0.0117
 6848TIP3    H242104   2.548   1.120   1.524  0.7159  0.4079 -0.8108
 6849TIP3   OH242105   6.221   6.194   0.424 -0.1688  0.1962 -0.0693
 6849TIP3    H142106   6.313   6.203   0.401 -0.1104  2.3485  0.8146
 6849TIP3    H242107   6.220   6.178   0.518 -0.7049  0.9671  0.0682
 6850TIP3   OH242108   0.573   4.469   7.725  0.1127 -0.0475  0.3706
 6850TIP3    H142109   0.509   4.533   7.694 -0.3110 -0.4880  0.3441
 6850TIP3    H242110   0.523   4.390   7.742  0.5275 -0.1744  1.0522
 6851TIP3   OH242111   6.503   2.855   7.710  0.0916 -0.2625 -0.1046
 6851TIP3    H142112   6.592   2.886   7.723  0.3641 -0.1666 -1.9098
 6851TIP3    H242113   6.501   2.769   7.753  1.1054 -0.3317 -0.1755
 6852TIP3   OH242114   0.472   6.870   0.751  0.1257 -0.7993  0.3602
 6852TIP3    H142115   0.488   6.804   0.820 -0.4511  0.9228  2.2359
 6852TIP3    H242116   0.381   6.896   0.764  0.6715  1.2182  0.4802
 6853TIP3   OH242117   3.488   6.911   6.547 -0.1283  0.2264 -0.1985
 6853TIP3    H142118   3.519   6.878   6.631  0.6738  0.1393 -0.5202
 6853TIP3    H242119   3.544   6.869   6.482 -0.0609  1.0675 -0.7086
 6854TIP3   OH242120   0.624   4.114   7.012  0.2349  0.3612  0.3474
 6854TIP3    H142121   0.698   4.064   6.979  0.8061  0.2564  1.7177
 6854TIP3    H242122   0.633   4.111   7.107 -1.3475  0.6259  0.5401
 6855TIP3   OH242123   1.531   2.547   6.914  0.3983 -0.3786  0.1455
 6855TIP3    H142124   1.515   2.577   7.003  0.0318 -1.9828  0.6580
 6855TIP3    H242125   1.450   2.567   6.867  0.3419 -0.1206  0.3544
 6856TIP3   OH242126   5.093   5.385   6.723  0.3410 -0.2107  0.2760
 6856TIP3    H142127   5.028   5.349   6.662 -0.5103  0.0726  0.9920
 6856TIP3    H242128   5.065   5.354   6.809  0.9732  0.1906  0.6349
 6857TIP3   OH242129   2.585   0.961   7.005  0.6251 -0.1978 -0.5332
 6857TIP3    H142130   2.510   0.985   7.060  0.4885 -0.5677 -0.5512
 6857TIP3    H242131   2.650   1.029   7.020 -0.3203  1.0319 -1.7350
 6858TIP3   OH242132   4.799   1.251   6.892 -0.6531  0.4136 -0.5036
 6858TIP3    H142133   4.877   1.196   6.896  0.1228  1.5222  0.3366
 6858TIP3    H242134   4.744   1.220   6.964  1.0235  2.4349  1.8360
 6859TIP3   OH242135   0.269   0.346   0.866  0.0990  0.2480  0.0732
 6859TIP3    H142136   0.221   0.416   0.909 -3.3542 -1.7752 -0.1338
 6859TIP3    H242137   0.246   0.354   0.773 -0.1111 -0.9598  0.0086
 6860TIP3   OH242138   5.007   0.730   7.941  0.8757 -0.0224  0.3472
 6860TIP3    H142139   5.004   0.700   8.032  2.2353 -1.1474  0.0560
 6860TIP3    H242140   4.935   0.793   7.934 -1.0975 -2.0135  1.4255
 6861TIP3   OH242141   3.945   6.512   1.579 -0.2009  0.6886  0.2687
 6861TIP3    H142142   3.892   6.472   1.509 -0.5442  0.9405  0.3832
 6861TIP3    H242143   3.964   6.439   1.638 -0.5313  0.6204  0.2947
 6862TIP3   OH242144   3.079   4.757   0.563  0.4297  0.1899 -0.3771
 6862TIP3    H142145   3.139   4.683   0.568  0.0401 -0.0722  0.6710
 6862TIP3    H242146   3.025   4.739   0.486 -1.9635 -2.4681  1.6723
 6863TIP3   OH242147   1.349   1.055   8.202  0.2290 -0.1686  0.5097
 6863TIP3    H142148   1.273   1.043   8.146  0.6253 -0.9085  0.1040
 6863TIP3    H242149   1.328   1.130   8.257 -0.1389  0.6428 -0.6982
 6864TIP3   OH242150   5.613   2.815   0.651 -0.2385 -0.0130  0.3369
 6864TIP3    H142151   5.578   2.731   0.622  1.8946 -1.1776  0.9308
 6864TIP3    H242152   5.673   2.842   0.581  0.4868  0.0683  0.9732
 6865TIP3   OH242153   1.540   3.218   0.055  0.3337  0.2738  0.2349
 6865TIP3    H142154   1.525   3.277   0.129  0.4912  1.7463 -0.8703
 6865TIP3    H242155   1.476   3.245  -0.010  0.0766 -1.1271 -0.1265
 6866TIP3   OH242156   3.185   5.218   0.872 -0.2635  0.4566 -0.0165
 6866TIP3    H142157   3.172   5.291   0.812  0.0902 -0.7088 -1.5923
 6866TIP3    H242158   3.280   5.207   0.877 -0.3222 -0.2002 -0.2019
 6867TIP3   OH242159   5.711   0.910   7.731  0.0799 -0.2081 -0.1789
 6867TIP3    H142160   5.763   0.836   7.764 -0.1076 -0.3319 -0.1642
 6867TIP3    H242161   5.685   0.957   7.810 -0.4077 -0.5301 -0.1478
 6868TIP3   OH242162   6.619   1.494   7.710  0.4808 -0.0425  0.1183
 6868TIP3    H142163   6.691   1.525   7.655  1.3776 -2.4842 -0.2125
 6868TIP3    H242164   6.554   1.564   7.706  1.2844  0.6756 -2.5620
 6869TIP3   OH242165   0.340   4.504   5.667  0.2810 -0.0937 -0.1037
 6869TIP3    H142166   0.406   4.434   5.669  1.8472  1.2446 -1.3210
 6869TIP3    H242167   0.296   4.493   5.583  0.6043  0.3988 -0.3475
 6870TIP3   OH242168   2.443   1.536   6.864  0.5515  0.1359 -0.1414
 6870TIP3    H142169   2.447   1.579   6.778 -0.8763 -0.4771 -0.5323
 6870TIP3    H242170   2.452   1.443   6.845  2.2766  0.1199  0.5844
 6871TIP3   OH242171   4.889   5.338   0.133 -0.3194  0.2517 -0.0847
 6871TIP3    H142172   4.940   5.415   0.157 -1.2445  1.4336 -1.6756
 6871TIP3    H242173   4.799   5.361   0.156 -0.6837 -0.0852 -1.1255
 6872TIP3   OH242174   0.562   6.427   1.255  0.4715 -0.1556 -0.1620
 6872TIP3    H142175   0.555   6.336   1.285 -0.9677  0.0528  0.2009
 6872TIP3    H242176   0.586   6.476   1.333  1.0562 -0.1927 -0.3162
 6873TIP3   OH242177   1.055   5.211   0.048  0.1165 -0.5794  0.5795
 6873TIP3    H142178   1.023   5.287  -0.000  1.2218 -0.8024 -0.5657
 6873TIP3    H242179   1.003   5.138   0.013 -1.6117 -0.2687  2.3549
 6874TIP3   OH242180   0.045   0.877   1.841 -0.2206  0.0852 -0.4002
 6874TIP3    H142181   0.041   0.796   1.791 -1.8300 -1.1585  1.6059
 6874TIP3    H242182   0.138   0.891   1.858  0.0272 -2.0534  0.2492
 6875TIP3   OH242183   4.404   6.261   1.385 -0.2771  0.0591  0.6306
 6875TIP3    H142184   4.485   6.218   1.411 -1.1431 -2.5850 -0.7003
 6875TIP3    H242185   4.372   6.301   1.466  1.5687 -0.1221  1.5068
 6876TIP3   OH242186   5.273   4.300   6.694  0.1975  0.1549  0.1988
 6876TIP3    H142187   5.356   4.326   6.734 -0.1694 -1.1155  1.9076
 6876TIP3    H242188   5.210   4.301   6.766 -0.9709 -0.2200 -0.7804
 6877TIP3   OH242189   1.287   6.834   0.049 -0.2915 -0.4086  0.4835
 6877TIP3    H142190   1.295   6.739   0.058 -0.0826 -0.5219 -0.6730
 6877TIP3    H242191   1.262   6.847  -0.043  0.8114  0.7036  0.3058
 6878TIP3   OH242192   5.190   6.485   2.239  0.4853  0.0601  0.0879
 6878TIP3    H142193   5.235   6.548   2.295  1.0267 -0.7960  0.6309
 6878TIP3    H242194   5.101   6.482   2.275  0.6342  0.0410  0.4647
 6879TIP3   OH242195   1.118   4.855   1.344  0.0391 -0.3371 -0.7145
 6879TIP3    H142196   1.180   4.793   1.304 -0.1942 -1.2591  0.3086
 6879TIP3    H242197   1.163   4.939   1.339  0.2096 -0.4854 -2.4798
 6880TIP3   OH242198   2.794   6.836   7.392 -0.7691 -0.2744 -0.1558
 6880TIP3    H142199   2.781   6.929   7.406 -0.2811 -0.3438  0.8481
 6880TIP3    H242200   2.789   6.797   7.479 -1.4996 -1.2605 -0.6223
 6881TIP3   OH242201   6.071   3.799   7.905 -0.3165 -0.4117 -0.4357
 6881TIP3    H142202   6.072   3.893   7.885 -0.3103 -0.6575 -1.7023
 6881TIP3    H242203   6.101   3.758   7.824 -2.8919 -1.6652 -0.8566
 6882TIP3   OH242204   2.229   3.864   0.997 -0.7000  0.2437 -0.0319
 6882TIP3    H142205   2.256   3.949   1.032  1.9451 -0.1825 -0.8206
 6882TIP3    H242206   2.215   3.880   0.904  2.4874 -0.5894 -0.7794
 6883TIP3   OH242207   2.737   6.209   7.805  0.3713  0.4164  0.8873
 6883TIP3    H142208   2.816   6.155   7.800  0.8975  1.2401 -0.1738
 6883TIP3    H242209   2.687   6.171   7.877  0.5185 -1.7478 -0.0805
 6884TIP3   OH242210   2.986   5.855   2.076  0.0331  0.1088 -0.3738
 6884TIP3    H142211   3.041   5.922   2.116 -1.0212  1.5954 -1.3049
 6884TIP3    H242212   2.999   5.866   1.982 -0.8154 -0.4100 -0.5665
 6885TIP3   OH242213   0.413   5.875   0.474  0.3543 -0.3640  0.3080
 6885TIP3    H142214   0.398   5.968   0.492 -2.1585 -0.7770  0.6935
 6885TIP3    H242215   0.405   5.832   0.559  2.4597 -0.8805  0.2889
 6886TIP3   OH242216   3.149   0.254   6.915  0.4263  0.3591  1.0004
 6886TIP3    H142217   3.191   0.333   6.950 -2.1047  2.2779  0.0179
 6886TIP3    H242218   3.221   0.203   6.879  2.6690  0.2692  4.9917
 6887TIP3   OH242219   2.634   5.510   7.907  0.4216  1.2320 -0.1769
 6887TIP3    H142220   2.587   5.544   7.983  0.1161  1.2959 -0.3937
 6887TIP3    H242221   2.637   5.416   7.920  0.0267  1.2049 -0.2783
 6888TIP3   OH242222   1.048   3.469   0.142 -0.2954  0.6282  0.0222
 6888TIP3    H142223   0.971   3.525   0.140 -2.4492 -2.0685  0.6963
 6888TIP3    H242224   1.022   3.391   0.093  1.9983 -0.4478  0.3669
 6889TIP3   OH242225   3.970   2.349   0.537 -0.2781  0.0113 -0.1187
 6889TIP3    H142226   3.940   2.370   0.626  1.4950  1.7794  0.1474
 6889TIP3    H242227   3.942   2.424   0.484 -2.5733 -1.6730 -1.4361
 6890TIP3   OH242228   4.187   0.181   6.762 -0.0040 -0.1670 -0.1653
 6890TIP3    H142229   4.278   0.192   6.733 -0.6046 -1.5118 -2.9008
 6890TIP3    H242230   4.147   0.266   6.745  0.2901 -0.1692 -0.9373
 6891TIP3   OH242231   0.603   2.196   1.150  0.0517 -0.1939  0.3722
 6891TIP3    H142232   0.551   2.116   1.157  0.7820 -0.8568 -1.3165
 6891TIP3    H242233   0.693   2.166   1.139  0.3981  0.8683  0.1924
 6892TIP3   OH242234   4.623   6.698   1.540 -0.0071  0.2407 -0.1268
 6892TIP3    H142235   4.587   6.755   1.472 -1.4213 -1.7663 -1.1458
 6892TIP3    H242236   4.624   6.611   1.500  1.5018 -0.5963  1.5897
 6893TIP3   OH242237   1.560   5.208   8.172  0.2328 -0.3878 -0.3643
 6893TIP3    H142238   1.476   5.186   8.212 -1.4068  1.5616 -2.4235
 6893TIP3    H242239   1.602   5.267   8.235 -1.1732  0.6743 -0.3640
 6894TIP3   OH242240   6.484   5.184   8.037  0.1756 -0.1508  0.1409
 6894TIP3    H142241   6.407   5.234   8.009  1.0624  0.4551 -1.3058
 6894TIP3    H242242   6.447   5.110   8.085 -1.1689  1.7710  2.2501
 6895TIP3   OH242243   6.626   2.154   0.696 -0.4945  0.1747  0.5799
 6895TIP3    H142244   6.553   2.170   0.755 -0.4059 -0.8240  0.9759
 6895TIP3    H242245   6.632   2.234   0.643 -1.7114  0.3616  0.7035
 6896TIP3   OH242246   4.361   4.742   8.199  0.2603 -1.0857  0.0577
 6896TIP3    H142247   4.351   4.776   8.110 -0.4937 -2.0358 -0.2380
 6896TIP3    H242248   4.275   4.755   8.239  0.7384 -0.1893  0.8357
 6897TIP3   OH242249   2.250   2.333   1.941  0.3079 -0.4853 -0.1832
 6897TIP3    H142250   2.196   2.263   1.978 -1.6765  0.2687 -1.4485
 6897TIP3    H242251   2.306   2.361   2.013 -0.3091 -1.9805  0.9321
 6898TIP3   OH242252   0.970   0.227   1.940  0.3138  0.1528 -0.1386
 6898TIP3    H142253   0.903   0.176   1.895 -0.0532 -0.1506  0.7327
 6898TIP3    H242254   0.922   0.286   1.999  0.8013 -0.2799  0.7218
 6899TIP3   OH242255   4.072   1.600   1.494 -0.2621  0.2449 -0.0123
 6899TIP3    H142256   4.076   1.662   1.421  0.1178  1.8070  1.2693
 6899TIP3    H242257   3.993   1.625   1.542  0.1191  0.0202  0.7544
 6900TIP3   OH242258   6.682   5.721   7.194  0.1709 -0.3492 -0.2591
 6900TIP3    H142259   6.703   5.655   7.259  1.6428  1.1329  0.8712
 6900TIP3    H242260   6.762   5.773   7.186  0.4072 -1.0493 -4.0352
 6901TIP3   OH242261   0.678   0.654   8.263 -0.4235 -0.0068  0.2354
 6901TIP3    H142262   0.582   0.653   8.259 -0.3996  0.1231 -0.5597
 6901TIP3    H242263   0.703   0.562   8.265 -0.5419 -0.0578 -0.4165
 6902TIP3   OH242264   6.927   1.410   6.632 -0.4626  0.1222  0.3605
 6902TIP3    H142265   6.856   1.431   6.572 -0.3642 -1.7083 -0.4779
 6902TIP3    H242266   6.979   1.490   6.637 -1.7314  1.0113 -0.1999
 6903TIP3   OH242267   6.667   7.046   6.723  0.3141 -0.3953 -0.0417
 6903TIP3    H142268   6.658   6.952   6.708  0.5763 -0.3570 -0.4297
 6903TIP3    H242269   6.746   7.071   6.676  0.4749 -0.0542  0.4002
 6904TIP3   OH242270   0.609   3.283   1.774 -0.2503 -0.1377  0.3615
 6904TIP3    H142271   0.607   3.195   1.737 -1.3654  0.4324 -1.0423
 6904TIP3    H242272   0.525   3.292   1.819 -0.1679  0.2288  0.4469
 6905TIP3   OH242273   1.061   4.408   7.347  0.1672  0.1229  0.0642
 6905TIP3    H142274   1.154   4.397   7.326  0.5644  0.7317  1.3812
 6905TIP3    H242275   1.020   4.327   7.317  1.2133 -0.3908 -0.0454
 6906TIP3   OH242276   1.584   6.630   8.225  0.0093 -0.1877 -0.2414
 6906TIP3    H142277   1.518   6.573   8.185  2.2726 -3.0678 -0.2580
 6906TIP3    H242278   1.620   6.577   8.296  2.2399  1.2412 -0.2145
 6907TIP3   OH242279   4.455   1.892   1.310 -0.5552  0.0646  0.4365
 6907TIP3    H142280   4.481   1.906   1.219 -0.9181 -0.1870  0.2904
 6907TIP3    H242281   4.365   1.924   1.315 -0.9071 -0.8917  0.4383
 6908TIP3   OH242282   6.776   4.520   2.249  0.3328  0.0777 -0.0895
 6908TIP3    H142283   6.705   4.562   2.201 -0.0952  0.3947  0.8094
 6908TIP3    H242284   6.769   4.427   2.224 -1.3450 -0.1708  1.0888
 6909TIP3   OH242285   5.798   7.003   6.687 -0.4834  0.8348 -0.1970
 6909TIP3    H142286   5.871   6.950   6.717  0.5142  1.9259 -0.6115
 6909TIP3    H242287   5.724   6.943   6.684  0.4793 -0.3872 -0.1395
 6910TIP3   OH242288   3.946   1.839   7.165  0.3682 -0.2776 -0.3095
 6910TIP3    H142289   3.869   1.825   7.220  0.8792 -2.3086 -0.0268
 6910TIP3    H242290   3.912   1.844   7.076 -0.3894  2.3339  0.0364
 6911TIP3   OH242291   5.806   4.669   2.234  0.3899 -0.1854 -0.0918
 6911TIP3    H142292   5.723   4.661   2.281  0.0781 -1.2688 -0.7847
 6911TIP3    H242293   5.870   4.625   2.289  0.4426  0.3350  0.2709
 6912TIP3   OH242294   0.204   2.465   1.639 -0.2786  0.0215 -1.0104
 6912TIP3    H142295   0.221   2.389   1.583 -0.7954 -0.0807 -1.0317
 6912TIP3    H242296   0.110   2.461   1.658  0.0728 -0.6464  0.8741
 6913TIP3   OH242297   6.317   2.356   1.704 -0.0930  0.0365 -0.0650
 6913TIP3    H142298   6.283   2.344   1.792 -0.1137 -0.7091 -0.1691
 6913TIP3    H242299   6.371   2.435   1.709  0.1500 -0.1747  0.6818
 6914TIP3   OH242300   0.815   5.064   1.060  0.3103  0.6360  0.1279
 6914TIP3    H142301   0.888   5.124   1.077  0.2000  0.6133  0.7316
 6914TIP3    H242302   0.822   4.999   1.130 -0.6099  0.9425  0.5229
 6915TIP3   OH242303   0.443   4.041   0.216 -0.3852  0.7588  0.2766
 6915TIP3    H142304   0.532   4.068   0.193  0.1049 -1.0251 -0.1255
 6915TIP3    H242305   0.452   4.003   0.304 -0.7811  0.6953  0.2912
 6916TIP3   OH242306   4.630   6.114   6.384  0.0480 -0.1976  0.2919
 6916TIP3    H142307   4.625   6.049   6.314  0.6331 -2.2152  2.0434
 6916TIP3    H242308   4.605   6.196   6.342 -0.6223 -1.5112 -2.0282
 6917TIP3   OH242309   0.927   5.243   6.682  0.1189  0.2438 -0.3883
 6917TIP3    H142310   0.941   5.207   6.595 -2.0634 -2.8701  0.3996
 6917TIP3    H242311   0.897   5.333   6.667  3.6859  1.2840 -2.5490
 6918TIP3   OH242312   3.777   6.585   0.347 -0.4697  0.1430  0.2356
 6918TIP3    H142313   3.793   6.670   0.306 -2.9124  0.7329  0.4028
 6918TIP3    H242314   3.719   6.604   0.421  1.5235 -1.2762  2.3049
 6919TIP3   OH242315   4.914   5.962   0.011  0.1829 -0.0306  0.2956
 6919TIP3    H142316   4.842   6.019  -0.015  0.4756 -0.1941 -0.9271
 6919TIP3    H242317   4.934   5.911  -0.067 -0.0209 -1.7783  1.3266
 6920TIP3   OH242318   6.233   2.623   0.058 -0.5295  0.1214 -0.4007
 6920TIP3    H142319   6.178   2.631  -0.021 -4.1213  0.1284  1.8530
 6920TIP3    H242320   6.218   2.705   0.105 -0.6529 -0.9353  1.4894
 6921TIP3   OH242321   1.190   4.004   7.491  0.8868  0.1587  0.1660
 6921TIP3    H142322   1.135   3.980   7.566  0.4422 -2.1111 -0.7901
 6921TIP3    H242323   1.223   4.091   7.512 -0.8283  0.4293  2.0651
 6922TIP3   OH242324   2.915   1.899   1.426  0.2911  0.2750  0.2423
 6922TIP3    H142325   2.836   1.949   1.406  1.1861  1.4743 -0.4473
 6922TIP3    H242326   2.897   1.858   1.511 -1.3212 -0.0475 -0.2282
 6923TIP3   OH242327   4.749   2.399   0.240  0.0348 -0.8310 -0.5693
 6923TIP3    H142328   4.751   2.371   0.332  0.8073  1.0267  0.0289
 6923TIP3    H242329   4.715   2.488   0.243  0.6208 -0.5348 -2.0299
 6924TIP3   OH242330   2.530   6.452   7.454 -0.0563 -0.0574  0.2653
 6924TIP3    H142331   2.577   6.516   7.400  0.3078 -0.9876 -0.5495
 6924TIP3    H242332   2.594   6.421   7.518  0.0129 -0.2275  0.1145
 6925TIP3   OH242333   2.515   2.501   0.448  0.0848  0.1034 -0.4059
 6925TIP3    H142334   2.560   2.424   0.413  1.1359  1.6270 -2.5829
 6925TIP3    H242335   2.422   2.484   0.432  0.4305  0.0780 -2.7012
 6926TIP3   OH242336   6.642   3.021   1.746 -0.8552 -0.1900  0.4408
 6926TIP3    H142337   6.628   3.115   1.733  0.7135 -0.0429 -0.3924
 6926TIP3    H242338   6.734   3.013   1.772 -0.8131 -1.5376 -0.0197
 6927TIP3   OH242339   2.456   5.193   0.732  0.5853 -0.6825  0.0496
 6927TIP3    H142340   2.458   5.259   0.662  1.1771  0.0585  0.7495
 6927TIP3    H242341   2.412   5.118   0.692 -0.2579  0.1861 -0.7172
 6928TIP3   OH242342   2.605   6.461   7.808 -0.4143  0.4423 -0.0365
 6928TIP3    H142343   2.642   6.534   7.758 -0.8141 -0.0127 -1.0285
 6928TIP3    H242344   2.670   6.391   7.799 -1.5604 -0.4557 -2.0234
 6929TIP3   OH242345   1.936   6.221   7.889  0.6482  0.2146 -0.3025
 6929TIP3    H142346   2.001   6.243   7.957 -0.0581  1.0397  0.1234
 6929TIP3    H242347   1.937   6.125   7.886  0.6963  0.1598  0.8849
 6930TIP3   OH242348   0.149   4.122   6.815  0.6033  0.5491  0.3319
 6930TIP3    H142349   0.135   4.053   6.880 -0.6561  0.4801  0.0108
 6930TIP3    H242350   0.130   4.080   6.731  0.9613  0.9824  0.0306
 6931TIP3   OH242351   0.650   0.787   1.741  0.6748 -0.1237 -0.2803
 6931TIP3    H142352   0.627   0.856   1.679 -0.5794 -0.9422 -0.7583
 6931TIP3    H242353   0.582   0.720   1.729  0.4498 -0.3444  1.9080
 6932TIP3   OH242354   5.572   0.295   1.595 -0.1047 -0.0047  0.3073
 6932TIP3    H142355   5.541   0.243   1.521 -0.7642  0.9437 -0.1095
 6932TIP3    H242356   5.657   0.257   1.617 -0.6121 -1.3158  0.0965
 6933TIP3   OH242357   5.536   5.084   7.913  0.3146  0.3242 -0.4341
 6933TIP3    H142358   5.593   5.133   7.972 -0.8316 -0.5098  1.4466
 6933TIP3    H242359   5.542   4.994   7.943 -1.7649  0.1675 -0.3578
 6934TIP3   OH242360   0.634   2.441   6.694 -0.2852 -0.0850  0.3375
 6934TIP3    H142361   0.625   2.533   6.719 -2.6970  0.2786 -1.5033
 6934TIP3    H242362   0.618   2.393   6.776  2.5433  1.0447  1.6675
 6935TIP3   OH242363   4.063   4.296   5.828 -0.4561  0.6520  0.6748
 6935TIP3    H142364   4.040   4.206   5.804 -1.1126  0.8389  0.5814
 6935TIP3    H242365   3.992   4.324   5.886  0.0450  0.9132  1.1670
 6936TIP3   OH242366   3.150   1.918   1.299  0.1328 -0.4063 -0.1173
 6936TIP3    H142367   3.058   1.908   1.324  0.0275 -1.8527 -0.9536
 6936TIP3    H242368   3.195   1.848   1.345  0.4217 -1.1624 -1.4852
 6937TIP3   OH242369   4.309   0.509   0.027  0.0759 -0.2665 -0.2581
 6937TIP3    H142370   4.244   0.462   0.080  0.5920  0.5536  1.1308
 6937TIP3    H242371   4.276   0.501  -0.063 -0.4164 -2.3493  0.0448
 6938TIP3   OH242372   5.263   4.618   8.260 -0.5194 -0.0257 -0.1395
 6938TIP3    H142373   5.200   4.680   8.223 -1.0523  0.5293  1.5891
 6938TIP3    H242374   5.230   4.602   8.348  1.1111 -0.6868  0.3697
 6939TIP3   OH242375   5.147   2.308   7.844  0.3814  0.1347 -0.0907
 6939TIP3    H142376   5.201   2.264   7.779  0.5394 -0.0929  0.1910
 6939TIP3    H242377   5.071   2.251   7.855 -1.0126  1.4913 -2.0597
 6940TIP3   OH242378   5.697   1.493   6.908  0.7212 -0.1098  0.1560
 6940TIP3    H142379   5.647   1.567   6.941  1.6032 -0.1096  1.5435
 6940TIP3    H242380   5.631   1.431   6.878 -0.0355  1.0374 -0.6239
 6941TIP3   OH242381   2.646   3.157   0.132  0.4009 -0.3611 -0.3351
 6941TIP3    H142382   2.725   3.104   0.130 -1.3516 -3.1460 -1.0236
 6941TIP3    H242383   2.635   3.180   0.225  2.8659  1.6085 -0.4463
 6942TIP3   OH242384   4.099   6.074   6.779 -0.0845 -0.3203  0.6157
 6942TIP3    H142385   4.173   6.031   6.823 -0.0866  1.2497  2.2940
 6942TIP3    H242386   4.029   6.010   6.783  0.7933 -1.3336  0.2060
 6943TIP3   OH242387   0.462   6.765   1.446 -0.3356  0.5484  0.7795
 6943TIP3    H142388   0.549   6.724   1.450 -0.3476  0.3922 -0.2583
 6943TIP3    H242389   0.431   6.764   1.537  0.6924  0.4937  1.1505
 6944TIP3   OH242390   0.134   3.211   1.436 -0.3205  0.3083 -0.2541
 6944TIP3    H142391   0.047   3.207   1.476  0.5142 -1.0218  1.5625
 6944TIP3    H242392   0.150   3.123   1.403 -0.3429  0.9877 -2.2581
 6945TIP3   OH242393   5.368   0.297   8.204 -0.4026 -0.1605 -0.3504
 6945TIP3    H142394   5.460   0.289   8.229 -0.3082 -2.2824 -1.1788
 6945TIP3    H242395   5.324   0.329   8.283  0.7689 -0.9650  0.6624
 6946TIP3   OH242396   1.572   2.821   7.645 -0.5263  0.2454 -0.2187
 6946TIP3    H142397   1.543   2.786   7.561  0.3882  1.8917 -1.2858
 6946TIP3    H242398   1.621   2.900   7.622  1.1400 -0.1305  1.7654
 6947TIP3   OH242399   1.034   0.835   7.637 -0.1530  0.1342 -0.1103
 6947TIP3    H142400   0.980   0.757   7.627  0.2385  0.0511 -2.0496
 6947TIP3    H242401   1.027   0.858   7.730 -2.8582 -0.3211 -0.1275
 6948TIP3   OH242402   6.557   6.276   1.281 -0.3967 -0.3571  0.2969
 6948TIP3    H142403   6.579   6.351   1.227 -0.8514  0.2342  0.9130
 6948TIP3    H242404   6.615   6.206   1.251  2.5169  1.1364  1.9660
 6949TIP3   OH242405   4.197   5.745   7.606  0.1980  0.3824 -0.2115
 6949TIP3    H142406   4.154   5.662   7.626  0.4997  0.3536  0.3299
 6949TIP3    H242407   4.285   5.720   7.576  0.7879  0.5512  1.2816
 6950TIP3   OH242408   1.303   6.012   1.548  0.2824 -0.0880  0.2921
 6950TIP3    H142409   1.291   6.018   1.643 -1.1079 -0.0273  0.1249
 6950TIP3    H242410   1.388   5.968   1.538  0.0346 -0.9110  1.5637
 6951TIP3   OH242411   2.521   4.905   6.761  0.1894 -0.1783  0.2176
 6951TIP3    H142412   2.429   4.889   6.739 -0.4178 -0.7661  2.8327
 6951TIP3    H242413   2.518   4.968   6.833  1.8834  0.0701  0.1142
 6952TIP3   OH242414   5.549   4.846   8.040  0.0147  0.5974  0.5202
 6952TIP3    H142415   5.538   4.770   8.096 -1.3430 -0.7099 -1.4019
 6952TIP3    H242416   5.476   4.842   7.978  1.1176  2.2500 -1.0042
 6953TIP3   OH242417   3.592   1.610   0.747  0.6375  0.0387  0.1119
 6953TIP3    H142418   3.626   1.684   0.797 -1.1923  1.0340 -0.0047
 6953TIP3    H242419   3.652   1.538   0.765  0.9939  0.8297  2.3851
 6954TIP3   OH242420   1.569   4.849   0.166 -0.0637 -0.3233  0.3688
 6954TIP3    H142421   1.524   4.934   0.173 -0.6330 -0.5818 -0.0703
 6954TIP3    H242422   1.650   4.861   0.216 -0.4471  0.2680  0.8657
 6955TIP3   OH242423   2.169   3.529   7.063  0.0884  0.0139  0.0075
 6955TIP3    H142424   2.209   3.611   7.092  1.6537 -0.5638 -0.4436
 6955TIP3    H242425   2.158   3.539   6.968 -3.2277  1.1265  0.3532
 6956TIP3   OH242426   1.490   5.345   0.772  0.3359  0.0016  0.3021
 6956TIP3    H142427   1.484   5.324   0.679  2.2651  0.7175 -0.0431
 6956TIP3    H242428   1.486   5.441   0.775  0.4470 -0.0083  0.9393
 6957TIP3   OH242429   1.362   6.854   7.802 -0.8446 -0.0047  0.0024
 6957TIP3    H142430   1.410   6.892   7.876 -0.8469 -2.2722  1.2633
 6957TIP3    H242431   1.421   6.788   7.767 -1.1041  0.6040 -1.6682
 6958TIP3   OH242432   5.642   3.603   7.439  0.0412  0.0248  0.1244
 6958TIP3    H142433   5.712   3.658   7.405  1.5937 -1.4370  0.8287
 6958TIP3    H242434   5.609   3.557   7.362  0.8371 -0.3444 -0.0020
 6959TIP3   OH242435   2.238   7.034   6.775  0.1289 -0.5663  0.3405
 6959TIP3    H142436   2.323   7.042   6.819 -0.4324  2.9595  1.0508
 6959TIP3    H242437   2.260   7.000   6.688  1.7122 -3.6941  1.7908
 6960TIP3   OH242438   4.420   1.867   6.868 -0.3121 -0.1202  0.0935
 6960TIP3    H142439   4.463   1.859   6.783  0.3169 -1.5334  0.5260
 6960TIP3    H242440   4.474   1.817   6.928 -0.0047  1.9159  1.6393
 6961TIP3   OH242441   6.909   6.366   0.137  0.2794 -0.2725 -0.4486
 6961TIP3    H142442   6.928   6.314   0.215  3.4160  1.2377 -0.0483
 6961TIP3    H242443   6.990   6.366   0.087 -0.4689  1.9110 -1.8197
 6962TIP3   OH242444   0.351   5.491   2.117  0.8516  0.2691 -0.1346
 6962TIP3    H142445   0.419   5.497   2.184  0.9288  0.9798 -0.2618
 6962TIP3    H242446   0.397   5.465   2.037  0.9710  0.7041 -0.2094
 6963TIP3   OH242447   3.420   3.295   6.904 -0.2340 -0.4848 -0.1178
 6963TIP3    H142448   3.396   3.331   6.989  1.7839 -1.6189  1.0124
 6963TIP3    H242449   3.437   3.202   6.921 -0.2205 -0.8497 -1.8654
 6964TIP3   OH242450   0.783   6.788   8.077 -0.0721 -0.3486 -0.4501
 6964TIP3    H142451   0.790   6.876   8.113  1.4569 -0.5592 -0.1679
 6964TIP3    H242452   0.873   6.762   8.060 -0.4778 -1.9758 -0.2550
 6965TIP3   OH242453   2.810   5.463   2.159 -0.5298  0.5078 -0.1770
 6965TIP3    H142454   2.854   5.443   2.241  0.5718 -0.6888 -1.0203
 6965TIP3    H242455   2.881   5.479   2.097 -1.2549 -0.6591 -1.3737
 6966TIP3   OH242456   6.847   5.239   0.555 -0.7642  0.2244  0.0961
 6966TIP3    H142457   6.792   5.313   0.579 -1.3851  0.1599 -1.0405
 6966TIP3    H242458   6.879   5.204   0.638 -1.6332  0.8787  0.7209
 6967TIP3   OH242459   6.608   4.373   6.652  0.1125  0.5636 -0.1841
 6967TIP3    H142460   6.551   4.449   6.641 -0.6742  0.1751  1.0306
 6967TIP3    H242461   6.694   4.411   6.671 -0.4194  1.1718  1.1207
 6968TIP3   OH242462   6.760   0.228   8.118  0.0358  0.1493 -0.0852
 6968TIP3    H142463   6.720   0.197   8.037  1.2959 -1.1389 -0.2604
 6968TIP3    H242464   6.820   0.158   8.143  0.2476  0.8705  1.5493
 6969TIP3   OH242465   5.313   1.989   7.925 -0.3880 -0.5470  0.0592
 6969TIP3    H142466   5.281   1.996   7.835 -0.3855  0.1643  0.1130
 6969TIP3    H242467   5.252   1.929   7.967 -0.8097 -0.3191 -0.2239
 6970TIP3   OH242468   1.961   1.131   1.236 -0.4491  0.3040  0.3679
 6970TIP3    H142469   1.946   1.065   1.168 -0.0906  1.0976 -0.5052
 6970TIP3    H242470   2.052   1.119   1.262 -0.4895  0.2198  0.4714
 6971TIP3   OH242471   6.097   5.069   7.119 -0.2955 -0.2618 -0.1837
 6971TIP3    H142472   6.131   5.121   7.047 -0.5277  1.7676  1.0889
 6971TIP3    H242473   6.006   5.096   7.127  0.2213  1.0885  2.0675
 6972TIP3   OH242474   6.970   0.460   1.017  0.0744 -0.0003  0.5794
 6972TIP3    H142475   6.979   0.540   1.069  2.5999 -0.2957  0.7434
 6972TIP3    H242476   6.987   0.389   1.079  2.5223 -0.3796 -0.3878
 6973TIP3   OH242477   0.100   5.068   8.189 -0.1578 -0.4882 -0.1130
 6973TIP3    H142478   0.180   5.121   8.183  0.1534 -1.0434 -1.0121
 6973TIP3    H242479   0.047   5.095   8.115  0.0721 -1.5295 -0.6761
 6974TIP3   OH242480   6.117   3.741   6.086 -0.1255 -0.1980 -0.0950
 6974TIP3    H142481   6.119   3.654   6.046 -0.0843 -0.3054  0.1380
 6974TIP3    H242482   6.027   3.771   6.073 -0.1910 -0.3550 -0.0122
 6975TIP3   OH242483   0.504   2.336   6.912  0.1306 -0.2524  0.3103
 6975TIP3    H142484   0.478   2.249   6.880  0.1543  0.0124 -0.4594
 6975TIP3    H242485   0.452   2.349   6.991 -0.9002 -0.4126 -0.3118
 6976TIP3   OH242486   2.061   5.286   0.406  0.1732  0.5782 -0.3156
 6976TIP3    H142487   2.026   5.350   0.344  0.9995  1.4410  0.0916
 6976TIP3    H242488   2.028   5.202   0.374  0.0649  1.0715 -1.5673
 6977TIP3   OH242489   0.224   0.161   7.107 -0.0221  0.4345 -0.2579
 6977TIP3    H142490   0.211   0.223   7.179 -0.7421 -0.3010  0.2565
 6977TIP3    H242491   0.303   0.112   7.131 -0.2867  0.1601  0.0599
 6978TIP3   OH242492   2.969   0.500   1.511  0.1153  0.6429 -0.0616
 6978TIP3    H142493   3.049   0.481   1.561  0.3414 -0.2969 -0.7496
 6978TIP3    H242494   2.917   0.555   1.569  0.5289 -0.1180  1.0666
 6979TIP3   OH242495   5.583   3.252   7.493 -0.5518 -0.5605 -0.0174
 6979TIP3    H142496   5.677   3.239   7.477  0.2993  1.8757  2.2621
 6979TIP3    H242497   5.543   3.169   7.467  2.0819 -1.3993 -1.8645
 6980TIP3   OH242498   2.319   5.159   6.257 -0.0212 -0.7250 -0.1204
 6980TIP3    H142499   2.296   5.080   6.209 -1.5198 -1.1492  1.1969
 6980TIP3    H242500   2.323   5.228   6.191  1.6153 -1.9286 -1.3355
 6981TIP3   OH242501   3.593   2.036   7.389 -0.0257  0.2395  0.3945
 6981TIP3    H142502   3.552   1.979   7.454  0.7212  0.2121  0.8481
 6981TIP3    H242503   3.576   2.125   7.421 -1.8702  0.3408 -0.7165
 6982TIP3   OH242504   6.242   4.462   8.264  0.1752  0.1415 -0.0321
 6982TIP3    H142505   6.248   4.374   8.226  2.9182  0.4016 -0.3976
 6982TIP3    H242506   6.322   4.471   8.316 -0.9959  1.7338  1.6305
 6983TIP3   OH242507   6.427   5.334   1.346 -0.1165 -0.1907  0.1411
 6983TIP3    H142508   6.478   5.298   1.273 -0.1740 -1.1504  0.5631
 6983TIP3    H242509   6.432   5.267   1.414 -0.3507  0.5478  0.8974
 6984TIP3   OH242510   4.877   0.035   7.732  0.2874 -0.9868 -0.0581
 6984TIP3    H142511   4.840  -0.023   7.799  0.9339 -3.3004 -1.5751
 6984TIP3    H242512   4.971   0.020   7.737  0.4690 -0.0249 -0.4781
 6985TIP3   OH242513   5.580   3.127   0.032 -0.0425 -0.1128  0.0080
 6985TIP3    H142514   5.488   3.153   0.026  0.2118  0.6875 -0.6889
 6985TIP3    H242515   5.615   3.177   0.105  0.0834  0.3581 -0.3741
 6986TIP3   OH242516   4.515   4.080   0.835 -0.1168 -0.0334  0.0615
 6986TIP3    H142517   4.604   4.056   0.863 -0.0467  0.8507  0.6201
 6986TIP3    H242518   4.484   4.003   0.786  1.1424 -0.1491 -0.5882
 6987TIP3   OH242519   2.934   5.605   6.409  0.1789  0.4320  0.3532
 6987TIP3    H142520   2.963   5.696   6.399  3.2101 -0.5559 -1.0468
 6987TIP3    H242521   2.978   5.576   6.490  1.5885 -0.5168 -0.7030
 6988TIP3   OH242522   0.970   0.316   0.742 -0.0449 -0.3906  0.0755
 6988TIP3    H142523   0.969   0.261   0.821  0.1380  0.9429  1.0376
 6988TIP3    H242524   0.922   0.395   0.768 -0.3721 -0.1161 -1.3021
 6989TIP3   OH242525   5.744   3.898   1.366 -0.2861 -0.3373 -0.0579
 6989TIP3    H142526   5.780   3.872   1.451 -0.4758  1.1024  0.4955
 6989TIP3    H242527   5.654   3.923   1.384 -0.3060  0.0561 -0.6696
 6990TIP3   OH242528   2.728   2.188   1.699 -0.5396 -0.0996  0.2920
 6990TIP3    H142529   2.823   2.192   1.709 -0.7453  0.7907  2.3283
 6990TIP3    H242530   2.695   2.248   1.765 -2.4916  0.8403 -1.4555
 6991TIP3   OH242531   4.240   4.330   1.730  0.5161 -0.7354  0.6338
 6991TIP3    H142532   4.145   4.322   1.719  0.4824  0.0544  0.2568
 6991TIP3    H242533   4.269   4.244   1.759 -0.0658 -1.5461 -1.0670
 6992TIP3   OH242534   6.014   1.766   1.888 -0.1843  0.3270 -0.2523
 6992TIP3    H142535   5.956   1.698   1.922  0.8979 -0.6781 -0.3646
 6992TIP3    H242536   5.999   1.841   1.946 -0.7035 -0.3054  0.4564
 6993TIP3   OH242537   4.099   1.071   7.046 -0.4229  0.1413 -0.0364
 6993TIP3    H142538   4.118   0.991   6.998  0.3979  0.2725  0.0474
 6993TIP3    H242539   4.182   1.120   7.045 -1.2868  1.7046 -1.4046
 6994TIP3   OH242540   4.075   0.236   6.269 -0.0122  0.8319 -0.1340
 6994TIP3    H142541   4.110   0.234   6.180  0.8982  1.2379  0.2068
 6994TIP3    H242542   4.150   0.217   6.325 -0.9298 -1.2371  0.4749
 6995TIP3   OH242543   1.739   4.697   6.697  0.0396  0.0572 -0.1136
 6995TIP3    H142544   1.659   4.645   6.702 -0.3638  0.6136 -0.7036
 6995TIP3    H242545   1.726   4.755   6.622  1.6230 -0.8883 -1.1725
 6996TIP3   OH242546   5.399   5.271   1.065  0.4788 -0.2662 -0.1493
 6996TIP3    H142547   5.315   5.286   1.109  0.5045  1.7077 -0.6592
 6996TIP3    H242548   5.464   5.269   1.136 -0.0745 -3.2555  0.3930
 6997TIP3   OH242549   3.799   1.230   6.865  0.5274  0.2105  0.3574
 6997TIP3    H142550   3.828   1.139   6.866 -0.9719 -0.3367 -1.4148
 6997TIP3    H242551   3.782   1.251   6.957  2.6577 -0.6613  1.0050
 6998TIP3   OH242552   4.954   1.478   6.650 -0.3051 -0.1535 -0.8842
 6998TIP3    H142553   4.948   1.507   6.559  0.6585 -0.7041 -1.1301
 6998TIP3    H242554   4.893   1.405   6.656 -1.9877  1.1966 -0.5150
 6999TIP3   OH242555   1.794   0.954   7.112  0.3355 -0.0727 -0.3618
 6999TIP3    H142556   1.796   0.891   7.184 -2.3521  0.3150  0.1266
 6999TIP3    H242557   1.704   0.986   7.109  1.1397  2.3457 -1.8335
 7000TIP3   OH242558   6.053   2.352   6.702 -0.4153 -0.0049 -0.1640
 7000TIP3    H142559   6.056   2.423   6.638  0.0692  0.7625  0.6787
 7000TIP3    H242560   5.978   2.299   6.677 -0.0190  0.0732 -1.5751
 7001TIP3   OH242561   2.801   5.938   1.273  0.0715  0.0579  0.5733
 7001TIP3    H142562   2.874   5.986   1.311  0.1276  0.4561 -0.0228
 7001TIP3    H242563   2.760   5.893   1.347  0.4846  0.4055  1.0169
 7002TIP3   OH242564   6.464   4.175   8.174 -0.1973 -0.2259 -0.3134
 7002TIP3    H142565   6.438   4.190   8.265 -0.7719  2.5535 -0.8603
 7002TIP3    H242566   6.548   4.218   8.165  0.0849 -0.8904 -0.9992
 7003TIP3   OH242567   5.724   0.716   0.199  0.2983 -0.1432  0.5146
 7003TIP3    H142568   5.683   0.635   0.230  1.1185 -1.3807 -1.4248
 7003TIP3    H242569   5.814   0.712   0.231  0.9609 -1.1121 -1.3178
 7004TIP3   OH242570   0.638   5.189   6.718 -0.0960 -0.2462 -0.4166
 7004TIP3    H142571   0.620   5.169   6.626 -1.9749  0.1895 -0.1646
 7004TIP3    H242572   0.733   5.206   6.720  0.1012 -0.9383 -2.1289
 7005TIP3   OH242573   6.227   1.412   7.111 -0.4027  0.3859  0.3239
 7005TIP3    H142574   6.248   1.443   7.023  3.2702  0.6966  1.1483
 7005TIP3    H242575   6.293   1.346   7.130  0.3185  1.8231  3.5554
 7006TIP3   OH242576   1.563   1.099   0.931  0.0408 -0.6244  0.0133
 7006TIP3    H142577   1.498   1.044   0.974  0.4914 -0.3141  1.1578
 7006TIP3    H242578   1.556   1.183   0.977  1.5912 -0.7485  0.5340
 7007TIP3   OH242579   3.016   6.181   6.521  0.2596 -0.3791  0.2067
 7007TIP3    H142580   3.045   6.238   6.450  1.3711  1.0008  1.7009
 7007TIP3    H242581   2.970   6.238   6.582 -0.6090 -1.5188  0.6710
 7008TIP3   OH242582   2.146   2.251   8.007  0.2910 -0.6495  0.0261
 7008TIP3    H142583   2.103   2.336   8.007  1.0695 -0.2488 -0.2888
 7008TIP3    H242584   2.168   2.234   7.916 -0.0323 -1.2836  0.0572
 7009TIP3   OH242585   3.100   0.906   0.673 -0.1543 -0.0652  0.3147
 7009TIP3    H142586   3.188   0.929   0.703 -0.2753 -0.0169  0.6344
 7009TIP3    H242587   3.111   0.823   0.626  0.0261 -0.1671  0.5392
 7010TIP3   OH242588   0.339   0.606   1.104  0.2471  0.2843 -0.0171
 7010TIP3    H142589   0.428   0.586   1.076  0.3355 -0.5492  0.7953
 7010TIP3    H242590   0.293   0.632   1.024  1.0895  0.2418 -0.5195
 7011TIP3   OH242591   0.085   4.231   2.533 -0.3608 -0.0713  0.5226
 7011TIP3    H142592   0.012   4.217   2.473 -1.7497  0.4957  2.0075
 7011TIP3    H242593   0.044   4.255   2.616  1.5225  0.2292  1.4264
 7012TIP3   OH242594   6.367   5.674   1.698  0.8157  0.5525 -0.4037
 7012TIP3    H142595   6.372   5.728   1.619 -0.4452  1.0647 -0.1515
 7012TIP3    H242596   6.420   5.721   1.763  1.5755  0.3054 -0.8332
 7013TIP3   OH242597   6.644   6.752   6.398 -0.3871  0.2787 -0.1720
 7013TIP3    H142598   6.711   6.741   6.330 -1.1265  0.4798 -0.9543
 7013TIP3    H242599   6.577   6.687   6.377  0.8887 -2.0855  2.3767
 7014TIP3   OH242600   3.942   1.168   7.830 -0.3144 -0.3485 -0.2304
 7014TIP3    H142601   3.990   1.242   7.867  1.4301 -1.6496  0.2437
 7014TIP3    H242602   3.855   1.202   7.813 -0.0528  1.3713  1.5082
 7015TIP3   OH242603   3.565   5.317   0.630  0.3076 -0.0390  0.0780
 7015TIP3    H142604   3.510   5.393   0.609  0.1627  0.1328  1.0192
 7015TIP3    H242605   3.594   5.284   0.545 -1.3401 -0.1988 -0.4625
 7016TIP3   OH242606   2.765   4.283   1.011 -0.2105  0.5569  0.4037
 7016TIP3    H142607   2.772   4.376   1.032 -2.5023  0.7244  0.6643
 7016TIP3    H242608   2.760   4.280   0.916  0.2479  0.6685  0.3768
 7017TIP3   OH242609   4.709   0.807   7.044 -0.0217  0.2357  0.2915
 7017TIP3    H142610   4.639   0.860   7.006 -0.5665  1.2480  2.4884
 7017TIP3    H242611   4.748   0.761   6.970 -2.4553  0.2831 -1.1199
 7018TIP3   OH242612   4.815   1.593   8.094 -0.0263  0.4071 -0.3415
 7018TIP3    H142613   4.764   1.524   8.051 -0.1213  0.1407  0.1877
 7018TIP3    H242614   4.789   1.587   8.187  0.7576  0.4526 -0.1173
 7019TIP3   OH242615   4.202   3.410   0.689  0.1200  0.0097  0.1541
 7019TIP3    H142616   4.121   3.447   0.725 -0.4305 -1.0363  0.0315
 7019TIP3    H242617   4.268   3.479   0.701 -0.9952  1.2596 -0.6378
 7020TIP3   OH242618   4.201   0.677   1.815  0.0360  0.1223 -0.2451
 7020TIP3    H142619   4.233   0.587   1.825  2.4410  0.9429  0.0628
 7020TIP3    H242620   4.106   0.668   1.809  0.2176 -2.4466 -0.3840
 7021TIP3   OH242621   0.954   3.252   1.328  0.1996 -0.1762 -0.5526
 7021TIP3    H142622   0.890   3.302   1.277 -0.7085  0.4691  1.1231
 7021TIP3    H242623   0.990   3.189   1.266  0.4751  1.7131 -2.4440
 7022TIP3   OH242624   3.845   2.113   7.333  0.4461 -0.0204 -0.6553
 7022TIP3    H142625   3.789   2.051   7.380  0.9768  1.3022  1.9186
 7022TIP3    H242626   3.815   2.109   7.242 -4.0755  0.7381  0.5505
 7023TIP3   OH242627   2.740   0.719   6.822  0.0849 -0.1685 -0.1301
 7023TIP3    H142628   2.754   0.625   6.825  1.4468  0.0151 -0.3566
 7023TIP3    H242629   2.785   0.753   6.899  1.0997  0.4545 -0.9684
 7024TIP3   OH242630   2.165   6.702   1.580  0.4937 -0.0805 -0.5699
 7024TIP3    H142631   2.198   6.613   1.589  0.5849  0.0521  0.6287
 7024TIP3    H242632   2.094   6.708   1.645  0.9645  0.9256 -0.1181
 7025TIP3   OH242633   5.550   6.946   1.112  0.4572 -0.2425 -0.5378
 7025TIP3    H142634   5.511   6.888   1.046 -1.1887  1.9687 -1.6104
 7025TIP3    H242635   5.492   6.937   1.188  1.3603 -1.4626  0.0441
 7026TIP3   OH242636   1.186   2.790   5.826 -0.1650  0.1113  0.1576
 7026TIP3    H142637   1.196   2.732   5.751  1.2277  0.4782  0.0269
 7026TIP3    H242638   1.240   2.750   5.894 -1.0451  0.0315  0.8249
 7027TIP3   OH242639   5.732   3.571   0.303 -0.1864 -0.1337 -0.7198
 7027TIP3    H142640   5.657   3.576   0.244 -0.4425  0.8057 -0.3341
 7027TIP3    H242641   5.726   3.650   0.356  1.9382  0.7604 -1.7065
 7028TIP3   OH242642   4.628   1.214   6.591 -0.0125 -0.1393 -0.2244
 7028TIP3    H142643   4.707   1.164   6.611  0.3621  0.7205  0.5326
 7028TIP3    H242644   4.599   1.180   6.506  1.7646  0.2013 -1.0346
 7029TIP3   OH242645   5.775   2.878   1.334  0.1752 -0.0425  0.1756
 7029TIP3    H142646   5.699   2.871   1.277  0.6136 -0.5326 -0.3553
 7029TIP3    H242647   5.745   2.932   1.408 -0.3505  0.7269 -0.5835
 7030TIP3   OH242648   2.619   3.837   7.343 -0.0627 -0.3993  0.0705
 7030TIP3    H142649   2.590   3.747   7.329  0.5615 -1.2917  3.6461
 7030TIP3    H242650   2.657   3.863   7.259 -0.4749 -3.3540 -1.1476
 7031TIP3   OH242651   6.935   2.860   6.763 -0.0363  0.0142  0.2217
 7031TIP3    H142652   6.892   2.945   6.774  0.4833  0.3456 -0.2766
 7031TIP3    H242653   6.874   2.809   6.709  0.4461  0.6982 -1.0172
 7032TIP3   OH242654   1.221   1.644   7.121 -0.6712  1.1642 -0.1594
 7032TIP3    H142655   1.255   1.556   7.106 -1.2631  1.1061 -1.3290
 7032TIP3    H242656   1.274   1.700   7.065 -0.6490  1.4679  0.1676
 7033TIP3   OH242657   1.297   3.219   0.556  0.2833 -0.2021  0.0871
 7033TIP3    H142658   1.326   3.224   0.648 -1.5483  0.8997  0.6601
 7033TIP3    H242659   1.229   3.153   0.556 -0.3797  0.4649 -0.2735
 7034TIP3   OH242660   0.179   2.010   7.939 -0.5979 -0.4630 -0.4438
 7034TIP3    H142661   0.273   1.992   7.944 -0.4954  0.1565 -0.0405
 7034TIP3    H242662   0.172   2.105   7.949 -1.2404 -0.4567 -0.8619
 7035TIP3   OH242663   6.466   1.288   7.152  0.6287 -0.3145 -0.0598
 7035TIP3    H142664   6.537   1.352   7.150  0.6171 -0.3117 -1.2681
 7035TIP3    H242665   6.504   1.209   7.112  0.0433 -0.4156 -0.4257
 7036TIP3   OH242666   1.394   1.059   7.315 -0.3765  0.0317 -0.5814
 7036TIP3    H142667   1.303   1.056   7.347 -0.7951  0.3379 -1.6873
 7036TIP3    H242668   1.445   1.090   7.390 -1.2048 -0.0363  0.0231
 7037TIP3   OH242669   2.976   0.352   7.220 -0.5344 -0.1950  0.1481
 7037TIP3    H142670   2.966   0.257   7.214  0.5315 -0.3740  0.8991
 7037TIP3    H242671   2.917   0.386   7.154 -0.1345 -1.4244 -0.8873
 7038TIP3   OH242672   1.917   1.346   7.460 -0.8411  0.1521 -0.6181
 7038TIP3    H142673   1.961   1.264   7.485 -0.2423  0.6463 -0.0301
 7038TIP3    H242674   1.831   1.340   7.501 -0.8468 -0.2383 -0.6782
 7039TIP3   OH242675   5.647   1.086   0.500  0.6872 -0.6797 -0.2862
 7039TIP3    H142676   5.602   1.120   0.423  1.6014 -0.0740 -0.5655
 7039TIP3    H242677   5.692   1.161   0.538 -1.8261 -0.3553  2.3957
 7040TIP3   OH242678   3.476   5.123   0.176  0.1101  0.1185  0.0948
 7040TIP3    H142679   3.553   5.173   0.148  0.2264 -1.2487 -2.2566
 7040TIP3    H242680   3.426   5.185   0.230  1.7798  1.7232 -0.0929
 7041TIP3   OH242681   2.590   0.396   6.575 -0.6272 -0.0737  0.6165
 7041TIP3    H142682   2.579   0.301   6.586 -0.6710  0.0169  1.4022
 7041TIP3    H242683   2.501   0.431   6.578 -0.5068  0.1617  2.0870
 7042TIP3   OH242684   2.844   7.050   0.043  0.6119  0.0479  0.1737
 7042TIP3    H142685   2.840   6.954   0.045  1.1591 -0.1435 -2.8074
 7042TIP3    H242686   2.858   7.075   0.134  3.1514 -2.8560  0.7774
 7043TIP3   OH242687   2.004   4.618   6.766 -0.3566  0.4613  0.3767
 7043TIP3    H142688   1.975   4.545   6.711  1.3367 -0.2712  0.3725
 7043TIP3    H242689   1.927   4.673   6.777 -1.0316  0.0798 -1.8609
 7044TIP3   OH242690   5.276   5.635   7.218 -0.9505 -0.0019  0.5301
 7044TIP3    H142691   5.235   5.592   7.293 -0.8639  0.5052  0.8812
 7044TIP3    H242692   5.218   5.710   7.200 -1.2207 -0.3885 -0.2079
 7045TIP3   OH242693   1.630   3.258   1.256  0.3457  0.2032  0.5218
 7045TIP3    H142694   1.699   3.283   1.317 -1.2412  1.6233  1.8448
 7045TIP3    H242695   1.631   3.162   1.256  1.1326  0.1905  1.9205
 7046TIP3   OH242696   1.753   2.075   8.060 -0.1936 -0.0495  0.1698
 7046TIP3    H142697   1.757   1.993   8.010  0.6089 -0.1355  0.3716
 7046TIP3    H242698   1.734   2.048   8.149 -0.0138 -0.0128  0.2200
 7047TIP3   OH242699   5.585   0.754   7.396 -0.3654 -0.2583  0.6425
 7047TIP3    H142700   5.550   0.674   7.436  0.4462 -1.5014 -0.9795
 7047TIP3    H242701   5.673   0.763   7.432  0.0654 -0.9295 -0.1791
 7048TIP3   OH242702   4.284   0.317   5.729 -0.1902  0.1349  0.5241
 7048TIP3    H142703   4.257   0.404   5.759 -1.4205  0.3111 -0.9968
 7048TIP3    H242704   4.342   0.334   5.655 -0.0958 -0.3392  0.4853
 7049TIP3   OH242705   5.073   5.137   1.908 -0.2971  0.1620 -0.2219
 7049TIP3    H142706   5.141   5.202   1.927  0.8243 -0.1540 -2.7175
 7049TIP3    H242707   5.112   5.053   1.933  1.9771 -0.5060 -4.8593
 7050TIP3   OH242708   6.128   2.157   7.433 -0.5327  0.1747  0.5703
 7050TIP3    H142709   6.219   2.131   7.449 -0.0955  1.2756 -0.0061
 7050TIP3    H242710   6.109   2.124   7.345 -0.1430  1.2776  0.0439
 7051TIP3   OH242711   0.619   0.564   1.406 -0.2888 -0.2432 -0.0143
 7051TIP3    H142712   0.529   0.550   1.435 -0.4043 -2.4569 -1.1852
 7051TIP3    H242713   0.672   0.511   1.464  0.0713 -0.2732 -0.3650
 7052TIP3   OH242714   7.034   5.681   7.226 -0.6023 -0.8096 -0.3427
 7052TIP3    H142715   6.999   5.768   7.207  0.5525 -0.2126  0.1660
 7052TIP3    H242716   7.030   5.635   7.142  0.7217  0.4460 -1.1458
 7053TIP3   OH242717   5.072   6.254   6.756  0.0482  0.4030 -0.7756
 7053TIP3    H142718   5.082   6.163   6.785 -1.7099  0.7279  1.0362
 7053TIP3    H242719   5.146   6.268   6.697  0.6044 -2.0661 -0.7858
 7054TIP3   OH242720   0.901   3.567   7.097  0.2317 -0.1247  0.1417
 7054TIP3    H142721   0.852   3.566   7.014 -1.7771 -0.2185  1.2795
 7054TIP3    H242722   0.964   3.496   7.088  0.3237  0.1168 -1.4521
 7055TIP3   OH242723   4.440   4.559   0.378  0.0049  0.1657 -0.0487
 7055TIP3    H142724   4.351   4.540   0.348 -0.4857  1.3619  0.5869
 7055TIP3    H242725   4.470   4.631   0.322  0.5770 -0.2166 -0.2461
 7056TIP3   OH242726   0.501   6.021   7.568  0.2797  0.4531 -0.3235
 7056TIP3    H142727   0.564   5.963   7.525  1.8180  1.6477  0.2200
 7056TIP3    H242728   0.476   6.083   7.500 -2.5808 -1.6283 -1.3767
 7057TIP3   OH242729   1.228   2.560   0.211 -0.1083  0.6548  0.4329
 7057TIP3    H142730   1.313   2.562   0.254 -0.5178 -2.2482  1.6019
 7057TIP3    H242731   1.166   2.590   0.278 -0.1679  1.6996 -0.0642
 7058TIP3   OH242732   1.299   6.834   7.167 -0.1456  0.4548  0.1811
 7058TIP3    H142733   1.225   6.893   7.152  0.7149  1.4806 -0.1621
 7058TIP3    H242734   1.310   6.833   7.262 -1.7138 -1.1506  0.3957
 7059TIP3   OH242735   1.312   5.869   7.005  0.2448  0.1433 -0.0758
 7059TIP3    H142736   1.405   5.863   6.985  0.1818 -1.4449 -0.0245
 7059TIP3    H242737   1.308   5.878   7.100  0.3521  0.6823 -0.1205
 7060TIP3   OH242738   2.334   6.775   1.174 -0.9346  0.0791  0.8661
 7060TIP3    H142739   2.279   6.844   1.138 -1.4986  0.2503  1.9850
 7060TIP3    H242740   2.301   6.694   1.135 -0.5881  0.3840 -0.0748
 7061TIP3   OH242741   6.479   4.558   7.200 -0.0907 -0.0990  0.1901
 7061TIP3    H142742   6.537   4.552   7.124  1.4698  2.6151  1.0099
 7061TIP3    H242743   6.538   4.576   7.274 -1.8747  4.2334  0.8595
 7062TIP3   OH242744   3.845   4.825   0.171 -0.2750 -0.1500  0.3139
 7062TIP3    H142745   3.920   4.877   0.200  0.2348 -0.1037 -1.0030
 7062TIP3    H242746   3.802   4.880   0.105 -0.7316 -0.6892  0.1550
 7063TIP3   OH242747   0.943   2.919   1.407 -0.1185 -0.4577  0.5456
 7063TIP3    H142748   0.882   2.990   1.388 -0.1197 -0.7197 -0.4624
 7063TIP3    H242749   0.973   2.937   1.496 -1.4221 -0.1489  0.9500
 7064TIP3   OH242750   6.741   0.967   0.791  0.3656  0.0817  0.2155
 7064TIP3    H142751   6.806   1.008   0.848  3.0536 -1.6059 -1.3861
 7064TIP3    H242752   6.764   0.999   0.703 -0.5148 -1.1077 -0.4713
 7065TIP3   OH242753   4.926   6.237   0.314 -0.3762  0.3992 -0.1328
 7065TIP3    H142754   4.923   6.253   0.408 -1.4913 -0.3782 -0.0295
 7065TIP3    H242755   4.912   6.143   0.304  0.4713  0.3464 -1.0467
 7066TIP3   OH242756   1.199   1.616   1.893  0.2276  0.5178  0.3060
 7066TIP3    H142757   1.282   1.584   1.927 -0.1878 -0.1276  0.7433
 7066TIP3    H242758   1.145   1.630   1.971 -0.9927 -1.6672 -0.0609
 7067TIP3   OH242759   1.971   4.669   5.960  0.1026  0.1691  0.1180
 7067TIP3    H142760   2.045   4.633   6.010  0.6434  1.5753  0.3667
 7067TIP3    H242761   1.896   4.658   6.018  0.4587  0.4349  0.6424
 7068TIP3   OH242762   1.518   4.493   1.794 -0.1053 -0.2332 -0.0945
 7068TIP3    H142763   1.507   4.412   1.844  0.1759 -0.4621 -0.4011
 7068TIP3    H242764   1.612   4.501   1.780 -0.0991  0.3332  0.2362
 7069TIP3   OH242765   0.229   1.374   7.798  0.2362  0.4153  0.0740
 7069TIP3    H142766   0.170   1.328   7.858 -0.7714 -0.0224 -1.2015
 7069TIP3    H242767   0.214   1.332   7.713  1.8430  0.8158 -0.4388
 7070TIP3   OH242768   0.719   1.704   7.098  0.3600  0.0630  0.1054
 7070TIP3    H142769   0.765   1.639   7.151  1.7374 -1.9097 -3.1593
 7070TIP3    H242770   0.658   1.653   7.045 -1.3315  1.9699  0.1070
 7071TIP3   OH242771   4.938   3.192   7.249 -0.4294  0.7492  0.6707
 7071TIP3    H142772   4.935   3.244   7.330  0.9305 -0.8257  1.8102
 7071TIP3    H242773   5.032   3.186   7.229 -0.6336 -0.3415 -0.0314
 7072TIP3   OH242774   3.712   3.568   1.791  0.0532 -0.7080 -0.2737
 7072TIP3    H142775   3.726   3.662   1.801 -0.4083 -0.8839  3.4965
 7072TIP3    H242776   3.799   3.529   1.805  0.2670 -0.9196 -1.9357
 7073TIP3   OH242777   3.326   2.860   6.639 -0.6851 -0.0107 -0.1501
 7073TIP3    H142778   3.346   2.946   6.600  1.3822 -0.9683 -1.3970
 7073TIP3    H242779   3.248   2.830   6.592 -0.0674  0.2270 -1.3864
 7074TIP3   OH242780   6.606   1.618   1.163 -0.5362 -0.1208 -0.5751
 7074TIP3    H142781   6.694   1.602   1.129 -0.9426 -0.1786 -1.6270
 7074TIP3    H242782   6.547   1.575   1.100 -1.4268  1.7197 -1.0733
 7075TIP3   OH242783   0.743   6.921   0.287  0.1976  0.2173 -0.3154
 7075TIP3    H142784   0.721   6.950   0.375 -0.9752  1.3092 -0.9434
 7075TIP3    H242785   0.666   6.871   0.258  0.8423 -0.7037 -0.4900
 7076TIP3   OH242786   3.170   6.685   8.005  0.1079 -0.3213  0.8095
 7076TIP3    H142787   3.145   6.615   7.945  1.3602  1.4399 -1.9856
 7076TIP3    H242788   3.251   6.654   8.045  1.1727 -0.1877 -1.1203
 7077TIP3   OH242789   1.646   3.146   0.415 -0.7496 -0.3727  0.0221
 7077TIP3    H142790   1.569   3.192   0.381  0.0616  0.6753 -0.4450
 7077TIP3    H242791   1.617   3.111   0.499 -1.0182  2.3008  1.1468
 7078TIP3   OH242792   0.203   6.551   1.243 -0.3792  0.0805 -0.8228
 7078TIP3    H142793   0.155   6.512   1.170  0.2991 -3.0000  0.2422
 7078TIP3    H242794   0.250   6.479   1.282 -0.9455  1.5027  2.8977
   7.05476   7.05476   8.28220
