PSF EXT CMAP XPLOR

         2 !NTITLE
* GENERATE LIGAND                                                               
*  DATE:     4/15/25     17:25:54      CREATED BY USER: charmm-gui              

        43 !NATOM
         1 LIG      1        LIG      S        SG311   -0.246000       32.0600           0
         2 LIG      1        LIG      N1       NG301   -0.423000       14.0070           0
         3 LIG      1        LIG      N2       NG311   -0.368000       14.0070           0
         4 LIG      1        LIG      C1       CG311    0.117000       12.0110           0
         5 LIG      1        LIG      C2       CG2R61  -0.940000E-01   12.0110           0
         6 LIG      1        LIG      C3       CG2R61   0.180000E-01   12.0110           0
         7 LIG      1        LIG      C4       CG321   -0.430000E-01   12.0110           0
         8 LIG      1        LIG      C5       CG321   -0.430000E-01   12.0110           0
         9 LIG      1        LIG      C6       CG331   -0.271000       12.0110           0
        10 LIG      1        LIG      C7       CG2R61   0.129000       12.0110           0
        11 LIG      1        LIG      C8       CG2R61  -0.104000       12.0110           0
        12 LIG      1        LIG      C9       CG2R61  -0.170000E-01   12.0110           0
        13 LIG      1        LIG      C10      CG331   -0.269000       12.0110           0
        14 LIG      1        LIG      C11      CG331   -0.269000       12.0110           0
        15 LIG      1        LIG      C12      CG2R61  -0.117000       12.0110           0
        16 LIG      1        LIG      C13      CG2R61  -0.116000       12.0110           0
        17 LIG      1        LIG      C14      CG2R61   0.129000       12.0110           0
        18 LIG      1        LIG      C15      CG2R61  -0.117000       12.0110           0
        19 LIG      1        LIG      C16      CG2R61  -0.117000       12.0110           0
        20 LIG      1        LIG      C17      CG2R61  -0.108000       12.0110           0
        21 LIG      1        LIG      C18      CG2R61  -0.116000       12.0110           0
        22 LIG      1        LIG      H1       HGA1     0.900000E-01   1.00800           0
        23 LIG      1        LIG      H2       HGA2     0.900000E-01   1.00800           0
        24 LIG      1        LIG      H3       HGA2     0.900000E-01   1.00800           0
        25 LIG      1        LIG      H4       HGA2     0.900000E-01   1.00800           0
        26 LIG      1        LIG      H5       HGA2     0.900000E-01   1.00800           0
        27 LIG      1        LIG      H6       HGA3     0.900000E-01   1.00800           0
        28 LIG      1        LIG      H7       HGA3     0.900000E-01   1.00800           0
        29 LIG      1        LIG      H8       HGA3     0.900000E-01   1.00800           0
        30 LIG      1        LIG      H9       HGR61    0.115000       1.00800           0
        31 LIG      1        LIG      H10      HGPAM1   0.380000       1.00800           0
        32 LIG      1        LIG      H11      HGA3     0.900000E-01   1.00800           0
        33 LIG      1        LIG      H12      HGA3     0.900000E-01   1.00800           0
        34 LIG      1        LIG      H13      HGA3     0.900000E-01   1.00800           0
        35 LIG      1        LIG      H14      HGA3     0.900000E-01   1.00800           0
        36 LIG      1        LIG      H15      HGA3     0.900000E-01   1.00800           0
        37 LIG      1        LIG      H16      HGA3     0.900000E-01   1.00800           0
        38 LIG      1        LIG      H17      HGR61    0.115000       1.00800           0
        39 LIG      1        LIG      H18      HGR61    0.115000       1.00800           0
        40 LIG      1        LIG      H19      HGR61    0.115000       1.00800           0
        41 LIG      1        LIG      H20      HGR61    0.115000       1.00800           0
        42 LIG      1        LIG      H21      HGR61    0.115000       1.00800           0
        43 LIG      1        LIG      H22      HGR61    0.115000       1.00800           0

        45 !NBOND: bonds
         1        10         1        17         2         4         2         7
         2         8         3         6         3        12         3        31
         4         5         4         9         4        22         5         6
         5        11         6        10         7        13         7        23
         7        24         8        14         8        25         8        26
         9        27         9        28         9        29        10        15
        11        16        11        30        12        17        12        18
        13        32        13        33        13        34        14        35
        14        36        14        37        15        16        15        38
        16        39        17        19        18        20        18        40
        19        21        19        41        20        21        20        42
        21        43

        79 !NTHETA: angles
        10         1        17         4         2         7         4         2         8
         7         2         8         6         3        12         6         3        31
        12         3        31         2         4         5         2         4         9
         2         4        22         5         4         9         5         4        22
         9         4        22         4         5         6         4         5        11
         6         5        11         3         6         5         3         6        10
         5         6        10         2         7        13         2         7        23
         2         7        24        13         7        23        13         7        24
        23         7        24         2         8        14         2         8        25
         2         8        26        14         8        25        14         8        26
        25         8        26         4         9        27         4         9        28
         4         9        29        27         9        28        27         9        29
        28         9        29         1        10         6         1        10        15
         6        10        15         5        11        16         5        11        30
        16        11        30         3        12        17         3        12        18
        17        12        18         7        13        32         7        13        33
         7        13        34        32        13        33        32        13        34
        33        13        34         8        14        35         8        14        36
         8        14        37        35        14        36        35        14        37
        36        14        37        10        15        16        10        15        38
        16        15        38        11        16        15        11        16        39
        15        16        39         1        17        12         1        17        19
        12        17        19        12        18        20        12        18        40
        20        18        40        17        19        21        17        19        41
        21        19        41        18        20        21        18        20        42
        21        20        42        19        21        20        19        21        43
        20        21        43

       111 !NPHI: dihedrals
         1        10         6         3         1        10         6         5
         1        10        15        16         1        10        15        38
         1        17        12         3         1        17        12        18
         1        17        19        21         1        17        19        41
         2         4         5         6         2         4         5        11
         2         4         9        27         2         4         9        28
         2         4         9        29         2         7        13        32
         2         7        13        33         2         7        13        34
         2         8        14        35         2         8        14        36
         2         8        14        37         3         6         5         4
         3         6         5        11         3         6        10        15
         3        12        17        19         3        12        18        20
         3        12        18        40         4         2         7        13
         4         2         7        23         4         2         7        24
         4         2         8        14         4         2         8        25
         4         2         8        26         4         5         6        10
         4         5        11        16         4         5        11        30
         5         4         2         7         5         4         2         8
         5         4         9        27         5         4         9        28
         5         4         9        29         5         6         3        12
         5         6         3        31         5         6        10        15
         5        11        16        15         5        11        16        39
         6         3        12        17         6         3        12        18
         6         5         4         9         6         5         4        22
         6         5        11        16         6         5        11        30
         6        10         1        17         6        10        15        16
         6        10        15        38         7         2         4         9
         7         2         4        22         7         2         8        14
         7         2         8        25         7         2         8        26
         8         2         4         9         8         2         4        22
         8         2         7        13         8         2         7        23
         8         2         7        24         9         4         5        11
        10         1        17        12        10         1        17        19
        10         6         3        12        10         6         3        31
        10         6         5        11        10        15        16        11
        10        15        16        39        11         5         4        22
        11        16        15        38        12        17        19        21
        12        17        19        41        12        18        20        21
        12        18        20        42        15        10         1        17
        15        16        11        30        17        12         3        31
        17        12        18        20        17        12        18        40
        17        19        21        20        17        19        21        43
        18        12         3        31        18        12        17        19
        18        20        21        19        18        20        21        43
        19        21        20        42        20        21        19        41
        21        20        18        40        22         4         9        27
        22         4         9        28        22         4         9        29
        23         7        13        32        23         7        13        33
        23         7        13        34        24         7        13        32
        24         7        13        33        24         7        13        34
        25         8        14        35        25         8        14        36
        25         8        14        37        26         8        14        35
        26         8        14        36        26         8        14        37
        30        11        16        39        38        15        16        39
        40        18        20        42        41        19        21        43
        42        20        21        43

         0 !NIMPHI: impropers


         0 !NDON: donors


         0 !NACC: acceptors


         0 !NNB

         0         0         0         0         0         0         0         0
         0         0         0         0         0         0         0         0
         0         0         0         0         0         0         0         0
         0         0         0         0         0         0         0         0
         0         0         0         0         0         0         0         0
         0         0         0

         1         0 !NGRP NST2
         0         1         0

         0         0 !NUMLP NUMLPH

         0 !NCRTERM: cross-terms

