* GENERATE LIGAND
*  DATE:     4/15/25     17:25:54      CREATED BY USER: charmm-gui
*
        43  EXT
         1         1  LIG       S               2.5261293740        1.9458379243        0.4838589475  LIG       1               0.0000000000
         2         1  LIG       N1             -2.3074684528       -1.1381157955        0.1455552176  LIG       1               0.0000000000
         3         1  LIG       N2              0.5950846873       -0.3644903526       -0.3358823846  LIG       1               0.0000000000
         4         1  LIG       C1             -2.2493626854       -0.0731981755       -0.9015589723  LIG       1               0.0000000000
         5         1  LIG       C2             -1.3339023007        1.0863165712       -0.4998487686  LIG       1               0.0000000000
         6         1  LIG       C3              0.0508919247        0.9429055112       -0.2358925647  LIG       1               0.0000000000
         7         1  LIG       C4             -3.1662174722       -2.2748951184       -0.2491239725  LIG       1               0.0000000000
         8         1  LIG       C5             -2.6554336066       -0.6142239387        1.4900695761  LIG       1               0.0000000000
         9         1  LIG       C6             -1.7916632643       -0.6116780627       -2.2827588195  LIG       1               0.0000000000
        10         1  LIG       C7              0.8079658955        2.0775981542        0.1495949560  LIG       1               0.0000000000
        11         1  LIG       C8             -1.9297932987        2.3541131125       -0.3497682604  LIG       1               0.0000000000
        12         1  LIG       C9              1.9713162361       -0.6752341579       -0.1727910652  LIG       1               0.0000000000
        13         1  LIG       C10            -4.6498065887       -1.9400945304       -0.4557252711  LIG       1               0.0000000000
        14         1  LIG       C11            -2.6604070119       -1.6409986398        2.6299773718  LIG       1               0.0000000000
        15         1  LIG       C12             0.1885775645        3.3253390188        0.2909592355  LIG       1               0.0000000000
        16         1  LIG       C13            -1.1811717622        3.4618169432        0.0485024582  LIG       1               0.0000000000
        17         1  LIG       C14             2.9581591620        0.2698377276        0.1997922207  LIG       1               0.0000000000
        18         1  LIG       C15             2.3467269886       -2.0109421425       -0.3864528778  LIG       1               0.0000000000
        19         1  LIG       C16             4.2914829109       -0.1325067497        0.3550631890  LIG       1               0.0000000000
        20         1  LIG       C17             3.6819753385       -2.4065279861       -0.2275288720  LIG       1               0.0000000000
        21         1  LIG       C18             4.6533696524       -1.4696338613        0.1438038472  LIG       1               0.0000000000
        22         1  LIG       H1             -3.2807752950        0.3242848084       -1.0426844446  LIG       1               0.0000000000
        23         1  LIG       H2             -3.0843796462       -3.0803710810        0.5135875615  LIG       1               0.0000000000
        24         1  LIG       H3             -2.7669086204       -2.7424481834       -1.1758304865  LIG       1               0.0000000000
        25         1  LIG       H4             -3.6466585372       -0.1090195219        1.4447279812  LIG       1               0.0000000000
        26         1  LIG       H5             -1.9172852354        0.1695088774        1.7794068579  LIG       1               0.0000000000
        27         1  LIG       H6             -2.6347268087       -1.1345346430       -2.7811057295  LIG       1               0.0000000000
        28         1  LIG       H7             -0.9648482399       -1.3436011510       -2.1737960635  LIG       1               0.0000000000
        29         1  LIG       H8             -1.4514272356        0.2066432787       -2.9483733135  LIG       1               0.0000000000
        30         1  LIG       H9             -2.9906789734        2.4710964819       -0.5213872012  LIG       1               0.0000000000
        31         1  LIG       H10            -0.0828309636       -1.1237494695       -0.4035979935  LIG       1               0.0000000000
        32         1  LIG       H11            -4.7757345380       -1.1792803666       -1.2538670786  LIG       1               0.0000000000
        33         1  LIG       H12            -5.0943081926       -1.5399201790        0.4800082090  LIG       1               0.0000000000
        34         1  LIG       H13            -5.2167767091       -2.8450499119       -0.7542888818  LIG       1               0.0000000000
        35         1  LIG       H14            -1.7364038613       -2.2572945974        2.5913427937  LIG       1               0.0000000000
        36         1  LIG       H15            -3.5400572061       -2.3141733818        2.5483707932  LIG       1               0.0000000000
        37         1  LIG       H16            -2.7045533334       -1.1318675429        3.6152140186  LIG       1               0.0000000000
        38         1  LIG       H17             0.7654754592        4.1859654326        0.5959310757  LIG       1               0.0000000000
        39         1  LIG       H18            -1.6625855144        4.4218187035        0.1714342094  LIG       1               0.0000000000
        40         1  LIG       H19             1.6115169539       -2.7484531036       -0.6732678235  LIG       1               0.0000000000
        41         1  LIG       H20             5.0417859511        0.5891485285        0.6427350732  LIG       1               0.0000000000
        42         1  LIG       H21             3.9608062866       -3.4379266880       -0.3900869857  LIG       1               0.0000000000
        43         1  LIG       H22             5.6810499555       -1.7771868901        0.2689819298  LIG       1               0.0000000000
