* GENERATED BY CHARMM-GUI (HTTP://WWW.CHARMM-GUI.ORG)
*
        21  EXT
         1         1  LIG       S               2.5257000000        1.9725000000        0.4651000000  LIG       1               0.0000000000
         2         1  LIG       N1             -2.2366000000       -1.1409000000        0.1893000000  LIG       1               0.0000000000
         3         1  LIG       N2              0.6006000000       -0.3433000000       -0.3697000000  LIG       1               0.0000000000
         4         1  LIG       C1             -2.2208000000       -0.0877000000       -0.8395000000  LIG       1               0.0000000000
         5         1  LIG       C2             -1.3613000000        1.0734000000       -0.4454000000  LIG       1               0.0000000000
         6         1  LIG       C3              0.0176000000        0.9245000000       -0.2184000000  LIG       1               0.0000000000
         7         1  LIG       C4             -3.0852000000       -2.2476000000       -0.2394000000  LIG       1               0.0000000000
         8         1  LIG       C5             -2.6999000000       -0.5935000000        1.4599000000  LIG       1               0.0000000000
         9         1  LIG       C6             -1.7922000000       -0.7044000000       -2.1808000000  LIG       1               0.0000000000
        10         1  LIG       C7              0.7702000000        2.0499000000        0.1523000000  LIG       1               0.0000000000
        11         1  LIG       C8             -1.9817000000        2.3146000000       -0.3082000000  LIG       1               0.0000000000
        12         1  LIG       C9              1.9489000000       -0.6904000000       -0.1916000000  LIG       1               0.0000000000
        13         1  LIG       C10            -4.5245000000       -1.7970000000       -0.4226000000  LIG       1               0.0000000000
        14         1  LIG       C11            -2.6782000000       -1.6487000000        2.5528000000  LIG       1               0.0000000000
        15         1  LIG       C12             0.1376000000        3.2955000000        0.2884000000  LIG       1               0.0000000000
        16         1  LIG       C13            -1.2317000000        3.4260000000        0.0589000000  LIG       1               0.0000000000
        17         1  LIG       C14             2.9174000000        0.2543000000        0.1828000000  LIG       1               0.0000000000
        18         1  LIG       C15             2.3431000000       -2.0241000000       -0.3941000000  LIG       1               0.0000000000
        19         1  LIG       C16             4.2525000000       -0.1462000000        0.3469000000  LIG       1               0.0000000000
        20         1  LIG       C17             3.6719000000       -2.4134000000       -0.2286000000  LIG       1               0.0000000000
        21         1  LIG       C18             4.6267000000       -1.4736000000        0.1419000000  LIG       1               0.0000000000
