;;
;; Generated by CHARMM-GUI (http://www.charmm-gui.org) v1.7
;;
;; psf2itp_mol.py
;;
;; Correspondance:
;; jul316@lehigh.edu or wonpil@lehigh.edu
;;
;; CHARMM36 FF in GROMACS format
;;


[ defaults ]
; nbfunc	comb-rule	gen-pairs	fudgeLJ	fudgeQQ
1	2	yes	1.0	1.0

[ atomtypes ]
; name	at.num	mass	charge	ptype	sigma	epsilon	;	sigma_14	epsilon_14
  CG2R51     6    12.0110      0.381     A    3.74177461619e-01    2.092000e-01 
  CG2R53     6    12.0110      0.335     A    3.91995435982e-01    8.368000e-02 
  CG2R61     6    12.0110      0.004     A    3.55005321205e-01    2.928800e-01 
   CG312     6    12.0110      0.725     A    3.65268474438e-01    1.757280e-01 
   CG321     6    12.0110     -0.019     A    3.58141284692e-01    2.343040e-01 ;   3.38541512893e-01    4.184000e-02 
    FGA2     9    18.9980     -0.203     A    2.90432982114e-01    4.393200e-01 
    HGA2     1     1.0080      0.090     A    2.38760856462e-01    1.464400e-01 
    HGA7     1     1.0080      0.124     A    2.31633666716e-01    1.255200e-01 
   HGR52     1     1.0080      0.224     A    1.60361769265e-01    1.924640e-01 
   HGR61     1     1.0080      0.115     A    2.42003727796e-01    1.255200e-01 
  NG2R50     7    14.0070     -0.503     A    3.29632525712e-01    8.368000e-01 
  NG2R51     7    14.0070      0.204     A    3.29632525712e-01    8.368000e-01 
   NG301     7    14.0070     -0.489     A    3.56359487256e-01    1.464400e-01 
  OG2R50     8    15.9994     -0.075     A    3.02905564168e-01    5.020800e-01 
   SG311    16    32.0600     -0.294     A    3.56359487256e-01    1.882800e+00 

[ bondtypes ]
; i	j	func	b0	Kb
 CG2R51  CG2R51     1  1.360000e-01  3.430880e+05
 CG2R51  CG2R53     1  1.508000e-01  2.209152e+05
 CG2R51  CG2R61     1  1.440000e-01  2.510400e+05
 CG2R51   CG321     1  1.500000e-01  1.921544e+05
 CG2R51   HGR52     1  1.083000e-01  3.138000e+05
 CG2R51  NG2R50     1  1.380000e-01  3.347200e+05
 CG2R51  NG2R51     1  1.380000e-01  3.347200e+05
 CG2R51  OG2R50     1  1.371000e-01  3.765600e+05
 CG2R53  CG2R61     1  1.440000e-01  2.510400e+05
 CG2R53   CG312     1  1.450000e-01  1.656864e+05
 CG2R53   CG321     1  1.500000e-01  3.556400e+05
 CG2R53   HGR52     1  1.090000e-01  2.845120e+05
 CG2R53  NG2R50     1  1.320000e-01  3.347200e+05
 CG2R53  NG2R51     1  1.374000e-01  2.677760e+05
 CG2R53  OG2R50     1  1.371000e-01  3.765600e+05
 CG2R53   SG311     1  1.770000e-01  1.422560e+05
 CG2R61  CG2R61     1  1.375000e-01  2.552240e+05
 CG2R61   CG312     1  1.450000e-01  1.656864e+05
 CG2R61   CG321     1  1.490000e-01  1.924640e+05
 CG2R61   HGR61     1  1.080000e-01  2.845120e+05
 CG2R61  NG2R51     1  1.420000e-01  3.347200e+05
 CG2R61   NG301     1  1.410000e-01  2.719600e+05
 CG2R61   SG311     1  1.750000e-01  2.343040e+05
  CG312   CG312     1  1.520000e-01  1.656864e+05
  CG312   CG321     1  1.520000e-01  1.656864e+05
  CG312    FGA2     1  1.353000e-01  2.920432e+05
  CG312    HGA7     1  1.082800e-01  2.895328e+05
  CG312   SG311     1  1.791700e-01  1.659040e+05
  CG321   CG321     1  1.530000e-01  1.861880e+05
  CG321    HGA2     1  1.111000e-01  2.585712e+05
  CG321  NG2R51     1  1.458000e-01  3.347200e+05
  CG321   NG301     1  1.450000e-01  1.673600e+05
  CG321   SG311     1  1.818000e-01  1.656864e+05
 NG2R50  NG2R50     1  1.290000e-01  2.845120e+05
 NG2R50  NG2R51     1  1.355000e-01  3.012480e+05
 NG2R50  OG2R50     1  1.395000e-01  2.343040e+05

[ pairtypes ]
; i	j	func	sigma1-4	epsilon1-4
 CG2R51   CG321     1  3.56359487256e-01  9.35570841786e-02 
 CG2R53   CG321     1  3.65268474438e-01  5.91706954497e-02 
 CG2R61   CG321     1  3.46773417049e-01  1.10698234855e-01 
  CG312   CG321     1  3.51904993665e-01  8.57464840095e-02 
  CG321   CG321     1  3.38541512893e-01  4.18400000000e-02 
  CG321    FGA2     1  3.14487247504e-01  1.35577095411e-01 
  CG321    HGA2     1  2.88651184677e-01  7.82754725313e-02 
  CG321    HGA7     1  2.85087589805e-01  7.24690057887e-02 
  CG321   HGR52     1  2.49451641079e-01  8.97368027066e-02 
  CG321   HGR61     1  2.90272620344e-01  7.24690057887e-02 
  CG321  NG2R50     1  3.34087019303e-01  1.87114168357e-01 
  CG321  NG2R51     1  3.34087019303e-01  1.87114168357e-01 
  CG321   NG301     1  3.47450500075e-01  7.82754725313e-02 
  CG321  OG2R50     1  3.20723538531e-01  1.44938011577e-01 
  CG321   SG311     1  3.47450500075e-01  2.80671252536e-01 

[ angletypes ]
; i	j	k	func	th0	cth	S0	Kub
 CG2R51  CG2R51  CG2R51     5  1.0720000e+02  7.5312000e+02  0.0000000e+00  0.0000000e+00
 CG2R51  CG2R51  CG2R53     5  1.1650000e+02  8.3680000e+02  0.0000000e+00  0.0000000e+00
 CG2R51  CG2R51  CG2R61     5  1.5435000e+02  2.9187584e+02  0.0000000e+00  0.0000000e+00
 CG2R51  CG2R51   CG321     5  1.3000000e+02  3.8325440e+02  0.0000000e+00  0.0000000e+00
 CG2R51  CG2R51   HGR52     5  1.3000000e+02  1.8409600e+02  2.2150000e-01  1.2552000e+04
 CG2R51  CG2R51  NG2R50     5  1.1000000e+02  1.0878400e+03  0.0000000e+00  0.0000000e+00
 CG2R51  CG2R51  NG2R51     5  1.0600000e+02  1.0878400e+03  0.0000000e+00  0.0000000e+00
 CG2R51  CG2R51  OG2R50     5  1.1170000e+02  1.0878400e+03  0.0000000e+00  0.0000000e+00
 CG2R51  CG2R61  CG2R61     5  1.2000000e+02  2.6777600e+02  0.0000000e+00  0.0000000e+00
 CG2R51   CG321  CG2R51     5  1.1400000e+02  4.8827280e+02  0.0000000e+00  0.0000000e+00
 CG2R51   CG321  CG2R61     5  1.0750000e+02  4.3346240e+02  0.0000000e+00  0.0000000e+00
 CG2R51   CG321   CG321     5  1.1400000e+02  4.8827280e+02  0.0000000e+00  0.0000000e+00
 CG2R51   CG321    HGA2     5  1.0950000e+02  4.6024000e+02  0.0000000e+00  0.0000000e+00
 CG2R51   CG321   NG301     5  1.0700000e+02  4.7697600e+02  0.0000000e+00  0.0000000e+00
 CG2R51  NG2R50  CG2R53     5  1.0350000e+02  1.0878400e+03  0.0000000e+00  0.0000000e+00
 CG2R51  NG2R50  NG2R50     5  1.0680000e+02  9.2048000e+02  0.0000000e+00  0.0000000e+00
 CG2R51  NG2R51  CG2R51     5  1.0900000e+02  8.3680000e+02  0.0000000e+00  0.0000000e+00
 CG2R51  NG2R51  CG2R53     5  1.0750000e+02  1.0878400e+03  0.0000000e+00  0.0000000e+00
 CG2R51  NG2R51  CG2R61     5  1.2700000e+02  3.3472000e+02  0.0000000e+00  0.0000000e+00
 CG2R51  NG2R51   CG321     5  1.2710000e+02  5.8576000e+02  0.0000000e+00  0.0000000e+00
 CG2R51  NG2R51  NG2R50     5  1.1500000e+02  1.3388800e+03  0.0000000e+00  0.0000000e+00
 CG2R51  OG2R50  CG2R51     5  1.0600000e+02  8.3680000e+02  0.0000000e+00  0.0000000e+00
 CG2R51  OG2R50  CG2R53     5  1.0400000e+02  1.1715200e+03  0.0000000e+00  0.0000000e+00
 CG2R51  OG2R50  NG2R50     5  1.0850000e+02  1.2552000e+03  0.0000000e+00  0.0000000e+00
 CG2R53  CG2R61  CG2R61     5  1.2000000e+02  2.6777600e+02  0.0000000e+00  0.0000000e+00
 CG2R53   CG312    FGA2     5  1.1500000e+02  4.1840000e+02  2.3570000e-01  2.5104000e+04
 CG2R53   CG312    HGA7     5  1.1297000e+02  2.3254672e+02  2.2340000e-01  2.5145840e+04
 CG2R53   CG321   CG321     5  1.1100000e+02  4.9371200e+02  0.0000000e+00  0.0000000e+00
 CG2R53   CG321    HGA2     5  1.0950000e+02  4.6024000e+02  0.0000000e+00  0.0000000e+00
 CG2R53  NG2R50  CG2R53     5  1.0100000e+02  8.3680000e+02  0.0000000e+00  0.0000000e+00
 CG2R53  NG2R50  NG2R50     5  1.0590000e+02  9.2048000e+02  0.0000000e+00  0.0000000e+00
 CG2R53  NG2R50  NG2R51     5  1.0100000e+02  8.3680000e+02  0.0000000e+00  0.0000000e+00
 CG2R53  NG2R50  OG2R50     5  1.0300000e+02  4.1840000e+02  0.0000000e+00  0.0000000e+00
 CG2R53  NG2R51  CG2R53     5  1.0750000e+02  1.0878400e+03  0.0000000e+00  0.0000000e+00
 CG2R53  NG2R51   CG321     5  1.2780000e+02  5.8576000e+02  0.0000000e+00  0.0000000e+00
 CG2R53  NG2R51  NG2R50     5  1.1400000e+02  1.0878400e+03  0.0000000e+00  0.0000000e+00
 CG2R53  OG2R50  CG2R53     5  1.0400000e+02  1.1715200e+03  0.0000000e+00  0.0000000e+00
 CG2R53  OG2R50  NG2R50     5  1.0930000e+02  1.3807200e+03  0.0000000e+00  0.0000000e+00
 CG2R61  CG2R51  NG2R50     5  1.5348000e+02  2.9288000e+02  2.5191000e-01  1.6342704e+04
 CG2R61  CG2R53  NG2R50     5  1.2450000e+02  2.0920000e+02  0.0000000e+00  0.0000000e+00
 CG2R61  CG2R53  OG2R50     5  1.2450000e+02  2.0920000e+02  0.0000000e+00  0.0000000e+00
 CG2R61  CG2R61  CG2R61     5  1.2000000e+02  3.3472000e+02  2.4162000e-01  2.9288000e+04
 CG2R61  CG2R61   CG312     5  1.2000000e+02  3.8325440e+02  0.0000000e+00  0.0000000e+00
 CG2R61  CG2R61   CG321     5  1.2000000e+02  3.8325440e+02  0.0000000e+00  0.0000000e+00
 CG2R61  CG2R61   HGR61     5  1.2000000e+02  2.5104000e+02  2.1525000e-01  1.8409600e+04
 CG2R61  CG2R61  NG2R51     5  1.2100000e+02  5.0208000e+02  0.0000000e+00  0.0000000e+00
 CG2R61  CG2R61   NG301     5  1.2000000e+02  3.5145600e+02  0.0000000e+00  0.0000000e+00
 CG2R61  CG2R61   SG311     5  1.2000000e+02  3.3472000e+02  0.0000000e+00  0.0000000e+00
 CG2R61   CG312    FGA2     5  1.1500000e+02  4.1840000e+02  2.3570000e-01  2.5104000e+04
 CG2R61   CG321  CG2R61     5  1.0750000e+02  4.3346240e+02  0.0000000e+00  0.0000000e+00
 CG2R61   CG321   CG321     5  1.0750000e+02  4.3346240e+02  0.0000000e+00  0.0000000e+00
 CG2R61   CG321    HGA2     5  1.0750000e+02  4.1254240e+02  0.0000000e+00  0.0000000e+00
 CG2R61   CG321  NG2R51     5  1.1520000e+02  4.4350400e+02  0.0000000e+00  0.0000000e+00
 CG2R61   CG321   NG301     5  1.0900000e+02  6.1086400e+02  0.0000000e+00  0.0000000e+00
 CG2R61   CG321   SG311     5  1.0824000e+02  4.5413136e+02  0.0000000e+00  0.0000000e+00
 CG2R61  NG2R51  NG2R50     5  1.1800000e+02  3.3472000e+02  0.0000000e+00  0.0000000e+00
 CG2R61   NG301   CG321     5  1.1400000e+02  4.7371248e+02  0.0000000e+00  0.0000000e+00
 CG2R61   SG311  CG2R61     5  1.0900000e+02  4.1840000e+02  0.0000000e+00  0.0000000e+00
  CG312  CG2R53  NG2R50     5  1.2300000e+02  3.8325440e+02  0.0000000e+00  0.0000000e+00
  CG312  CG2R53  OG2R50     5  1.1416000e+02  3.8308704e+02  0.0000000e+00  0.0000000e+00
  CG312   CG312   CG312     5  1.1200000e+02  4.1840000e+02  2.3570000e-01  2.5104000e+04
  CG312   CG312    FGA2     5  1.1200000e+02  4.1840000e+02  2.3570000e-01  2.5104000e+04
  CG312   CG312    HGA7     5  1.1200000e+02  2.6777600e+02  2.1680000e-01  2.5104000e+03
  CG312   CG321    HGA2     5  1.1010000e+02  2.8953280e+02  2.1790000e-01  1.8853104e+04
  CG312   SG311   CG321     5  9.5200000e+01  3.9814944e+02  0.0000000e+00  0.0000000e+00
  CG321  CG2R51  NG2R50     5  1.2000000e+02  3.8325440e+02  0.0000000e+00  0.0000000e+00
  CG321  CG2R51  NG2R51     5  1.2400000e+02  3.8325440e+02  0.0000000e+00  0.0000000e+00
  CG321  CG2R51  OG2R50     5  1.1416000e+02  3.8308704e+02  0.0000000e+00  0.0000000e+00
  CG321  CG2R53  NG2R50     5  1.2300000e+02  3.8325440e+02  0.0000000e+00  0.0000000e+00
  CG321  CG2R53  NG2R51     5  1.2000000e+02  3.8325440e+02  0.0000000e+00  0.0000000e+00
  CG321   CG312    FGA2     5  1.1200000e+02  4.1840000e+02  2.3570000e-01  2.5104000e+04
  CG321   CG312    HGA7     5  1.1200000e+02  2.6777600e+02  2.1680000e-01  2.5104000e+03
  CG321   CG321   CG321     5  1.1360000e+02  4.8827280e+02  2.5610000e-01  9.3386880e+03
  CG321   CG321    HGA2     5  1.1010000e+02  2.2175200e+02  2.1790000e-01  1.8853104e+04
  CG321   CG321   NG301     5  1.0700000e+02  4.7697600e+02  0.0000000e+00  0.0000000e+00
  CG321   CG321   SG311     5  1.1450000e+02  4.8534400e+02  0.0000000e+00  0.0000000e+00
  CG321  NG2R51  NG2R50     5  1.1790000e+02  5.8576000e+02  0.0000000e+00  0.0000000e+00
  CG321   NG301   CG321     5  1.1200000e+02  5.8576000e+02  0.0000000e+00  0.0000000e+00
  CG321   SG311   CG321     5  9.5000000e+01  2.8451200e+02  0.0000000e+00  0.0000000e+00
   FGA2   CG312    FGA2     5  1.0700000e+02  1.2552000e+03  2.1700000e-01  8.3680000e+03
   FGA2   CG312    HGA7     5  1.0889000e+02  3.5061920e+02  1.9800000e-01  4.1840000e+03
   HGA2   CG321    HGA2     5  1.0900000e+02  2.9706400e+02  1.8020000e-01  4.5187200e+03
 NG2R50  CG2R51   HGR52     5  1.2000000e+02  2.0920000e+02  2.1400000e-01  1.6736000e+04
 NG2R50  CG2R53   HGR52     5  1.2480000e+02  3.2635200e+02  0.0000000e+00  0.0000000e+00
 NG2R50  CG2R53  NG2R50     5  1.1100000e+02  8.3680000e+02  0.0000000e+00  0.0000000e+00
 NG2R50  CG2R53  NG2R51     5  1.1300000e+02  8.3680000e+02  0.0000000e+00  0.0000000e+00
 NG2R50  CG2R53  OG2R50     5  1.1570000e+02  1.0041600e+03  0.0000000e+00  0.0000000e+00
 NG2R50  NG2R50  NG2R50     5  1.0820000e+02  1.3388800e+03  0.0000000e+00  0.0000000e+00
 NG2R50  NG2R50  NG2R51     5  1.0220000e+02  1.3388800e+03  0.0000000e+00  0.0000000e+00
 NG2R50  NG2R50  OG2R50     5  1.0300000e+02  9.2048000e+02  0.0000000e+00  0.0000000e+00
 NG2R50  NG2R51  NG2R50     5  1.2100000e+02  7.5312000e+02  0.0000000e+00  0.0000000e+00
 NG2R51  CG2R51   HGR52     5  1.2400000e+02  2.0920000e+02  2.1400000e-01  1.6736000e+04
 NG2R51  CG2R53   HGR52     5  1.2220000e+02  3.3472000e+02  0.0000000e+00  0.0000000e+00
 NG2R51   CG321    HGA2     5  1.1010000e+02  2.7974224e+02  0.0000000e+00  0.0000000e+00
  NG301   CG321    HGA2     5  1.0900000e+02  2.7112320e+02  0.0000000e+00  0.0000000e+00
 OG2R50  CG2R51   HGR52     5  1.1830000e+02  4.1840000e+02  0.0000000e+00  0.0000000e+00
 OG2R50  CG2R53   HGR52     5  1.1950000e+02  2.0920000e+02  2.1400000e-01  1.6736000e+04
  SG311   CG312    FGA2     5  1.1157000e+02  4.1840000e+02  2.6018000e-01  2.5104000e+04
  SG311   CG312    HGA7     5  1.1060000e+02  3.8559744e+02  0.0000000e+00  0.0000000e+00
  SG311   CG321    HGA2     5  1.1130000e+02  3.8576480e+02  0.0000000e+00  0.0000000e+00
  SG311   CG321   SG311     5  1.1700000e+02  8.3680000e+02  0.0000000e+00  0.0000000e+00

[ dihedraltypes ]
; i	j	k	l	func	phi0	cp	mult
 CG2R51  CG2R51  CG2R51  CG2R51     9  1.800000e+02  6.276000e+01      2
 CG2R51  CG2R51  CG2R51   CG321     9  1.800000e+02  1.799120e+01      2
 CG2R51  CG2R51  CG2R51   HGR52     9  1.800000e+02  6.276000e+00      2
 CG2R51  CG2R51  CG2R51  NG2R51     9  1.800000e+02  1.673600e+01      2
 CG2R51  CG2R51  CG2R51  OG2R50     9  1.800000e+02  3.556400e+01      2
 CG2R51  CG2R51  CG2R61  CG2R61     9  0.000000e+00  4.184000e-01      4
 CG2R51  CG2R51  CG2R61  CG2R61     9  1.800000e+02  3.723760e+00      2
 CG2R51  CG2R51   CG321  CG2R51     9  0.000000e+00  1.255200e-01      1
 CG2R51  CG2R51   CG321  CG2R51     9  0.000000e+00  2.301200e+00      2
 CG2R51  CG2R51   CG321  CG2R51     9  1.800000e+02  1.631760e+00      3
 CG2R51  CG2R51   CG321   CG321     9  0.000000e+00  8.368000e-01      1
 CG2R51  CG2R51   CG321   CG321     9  0.000000e+00  1.129680e+00      2
 CG2R51  CG2R51   CG321    HGA2     9  0.000000e+00  0.000000e+00      3
 CG2R51  CG2R51   CG321   NG301     9  0.000000e+00  8.368000e-01      1
 CG2R51  CG2R51   CG321   NG301     9  0.000000e+00  1.129680e+00      2
 CG2R51  CG2R51  NG2R50  CG2R53     9  1.800000e+02  5.857600e+01      2
 CG2R51  CG2R51  NG2R50  NG2R50     9  1.800000e+02  3.556400e+01      2
 CG2R51  CG2R51  NG2R51  CG2R51     9  1.800000e+02  4.184000e+01      2
 CG2R51  CG2R51  NG2R51  CG2R53     9  1.800000e+02  5.857600e+01      2
 CG2R51  CG2R51  NG2R51  CG2R61     9  0.000000e+00  0.000000e+00      1
 CG2R51  CG2R51  NG2R51   CG321     9  0.000000e+00  0.000000e+00      1
 CG2R51  CG2R51  NG2R51  NG2R50     9  1.800000e+02  4.184000e+01      2
 CG2R51  CG2R51  OG2R50  CG2R51     9  1.800000e+02  3.138000e+01      2
 CG2R51  CG2R51  OG2R50  CG2R53     9  1.800000e+02  3.556400e+01      2
 CG2R51  CG2R51  OG2R50  NG2R50     9  1.800000e+02  3.556400e+01      2
 CG2R51  CG2R61  CG2R61  CG2R61     9  1.800000e+02  1.255200e+01      2
 CG2R51  CG2R61  CG2R61   HGR61     9  1.800000e+02  8.368000e+00      2
 CG2R51   CG321   CG321   CG321     9  0.000000e+00  1.673600e-01      3
 CG2R51   CG321   CG321    HGA2     9  0.000000e+00  8.368000e-01      3
 CG2R51   CG321   CG321   NG301     9  0.000000e+00  1.673600e-01      3
 CG2R51   CG321   NG301   CG321     9  0.000000e+00  3.430880e+00      2
 CG2R51   CG321   NG301   CG321     9  0.000000e+00  4.267680e+00      3
 CG2R51   CG321   NG301   CG321     9  1.800000e+02  5.941280e+00      1
 CG2R51  NG2R50  NG2R50  NG2R50     9  1.800000e+02  5.857600e+01      2
 CG2R51  NG2R50  NG2R50  NG2R51     9  1.800000e+02  5.857600e+01      2
 CG2R51  NG2R50  NG2R50  OG2R50     9  1.800000e+02  5.857600e+01      2
 CG2R53  CG2R61  CG2R61  CG2R61     9  1.800000e+02  1.255200e+01      2
 CG2R53  CG2R61  CG2R61   HGR61     9  1.800000e+02  8.368000e+00      2
 CG2R53   CG321   CG321    HGA2     9  0.000000e+00  8.368000e-01      3
 CG2R53  NG2R50  NG2R50  CG2R53     9  1.800000e+02  5.857600e+01      2
 CG2R53  NG2R50  NG2R50  NG2R50     9  1.800000e+02  6.485200e+01      2
 CG2R53  NG2R50  NG2R50  NG2R51     9  1.800000e+02  5.857600e+01      2
 CG2R53  NG2R50  NG2R51  CG2R53     9  1.800000e+02  4.184000e+01      2
 CG2R53  NG2R50  NG2R51   CG321     9  1.800000e+02  5.857600e+00      2
 CG2R53  NG2R50  NG2R51  NG2R50     9  1.800000e+02  3.974800e+01      2
 CG2R53  NG2R50  OG2R50  CG2R53     9  1.800000e+02  3.765600e+01      2
 CG2R61  CG2R51  CG2R51   HGR52     9  1.800000e+02  1.564398e+00      2
 CG2R61  CG2R51  CG2R51  NG2R51     9  1.800000e+02  1.380720e-02      2
 CG2R61  CG2R51  NG2R50  NG2R50     9  1.800000e+02  3.556400e+01      2
 CG2R61  CG2R53  NG2R50  CG2R51     9  1.800000e+02  1.673600e+01      2
 CG2R61  CG2R53  NG2R50  NG2R50     9  1.800000e+02  1.673600e+01      2
 CG2R61  CG2R53  OG2R50  CG2R53     9  1.800000e+02  3.556400e+01      2
 CG2R61  CG2R61  CG2R61  CG2R61     9  1.800000e+02  1.297040e+01      2
 CG2R61  CG2R61  CG2R61   CG312     9  1.800000e+02  1.297040e+01      2
 CG2R61  CG2R61  CG2R61   CG321     9  1.800000e+02  1.297040e+01      2
 CG2R61  CG2R61  CG2R61   HGR61     9  1.800000e+02  1.757280e+01      2
 CG2R61  CG2R61  CG2R61  NG2R51     9  1.800000e+02  2.092000e+01      2
 CG2R61  CG2R61  CG2R61   NG301     9  1.800000e+02  5.857600e+00      2
 CG2R61  CG2R61  CG2R61   SG311     9  1.800000e+02  1.882800e+01      2
 CG2R61  CG2R61   CG312    FGA2     9  0.000000e+00  1.255200e+00      2
 CG2R61  CG2R61   CG321  CG2R51     9  1.800000e+02  9.623200e-01      2
 CG2R61  CG2R61   CG321  CG2R61     9  1.800000e+02  9.623200e-01      2
 CG2R61  CG2R61   CG321   CG321     9  1.800000e+02  9.623200e-01      2
 CG2R61  CG2R61   CG321    HGA2     9  0.000000e+00  8.368000e-03      6
 CG2R61  CG2R61   CG321  NG2R51     9  0.000000e+00  4.978960e-01      2
 CG2R61  CG2R61   CG321  NG2R51     9  1.800000e+02  5.439200e-02      6
 CG2R61  CG2R61   CG321  NG2R51     9  1.800000e+02  5.522880e-01      4
 CG2R61  CG2R61   CG321   NG301     9  1.800000e+02  4.184000e+00      2
 CG2R61  CG2R61   CG321   SG311     9  1.800000e+02  5.012432e-01      2
 CG2R61  CG2R61  NG2R51  CG2R51     9  0.000000e+00  8.368000e-01      1
 CG2R61  CG2R61  NG2R51  CG2R51     9  0.000000e+00  2.510400e+00      3
 CG2R61  CG2R61  NG2R51  CG2R51     9  1.800000e+02  4.602400e+00      2
 CG2R61  CG2R61  NG2R51  NG2R50     9  1.800000e+02  4.184000e+00      2
 CG2R61  CG2R61   NG301   CG321     9  0.000000e+00  6.276000e-01      4
 CG2R61  CG2R61   NG301   CG321     9  1.800000e+02  6.276000e+00      2
 CG2R61  CG2R61   SG311  CG2R61     9  0.000000e+00  7.322000e+00      2
 CG2R61   CG321   CG321   CG321     9  0.000000e+00  1.673600e-01      3
 CG2R61   CG321   CG321    HGA2     9  0.000000e+00  1.673600e-01      3
 CG2R61   CG321  NG2R51  CG2R51     9  0.000000e+00  2.780268e+00      1
 CG2R61   CG321  NG2R51  CG2R51     9  0.000000e+00  5.473090e+00      3
 CG2R61   CG321  NG2R51  CG2R51     9  0.000000e+00  1.513478e+01      2
 CG2R61   CG321  NG2R51  NG2R50     9  0.000000e+00  2.301200e-01      4
 CG2R61   CG321  NG2R51  NG2R50     9  0.000000e+00  1.757280e+00      2
 CG2R61   CG321  NG2R51  NG2R50     9  1.800000e+02  3.347200e-01      3
 CG2R61   CG321  NG2R51  NG2R50     9  1.800000e+02  1.610840e+00      1
 CG2R61   CG321   NG301   CG321     9  0.000000e+00  2.092000e+00      2
 CG2R61   CG321   NG301   CG321     9  0.000000e+00  2.928800e+00      3
 CG2R61   CG321   NG301   CG321     9  1.800000e+02  3.347200e+00      1
 CG2R61   CG321   SG311   CG321     9  0.000000e+00  3.158502e+00      3
 CG2R61   CG321   SG311   CG321     9  1.800000e+02  4.568091e+00      1
  CG312  CG2R53  NG2R50  NG2R50     9  1.800000e+02  2.928800e+01      2
  CG312  CG2R53  OG2R50  CG2R53     9  1.800000e+02  1.323692e+01      2
  CG312  CG2R61  CG2R61   HGR61     9  1.800000e+02  1.004160e+01      2
  CG312   CG312   CG312   CG312     9  0.000000e+00  2.698680e-01      2
  CG312   CG312   CG312   CG312     9  0.000000e+00  3.958064e-01      4
  CG312   CG312   CG312   CG312     9  0.000000e+00  4.707000e-01      5
  CG312   CG312   CG312   CG312     9  1.800000e+02  6.263448e-01      3
  CG312   CG312   CG312    FGA2     9  0.000000e+00  1.046000e+00      3
  CG312   CG312   CG312    HGA7     9  0.000000e+00  6.610720e-01      3
  CG321  CG2R51  CG2R51   CG321     9  1.800000e+02  8.368000e+00      2
  CG321  CG2R51  CG2R51   HGR52     9  1.800000e+02  4.184000e+00      2
  CG321  CG2R51  CG2R51  NG2R50     9  1.800000e+02  1.255200e+01      2
  CG321  CG2R51  CG2R51  NG2R51     9  1.800000e+02  1.255200e+01      2
  CG321  CG2R51  NG2R50  CG2R53     9  1.800000e+02  1.255200e+01      2
  CG321  CG2R51  NG2R51  CG2R51     9  1.800000e+02  1.255200e+01      2
  CG321  CG2R51  NG2R51  CG2R53     9  1.800000e+02  1.255200e+01      2
  CG321  CG2R51  NG2R51  NG2R50     9  1.800000e+02  1.801714e+01      2
  CG321  CG2R51  OG2R50  CG2R51     9  1.800000e+02  1.323692e+01      2
  CG321  CG2R53  NG2R50  CG2R51     9  1.800000e+02  2.057608e+01      2
  CG321  CG2R53  NG2R50  NG2R50     9  1.800000e+02  2.928800e+01      2
  CG321  CG2R53  NG2R51  CG2R51     9  1.800000e+02  1.378628e+01      2
  CG321  CG2R53  NG2R51  CG2R53     9  1.800000e+02  3.932960e-01      2
  CG321  CG2R53  NG2R51   CG321     9  1.800000e+02  2.020872e-01      2
  CG321  CG2R53  NG2R51  NG2R50     9  1.800000e+02  2.092000e+01      2
  CG321  CG2R61  CG2R61   HGR61     9  1.800000e+02  1.004160e+01      2
  CG321   CG321   CG321   CG321     9  0.000000e+00  2.698680e-01      2
  CG321   CG321   CG321   CG321     9  0.000000e+00  3.957227e-01      4
  CG321   CG321   CG321   CG321     9  0.000000e+00  4.707418e-01      5
  CG321   CG321   CG321   CG321     9  1.800000e+02  6.265540e-01      3
  CG321   CG321   CG321    HGA2     9  0.000000e+00  8.158800e-01      3
  CG321   CG321   CG321   NG301     9  0.000000e+00  1.631760e+00      2
  CG321   CG321   CG321   NG301     9  1.800000e+02  6.694400e-01      1
  CG321   CG321   CG321   SG311     9  0.000000e+00  8.158800e-01      3
  CG321   CG321   NG301   CG321     9  0.000000e+00  3.430880e+00      2
  CG321   CG321   NG301   CG321     9  0.000000e+00  4.267680e+00      3
  CG321   CG321   NG301   CG321     9  1.800000e+02  5.941280e+00      1
  CG321   CG321   SG311   CG312     9  0.000000e+00  1.280304e+00      3
  CG321   CG321   SG311   CG312     9  1.800000e+02  3.254734e+00      1
  CG321   CG321   SG311   CG321     9  0.000000e+00  1.548080e+00      3
  CG321   CG321   SG311   CG321     9  1.800000e+02  1.004160e+00      1
   FGA2   CG312   CG312    FGA2     9  0.000000e+00  1.046000e+00      3
   FGA2   CG312   CG312    HGA7     9  0.000000e+00  6.610720e-01      3
   FGA2   CG312   CG321    HGA2     9  0.000000e+00  7.447520e-01      3
   FGA2   CG312   SG311   CG321     9  0.000000e+00  1.466074e+00      2
   FGA2   CG312   SG311   CG321     9  0.000000e+00  1.850165e+00      3
   FGA2   CG312   SG311   CG321     9  0.000000e+00  2.777339e+00      1
   HGA2   CG321   CG321    HGA2     9  0.000000e+00  9.204800e-01      3
   HGA2   CG321  NG2R51  CG2R51     9  0.000000e+00  0.000000e+00      3
   HGA2   CG321  NG2R51  CG2R53     9  0.000000e+00  0.000000e+00      3
   HGA2   CG321  NG2R51  NG2R50     9  0.000000e+00  0.000000e+00      3
   HGA2   CG321   NG301  CG2R61     9  1.800000e+02  0.000000e+00      3
   HGA2   CG321   NG301   CG321     9  0.000000e+00  4.184000e-01      3
   HGA2   CG321   SG311   CG312     9  0.000000e+00  1.171520e-02      3
   HGA2   CG321   SG311   CG321     9  0.000000e+00  1.171520e+00      3
   HGA7   CG312   CG321    HGA2     9  0.000000e+00  7.447520e-01      3
   HGA7   CG312   SG311   CG321     9  0.000000e+00  2.899512e-01      3
  HGR52  CG2R51  CG2R51   HGR52     9  1.800000e+02  4.184000e+00      2
  HGR52  CG2R51  NG2R50  CG2R53     9  1.800000e+02  1.255200e+01      2
  HGR52  CG2R51  NG2R50  NG2R50     9  1.800000e+02  2.301200e+01      2
  HGR52  CG2R51  NG2R51  CG2R51     9  1.800000e+02  1.087840e+01      2
  HGR52  CG2R51  NG2R51  CG2R53     9  1.800000e+02  1.255200e+01      2
  HGR52  CG2R51  NG2R51   CG321     9  1.800000e+02  0.000000e+00      2
  HGR52  CG2R51  NG2R51  NG2R50     9  1.800000e+02  1.255200e+01      2
  HGR52  CG2R51  OG2R50  CG2R51     9  1.800000e+02  1.589920e+01      2
  HGR52  CG2R51  OG2R50  CG2R53     9  1.800000e+02  1.589920e+01      2
  HGR52  CG2R51  OG2R50  NG2R50     9  1.800000e+02  2.301200e+01      2
  HGR52  CG2R53  NG2R50  CG2R51     9  1.800000e+02  8.368000e+00      2
  HGR52  CG2R53  NG2R50  CG2R53     9  1.800000e+02  2.301200e+01      2
  HGR52  CG2R53  NG2R50  NG2R50     9  1.800000e+02  1.799120e+01      2
  HGR52  CG2R53  NG2R50  NG2R51     9  1.800000e+02  1.380720e+01      2
  HGR52  CG2R53  NG2R50  OG2R50     9  1.800000e+02  1.589920e+01      2
  HGR52  CG2R53  NG2R51  CG2R51     9  1.800000e+02  1.255200e+01      2
  HGR52  CG2R53  NG2R51  CG2R53     9  1.800000e+02  3.119046e+01      2
  HGR52  CG2R53  NG2R51   CG321     9  1.800000e+02  0.000000e+00      2
  HGR52  CG2R53  NG2R51  NG2R50     9  1.800000e+02  7.112800e+00      2
  HGR52  CG2R53  OG2R50  CG2R51     9  1.800000e+02  1.589920e+01      2
  HGR52  CG2R53  OG2R50  NG2R50     9  1.800000e+02  1.673600e+01      2
  HGR61  CG2R61  CG2R61   HGR61     9  1.800000e+02  1.004160e+01      2
 NG2R50  CG2R51  CG2R51   HGR52     9  1.800000e+02  1.255200e+01      2
 NG2R50  CG2R51  CG2R51  NG2R50     9  1.800000e+02  5.857600e+01      2
 NG2R50  CG2R51  CG2R51  NG2R51     9  1.800000e+02  5.857600e+01      2
 NG2R50  CG2R51  CG2R51  OG2R50     9  1.800000e+02  5.857600e+01      2
 NG2R50  CG2R51  CG2R61  CG2R61     9  0.000000e+00  4.184000e-01      4
 NG2R50  CG2R51  CG2R61  CG2R61     9  1.800000e+02  3.723760e+00      2
 NG2R50  CG2R51   CG321  CG2R51     9  0.000000e+00  7.949600e-01      3
 NG2R50  CG2R51   CG321    HGA2     9  0.000000e+00  7.949600e-01      3
 NG2R50  CG2R53  CG2R61  CG2R61     9  0.000000e+00  4.184000e-01      4
 NG2R50  CG2R53  CG2R61  CG2R61     9  1.800000e+02  3.723760e+00      2
 NG2R50  CG2R53   CG312    FGA2     9  0.000000e+00  6.234160e-02      2
 NG2R50  CG2R53   CG312    FGA2     9  0.000000e+00  1.234280e-01      6
 NG2R50  CG2R53   CG312    FGA2     9  1.800000e+02  1.188674e+00      3
 NG2R50  CG2R53   CG312    FGA2     9  1.800000e+02  1.522139e+00      1
 NG2R50  CG2R53   CG312    HGA7     9  0.000000e+00  7.949600e-01      3
 NG2R50  CG2R53   CG321   CG321     9  0.000000e+00  6.234160e-02      2
 NG2R50  CG2R53   CG321   CG321     9  0.000000e+00  1.234280e-01      6
 NG2R50  CG2R53   CG321   CG321     9  1.800000e+02  1.188674e+00      3
 NG2R50  CG2R53   CG321   CG321     9  1.800000e+02  1.522139e+00      1
 NG2R50  CG2R53   CG321    HGA2     9  0.000000e+00  7.949600e-01      3
 NG2R50  CG2R53  NG2R50  CG2R53     9  1.800000e+02  4.184000e+01      2
 NG2R50  CG2R53  NG2R50  NG2R50     9  1.800000e+02  5.251422e+01      2
 NG2R50  CG2R53  NG2R50  NG2R51     9  1.800000e+02  5.020800e+01      2
 NG2R50  CG2R53  NG2R50  OG2R50     9  1.800000e+02  5.020800e+01      2
 NG2R50  CG2R53  NG2R51  CG2R51     9  1.800000e+02  5.857600e+01      2
 NG2R50  CG2R53  NG2R51  CG2R53     9  1.800000e+02  5.857600e+01      2
 NG2R50  CG2R53  NG2R51   CG321     9  1.800000e+02  4.602400e+01      2
 NG2R50  CG2R53  NG2R51  NG2R50     9  1.800000e+02  4.184000e+01      2
 NG2R50  CG2R53  OG2R50  CG2R51     9  1.800000e+02  3.556400e+01      2
 NG2R50  CG2R53  OG2R50  CG2R53     9  1.800000e+02  3.556400e+01      2
 NG2R50  CG2R53  OG2R50  NG2R50     9  1.800000e+02  3.765600e+01      2
 NG2R50  NG2R50  NG2R50  NG2R51     9  1.800000e+02  6.401520e+01      2
 NG2R50  NG2R50  NG2R51  CG2R51     9  1.800000e+02  3.556400e+01      2
 NG2R50  NG2R50  NG2R51  CG2R53     9  1.800000e+02  3.556400e+01      2
 NG2R50  NG2R50  NG2R51   CG321     9  1.800000e+02  1.046000e+01      2
 NG2R50  NG2R50  NG2R51  NG2R50     9  1.800000e+02  4.567213e+01      2
 NG2R50  NG2R50  OG2R50  CG2R51     9  1.800000e+02  3.556400e+01      2
 NG2R51  CG2R51  CG2R51   HGR52     9  1.800000e+02  1.255200e+01      2
 NG2R51  CG2R51   CG321   CG321     9  0.000000e+00  7.949600e-01      3
 NG2R51  CG2R51   CG321    HGA2     9  0.000000e+00  7.949600e-01      3
 NG2R51  CG2R51   CG321   NG301     9  0.000000e+00  7.949600e-01      3
 NG2R51  CG2R53   CG321   CG321     9  0.000000e+00  2.117104e-01      2
 NG2R51  CG2R53   CG321   CG321     9  0.000000e+00  3.695727e+00      1
 NG2R51  CG2R53   CG321   CG321     9  1.800000e+02  6.610720e-02      6
 NG2R51  CG2R53   CG321   CG321     9  1.800000e+02  7.493544e-01      3
 NG2R51  CG2R53   CG321    HGA2     9  0.000000e+00  7.949600e-01      3
 NG2R51  CG2R53  NG2R50  CG2R51     9  1.800000e+02  5.857600e+01      2
 NG2R51  CG2R53  NG2R50  CG2R53     9  1.800000e+02  5.020800e+01      2
 NG2R51  CG2R53  NG2R50  NG2R50     9  1.800000e+02  5.857600e+01      2
 NG2R51  CG2R61  CG2R61   HGR61     9  1.800000e+02  1.004160e+01      2
  NG301  CG2R61  CG2R61   HGR61     9  1.800000e+02  1.004160e+01      2
  NG301   CG321   CG321    HGA2     9  0.000000e+00  6.694400e-01      3
  NG301   CG321   CG321   SG311     9  0.000000e+00  1.255200e+00      3
  NG301   CG321   CG321   SG311     9  0.000000e+00  2.510400e+00      1
  NG301   CG321   CG321   SG311     9  1.800000e+02  8.368000e-01      2
 OG2R50  CG2R51  CG2R51   HGR52     9  1.800000e+02  1.255200e+01      2
 OG2R50  CG2R51   CG321    HGA2     9  0.000000e+00  7.694376e-01      3
 OG2R50  CG2R53  CG2R61  CG2R61     9  0.000000e+00  4.184000e-01      4
 OG2R50  CG2R53  CG2R61  CG2R61     9  1.800000e+02  3.723760e+00      2
 OG2R50  CG2R53   CG312    FGA2     9  0.000000e+00  9.062544e-01      3
 OG2R50  CG2R53   CG312    HGA7     9  0.000000e+00  7.694376e-01      3
 OG2R50  CG2R53  NG2R50  CG2R51     9  1.800000e+02  5.857600e+01      2
 OG2R50  CG2R53  NG2R50  CG2R53     9  1.800000e+02  5.020800e+01      2
 OG2R50  CG2R53  NG2R50  NG2R50     9  1.800000e+02  5.857600e+01      2
  SG311  CG2R61  CG2R61   HGR61     9  1.800000e+02  1.004160e+01      2
  SG311   CG321   CG321    HGA2     9  0.000000e+00  4.184000e-02      3
  SG311   CG321   CG321   SG311     9  0.000000e+00  4.184000e-01      3
  SG311   CG321   SG311   CG321     9  0.000000e+00  5.439200e+00      3
